 Entering Gaussian System, Link 0=/home/wagner/chemistry/gaussian/g16/g16
 Input=GAUSSIAN.com
 Output=GAUSSIAN.log
 Initial command:
 /home/wagner/chemistry/gaussian/g16/l1.exe "/home/wagner/chemistry/gaussian/work/Gau-24020.inp" -scrdir="/home/wagner/chemistry/gaussian/work/"
 Entering Link 1 = /home/wagner/chemistry/gaussian/g16/l1.exe PID=     24022.
  
 Copyright (c) 1988-2019, Gaussian, Inc.  All Rights Reserved.
  
 This is part of the Gaussian(R) 16 program.  It is based on
 the Gaussian(R) 09 system (copyright 2009, Gaussian, Inc.),
 the Gaussian(R) 03 system (copyright 2003, Gaussian, Inc.),
 the Gaussian(R) 98 system (copyright 1998, Gaussian, Inc.),
 the Gaussian(R) 94 system (copyright 1995, Gaussian, Inc.),
 the Gaussian 92(TM) system (copyright 1992, Gaussian, Inc.),
 the Gaussian 90(TM) system (copyright 1990, Gaussian, Inc.),
 the Gaussian 88(TM) system (copyright 1988, Gaussian, Inc.),
 the Gaussian 86(TM) system (copyright 1986, Carnegie Mellon
 University), and the Gaussian 82(TM) system (copyright 1983,
 Carnegie Mellon University). Gaussian is a federally registered
 trademark of Gaussian, Inc.
  
 This software contains proprietary and confidential information,
 including trade secrets, belonging to Gaussian, Inc.
  
 This software is provided under written license and may be
 used, copied, transmitted, or stored only in accord with that
 written license.
  
 The following legend is applicable only to US Government
 contracts under FAR:
  
                    RESTRICTED RIGHTS LEGEND
  
 Use, reproduction and disclosure by the US Government is
 subject to restrictions as set forth in subparagraphs (a)
 and (c) of the Commercial Computer Software - Restricted
 Rights clause in FAR 52.227-19.
  
 Gaussian, Inc.
 340 Quinnipiac St., Bldg. 40, Wallingford CT 06492
  
  
 ---------------------------------------------------------------
 Warning -- This program may not be used in any manner that
 competes with the business of Gaussian, Inc. or will provide
 assistance to any competitor of Gaussian, Inc.  The licensee
 of this program is prohibited from giving any competitor of
 Gaussian, Inc. access to this program.  By using this program,
 the user acknowledges that Gaussian, Inc. is engaged in the
 business of creating and licensing software in the field of
 computational chemistry and represents and warrants to the
 licensee that it is not a competitor of Gaussian, Inc. and that
 it will not use this program in any manner prohibited above.
 ---------------------------------------------------------------
  

 Cite this work as:
 Gaussian 16, Revision C.01,
 M. J. Frisch, G. W. Trucks, H. B. Schlegel, G. E. Scuseria, 
 M. A. Robb, J. R. Cheeseman, G. Scalmani, V. Barone, 
 G. A. Petersson, H. Nakatsuji, X. Li, M. Caricato, A. V. Marenich, 
 J. Bloino, B. G. Janesko, R. Gomperts, B. Mennucci, H. P. Hratchian, 
 J. V. Ortiz, A. F. Izmaylov, J. L. Sonnenberg, D. Williams-Young, 
 F. Ding, F. Lipparini, F. Egidi, J. Goings, B. Peng, A. Petrone, 
 T. Henderson, D. Ranasinghe, V. G. Zakrzewski, J. Gao, N. Rega, 
 G. Zheng, W. Liang, M. Hada, M. Ehara, K. Toyota, R. Fukuda, 
 J. Hasegawa, M. Ishida, T. Nakajima, Y. Honda, O. Kitao, H. Nakai, 
 T. Vreven, K. Throssell, J. A. Montgomery, Jr., J. E. Peralta, 
 F. Ogliaro, M. J. Bearpark, J. J. Heyd, E. N. Brothers, K. N. Kudin, 
 V. N. Staroverov, T. A. Keith, R. Kobayashi, J. Normand, 
 K. Raghavachari, A. P. Rendell, J. C. Burant, S. S. Iyengar, 
 J. Tomasi, M. Cossi, J. M. Millam, M. Klene, C. Adamo, R. Cammi, 
 J. W. Ochterski, R. L. Martin, K. Morokuma, O. Farkas, 
 J. B. Foresman, and D. J. Fox, Gaussian, Inc., Wallingford CT, 2019.
 
 ******************************************
 Gaussian 16:  EM64L-G16RevC.01  3-Jul-2019
                 3-Sep-2022 
 ******************************************
 %nproc=16
 Will use up to   16 processors via shared memory.
 %mem=16GB
 ----------------------------------------------------------------------
 # qcisd/aug-cc-pvtz nosymm density=current pop=(chelpg,hirshfeld,npa,d
 ipole)
 ----------------------------------------------------------------------
 1/30=1,38=1,172=1/1;
 2/12=2,15=1,17=6,18=5,40=1/2;
 3/5=16,6=1,7=10,11=9,25=1,30=1,71=1/1,2,3;
 4//1;
 5/5=2,38=5/2;
 8/6=4,9=120000,10=1/1,4;
 9/5=8,15=1/13;
 11/28=-7,31=1,32=3,42=3/11;
 10/5=6,13=10,31=1/2;
 6/7=2,8=2,9=2,10=2,15=24,20=3,22=-1,40=-1,79=1/1,2,7;
 99/5=1,9=1/99;
 -----------------
 f2cs-wavefunction
 -----------------
 Symbolic Z-matrix:
 Charge =  0 Multiplicity = 1
 C                     0.        0.       -0.52035 
 S                     0.        0.        1.07852 
 F                     0.       -1.05522  -1.29554 
 F                     0.        1.06522  -1.29554 
 
                          Input orientation:                          
 ---------------------------------------------------------------------
 Center     Atomic      Atomic             Coordinates (Angstroms)
 Number     Number       Type             X           Y           Z
 ---------------------------------------------------------------------
      1          6           0        0.000000    0.000000   -0.520349
      2         16           0        0.000000    0.000000    1.078525
      3          9           0        0.000000   -1.055221   -1.295538
      4          9           0        0.000000    1.065221   -1.295538
 ---------------------------------------------------------------------
                    Distance matrix (angstroms):
                    1          2          3          4
     1  C    0.000000
     2  S    1.598874   0.000000
     3  F    1.309355   2.598012   0.000000
     4  F    1.317427   2.602090   2.120442   0.000000
 Symmetry turned off by external request.
 Stoichiometry    CF2S
 Framework group  CS[SG(CF2S)]
 Deg. of freedom     5
 Full point group                 CS      NOp   2
 Rotational constants (GHZ):          11.8325727           5.1130512           3.5702757
 Standard basis: Aug-CC-pVTZ (5D, 7F)
   188 basis functions,   330 primitive gaussians,   224 cartesian basis functions
    20 alpha electrons       20 beta electrons
       nuclear repulsion energy       154.1173874776 Hartrees.
 NAtoms=    4 NActive=    4 NUniq=    4 SFac= 1.00D+00 NAtFMM=   60 NAOKFM=F Big=F
 Integral buffers will be    131072 words long.
 Raffenetti 1 integral format.
 Two-electron integral symmetry is turned off.
 One-electron integrals computed using PRISM.
 NBasis=   188 RedAO= T EigKep=  9.83D-05  NBF=   188
 NBsUse=   188 1.00D-06 EigRej= -1.00D+00 NBFU=   188
 ExpMin= 3.51D-02 ExpMax= 3.74D+05 ExpMxC= 1.18D+03 IAcc=3 IRadAn=         5 AccDes= 0.00D+00
 Harris functional with IExCor=  205 and IRadAn=       5 diagonalized for initial guess.
 HarFok:  IExCor=  205 AccDes= 0.00D+00 IRadAn=         5 IDoV= 1 UseB2=F ITyADJ=14
 ICtDFT=  3500011 ScaDFX=  1.000000  1.000000  1.000000  1.000000
 FoFCou: FMM=F IPFlag=           0 FMFlag=      100000 FMFlg1=           0
         NFxFlg=           0 DoJE=T BraDBF=F KetDBF=T FulRan=T
         wScrn=  0.000000 ICntrl=       500 IOpCl=  0 I1Cent=   200000004 NGrid=           0
         NMat0=    1 NMatS0=      1 NMatT0=    0 NMatD0=    1 NMtDS0=    0 NMtDT0=    0
 Symmetry not used in FoFCou.
 Keep R1 ints in memory in canonical form, NReq=165820960.
 Requested convergence on RMS density matrix=1.00D-08 within 128 cycles.
 Requested convergence on MAX density matrix=1.00D-06.
 Requested convergence on             energy=1.00D-06.
 No special actions if energy rises.
 SCF Done:  E(RHF) =  -634.356308793     A.U. after   12 cycles
            NFock= 12  Conv=0.61D-08     -V/T= 2.0006
 ExpMin= 3.51D-02 ExpMax= 3.74D+05 ExpMxC= 1.18D+03 IAcc=3 IRadAn=         5 AccDes= 0.00D+00
 HarFok:  IExCor=  205 AccDes= 0.00D+00 IRadAn=         5 IDoV=-2 UseB2=F ITyADJ=14
 ICtDFT= 12500011 ScaDFX=  1.000000  1.000000  1.000000  1.000000
 Range of M.O.s used for correlation:     9   188
 NBasis=   188 NAE=    20 NBE=    20 NFC=     8 NFV=     0
 NROrb=    180 NOA=    12 NOB=    12 NVA=   168 NVB=   168

 **** Warning!!: The largest alpha MO coefficient is  0.27541099D+02

 Semi-Direct transformation.
 ModeAB=           2 MOrb=            12 LenV=    2146475681
 LASXX=     33405819 LTotXX=    33405819 LenRXX=    33405819
 LTotAB=    33954012 MaxLAS=    54432000 LenRXY=    54432000
 NonZer=    66811638 LenScr=   100987392 LnRSAI=           0
 LnScr1=           0 LExtra=           0 Total=    188825211
 MaxDsk=          -1 SrtSym=           F ITran=            4
 JobTyp=0 Pass  1:  I=   1 to  12.
 (rs|ai) integrals will be sorted in core.
 Spin components of T(2) and E(2):
     alpha-alpha T2 =       0.3020803331D-01 E2=     -0.1104681697D+00
     alpha-beta  T2 =       0.1602249119D+00 E2=     -0.6191859334D+00
     beta-beta   T2 =       0.3020803331D-01 E2=     -0.1104681697D+00
 ANorm=    0.1104826221D+01
 E2 =    -0.8401222728D+00 EUMP2 =    -0.63519643106576D+03
 Keep R2 and R3 ints in memory in canonical form, NReq=323654033.
 CIDS: In Core Option IDoMem=           1.
 Iterations=  50 Convergence= 0.100D-07
 Produce multiple copies of IABC intergrals
 Iteration Nr.   1
 **********************
 DD1Dir will call FoFMem   1 times, MxPair=       156
 NAB=    78 NAA=     0 NBB=     0.
 MP4(R+Q)=  0.19407313D-01
 E3=       -0.32115529D-02        EUMP3=      -0.63519964262D+03
 E4(DQ)=    0.23938837D-02        UMP4(DQ)=   -0.63519724873D+03
 E4(SDQ)=  -0.85374901D-02        UMP4(SDQ)=  -0.63520818011D+03
 DE(Corr)= -0.82392651     E(Corr)=     -635.18023531    
 NORM(A)=   0.11040521D+01
 Iteration Nr.   2
 **********************
 DD1Dir will call FoFMem   1 times, MxPair=       156
 NAB=    78 NAA=     0 NBB=     0.
 DE(Corr)= -0.84976167     E(CORR)=     -635.20607047     Delta=-2.58D-02
 NORM(A)=   0.11130340D+01
 Iteration Nr.   3
 **********************
 DD1Dir will call FoFMem   1 times, MxPair=       156
 NAB=    78 NAA=     0 NBB=     0.
 DE(Corr)= -0.84805578     E(CORR)=     -635.20436458     Delta= 1.71D-03
 NORM(A)=   0.11159009D+01
 Iteration Nr.   4
 **********************
 DD1Dir will call FoFMem   1 times, MxPair=       156
 NAB=    78 NAA=     0 NBB=     0.
 DE(Corr)= -0.85060805     E(CORR)=     -635.20691685     Delta=-2.55D-03
 NORM(A)=   0.11170201D+01
 Iteration Nr.   5
 **********************
 DD1Dir will call FoFMem   1 times, MxPair=       156
 NAB=    78 NAA=     0 NBB=     0.
 DE(Corr)= -0.85091240     E(CORR)=     -635.20722119     Delta=-3.04D-04
 NORM(A)=   0.11173481D+01
 Iteration Nr.   6
 **********************
 DD1Dir will call FoFMem   1 times, MxPair=       156
 NAB=    78 NAA=     0 NBB=     0.
 DE(Corr)= -0.85095225     E(CORR)=     -635.20726104     Delta=-3.99D-05
 NORM(A)=   0.11173974D+01
 Iteration Nr.   7
 **********************
 DD1Dir will call FoFMem   1 times, MxPair=       156
 NAB=    78 NAA=     0 NBB=     0.
 DE(Corr)= -0.85095662     E(CORR)=     -635.20726542     Delta=-4.37D-06
 NORM(A)=   0.11173967D+01
 Iteration Nr.   8
 **********************
 DD1Dir will call FoFMem   1 times, MxPair=       156
 NAB=    78 NAA=     0 NBB=     0.
 DE(Corr)= -0.85095543     E(CORR)=     -635.20726423     Delta= 1.19D-06
 NORM(A)=   0.11174019D+01
 Iteration Nr.   9
 **********************
 DD1Dir will call FoFMem   1 times, MxPair=       156
 NAB=    78 NAA=     0 NBB=     0.
 DE(Corr)= -0.85095496     E(CORR)=     -635.20726375     Delta= 4.78D-07
 NORM(A)=   0.11174018D+01
 Iteration Nr.  10
 **********************
 DD1Dir will call FoFMem   1 times, MxPair=       156
 NAB=    78 NAA=     0 NBB=     0.
 DE(Corr)= -0.85095516     E(CORR)=     -635.20726395     Delta=-2.01D-07
 NORM(A)=   0.11174033D+01
 Iteration Nr.  11
 **********************
 DD1Dir will call FoFMem   1 times, MxPair=       156
 NAB=    78 NAA=     0 NBB=     0.
 DE(Corr)= -0.85095578     E(CORR)=     -635.20726457     Delta=-6.23D-07
 NORM(A)=   0.11174046D+01
 Iteration Nr.  12
 **********************
 DD1Dir will call FoFMem   1 times, MxPair=       156
 NAB=    78 NAA=     0 NBB=     0.
 DE(Corr)= -0.85095605     E(CORR)=     -635.20726484     Delta=-2.69D-07
 NORM(A)=   0.11174053D+01
 Iteration Nr.  13
 **********************
 DD1Dir will call FoFMem   1 times, MxPair=       156
 NAB=    78 NAA=     0 NBB=     0.
 DE(Corr)= -0.85095629     E(CORR)=     -635.20726508     Delta=-2.37D-07
 NORM(A)=   0.11174058D+01
 Iteration Nr.  14
 **********************
 DD1Dir will call FoFMem   1 times, MxPair=       156
 NAB=    78 NAA=     0 NBB=     0.
 DE(Corr)= -0.85095635     E(CORR)=     -635.20726514     Delta=-6.47D-08
 NORM(A)=   0.11174059D+01
 Iteration Nr.  15
 **********************
 DD1Dir will call FoFMem   1 times, MxPair=       156
 NAB=    78 NAA=     0 NBB=     0.
 DE(Corr)= -0.85095639     E(CORR)=     -635.20726518     Delta=-3.85D-08
 NORM(A)=   0.11174060D+01
 Iteration Nr.  16
 **********************
 DD1Dir will call FoFMem   1 times, MxPair=       156
 NAB=    78 NAA=     0 NBB=     0.
 DE(Corr)= -0.85095640     E(CORR)=     -635.20726519     Delta=-9.56D-09
 NORM(A)=   0.11174060D+01
 Wavefunction amplitudes converged. E(Corr)=     -635.20726519    
 Largest amplitude= 8.60D-02

 Z-amplitude iterations

 Iteration Nr.   1
 **********************
 DD1Dir will call FoFMem   1 times, MxPair=       156
 NAB=    78 NAA=     0 NBB=     0.
 DE(Z)= -0.82696970     E(Z)=     -635.18327849     Delta= 2.40D-02
 NORM(A)=   0.11173883D+01
 Iteration Nr.   2
 **********************
 DD1Dir will call FoFMem   1 times, MxPair=       156
 NAB=    78 NAA=     0 NBB=     0.
 DE(Z)= -0.82696967     E(Z)=     -635.18327847     Delta= 2.62D-08
 NORM(A)=   0.11175277D+01
 Iteration Nr.   3
 **********************
 DD1Dir will call FoFMem   1 times, MxPair=       156
 NAB=    78 NAA=     0 NBB=     0.
 DE(Z)= -0.82697157     E(Z)=     -635.18328036     Delta=-1.89D-06
 NORM(A)=   0.11173641D+01
 Iteration Nr.   4
 **********************
 DD1Dir will call FoFMem   1 times, MxPair=       156
 NAB=    78 NAA=     0 NBB=     0.
 DE(Z)= -0.82696918     E(Z)=     -635.18327797     Delta= 2.39D-06
 NORM(A)=   0.11171939D+01
 Iteration Nr.   5
 **********************
 DD1Dir will call FoFMem   1 times, MxPair=       156
 NAB=    78 NAA=     0 NBB=     0.
 DE(Z)= -0.82696616     E(Z)=     -635.18327495     Delta= 3.02D-06
 NORM(A)=   0.11091301D+01
 Iteration Nr.   6
 **********************
 DD1Dir will call FoFMem   1 times, MxPair=       156
 NAB=    78 NAA=     0 NBB=     0.
 DE(Z)= -0.82683385     E(Z)=     -635.18314264     Delta= 1.32D-04
 NORM(A)=   0.11091276D+01
 Iteration Nr.   7
 **********************
 DD1Dir will call FoFMem   1 times, MxPair=       156
 NAB=    78 NAA=     0 NBB=     0.
 DE(Z)= -0.82683126     E(Z)=     -635.18314005     Delta= 2.59D-06
 NORM(A)=   0.11091252D+01
 Iteration Nr.   8
 **********************
 DD1Dir will call FoFMem   1 times, MxPair=       156
 NAB=    78 NAA=     0 NBB=     0.
 DE(Z)= -0.82683218     E(Z)=     -635.18314097     Delta=-9.20D-07
 NORM(A)=   0.11091249D+01
 Iteration Nr.   9
 **********************
 DD1Dir will call FoFMem   1 times, MxPair=       156
 NAB=    78 NAA=     0 NBB=     0.
 DE(Z)= -0.82683237     E(Z)=     -635.18314116     Delta=-1.91D-07
 NORM(A)=   0.11091252D+01
 Iteration Nr.  10
 **********************
 DD1Dir will call FoFMem   1 times, MxPair=       156
 NAB=    78 NAA=     0 NBB=     0.
 DE(Z)= -0.82683206     E(Z)=     -635.18314085     Delta= 3.11D-07
 NORM(A)=   0.11091253D+01
 Iteration Nr.  11
 **********************
 DD1Dir will call FoFMem   1 times, MxPair=       156
 NAB=    78 NAA=     0 NBB=     0.
 DE(Z)= -0.82683230     E(Z)=     -635.18314109     Delta=-2.38D-07
 NORM(A)=   0.11091254D+01
 Iteration Nr.  12
 **********************
 DD1Dir will call FoFMem   1 times, MxPair=       156
 NAB=    78 NAA=     0 NBB=     0.
 DE(Z)= -0.82683229     E(Z)=     -635.18314108     Delta= 1.28D-08
 NORM(A)=   0.11091254D+01
 Iteration Nr.  13
 **********************
 DD1Dir will call FoFMem   1 times, MxPair=       156
 NAB=    78 NAA=     0 NBB=     0.
 DE(Z)= -0.82683230     E(Z)=     -635.18314110     Delta=-1.77D-08
 NORM(A)=   0.11091254D+01
 Iteration Nr.  14
 **********************
 DD1Dir will call FoFMem   1 times, MxPair=       156
 NAB=    78 NAA=     0 NBB=     0.
 DE(Z)= -0.82683230     E(Z)=     -635.18314109     Delta= 3.46D-09
 NORM(A)=   0.11091254D+01
 Z-amplitudes converged.
 Discarding MO integrals.
          Differentiating once with respect to electric field.
                with respect to dipole field.
          Electric field/nuclear overlap derivatives assumed to be zero.
 Keep R1 ints in memory in canonical form, NReq=165824478.
          There are     1 degrees of freedom in the 1st order CPHF.  IDoFFX=0 NUNeed=     1.
 LinEq1:  Iter=  0 NonCon=     1 RMS=2.86D-03 Max=7.78D-02 NDo=     1
 AX will form     1 AO Fock derivatives at one time.
 LinEq1:  Iter=  1 NonCon=     1 RMS=8.89D-04 Max=1.20D-02 NDo=     1
 LinEq1:  Iter=  2 NonCon=     1 RMS=4.05D-04 Max=1.30D-02 NDo=     1
 LinEq1:  Iter=  3 NonCon=     1 RMS=1.09D-04 Max=2.38D-03 NDo=     1
 LinEq1:  Iter=  4 NonCon=     1 RMS=2.68D-05 Max=6.36D-04 NDo=     1
 LinEq1:  Iter=  5 NonCon=     1 RMS=6.76D-06 Max=1.06D-04 NDo=     1
 LinEq1:  Iter=  6 NonCon=     1 RMS=2.66D-06 Max=5.72D-05 NDo=     1
 LinEq1:  Iter=  7 NonCon=     1 RMS=8.36D-07 Max=1.53D-05 NDo=     1
 LinEq1:  Iter=  8 NonCon=     1 RMS=1.69D-07 Max=2.26D-06 NDo=     1
 LinEq1:  Iter=  9 NonCon=     1 RMS=3.31D-08 Max=3.65D-07 NDo=     1
 LinEq1:  Iter= 10 NonCon=     1 RMS=9.66D-09 Max=1.32D-07 NDo=     1
 LinEq1:  Iter= 11 NonCon=     1 RMS=4.07D-09 Max=5.26D-08 NDo=     1
 LinEq1:  Iter= 12 NonCon=     1 RMS=8.49D-10 Max=1.41D-08 NDo=     1
 LinEq1:  Iter= 13 NonCon=     1 RMS=1.17D-10 Max=1.53D-09 NDo=     1
 LinEq1:  Iter= 14 NonCon=     0 RMS=2.14D-11 Max=2.05D-10 NDo=     1
 Linear equations converged to 1.000D-10 1.000D-09 after    14 iterations.
 End of Minotr F.D. properties file   721 does not exist.
 End of Minotr F.D. properties file   722 does not exist.
 End of Minotr F.D. properties file   788 does not exist.

 **********************************************************************

            Population analysis using the CC Density.

 **********************************************************************

 Alpha  occ. eigenvalues --  -91.97691 -26.39109 -26.38826 -11.51951  -8.98049
 Alpha  occ. eigenvalues --   -6.66171  -6.66010  -6.65888  -1.75236  -1.67960
 Alpha  occ. eigenvalues --   -1.09905  -0.92784  -0.84230  -0.80072  -0.77402
 Alpha  occ. eigenvalues --   -0.72108  -0.70110  -0.59737  -0.43177  -0.40228
 Alpha virt. eigenvalues --    0.05188   0.05505   0.06441   0.08653   0.08693
 Alpha virt. eigenvalues --    0.10316   0.10812   0.12169   0.19611   0.20465
 Alpha virt. eigenvalues --    0.20824   0.22991   0.23446   0.26366   0.26977
 Alpha virt. eigenvalues --    0.27391   0.28376   0.29074   0.29393   0.29744
 Alpha virt. eigenvalues --    0.35828   0.36472   0.41214   0.41765   0.44899
 Alpha virt. eigenvalues --    0.46620   0.47989   0.51699   0.51911   0.52741
 Alpha virt. eigenvalues --    0.53145   0.62312   0.63536   0.65995   0.69902
 Alpha virt. eigenvalues --    0.73033   0.73527   0.74666   0.76515   0.77720
 Alpha virt. eigenvalues --    0.84977   0.85476   0.88393   0.89764   0.90673
 Alpha virt. eigenvalues --    0.95995   0.96129   1.02122   1.03612   1.07763
 Alpha virt. eigenvalues --    1.08932   1.10849   1.11417   1.12369   1.14868
 Alpha virt. eigenvalues --    1.15003   1.17475   1.19629   1.23116   1.25680
 Alpha virt. eigenvalues --    1.28139   1.32539   1.35089   1.40120   1.42726
 Alpha virt. eigenvalues --    1.44448   1.49623   1.53779   1.57359   1.64931
 Alpha virt. eigenvalues --    1.67990   1.70370   1.70714   1.71405   1.73842
 Alpha virt. eigenvalues --    1.79020   1.99458   2.03655   2.06686   2.07953
 Alpha virt. eigenvalues --    2.11525   2.27041   2.30555   2.31973   2.36300
 Alpha virt. eigenvalues --    2.41454   2.43290   2.43628   2.45894   2.51808
 Alpha virt. eigenvalues --    2.54275   2.58603   2.66489   2.75273   2.80272
 Alpha virt. eigenvalues --    2.83961   2.86264   2.90115   2.92824   2.93563
 Alpha virt. eigenvalues --    2.96506   2.99837   2.99946   3.07265   3.14331
 Alpha virt. eigenvalues --    3.15108   3.17685   3.19336   3.20165   3.32507
 Alpha virt. eigenvalues --    3.32711   3.37126   3.39857   3.45492   3.51248
 Alpha virt. eigenvalues --    3.55268   3.55966   3.62698   3.72841   3.73632
 Alpha virt. eigenvalues --    3.75163   3.75490   3.92053   4.00493   4.11343
 Alpha virt. eigenvalues --    4.18483   4.20812   4.25897   4.43082   4.54987
 Alpha virt. eigenvalues --    4.60312   4.69505   4.74678   4.85976   5.45044
 Alpha virt. eigenvalues --    5.50749   5.67582   5.88109   6.23797   6.59250
 Alpha virt. eigenvalues --    7.19044   8.79105   8.80773   8.85986   8.86857
 Alpha virt. eigenvalues --    8.99321   9.00163   9.10812   9.12341   9.19716
 Alpha virt. eigenvalues --    9.26547   9.27523   9.29346   9.32672   9.33992
 Alpha virt. eigenvalues --    9.36087   9.36514   9.39925   9.46214   9.54630
 Alpha virt. eigenvalues --    9.55699   9.58661   9.71297   9.84678   9.86440
 Alpha virt. eigenvalues --   11.99227  15.03000  16.10021
          Condensed to atoms (all electrons):
               1          2          3          4
     1  C    5.195433   0.241793   0.109844   0.109064
     2  S    0.241793  15.946348  -0.066202  -0.064717
     3  F    0.109844  -0.066202   9.174670  -0.078949
     4  F    0.109064  -0.064717  -0.078949   9.181883
 Mulliken charges:
               1
     1  C    0.343866
     2  S   -0.057222
     3  F   -0.139363
     4  F   -0.147281
 Sum of Mulliken charges =  -0.00000
 Mulliken charges with hydrogens summed into heavy atoms:
               1
     1  C    0.343866
     2  S   -0.057222
     3  F   -0.139363
     4  F   -0.147281
 Electronic spatial extent (au):  <R**2>=            315.9035
 Charge=             -0.0000 electrons
 Dipole moment (field-independent basis, Debye):
    X=             -0.0000    Y=             -0.0325    Z=             -0.1931  Tot=              0.1959
 Quadrupole moment (field-independent basis, Debye-Ang):
   XX=            -27.2813   YY=            -30.1741   ZZ=            -27.9491
   XY=             -0.0000   XZ=             -0.0000   YZ=              0.0473
 Traceless Quadrupole moment (field-independent basis, Debye-Ang):
   XX=              1.1868   YY=             -1.7059   ZZ=              0.5191
   XY=             -0.0000   XZ=             -0.0000   YZ=              0.0473
 Octapole moment (field-independent basis, Debye-Ang**2):
  XXX=              0.0000  YYY=             -0.2247  ZZZ=              8.8934  XYY=             -0.0000
  XXY=             -0.0656  XXZ=              0.7906  XZZ=             -0.0000  YZZ=             -0.1169
  YYZ=              0.8493  XYZ=             -0.0000
 Hexadecapole moment (field-independent basis, Debye-Ang**3):
 XXXX=            -28.1123 YYYY=            -96.7975 ZZZZ=           -215.1357 XXXY=             -0.0000
 XXXZ=              0.0000 YYYX=             -0.0000 YYYZ=              0.2946 ZZZX=             -0.0000
 ZZZY=              0.3192 XXYY=            -20.8246 XXZZ=            -40.5196 YYZZ=            -55.7691
 XXYZ=              0.0890 YYXZ=             -0.0000 ZZXY=             -0.0000
 N-N= 1.541173874776D+02 E-N=-1.819548490360D+03  KE= 6.349743652453D+02
 There are a total of       92046 grid points.
 ElSum from          density=       40.0000001594
 ElSum from atomic densities=       39.9999997775

 Hirshfeld populations at iteration   1 (CX, CA, CB, DipXYZ):
               1          2          3          4          5          6
     1  C    0.000001   2.882791   2.882791   0.000000  -0.000832  -0.241058
     2  S    0.000009   8.046830   8.046830   0.000000   0.000856   0.187912
     3  F    0.000005   4.533929   4.533929   0.000000   0.034784   0.026543
     4  F    0.000005   4.536450   4.536450   0.000000  -0.036181   0.027414
       Tot   0.000019  20.000000  20.000000   0.000000  -0.001373   0.000810

 Dip from Atomic Chgs              0.000000  -0.011432  -0.076794
         Total Dipole              0.000000  -0.012805  -0.075984

 Hirshfeld charges, spin densities, dipoles, and CM5 charges using IRadAn=      5:
              Q-H        S-H        Dx         Dy         Dz        Q-CM5   
     1  C    0.234417   0.000000   0.000000  -0.000832  -0.241058   0.293583
     2  S   -0.093660   0.000000   0.000000   0.000856   0.187912  -0.111564
     3  F   -0.067857   0.000000   0.000000   0.034784   0.026543  -0.088692
     4  F   -0.072900   0.000000   0.000000  -0.036181   0.027414  -0.093328
       Tot  -0.000000   0.000000   0.000000  -0.001373   0.000810  -0.000000
 Hirshfeld charges with hydrogens summed into heavy atoms:
              Q-H       Q-CM5   
     1  C    0.234417   0.293583
     2  S   -0.093660  -0.111564
     3  F   -0.067857  -0.088692
     4  F   -0.072900  -0.093328
 
 EQQ= 0.000000000000E+00 EQD= 0.000000000000E+00 EDD=-0.241565818774E-02
 EQQ+QD+DD=-0.241565818774E-02
 
 Breneman (CHELPG) radii used.
 Generate Potential Derived Charges using the Breneman model, NDens= 1.
 Grid spacing= 0.300 Box extension= 2.800
 NStep X,Y,Z=   20     26     28   Total possible points=       14560
 Number of Points to Fit=    4646

 **********************************************************************

            Electrostatic Properties Using The CC Density.

 **********************************************************************

       Atomic Center    1 is at   0.000000  0.000000 -0.520349
       Atomic Center    2 is at   0.000000  0.000000  1.078525
       Atomic Center    3 is at   0.000000 -1.055221 -1.295538
       Atomic Center    4 is at   0.000000  1.065221 -1.295538
    4646 points will be used for fitting atomic charges
 Fitting point charges to electrostatic potential
 The dipole moment will be constrained to the correct value
 Charges from ESP fit, RMS=   0.00618 RRMS=   0.73011:
 ESP charges:
               1
     1  C    0.408609
     2  S   -0.150357
     3  F   -0.126539
     4  F   -0.131712
 Sum of ESP charges =  -0.00000
 ESP charges with hydrogens summed into heavy atoms:
               1
     1  C    0.408609
     2  S   -0.150357
     3  F   -0.126539
     4  F   -0.131712
 Charge=  -0.00000 Dipole=     0.0000    -0.0325    -0.1931 Tot=     0.1959
 -----------------------------------------------------------------

              Electrostatic Properties (Atomic Units)

 -----------------------------------------------------------------
    Center     Electric         -------- Electric Field --------
               Potential          X             Y             Z
 -----------------------------------------------------------------
    1 Atom    -14.498462
    2 Atom    -59.211748
    3 Atom    -26.495030
    4 Atom    -26.497742
 -----------------------------------------------------------------
 ******************************Gaussian NBO Version 3.1******************************
             N A T U R A L   A T O M I C   O R B I T A L   A N D
          N A T U R A L   B O N D   O R B I T A L   A N A L Y S I S
 ******************************Gaussian NBO Version 3.1******************************
       /RESON  / : Allow strongly delocalized NBO set

 Analyzing the QCI/CC density

 Job title: f2cs-wavefunction                                               

 Storage needed:    106946 in NPA (2147483536 available)
 GSVD:  LWork=        5094 too small for GESVD, short by       54317 words or       54317 for optimal perf.


 NATURAL POPULATIONS:  Natural atomic orbital occupancies 
                                                          
   NAO  Atom  No  lang   Type(AO)    Occupancy
 --------------------------------------------
     1    C    1  S      Cor( 1S)     1.99946
     2    C    1  S      Val( 2S)     0.93135
     3    C    1  S      Ryd( 3S)     0.00597
     4    C    1  S      Ryd( 4S)     0.00026
     5    C    1  S      Ryd( 5S)     0.00006
     6    C    1  px     Val( 2p)     0.86191
     7    C    1  px     Ryd( 3p)     0.00616
     8    C    1  px     Ryd( 4p)     0.00050
     9    C    1  px     Ryd( 5p)     0.00045
    10    C    1  py     Val( 2p)     0.62325
    11    C    1  py     Ryd( 3p)     0.02245
    12    C    1  py     Ryd( 4p)     0.00057
    13    C    1  py     Ryd( 5p)     0.00032
    14    C    1  pz     Val( 2p)     0.86653
    15    C    1  pz     Ryd( 3p)     0.01825
    16    C    1  pz     Ryd( 4p)     0.00062
    17    C    1  pz     Ryd( 5p)     0.00040
    18    C    1  dxy    Ryd( 3d)     0.00783
    19    C    1  dxy    Ryd( 4d)     0.00052
    20    C    1  dxy    Ryd( 5d)     0.00025
    21    C    1  dxz    Ryd( 3d)     0.01449
    22    C    1  dxz    Ryd( 4d)     0.00048
    23    C    1  dxz    Ryd( 5d)     0.00037
    24    C    1  dyz    Ryd( 3d)     0.01138
    25    C    1  dyz    Ryd( 4d)     0.00041
    26    C    1  dyz    Ryd( 5d)     0.00019
    27    C    1  dx2y2  Ryd( 3d)     0.00606
    28    C    1  dx2y2  Ryd( 4d)     0.00044
    29    C    1  dx2y2  Ryd( 5d)     0.00043
    30    C    1  dz2    Ryd( 3d)     0.01094
    31    C    1  dz2    Ryd( 4d)     0.00059
    32    C    1  dz2    Ryd( 5d)     0.00022
    33    C    1  f(0)   Ryd( 4f)     0.00303
    34    C    1  f(0)   Ryd( 5f)     0.00029
    35    C    1  f(C1)  Ryd( 4f)     0.00147
    36    C    1  f(C1)  Ryd( 5f)     0.00041
    37    C    1  f(S1)  Ryd( 4f)     0.00244
    38    C    1  f(S1)  Ryd( 5f)     0.00067
    39    C    1  f(C2)  Ryd( 4f)     0.00221
    40    C    1  f(C2)  Ryd( 5f)     0.00028
    41    C    1  f(S2)  Ryd( 4f)     0.00218
    42    C    1  f(S2)  Ryd( 5f)     0.00036
    43    C    1  f(C3)  Ryd( 4f)     0.00122
    44    C    1  f(C3)  Ryd( 5f)     0.00035
    45    C    1  f(S3)  Ryd( 4f)     0.00110
    46    C    1  f(S3)  Ryd( 5f)     0.00024

    47    S    2  S      Cor( 1S)     2.00000
    48    S    2  S      Cor( 2S)     1.99875
    49    S    2  S      Val( 3S)     1.75673
    50    S    2  S      Ryd( 4S)     0.00666
    51    S    2  S      Ryd( 5S)     0.00026
    52    S    2  S      Ryd( 6S)     0.00019
    53    S    2  px     Cor( 2p)     1.99990
    54    S    2  px     Val( 3p)     1.28518
    55    S    2  px     Ryd( 4p)     0.00518
    56    S    2  px     Ryd( 5p)     0.00030
    57    S    2  px     Ryd( 6p)     0.00007
    58    S    2  py     Cor( 2p)     2.00001
    59    S    2  py     Val( 3p)     1.79617
    60    S    2  py     Ryd( 4p)     0.00856
    61    S    2  py     Ryd( 5p)     0.00051
    62    S    2  py     Ryd( 6p)     0.00010
    63    S    2  pz     Cor( 2p)     1.99964
    64    S    2  pz     Val( 3p)     1.02091
    65    S    2  pz     Ryd( 4p)     0.00504
    66    S    2  pz     Ryd( 5p)     0.00041
    67    S    2  pz     Ryd( 6p)     0.00009
    68    S    2  dxy    Ryd( 3d)     0.01638
    69    S    2  dxy    Ryd( 4d)     0.00051
    70    S    2  dxy    Ryd( 5d)     0.00009
    71    S    2  dxz    Ryd( 3d)     0.01937
    72    S    2  dxz    Ryd( 4d)     0.00048
    73    S    2  dxz    Ryd( 5d)     0.00017
    74    S    2  dyz    Ryd( 3d)     0.01484
    75    S    2  dyz    Ryd( 4d)     0.00050
    76    S    2  dyz    Ryd( 5d)     0.00024
    77    S    2  dx2y2  Ryd( 3d)     0.01617
    78    S    2  dx2y2  Ryd( 4d)     0.00053
    79    S    2  dx2y2  Ryd( 5d)     0.00008
    80    S    2  dz2    Ryd( 3d)     0.02158
    81    S    2  dz2    Ryd( 4d)     0.00043
    82    S    2  dz2    Ryd( 5d)     0.00015
    83    S    2  f(0)   Ryd( 4f)     0.00141
    84    S    2  f(0)   Ryd( 5f)     0.00018
    85    S    2  f(C1)  Ryd( 4f)     0.00095
    86    S    2  f(C1)  Ryd( 5f)     0.00012
    87    S    2  f(S1)  Ryd( 4f)     0.00105
    88    S    2  f(S1)  Ryd( 5f)     0.00015
    89    S    2  f(C2)  Ryd( 4f)     0.00095
    90    S    2  f(C2)  Ryd( 5f)     0.00012
    91    S    2  f(S2)  Ryd( 4f)     0.00094
    92    S    2  f(S2)  Ryd( 5f)     0.00012
    93    S    2  f(C3)  Ryd( 4f)     0.00134
    94    S    2  f(C3)  Ryd( 5f)     0.00012
    95    S    2  f(S3)  Ryd( 4f)     0.00134
    96    S    2  f(S3)  Ryd( 5f)     0.00012

    97    F    3  S      Cor( 1S)     1.99979
    98    F    3  S      Val( 2S)     1.82783
    99    F    3  S      Ryd( 3S)     0.00643
   100    F    3  S      Ryd( 4S)     0.00033
   101    F    3  S      Ryd( 5S)     0.00027
   102    F    3  px     Val( 2p)     1.87017
   103    F    3  px     Ryd( 3p)     0.01125
   104    F    3  px     Ryd( 4p)     0.00081
   105    F    3  px     Ryd( 5p)     0.00015
   106    F    3  py     Val( 2p)     1.71334
   107    F    3  py     Ryd( 3p)     0.00740
   108    F    3  py     Ryd( 4p)     0.00058
   109    F    3  py     Ryd( 5p)     0.00018
   110    F    3  pz     Val( 2p)     1.80795
   111    F    3  pz     Ryd( 3p)     0.00975
   112    F    3  pz     Ryd( 4p)     0.00073
   113    F    3  pz     Ryd( 5p)     0.00027
   114    F    3  dxy    Ryd( 3d)     0.00673
   115    F    3  dxy    Ryd( 4d)     0.00044
   116    F    3  dxy    Ryd( 5d)     0.00008
   117    F    3  dxz    Ryd( 3d)     0.00569
   118    F    3  dxz    Ryd( 4d)     0.00046
   119    F    3  dxz    Ryd( 5d)     0.00008
   120    F    3  dyz    Ryd( 3d)     0.00971
   121    F    3  dyz    Ryd( 4d)     0.00053
   122    F    3  dyz    Ryd( 5d)     0.00010
   123    F    3  dx2y2  Ryd( 3d)     0.00751
   124    F    3  dx2y2  Ryd( 4d)     0.00052
   125    F    3  dx2y2  Ryd( 5d)     0.00012
   126    F    3  dz2    Ryd( 3d)     0.00638
   127    F    3  dz2    Ryd( 4d)     0.00045
   128    F    3  dz2    Ryd( 5d)     0.00011
   129    F    3  f(0)   Ryd( 4f)     0.00053
   130    F    3  f(0)   Ryd( 5f)     0.00010
   131    F    3  f(C1)  Ryd( 4f)     0.00043
   132    F    3  f(C1)  Ryd( 5f)     0.00009
   133    F    3  f(S1)  Ryd( 4f)     0.00067
   134    F    3  f(S1)  Ryd( 5f)     0.00013
   135    F    3  f(C2)  Ryd( 4f)     0.00073
   136    F    3  f(C2)  Ryd( 5f)     0.00012
   137    F    3  f(S2)  Ryd( 4f)     0.00055
   138    F    3  f(S2)  Ryd( 5f)     0.00011
   139    F    3  f(C3)  Ryd( 4f)     0.00052
   140    F    3  f(C3)  Ryd( 5f)     0.00011
   141    F    3  f(S3)  Ryd( 4f)     0.00057
   142    F    3  f(S3)  Ryd( 5f)     0.00012

   143    F    4  S      Cor( 1S)     1.99980
   144    F    4  S      Val( 2S)     1.83106
   145    F    4  S      Ryd( 3S)     0.00646
   146    F    4  S      Ryd( 4S)     0.00033
   147    F    4  S      Ryd( 5S)     0.00027
   148    F    4  px     Val( 2p)     1.87238
   149    F    4  px     Ryd( 3p)     0.01134
   150    F    4  px     Ryd( 4p)     0.00081
   151    F    4  px     Ryd( 5p)     0.00015
   152    F    4  py     Val( 2p)     1.71069
   153    F    4  py     Ryd( 3p)     0.00744
   154    F    4  py     Ryd( 4p)     0.00058
   155    F    4  py     Ryd( 5p)     0.00018
   156    F    4  pz     Val( 2p)     1.80909
   157    F    4  pz     Ryd( 3p)     0.00983
   158    F    4  pz     Ryd( 4p)     0.00073
   159    F    4  pz     Ryd( 5p)     0.00027
   160    F    4  dxy    Ryd( 3d)     0.00668
   161    F    4  dxy    Ryd( 4d)     0.00044
   162    F    4  dxy    Ryd( 5d)     0.00008
   163    F    4  dxz    Ryd( 3d)     0.00564
   164    F    4  dxz    Ryd( 4d)     0.00046
   165    F    4  dxz    Ryd( 5d)     0.00008
   166    F    4  dyz    Ryd( 3d)     0.00953
   167    F    4  dyz    Ryd( 4d)     0.00053
   168    F    4  dyz    Ryd( 5d)     0.00010
   169    F    4  dx2y2  Ryd( 3d)     0.00744
   170    F    4  dx2y2  Ryd( 4d)     0.00052
   171    F    4  dx2y2  Ryd( 5d)     0.00012
   172    F    4  dz2    Ryd( 3d)     0.00631
   173    F    4  dz2    Ryd( 4d)     0.00045
   174    F    4  dz2    Ryd( 5d)     0.00011
   175    F    4  f(0)   Ryd( 4f)     0.00053
   176    F    4  f(0)   Ryd( 5f)     0.00010
   177    F    4  f(C1)  Ryd( 4f)     0.00043
   178    F    4  f(C1)  Ryd( 5f)     0.00009
   179    F    4  f(S1)  Ryd( 4f)     0.00066
   180    F    4  f(S1)  Ryd( 5f)     0.00013
   181    F    4  f(C2)  Ryd( 4f)     0.00072
   182    F    4  f(C2)  Ryd( 5f)     0.00012
   183    F    4  f(S2)  Ryd( 4f)     0.00055
   184    F    4  f(S2)  Ryd( 5f)     0.00011
   185    F    4  f(C3)  Ryd( 4f)     0.00052
   186    F    4  f(C3)  Ryd( 5f)     0.00011
   187    F    4  f(S3)  Ryd( 4f)     0.00057
   188    F    4  f(S3)  Ryd( 5f)     0.00012

 WARNING:  1 low occupancy (<1.9990e) core orbital  found on  S    2


 Summary of Natural Population Analysis:                  
                                                          
                                       Natural Population 
                Natural  -----------------------------------------------
    Atom  No    Charge         Core      Valence    Rydberg      Total
 -----------------------------------------------------------------------
      C    1    0.59062      1.99946     3.28305    0.12688     5.40938
      S    2    0.01492      9.99830     5.85899    0.12779    15.98508
      F    3   -0.30091      1.99979     7.21928    0.08184     9.30091
      F    4   -0.30463      1.99980     7.22322    0.08161     9.30463
 =======================================================================
   * Total *    0.00000     15.99735    23.58453    0.41812    40.00000

                                 Natural Population      
 --------------------------------------------------------
   Core                      15.99735 ( 99.9834% of  16)
   Valence                   23.58453 ( 98.2689% of  24)
   Natural Minimal Basis     39.58188 ( 98.9547% of  40)
   Natural Rydberg Basis      0.41812 (  1.0453% of  40)
 --------------------------------------------------------

    Atom  No          Natural Electron Configuration
 ----------------------------------------------------------------------------
      C    1      [core]2S( 0.93)2p( 2.35)3S( 0.01)3p( 0.05)3d( 0.05)4f( 0.01)
      S    2      [core]3S( 1.76)3p( 4.10)4S( 0.01)3d( 0.09)4p( 0.02)4f( 0.01)
      F    3      [core]2S( 1.83)2p( 5.39)3S( 0.01)3p( 0.03)3d( 0.04)
      F    4      [core]2S( 1.83)2p( 5.39)3S( 0.01)3p( 0.03)3d( 0.04)


 NBO analysis skipped by request.
 Unable to Open any file for archive entry.
 1\1\GINC-TRAPISTA\SP\RQCISD-FC\Aug-CC-pVTZ\C1F2S1\WAGNER\03-Sep-2022\0
 \\# qcisd/aug-cc-pvtz nosymm density=current pop=(chelpg,hirshfeld,npa
 ,dipole)\\f2cs-wavefunction\\0,1\C,0,0.,0.,-0.520349\S,0,0.,0.,1.07852
 5\F,0,0.,-1.055221,-1.295538\F,0,0.,1.065221,-1.295538\\Version=EM64L-
 G16RevC.01\HF=-634.3563088\MP2=-635.1964311\MP3=-635.1996426\MP4D=-635
 .216656\MP4DQ=-635.1972487\MP4SDQ=-635.2081801\QCISD=-635.2072652\RMSD
 =6.065e-09\Dipole=0.,-0.012805,-0.0759844\Quadrupole=0.8823793,-1.2683
 081,0.3859288,0.,0.,0.0351345\PG=CS [SG(C1F2S1)]\\@
 The archive entry for this job was punched.


 THE SCIENTIFIC THEORIST IS NOT TO BE ENVIED. FOR NATURE, OR MORE
 PRECISELY EXPERIMENT, IS AN INEXORABLE AND NOT VERY FRIENDLY JUDGE OF HIS
 WORK.  IT NEVER SAYS "YES" TO A THEORY. IN THE MOST FAVORABLE CASES
 IT SAYS "MAYBE", AND IN THE GREAT MAJORITY OF CASES SIMPLY "NO"...
 PROBABLY EVERY THEORY WILL SOME DAY EXPERIENCE ITS "NO" - MOST
 THEORIES, SOON AFTER CONCEPTION.  -- A.EINSTEIN, NOV 11, 1922.
 Job cpu time:       0 days  6 hours 33 minutes 15.6 seconds.
 Elapsed time:       0 days  0 hours 24 minutes 52.5 seconds.
 File lengths (MBytes):  RWF=  21970 Int=      0 D2E=      0 Chk=      4 Scr=      1
 Normal termination of Gaussian 16 at Sat Sep  3 17:49:46 2022.
