 Entering Gaussian System, Link 0=/home/wagner/chemistry/gaussian/g16/g16
 Input=GAUSSIAN.com
 Output=GAUSSIAN.log
 Initial command:
 /home/wagner/chemistry/gaussian/g16/l1.exe "/home/wagner/chemistry/gaussian/work/Gau-14971.inp" -scrdir="/home/wagner/chemistry/gaussian/work/"
 Entering Link 1 = /home/wagner/chemistry/gaussian/g16/l1.exe PID=     14973.
  
 Copyright (c) 1988-2019, Gaussian, Inc.  All Rights Reserved.
  
 This is part of the Gaussian(R) 16 program.  It is based on
 the Gaussian(R) 09 system (copyright 2009, Gaussian, Inc.),
 the Gaussian(R) 03 system (copyright 2003, Gaussian, Inc.),
 the Gaussian(R) 98 system (copyright 1998, Gaussian, Inc.),
 the Gaussian(R) 94 system (copyright 1995, Gaussian, Inc.),
 the Gaussian 92(TM) system (copyright 1992, Gaussian, Inc.),
 the Gaussian 90(TM) system (copyright 1990, Gaussian, Inc.),
 the Gaussian 88(TM) system (copyright 1988, Gaussian, Inc.),
 the Gaussian 86(TM) system (copyright 1986, Carnegie Mellon
 University), and the Gaussian 82(TM) system (copyright 1983,
 Carnegie Mellon University). Gaussian is a federally registered
 trademark of Gaussian, Inc.
  
 This software contains proprietary and confidential information,
 including trade secrets, belonging to Gaussian, Inc.
  
 This software is provided under written license and may be
 used, copied, transmitted, or stored only in accord with that
 written license.
  
 The following legend is applicable only to US Government
 contracts under FAR:
  
                    RESTRICTED RIGHTS LEGEND
  
 Use, reproduction and disclosure by the US Government is
 subject to restrictions as set forth in subparagraphs (a)
 and (c) of the Commercial Computer Software - Restricted
 Rights clause in FAR 52.227-19.
  
 Gaussian, Inc.
 340 Quinnipiac St., Bldg. 40, Wallingford CT 06492
  
  
 ---------------------------------------------------------------
 Warning -- This program may not be used in any manner that
 competes with the business of Gaussian, Inc. or will provide
 assistance to any competitor of Gaussian, Inc.  The licensee
 of this program is prohibited from giving any competitor of
 Gaussian, Inc. access to this program.  By using this program,
 the user acknowledges that Gaussian, Inc. is engaged in the
 business of creating and licensing software in the field of
 computational chemistry and represents and warrants to the
 licensee that it is not a competitor of Gaussian, Inc. and that
 it will not use this program in any manner prohibited above.
 ---------------------------------------------------------------
  

 Cite this work as:
 Gaussian 16, Revision C.01,
 M. J. Frisch, G. W. Trucks, H. B. Schlegel, G. E. Scuseria, 
 M. A. Robb, J. R. Cheeseman, G. Scalmani, V. Barone, 
 G. A. Petersson, H. Nakatsuji, X. Li, M. Caricato, A. V. Marenich, 
 J. Bloino, B. G. Janesko, R. Gomperts, B. Mennucci, H. P. Hratchian, 
 J. V. Ortiz, A. F. Izmaylov, J. L. Sonnenberg, D. Williams-Young, 
 F. Ding, F. Lipparini, F. Egidi, J. Goings, B. Peng, A. Petrone, 
 T. Henderson, D. Ranasinghe, V. G. Zakrzewski, J. Gao, N. Rega, 
 G. Zheng, W. Liang, M. Hada, M. Ehara, K. Toyota, R. Fukuda, 
 J. Hasegawa, M. Ishida, T. Nakajima, Y. Honda, O. Kitao, H. Nakai, 
 T. Vreven, K. Throssell, J. A. Montgomery, Jr., J. E. Peralta, 
 F. Ogliaro, M. J. Bearpark, J. J. Heyd, E. N. Brothers, K. N. Kudin, 
 V. N. Staroverov, T. A. Keith, R. Kobayashi, J. Normand, 
 K. Raghavachari, A. P. Rendell, J. C. Burant, S. S. Iyengar, 
 J. Tomasi, M. Cossi, J. M. Millam, M. Klene, C. Adamo, R. Cammi, 
 J. W. Ochterski, R. L. Martin, K. Morokuma, O. Farkas, 
 J. B. Foresman, and D. J. Fox, Gaussian, Inc., Wallingford CT, 2019.
 
 ******************************************
 Gaussian 16:  EM64L-G16RevC.01  3-Jul-2019
                 3-Sep-2022 
 ******************************************
 %nproc=16
 Will use up to   16 processors via shared memory.
 %mem=16GB
 ----------------------------------------------------------------------
 # qcisd/aug-cc-pvtz nosymm density=current pop=(chelpg,hirshfeld,npa,d
 ipole)
 ----------------------------------------------------------------------
 1/30=1,38=1,172=1/1;
 2/12=2,15=1,17=6,18=5,40=1/2;
 3/5=16,6=1,7=10,11=9,25=1,30=1,71=1/1,2,3;
 4//1;
 5/5=2,38=5/2;
 8/6=4,9=120000,10=1/1,4;
 9/5=8,15=1/13;
 11/28=-7,31=1,32=3,42=3/11;
 10/5=6,13=10,31=1/2;
 6/7=2,8=2,9=2,10=2,15=24,20=3,22=-1,40=-1,79=1/1,2,7;
 99/5=1,9=1/99;
 -----------------
 f2cs-wavefunction
 -----------------
 Symbolic Z-matrix:
 Charge =  0 Multiplicity = 1
 C                     0.       -0.01     -0.52035 
 S                     0.        0.        1.07852 
 F                     0.       -1.05522  -1.29554 
 F                     0.        1.05522  -1.29554 
 
                          Input orientation:                          
 ---------------------------------------------------------------------
 Center     Atomic      Atomic             Coordinates (Angstroms)
 Number     Number       Type             X           Y           Z
 ---------------------------------------------------------------------
      1          6           0        0.000000   -0.010000   -0.520349
      2         16           0        0.000000    0.000000    1.078525
      3          9           0        0.000000   -1.055221   -1.295538
      4          9           0        0.000000    1.055221   -1.295538
 ---------------------------------------------------------------------
                    Distance matrix (angstroms):
                    1          2          3          4
     1  C    0.000000
     2  S    1.598905   0.000000
     3  F    1.301309   2.598012   0.000000
     4  F    1.317427   2.598012   2.110442   0.000000
 Symmetry turned off by external request.
 Stoichiometry    CF2S
 Framework group  CS[SG(CF2S)]
 Deg. of freedom     5
 Full point group                 CS      NOp   2
 Rotational constants (GHZ):          11.9446360           5.1130862           3.5804284
 Standard basis: Aug-CC-pVTZ (5D, 7F)
   188 basis functions,   330 primitive gaussians,   224 cartesian basis functions
    20 alpha electrons       20 beta electrons
       nuclear repulsion energy       154.3934449088 Hartrees.
 NAtoms=    4 NActive=    4 NUniq=    4 SFac= 1.00D+00 NAtFMM=   60 NAOKFM=F Big=F
 Integral buffers will be    131072 words long.
 Raffenetti 1 integral format.
 Two-electron integral symmetry is turned off.
 One-electron integrals computed using PRISM.
 NBasis=   188 RedAO= T EigKep=  9.82D-05  NBF=   188
 NBsUse=   188 1.00D-06 EigRej= -1.00D+00 NBFU=   188
 ExpMin= 3.51D-02 ExpMax= 3.74D+05 ExpMxC= 1.18D+03 IAcc=3 IRadAn=         5 AccDes= 0.00D+00
 Harris functional with IExCor=  205 and IRadAn=       5 diagonalized for initial guess.
 HarFok:  IExCor=  205 AccDes= 0.00D+00 IRadAn=         5 IDoV= 1 UseB2=F ITyADJ=14
 ICtDFT=  3500011 ScaDFX=  1.000000  1.000000  1.000000  1.000000
 FoFCou: FMM=F IPFlag=           0 FMFlag=      100000 FMFlg1=           0
         NFxFlg=           0 DoJE=T BraDBF=F KetDBF=T FulRan=T
         wScrn=  0.000000 ICntrl=       500 IOpCl=  0 I1Cent=   200000004 NGrid=           0
         NMat0=    1 NMatS0=      1 NMatT0=    0 NMatD0=    1 NMtDS0=    0 NMtDT0=    0
 Symmetry not used in FoFCou.
 Keep R1 ints in memory in canonical form, NReq=165820960.
 Requested convergence on RMS density matrix=1.00D-08 within 128 cycles.
 Requested convergence on MAX density matrix=1.00D-06.
 Requested convergence on             energy=1.00D-06.
 No special actions if energy rises.
 SCF Done:  E(RHF) =  -634.356776872     A.U. after   12 cycles
            NFock= 12  Conv=0.56D-08     -V/T= 2.0005
 ExpMin= 3.51D-02 ExpMax= 3.74D+05 ExpMxC= 1.18D+03 IAcc=3 IRadAn=         5 AccDes= 0.00D+00
 HarFok:  IExCor=  205 AccDes= 0.00D+00 IRadAn=         5 IDoV=-2 UseB2=F ITyADJ=14
 ICtDFT= 12500011 ScaDFX=  1.000000  1.000000  1.000000  1.000000
 Range of M.O.s used for correlation:     9   188
 NBasis=   188 NAE=    20 NBE=    20 NFC=     8 NFV=     0
 NROrb=    180 NOA=    12 NOB=    12 NVA=   168 NVB=   168

 **** Warning!!: The largest alpha MO coefficient is  0.28166020D+02

 Semi-Direct transformation.
 ModeAB=           2 MOrb=            12 LenV=    2146475563
 LASXX=     33405819 LTotXX=    33405819 LenRXX=    33405819
 LTotAB=    33954012 MaxLAS=    54432000 LenRXY=    54432000
 NonZer=    66811638 LenScr=   100987392 LnRSAI=           0
 LnScr1=           0 LExtra=           0 Total=    188825211
 MaxDsk=          -1 SrtSym=           F ITran=            4
 JobTyp=0 Pass  1:  I=   1 to  12.
 (rs|ai) integrals will be sorted in core.
 Spin components of T(2) and E(2):
     alpha-alpha T2 =       0.3014421039D-01 E2=     -0.1104091806D+00
     alpha-beta  T2 =       0.1598262163D+00 E2=     -0.6187206552D+00
     beta-beta   T2 =       0.3014421039D-01 E2=     -0.1104091806D+00
 ANorm=    0.1104587994D+01
 E2 =    -0.8395390164D+00 EUMP2 =    -0.63519631588816D+03
 Keep R2 and R3 ints in memory in canonical form, NReq=323654033.
 CIDS: In Core Option IDoMem=           1.
 Iterations=  50 Convergence= 0.100D-07
 Produce multiple copies of IABC intergrals
 Iteration Nr.   1
 **********************
 DD1Dir will call FoFMem   1 times, MxPair=       156
 NAB=    78 NAA=     0 NBB=     0.
 MP4(R+Q)=  0.19353821D-01
 E3=       -0.33823315D-02        EUMP3=      -0.63519969822D+03
 E4(DQ)=    0.24275925D-02        UMP4(DQ)=   -0.63519727063D+03
 E4(SDQ)=  -0.84312554D-02        UMP4(SDQ)=  -0.63520812948D+03
 DE(Corr)= -0.82356753     E(Corr)=     -635.18034440    
 NORM(A)=   0.11038533D+01
 Iteration Nr.   2
 **********************
 DD1Dir will call FoFMem   1 times, MxPair=       156
 NAB=    78 NAA=     0 NBB=     0.
 DE(Corr)= -0.84925390     E(CORR)=     -635.20603077     Delta=-2.57D-02
 NORM(A)=   0.11127851D+01
 Iteration Nr.   3
 **********************
 DD1Dir will call FoFMem   1 times, MxPair=       156
 NAB=    78 NAA=     0 NBB=     0.
 DE(Corr)= -0.84757888     E(CORR)=     -635.20435575     Delta= 1.68D-03
 NORM(A)=   0.11156276D+01
 Iteration Nr.   4
 **********************
 DD1Dir will call FoFMem   1 times, MxPair=       156
 NAB=    78 NAA=     0 NBB=     0.
 DE(Corr)= -0.85011037     E(CORR)=     -635.20688724     Delta=-2.53D-03
 NORM(A)=   0.11167389D+01
 Iteration Nr.   5
 **********************
 DD1Dir will call FoFMem   1 times, MxPair=       156
 NAB=    78 NAA=     0 NBB=     0.
 DE(Corr)= -0.85041167     E(CORR)=     -635.20718854     Delta=-3.01D-04
 NORM(A)=   0.11170651D+01
 Iteration Nr.   6
 **********************
 DD1Dir will call FoFMem   1 times, MxPair=       156
 NAB=    78 NAA=     0 NBB=     0.
 DE(Corr)= -0.85045118     E(CORR)=     -635.20722806     Delta=-3.95D-05
 NORM(A)=   0.11171138D+01
 Iteration Nr.   7
 **********************
 DD1Dir will call FoFMem   1 times, MxPair=       156
 NAB=    78 NAA=     0 NBB=     0.
 DE(Corr)= -0.85045550     E(CORR)=     -635.20723237     Delta=-4.31D-06
 NORM(A)=   0.11171136D+01
 Iteration Nr.   8
 **********************
 DD1Dir will call FoFMem   1 times, MxPair=       156
 NAB=    78 NAA=     0 NBB=     0.
 DE(Corr)= -0.85045412     E(CORR)=     -635.20723099     Delta= 1.38D-06
 NORM(A)=   0.11171188D+01
 Iteration Nr.   9
 **********************
 DD1Dir will call FoFMem   1 times, MxPair=       156
 NAB=    78 NAA=     0 NBB=     0.
 DE(Corr)= -0.85045380     E(CORR)=     -635.20723067     Delta= 3.20D-07
 NORM(A)=   0.11171189D+01
 Iteration Nr.  10
 **********************
 DD1Dir will call FoFMem   1 times, MxPair=       156
 NAB=    78 NAA=     0 NBB=     0.
 DE(Corr)= -0.85045390     E(CORR)=     -635.20723078     Delta=-1.04D-07
 NORM(A)=   0.11171204D+01
 Iteration Nr.  11
 **********************
 DD1Dir will call FoFMem   1 times, MxPair=       156
 NAB=    78 NAA=     0 NBB=     0.
 DE(Corr)= -0.85045463     E(CORR)=     -635.20723151     Delta=-7.29D-07
 NORM(A)=   0.11171218D+01
 Iteration Nr.  12
 **********************
 DD1Dir will call FoFMem   1 times, MxPair=       156
 NAB=    78 NAA=     0 NBB=     0.
 DE(Corr)= -0.85045488     E(CORR)=     -635.20723175     Delta=-2.41D-07
 NORM(A)=   0.11171225D+01
 Iteration Nr.  13
 **********************
 DD1Dir will call FoFMem   1 times, MxPair=       156
 NAB=    78 NAA=     0 NBB=     0.
 DE(Corr)= -0.85045514     E(CORR)=     -635.20723201     Delta=-2.63D-07
 NORM(A)=   0.11171229D+01
 Iteration Nr.  14
 **********************
 DD1Dir will call FoFMem   1 times, MxPair=       156
 NAB=    78 NAA=     0 NBB=     0.
 DE(Corr)= -0.85045520     E(CORR)=     -635.20723207     Delta=-6.03D-08
 NORM(A)=   0.11171231D+01
 Iteration Nr.  15
 **********************
 DD1Dir will call FoFMem   1 times, MxPair=       156
 NAB=    78 NAA=     0 NBB=     0.
 DE(Corr)= -0.85045524     E(CORR)=     -635.20723211     Delta=-3.88D-08
 NORM(A)=   0.11171231D+01
 Iteration Nr.  16
 **********************
 DD1Dir will call FoFMem   1 times, MxPair=       156
 NAB=    78 NAA=     0 NBB=     0.
 DE(Corr)= -0.85045525     E(CORR)=     -635.20723212     Delta=-1.08D-08
 NORM(A)=   0.11171232D+01
 Iteration Nr.  17
 **********************
 DD1Dir will call FoFMem   1 times, MxPair=       156
 NAB=    78 NAA=     0 NBB=     0.
 DE(Corr)= -0.85045525     E(CORR)=     -635.20723212     Delta= 1.95D-09
 NORM(A)=   0.11171232D+01
 Wavefunction amplitudes converged. E(Corr)=     -635.20723212    
 Largest amplitude= 8.51D-02

 Z-amplitude iterations

 Iteration Nr.   1
 **********************
 DD1Dir will call FoFMem   1 times, MxPair=       156
 NAB=    78 NAA=     0 NBB=     0.
 DE(Z)= -0.82655082     E(Z)=     -635.18332770     Delta= 2.39D-02
 NORM(A)=   0.11171283D+01
 Iteration Nr.   2
 **********************
 DD1Dir will call FoFMem   1 times, MxPair=       156
 NAB=    78 NAA=     0 NBB=     0.
 DE(Z)= -0.82655083     E(Z)=     -635.18332771     Delta=-9.64D-09
 NORM(A)=   0.11171206D+01
 Iteration Nr.   3
 **********************
 DD1Dir will call FoFMem   1 times, MxPair=       156
 NAB=    78 NAA=     0 NBB=     0.
 DE(Z)= -0.82655078     E(Z)=     -635.18332766     Delta= 4.97D-08
 NORM(A)=   0.11171262D+01
 Iteration Nr.   4
 **********************
 DD1Dir will call FoFMem   1 times, MxPair=       156
 NAB=    78 NAA=     0 NBB=     0.
 DE(Z)= -0.82655086     E(Z)=     -635.18332774     Delta=-8.05D-08
 NORM(A)=   0.11171116D+01
 Iteration Nr.   5
 **********************
 DD1Dir will call FoFMem   1 times, MxPair=       156
 NAB=    78 NAA=     0 NBB=     0.
 DE(Z)= -0.82655065     E(Z)=     -635.18332752     Delta= 2.17D-07
 NORM(A)=   0.11088950D+01
 Iteration Nr.   6
 **********************
 DD1Dir will call FoFMem   1 times, MxPair=       156
 NAB=    78 NAA=     0 NBB=     0.
 DE(Z)= -0.82640685     E(Z)=     -635.18318372     Delta= 1.44D-04
 NORM(A)=   0.11088841D+01
 Iteration Nr.   7
 **********************
 DD1Dir will call FoFMem   1 times, MxPair=       156
 NAB=    78 NAA=     0 NBB=     0.
 DE(Z)= -0.82641112     E(Z)=     -635.18318799     Delta=-4.26D-06
 NORM(A)=   0.11088805D+01
 Iteration Nr.   8
 **********************
 DD1Dir will call FoFMem   1 times, MxPair=       156
 NAB=    78 NAA=     0 NBB=     0.
 DE(Z)= -0.82640994     E(Z)=     -635.18318681     Delta= 1.17D-06
 NORM(A)=   0.11088808D+01
 Iteration Nr.   9
 **********************
 DD1Dir will call FoFMem   1 times, MxPair=       156
 NAB=    78 NAA=     0 NBB=     0.
 DE(Z)= -0.82641038     E(Z)=     -635.18318726     Delta=-4.43D-07
 NORM(A)=   0.11088809D+01
 Iteration Nr.  10
 **********************
 DD1Dir will call FoFMem   1 times, MxPair=       156
 NAB=    78 NAA=     0 NBB=     0.
 DE(Z)= -0.82641035     E(Z)=     -635.18318723     Delta= 2.97D-08
 NORM(A)=   0.11088811D+01
 Iteration Nr.  11
 **********************
 DD1Dir will call FoFMem   1 times, MxPair=       156
 NAB=    78 NAA=     0 NBB=     0.
 DE(Z)= -0.82641030     E(Z)=     -635.18318718     Delta= 5.01D-08
 NORM(A)=   0.11088811D+01
 Iteration Nr.  12
 **********************
 DD1Dir will call FoFMem   1 times, MxPair=       156
 NAB=    78 NAA=     0 NBB=     0.
 DE(Z)= -0.82641038     E(Z)=     -635.18318725     Delta=-7.75D-08
 NORM(A)=   0.11088811D+01
 Iteration Nr.  13
 **********************
 DD1Dir will call FoFMem   1 times, MxPair=       156
 NAB=    78 NAA=     0 NBB=     0.
 DE(Z)= -0.82641034     E(Z)=     -635.18318721     Delta= 4.09D-08
 NORM(A)=   0.11088811D+01
 Iteration Nr.  14
 **********************
 DD1Dir will call FoFMem   1 times, MxPair=       156
 NAB=    78 NAA=     0 NBB=     0.
 DE(Z)= -0.82641035     E(Z)=     -635.18318722     Delta=-9.18D-09
 NORM(A)=   0.11088810D+01
 Z-amplitudes converged.
 Discarding MO integrals.
          Differentiating once with respect to electric field.
                with respect to dipole field.
          Electric field/nuclear overlap derivatives assumed to be zero.
 Keep R1 ints in memory in canonical form, NReq=165824710.
          There are     1 degrees of freedom in the 1st order CPHF.  IDoFFX=0 NUNeed=     1.
 LinEq1:  Iter=  0 NonCon=     1 RMS=2.85D-03 Max=7.73D-02 NDo=     1
 AX will form     1 AO Fock derivatives at one time.
 LinEq1:  Iter=  1 NonCon=     1 RMS=8.84D-04 Max=1.06D-02 NDo=     1
 LinEq1:  Iter=  2 NonCon=     1 RMS=4.03D-04 Max=1.29D-02 NDo=     1
 LinEq1:  Iter=  3 NonCon=     1 RMS=1.09D-04 Max=2.38D-03 NDo=     1
 LinEq1:  Iter=  4 NonCon=     1 RMS=2.69D-05 Max=6.37D-04 NDo=     1
 LinEq1:  Iter=  5 NonCon=     1 RMS=6.82D-06 Max=1.04D-04 NDo=     1
 LinEq1:  Iter=  6 NonCon=     1 RMS=2.72D-06 Max=5.76D-05 NDo=     1
 LinEq1:  Iter=  7 NonCon=     1 RMS=8.49D-07 Max=1.53D-05 NDo=     1
 LinEq1:  Iter=  8 NonCon=     1 RMS=1.71D-07 Max=2.25D-06 NDo=     1
 LinEq1:  Iter=  9 NonCon=     1 RMS=3.62D-08 Max=4.10D-07 NDo=     1
 LinEq1:  Iter= 10 NonCon=     1 RMS=1.33D-08 Max=1.72D-07 NDo=     1
 LinEq1:  Iter= 11 NonCon=     1 RMS=4.67D-09 Max=4.42D-08 NDo=     1
 LinEq1:  Iter= 12 NonCon=     1 RMS=8.54D-10 Max=1.42D-08 NDo=     1
 LinEq1:  Iter= 13 NonCon=     1 RMS=1.19D-10 Max=1.44D-09 NDo=     1
 LinEq1:  Iter= 14 NonCon=     0 RMS=2.22D-11 Max=2.05D-10 NDo=     1
 Linear equations converged to 1.000D-10 1.000D-09 after    14 iterations.
 End of Minotr F.D. properties file   721 does not exist.
 End of Minotr F.D. properties file   722 does not exist.
 End of Minotr F.D. properties file   788 does not exist.

 **********************************************************************

            Population analysis using the CC Density.

 **********************************************************************

 Alpha  occ. eigenvalues --  -91.97613 -26.39335 -26.38682 -11.51900  -8.97975
 Alpha  occ. eigenvalues --   -6.66098  -6.65935  -6.65814  -1.75592  -1.68076
 Alpha  occ. eigenvalues --   -1.09885  -0.92992  -0.84414  -0.80284  -0.77535
 Alpha  occ. eigenvalues --   -0.72154  -0.70132  -0.59707  -0.43112  -0.40181
 Alpha virt. eigenvalues --    0.05280   0.05518   0.06432   0.08647   0.08686
 Alpha virt. eigenvalues --    0.10318   0.10819   0.12189   0.19610   0.20459
 Alpha virt. eigenvalues --    0.20848   0.23041   0.23429   0.26351   0.27020
 Alpha virt. eigenvalues --    0.27355   0.28385   0.29089   0.29409   0.29792
 Alpha virt. eigenvalues --    0.35831   0.36513   0.41252   0.41882   0.44973
 Alpha virt. eigenvalues --    0.46717   0.47981   0.51695   0.51914   0.53069
 Alpha virt. eigenvalues --    0.53168   0.62321   0.63494   0.66031   0.69879
 Alpha virt. eigenvalues --    0.73064   0.73515   0.74722   0.76551   0.77695
 Alpha virt. eigenvalues --    0.85047   0.85513   0.88442   0.89880   0.90686
 Alpha virt. eigenvalues --    0.96075   0.96108   1.02104   1.03765   1.07766
 Alpha virt. eigenvalues --    1.09120   1.10839   1.11237   1.12407   1.14892
 Alpha virt. eigenvalues --    1.15009   1.17537   1.19650   1.23188   1.25747
 Alpha virt. eigenvalues --    1.28113   1.32654   1.34929   1.39880   1.42753
 Alpha virt. eigenvalues --    1.44598   1.49606   1.53717   1.57408   1.65003
 Alpha virt. eigenvalues --    1.68017   1.70387   1.70801   1.71663   1.73827
 Alpha virt. eigenvalues --    1.78899   1.99679   2.03620   2.06751   2.07992
 Alpha virt. eigenvalues --    2.11682   2.26990   2.30610   2.32037   2.36356
 Alpha virt. eigenvalues --    2.41552   2.43356   2.43564   2.45916   2.51814
 Alpha virt. eigenvalues --    2.54867   2.58836   2.66494   2.75326   2.80297
 Alpha virt. eigenvalues --    2.84145   2.86239   2.90154   2.92723   2.93825
 Alpha virt. eigenvalues --    2.96806   2.99985   3.00210   3.06910   3.14456
 Alpha virt. eigenvalues --    3.15102   3.17779   3.19213   3.20756   3.32477
 Alpha virt. eigenvalues --    3.32918   3.37557   3.39756   3.45746   3.51461
 Alpha virt. eigenvalues --    3.54978   3.56029   3.63148   3.72804   3.74009
 Alpha virt. eigenvalues --    3.75001   3.76026   3.92792   4.00682   4.11288
 Alpha virt. eigenvalues --    4.19064   4.21304   4.26648   4.43219   4.55379
 Alpha virt. eigenvalues --    4.61081   4.70207   4.75048   4.85971   5.45441
 Alpha virt. eigenvalues --    5.51499   5.69174   5.88558   6.23966   6.59692
 Alpha virt. eigenvalues --    7.20506   8.78880   8.80627   8.86002   8.86925
 Alpha virt. eigenvalues --    8.99744   9.00210   9.10507   9.12502   9.19679
 Alpha virt. eigenvalues --    9.26587   9.27251   9.29489   9.33456   9.33989
 Alpha virt. eigenvalues --    9.36304   9.36572   9.39933   9.45568   9.54789
 Alpha virt. eigenvalues --    9.56269   9.59081   9.71897   9.84795   9.86791
 Alpha virt. eigenvalues --   12.04808  15.07546  16.12617
          Condensed to atoms (all electrons):
               1          2          3          4
     1  C    5.194482   0.243030   0.111429   0.109843
     2  S    0.243030  15.949553  -0.067474  -0.065700
     3  F    0.111429  -0.067474   9.170023  -0.081368
     4  F    0.109843  -0.065700  -0.081368   9.186423
 Mulliken charges:
               1
     1  C    0.341216
     2  S   -0.059408
     3  F   -0.132610
     4  F   -0.149198
 Sum of Mulliken charges =  -0.00000
 Mulliken charges with hydrogens summed into heavy atoms:
               1
     1  C    0.341216
     2  S   -0.059408
     3  F   -0.132610
     4  F   -0.149198
 Electronic spatial extent (au):  <R**2>=            315.2022
 Charge=              0.0000 electrons
 Dipole moment (field-independent basis, Debye):
    X=             -0.0000    Y=             -0.0703    Z=             -0.2245  Tot=              0.2353
 Quadrupole moment (field-independent basis, Debye-Ang):
   XX=            -27.2812   YY=            -30.1538   ZZ=            -27.9400
   XY=              0.0000   XZ=             -0.0000   YZ=              0.1265
 Traceless Quadrupole moment (field-independent basis, Debye-Ang):
   XX=              1.1771   YY=             -1.6954   ZZ=              0.5183
   XY=              0.0000   XZ=             -0.0000   YZ=              0.1265
 Octapole moment (field-independent basis, Debye-Ang**2):
  XXX=              0.0000  YYY=              0.0328  ZZZ=              8.7835  XYY=              0.0000
  XXY=              0.0159  XXZ=              0.7518  XZZ=             -0.0000  YZZ=             -0.0355
  YYZ=              0.8019  XYZ=              0.0000
 Hexadecapole moment (field-independent basis, Debye-Ang**3):
 XXXX=            -28.1336 YYYY=            -96.1696 ZZZZ=           -215.0441 XXXY=              0.0000
 XXXZ=             -0.0000 YYYX=              0.0000 YYYZ=              0.1477 ZZZX=             -0.0000
 ZZZY=              0.3204 XXYY=            -20.7182 XXZZ=            -40.5195 YYZZ=            -55.6377
 XXYZ=              0.0503 YYXZ=              0.0000 ZZXY=              0.0000
 N-N= 1.543934449088D+02 E-N=-1.820107340365D+03  KE= 6.349957897241D+02
 There are a total of       92046 grid points.
 ElSum from          density=       40.0000001739
 ElSum from atomic densities=       39.9999997637

 Hirshfeld populations at iteration   1 (CX, CA, CB, DipXYZ):
               1          2          3          4          5          6
     1  C    0.000001   2.882879   2.882879   0.000000  -0.003625  -0.240504
     2  S    0.000009   8.048046   8.048046   0.000000   0.005087   0.186782
     3  F    0.000005   4.531799   4.531799  -0.000000   0.034060   0.025627
     4  F    0.000005   4.537276   4.537276  -0.000000  -0.036909   0.027726
       Tot   0.000019  20.000000  20.000000   0.000000  -0.001388  -0.000369

 Dip from Atomic Chgs              0.000000  -0.026270  -0.087961
         Total Dipole              0.000000  -0.027658  -0.088330

 Hirshfeld charges, spin densities, dipoles, and CM5 charges using IRadAn=      5:
              Q-H        S-H        Dx         Dy         Dz        Q-CM5   
     1  C    0.234243   0.000000   0.000000  -0.003625  -0.240504   0.293814
     2  S   -0.096092   0.000000   0.000000   0.005087   0.186782  -0.113989
     3  F   -0.063598   0.000000  -0.000000   0.034060   0.025627  -0.084839
     4  F   -0.074552   0.000000  -0.000000  -0.036909   0.027726  -0.094986
       Tot  -0.000000   0.000000   0.000000  -0.001388  -0.000369  -0.000000
 Hirshfeld charges with hydrogens summed into heavy atoms:
              Q-H       Q-CM5   
     1  C    0.234243   0.293814
     2  S   -0.096092  -0.113989
     3  F   -0.063598  -0.084839
     4  F   -0.074552  -0.094986
 
 EQQ= 0.000000000000E+00 EQD= 0.000000000000E+00 EDD=-0.239995145784E-02
 EQQ+QD+DD=-0.239995145784E-02
 
 Breneman (CHELPG) radii used.
 Generate Potential Derived Charges using the Breneman model, NDens= 1.
 Grid spacing= 0.300 Box extension= 2.800
 NStep X,Y,Z=   20     27     28   Total possible points=       15120
 Number of Points to Fit=    4650

 **********************************************************************

            Electrostatic Properties Using The CC Density.

 **********************************************************************

       Atomic Center    1 is at   0.000000 -0.010000 -0.520349
       Atomic Center    2 is at   0.000000  0.000000  1.078525
       Atomic Center    3 is at   0.000000 -1.055221 -1.295538
       Atomic Center    4 is at   0.000000  1.055221 -1.295538
    4650 points will be used for fitting atomic charges
 Fitting point charges to electrostatic potential
 The dipole moment will be constrained to the correct value
 Charges from ESP fit, RMS=   0.00619 RRMS=   0.72530:
 ESP charges:
               1
     1  C    0.410208
     2  S   -0.153632
     3  F   -0.123297
     4  F   -0.133279
 Sum of ESP charges =  -0.00000
 ESP charges with hydrogens summed into heavy atoms:
               1
     1  C    0.410208
     2  S   -0.153632
     3  F   -0.123297
     4  F   -0.133279
 Charge=  -0.00000 Dipole=     0.0000    -0.0703    -0.2245 Tot=     0.2353
 -----------------------------------------------------------------

              Electrostatic Properties (Atomic Units)

 -----------------------------------------------------------------
    Center     Electric         -------- Electric Field --------
               Potential          X             Y             Z
 -----------------------------------------------------------------
    1 Atom    -14.498943
    2 Atom    -59.212439
    3 Atom    -26.492879
    4 Atom    -26.499093
 -----------------------------------------------------------------
 ******************************Gaussian NBO Version 3.1******************************
             N A T U R A L   A T O M I C   O R B I T A L   A N D
          N A T U R A L   B O N D   O R B I T A L   A N A L Y S I S
 ******************************Gaussian NBO Version 3.1******************************
       /RESON  / : Allow strongly delocalized NBO set

 Analyzing the QCI/CC density

 Job title: f2cs-wavefunction                                               

 Storage needed:    106946 in NPA (2147483536 available)
 GSVD:  LWork=        5094 too small for GESVD, short by       54317 words or       54317 for optimal perf.


 NATURAL POPULATIONS:  Natural atomic orbital occupancies 
                                                          
   NAO  Atom  No  lang   Type(AO)    Occupancy
 --------------------------------------------
     1    C    1  S      Cor( 1S)     1.99946
     2    C    1  S      Val( 2S)     0.92929
     3    C    1  S      Ryd( 3S)     0.00604
     4    C    1  S      Ryd( 4S)     0.00026
     5    C    1  S      Ryd( 5S)     0.00006
     6    C    1  px     Val( 2p)     0.86067
     7    C    1  px     Ryd( 3p)     0.00616
     8    C    1  px     Ryd( 4p)     0.00050
     9    C    1  px     Ryd( 5p)     0.00045
    10    C    1  py     Val( 2p)     0.62335
    11    C    1  py     Ryd( 3p)     0.02263
    12    C    1  py     Ryd( 4p)     0.00057
    13    C    1  py     Ryd( 5p)     0.00032
    14    C    1  pz     Val( 2p)     0.86772
    15    C    1  pz     Ryd( 3p)     0.01826
    16    C    1  pz     Ryd( 4p)     0.00062
    17    C    1  pz     Ryd( 5p)     0.00040
    18    C    1  dxy    Ryd( 3d)     0.00784
    19    C    1  dxy    Ryd( 4d)     0.00053
    20    C    1  dxy    Ryd( 5d)     0.00025
    21    C    1  dxz    Ryd( 3d)     0.01454
    22    C    1  dxz    Ryd( 4d)     0.00048
    23    C    1  dxz    Ryd( 5d)     0.00037
    24    C    1  dyz    Ryd( 3d)     0.01132
    25    C    1  dyz    Ryd( 4d)     0.00041
    26    C    1  dyz    Ryd( 5d)     0.00019
    27    C    1  dx2y2  Ryd( 3d)     0.00605
    28    C    1  dx2y2  Ryd( 4d)     0.00045
    29    C    1  dx2y2  Ryd( 5d)     0.00043
    30    C    1  dz2    Ryd( 3d)     0.01094
    31    C    1  dz2    Ryd( 4d)     0.00059
    32    C    1  dz2    Ryd( 5d)     0.00022
    33    C    1  f(0)   Ryd( 4f)     0.00305
    34    C    1  f(0)   Ryd( 5f)     0.00029
    35    C    1  f(C1)  Ryd( 4f)     0.00148
    36    C    1  f(C1)  Ryd( 5f)     0.00042
    37    C    1  f(S1)  Ryd( 4f)     0.00244
    38    C    1  f(S1)  Ryd( 5f)     0.00066
    39    C    1  f(C2)  Ryd( 4f)     0.00221
    40    C    1  f(C2)  Ryd( 5f)     0.00028
    41    C    1  f(S2)  Ryd( 4f)     0.00219
    42    C    1  f(S2)  Ryd( 5f)     0.00036
    43    C    1  f(C3)  Ryd( 4f)     0.00122
    44    C    1  f(C3)  Ryd( 5f)     0.00035
    45    C    1  f(S3)  Ryd( 4f)     0.00110
    46    C    1  f(S3)  Ryd( 5f)     0.00023

    47    S    2  S      Cor( 1S)     2.00000
    48    S    2  S      Cor( 2S)     1.99876
    49    S    2  S      Val( 3S)     1.75701
    50    S    2  S      Ryd( 4S)     0.00665
    51    S    2  S      Ryd( 5S)     0.00026
    52    S    2  S      Ryd( 6S)     0.00019
    53    S    2  px     Cor( 2p)     1.99990
    54    S    2  px     Val( 3p)     1.28837
    55    S    2  px     Ryd( 4p)     0.00520
    56    S    2  px     Ryd( 5p)     0.00030
    57    S    2  px     Ryd( 6p)     0.00007
    58    S    2  py     Cor( 2p)     2.00001
    59    S    2  py     Val( 3p)     1.79674
    60    S    2  py     Ryd( 4p)     0.00856
    61    S    2  py     Ryd( 5p)     0.00051
    62    S    2  py     Ryd( 6p)     0.00010
    63    S    2  pz     Cor( 2p)     1.99964
    64    S    2  pz     Val( 3p)     1.02041
    65    S    2  pz     Ryd( 4p)     0.00504
    66    S    2  pz     Ryd( 5p)     0.00041
    67    S    2  pz     Ryd( 6p)     0.00009
    68    S    2  dxy    Ryd( 3d)     0.01639
    69    S    2  dxy    Ryd( 4d)     0.00052
    70    S    2  dxy    Ryd( 5d)     0.00009
    71    S    2  dxz    Ryd( 3d)     0.01939
    72    S    2  dxz    Ryd( 4d)     0.00048
    73    S    2  dxz    Ryd( 5d)     0.00017
    74    S    2  dyz    Ryd( 3d)     0.01484
    75    S    2  dyz    Ryd( 4d)     0.00050
    76    S    2  dyz    Ryd( 5d)     0.00024
    77    S    2  dx2y2  Ryd( 3d)     0.01618
    78    S    2  dx2y2  Ryd( 4d)     0.00053
    79    S    2  dx2y2  Ryd( 5d)     0.00008
    80    S    2  dz2    Ryd( 3d)     0.02157
    81    S    2  dz2    Ryd( 4d)     0.00043
    82    S    2  dz2    Ryd( 5d)     0.00015
    83    S    2  f(0)   Ryd( 4f)     0.00141
    84    S    2  f(0)   Ryd( 5f)     0.00018
    85    S    2  f(C1)  Ryd( 4f)     0.00095
    86    S    2  f(C1)  Ryd( 5f)     0.00012
    87    S    2  f(S1)  Ryd( 4f)     0.00105
    88    S    2  f(S1)  Ryd( 5f)     0.00015
    89    S    2  f(C2)  Ryd( 4f)     0.00095
    90    S    2  f(C2)  Ryd( 5f)     0.00012
    91    S    2  f(S2)  Ryd( 4f)     0.00094
    92    S    2  f(S2)  Ryd( 5f)     0.00012
    93    S    2  f(C3)  Ryd( 4f)     0.00134
    94    S    2  f(C3)  Ryd( 5f)     0.00012
    95    S    2  f(S3)  Ryd( 4f)     0.00135
    96    S    2  f(S3)  Ryd( 5f)     0.00012

    97    F    3  S      Cor( 1S)     1.99979
    98    F    3  S      Val( 2S)     1.82461
    99    F    3  S      Ryd( 3S)     0.00642
   100    F    3  S      Ryd( 4S)     0.00033
   101    F    3  S      Ryd( 5S)     0.00027
   102    F    3  px     Val( 2p)     1.86795
   103    F    3  px     Ryd( 3p)     0.01117
   104    F    3  px     Ryd( 4p)     0.00081
   105    F    3  px     Ryd( 5p)     0.00015
   106    F    3  py     Val( 2p)     1.71732
   107    F    3  py     Ryd( 3p)     0.00738
   108    F    3  py     Ryd( 4p)     0.00058
   109    F    3  py     Ryd( 5p)     0.00018
   110    F    3  pz     Val( 2p)     1.80591
   111    F    3  pz     Ryd( 3p)     0.00964
   112    F    3  pz     Ryd( 4p)     0.00073
   113    F    3  pz     Ryd( 5p)     0.00027
   114    F    3  dxy    Ryd( 3d)     0.00678
   115    F    3  dxy    Ryd( 4d)     0.00044
   116    F    3  dxy    Ryd( 5d)     0.00008
   117    F    3  dxz    Ryd( 3d)     0.00573
   118    F    3  dxz    Ryd( 4d)     0.00045
   119    F    3  dxz    Ryd( 5d)     0.00008
   120    F    3  dyz    Ryd( 3d)     0.00991
   121    F    3  dyz    Ryd( 4d)     0.00053
   122    F    3  dyz    Ryd( 5d)     0.00011
   123    F    3  dx2y2  Ryd( 3d)     0.00758
   124    F    3  dx2y2  Ryd( 4d)     0.00052
   125    F    3  dx2y2  Ryd( 5d)     0.00013
   126    F    3  dz2    Ryd( 3d)     0.00644
   127    F    3  dz2    Ryd( 4d)     0.00045
   128    F    3  dz2    Ryd( 5d)     0.00011
   129    F    3  f(0)   Ryd( 4f)     0.00053
   130    F    3  f(0)   Ryd( 5f)     0.00010
   131    F    3  f(C1)  Ryd( 4f)     0.00043
   132    F    3  f(C1)  Ryd( 5f)     0.00009
   133    F    3  f(S1)  Ryd( 4f)     0.00067
   134    F    3  f(S1)  Ryd( 5f)     0.00013
   135    F    3  f(C2)  Ryd( 4f)     0.00074
   136    F    3  f(C2)  Ryd( 5f)     0.00012
   137    F    3  f(S2)  Ryd( 4f)     0.00055
   138    F    3  f(S2)  Ryd( 5f)     0.00011
   139    F    3  f(C3)  Ryd( 4f)     0.00052
   140    F    3  f(C3)  Ryd( 5f)     0.00010
   141    F    3  f(S3)  Ryd( 4f)     0.00057
   142    F    3  f(S3)  Ryd( 5f)     0.00012

   143    F    4  S      Cor( 1S)     1.99980
   144    F    4  S      Val( 2S)     1.83129
   145    F    4  S      Ryd( 3S)     0.00649
   146    F    4  S      Ryd( 4S)     0.00033
   147    F    4  S      Ryd( 5S)     0.00027
   148    F    4  px     Val( 2p)     1.87243
   149    F    4  px     Ryd( 3p)     0.01135
   150    F    4  px     Ryd( 4p)     0.00081
   151    F    4  px     Ryd( 5p)     0.00015
   152    F    4  py     Val( 2p)     1.71180
   153    F    4  py     Ryd( 3p)     0.00748
   154    F    4  py     Ryd( 4p)     0.00058
   155    F    4  py     Ryd( 5p)     0.00018
   156    F    4  pz     Val( 2p)     1.80902
   157    F    4  pz     Ryd( 3p)     0.00986
   158    F    4  pz     Ryd( 4p)     0.00073
   159    F    4  pz     Ryd( 5p)     0.00027
   160    F    4  dxy    Ryd( 3d)     0.00667
   161    F    4  dxy    Ryd( 4d)     0.00044
   162    F    4  dxy    Ryd( 5d)     0.00008
   163    F    4  dxz    Ryd( 3d)     0.00564
   164    F    4  dxz    Ryd( 4d)     0.00046
   165    F    4  dxz    Ryd( 5d)     0.00008
   166    F    4  dyz    Ryd( 3d)     0.00953
   167    F    4  dyz    Ryd( 4d)     0.00053
   168    F    4  dyz    Ryd( 5d)     0.00010
   169    F    4  dx2y2  Ryd( 3d)     0.00743
   170    F    4  dx2y2  Ryd( 4d)     0.00052
   171    F    4  dx2y2  Ryd( 5d)     0.00013
   172    F    4  dz2    Ryd( 3d)     0.00629
   173    F    4  dz2    Ryd( 4d)     0.00045
   174    F    4  dz2    Ryd( 5d)     0.00011
   175    F    4  f(0)   Ryd( 4f)     0.00052
   176    F    4  f(0)   Ryd( 5f)     0.00010
   177    F    4  f(C1)  Ryd( 4f)     0.00043
   178    F    4  f(C1)  Ryd( 5f)     0.00009
   179    F    4  f(S1)  Ryd( 4f)     0.00066
   180    F    4  f(S1)  Ryd( 5f)     0.00013
   181    F    4  f(C2)  Ryd( 4f)     0.00072
   182    F    4  f(C2)  Ryd( 5f)     0.00012
   183    F    4  f(S2)  Ryd( 4f)     0.00055
   184    F    4  f(S2)  Ryd( 5f)     0.00011
   185    F    4  f(C3)  Ryd( 4f)     0.00052
   186    F    4  f(C3)  Ryd( 5f)     0.00011
   187    F    4  f(S3)  Ryd( 4f)     0.00057
   188    F    4  f(S3)  Ryd( 5f)     0.00012

 WARNING:  1 low occupancy (<1.9990e) core orbital  found on  S    2


 Summary of Natural Population Analysis:                  
                                                          
                                       Natural Population 
                Natural  -----------------------------------------------
    Atom  No    Charge         Core      Valence    Rydberg      Total
 -----------------------------------------------------------------------
      C    1    0.59235      1.99946     3.28102    0.12717     5.40765
      S    2    0.01131      9.99831     5.86252    0.12786    15.98869
      F    3   -0.29763      1.99979     7.21578    0.08206     9.29763
      F    4   -0.30603      1.99980     7.22454    0.08169     9.30603
 =======================================================================
   * Total *   -0.00000     15.99736    23.58386    0.41878    40.00000

                                 Natural Population      
 --------------------------------------------------------
   Core                      15.99736 ( 99.9835% of  16)
   Valence                   23.58386 ( 98.2661% of  24)
   Natural Minimal Basis     39.58122 ( 98.9530% of  40)
   Natural Rydberg Basis      0.41878 (  1.0470% of  40)
 --------------------------------------------------------

    Atom  No          Natural Electron Configuration
 ----------------------------------------------------------------------------
      C    1      [core]2S( 0.93)2p( 2.35)3S( 0.01)3p( 0.05)3d( 0.05)4f( 0.01)
      S    2      [core]3S( 1.76)3p( 4.11)4S( 0.01)3d( 0.09)4p( 0.02)4f( 0.01)
      F    3      [core]2S( 1.82)2p( 5.39)3S( 0.01)3p( 0.03)3d( 0.04)
      F    4      [core]2S( 1.83)2p( 5.39)3S( 0.01)3p( 0.03)3d( 0.04)


 NBO analysis skipped by request.
 Unable to Open any file for archive entry.
 1\1\GINC-TRAPISTA\SP\RQCISD-FC\Aug-CC-pVTZ\C1F2S1\WAGNER\03-Sep-2022\0
 \\# qcisd/aug-cc-pvtz nosymm density=current pop=(chelpg,hirshfeld,npa
 ,dipole)\\f2cs-wavefunction\\0,1\C,0,0.,-0.01,-0.520349\S,0,0.,0.,1.07
 8525\F,0,0.,-1.055221,-1.295538\F,0,0.,1.055221,-1.295538\\Version=EM6
 4L-G16RevC.01\HF=-634.3567769\MP2=-635.1963159\MP3=-635.1996982\MP4D=-
 635.2166244\MP4DQ=-635.1972706\MP4SDQ=-635.2081295\QCISD=-635.2072321\
 RMSD=5.612e-09\Dipole=0.,-0.0276576,-0.0883304\Quadrupole=0.8751513,-1
 .2605123,0.385361,0.,0.,0.0940248\PG=CS [SG(C1F2S1)]\\@
 The archive entry for this job was punched.


 QED = W**5 (WHICH WAS WHAT WE WANTED)
 Job cpu time:       0 days  6 hours 45 minutes 45.7 seconds.
 Elapsed time:       0 days  0 hours 25 minutes 42.7 seconds.
 File lengths (MBytes):  RWF=  21970 Int=      0 D2E=      0 Chk=      4 Scr=      1
 Normal termination of Gaussian 16 at Sat Sep  3 10:39:16 2022.
