 Entering Gaussian System, Link 0=/home/wagner/chemistry/gaussian/g16/g16
 Input=GAUSSIAN.com
 Output=GAUSSIAN.log
 Initial command:
 /home/wagner/chemistry/gaussian/g16/l1.exe "/home/wagner/chemistry/gaussian/work/Gau-17984.inp" -scrdir="/home/wagner/chemistry/gaussian/work/"
 Entering Link 1 = /home/wagner/chemistry/gaussian/g16/l1.exe PID=     17986.
  
 Copyright (c) 1988-2019, Gaussian, Inc.  All Rights Reserved.
  
 This is part of the Gaussian(R) 16 program.  It is based on
 the Gaussian(R) 09 system (copyright 2009, Gaussian, Inc.),
 the Gaussian(R) 03 system (copyright 2003, Gaussian, Inc.),
 the Gaussian(R) 98 system (copyright 1998, Gaussian, Inc.),
 the Gaussian(R) 94 system (copyright 1995, Gaussian, Inc.),
 the Gaussian 92(TM) system (copyright 1992, Gaussian, Inc.),
 the Gaussian 90(TM) system (copyright 1990, Gaussian, Inc.),
 the Gaussian 88(TM) system (copyright 1988, Gaussian, Inc.),
 the Gaussian 86(TM) system (copyright 1986, Carnegie Mellon
 University), and the Gaussian 82(TM) system (copyright 1983,
 Carnegie Mellon University). Gaussian is a federally registered
 trademark of Gaussian, Inc.
  
 This software contains proprietary and confidential information,
 including trade secrets, belonging to Gaussian, Inc.
  
 This software is provided under written license and may be
 used, copied, transmitted, or stored only in accord with that
 written license.
  
 The following legend is applicable only to US Government
 contracts under FAR:
  
                    RESTRICTED RIGHTS LEGEND
  
 Use, reproduction and disclosure by the US Government is
 subject to restrictions as set forth in subparagraphs (a)
 and (c) of the Commercial Computer Software - Restricted
 Rights clause in FAR 52.227-19.
  
 Gaussian, Inc.
 340 Quinnipiac St., Bldg. 40, Wallingford CT 06492
  
  
 ---------------------------------------------------------------
 Warning -- This program may not be used in any manner that
 competes with the business of Gaussian, Inc. or will provide
 assistance to any competitor of Gaussian, Inc.  The licensee
 of this program is prohibited from giving any competitor of
 Gaussian, Inc. access to this program.  By using this program,
 the user acknowledges that Gaussian, Inc. is engaged in the
 business of creating and licensing software in the field of
 computational chemistry and represents and warrants to the
 licensee that it is not a competitor of Gaussian, Inc. and that
 it will not use this program in any manner prohibited above.
 ---------------------------------------------------------------
  

 Cite this work as:
 Gaussian 16, Revision C.01,
 M. J. Frisch, G. W. Trucks, H. B. Schlegel, G. E. Scuseria, 
 M. A. Robb, J. R. Cheeseman, G. Scalmani, V. Barone, 
 G. A. Petersson, H. Nakatsuji, X. Li, M. Caricato, A. V. Marenich, 
 J. Bloino, B. G. Janesko, R. Gomperts, B. Mennucci, H. P. Hratchian, 
 J. V. Ortiz, A. F. Izmaylov, J. L. Sonnenberg, D. Williams-Young, 
 F. Ding, F. Lipparini, F. Egidi, J. Goings, B. Peng, A. Petrone, 
 T. Henderson, D. Ranasinghe, V. G. Zakrzewski, J. Gao, N. Rega, 
 G. Zheng, W. Liang, M. Hada, M. Ehara, K. Toyota, R. Fukuda, 
 J. Hasegawa, M. Ishida, T. Nakajima, Y. Honda, O. Kitao, H. Nakai, 
 T. Vreven, K. Throssell, J. A. Montgomery, Jr., J. E. Peralta, 
 F. Ogliaro, M. J. Bearpark, J. J. Heyd, E. N. Brothers, K. N. Kudin, 
 V. N. Staroverov, T. A. Keith, R. Kobayashi, J. Normand, 
 K. Raghavachari, A. P. Rendell, J. C. Burant, S. S. Iyengar, 
 J. Tomasi, M. Cossi, J. M. Millam, M. Klene, C. Adamo, R. Cammi, 
 J. W. Ochterski, R. L. Martin, K. Morokuma, O. Farkas, 
 J. B. Foresman, and D. J. Fox, Gaussian, Inc., Wallingford CT, 2019.
 
 ******************************************
 Gaussian 16:  EM64L-G16RevC.01  3-Jul-2019
                 3-Sep-2022 
 ******************************************
 %nproc=16
 Will use up to   16 processors via shared memory.
 %mem=16GB
 ----------------------------------------------------------------------
 # qcisd/aug-cc-pvtz nosymm density=current pop=(chelpg,hirshfeld,npa,d
 ipole)
 ----------------------------------------------------------------------
 1/30=1,38=1,172=1/1;
 2/12=2,15=1,17=6,18=5,40=1/2;
 3/5=16,6=1,7=10,11=9,25=1,30=1,71=1/1,2,3;
 4//1;
 5/5=2,38=5/2;
 8/6=4,9=120000,10=1/1,4;
 9/5=8,15=1/13;
 11/28=-7,31=1,32=3,42=3/11;
 10/5=6,13=10,31=1/2;
 6/7=2,8=2,9=2,10=2,15=24,20=3,22=-1,40=-1,79=1/1,2,7;
 99/5=1,9=1/99;
 -----------------
 f2cs-wavefunction
 -----------------
 Symbolic Z-matrix:
 Charge =  0 Multiplicity = 1
 C                     0.        0.       -0.52035 
 S                     0.       -0.01      1.07852 
 F                     0.       -1.05522  -1.29554 
 F                     0.        1.05522  -1.29554 
 
                          Input orientation:                          
 ---------------------------------------------------------------------
 Center     Atomic      Atomic             Coordinates (Angstroms)
 Number     Number       Type             X           Y           Z
 ---------------------------------------------------------------------
      1          6           0        0.000000    0.000000   -0.520349
      2         16           0        0.000000   -0.010000    1.078525
      3          9           0        0.000000   -1.055221   -1.295538
      4          9           0        0.000000    1.055221   -1.295538
 ---------------------------------------------------------------------
                    Distance matrix (angstroms):
                    1          2          3          4
     1  C    0.000000
     2  S    1.598905   0.000000
     3  F    1.309355   2.593966   0.000000
     4  F    1.309355   2.602090   2.110442   0.000000
 Symmetry turned off by external request.
 Stoichiometry    CF2S
 Framework group  CS[SG(CF2S)]
 Deg. of freedom     5
 Full point group                 CS      NOp   2
 Rotational constants (GHZ):          11.9452788           5.1129205           3.5804049
 Standard basis: Aug-CC-pVTZ (5D, 7F)
   188 basis functions,   330 primitive gaussians,   224 cartesian basis functions
    20 alpha electrons       20 beta electrons
       nuclear repulsion energy       154.3920180651 Hartrees.
 NAtoms=    4 NActive=    4 NUniq=    4 SFac= 1.00D+00 NAtFMM=   60 NAOKFM=F Big=F
 Integral buffers will be    131072 words long.
 Raffenetti 1 integral format.
 Two-electron integral symmetry is turned off.
 One-electron integrals computed using PRISM.
 NBasis=   188 RedAO= T EigKep=  9.82D-05  NBF=   188
 NBsUse=   188 1.00D-06 EigRej= -1.00D+00 NBFU=   188
 ExpMin= 3.51D-02 ExpMax= 3.74D+05 ExpMxC= 1.18D+03 IAcc=3 IRadAn=         5 AccDes= 0.00D+00
 Harris functional with IExCor=  205 and IRadAn=       5 diagonalized for initial guess.
 HarFok:  IExCor=  205 AccDes= 0.00D+00 IRadAn=         5 IDoV= 1 UseB2=F ITyADJ=14
 ICtDFT=  3500011 ScaDFX=  1.000000  1.000000  1.000000  1.000000
 FoFCou: FMM=F IPFlag=           0 FMFlag=      100000 FMFlg1=           0
         NFxFlg=           0 DoJE=T BraDBF=F KetDBF=T FulRan=T
         wScrn=  0.000000 ICntrl=       500 IOpCl=  0 I1Cent=   200000004 NGrid=           0
         NMat0=    1 NMatS0=      1 NMatT0=    0 NMatD0=    1 NMtDS0=    0 NMtDT0=    0
 Symmetry not used in FoFCou.
 Keep R1 ints in memory in canonical form, NReq=165820989.
 Requested convergence on RMS density matrix=1.00D-08 within 128 cycles.
 Requested convergence on MAX density matrix=1.00D-06.
 Requested convergence on             energy=1.00D-06.
 No special actions if energy rises.
 SCF Done:  E(RHF) =  -634.356860860     A.U. after   12 cycles
            NFock= 12  Conv=0.53D-08     -V/T= 2.0005
 ExpMin= 3.51D-02 ExpMax= 3.74D+05 ExpMxC= 1.18D+03 IAcc=3 IRadAn=         5 AccDes= 0.00D+00
 HarFok:  IExCor=  205 AccDes= 0.00D+00 IRadAn=         5 IDoV=-2 UseB2=F ITyADJ=14
 ICtDFT= 12500011 ScaDFX=  1.000000  1.000000  1.000000  1.000000
 Range of M.O.s used for correlation:     9   188
 NBasis=   188 NAE=    20 NBE=    20 NFC=     8 NFV=     0
 NROrb=    180 NOA=    12 NOB=    12 NVA=   168 NVB=   168

 **** Warning!!: The largest alpha MO coefficient is  0.26914576D+02

 Semi-Direct transformation.
 ModeAB=           2 MOrb=            12 LenV=    2146475577
 LASXX=     33405819 LTotXX=    33405819 LenRXX=    33405819
 LTotAB=    33954012 MaxLAS=    54432000 LenRXY=    54432000
 NonZer=    66811638 LenScr=   100987392 LnRSAI=           0
 LnScr1=           0 LExtra=           0 Total=    188825211
 MaxDsk=          -1 SrtSym=           F ITran=            4
 JobTyp=0 Pass  1:  I=   1 to  12.
 (rs|ai) integrals will be sorted in core.
 Spin components of T(2) and E(2):
     alpha-alpha T2 =       0.3014364320D-01 E2=     -0.1104083468D+00
     alpha-beta  T2 =       0.1598243398D+00 E2=     -0.6187193914D+00
     beta-beta   T2 =       0.3014364320D-01 E2=     -0.1104083468D+00
 ANorm=    0.1104586631D+01
 E2 =    -0.8395360850D+00 EUMP2 =    -0.63519639694461D+03
 Keep R2 and R3 ints in memory in canonical form, NReq=323654062.
 CIDS: In Core Option IDoMem=           1.
 Iterations=  50 Convergence= 0.100D-07
 Produce multiple copies of IABC intergrals
 Iteration Nr.   1
 **********************
 DD1Dir will call FoFMem   1 times, MxPair=       156
 NAB=    78 NAA=     0 NBB=     0.
 MP4(R+Q)=  0.19353075D-01
 E3=       -0.33854286D-02        EUMP3=      -0.63519978237D+03
 E4(DQ)=    0.24273054D-02        UMP4(DQ)=   -0.63519735507D+03
 E4(SDQ)=  -0.84305241D-02        UMP4(SDQ)=  -0.63520821290D+03
 DE(Corr)= -0.82356844     E(Corr)=     -635.18042930    
 NORM(A)=   0.11038531D+01
 Iteration Nr.   2
 **********************
 DD1Dir will call FoFMem   1 times, MxPair=       156
 NAB=    78 NAA=     0 NBB=     0.
 DE(Corr)= -0.84925298     E(CORR)=     -635.20611384     Delta=-2.57D-02
 NORM(A)=   0.11127846D+01
 Iteration Nr.   3
 **********************
 DD1Dir will call FoFMem   1 times, MxPair=       156
 NAB=    78 NAA=     0 NBB=     0.
 DE(Corr)= -0.84757877     E(CORR)=     -635.20443963     Delta= 1.67D-03
 NORM(A)=   0.11156268D+01
 Iteration Nr.   4
 **********************
 DD1Dir will call FoFMem   1 times, MxPair=       156
 NAB=    78 NAA=     0 NBB=     0.
 DE(Corr)= -0.85011001     E(CORR)=     -635.20697087     Delta=-2.53D-03
 NORM(A)=   0.11167380D+01
 Iteration Nr.   5
 **********************
 DD1Dir will call FoFMem   1 times, MxPair=       156
 NAB=    78 NAA=     0 NBB=     0.
 DE(Corr)= -0.85041125     E(CORR)=     -635.20727211     Delta=-3.01D-04
 NORM(A)=   0.11170639D+01
 Iteration Nr.   6
 **********************
 DD1Dir will call FoFMem   1 times, MxPair=       156
 NAB=    78 NAA=     0 NBB=     0.
 DE(Corr)= -0.85045075     E(CORR)=     -635.20731161     Delta=-3.95D-05
 NORM(A)=   0.11171125D+01
 Iteration Nr.   7
 **********************
 DD1Dir will call FoFMem   1 times, MxPair=       156
 NAB=    78 NAA=     0 NBB=     0.
 DE(Corr)= -0.85045505     E(CORR)=     -635.20731591     Delta=-4.30D-06
 NORM(A)=   0.11171123D+01
 Iteration Nr.   8
 **********************
 DD1Dir will call FoFMem   1 times, MxPair=       156
 NAB=    78 NAA=     0 NBB=     0.
 DE(Corr)= -0.85045366     E(CORR)=     -635.20731452     Delta= 1.39D-06
 NORM(A)=   0.11171175D+01
 Iteration Nr.   9
 **********************
 DD1Dir will call FoFMem   1 times, MxPair=       156
 NAB=    78 NAA=     0 NBB=     0.
 DE(Corr)= -0.85045335     E(CORR)=     -635.20731421     Delta= 3.10D-07
 NORM(A)=   0.11171176D+01
 Iteration Nr.  10
 **********************
 DD1Dir will call FoFMem   1 times, MxPair=       156
 NAB=    78 NAA=     0 NBB=     0.
 DE(Corr)= -0.85045345     E(CORR)=     -635.20731430     Delta=-9.50D-08
 NORM(A)=   0.11171191D+01
 Iteration Nr.  11
 **********************
 DD1Dir will call FoFMem   1 times, MxPair=       156
 NAB=    78 NAA=     0 NBB=     0.
 DE(Corr)= -0.85045418     E(CORR)=     -635.20731504     Delta=-7.34D-07
 NORM(A)=   0.11171205D+01
 Iteration Nr.  12
 **********************
 DD1Dir will call FoFMem   1 times, MxPair=       156
 NAB=    78 NAA=     0 NBB=     0.
 DE(Corr)= -0.85045442     E(CORR)=     -635.20731528     Delta=-2.38D-07
 NORM(A)=   0.11171212D+01
 Iteration Nr.  13
 **********************
 DD1Dir will call FoFMem   1 times, MxPair=       156
 NAB=    78 NAA=     0 NBB=     0.
 DE(Corr)= -0.85045468     E(CORR)=     -635.20731554     Delta=-2.64D-07
 NORM(A)=   0.11171216D+01
 Iteration Nr.  14
 **********************
 DD1Dir will call FoFMem   1 times, MxPair=       156
 NAB=    78 NAA=     0 NBB=     0.
 DE(Corr)= -0.85045474     E(CORR)=     -635.20731560     Delta=-5.94D-08
 NORM(A)=   0.11171218D+01
 Iteration Nr.  15
 **********************
 DD1Dir will call FoFMem   1 times, MxPair=       156
 NAB=    78 NAA=     0 NBB=     0.
 DE(Corr)= -0.85045478     E(CORR)=     -635.20731564     Delta=-3.92D-08
 NORM(A)=   0.11171219D+01
 Iteration Nr.  16
 **********************
 DD1Dir will call FoFMem   1 times, MxPair=       156
 NAB=    78 NAA=     0 NBB=     0.
 DE(Corr)= -0.85045479     E(CORR)=     -635.20731565     Delta=-1.09D-08
 NORM(A)=   0.11171219D+01
 Iteration Nr.  17
 **********************
 DD1Dir will call FoFMem   1 times, MxPair=       156
 NAB=    78 NAA=     0 NBB=     0.
 DE(Corr)= -0.85045479     E(CORR)=     -635.20731565     Delta= 2.76D-09
 NORM(A)=   0.11171219D+01
 Wavefunction amplitudes converged. E(Corr)=     -635.20731565    
 Largest amplitude= 8.52D-02

 Z-amplitude iterations

 Iteration Nr.   1
 **********************
 DD1Dir will call FoFMem   1 times, MxPair=       156
 NAB=    78 NAA=     0 NBB=     0.
 DE(Z)= -0.82655110     E(Z)=     -635.18341196     Delta= 2.39D-02
 NORM(A)=   0.11171122D+01
 Iteration Nr.   2
 **********************
 DD1Dir will call FoFMem   1 times, MxPair=       156
 NAB=    78 NAA=     0 NBB=     0.
 DE(Z)= -0.82655108     E(Z)=     -635.18341194     Delta= 1.87D-08
 NORM(A)=   0.11171369D+01
 Iteration Nr.   3
 **********************
 DD1Dir will call FoFMem   1 times, MxPair=       156
 NAB=    78 NAA=     0 NBB=     0.
 DE(Z)= -0.82655133     E(Z)=     -635.18341219     Delta=-2.55D-07
 NORM(A)=   0.11171869D+01
 Iteration Nr.   4
 **********************
 DD1Dir will call FoFMem   1 times, MxPair=       156
 NAB=    78 NAA=     0 NBB=     0.
 DE(Z)= -0.82655194     E(Z)=     -635.18341280     Delta=-6.02D-07
 NORM(A)=   0.11171965D+01
 Iteration Nr.   5
 **********************
 DD1Dir will call FoFMem   1 times, MxPair=       156
 NAB=    78 NAA=     0 NBB=     0.
 DE(Z)= -0.82655237     E(Z)=     -635.18341323     Delta=-4.37D-07
 NORM(A)=   0.11088847D+01
 Iteration Nr.   6
 **********************
 DD1Dir will call FoFMem   1 times, MxPair=       156
 NAB=    78 NAA=     0 NBB=     0.
 DE(Z)= -0.82641186     E(Z)=     -635.18327272     Delta= 1.41D-04
 NORM(A)=   0.11088817D+01
 Iteration Nr.   7
 **********************
 DD1Dir will call FoFMem   1 times, MxPair=       156
 NAB=    78 NAA=     0 NBB=     0.
 DE(Z)= -0.82641080     E(Z)=     -635.18327166     Delta= 1.05D-06
 NORM(A)=   0.11088806D+01
 Iteration Nr.   8
 **********************
 DD1Dir will call FoFMem   1 times, MxPair=       156
 NAB=    78 NAA=     0 NBB=     0.
 DE(Z)= -0.82641090     E(Z)=     -635.18327176     Delta=-9.49D-08
 NORM(A)=   0.11088795D+01
 Iteration Nr.   9
 **********************
 DD1Dir will call FoFMem   1 times, MxPair=       156
 NAB=    78 NAA=     0 NBB=     0.
 DE(Z)= -0.82641044     E(Z)=     -635.18327130     Delta= 4.60D-07
 NORM(A)=   0.11088795D+01
 Iteration Nr.  10
 **********************
 DD1Dir will call FoFMem   1 times, MxPair=       156
 NAB=    78 NAA=     0 NBB=     0.
 DE(Z)= -0.82641041     E(Z)=     -635.18327127     Delta= 2.80D-08
 NORM(A)=   0.11088797D+01
 Iteration Nr.  11
 **********************
 DD1Dir will call FoFMem   1 times, MxPair=       156
 NAB=    78 NAA=     0 NBB=     0.
 DE(Z)= -0.82641047     E(Z)=     -635.18327133     Delta=-6.28D-08
 NORM(A)=   0.11088798D+01
 Iteration Nr.  12
 **********************
 DD1Dir will call FoFMem   1 times, MxPair=       156
 NAB=    78 NAA=     0 NBB=     0.
 DE(Z)= -0.82641047     E(Z)=     -635.18327133     Delta= 8.82D-10
 NORM(A)=   0.11088799D+01
 Z-amplitudes converged.
 Discarding MO integrals.
          Differentiating once with respect to electric field.
                with respect to dipole field.
          Electric field/nuclear overlap derivatives assumed to be zero.
 Keep R1 ints in memory in canonical form, NReq=165824681.
          There are     1 degrees of freedom in the 1st order CPHF.  IDoFFX=0 NUNeed=     1.
 LinEq1:  Iter=  0 NonCon=     1 RMS=2.85D-03 Max=7.75D-02 NDo=     1
 AX will form     1 AO Fock derivatives at one time.
 LinEq1:  Iter=  1 NonCon=     1 RMS=8.84D-04 Max=1.07D-02 NDo=     1
 LinEq1:  Iter=  2 NonCon=     1 RMS=4.03D-04 Max=1.29D-02 NDo=     1
 LinEq1:  Iter=  3 NonCon=     1 RMS=1.09D-04 Max=2.39D-03 NDo=     1
 LinEq1:  Iter=  4 NonCon=     1 RMS=2.69D-05 Max=6.37D-04 NDo=     1
 LinEq1:  Iter=  5 NonCon=     1 RMS=6.77D-06 Max=1.03D-04 NDo=     1
 LinEq1:  Iter=  6 NonCon=     1 RMS=2.67D-06 Max=5.72D-05 NDo=     1
 LinEq1:  Iter=  7 NonCon=     1 RMS=8.32D-07 Max=1.52D-05 NDo=     1
 LinEq1:  Iter=  8 NonCon=     1 RMS=1.67D-07 Max=2.33D-06 NDo=     1
 LinEq1:  Iter=  9 NonCon=     1 RMS=3.13D-08 Max=3.73D-07 NDo=     1
 LinEq1:  Iter= 10 NonCon=     1 RMS=6.28D-09 Max=6.75D-08 NDo=     1
 LinEq1:  Iter= 11 NonCon=     1 RMS=1.21D-09 Max=1.63D-08 NDo=     1
 LinEq1:  Iter= 12 NonCon=     1 RMS=5.15D-10 Max=8.14D-09 NDo=     1
 LinEq1:  Iter= 13 NonCon=     1 RMS=1.12D-10 Max=1.46D-09 NDo=     1
 LinEq1:  Iter= 14 NonCon=     0 RMS=2.09D-11 Max=2.11D-10 NDo=     1
 Linear equations converged to 1.000D-10 1.000D-09 after    14 iterations.
 End of Minotr F.D. properties file   721 does not exist.
 End of Minotr F.D. properties file   722 does not exist.
 End of Minotr F.D. properties file   788 does not exist.

 **********************************************************************

            Population analysis using the CC Density.

 **********************************************************************

 Alpha  occ. eigenvalues --  -91.97613 -26.39051 -26.38966 -11.51899  -8.97975
 Alpha  occ. eigenvalues --   -6.66098  -6.65935  -6.65814  -1.75538  -1.68122
 Alpha  occ. eigenvalues --   -1.09884  -0.92971  -0.84410  -0.80259  -0.77541
 Alpha  occ. eigenvalues --   -0.72175  -0.70145  -0.59708  -0.43113  -0.40181
 Alpha virt. eigenvalues --    0.05279   0.05518   0.06433   0.08647   0.08685
 Alpha virt. eigenvalues --    0.10318   0.10819   0.12189   0.19610   0.20459
 Alpha virt. eigenvalues --    0.20849   0.23045   0.23428   0.26352   0.27025
 Alpha virt. eigenvalues --    0.27356   0.28387   0.29092   0.29408   0.29789
 Alpha virt. eigenvalues --    0.35826   0.36513   0.41254   0.41888   0.44975
 Alpha virt. eigenvalues --    0.46731   0.47980   0.51697   0.51925   0.53069
 Alpha virt. eigenvalues --    0.53137   0.62320   0.63496   0.66027   0.69880
 Alpha virt. eigenvalues --    0.73065   0.73518   0.74721   0.76548   0.77699
 Alpha virt. eigenvalues --    0.85045   0.85514   0.88436   0.89876   0.90686
 Alpha virt. eigenvalues --    0.96075   0.96112   1.02107   1.03762   1.07768
 Alpha virt. eigenvalues --    1.09118   1.10837   1.11272   1.12404   1.14889
 Alpha virt. eigenvalues --    1.14989   1.17536   1.19648   1.23182   1.25755
 Alpha virt. eigenvalues --    1.28115   1.32661   1.34908   1.39892   1.42780
 Alpha virt. eigenvalues --    1.44577   1.49610   1.53745   1.57402   1.65001
 Alpha virt. eigenvalues --    1.68044   1.70388   1.70796   1.71636   1.73820
 Alpha virt. eigenvalues --    1.78917   1.99683   2.03590   2.06752   2.07986
 Alpha virt. eigenvalues --    2.11676   2.26994   2.30620   2.32037   2.36355
 Alpha virt. eigenvalues --    2.41560   2.43358   2.43590   2.45907   2.51820
 Alpha virt. eigenvalues --    2.54846   2.58828   2.66476   2.75331   2.80293
 Alpha virt. eigenvalues --    2.84152   2.86226   2.90150   2.92769   2.93788
 Alpha virt. eigenvalues --    2.96813   2.99985   3.00195   3.06922   3.14425
 Alpha virt. eigenvalues --    3.15148   3.17781   3.19213   3.20767   3.32414
 Alpha virt. eigenvalues --    3.32943   3.37561   3.39754   3.45765   3.51480
 Alpha virt. eigenvalues --    3.55004   3.56042   3.63145   3.72884   3.73907
 Alpha virt. eigenvalues --    3.75268   3.75751   3.92810   4.00692   4.11266
 Alpha virt. eigenvalues --    4.19052   4.21577   4.26398   4.43270   4.55371
 Alpha virt. eigenvalues --    4.61058   4.70320   4.74834   4.85962   5.45566
 Alpha virt. eigenvalues --    5.51302   5.69178   5.88516   6.23907   6.59702
 Alpha virt. eigenvalues --    7.20594   8.78886   8.80632   8.86003   8.86925
 Alpha virt. eigenvalues --    8.99745   9.00214   9.10514   9.12514   9.19685
 Alpha virt. eigenvalues --    9.26586   9.27254   9.29487   9.33461   9.33987
 Alpha virt. eigenvalues --    9.36308   9.36568   9.39916   9.45569   9.54837
 Alpha virt. eigenvalues --    9.56214   9.59040   9.71915   9.84817   9.86776
 Alpha virt. eigenvalues --   12.04493  15.07571  16.12368
          Condensed to atoms (all electrons):
               1          2          3          4
     1  C    5.194510   0.242982   0.110571   0.110492
     2  S    0.242982  15.949613  -0.067180  -0.065930
     3  F    0.110571  -0.067180   9.179251  -0.081392
     4  F    0.110492  -0.065930  -0.081392   9.177541
 Mulliken charges:
               1
     1  C    0.341445
     2  S   -0.059485
     3  F   -0.141250
     4  F   -0.140710
 Sum of Mulliken charges =  -0.00000
 Mulliken charges with hydrogens summed into heavy atoms:
               1
     1  C    0.341445
     2  S   -0.059485
     3  F   -0.141250
     4  F   -0.140710
 Electronic spatial extent (au):  <R**2>=            315.2061
 Charge=             -0.0000 electrons
 Dipole moment (field-independent basis, Debye):
    X=              0.0000    Y=              0.0053    Z=             -0.2245  Tot=              0.2245
 Quadrupole moment (field-independent basis, Debye-Ang):
   XX=            -27.2811   YY=            -30.1542   ZZ=            -27.9401
   XY=              0.0000   XZ=              0.0000   YZ=             -0.0297
 Traceless Quadrupole moment (field-independent basis, Debye-Ang):
   XX=              1.1774   YY=             -1.6957   ZZ=              0.5183
   XY=              0.0000   XZ=              0.0000   YZ=             -0.0297
 Octapole moment (field-independent basis, Debye-Ang**2):
  XXX=              0.0000  YYY=              0.4236  ZZZ=              8.7833  XYY=              0.0000
  XXY=              0.1258  XXZ=              0.7521  XZZ=              0.0000  YZZ=              0.0816
  YYZ=              0.8026  XYZ=              0.0000
 Hexadecapole moment (field-independent basis, Debye-Ang**3):
 XXXX=            -28.1330 YYYY=            -96.1753 ZZZZ=           -215.0444 XXXY=              0.0000
 XXXZ=             -0.0000 YYYX=              0.0000 YYYZ=              0.4163 ZZZX=             -0.0000
 ZZZY=              0.2298 XXYY=            -20.7189 XXZZ=            -40.5193 YYZZ=            -55.6372
 XXYZ=              0.1200 YYXZ=              0.0000 ZZXY=             -0.0000
 N-N= 1.543920180651D+02 E-N=-1.820104458837D+03  KE= 6.349952732719D+02
 There are a total of       92046 grid points.
 ElSum from          density=       40.0000001774
 ElSum from atomic densities=       39.9999997685

 Hirshfeld populations at iteration   1 (CX, CA, CB, DipXYZ):
               1          2          3          4          5          6
     1  C    0.000001   2.882888   2.882888   0.000000   0.001948  -0.240492
     2  S    0.000009   8.048043   8.048043   0.000000  -0.003355   0.186773
     3  F    0.000005   4.534747   4.534747   0.000000   0.035496   0.026847
     4  F    0.000005   4.534321   4.534321  -0.000000  -0.035514   0.026529
       Tot   0.000019  20.000000  20.000000   0.000000  -0.001425  -0.000344

 Dip from Atomic Chgs              0.000000   0.003516  -0.087962
         Total Dipole              0.000000   0.002091  -0.088306

 Hirshfeld charges, spin densities, dipoles, and CM5 charges using IRadAn=      5:
              Q-H        S-H        Dx         Dy         Dz        Q-CM5   
     1  C    0.234223   0.000000   0.000000   0.001948  -0.240492   0.293788
     2  S   -0.096086   0.000000   0.000000  -0.003355   0.186773  -0.113983
     3  F   -0.069495   0.000000   0.000000   0.035496   0.026847  -0.090335
     4  F   -0.068642   0.000000  -0.000000  -0.035514   0.026529  -0.089470
       Tot  -0.000000   0.000000   0.000000  -0.001425  -0.000344  -0.000000
 Hirshfeld charges with hydrogens summed into heavy atoms:
              Q-H       Q-CM5   
     1  C    0.234223   0.293788
     2  S   -0.096086  -0.113983
     3  F   -0.069495  -0.090335
     4  F   -0.068642  -0.089470
 
 EQQ= 0.000000000000E+00 EQD= 0.000000000000E+00 EDD=-0.240037969061E-02
 EQQ+QD+DD=-0.240037969061E-02
 
 Breneman (CHELPG) radii used.
 Generate Potential Derived Charges using the Breneman model, NDens= 1.
 Grid spacing= 0.300 Box extension= 2.800
 NStep X,Y,Z=   20     27     28   Total possible points=       15120
 Number of Points to Fit=    4650

 **********************************************************************

            Electrostatic Properties Using The CC Density.

 **********************************************************************

       Atomic Center    1 is at   0.000000  0.000000 -0.520349
       Atomic Center    2 is at   0.000000 -0.010000  1.078525
       Atomic Center    3 is at   0.000000 -1.055221 -1.295538
       Atomic Center    4 is at   0.000000  1.055221 -1.295538
    4650 points will be used for fitting atomic charges
 Fitting point charges to electrostatic potential
 The dipole moment will be constrained to the correct value
 Charges from ESP fit, RMS=   0.00620 RRMS=   0.72824:
 ESP charges:
               1
     1  C    0.408762
     2  S   -0.153154
     3  F   -0.127602
     4  F   -0.128005
 Sum of ESP charges =  -0.00000
 ESP charges with hydrogens summed into heavy atoms:
               1
     1  C    0.408762
     2  S   -0.153154
     3  F   -0.127602
     4  F   -0.128005
 Charge=  -0.00000 Dipole=     0.0000     0.0053    -0.2245 Tot=     0.2245
 -----------------------------------------------------------------

              Electrostatic Properties (Atomic Units)

 -----------------------------------------------------------------
    Center     Electric         -------- Electric Field --------
               Potential          X             Y             Z
 -----------------------------------------------------------------
    1 Atom    -14.498935
    2 Atom    -59.212439
    3 Atom    -26.496375
    4 Atom    -26.495600
 -----------------------------------------------------------------
 ******************************Gaussian NBO Version 3.1******************************
             N A T U R A L   A T O M I C   O R B I T A L   A N D
          N A T U R A L   B O N D   O R B I T A L   A N A L Y S I S
 ******************************Gaussian NBO Version 3.1******************************
       /RESON  / : Allow strongly delocalized NBO set

 Analyzing the QCI/CC density

 Job title: f2cs-wavefunction                                               

 Storage needed:    106946 in NPA (2147483536 available)
 GSVD:  LWork=        5094 too small for GESVD, short by       54317 words or       54317 for optimal perf.


 NATURAL POPULATIONS:  Natural atomic orbital occupancies 
                                                          
   NAO  Atom  No  lang   Type(AO)    Occupancy
 --------------------------------------------
     1    C    1  S      Cor( 1S)     1.99946
     2    C    1  S      Val( 2S)     0.92931
     3    C    1  S      Ryd( 3S)     0.00604
     4    C    1  S      Ryd( 4S)     0.00026
     5    C    1  S      Ryd( 5S)     0.00006
     6    C    1  px     Val( 2p)     0.86071
     7    C    1  px     Ryd( 3p)     0.00616
     8    C    1  px     Ryd( 4p)     0.00050
     9    C    1  px     Ryd( 5p)     0.00045
    10    C    1  py     Val( 2p)     0.62332
    11    C    1  py     Ryd( 3p)     0.02263
    12    C    1  py     Ryd( 4p)     0.00057
    13    C    1  py     Ryd( 5p)     0.00032
    14    C    1  pz     Val( 2p)     0.86774
    15    C    1  pz     Ryd( 3p)     0.01826
    16    C    1  pz     Ryd( 4p)     0.00062
    17    C    1  pz     Ryd( 5p)     0.00040
    18    C    1  dxy    Ryd( 3d)     0.00784
    19    C    1  dxy    Ryd( 4d)     0.00053
    20    C    1  dxy    Ryd( 5d)     0.00025
    21    C    1  dxz    Ryd( 3d)     0.01454
    22    C    1  dxz    Ryd( 4d)     0.00048
    23    C    1  dxz    Ryd( 5d)     0.00037
    24    C    1  dyz    Ryd( 3d)     0.01132
    25    C    1  dyz    Ryd( 4d)     0.00041
    26    C    1  dyz    Ryd( 5d)     0.00019
    27    C    1  dx2y2  Ryd( 3d)     0.00605
    28    C    1  dx2y2  Ryd( 4d)     0.00045
    29    C    1  dx2y2  Ryd( 5d)     0.00043
    30    C    1  dz2    Ryd( 3d)     0.01094
    31    C    1  dz2    Ryd( 4d)     0.00059
    32    C    1  dz2    Ryd( 5d)     0.00022
    33    C    1  f(0)   Ryd( 4f)     0.00305
    34    C    1  f(0)   Ryd( 5f)     0.00029
    35    C    1  f(C1)  Ryd( 4f)     0.00148
    36    C    1  f(C1)  Ryd( 5f)     0.00042
    37    C    1  f(S1)  Ryd( 4f)     0.00244
    38    C    1  f(S1)  Ryd( 5f)     0.00066
    39    C    1  f(C2)  Ryd( 4f)     0.00221
    40    C    1  f(C2)  Ryd( 5f)     0.00028
    41    C    1  f(S2)  Ryd( 4f)     0.00219
    42    C    1  f(S2)  Ryd( 5f)     0.00036
    43    C    1  f(C3)  Ryd( 4f)     0.00122
    44    C    1  f(C3)  Ryd( 5f)     0.00035
    45    C    1  f(S3)  Ryd( 4f)     0.00110
    46    C    1  f(S3)  Ryd( 5f)     0.00023

    47    S    2  S      Cor( 1S)     2.00000
    48    S    2  S      Cor( 2S)     1.99876
    49    S    2  S      Val( 3S)     1.75700
    50    S    2  S      Ryd( 4S)     0.00665
    51    S    2  S      Ryd( 5S)     0.00026
    52    S    2  S      Ryd( 6S)     0.00019
    53    S    2  px     Cor( 2p)     1.99990
    54    S    2  px     Val( 3p)     1.28830
    55    S    2  px     Ryd( 4p)     0.00520
    56    S    2  px     Ryd( 5p)     0.00030
    57    S    2  px     Ryd( 6p)     0.00007
    58    S    2  py     Cor( 2p)     2.00001
    59    S    2  py     Val( 3p)     1.79676
    60    S    2  py     Ryd( 4p)     0.00856
    61    S    2  py     Ryd( 5p)     0.00051
    62    S    2  py     Ryd( 6p)     0.00010
    63    S    2  pz     Cor( 2p)     1.99964
    64    S    2  pz     Val( 3p)     1.02044
    65    S    2  pz     Ryd( 4p)     0.00504
    66    S    2  pz     Ryd( 5p)     0.00041
    67    S    2  pz     Ryd( 6p)     0.00009
    68    S    2  dxy    Ryd( 3d)     0.01639
    69    S    2  dxy    Ryd( 4d)     0.00052
    70    S    2  dxy    Ryd( 5d)     0.00009
    71    S    2  dxz    Ryd( 3d)     0.01939
    72    S    2  dxz    Ryd( 4d)     0.00048
    73    S    2  dxz    Ryd( 5d)     0.00017
    74    S    2  dyz    Ryd( 3d)     0.01484
    75    S    2  dyz    Ryd( 4d)     0.00050
    76    S    2  dyz    Ryd( 5d)     0.00024
    77    S    2  dx2y2  Ryd( 3d)     0.01618
    78    S    2  dx2y2  Ryd( 4d)     0.00053
    79    S    2  dx2y2  Ryd( 5d)     0.00008
    80    S    2  dz2    Ryd( 3d)     0.02157
    81    S    2  dz2    Ryd( 4d)     0.00043
    82    S    2  dz2    Ryd( 5d)     0.00015
    83    S    2  f(0)   Ryd( 4f)     0.00141
    84    S    2  f(0)   Ryd( 5f)     0.00018
    85    S    2  f(C1)  Ryd( 4f)     0.00095
    86    S    2  f(C1)  Ryd( 5f)     0.00012
    87    S    2  f(S1)  Ryd( 4f)     0.00105
    88    S    2  f(S1)  Ryd( 5f)     0.00015
    89    S    2  f(C2)  Ryd( 4f)     0.00095
    90    S    2  f(C2)  Ryd( 5f)     0.00012
    91    S    2  f(S2)  Ryd( 4f)     0.00094
    92    S    2  f(S2)  Ryd( 5f)     0.00012
    93    S    2  f(C3)  Ryd( 4f)     0.00134
    94    S    2  f(C3)  Ryd( 5f)     0.00012
    95    S    2  f(S3)  Ryd( 4f)     0.00135
    96    S    2  f(S3)  Ryd( 5f)     0.00012

    97    F    3  S      Cor( 1S)     1.99979
    98    F    3  S      Val( 2S)     1.82805
    99    F    3  S      Ryd( 3S)     0.00645
   100    F    3  S      Ryd( 4S)     0.00033
   101    F    3  S      Ryd( 5S)     0.00027
   102    F    3  px     Val( 2p)     1.87021
   103    F    3  px     Ryd( 3p)     0.01127
   104    F    3  px     Ryd( 4p)     0.00081
   105    F    3  px     Ryd( 5p)     0.00015
   106    F    3  py     Val( 2p)     1.71442
   107    F    3  py     Ryd( 3p)     0.00744
   108    F    3  py     Ryd( 4p)     0.00058
   109    F    3  py     Ryd( 5p)     0.00018
   110    F    3  pz     Val( 2p)     1.80788
   111    F    3  pz     Ryd( 3p)     0.00977
   112    F    3  pz     Ryd( 4p)     0.00073
   113    F    3  pz     Ryd( 5p)     0.00027
   114    F    3  dxy    Ryd( 3d)     0.00673
   115    F    3  dxy    Ryd( 4d)     0.00044
   116    F    3  dxy    Ryd( 5d)     0.00008
   117    F    3  dxz    Ryd( 3d)     0.00568
   118    F    3  dxz    Ryd( 4d)     0.00046
   119    F    3  dxz    Ryd( 5d)     0.00008
   120    F    3  dyz    Ryd( 3d)     0.00971
   121    F    3  dyz    Ryd( 4d)     0.00053
   122    F    3  dyz    Ryd( 5d)     0.00010
   123    F    3  dx2y2  Ryd( 3d)     0.00751
   124    F    3  dx2y2  Ryd( 4d)     0.00052
   125    F    3  dx2y2  Ryd( 5d)     0.00013
   126    F    3  dz2    Ryd( 3d)     0.00636
   127    F    3  dz2    Ryd( 4d)     0.00045
   128    F    3  dz2    Ryd( 5d)     0.00011
   129    F    3  f(0)   Ryd( 4f)     0.00053
   130    F    3  f(0)   Ryd( 5f)     0.00010
   131    F    3  f(C1)  Ryd( 4f)     0.00043
   132    F    3  f(C1)  Ryd( 5f)     0.00009
   133    F    3  f(S1)  Ryd( 4f)     0.00066
   134    F    3  f(S1)  Ryd( 5f)     0.00013
   135    F    3  f(C2)  Ryd( 4f)     0.00073
   136    F    3  f(C2)  Ryd( 5f)     0.00012
   137    F    3  f(S2)  Ryd( 4f)     0.00055
   138    F    3  f(S2)  Ryd( 5f)     0.00011
   139    F    3  f(C3)  Ryd( 4f)     0.00052
   140    F    3  f(C3)  Ryd( 5f)     0.00011
   141    F    3  f(S3)  Ryd( 4f)     0.00057
   142    F    3  f(S3)  Ryd( 5f)     0.00012

   143    F    4  S      Cor( 1S)     1.99979
   144    F    4  S      Val( 2S)     1.82787
   145    F    4  S      Ryd( 3S)     0.00645
   146    F    4  S      Ryd( 4S)     0.00033
   147    F    4  S      Ryd( 5S)     0.00027
   148    F    4  px     Val( 2p)     1.87021
   149    F    4  px     Ryd( 3p)     0.01125
   150    F    4  px     Ryd( 4p)     0.00081
   151    F    4  px     Ryd( 5p)     0.00015
   152    F    4  py     Val( 2p)     1.71465
   153    F    4  py     Ryd( 3p)     0.00742
   154    F    4  py     Ryd( 4p)     0.00058
   155    F    4  py     Ryd( 5p)     0.00018
   156    F    4  pz     Val( 2p)     1.80702
   157    F    4  pz     Ryd( 3p)     0.00973
   158    F    4  pz     Ryd( 4p)     0.00073
   159    F    4  pz     Ryd( 5p)     0.00027
   160    F    4  dxy    Ryd( 3d)     0.00673
   161    F    4  dxy    Ryd( 4d)     0.00044
   162    F    4  dxy    Ryd( 5d)     0.00008
   163    F    4  dxz    Ryd( 3d)     0.00568
   164    F    4  dxz    Ryd( 4d)     0.00046
   165    F    4  dxz    Ryd( 5d)     0.00008
   166    F    4  dyz    Ryd( 3d)     0.00972
   167    F    4  dyz    Ryd( 4d)     0.00053
   168    F    4  dyz    Ryd( 5d)     0.00010
   169    F    4  dx2y2  Ryd( 3d)     0.00751
   170    F    4  dx2y2  Ryd( 4d)     0.00052
   171    F    4  dx2y2  Ryd( 5d)     0.00013
   172    F    4  dz2    Ryd( 3d)     0.00636
   173    F    4  dz2    Ryd( 4d)     0.00045
   174    F    4  dz2    Ryd( 5d)     0.00011
   175    F    4  f(0)   Ryd( 4f)     0.00053
   176    F    4  f(0)   Ryd( 5f)     0.00010
   177    F    4  f(C1)  Ryd( 4f)     0.00043
   178    F    4  f(C1)  Ryd( 5f)     0.00009
   179    F    4  f(S1)  Ryd( 4f)     0.00066
   180    F    4  f(S1)  Ryd( 5f)     0.00013
   181    F    4  f(C2)  Ryd( 4f)     0.00073
   182    F    4  f(C2)  Ryd( 5f)     0.00012
   183    F    4  f(S2)  Ryd( 4f)     0.00055
   184    F    4  f(S2)  Ryd( 5f)     0.00011
   185    F    4  f(C3)  Ryd( 4f)     0.00052
   186    F    4  f(C3)  Ryd( 5f)     0.00011
   187    F    4  f(S3)  Ryd( 4f)     0.00057
   188    F    4  f(S3)  Ryd( 5f)     0.00012

 WARNING:  1 low occupancy (<1.9990e) core orbital  found on  S    2


 Summary of Natural Population Analysis:                  
                                                          
                                       Natural Population 
                Natural  -----------------------------------------------
    Atom  No    Charge         Core      Valence    Rydberg      Total
 -----------------------------------------------------------------------
      C    1    0.59229      1.99946     3.28108    0.12716     5.40771
      S    2    0.01132      9.99831     5.86251    0.12786    15.98868
      F    3   -0.30225      1.99979     7.22056    0.08190     9.30225
      F    4   -0.30136      1.99979     7.21974    0.08183     9.30136
 =======================================================================
   * Total *    0.00000     15.99736    23.58389    0.41876    40.00000

                                 Natural Population      
 --------------------------------------------------------
   Core                      15.99736 ( 99.9835% of  16)
   Valence                   23.58389 ( 98.2662% of  24)
   Natural Minimal Basis     39.58124 ( 98.9531% of  40)
   Natural Rydberg Basis      0.41876 (  1.0469% of  40)
 --------------------------------------------------------

    Atom  No          Natural Electron Configuration
 ----------------------------------------------------------------------------
      C    1      [core]2S( 0.93)2p( 2.35)3S( 0.01)3p( 0.05)3d( 0.05)4f( 0.01)
      S    2      [core]3S( 1.76)3p( 4.11)4S( 0.01)3d( 0.09)4p( 0.02)4f( 0.01)
      F    3      [core]2S( 1.83)2p( 5.39)3S( 0.01)3p( 0.03)3d( 0.04)
      F    4      [core]2S( 1.83)2p( 5.39)3S( 0.01)3p( 0.03)3d( 0.04)


 NBO analysis skipped by request.
 Unable to Open any file for archive entry.
 1\1\GINC-TRAPISTA\SP\RQCISD-FC\Aug-CC-pVTZ\C1F2S1\WAGNER\03-Sep-2022\0
 \\# qcisd/aug-cc-pvtz nosymm density=current pop=(chelpg,hirshfeld,npa
 ,dipole)\\f2cs-wavefunction\\0,1\C,0,0.,0.,-0.520349\S,0,0.,-0.01,1.07
 8525\F,0,0.,-1.055221,-1.295538\F,0,0.,1.055221,-1.295538\\Version=EM6
 4L-G16RevC.01\HF=-634.3568609\MP2=-635.1963969\MP3=-635.1997824\MP4D=-
 635.2167081\MP4DQ=-635.1973551\MP4SDQ=-635.2082129\QCISD=-635.2073156\
 RMSD=5.325e-09\Dipole=0.,0.0020907,-0.0883063\Quadrupole=0.8753346,-1.
 2607113,0.3853766,0.,0.,-0.0220456\PG=CS [SG(C1F2S1)]\\@
 The archive entry for this job was punched.


 THOSE WITH THE GOLD MAKE THE RULES.

             -- PETER'S GOLDEN RULE
 Job cpu time:       0 days  6 hours 37 minutes 54.8 seconds.
 Elapsed time:       0 days  0 hours 25 minutes 12.7 seconds.
 File lengths (MBytes):  RWF=  21970 Int=      0 D2E=      0 Chk=      4 Scr=      1
 Normal termination of Gaussian 16 at Sat Sep  3 13:10:08 2022.
