 Entering Gaussian System, Link 0=/home/wagner/chemistry/gaussian/g16/g16
 Input=GAUSSIAN.com
 Output=GAUSSIAN.log
 Initial command:
 /home/wagner/chemistry/gaussian/g16/l1.exe "/home/wagner/chemistry/gaussian/work/Gau-25642.inp" -scrdir="/home/wagner/chemistry/gaussian/work/"
 Entering Link 1 = /home/wagner/chemistry/gaussian/g16/l1.exe PID=     25644.
  
 Copyright (c) 1988-2019, Gaussian, Inc.  All Rights Reserved.
  
 This is part of the Gaussian(R) 16 program.  It is based on
 the Gaussian(R) 09 system (copyright 2009, Gaussian, Inc.),
 the Gaussian(R) 03 system (copyright 2003, Gaussian, Inc.),
 the Gaussian(R) 98 system (copyright 1998, Gaussian, Inc.),
 the Gaussian(R) 94 system (copyright 1995, Gaussian, Inc.),
 the Gaussian 92(TM) system (copyright 1992, Gaussian, Inc.),
 the Gaussian 90(TM) system (copyright 1990, Gaussian, Inc.),
 the Gaussian 88(TM) system (copyright 1988, Gaussian, Inc.),
 the Gaussian 86(TM) system (copyright 1986, Carnegie Mellon
 University), and the Gaussian 82(TM) system (copyright 1983,
 Carnegie Mellon University). Gaussian is a federally registered
 trademark of Gaussian, Inc.
  
 This software contains proprietary and confidential information,
 including trade secrets, belonging to Gaussian, Inc.
  
 This software is provided under written license and may be
 used, copied, transmitted, or stored only in accord with that
 written license.
  
 The following legend is applicable only to US Government
 contracts under FAR:
  
                    RESTRICTED RIGHTS LEGEND
  
 Use, reproduction and disclosure by the US Government is
 subject to restrictions as set forth in subparagraphs (a)
 and (c) of the Commercial Computer Software - Restricted
 Rights clause in FAR 52.227-19.
  
 Gaussian, Inc.
 340 Quinnipiac St., Bldg. 40, Wallingford CT 06492
  
  
 ---------------------------------------------------------------
 Warning -- This program may not be used in any manner that
 competes with the business of Gaussian, Inc. or will provide
 assistance to any competitor of Gaussian, Inc.  The licensee
 of this program is prohibited from giving any competitor of
 Gaussian, Inc. access to this program.  By using this program,
 the user acknowledges that Gaussian, Inc. is engaged in the
 business of creating and licensing software in the field of
 computational chemistry and represents and warrants to the
 licensee that it is not a competitor of Gaussian, Inc. and that
 it will not use this program in any manner prohibited above.
 ---------------------------------------------------------------
  

 Cite this work as:
 Gaussian 16, Revision C.01,
 M. J. Frisch, G. W. Trucks, H. B. Schlegel, G. E. Scuseria, 
 M. A. Robb, J. R. Cheeseman, G. Scalmani, V. Barone, 
 G. A. Petersson, H. Nakatsuji, X. Li, M. Caricato, A. V. Marenich, 
 J. Bloino, B. G. Janesko, R. Gomperts, B. Mennucci, H. P. Hratchian, 
 J. V. Ortiz, A. F. Izmaylov, J. L. Sonnenberg, D. Williams-Young, 
 F. Ding, F. Lipparini, F. Egidi, J. Goings, B. Peng, A. Petrone, 
 T. Henderson, D. Ranasinghe, V. G. Zakrzewski, J. Gao, N. Rega, 
 G. Zheng, W. Liang, M. Hada, M. Ehara, K. Toyota, R. Fukuda, 
 J. Hasegawa, M. Ishida, T. Nakajima, Y. Honda, O. Kitao, H. Nakai, 
 T. Vreven, K. Throssell, J. A. Montgomery, Jr., J. E. Peralta, 
 F. Ogliaro, M. J. Bearpark, J. J. Heyd, E. N. Brothers, K. N. Kudin, 
 V. N. Staroverov, T. A. Keith, R. Kobayashi, J. Normand, 
 K. Raghavachari, A. P. Rendell, J. C. Burant, S. S. Iyengar, 
 J. Tomasi, M. Cossi, J. M. Millam, M. Klene, C. Adamo, R. Cammi, 
 J. W. Ochterski, R. L. Martin, K. Morokuma, O. Farkas, 
 J. B. Foresman, and D. J. Fox, Gaussian, Inc., Wallingford CT, 2019.
 
 ******************************************
 Gaussian 16:  EM64L-G16RevC.01  3-Jul-2019
                 3-Sep-2022 
 ******************************************
 %nproc=16
 Will use up to   16 processors via shared memory.
 %mem=16GB
 ----------------------------------------------------------------------
 # qcisd/aug-cc-pvtz nosymm density=current pop=(chelpg,hirshfeld,npa,d
 ipole)
 ----------------------------------------------------------------------
 1/30=1,38=1,172=1/1;
 2/12=2,15=1,17=6,18=5,40=1/2;
 3/5=16,6=1,7=10,11=9,25=1,30=1,71=1/1,2,3;
 4//1;
 5/5=2,38=5/2;
 8/6=4,9=120000,10=1/1,4;
 9/5=8,15=1/13;
 11/28=-7,31=1,32=3,42=3/11;
 10/5=6,13=10,31=1/2;
 6/7=2,8=2,9=2,10=2,15=24,20=3,22=-1,40=-1,79=1/1,2,7;
 99/5=1,9=1/99;
 -----------------
 f2cs-wavefunction
 -----------------
 Symbolic Z-matrix:
 Charge =  0 Multiplicity = 1
 C                     0.        0.       -0.52035 
 S                     0.        0.        1.07852 
 F                     0.       -1.05522  -1.29554 
 F                     0.        1.05522  -1.30554 
 
                          Input orientation:                          
 ---------------------------------------------------------------------
 Center     Atomic      Atomic             Coordinates (Angstroms)
 Number     Number       Type             X           Y           Z
 ---------------------------------------------------------------------
      1          6           0        0.000000    0.000000   -0.520349
      2         16           0        0.000000    0.000000    1.078525
      3          9           0        0.000000   -1.055221   -1.295538
      4          9           0        0.000000    1.055221   -1.305538
 ---------------------------------------------------------------------
                    Distance matrix (angstroms):
                    1          2          3          4
     1  C    0.000000
     2  S    1.598874   0.000000
     3  F    1.309355   2.598012   0.000000
     4  F    1.315300   2.607153   2.110466   0.000000
 Symmetry turned off by external request.
 Stoichiometry    CF2S
 Framework group  CS[SG(CF2S)]
 Deg. of freedom     5
 Full point group                 CS      NOp   2
 Rotational constants (GHZ):          11.9451195           5.0926250           3.5704265
 Standard basis: Aug-CC-pVTZ (5D, 7F)
   188 basis functions,   330 primitive gaussians,   224 cartesian basis functions
    20 alpha electrons       20 beta electrons
       nuclear repulsion energy       154.1911481032 Hartrees.
 NAtoms=    4 NActive=    4 NUniq=    4 SFac= 1.00D+00 NAtFMM=   60 NAOKFM=F Big=F
 Integral buffers will be    131072 words long.
 Raffenetti 1 integral format.
 Two-electron integral symmetry is turned off.
 One-electron integrals computed using PRISM.
 NBasis=   188 RedAO= T EigKep=  9.81D-05  NBF=   188
 NBsUse=   188 1.00D-06 EigRej= -1.00D+00 NBFU=   188
 ExpMin= 3.51D-02 ExpMax= 3.74D+05 ExpMxC= 1.18D+03 IAcc=3 IRadAn=         5 AccDes= 0.00D+00
 Harris functional with IExCor=  205 and IRadAn=       5 diagonalized for initial guess.
 HarFok:  IExCor=  205 AccDes= 0.00D+00 IRadAn=         5 IDoV= 1 UseB2=F ITyADJ=14
 ICtDFT=  3500011 ScaDFX=  1.000000  1.000000  1.000000  1.000000
 FoFCou: FMM=F IPFlag=           0 FMFlag=      100000 FMFlg1=           0
         NFxFlg=           0 DoJE=T BraDBF=F KetDBF=T FulRan=T
         wScrn=  0.000000 ICntrl=       500 IOpCl=  0 I1Cent=   200000004 NGrid=           0
         NMat0=    1 NMatS0=      1 NMatT0=    0 NMatD0=    1 NMtDS0=    0 NMtDT0=    0
 Symmetry not used in FoFCou.
 Keep R1 ints in memory in canonical form, NReq=165820931.
 Requested convergence on RMS density matrix=1.00D-08 within 128 cycles.
 Requested convergence on MAX density matrix=1.00D-06.
 Requested convergence on             energy=1.00D-06.
 No special actions if energy rises.
 SCF Done:  E(RHF) =  -634.356478561     A.U. after   12 cycles
            NFock= 12  Conv=0.55D-08     -V/T= 2.0006
 ExpMin= 3.51D-02 ExpMax= 3.74D+05 ExpMxC= 1.18D+03 IAcc=3 IRadAn=         5 AccDes= 0.00D+00
 HarFok:  IExCor=  205 AccDes= 0.00D+00 IRadAn=         5 IDoV=-2 UseB2=F ITyADJ=14
 ICtDFT= 12500011 ScaDFX=  1.000000  1.000000  1.000000  1.000000
 Range of M.O.s used for correlation:     9   188
 NBasis=   188 NAE=    20 NBE=    20 NFC=     8 NFV=     0
 NROrb=    180 NOA=    12 NOB=    12 NVA=   168 NVB=   168

 **** Warning!!: The largest alpha MO coefficient is  0.28279374D+02

 Semi-Direct transformation.
 ModeAB=           2 MOrb=            12 LenV=    2146475577
 LASXX=     33405819 LTotXX=    33405819 LenRXX=    33405819
 LTotAB=    33954012 MaxLAS=    54432000 LenRXY=    54432000
 NonZer=    66811638 LenScr=   100987392 LnRSAI=           0
 LnScr1=           0 LExtra=           0 Total=    188825211
 MaxDsk=          -1 SrtSym=           F ITran=            4
 JobTyp=0 Pass  1:  I=   1 to  12.
 (rs|ai) integrals will be sorted in core.
 Spin components of T(2) and E(2):
     alpha-alpha T2 =       0.3019417410D-01 E2=     -0.1104557509D+00
     alpha-beta  T2 =       0.1601039484D+00 E2=     -0.6190444913D+00
     beta-beta   T2 =       0.3019417410D-01 E2=     -0.1104557509D+00
 ANorm=    0.1104758931D+01
 E2 =    -0.8399559932D+00 EUMP2 =    -0.63519643455371D+03
 Keep R2 and R3 ints in memory in canonical form, NReq=323654004.
 CIDS: In Core Option IDoMem=           1.
 Iterations=  50 Convergence= 0.100D-07
 Produce multiple copies of IABC intergrals
 Iteration Nr.   1
 **********************
 DD1Dir will call FoFMem   1 times, MxPair=       156
 NAB=    78 NAA=     0 NBB=     0.
 MP4(R+Q)=  0.19390985D-01
 E3=       -0.32512429D-02        EUMP3=      -0.63519968580D+03
 E4(DQ)=    0.24041478D-02        UMP4(DQ)=   -0.63519728165D+03
 E4(SDQ)=  -0.85111062D-02        UMP4(SDQ)=  -0.63520819690D+03
 DE(Corr)= -0.82381625     E(Corr)=     -635.18029481    
 NORM(A)=   0.11039920D+01
 Iteration Nr.   2
 **********************
 DD1Dir will call FoFMem   1 times, MxPair=       156
 NAB=    78 NAA=     0 NBB=     0.
 DE(Corr)= -0.84961441     E(CORR)=     -635.20609297     Delta=-2.58D-02
 NORM(A)=   0.11129582D+01
 Iteration Nr.   3
 **********************
 DD1Dir will call FoFMem   1 times, MxPair=       156
 NAB=    78 NAA=     0 NBB=     0.
 DE(Corr)= -0.84791368     E(CORR)=     -635.20439224     Delta= 1.70D-03
 NORM(A)=   0.11158193D+01
 Iteration Nr.   4
 **********************
 DD1Dir will call FoFMem   1 times, MxPair=       156
 NAB=    78 NAA=     0 NBB=     0.
 DE(Corr)= -0.85046115     E(CORR)=     -635.20693971     Delta=-2.55D-03
 NORM(A)=   0.11169370D+01
 Iteration Nr.   5
 **********************
 DD1Dir will call FoFMem   1 times, MxPair=       156
 NAB=    78 NAA=     0 NBB=     0.
 DE(Corr)= -0.85076482     E(CORR)=     -635.20724338     Delta=-3.04D-04
 NORM(A)=   0.11172648D+01
 Iteration Nr.   6
 **********************
 DD1Dir will call FoFMem   1 times, MxPair=       156
 NAB=    78 NAA=     0 NBB=     0.
 DE(Corr)= -0.85080465     E(CORR)=     -635.20728321     Delta=-3.98D-05
 NORM(A)=   0.11173138D+01
 Iteration Nr.   7
 **********************
 DD1Dir will call FoFMem   1 times, MxPair=       156
 NAB=    78 NAA=     0 NBB=     0.
 DE(Corr)= -0.85080900     E(CORR)=     -635.20728756     Delta=-4.35D-06
 NORM(A)=   0.11173132D+01
 Iteration Nr.   8
 **********************
 DD1Dir will call FoFMem   1 times, MxPair=       156
 NAB=    78 NAA=     0 NBB=     0.
 DE(Corr)= -0.85080776     E(CORR)=     -635.20728632     Delta= 1.24D-06
 NORM(A)=   0.11173183D+01
 Iteration Nr.   9
 **********************
 DD1Dir will call FoFMem   1 times, MxPair=       156
 NAB=    78 NAA=     0 NBB=     0.
 DE(Corr)= -0.85080733     E(CORR)=     -635.20728589     Delta= 4.30D-07
 NORM(A)=   0.11173183D+01
 Iteration Nr.  10
 **********************
 DD1Dir will call FoFMem   1 times, MxPair=       156
 NAB=    78 NAA=     0 NBB=     0.
 DE(Corr)= -0.85080751     E(CORR)=     -635.20728607     Delta=-1.78D-07
 NORM(A)=   0.11173198D+01
 Iteration Nr.  11
 **********************
 DD1Dir will call FoFMem   1 times, MxPair=       156
 NAB=    78 NAA=     0 NBB=     0.
 DE(Corr)= -0.85080815     E(CORR)=     -635.20728671     Delta=-6.42D-07
 NORM(A)=   0.11173211D+01
 Iteration Nr.  12
 **********************
 DD1Dir will call FoFMem   1 times, MxPair=       156
 NAB=    78 NAA=     0 NBB=     0.
 DE(Corr)= -0.85080841     E(CORR)=     -635.20728697     Delta=-2.62D-07
 NORM(A)=   0.11173218D+01
 Iteration Nr.  13
 **********************
 DD1Dir will call FoFMem   1 times, MxPair=       156
 NAB=    78 NAA=     0 NBB=     0.
 DE(Corr)= -0.85080865     E(CORR)=     -635.20728721     Delta=-2.42D-07
 NORM(A)=   0.11173223D+01
 Iteration Nr.  14
 **********************
 DD1Dir will call FoFMem   1 times, MxPair=       156
 NAB=    78 NAA=     0 NBB=     0.
 DE(Corr)= -0.85080872     E(CORR)=     -635.20728728     Delta=-6.34D-08
 NORM(A)=   0.11173224D+01
 Iteration Nr.  15
 **********************
 DD1Dir will call FoFMem   1 times, MxPair=       156
 NAB=    78 NAA=     0 NBB=     0.
 DE(Corr)= -0.85080876     E(CORR)=     -635.20728732     Delta=-3.84D-08
 NORM(A)=   0.11173225D+01
 Iteration Nr.  16
 **********************
 DD1Dir will call FoFMem   1 times, MxPair=       156
 NAB=    78 NAA=     0 NBB=     0.
 DE(Corr)= -0.85080876     E(CORR)=     -635.20728733     Delta=-9.87D-09
 NORM(A)=   0.11173225D+01
 Wavefunction amplitudes converged. E(Corr)=     -635.20728733    
 Largest amplitude= 8.57D-02

 Z-amplitude iterations

 Iteration Nr.   1
 **********************
 DD1Dir will call FoFMem   1 times, MxPair=       156
 NAB=    78 NAA=     0 NBB=     0.
 DE(Z)= -0.82684925     E(Z)=     -635.18332781     Delta= 2.40D-02
 NORM(A)=   0.11173025D+01
 Iteration Nr.   2
 **********************
 DD1Dir will call FoFMem   1 times, MxPair=       156
 NAB=    78 NAA=     0 NBB=     0.
 DE(Z)= -0.82684921     E(Z)=     -635.18332778     Delta= 3.27D-08
 NORM(A)=   0.11173703D+01
 Iteration Nr.   3
 **********************
 DD1Dir will call FoFMem   1 times, MxPair=       156
 NAB=    78 NAA=     0 NBB=     0.
 DE(Z)= -0.82684999     E(Z)=     -635.18332855     Delta=-7.74D-07
 NORM(A)=   0.11172824D+01
 Iteration Nr.   4
 **********************
 DD1Dir will call FoFMem   1 times, MxPair=       156
 NAB=    78 NAA=     0 NBB=     0.
 DE(Z)= -0.82684874     E(Z)=     -635.18332730     Delta= 1.25D-06
 NORM(A)=   0.11182378D+01
 Iteration Nr.   5
 **********************
 DD1Dir will call FoFMem   1 times, MxPair=       156
 NAB=    78 NAA=     0 NBB=     0.
 DE(Z)= -0.82686465     E(Z)=     -635.18334321     Delta=-1.59D-05
 NORM(A)=   0.11090602D+01
 Iteration Nr.   6
 **********************
 DD1Dir will call FoFMem   1 times, MxPair=       156
 NAB=    78 NAA=     0 NBB=     0.
 DE(Z)= -0.82671205     E(Z)=     -635.18319061     Delta= 1.53D-04
 NORM(A)=   0.11090570D+01
 Iteration Nr.   7
 **********************
 DD1Dir will call FoFMem   1 times, MxPair=       156
 NAB=    78 NAA=     0 NBB=     0.
 DE(Z)= -0.82670898     E(Z)=     -635.18318754     Delta= 3.07D-06
 NORM(A)=   0.11090550D+01
 Iteration Nr.   8
 **********************
 DD1Dir will call FoFMem   1 times, MxPair=       156
 NAB=    78 NAA=     0 NBB=     0.
 DE(Z)= -0.82671069     E(Z)=     -635.18318925     Delta=-1.71D-06
 NORM(A)=   0.11090555D+01
 Iteration Nr.   9
 **********************
 DD1Dir will call FoFMem   1 times, MxPair=       156
 NAB=    78 NAA=     0 NBB=     0.
 DE(Z)= -0.82671055     E(Z)=     -635.18318911     Delta= 1.43D-07
 NORM(A)=   0.11090555D+01
 Iteration Nr.  10
 **********************
 DD1Dir will call FoFMem   1 times, MxPair=       156
 NAB=    78 NAA=     0 NBB=     0.
 DE(Z)= -0.82671050     E(Z)=     -635.18318906     Delta= 5.30D-08
 NORM(A)=   0.11090555D+01
 Iteration Nr.  11
 **********************
 DD1Dir will call FoFMem   1 times, MxPair=       156
 NAB=    78 NAA=     0 NBB=     0.
 DE(Z)= -0.82671062     E(Z)=     -635.18318918     Delta=-1.18D-07
 NORM(A)=   0.11090555D+01
 Iteration Nr.  12
 **********************
 DD1Dir will call FoFMem   1 times, MxPair=       156
 NAB=    78 NAA=     0 NBB=     0.
 DE(Z)= -0.82671055     E(Z)=     -635.18318911     Delta= 6.81D-08
 NORM(A)=   0.11090555D+01
 Iteration Nr.  13
 **********************
 DD1Dir will call FoFMem   1 times, MxPair=       156
 NAB=    78 NAA=     0 NBB=     0.
 DE(Z)= -0.82671057     E(Z)=     -635.18318913     Delta=-2.51D-08
 NORM(A)=   0.11090555D+01
 Iteration Nr.  14
 **********************
 DD1Dir will call FoFMem   1 times, MxPair=       156
 NAB=    78 NAA=     0 NBB=     0.
 DE(Z)= -0.82671057     E(Z)=     -635.18318913     Delta= 7.24D-09
 NORM(A)=   0.11090555D+01
 Z-amplitudes converged.
 Discarding MO integrals.
          Differentiating once with respect to electric field.
                with respect to dipole field.
          Electric field/nuclear overlap derivatives assumed to be zero.
 Keep R1 ints in memory in canonical form, NReq=165824623.
          There are     1 degrees of freedom in the 1st order CPHF.  IDoFFX=0 NUNeed=     1.
 LinEq1:  Iter=  0 NonCon=     1 RMS=2.86D-03 Max=7.78D-02 NDo=     1
 AX will form     1 AO Fock derivatives at one time.
 LinEq1:  Iter=  1 NonCon=     1 RMS=8.88D-04 Max=1.07D-02 NDo=     1
 LinEq1:  Iter=  2 NonCon=     1 RMS=4.05D-04 Max=1.29D-02 NDo=     1
 LinEq1:  Iter=  3 NonCon=     1 RMS=1.09D-04 Max=2.38D-03 NDo=     1
 LinEq1:  Iter=  4 NonCon=     1 RMS=2.67D-05 Max=6.35D-04 NDo=     1
 LinEq1:  Iter=  5 NonCon=     1 RMS=6.78D-06 Max=1.05D-04 NDo=     1
 LinEq1:  Iter=  6 NonCon=     1 RMS=2.69D-06 Max=5.82D-05 NDo=     1
 LinEq1:  Iter=  7 NonCon=     1 RMS=8.41D-07 Max=1.57D-05 NDo=     1
 LinEq1:  Iter=  8 NonCon=     1 RMS=1.69D-07 Max=2.30D-06 NDo=     1
 LinEq1:  Iter=  9 NonCon=     1 RMS=3.26D-08 Max=3.69D-07 NDo=     1
 LinEq1:  Iter= 10 NonCon=     1 RMS=8.75D-09 Max=1.13D-07 NDo=     1
 LinEq1:  Iter= 11 NonCon=     1 RMS=3.75D-09 Max=5.33D-08 NDo=     1
 LinEq1:  Iter= 12 NonCon=     1 RMS=8.45D-10 Max=1.40D-08 NDo=     1
 LinEq1:  Iter= 13 NonCon=     1 RMS=1.17D-10 Max=1.53D-09 NDo=     1
 LinEq1:  Iter= 14 NonCon=     0 RMS=2.16D-11 Max=2.10D-10 NDo=     1
 Linear equations converged to 1.000D-10 1.000D-09 after    14 iterations.
 End of Minotr F.D. properties file   721 does not exist.
 End of Minotr F.D. properties file   722 does not exist.
 End of Minotr F.D. properties file   788 does not exist.

 **********************************************************************

            Population analysis using the CC Density.

 **********************************************************************

 Alpha  occ. eigenvalues --  -91.97717 -26.39000 -26.38855 -11.51942  -8.98073
 Alpha  occ. eigenvalues --   -6.66195  -6.66033  -6.65912  -1.75336  -1.67918
 Alpha  occ. eigenvalues --   -1.09912  -0.92855  -0.84201  -0.80107  -0.77463
 Alpha  occ. eigenvalues --   -0.72062  -0.70006  -0.59789  -0.43190  -0.40259
 Alpha virt. eigenvalues --    0.05209   0.05502   0.06451   0.08657   0.08689
 Alpha virt. eigenvalues --    0.10316   0.10804   0.12167   0.19643   0.20486
 Alpha virt. eigenvalues --    0.20809   0.22989   0.23428   0.26350   0.26929
 Alpha virt. eigenvalues --    0.27365   0.28392   0.29072   0.29377   0.29776
 Alpha virt. eigenvalues --    0.35820   0.36497   0.41322   0.41816   0.44943
 Alpha virt. eigenvalues --    0.46583   0.47937   0.51667   0.51868   0.53000
 Alpha virt. eigenvalues --    0.53121   0.62323   0.63479   0.65975   0.69863
 Alpha virt. eigenvalues --    0.73006   0.73524   0.74680   0.76513   0.77668
 Alpha virt. eigenvalues --    0.85046   0.85474   0.88280   0.89844   0.90760
 Alpha virt. eigenvalues --    0.96054   0.96118   1.02028   1.03865   1.07637
 Alpha virt. eigenvalues --    1.09205   1.10750   1.11277   1.12423   1.14922
 Alpha virt. eigenvalues --    1.15167   1.17499   1.19588   1.23097   1.25637
 Alpha virt. eigenvalues --    1.27903   1.32606   1.34909   1.39976   1.42708
 Alpha virt. eigenvalues --    1.44546   1.49464   1.53727   1.57336   1.64922
 Alpha virt. eigenvalues --    1.67941   1.70387   1.70837   1.72020   1.73743
 Alpha virt. eigenvalues --    1.78459   1.99733   2.03708   2.06660   2.07858
 Alpha virt. eigenvalues --    2.11708   2.27108   2.30598   2.31954   2.36265
 Alpha virt. eigenvalues --    2.41440   2.43273   2.43526   2.45721   2.51760
 Alpha virt. eigenvalues --    2.54855   2.58615   2.66200   2.75414   2.80323
 Alpha virt. eigenvalues --    2.84262   2.86121   2.90231   2.92852   2.93555
 Alpha virt. eigenvalues --    2.97028   2.99961   3.00312   3.06621   3.14049
 Alpha virt. eigenvalues --    3.15193   3.17740   3.19055   3.20828   3.32412
 Alpha virt. eigenvalues --    3.32649   3.37698   3.39610   3.45674   3.51656
 Alpha virt. eigenvalues --    3.54983   3.55895   3.62868   3.72580   3.73444
 Alpha virt. eigenvalues --    3.75216   3.75331   3.92629   4.00528   4.10952
 Alpha virt. eigenvalues --    4.18542   4.21132   4.26173   4.43109   4.55162
 Alpha virt. eigenvalues --    4.60217   4.69926   4.75074   4.85633   5.45218
 Alpha virt. eigenvalues --    5.50889   5.69137   5.87511   6.23986   6.59494
 Alpha virt. eigenvalues --    7.19626   8.78805   8.80606   8.86024   8.86943
 Alpha virt. eigenvalues --    8.99806   9.00216   9.10383   9.12410   9.19823
 Alpha virt. eigenvalues --    9.26653   9.27149   9.29569   9.33678   9.34084
 Alpha virt. eigenvalues --    9.36384   9.36585   9.39926   9.45308   9.54699
 Alpha virt. eigenvalues --    9.55863   9.58824   9.71995   9.84771   9.86514
 Alpha virt. eigenvalues --   11.99591  15.08669  16.08849
          Condensed to atoms (all electrons):
               1          2          3          4
     1  C    5.192195   0.243134   0.110798   0.110184
     2  S    0.243134  15.945633  -0.066926  -0.064900
     3  F    0.110798  -0.066926   9.178310  -0.081541
     4  F    0.110184  -0.064900  -0.081541   9.182361
 Mulliken charges:
               1
     1  C    0.343688
     2  S   -0.056942
     3  F   -0.140642
     4  F   -0.146105
 Sum of Mulliken charges =  -0.00000
 Mulliken charges with hydrogens summed into heavy atoms:
               1
     1  C    0.343688
     2  S   -0.056942
     3  F   -0.140642
     4  F   -0.146105
 Electronic spatial extent (au):  <R**2>=            316.0558
 Charge=             -0.0000 electrons
 Dipole moment (field-independent basis, Debye):
    X=             -0.0000    Y=             -0.0209    Z=             -0.1799  Tot=              0.1811
 Quadrupole moment (field-independent basis, Debye-Ang):
   XX=            -27.2807   YY=            -30.1689   ZZ=            -27.9520
   XY=              0.0000   XZ=             -0.0000   YZ=              0.0224
 Traceless Quadrupole moment (field-independent basis, Debye-Ang):
   XX=              1.1865   YY=             -1.7017   ZZ=              0.5152
   XY=              0.0000   XZ=             -0.0000   YZ=              0.0224
 Octapole moment (field-independent basis, Debye-Ang**2):
  XXX=              0.0000  YYY=             -0.0555  ZZZ=              9.0704  XYY=             -0.0000
  XXY=             -0.0165  XXZ=              0.8332  XZZ=             -0.0000  YZZ=             -0.0592
  YYZ=              0.9064  XYZ=              0.0000
 Hexadecapole moment (field-independent basis, Debye-Ang**3):
 XXXX=            -28.1127 YYYY=            -96.2342 ZZZZ=           -215.7992 XXXY=              0.0000
 XXXZ=              0.0000 YYYX=              0.0000 YYYZ=              0.2030 ZZZX=             -0.0000
 ZZZY=              0.2033 XXYY=            -20.7227 XXZZ=            -40.6388 YYZZ=            -55.7704
 XXYZ=              0.0644 YYXZ=             -0.0000 ZZXY=              0.0000
 N-N= 1.541911481032D+02 E-N=-1.819699487920D+03  KE= 6.349811068239D+02
 There are a total of       92046 grid points.
 ElSum from          density=       40.0000001770
 ElSum from atomic densities=       39.9999997746

 Hirshfeld populations at iteration   1 (CX, CA, CB, DipXYZ):
               1          2          3          4          5          6
     1  C    0.000001   2.882818   2.882818   0.000000  -0.000273  -0.239393
     2  S    0.000009   8.046626   8.046626   0.000000  -0.001010   0.188775
     3  F    0.000005   4.534509   4.534509   0.000000   0.035423   0.026391
     4  F    0.000005   4.536048   4.536048  -0.000000  -0.036228   0.027129
       Tot   0.000019  20.000000  20.000000   0.000000  -0.002089   0.002902

 Dip from Atomic Chgs              0.000000  -0.006138  -0.073674
         Total Dipole              0.000000  -0.008227  -0.070772

 Hirshfeld charges, spin densities, dipoles, and CM5 charges using IRadAn=      5:
              Q-H        S-H        Dx         Dy         Dz        Q-CM5   
     1  C    0.234365   0.000000   0.000000  -0.000273  -0.239393   0.293635
     2  S   -0.093251   0.000000   0.000000  -0.001010   0.188775  -0.111162
     3  F   -0.069018   0.000000   0.000000   0.035423   0.026391  -0.089852
     4  F   -0.072096   0.000000  -0.000000  -0.036228   0.027129  -0.092621
       Tot  -0.000000   0.000000   0.000000  -0.002089   0.002902  -0.000000
 Hirshfeld charges with hydrogens summed into heavy atoms:
              Q-H       Q-CM5   
     1  C    0.234365   0.293635
     2  S   -0.093251  -0.111162
     3  F   -0.069018  -0.089852
     4  F   -0.072096  -0.092621
 
 EQQ= 0.000000000000E+00 EQD= 0.000000000000E+00 EDD=-0.240237124103E-02
 EQQ+QD+DD=-0.240237124103E-02
 
 Breneman (CHELPG) radii used.
 Generate Potential Derived Charges using the Breneman model, NDens= 1.
 Grid spacing= 0.300 Box extension= 2.800
 NStep X,Y,Z=   20     27     28   Total possible points=       15120
 Number of Points to Fit=    4652

 **********************************************************************

            Electrostatic Properties Using The CC Density.

 **********************************************************************

       Atomic Center    1 is at   0.000000  0.000000 -0.520349
       Atomic Center    2 is at   0.000000  0.000000  1.078525
       Atomic Center    3 is at   0.000000 -1.055221 -1.295538
       Atomic Center    4 is at   0.000000  1.055221 -1.305538
    4652 points will be used for fitting atomic charges
 Fitting point charges to electrostatic potential
 The dipole moment will be constrained to the correct value
 Charges from ESP fit, RMS=   0.00620 RRMS=   0.73363:
 ESP charges:
               1
     1  C    0.407245
     2  S   -0.149303
     3  F   -0.126909
     4  F   -0.131034
 Sum of ESP charges =   0.00000
 ESP charges with hydrogens summed into heavy atoms:
               1
     1  C    0.407245
     2  S   -0.149303
     3  F   -0.126909
     4  F   -0.131034
 Charge=   0.00000 Dipole=     0.0000    -0.0209    -0.1799 Tot=     0.1811
 -----------------------------------------------------------------

              Electrostatic Properties (Atomic Units)

 -----------------------------------------------------------------
    Center     Electric         -------- Electric Field --------
               Potential          X             Y             Z
 -----------------------------------------------------------------
    1 Atom    -14.498609
    2 Atom    -59.211479
    3 Atom    -26.496061
    4 Atom    -26.497479
 -----------------------------------------------------------------
 ******************************Gaussian NBO Version 3.1******************************
             N A T U R A L   A T O M I C   O R B I T A L   A N D
          N A T U R A L   B O N D   O R B I T A L   A N A L Y S I S
 ******************************Gaussian NBO Version 3.1******************************
       /RESON  / : Allow strongly delocalized NBO set

 Analyzing the QCI/CC density

 Job title: f2cs-wavefunction                                               

 Storage needed:    106946 in NPA (2147483536 available)
 GSVD:  LWork=        5094 too small for GESVD, short by       54317 words or       54317 for optimal perf.


 NATURAL POPULATIONS:  Natural atomic orbital occupancies 
                                                          
   NAO  Atom  No  lang   Type(AO)    Occupancy
 --------------------------------------------
     1    C    1  S      Cor( 1S)     1.99946
     2    C    1  S      Val( 2S)     0.93134
     3    C    1  S      Ryd( 3S)     0.00600
     4    C    1  S      Ryd( 4S)     0.00026
     5    C    1  S      Ryd( 5S)     0.00006
     6    C    1  px     Val( 2p)     0.86095
     7    C    1  px     Ryd( 3p)     0.00615
     8    C    1  px     Ryd( 4p)     0.00049
     9    C    1  px     Ryd( 5p)     0.00045
    10    C    1  py     Val( 2p)     0.62360
    11    C    1  py     Ryd( 3p)     0.02248
    12    C    1  py     Ryd( 4p)     0.00057
    13    C    1  py     Ryd( 5p)     0.00032
    14    C    1  pz     Val( 2p)     0.86672
    15    C    1  pz     Ryd( 3p)     0.01829
    16    C    1  pz     Ryd( 4p)     0.00062
    17    C    1  pz     Ryd( 5p)     0.00040
    18    C    1  dxy    Ryd( 3d)     0.00782
    19    C    1  dxy    Ryd( 4d)     0.00052
    20    C    1  dxy    Ryd( 5d)     0.00025
    21    C    1  dxz    Ryd( 3d)     0.01450
    22    C    1  dxz    Ryd( 4d)     0.00048
    23    C    1  dxz    Ryd( 5d)     0.00037
    24    C    1  dyz    Ryd( 3d)     0.01137
    25    C    1  dyz    Ryd( 4d)     0.00041
    26    C    1  dyz    Ryd( 5d)     0.00019
    27    C    1  dx2y2  Ryd( 3d)     0.00605
    28    C    1  dx2y2  Ryd( 4d)     0.00045
    29    C    1  dx2y2  Ryd( 5d)     0.00043
    30    C    1  dz2    Ryd( 3d)     0.01092
    31    C    1  dz2    Ryd( 4d)     0.00059
    32    C    1  dz2    Ryd( 5d)     0.00022
    33    C    1  f(0)   Ryd( 4f)     0.00306
    34    C    1  f(0)   Ryd( 5f)     0.00030
    35    C    1  f(C1)  Ryd( 4f)     0.00148
    36    C    1  f(C1)  Ryd( 5f)     0.00042
    37    C    1  f(S1)  Ryd( 4f)     0.00244
    38    C    1  f(S1)  Ryd( 5f)     0.00066
    39    C    1  f(C2)  Ryd( 4f)     0.00221
    40    C    1  f(C2)  Ryd( 5f)     0.00028
    41    C    1  f(S2)  Ryd( 4f)     0.00219
    42    C    1  f(S2)  Ryd( 5f)     0.00036
    43    C    1  f(C3)  Ryd( 4f)     0.00121
    44    C    1  f(C3)  Ryd( 5f)     0.00034
    45    C    1  f(S3)  Ryd( 4f)     0.00109
    46    C    1  f(S3)  Ryd( 5f)     0.00023

    47    S    2  S      Cor( 1S)     2.00000
    48    S    2  S      Cor( 2S)     1.99875
    49    S    2  S      Val( 3S)     1.75668
    50    S    2  S      Ryd( 4S)     0.00665
    51    S    2  S      Ryd( 5S)     0.00026
    52    S    2  S      Ryd( 6S)     0.00019
    53    S    2  px     Cor( 2p)     1.99990
    54    S    2  px     Val( 3p)     1.28691
    55    S    2  px     Ryd( 4p)     0.00519
    56    S    2  px     Ryd( 5p)     0.00030
    57    S    2  px     Ryd( 6p)     0.00007
    58    S    2  py     Cor( 2p)     2.00001
    59    S    2  py     Val( 3p)     1.79515
    60    S    2  py     Ryd( 4p)     0.00854
    61    S    2  py     Ryd( 5p)     0.00051
    62    S    2  py     Ryd( 6p)     0.00010
    63    S    2  pz     Cor( 2p)     1.99964
    64    S    2  pz     Val( 3p)     1.02022
    65    S    2  pz     Ryd( 4p)     0.00503
    66    S    2  pz     Ryd( 5p)     0.00041
    67    S    2  pz     Ryd( 6p)     0.00009
    68    S    2  dxy    Ryd( 3d)     0.01637
    69    S    2  dxy    Ryd( 4d)     0.00051
    70    S    2  dxy    Ryd( 5d)     0.00009
    71    S    2  dxz    Ryd( 3d)     0.01937
    72    S    2  dxz    Ryd( 4d)     0.00048
    73    S    2  dxz    Ryd( 5d)     0.00017
    74    S    2  dyz    Ryd( 3d)     0.01485
    75    S    2  dyz    Ryd( 4d)     0.00050
    76    S    2  dyz    Ryd( 5d)     0.00024
    77    S    2  dx2y2  Ryd( 3d)     0.01616
    78    S    2  dx2y2  Ryd( 4d)     0.00053
    79    S    2  dx2y2  Ryd( 5d)     0.00008
    80    S    2  dz2    Ryd( 3d)     0.02155
    81    S    2  dz2    Ryd( 4d)     0.00043
    82    S    2  dz2    Ryd( 5d)     0.00015
    83    S    2  f(0)   Ryd( 4f)     0.00141
    84    S    2  f(0)   Ryd( 5f)     0.00018
    85    S    2  f(C1)  Ryd( 4f)     0.00095
    86    S    2  f(C1)  Ryd( 5f)     0.00012
    87    S    2  f(S1)  Ryd( 4f)     0.00105
    88    S    2  f(S1)  Ryd( 5f)     0.00015
    89    S    2  f(C2)  Ryd( 4f)     0.00095
    90    S    2  f(C2)  Ryd( 5f)     0.00012
    91    S    2  f(S2)  Ryd( 4f)     0.00094
    92    S    2  f(S2)  Ryd( 5f)     0.00012
    93    S    2  f(C3)  Ryd( 4f)     0.00134
    94    S    2  f(C3)  Ryd( 5f)     0.00012
    95    S    2  f(S3)  Ryd( 4f)     0.00134
    96    S    2  f(S3)  Ryd( 5f)     0.00012

    97    F    3  S      Cor( 1S)     1.99979
    98    F    3  S      Val( 2S)     1.82796
    99    F    3  S      Ryd( 3S)     0.00646
   100    F    3  S      Ryd( 4S)     0.00033
   101    F    3  S      Ryd( 5S)     0.00027
   102    F    3  px     Val( 2p)     1.87003
   103    F    3  px     Ryd( 3p)     0.01127
   104    F    3  px     Ryd( 4p)     0.00081
   105    F    3  px     Ryd( 5p)     0.00015
   106    F    3  py     Val( 2p)     1.71487
   107    F    3  py     Ryd( 3p)     0.00743
   108    F    3  py     Ryd( 4p)     0.00058
   109    F    3  py     Ryd( 5p)     0.00018
   110    F    3  pz     Val( 2p)     1.80738
   111    F    3  pz     Ryd( 3p)     0.00975
   112    F    3  pz     Ryd( 4p)     0.00073
   113    F    3  pz     Ryd( 5p)     0.00027
   114    F    3  dxy    Ryd( 3d)     0.00673
   115    F    3  dxy    Ryd( 4d)     0.00044
   116    F    3  dxy    Ryd( 5d)     0.00008
   117    F    3  dxz    Ryd( 3d)     0.00569
   118    F    3  dxz    Ryd( 4d)     0.00046
   119    F    3  dxz    Ryd( 5d)     0.00008
   120    F    3  dyz    Ryd( 3d)     0.00971
   121    F    3  dyz    Ryd( 4d)     0.00053
   122    F    3  dyz    Ryd( 5d)     0.00010
   123    F    3  dx2y2  Ryd( 3d)     0.00751
   124    F    3  dx2y2  Ryd( 4d)     0.00052
   125    F    3  dx2y2  Ryd( 5d)     0.00013
   126    F    3  dz2    Ryd( 3d)     0.00637
   127    F    3  dz2    Ryd( 4d)     0.00045
   128    F    3  dz2    Ryd( 5d)     0.00011
   129    F    3  f(0)   Ryd( 4f)     0.00053
   130    F    3  f(0)   Ryd( 5f)     0.00010
   131    F    3  f(C1)  Ryd( 4f)     0.00043
   132    F    3  f(C1)  Ryd( 5f)     0.00009
   133    F    3  f(S1)  Ryd( 4f)     0.00067
   134    F    3  f(S1)  Ryd( 5f)     0.00013
   135    F    3  f(C2)  Ryd( 4f)     0.00073
   136    F    3  f(C2)  Ryd( 5f)     0.00012
   137    F    3  f(S2)  Ryd( 4f)     0.00055
   138    F    3  f(S2)  Ryd( 5f)     0.00011
   139    F    3  f(C3)  Ryd( 4f)     0.00052
   140    F    3  f(C3)  Ryd( 5f)     0.00011
   141    F    3  f(S3)  Ryd( 4f)     0.00057
   142    F    3  f(S3)  Ryd( 5f)     0.00012

   143    F    4  S      Cor( 1S)     1.99980
   144    F    4  S      Val( 2S)     1.83021
   145    F    4  S      Ryd( 3S)     0.00648
   146    F    4  S      Ryd( 4S)     0.00033
   147    F    4  S      Ryd( 5S)     0.00027
   148    F    4  px     Val( 2p)     1.87167
   149    F    4  px     Ryd( 3p)     0.01132
   150    F    4  px     Ryd( 4p)     0.00081
   151    F    4  px     Ryd( 5p)     0.00015
   152    F    4  py     Val( 2p)     1.71616
   153    F    4  py     Ryd( 3p)     0.00750
   154    F    4  py     Ryd( 4p)     0.00058
   155    F    4  py     Ryd( 5p)     0.00018
   156    F    4  pz     Val( 2p)     1.80450
   157    F    4  pz     Ryd( 3p)     0.00973
   158    F    4  pz     Ryd( 4p)     0.00073
   159    F    4  pz     Ryd( 5p)     0.00027
   160    F    4  dxy    Ryd( 3d)     0.00667
   161    F    4  dxy    Ryd( 4d)     0.00044
   162    F    4  dxy    Ryd( 5d)     0.00008
   163    F    4  dxz    Ryd( 3d)     0.00568
   164    F    4  dxz    Ryd( 4d)     0.00046
   165    F    4  dxz    Ryd( 5d)     0.00008
   166    F    4  dyz    Ryd( 3d)     0.00961
   167    F    4  dyz    Ryd( 4d)     0.00053
   168    F    4  dyz    Ryd( 5d)     0.00010
   169    F    4  dx2y2  Ryd( 3d)     0.00740
   170    F    4  dx2y2  Ryd( 4d)     0.00052
   171    F    4  dx2y2  Ryd( 5d)     0.00013
   172    F    4  dz2    Ryd( 3d)     0.00634
   173    F    4  dz2    Ryd( 4d)     0.00045
   174    F    4  dz2    Ryd( 5d)     0.00011
   175    F    4  f(0)   Ryd( 4f)     0.00053
   176    F    4  f(0)   Ryd( 5f)     0.00010
   177    F    4  f(C1)  Ryd( 4f)     0.00043
   178    F    4  f(C1)  Ryd( 5f)     0.00009
   179    F    4  f(S1)  Ryd( 4f)     0.00066
   180    F    4  f(S1)  Ryd( 5f)     0.00013
   181    F    4  f(C2)  Ryd( 4f)     0.00072
   182    F    4  f(C2)  Ryd( 5f)     0.00012
   183    F    4  f(S2)  Ryd( 4f)     0.00055
   184    F    4  f(S2)  Ryd( 5f)     0.00011
   185    F    4  f(C3)  Ryd( 4f)     0.00052
   186    F    4  f(C3)  Ryd( 5f)     0.00010
   187    F    4  f(S3)  Ryd( 4f)     0.00056
   188    F    4  f(S3)  Ryd( 5f)     0.00012

 WARNING:  1 low occupancy (<1.9990e) core orbital  found on  S    2


 Summary of Natural Population Analysis:                  
                                                          
                                       Natural Population 
                Natural  -----------------------------------------------
    Atom  No    Charge         Core      Valence    Rydberg      Total
 -----------------------------------------------------------------------
      C    1    0.59097      1.99946     3.28260    0.12697     5.40903
      S    2    0.01501      9.99830     5.85896    0.12773    15.98499
      F    3   -0.30195      1.99979     7.22025    0.08191     9.30195
      F    4   -0.30403      1.99980     7.22254    0.08169     9.30403
 =======================================================================
   * Total *   -0.00000     15.99735    23.58435    0.41830    40.00000

                                 Natural Population      
 --------------------------------------------------------
   Core                      15.99735 ( 99.9835% of  16)
   Valence                   23.58435 ( 98.2681% of  24)
   Natural Minimal Basis     39.58170 ( 98.9543% of  40)
   Natural Rydberg Basis      0.41830 (  1.0457% of  40)
 --------------------------------------------------------

    Atom  No          Natural Electron Configuration
 ----------------------------------------------------------------------------
      C    1      [core]2S( 0.93)2p( 2.35)3S( 0.01)3p( 0.05)3d( 0.05)4f( 0.01)
      S    2      [core]3S( 1.76)3p( 4.10)4S( 0.01)3d( 0.09)4p( 0.02)4f( 0.01)
      F    3      [core]2S( 1.83)2p( 5.39)3S( 0.01)3p( 0.03)3d( 0.04)
      F    4      [core]2S( 1.83)2p( 5.39)3S( 0.01)3p( 0.03)3d( 0.04)


 NBO analysis skipped by request.
 Unable to Open any file for archive entry.
 1\1\GINC-TRAPISTA\SP\RQCISD-FC\Aug-CC-pVTZ\C1F2S1\WAGNER\03-Sep-2022\0
 \\# qcisd/aug-cc-pvtz nosymm density=current pop=(chelpg,hirshfeld,npa
 ,dipole)\\f2cs-wavefunction\\0,1\C,0,0.,0.,-0.520349\S,0,0.,0.,1.07852
 5\F,0,0.,-1.055221,-1.295538\F,0,0.,1.055221,-1.305538\\Version=EM64L-
 G16RevC.01\HF=-634.3564786\MP2=-635.1964346\MP3=-635.1996858\MP4D=-635
 .2166726\MP4DQ=-635.1972816\MP4SDQ=-635.2081969\QCISD=-635.2072873\RMS
 D=5.548e-09\Dipole=0.,-0.0082267,-0.0707727\Quadrupole=0.8821284,-1.26
 51615,0.3830331,0.,0.,0.0166864\PG=CS [SG(C1F2S1)]\\@
 The archive entry for this job was punched.


 ERWIN WITH HIS PSI CAN DO
 CALCULATIONS QUITE A FEW.
 BUT ONE THING HAS NOT BEEN SEEN
 JUST WHAT DOES PSI REALLY MEAN.
 -- WALTER HUCKEL, TRANS. BY FELIX BLOCH
 Job cpu time:       0 days  6 hours 40 minutes 16.0 seconds.
 Elapsed time:       0 days  0 hours 25 minutes 20.6 seconds.
 File lengths (MBytes):  RWF=  21970 Int=      0 D2E=      0 Chk=      4 Scr=      1
 Normal termination of Gaussian 16 at Sat Sep  3 19:05:13 2022.
