 Entering Gaussian System, Link 0=/home/wagner/chemistry/gaussian/g16/g16
 Input=GAUSSIAN.com
 Output=GAUSSIAN.log
 Initial command:
 /home/wagner/chemistry/gaussian/g16/l1.exe "/home/wagner/chemistry/gaussian/work/Gau-25060.inp" -scrdir="/home/wagner/chemistry/gaussian/work/"
 Entering Link 1 = /home/wagner/chemistry/gaussian/g16/l1.exe PID=     25062.
  
 Copyright (c) 1988-2019, Gaussian, Inc.  All Rights Reserved.
  
 This is part of the Gaussian(R) 16 program.  It is based on
 the Gaussian(R) 09 system (copyright 2009, Gaussian, Inc.),
 the Gaussian(R) 03 system (copyright 2003, Gaussian, Inc.),
 the Gaussian(R) 98 system (copyright 1998, Gaussian, Inc.),
 the Gaussian(R) 94 system (copyright 1995, Gaussian, Inc.),
 the Gaussian 92(TM) system (copyright 1992, Gaussian, Inc.),
 the Gaussian 90(TM) system (copyright 1990, Gaussian, Inc.),
 the Gaussian 88(TM) system (copyright 1988, Gaussian, Inc.),
 the Gaussian 86(TM) system (copyright 1986, Carnegie Mellon
 University), and the Gaussian 82(TM) system (copyright 1983,
 Carnegie Mellon University). Gaussian is a federally registered
 trademark of Gaussian, Inc.
  
 This software contains proprietary and confidential information,
 including trade secrets, belonging to Gaussian, Inc.
  
 This software is provided under written license and may be
 used, copied, transmitted, or stored only in accord with that
 written license.
  
 The following legend is applicable only to US Government
 contracts under FAR:
  
                    RESTRICTED RIGHTS LEGEND
  
 Use, reproduction and disclosure by the US Government is
 subject to restrictions as set forth in subparagraphs (a)
 and (c) of the Commercial Computer Software - Restricted
 Rights clause in FAR 52.227-19.
  
 Gaussian, Inc.
 340 Quinnipiac St., Bldg. 40, Wallingford CT 06492
  
  
 ---------------------------------------------------------------
 Warning -- This program may not be used in any manner that
 competes with the business of Gaussian, Inc. or will provide
 assistance to any competitor of Gaussian, Inc.  The licensee
 of this program is prohibited from giving any competitor of
 Gaussian, Inc. access to this program.  By using this program,
 the user acknowledges that Gaussian, Inc. is engaged in the
 business of creating and licensing software in the field of
 computational chemistry and represents and warrants to the
 licensee that it is not a competitor of Gaussian, Inc. and that
 it will not use this program in any manner prohibited above.
 ---------------------------------------------------------------
  

 Cite this work as:
 Gaussian 16, Revision C.01,
 M. J. Frisch, G. W. Trucks, H. B. Schlegel, G. E. Scuseria, 
 M. A. Robb, J. R. Cheeseman, G. Scalmani, V. Barone, 
 G. A. Petersson, H. Nakatsuji, X. Li, M. Caricato, A. V. Marenich, 
 J. Bloino, B. G. Janesko, R. Gomperts, B. Mennucci, H. P. Hratchian, 
 J. V. Ortiz, A. F. Izmaylov, J. L. Sonnenberg, D. Williams-Young, 
 F. Ding, F. Lipparini, F. Egidi, J. Goings, B. Peng, A. Petrone, 
 T. Henderson, D. Ranasinghe, V. G. Zakrzewski, J. Gao, N. Rega, 
 G. Zheng, W. Liang, M. Hada, M. Ehara, K. Toyota, R. Fukuda, 
 J. Hasegawa, M. Ishida, T. Nakajima, Y. Honda, O. Kitao, H. Nakai, 
 T. Vreven, K. Throssell, J. A. Montgomery, Jr., J. E. Peralta, 
 F. Ogliaro, M. J. Bearpark, J. J. Heyd, E. N. Brothers, K. N. Kudin, 
 V. N. Staroverov, T. A. Keith, R. Kobayashi, J. Normand, 
 K. Raghavachari, A. P. Rendell, J. C. Burant, S. S. Iyengar, 
 J. Tomasi, M. Cossi, J. M. Millam, M. Klene, C. Adamo, R. Cammi, 
 J. W. Ochterski, R. L. Martin, K. Morokuma, O. Farkas, 
 J. B. Foresman, and D. J. Fox, Gaussian, Inc., Wallingford CT, 2019.
 
 ******************************************
 Gaussian 16:  EM64L-G16RevC.01  3-Jul-2019
                 3-Sep-2022 
 ******************************************
 %nproc=16
 Will use up to   16 processors via shared memory.
 %mem=16GB
 ----------------------------------------------------------------------
 # qcisd/aug-cc-pvtz nosymm density=current pop=(chelpg,hirshfeld,npa,d
 ipole)
 ----------------------------------------------------------------------
 1/30=1,38=1,172=1/1;
 2/12=2,15=1,17=6,18=5,40=1/2;
 3/5=16,6=1,7=10,11=9,25=1,30=1,71=1/1,2,3;
 4//1;
 5/5=2,38=5/2;
 8/6=4,9=120000,10=1/1,4;
 9/5=8,15=1/13;
 11/28=-7,31=1,32=3,42=3/11;
 10/5=6,13=10,31=1/2;
 6/7=2,8=2,9=2,10=2,15=24,20=3,22=-1,40=-1,79=1/1,2,7;
 99/5=1,9=1/99;
 -----------------
 f2cs-wavefunction
 -----------------
 Symbolic Z-matrix:
 Charge =  0 Multiplicity = 1
 C                     0.        0.       -0.52035 
 S                     0.        0.        1.07852 
 F                     0.       -1.05522  -1.29554 
 F                     0.        1.05522  -1.28554 
 
                          Input orientation:                          
 ---------------------------------------------------------------------
 Center     Atomic      Atomic             Coordinates (Angstroms)
 Number     Number       Type             X           Y           Z
 ---------------------------------------------------------------------
      1          6           0        0.000000    0.000000   -0.520349
      2         16           0        0.000000    0.000000    1.078525
      3          9           0        0.000000   -1.055221   -1.295538
      4          9           0        0.000000    1.055221   -1.285538
 ---------------------------------------------------------------------
                    Distance matrix (angstroms):
                    1          2          3          4
     1  C    0.000000
     2  S    1.598874   0.000000
     3  F    1.309355   2.598012   0.000000
     4  F    1.303459   2.588877   2.110466   0.000000
 Symmetry turned off by external request.
 Stoichiometry    CF2S
 Framework group  CS[SG(CF2S)]
 Deg. of freedom     5
 Full point group                 CS      NOp   2
 Rotational constants (GHZ):          11.9451223           5.1334879           3.5904644
 Standard basis: Aug-CC-pVTZ (5D, 7F)
   188 basis functions,   330 primitive gaussians,   224 cartesian basis functions
    20 alpha electrons       20 beta electrons
       nuclear repulsion energy       154.5948334357 Hartrees.
 NAtoms=    4 NActive=    4 NUniq=    4 SFac= 1.00D+00 NAtFMM=   60 NAOKFM=F Big=F
 Integral buffers will be    131072 words long.
 Raffenetti 1 integral format.
 Two-electron integral symmetry is turned off.
 One-electron integrals computed using PRISM.
 NBasis=   188 RedAO= T EigKep=  9.82D-05  NBF=   188
 NBsUse=   188 1.00D-06 EigRej= -1.00D+00 NBFU=   188
 ExpMin= 3.51D-02 ExpMax= 3.74D+05 ExpMxC= 1.18D+03 IAcc=3 IRadAn=         5 AccDes= 0.00D+00
 Harris functional with IExCor=  205 and IRadAn=       5 diagonalized for initial guess.
 HarFok:  IExCor=  205 AccDes= 0.00D+00 IRadAn=         5 IDoV= 1 UseB2=F ITyADJ=14
 ICtDFT=  3500011 ScaDFX=  1.000000  1.000000  1.000000  1.000000
 FoFCou: FMM=F IPFlag=           0 FMFlag=      100000 FMFlg1=           0
         NFxFlg=           0 DoJE=T BraDBF=F KetDBF=T FulRan=T
         wScrn=  0.000000 ICntrl=       500 IOpCl=  0 I1Cent=   200000004 NGrid=           0
         NMat0=    1 NMatS0=      1 NMatT0=    0 NMatD0=    1 NMtDS0=    0 NMtDT0=    0
 Symmetry not used in FoFCou.
 Keep R1 ints in memory in canonical form, NReq=165820989.
 Requested convergence on RMS density matrix=1.00D-08 within 128 cycles.
 Requested convergence on MAX density matrix=1.00D-06.
 Requested convergence on             energy=1.00D-06.
 No special actions if energy rises.
 SCF Done:  E(RHF) =  -634.357183856     A.U. after   12 cycles
            NFock= 12  Conv=0.54D-08     -V/T= 2.0005
 ExpMin= 3.51D-02 ExpMax= 3.74D+05 ExpMxC= 1.18D+03 IAcc=3 IRadAn=         5 AccDes= 0.00D+00
 HarFok:  IExCor=  205 AccDes= 0.00D+00 IRadAn=         5 IDoV=-2 UseB2=F ITyADJ=14
 ICtDFT= 12500011 ScaDFX=  1.000000  1.000000  1.000000  1.000000
 Range of M.O.s used for correlation:     9   188
 NBasis=   188 NAE=    20 NBE=    20 NFC=     8 NFV=     0
 NROrb=    180 NOA=    12 NOB=    12 NVA=   168 NVB=   168

 **** Warning!!: The largest alpha MO coefficient is  0.28507563D+02

 Semi-Direct transformation.
 ModeAB=           2 MOrb=            12 LenV=    2146475535
 LASXX=     33405819 LTotXX=    33405819 LenRXX=    33405819
 LTotAB=    33954012 MaxLAS=    54432000 LenRXY=    54432000
 NonZer=    66811638 LenScr=   100987392 LnRSAI=           0
 LnScr1=           0 LExtra=           0 Total=    188825211
 MaxDsk=          -1 SrtSym=           F ITran=            4
 JobTyp=0 Pass  1:  I=   1 to  12.
 (rs|ai) integrals will be sorted in core.
 Spin components of T(2) and E(2):
     alpha-alpha T2 =       0.3009328800D-01 E2=     -0.1103614614D+00
     alpha-beta  T2 =       0.1595452620D+00 E2=     -0.6183958476D+00
     beta-beta   T2 =       0.3009328800D-01 E2=     -0.1103614614D+00
 ANorm=    0.1104414704D+01
 E2 =    -0.8391187704D+00 EUMP2 =    -0.63519630262629D+03
 Keep R2 and R3 ints in memory in canonical form, NReq=323654062.
 CIDS: In Core Option IDoMem=           1.
 Iterations=  50 Convergence= 0.100D-07
 Produce multiple copies of IABC intergrals
 Iteration Nr.   1
 **********************
 DD1Dir will call FoFMem   1 times, MxPair=       156
 NAB=    78 NAA=     0 NBB=     0.
 MP4(R+Q)=  0.19315387D-01
 E3=       -0.35178788D-02        EUMP3=      -0.63519982051D+03
 E4(DQ)=    0.24501920D-02        UMP4(DQ)=   -0.63519737031D+03
 E4(SDQ)=  -0.83505151D-02        UMP4(SDQ)=  -0.63520817102D+03
 DE(Corr)= -0.82332126     E(Corr)=     -635.18050512    
 NORM(A)=   0.11037139D+01
 Iteration Nr.   2
 **********************
 DD1Dir will call FoFMem   1 times, MxPair=       156
 NAB=    78 NAA=     0 NBB=     0.
 DE(Corr)= -0.84889297     E(CORR)=     -635.20607682     Delta=-2.56D-02
 NORM(A)=   0.11126107D+01
 Iteration Nr.   3
 **********************
 DD1Dir will call FoFMem   1 times, MxPair=       156
 NAB=    78 NAA=     0 NBB=     0.
 DE(Corr)= -0.84724492     E(CORR)=     -635.20442877     Delta= 1.65D-03
 NORM(A)=   0.11154340D+01
 Iteration Nr.   4
 **********************
 DD1Dir will call FoFMem   1 times, MxPair=       156
 NAB=    78 NAA=     0 NBB=     0.
 DE(Corr)= -0.84976002     E(CORR)=     -635.20694387     Delta=-2.52D-03
 NORM(A)=   0.11165387D+01
 Iteration Nr.   5
 **********************
 DD1Dir will call FoFMem   1 times, MxPair=       156
 NAB=    78 NAA=     0 NBB=     0.
 DE(Corr)= -0.85005885     E(CORR)=     -635.20724270     Delta=-2.99D-04
 NORM(A)=   0.11168628D+01
 Iteration Nr.   6
 **********************
 DD1Dir will call FoFMem   1 times, MxPair=       156
 NAB=    78 NAA=     0 NBB=     0.
 DE(Corr)= -0.85009802     E(CORR)=     -635.20728188     Delta=-3.92D-05
 NORM(A)=   0.11169111D+01
 Iteration Nr.   7
 **********************
 DD1Dir will call FoFMem   1 times, MxPair=       156
 NAB=    78 NAA=     0 NBB=     0.
 DE(Corr)= -0.85010228     E(CORR)=     -635.20728614     Delta=-4.26D-06
 NORM(A)=   0.11169112D+01
 Iteration Nr.   8
 **********************
 DD1Dir will call FoFMem   1 times, MxPair=       156
 NAB=    78 NAA=     0 NBB=     0.
 DE(Corr)= -0.85010075     E(CORR)=     -635.20728460     Delta= 1.54D-06
 NORM(A)=   0.11169165D+01
 Iteration Nr.   9
 **********************
 DD1Dir will call FoFMem   1 times, MxPair=       156
 NAB=    78 NAA=     0 NBB=     0.
 DE(Corr)= -0.85010056     E(CORR)=     -635.20728442     Delta= 1.88D-07
 NORM(A)=   0.11169168D+01
 Iteration Nr.  10
 **********************
 DD1Dir will call FoFMem   1 times, MxPair=       156
 NAB=    78 NAA=     0 NBB=     0.
 DE(Corr)= -0.85010058     E(CORR)=     -635.20728443     Delta=-1.64D-08
 NORM(A)=   0.11169183D+01
 Iteration Nr.  11
 **********************
 DD1Dir will call FoFMem   1 times, MxPair=       156
 NAB=    78 NAA=     0 NBB=     0.
 DE(Corr)= -0.85010140     E(CORR)=     -635.20728525     Delta=-8.21D-07
 NORM(A)=   0.11169197D+01
 Iteration Nr.  12
 **********************
 DD1Dir will call FoFMem   1 times, MxPair=       156
 NAB=    78 NAA=     0 NBB=     0.
 DE(Corr)= -0.85010161     E(CORR)=     -635.20728547     Delta=-2.17D-07
 NORM(A)=   0.11169204D+01
 Iteration Nr.  13
 **********************
 DD1Dir will call FoFMem   1 times, MxPair=       156
 NAB=    78 NAA=     0 NBB=     0.
 DE(Corr)= -0.85010190     E(CORR)=     -635.20728575     Delta=-2.84D-07
 NORM(A)=   0.11169209D+01
 Iteration Nr.  14
 **********************
 DD1Dir will call FoFMem   1 times, MxPair=       156
 NAB=    78 NAA=     0 NBB=     0.
 DE(Corr)= -0.85010195     E(CORR)=     -635.20728581     Delta=-5.62D-08
 NORM(A)=   0.11169210D+01
 Iteration Nr.  15
 **********************
 DD1Dir will call FoFMem   1 times, MxPair=       156
 NAB=    78 NAA=     0 NBB=     0.
 DE(Corr)= -0.85010199     E(CORR)=     -635.20728585     Delta=-3.96D-08
 NORM(A)=   0.11169211D+01
 Iteration Nr.  16
 **********************
 DD1Dir will call FoFMem   1 times, MxPair=       156
 NAB=    78 NAA=     0 NBB=     0.
 DE(Corr)= -0.85010200     E(CORR)=     -635.20728586     Delta=-1.17D-08
 NORM(A)=   0.11169211D+01
 Iteration Nr.  17
 **********************
 DD1Dir will call FoFMem   1 times, MxPair=       156
 NAB=    78 NAA=     0 NBB=     0.
 DE(Corr)= -0.85010200     E(CORR)=     -635.20728586     Delta= 3.74D-09
 NORM(A)=   0.11169211D+01
 Wavefunction amplitudes converged. E(Corr)=     -635.20728586    
 Largest amplitude= 8.46D-02

 Z-amplitude iterations

 Iteration Nr.   1
 **********************
 DD1Dir will call FoFMem   1 times, MxPair=       156
 NAB=    78 NAA=     0 NBB=     0.
 DE(Z)= -0.82625389     E(Z)=     -635.18343774     Delta= 2.38D-02
 NORM(A)=   0.11169145D+01
 Iteration Nr.   2
 **********************
 DD1Dir will call FoFMem   1 times, MxPair=       156
 NAB=    78 NAA=     0 NBB=     0.
 DE(Z)= -0.82625387     E(Z)=     -635.18343773     Delta= 1.45D-08
 NORM(A)=   0.11169425D+01
 Iteration Nr.   3
 **********************
 DD1Dir will call FoFMem   1 times, MxPair=       156
 NAB=    78 NAA=     0 NBB=     0.
 DE(Z)= -0.82625423     E(Z)=     -635.18343809     Delta=-3.57D-07
 NORM(A)=   0.11168773D+01
 Iteration Nr.   4
 **********************
 DD1Dir will call FoFMem   1 times, MxPair=       156
 NAB=    78 NAA=     0 NBB=     0.
 DE(Z)= -0.82625331     E(Z)=     -635.18343717     Delta= 9.21D-07
 NORM(A)=   0.11169669D+01
 Iteration Nr.   5
 **********************
 DD1Dir will call FoFMem   1 times, MxPair=       156
 NAB=    78 NAA=     0 NBB=     0.
 DE(Z)= -0.82625468     E(Z)=     -635.18343854     Delta=-1.37D-06
 NORM(A)=   0.11087091D+01
 Iteration Nr.   6
 **********************
 DD1Dir will call FoFMem   1 times, MxPair=       156
 NAB=    78 NAA=     0 NBB=     0.
 DE(Z)= -0.82611275     E(Z)=     -635.18329660     Delta= 1.42D-04
 NORM(A)=   0.11087049D+01
 Iteration Nr.   7
 **********************
 DD1Dir will call FoFMem   1 times, MxPair=       156
 NAB=    78 NAA=     0 NBB=     0.
 DE(Z)= -0.82611168     E(Z)=     -635.18329553     Delta= 1.07D-06
 NORM(A)=   0.11087042D+01
 Iteration Nr.   8
 **********************
 DD1Dir will call FoFMem   1 times, MxPair=       156
 NAB=    78 NAA=     0 NBB=     0.
 DE(Z)= -0.82611152     E(Z)=     -635.18329538     Delta= 1.56D-07
 NORM(A)=   0.11087042D+01
 Iteration Nr.   9
 **********************
 DD1Dir will call FoFMem   1 times, MxPair=       156
 NAB=    78 NAA=     0 NBB=     0.
 DE(Z)= -0.82611132     E(Z)=     -635.18329517     Delta= 2.04D-07
 NORM(A)=   0.11087043D+01
 Iteration Nr.  10
 **********************
 DD1Dir will call FoFMem   1 times, MxPair=       156
 NAB=    78 NAA=     0 NBB=     0.
 DE(Z)= -0.82611142     E(Z)=     -635.18329528     Delta=-1.06D-07
 NORM(A)=   0.11087044D+01
 Iteration Nr.  11
 **********************
 DD1Dir will call FoFMem   1 times, MxPair=       156
 NAB=    78 NAA=     0 NBB=     0.
 DE(Z)= -0.82611141     E(Z)=     -635.18329527     Delta= 5.90D-09
 NORM(A)=   0.11087044D+01
 Z-amplitudes converged.
 Discarding MO integrals.
          Differentiating once with respect to electric field.
                with respect to dipole field.
          Electric field/nuclear overlap derivatives assumed to be zero.
 Keep R1 ints in memory in canonical form, NReq=165824884.
          There are     1 degrees of freedom in the 1st order CPHF.  IDoFFX=0 NUNeed=     1.
 LinEq1:  Iter=  0 NonCon=     1 RMS=2.85D-03 Max=7.71D-02 NDo=     1
 AX will form     1 AO Fock derivatives at one time.
 LinEq1:  Iter=  1 NonCon=     1 RMS=8.80D-04 Max=1.07D-02 NDo=     1
 LinEq1:  Iter=  2 NonCon=     1 RMS=4.01D-04 Max=1.30D-02 NDo=     1
 LinEq1:  Iter=  3 NonCon=     1 RMS=1.08D-04 Max=2.40D-03 NDo=     1
 LinEq1:  Iter=  4 NonCon=     1 RMS=2.70D-05 Max=6.38D-04 NDo=     1
 LinEq1:  Iter=  5 NonCon=     1 RMS=6.78D-06 Max=1.01D-04 NDo=     1
 LinEq1:  Iter=  6 NonCon=     1 RMS=2.67D-06 Max=5.62D-05 NDo=     1
 LinEq1:  Iter=  7 NonCon=     1 RMS=8.29D-07 Max=1.48D-05 NDo=     1
 LinEq1:  Iter=  8 NonCon=     1 RMS=1.67D-07 Max=2.33D-06 NDo=     1
 LinEq1:  Iter=  9 NonCon=     1 RMS=3.21D-08 Max=3.60D-07 NDo=     1
 LinEq1:  Iter= 10 NonCon=     1 RMS=8.53D-09 Max=1.10D-07 NDo=     1
 LinEq1:  Iter= 11 NonCon=     1 RMS=3.65D-09 Max=5.22D-08 NDo=     1
 LinEq1:  Iter= 12 NonCon=     1 RMS=8.28D-10 Max=1.37D-08 NDo=     1
 LinEq1:  Iter= 13 NonCon=     1 RMS=1.14D-10 Max=1.46D-09 NDo=     1
 LinEq1:  Iter= 14 NonCon=     0 RMS=2.11D-11 Max=2.10D-10 NDo=     1
 Linear equations converged to 1.000D-10 1.000D-09 after    14 iterations.
 End of Minotr F.D. properties file   721 does not exist.
 End of Minotr F.D. properties file   722 does not exist.
 End of Minotr F.D. properties file   788 does not exist.

 **********************************************************************

            Population analysis using the CC Density.

 **********************************************************************

 Alpha  occ. eigenvalues --  -91.97509 -26.39161 -26.39017 -11.51856  -8.97876
 Alpha  occ. eigenvalues --   -6.66000  -6.65836  -6.65716  -1.75751  -1.68317
 Alpha  occ. eigenvalues --   -1.09858  -0.93090  -0.84619  -0.80416  -0.77617
 Alpha  occ. eigenvalues --   -0.72285  -0.70283  -0.59627  -0.43037  -0.40104
 Alpha virt. eigenvalues --    0.05350   0.05534   0.06415   0.08637   0.08682
 Alpha virt. eigenvalues --    0.10319   0.10833   0.12212   0.19577   0.20431
 Alpha virt. eigenvalues --    0.20887   0.23102   0.23427   0.26354   0.27114
 Alpha virt. eigenvalues --    0.27348   0.28382   0.29114   0.29440   0.29804
 Alpha virt. eigenvalues --    0.35833   0.36529   0.41186   0.41957   0.45006
 Alpha virt. eigenvalues --    0.46886   0.48022   0.51725   0.51991   0.53081
 Alpha virt. eigenvalues --    0.53197   0.62320   0.63513   0.66083   0.69901
 Alpha virt. eigenvalues --    0.73123   0.73512   0.74761   0.76581   0.77733
 Alpha virt. eigenvalues --    0.85042   0.85552   0.88598   0.89902   0.90612
 Alpha virt. eigenvalues --    0.96101   0.96108   1.02192   1.03659   1.07909
 Alpha virt. eigenvalues --    1.09029   1.10910   1.11270   1.12394   1.14790
 Alpha virt. eigenvalues --    1.14875   1.17574   1.19708   1.23266   1.25874
 Alpha virt. eigenvalues --    1.28332   1.32713   1.34907   1.39805   1.42863
 Alpha virt. eigenvalues --    1.44598   1.49759   1.53768   1.57466   1.65075
 Alpha virt. eigenvalues --    1.68151   1.70392   1.70765   1.71237   1.73898
 Alpha virt. eigenvalues --    1.79392   1.99631   2.03457   2.06843   2.08110
 Alpha virt. eigenvalues --    2.11643   2.26872   2.30652   2.32119   2.36445
 Alpha virt. eigenvalues --    2.41692   2.43445   2.43705   2.46039   2.51874
 Alpha virt. eigenvalues --    2.54848   2.59043   2.66757   2.75249   2.80256
 Alpha virt. eigenvalues --    2.84038   2.86342   2.90071   2.92699   2.94009
 Alpha virt. eigenvalues --    2.96587   3.00008   3.00077   3.07223   3.14755
 Alpha virt. eigenvalues --    3.15152   3.17828   3.19368   3.20700   3.32345
 Alpha virt. eigenvalues --    3.33317   3.37420   3.39899   3.45857   3.51295
 Alpha virt. eigenvalues --    3.55026   3.56187   3.63414   3.73257   3.74312
 Alpha virt. eigenvalues --    3.75442   3.76057   3.92986   4.00858   4.11581
 Alpha virt. eigenvalues --    4.19562   4.21981   4.26687   4.43419   4.55573
 Alpha virt. eigenvalues --    4.61849   4.70719   4.74688   4.86284   5.45887
 Alpha virt. eigenvalues --    5.51775   5.69190   5.89600   6.23815   6.59927
 Alpha virt. eigenvalues --    7.21516   8.78970   8.80661   8.85986   8.86903
 Alpha virt. eigenvalues --    8.99688   9.00207   9.10645   9.12611   9.19542
 Alpha virt. eigenvalues --    9.26519   9.27353   9.29404   9.33231   9.33891
 Alpha virt. eigenvalues --    9.36235   9.36552   9.39905   9.45841   9.54962
 Alpha virt. eigenvalues --    9.56584   9.59265   9.71827   9.84847   9.87051
 Alpha virt. eigenvalues --   12.09537  15.06456  16.15911
          Condensed to atoms (all electrons):
               1          2          3          4
     1  C    5.196805   0.242836   0.110244   0.110971
     2  S    0.242836  15.953638  -0.066158  -0.068248
     3  F    0.110244  -0.066158   9.178449  -0.081242
     4  F    0.110971  -0.068248  -0.081242   9.174303
 Mulliken charges:
               1
     1  C    0.339145
     2  S   -0.062068
     3  F   -0.141292
     4  F   -0.135784
 Sum of Mulliken charges =  -0.00000
 Mulliken charges with hydrogens summed into heavy atoms:
               1
     1  C    0.339145
     2  S   -0.062068
     3  F   -0.141292
     4  F   -0.135784
 Electronic spatial extent (au):  <R**2>=            314.3517
 Charge=             -0.0000 electrons
 Dipole moment (field-independent basis, Debye):
    X=             -0.0000    Y=              0.0209    Z=             -0.2687  Tot=              0.2695
 Quadrupole moment (field-independent basis, Debye-Ang):
   XX=            -27.2814   YY=            -30.1397   ZZ=            -27.9286
   XY=              0.0000   XZ=             -0.0000   YZ=             -0.0220
 Traceless Quadrupole moment (field-independent basis, Debye-Ang):
   XX=              1.1685   YY=             -1.6898   ZZ=              0.5213
   XY=              0.0000   XZ=             -0.0000   YZ=             -0.0220
 Octapole moment (field-independent basis, Debye-Ang**2):
  XXX=             -0.0000  YYY=              0.0552  ZZZ=              8.4992  XYY=             -0.0000
  XXY=              0.0165  XXZ=              0.6713  XZZ=             -0.0000  YZZ=              0.0584
  YYZ=              0.6983  XYZ=              0.0000
 Hexadecapole moment (field-independent basis, Debye-Ang**3):
 XXXX=            -28.1530 YYYY=            -96.1007 ZZZZ=           -214.2969 XXXY=              0.0000
 XXXZ=             -0.0000 YYYX=             -0.0000 YYYZ=             -0.2012 ZZZX=             -0.0000
 ZZZY=             -0.2009 XXYY=            -20.7128 XXZZ=            -40.4010 YYZZ=            -55.5062
 XXYZ=             -0.0641 YYXZ=             -0.0000 ZZXY=              0.0000
 N-N= 1.545948334357D+02 E-N=-1.820513548856D+03  KE= 6.350098463320D+02
 There are a total of       92046 grid points.
 ElSum from          density=       40.0000001686
 ElSum from atomic densities=       39.9999997617

 Hirshfeld populations at iteration   1 (CX, CA, CB, DipXYZ):
               1          2          3          4          5          6
     1  C    0.000001   2.882958   2.882958  -0.000000   0.000287  -0.241626
     2  S    0.000009   8.049457   8.049457  -0.000000   0.001032   0.184783
     3  F    0.000005   4.534555   4.534555  -0.000000   0.035583   0.026990
     4  F    0.000005   4.533030   4.533030  -0.000000  -0.034762   0.026228
       Tot   0.000019  20.000000  20.000000  -0.000000   0.002140  -0.003626

 Dip from Atomic Chgs              0.000000   0.006082  -0.102102
         Total Dipole             -0.000000   0.008223  -0.105728

 Hirshfeld charges, spin densities, dipoles, and CM5 charges using IRadAn=      5:
              Q-H        S-H        Dx         Dy         Dz        Q-CM5   
     1  C    0.234085   0.000000  -0.000000   0.000287  -0.241626   0.293948
     2  S   -0.098915   0.000000  -0.000000   0.001032   0.184783  -0.116799
     3  F   -0.069110   0.000000  -0.000000   0.035583   0.026990  -0.089944
     4  F   -0.066060   0.000000  -0.000000  -0.034762   0.026228  -0.087205
       Tot  -0.000000   0.000000  -0.000000   0.002140  -0.003626  -0.000000
 Hirshfeld charges with hydrogens summed into heavy atoms:
              Q-H       Q-CM5   
     1  C    0.234085   0.293948
     2  S   -0.098915  -0.116799
     3  F   -0.069110  -0.089944
     4  F   -0.066060  -0.087205
 
 EQQ= 0.000000000000E+00 EQD= 0.000000000000E+00 EDD=-0.239803141305E-02
 EQQ+QD+DD=-0.239803141305E-02
 
 Breneman (CHELPG) radii used.
 Generate Potential Derived Charges using the Breneman model, NDens= 1.
 Grid spacing= 0.300 Box extension= 2.800
 NStep X,Y,Z=   20     27     28   Total possible points=       15120
 Number of Points to Fit=    4636

 **********************************************************************

            Electrostatic Properties Using The CC Density.

 **********************************************************************

       Atomic Center    1 is at   0.000000  0.000000 -0.520349
       Atomic Center    2 is at   0.000000  0.000000  1.078525
       Atomic Center    3 is at   0.000000 -1.055221 -1.295538
       Atomic Center    4 is at   0.000000  1.055221 -1.285538
    4636 points will be used for fitting atomic charges
 Fitting point charges to electrostatic potential
 The dipole moment will be constrained to the correct value
 Charges from ESP fit, RMS=   0.00620 RRMS=   0.71985:
 ESP charges:
               1
     1  C    0.413607
     2  S   -0.158090
     3  F   -0.129820
     4  F   -0.125697
 Sum of ESP charges =   0.00000
 ESP charges with hydrogens summed into heavy atoms:
               1
     1  C    0.413607
     2  S   -0.158090
     3  F   -0.129820
     4  F   -0.125697
 Charge=   0.00000 Dipole=     0.0000     0.0209    -0.2687 Tot=     0.2695
 -----------------------------------------------------------------

              Electrostatic Properties (Atomic Units)

 -----------------------------------------------------------------
    Center     Electric         -------- Electric Field --------
               Potential          X             Y             Z
 -----------------------------------------------------------------
    1 Atom    -14.499273
    2 Atom    -59.213406
    3 Atom    -26.495908
    4 Atom    -26.494506
 -----------------------------------------------------------------
 ******************************Gaussian NBO Version 3.1******************************
             N A T U R A L   A T O M I C   O R B I T A L   A N D
          N A T U R A L   B O N D   O R B I T A L   A N A L Y S I S
 ******************************Gaussian NBO Version 3.1******************************
       /RESON  / : Allow strongly delocalized NBO set

 Analyzing the QCI/CC density

 Job title: f2cs-wavefunction                                               

 Storage needed:    106946 in NPA (2147483536 available)
 GSVD:  LWork=        5094 too small for GESVD, short by       54317 words or       54317 for optimal perf.


 NATURAL POPULATIONS:  Natural atomic orbital occupancies 
                                                          
   NAO  Atom  No  lang   Type(AO)    Occupancy
 --------------------------------------------
     1    C    1  S      Cor( 1S)     1.99946
     2    C    1  S      Val( 2S)     0.92726
     3    C    1  S      Ryd( 3S)     0.00607
     4    C    1  S      Ryd( 4S)     0.00026
     5    C    1  S      Ryd( 5S)     0.00006
     6    C    1  px     Val( 2p)     0.86047
     7    C    1  px     Ryd( 3p)     0.00618
     8    C    1  px     Ryd( 4p)     0.00050
     9    C    1  px     Ryd( 5p)     0.00045
    10    C    1  py     Val( 2p)     0.62308
    11    C    1  py     Ryd( 3p)     0.02279
    12    C    1  py     Ryd( 4p)     0.00057
    13    C    1  py     Ryd( 5p)     0.00032
    14    C    1  pz     Val( 2p)     0.86877
    15    C    1  pz     Ryd( 3p)     0.01823
    16    C    1  pz     Ryd( 4p)     0.00062
    17    C    1  pz     Ryd( 5p)     0.00040
    18    C    1  dxy    Ryd( 3d)     0.00786
    19    C    1  dxy    Ryd( 4d)     0.00053
    20    C    1  dxy    Ryd( 5d)     0.00025
    21    C    1  dxz    Ryd( 3d)     0.01457
    22    C    1  dxz    Ryd( 4d)     0.00048
    23    C    1  dxz    Ryd( 5d)     0.00038
    24    C    1  dyz    Ryd( 3d)     0.01128
    25    C    1  dyz    Ryd( 4d)     0.00041
    26    C    1  dyz    Ryd( 5d)     0.00019
    27    C    1  dx2y2  Ryd( 3d)     0.00605
    28    C    1  dx2y2  Ryd( 4d)     0.00044
    29    C    1  dx2y2  Ryd( 5d)     0.00043
    30    C    1  dz2    Ryd( 3d)     0.01096
    31    C    1  dz2    Ryd( 4d)     0.00060
    32    C    1  dz2    Ryd( 5d)     0.00022
    33    C    1  f(0)   Ryd( 4f)     0.00305
    34    C    1  f(0)   Ryd( 5f)     0.00029
    35    C    1  f(C1)  Ryd( 4f)     0.00147
    36    C    1  f(C1)  Ryd( 5f)     0.00042
    37    C    1  f(S1)  Ryd( 4f)     0.00244
    38    C    1  f(S1)  Ryd( 5f)     0.00066
    39    C    1  f(C2)  Ryd( 4f)     0.00221
    40    C    1  f(C2)  Ryd( 5f)     0.00028
    41    C    1  f(S2)  Ryd( 4f)     0.00219
    42    C    1  f(S2)  Ryd( 5f)     0.00036
    43    C    1  f(C3)  Ryd( 4f)     0.00123
    44    C    1  f(C3)  Ryd( 5f)     0.00035
    45    C    1  f(S3)  Ryd( 4f)     0.00110
    46    C    1  f(S3)  Ryd( 5f)     0.00024

    47    S    2  S      Cor( 1S)     2.00000
    48    S    2  S      Cor( 2S)     1.99876
    49    S    2  S      Val( 3S)     1.75730
    50    S    2  S      Ryd( 4S)     0.00665
    51    S    2  S      Ryd( 5S)     0.00026
    52    S    2  S      Ryd( 6S)     0.00019
    53    S    2  px     Cor( 2p)     1.99990
    54    S    2  px     Val( 3p)     1.28969
    55    S    2  px     Ryd( 4p)     0.00522
    56    S    2  px     Ryd( 5p)     0.00030
    57    S    2  px     Ryd( 6p)     0.00007
    58    S    2  py     Cor( 2p)     2.00001
    59    S    2  py     Val( 3p)     1.79844
    60    S    2  py     Ryd( 4p)     0.00858
    61    S    2  py     Ryd( 5p)     0.00051
    62    S    2  py     Ryd( 6p)     0.00010
    63    S    2  pz     Cor( 2p)     1.99964
    64    S    2  pz     Val( 3p)     1.02061
    65    S    2  pz     Ryd( 4p)     0.00505
    66    S    2  pz     Ryd( 5p)     0.00041
    67    S    2  pz     Ryd( 6p)     0.00009
    68    S    2  dxy    Ryd( 3d)     0.01641
    69    S    2  dxy    Ryd( 4d)     0.00052
    70    S    2  dxy    Ryd( 5d)     0.00009
    71    S    2  dxz    Ryd( 3d)     0.01940
    72    S    2  dxz    Ryd( 4d)     0.00048
    73    S    2  dxz    Ryd( 5d)     0.00017
    74    S    2  dyz    Ryd( 3d)     0.01482
    75    S    2  dyz    Ryd( 4d)     0.00050
    76    S    2  dyz    Ryd( 5d)     0.00024
    77    S    2  dx2y2  Ryd( 3d)     0.01621
    78    S    2  dx2y2  Ryd( 4d)     0.00053
    79    S    2  dx2y2  Ryd( 5d)     0.00008
    80    S    2  dz2    Ryd( 3d)     0.02159
    81    S    2  dz2    Ryd( 4d)     0.00043
    82    S    2  dz2    Ryd( 5d)     0.00015
    83    S    2  f(0)   Ryd( 4f)     0.00141
    84    S    2  f(0)   Ryd( 5f)     0.00018
    85    S    2  f(C1)  Ryd( 4f)     0.00095
    86    S    2  f(C1)  Ryd( 5f)     0.00012
    87    S    2  f(S1)  Ryd( 4f)     0.00105
    88    S    2  f(S1)  Ryd( 5f)     0.00016
    89    S    2  f(C2)  Ryd( 4f)     0.00095
    90    S    2  f(C2)  Ryd( 5f)     0.00013
    91    S    2  f(S2)  Ryd( 4f)     0.00094
    92    S    2  f(S2)  Ryd( 5f)     0.00012
    93    S    2  f(C3)  Ryd( 4f)     0.00134
    94    S    2  f(C3)  Ryd( 5f)     0.00012
    95    S    2  f(S3)  Ryd( 4f)     0.00135
    96    S    2  f(S3)  Ryd( 5f)     0.00012

    97    F    3  S      Cor( 1S)     1.99979
    98    F    3  S      Val( 2S)     1.82796
    99    F    3  S      Ryd( 3S)     0.00645
   100    F    3  S      Ryd( 4S)     0.00033
   101    F    3  S      Ryd( 5S)     0.00027
   102    F    3  px     Val( 2p)     1.87039
   103    F    3  px     Ryd( 3p)     0.01125
   104    F    3  px     Ryd( 4p)     0.00081
   105    F    3  px     Ryd( 5p)     0.00015
   106    F    3  py     Val( 2p)     1.71417
   107    F    3  py     Ryd( 3p)     0.00742
   108    F    3  py     Ryd( 4p)     0.00058
   109    F    3  py     Ryd( 5p)     0.00018
   110    F    3  pz     Val( 2p)     1.80753
   111    F    3  pz     Ryd( 3p)     0.00975
   112    F    3  pz     Ryd( 4p)     0.00073
   113    F    3  pz     Ryd( 5p)     0.00027
   114    F    3  dxy    Ryd( 3d)     0.00672
   115    F    3  dxy    Ryd( 4d)     0.00044
   116    F    3  dxy    Ryd( 5d)     0.00008
   117    F    3  dxz    Ryd( 3d)     0.00568
   118    F    3  dxz    Ryd( 4d)     0.00046
   119    F    3  dxz    Ryd( 5d)     0.00008
   120    F    3  dyz    Ryd( 3d)     0.00972
   121    F    3  dyz    Ryd( 4d)     0.00053
   122    F    3  dyz    Ryd( 5d)     0.00010
   123    F    3  dx2y2  Ryd( 3d)     0.00751
   124    F    3  dx2y2  Ryd( 4d)     0.00052
   125    F    3  dx2y2  Ryd( 5d)     0.00013
   126    F    3  dz2    Ryd( 3d)     0.00635
   127    F    3  dz2    Ryd( 4d)     0.00044
   128    F    3  dz2    Ryd( 5d)     0.00011
   129    F    3  f(0)   Ryd( 4f)     0.00053
   130    F    3  f(0)   Ryd( 5f)     0.00010
   131    F    3  f(C1)  Ryd( 4f)     0.00043
   132    F    3  f(C1)  Ryd( 5f)     0.00009
   133    F    3  f(S1)  Ryd( 4f)     0.00066
   134    F    3  f(S1)  Ryd( 5f)     0.00013
   135    F    3  f(C2)  Ryd( 4f)     0.00073
   136    F    3  f(C2)  Ryd( 5f)     0.00012
   137    F    3  f(S2)  Ryd( 4f)     0.00055
   138    F    3  f(S2)  Ryd( 5f)     0.00011
   139    F    3  f(C3)  Ryd( 4f)     0.00052
   140    F    3  f(C3)  Ryd( 5f)     0.00010
   141    F    3  f(S3)  Ryd( 4f)     0.00057
   142    F    3  f(S3)  Ryd( 5f)     0.00012

   143    F    4  S      Cor( 1S)     1.99979
   144    F    4  S      Val( 2S)     1.82571
   145    F    4  S      Ryd( 3S)     0.00643
   146    F    4  S      Ryd( 4S)     0.00033
   147    F    4  S      Ryd( 5S)     0.00027
   148    F    4  px     Val( 2p)     1.86874
   149    F    4  px     Ryd( 3p)     0.01120
   150    F    4  px     Ryd( 4p)     0.00081
   151    F    4  px     Ryd( 5p)     0.00015
   152    F    4  py     Val( 2p)     1.71295
   153    F    4  py     Ryd( 3p)     0.00736
   154    F    4  py     Ryd( 4p)     0.00058
   155    F    4  py     Ryd( 5p)     0.00018
   156    F    4  pz     Val( 2p)     1.81036
   157    F    4  pz     Ryd( 3p)     0.00977
   158    F    4  pz     Ryd( 4p)     0.00074
   159    F    4  pz     Ryd( 5p)     0.00028
   160    F    4  dxy    Ryd( 3d)     0.00678
   161    F    4  dxy    Ryd( 4d)     0.00044
   162    F    4  dxy    Ryd( 5d)     0.00008
   163    F    4  dxz    Ryd( 3d)     0.00569
   164    F    4  dxz    Ryd( 4d)     0.00046
   165    F    4  dxz    Ryd( 5d)     0.00008
   166    F    4  dyz    Ryd( 3d)     0.00982
   167    F    4  dyz    Ryd( 4d)     0.00053
   168    F    4  dyz    Ryd( 5d)     0.00010
   169    F    4  dx2y2  Ryd( 3d)     0.00762
   170    F    4  dx2y2  Ryd( 4d)     0.00052
   171    F    4  dx2y2  Ryd( 5d)     0.00013
   172    F    4  dz2    Ryd( 3d)     0.00639
   173    F    4  dz2    Ryd( 4d)     0.00045
   174    F    4  dz2    Ryd( 5d)     0.00011
   175    F    4  f(0)   Ryd( 4f)     0.00053
   176    F    4  f(0)   Ryd( 5f)     0.00010
   177    F    4  f(C1)  Ryd( 4f)     0.00043
   178    F    4  f(C1)  Ryd( 5f)     0.00009
   179    F    4  f(S1)  Ryd( 4f)     0.00067
   180    F    4  f(S1)  Ryd( 5f)     0.00013
   181    F    4  f(C2)  Ryd( 4f)     0.00073
   182    F    4  f(C2)  Ryd( 5f)     0.00012
   183    F    4  f(S2)  Ryd( 4f)     0.00055
   184    F    4  f(S2)  Ryd( 5f)     0.00011
   185    F    4  f(C3)  Ryd( 4f)     0.00053
   186    F    4  f(C3)  Ryd( 5f)     0.00011
   187    F    4  f(S3)  Ryd( 4f)     0.00057
   188    F    4  f(S3)  Ryd( 5f)     0.00012

 WARNING:  1 low occupancy (<1.9990e) core orbital  found on  S    2


 Summary of Natural Population Analysis:                  
                                                          
                                       Natural Population 
                Natural  -----------------------------------------------
    Atom  No    Charge         Core      Valence    Rydberg      Total
 -----------------------------------------------------------------------
      C    1    0.59359      1.99946     3.27958    0.12737     5.40641
      S    2    0.00764      9.99831     5.86604    0.12800    15.99236
      F    3   -0.30166      1.99979     7.22004    0.08182     9.30166
      F    4   -0.29958      1.99979     7.21775    0.08205     9.29958
 =======================================================================
   * Total *   -0.00000     15.99736    23.58341    0.41923    40.00000

                                 Natural Population      
 --------------------------------------------------------
   Core                      15.99736 ( 99.9835% of  16)
   Valence                   23.58341 ( 98.2642% of  24)
   Natural Minimal Basis     39.58077 ( 98.9519% of  40)
   Natural Rydberg Basis      0.41923 (  1.0481% of  40)
 --------------------------------------------------------

    Atom  No          Natural Electron Configuration
 ----------------------------------------------------------------------------
      C    1      [core]2S( 0.93)2p( 2.35)3S( 0.01)3p( 0.05)3d( 0.05)4f( 0.01)
      S    2      [core]3S( 1.76)3p( 4.11)4S( 0.01)3d( 0.09)4p( 0.02)4f( 0.01)
      F    3      [core]2S( 1.83)2p( 5.39)3S( 0.01)3p( 0.03)3d( 0.04)
      F    4      [core]2S( 1.83)2p( 5.39)3S( 0.01)3p( 0.03)3d( 0.04)


 NBO analysis skipped by request.
 Unable to Open any file for archive entry.
 1\1\GINC-TRAPISTA\SP\RQCISD-FC\Aug-CC-pVTZ\C1F2S1\WAGNER\03-Sep-2022\0
 \\# qcisd/aug-cc-pvtz nosymm density=current pop=(chelpg,hirshfeld,npa
 ,dipole)\\f2cs-wavefunction\\0,1\C,0,0.,0.,-0.520349\S,0,0.,0.,1.07852
 5\F,0,0.,-1.055221,-1.295538\F,0,0.,1.055221,-1.285538\\Version=EM64L-
 G16RevC.01\HF=-634.3571839\MP2=-635.1963026\MP3=-635.1998205\MP4D=-635
 .2166857\MP4DQ=-635.1973703\MP4SDQ=-635.208171\QCISD=-635.2072859\RMSD
 =5.391e-09\Dipole=0.,0.0082225,-0.1057282\Quadrupole=0.8687642,-1.2563
 223,0.387558,0.,0.,-0.0163328\PG=CS [SG(C1F2S1)]\\@
 The archive entry for this job was punched.


 QUHEN THE CAUSS IS TAKEN AWAY THE EFFECT WANISHETH.
 -- PROVERBS AND REASONS OF THE YEAR 1585
           AS REPRINTED IN PAISLEY MAGAZINE 1828.
 Job cpu time:       0 days  6 hours 25 minutes  2.3 seconds.
 Elapsed time:       0 days  0 hours 24 minutes 22.4 seconds.
 File lengths (MBytes):  RWF=  21970 Int=      0 D2E=      0 Chk=      4 Scr=      1
 Normal termination of Gaussian 16 at Sat Sep  3 18:39:46 2022.
