 Entering Gaussian System, Link 0=/home/wagner/chemistry/gaussian/g16/g16
 Input=GAUSSIAN.com
 Output=GAUSSIAN.log
 Initial command:
 /home/wagner/chemistry/gaussian/g16/l1.exe "/home/wagner/chemistry/gaussian/work/Gau-12769.inp" -scrdir="/home/wagner/chemistry/gaussian/work/"
 Entering Link 1 = /home/wagner/chemistry/gaussian/g16/l1.exe PID=     12771.
  
 Copyright (c) 1988-2019, Gaussian, Inc.  All Rights Reserved.
  
 This is part of the Gaussian(R) 16 program.  It is based on
 the Gaussian(R) 09 system (copyright 2009, Gaussian, Inc.),
 the Gaussian(R) 03 system (copyright 2003, Gaussian, Inc.),
 the Gaussian(R) 98 system (copyright 1998, Gaussian, Inc.),
 the Gaussian(R) 94 system (copyright 1995, Gaussian, Inc.),
 the Gaussian 92(TM) system (copyright 1992, Gaussian, Inc.),
 the Gaussian 90(TM) system (copyright 1990, Gaussian, Inc.),
 the Gaussian 88(TM) system (copyright 1988, Gaussian, Inc.),
 the Gaussian 86(TM) system (copyright 1986, Carnegie Mellon
 University), and the Gaussian 82(TM) system (copyright 1983,
 Carnegie Mellon University). Gaussian is a federally registered
 trademark of Gaussian, Inc.
  
 This software contains proprietary and confidential information,
 including trade secrets, belonging to Gaussian, Inc.
  
 This software is provided under written license and may be
 used, copied, transmitted, or stored only in accord with that
 written license.
  
 The following legend is applicable only to US Government
 contracts under FAR:
  
                    RESTRICTED RIGHTS LEGEND
  
 Use, reproduction and disclosure by the US Government is
 subject to restrictions as set forth in subparagraphs (a)
 and (c) of the Commercial Computer Software - Restricted
 Rights clause in FAR 52.227-19.
  
 Gaussian, Inc.
 340 Quinnipiac St., Bldg. 40, Wallingford CT 06492
  
  
 ---------------------------------------------------------------
 Warning -- This program may not be used in any manner that
 competes with the business of Gaussian, Inc. or will provide
 assistance to any competitor of Gaussian, Inc.  The licensee
 of this program is prohibited from giving any competitor of
 Gaussian, Inc. access to this program.  By using this program,
 the user acknowledges that Gaussian, Inc. is engaged in the
 business of creating and licensing software in the field of
 computational chemistry and represents and warrants to the
 licensee that it is not a competitor of Gaussian, Inc. and that
 it will not use this program in any manner prohibited above.
 ---------------------------------------------------------------
  

 Cite this work as:
 Gaussian 16, Revision C.01,
 M. J. Frisch, G. W. Trucks, H. B. Schlegel, G. E. Scuseria, 
 M. A. Robb, J. R. Cheeseman, G. Scalmani, V. Barone, 
 G. A. Petersson, H. Nakatsuji, X. Li, M. Caricato, A. V. Marenich, 
 J. Bloino, B. G. Janesko, R. Gomperts, B. Mennucci, H. P. Hratchian, 
 J. V. Ortiz, A. F. Izmaylov, J. L. Sonnenberg, D. Williams-Young, 
 F. Ding, F. Lipparini, F. Egidi, J. Goings, B. Peng, A. Petrone, 
 T. Henderson, D. Ranasinghe, V. G. Zakrzewski, J. Gao, N. Rega, 
 G. Zheng, W. Liang, M. Hada, M. Ehara, K. Toyota, R. Fukuda, 
 J. Hasegawa, M. Ishida, T. Nakajima, Y. Honda, O. Kitao, H. Nakai, 
 T. Vreven, K. Throssell, J. A. Montgomery, Jr., J. E. Peralta, 
 F. Ogliaro, M. J. Bearpark, J. J. Heyd, E. N. Brothers, K. N. Kudin, 
 V. N. Staroverov, T. A. Keith, R. Kobayashi, J. Normand, 
 K. Raghavachari, A. P. Rendell, J. C. Burant, S. S. Iyengar, 
 J. Tomasi, M. Cossi, J. M. Millam, M. Klene, C. Adamo, R. Cammi, 
 J. W. Ochterski, R. L. Martin, K. Morokuma, O. Farkas, 
 J. B. Foresman, and D. J. Fox, Gaussian, Inc., Wallingford CT, 2019.
 
 ******************************************
 Gaussian 16:  EM64L-G16RevC.01  3-Jul-2019
                 3-Sep-2022 
 ******************************************
 %nproc=16
 Will use up to   16 processors via shared memory.
 %mem=16GB
 ----------------------------------------------------------------------
 # qcisd/aug-cc-pvtz nosymm density=current pop=(chelpg,hirshfeld,npa,d
 ipole)
 ----------------------------------------------------------------------
 1/30=1,38=1,172=1/1;
 2/12=2,15=1,17=6,18=5,40=1/2;
 3/5=16,6=1,7=10,11=9,25=1,30=1,71=1/1,2,3;
 4//1;
 5/5=2,38=5/2;
 8/6=4,9=120000,10=1/1,4;
 9/5=8,15=1/13;
 11/28=-7,31=1,32=3,42=3/11;
 10/5=6,13=10,31=1/2;
 6/7=2,8=2,9=2,10=2,15=24,20=3,22=-1,40=-1,79=1/1,2,7;
 99/5=1,9=1/99;
 -----------------
 f2cs-wavefunction
 -----------------
 Symbolic Z-matrix:
 Charge =  0 Multiplicity = 1
 C                     0.        0.       -0.52035 
 S                     0.        0.        1.07852 
 F                     0.       -1.05522  -1.29554 
 F                     0.        1.05522  -1.29554 
 
                          Input orientation:                          
 ---------------------------------------------------------------------
 Center     Atomic      Atomic             Coordinates (Angstroms)
 Number     Number       Type             X           Y           Z
 ---------------------------------------------------------------------
      1          6           0        0.000000    0.000000   -0.520349
      2         16           0        0.000000    0.000000    1.078525
      3          9           0        0.000000   -1.055221   -1.295538
      4          9           0        0.000000    1.055221   -1.295538
 ---------------------------------------------------------------------
                    Distance matrix (angstroms):
                    1          2          3          4
     1  C    0.000000
     2  S    1.598874   0.000000
     3  F    1.309355   2.598012   0.000000
     4  F    1.309355   2.598012   2.110442   0.000000
 Symmetry turned off by external request.
 Stoichiometry    CF2S
 Framework group  C2V[C2(CS),SGV(F2)]
 Deg. of freedom     3
 Full point group                 C2V     NOp   4
 Rotational constants (GHZ):          11.9449202           5.1130871           3.5804544
 Standard basis: Aug-CC-pVTZ (5D, 7F)
   188 basis functions,   330 primitive gaussians,   224 cartesian basis functions
    20 alpha electrons       20 beta electrons
       nuclear repulsion energy       154.3928589764 Hartrees.
 NAtoms=    4 NActive=    4 NUniq=    4 SFac= 1.00D+00 NAtFMM=   60 NAOKFM=F Big=F
 Integral buffers will be    131072 words long.
 Raffenetti 1 integral format.
 Two-electron integral symmetry is turned off.
 One-electron integrals computed using PRISM.
 NBasis=   188 RedAO= T EigKep=  9.82D-05  NBF=   188
 NBsUse=   188 1.00D-06 EigRej= -1.00D+00 NBFU=   188
 ExpMin= 3.51D-02 ExpMax= 3.74D+05 ExpMxC= 1.18D+03 IAcc=3 IRadAn=         5 AccDes= 0.00D+00
 Harris functional with IExCor=  205 and IRadAn=       5 diagonalized for initial guess.
 HarFok:  IExCor=  205 AccDes= 0.00D+00 IRadAn=         5 IDoV= 1 UseB2=F ITyADJ=14
 ICtDFT=  3500011 ScaDFX=  1.000000  1.000000  1.000000  1.000000
 FoFCou: FMM=F IPFlag=           0 FMFlag=      100000 FMFlg1=           0
         NFxFlg=           0 DoJE=T BraDBF=F KetDBF=T FulRan=T
         wScrn=  0.000000 ICntrl=       500 IOpCl=  0 I1Cent=   200000004 NGrid=           0
         NMat0=    1 NMatS0=      1 NMatT0=    0 NMatD0=    1 NMtDS0=    0 NMtDT0=    0
 Symmetry not used in FoFCou.
 Keep R1 ints in memory in canonical form, NReq=165820989.
 Requested convergence on RMS density matrix=1.00D-08 within 128 cycles.
 Requested convergence on MAX density matrix=1.00D-06.
 Requested convergence on             energy=1.00D-06.
 No special actions if energy rises.
 SCF Done:  E(RHF) =  -634.356870458     A.U. after   12 cycles
            NFock= 12  Conv=0.62D-08     -V/T= 2.0005
 ExpMin= 3.51D-02 ExpMax= 3.74D+05 ExpMxC= 1.18D+03 IAcc=3 IRadAn=         5 AccDes= 0.00D+00
 HarFok:  IExCor=  205 AccDes= 0.00D+00 IRadAn=         5 IDoV=-2 UseB2=F ITyADJ=14
 ICtDFT= 12500011 ScaDFX=  1.000000  1.000000  1.000000  1.000000
 Range of M.O.s used for correlation:     9   188
 NBasis=   188 NAE=    20 NBE=    20 NFC=     8 NFV=     0
 NROrb=    180 NOA=    12 NOB=    12 NVA=   168 NVB=   168

 **** Warning!!: The largest alpha MO coefficient is  0.26786376D+02

 Semi-Direct transformation.
 ModeAB=           2 MOrb=            12 LenV=    2146475563
 LASXX=     33405819 LTotXX=    33405819 LenRXX=    33405819
 LTotAB=    33954012 MaxLAS=    54432000 LenRXY=    54432000
 NonZer=    66811638 LenScr=   100987392 LnRSAI=           0
 LnScr1=           0 LExtra=           0 Total=    188825211
 MaxDsk=          -1 SrtSym=           F ITran=            4
 JobTyp=0 Pass  1:  I=   1 to  12.
 (rs|ai) integrals will be sorted in core.
 Spin components of T(2) and E(2):
     alpha-alpha T2 =       0.3014340046D-01 E2=     -0.1104082429D+00
     alpha-beta  T2 =       0.1598226640D+00 E2=     -0.6187182528D+00
     beta-beta   T2 =       0.3014340046D-01 E2=     -0.1104082429D+00
 ANorm=    0.1104585653D+01
 E2 =    -0.8395347386D+00 EUMP2 =    -0.63519640519627D+03
 Keep R2 and R3 ints in memory in canonical form, NReq=323654062.
 CIDS: In Core Option IDoMem=           1.
 Iterations=  50 Convergence= 0.100D-07
 Produce multiple copies of IABC intergrals
 Iteration Nr.   1
 **********************
 DD1Dir will call FoFMem   1 times, MxPair=       156
 NAB=    78 NAA=     0 NBB=     0.
 MP4(R+Q)=  0.19352800D-01
 E3=       -0.33857022D-02        EUMP3=      -0.63519979090D+03
 E4(DQ)=    0.24272741D-02        UMP4(DQ)=   -0.63519736362D+03
 E4(SDQ)=  -0.84301915D-02        UMP4(SDQ)=  -0.63520822109D+03
 DE(Corr)= -0.82356764     E(Corr)=     -635.18043810    
 NORM(A)=   0.11038521D+01
 Iteration Nr.   2
 **********************
 DD1Dir will call FoFMem   1 times, MxPair=       156
 NAB=    78 NAA=     0 NBB=     0.
 DE(Corr)= -0.84925156     E(CORR)=     -635.20612202     Delta=-2.57D-02
 NORM(A)=   0.11127833D+01
 Iteration Nr.   3
 **********************
 DD1Dir will call FoFMem   1 times, MxPair=       156
 NAB=    78 NAA=     0 NBB=     0.
 DE(Corr)= -0.84757747     E(CORR)=     -635.20444793     Delta= 1.67D-03
 NORM(A)=   0.11156252D+01
 Iteration Nr.   4
 **********************
 DD1Dir will call FoFMem   1 times, MxPair=       156
 NAB=    78 NAA=     0 NBB=     0.
 DE(Corr)= -0.85010858     E(CORR)=     -635.20697904     Delta=-2.53D-03
 NORM(A)=   0.11167363D+01
 Iteration Nr.   5
 **********************
 DD1Dir will call FoFMem   1 times, MxPair=       156
 NAB=    78 NAA=     0 NBB=     0.
 DE(Corr)= -0.85040980     E(CORR)=     -635.20728025     Delta=-3.01D-04
 NORM(A)=   0.11170622D+01
 Iteration Nr.   6
 **********************
 DD1Dir will call FoFMem   1 times, MxPair=       156
 NAB=    78 NAA=     0 NBB=     0.
 DE(Corr)= -0.85044928     E(CORR)=     -635.20731974     Delta=-3.95D-05
 NORM(A)=   0.11171107D+01
 Iteration Nr.   7
 **********************
 DD1Dir will call FoFMem   1 times, MxPair=       156
 NAB=    78 NAA=     0 NBB=     0.
 DE(Corr)= -0.85045358     E(CORR)=     -635.20732404     Delta=-4.30D-06
 NORM(A)=   0.11171105D+01
 Iteration Nr.   8
 **********************
 DD1Dir will call FoFMem   1 times, MxPair=       156
 NAB=    78 NAA=     0 NBB=     0.
 DE(Corr)= -0.85045220     E(CORR)=     -635.20732266     Delta= 1.38D-06
 NORM(A)=   0.11171157D+01
 Iteration Nr.   9
 **********************
 DD1Dir will call FoFMem   1 times, MxPair=       156
 NAB=    78 NAA=     0 NBB=     0.
 DE(Corr)= -0.85045189     E(CORR)=     -635.20732234     Delta= 3.11D-07
 NORM(A)=   0.11171158D+01
 Iteration Nr.  10
 **********************
 DD1Dir will call FoFMem   1 times, MxPair=       156
 NAB=    78 NAA=     0 NBB=     0.
 DE(Corr)= -0.85045198     E(CORR)=     -635.20732244     Delta=-9.57D-08
 NORM(A)=   0.11171173D+01
 Iteration Nr.  11
 **********************
 DD1Dir will call FoFMem   1 times, MxPair=       156
 NAB=    78 NAA=     0 NBB=     0.
 DE(Corr)= -0.85045271     E(CORR)=     -635.20732317     Delta=-7.33D-07
 NORM(A)=   0.11171187D+01
 Iteration Nr.  12
 **********************
 DD1Dir will call FoFMem   1 times, MxPair=       156
 NAB=    78 NAA=     0 NBB=     0.
 DE(Corr)= -0.85045295     E(CORR)=     -635.20732341     Delta=-2.38D-07
 NORM(A)=   0.11171194D+01
 Iteration Nr.  13
 **********************
 DD1Dir will call FoFMem   1 times, MxPair=       156
 NAB=    78 NAA=     0 NBB=     0.
 DE(Corr)= -0.85045322     E(CORR)=     -635.20732367     Delta=-2.64D-07
 NORM(A)=   0.11171199D+01
 Iteration Nr.  14
 **********************
 DD1Dir will call FoFMem   1 times, MxPair=       156
 NAB=    78 NAA=     0 NBB=     0.
 DE(Corr)= -0.85045328     E(CORR)=     -635.20732373     Delta=-5.94D-08
 NORM(A)=   0.11171200D+01
 Iteration Nr.  15
 **********************
 DD1Dir will call FoFMem   1 times, MxPair=       156
 NAB=    78 NAA=     0 NBB=     0.
 DE(Corr)= -0.85045332     E(CORR)=     -635.20732377     Delta=-3.93D-08
 NORM(A)=   0.11171201D+01
 Iteration Nr.  16
 **********************
 DD1Dir will call FoFMem   1 times, MxPair=       156
 NAB=    78 NAA=     0 NBB=     0.
 DE(Corr)= -0.85045333     E(CORR)=     -635.20732378     Delta=-1.10D-08
 NORM(A)=   0.11171201D+01
 Iteration Nr.  17
 **********************
 DD1Dir will call FoFMem   1 times, MxPair=       156
 NAB=    78 NAA=     0 NBB=     0.
 DE(Corr)= -0.85045332     E(CORR)=     -635.20732378     Delta= 1.86D-09
 NORM(A)=   0.11171201D+01
 Wavefunction amplitudes converged. E(Corr)=     -635.20732378    
 Largest amplitude= 8.52D-02

 Z-amplitude iterations

 Iteration Nr.   1
 **********************
 DD1Dir will call FoFMem   1 times, MxPair=       156
 NAB=    78 NAA=     0 NBB=     0.
 DE(Z)= -0.82655013     E(Z)=     -635.18342059     Delta= 2.39D-02
 NORM(A)=   0.11171227D+01
 Iteration Nr.   2
 **********************
 DD1Dir will call FoFMem   1 times, MxPair=       156
 NAB=    78 NAA=     0 NBB=     0.
 DE(Z)= -0.82655013     E(Z)=     -635.18342059     Delta=-4.87D-09
 NORM(A)=   0.11171193D+01
 Iteration Nr.   3
 **********************
 DD1Dir will call FoFMem   1 times, MxPair=       156
 NAB=    78 NAA=     0 NBB=     0.
 DE(Z)= -0.82655011     E(Z)=     -635.18342057     Delta= 1.78D-08
 NORM(A)=   0.11171093D+01
 Iteration Nr.   4
 **********************
 DD1Dir will call FoFMem   1 times, MxPair=       156
 NAB=    78 NAA=     0 NBB=     0.
 DE(Z)= -0.82654998     E(Z)=     -635.18342044     Delta= 1.37D-07
 NORM(A)=   0.11171160D+01
 Iteration Nr.   5
 **********************
 DD1Dir will call FoFMem   1 times, MxPair=       156
 NAB=    78 NAA=     0 NBB=     0.
 DE(Z)= -0.82655006     E(Z)=     -635.18342052     Delta=-8.71D-08
 NORM(A)=   0.11090313D+01
 Iteration Nr.   6
 **********************
 DD1Dir will call FoFMem   1 times, MxPair=       156
 NAB=    78 NAA=     0 NBB=     0.
 DE(Z)= -0.82646946     E(Z)=     -635.18333991     Delta= 8.06D-05
 NORM(A)=   0.11089902D+01
 Iteration Nr.   7
 **********************
 DD1Dir will call FoFMem   1 times, MxPair=       156
 NAB=    78 NAA=     0 NBB=     0.
 DE(Z)= -0.82644894     E(Z)=     -635.18331939     Delta= 2.05D-05
 NORM(A)=   0.11088976D+01
 Iteration Nr.   8
 **********************
 DD1Dir will call FoFMem   1 times, MxPair=       156
 NAB=    78 NAA=     0 NBB=     0.
 DE(Z)= -0.82642401     E(Z)=     -635.18329447     Delta= 2.49D-05
 NORM(A)=   0.11088770D+01
 Iteration Nr.   9
 **********************
 DD1Dir will call FoFMem   1 times, MxPair=       156
 NAB=    78 NAA=     0 NBB=     0.
 DE(Z)= -0.82640901     E(Z)=     -635.18327946     Delta= 1.50D-05
 NORM(A)=   0.11088783D+01
 Iteration Nr.  10
 **********************
 DD1Dir will call FoFMem   1 times, MxPair=       156
 NAB=    78 NAA=     0 NBB=     0.
 DE(Z)= -0.82640932     E(Z)=     -635.18327978     Delta=-3.16D-07
 NORM(A)=   0.11088783D+01
 Iteration Nr.  11
 **********************
 DD1Dir will call FoFMem   1 times, MxPair=       156
 NAB=    78 NAA=     0 NBB=     0.
 DE(Z)= -0.82640940     E(Z)=     -635.18327986     Delta=-7.97D-08
 NORM(A)=   0.11088785D+01
 Iteration Nr.  12
 **********************
 DD1Dir will call FoFMem   1 times, MxPair=       156
 NAB=    78 NAA=     0 NBB=     0.
 DE(Z)= -0.82640959     E(Z)=     -635.18328005     Delta=-1.88D-07
 NORM(A)=   0.11088784D+01
 Iteration Nr.  13
 **********************
 DD1Dir will call FoFMem   1 times, MxPair=       156
 NAB=    78 NAA=     0 NBB=     0.
 DE(Z)= -0.82640947     E(Z)=     -635.18327993     Delta= 1.16D-07
 NORM(A)=   0.11088785D+01
 Iteration Nr.  14
 **********************
 DD1Dir will call FoFMem   1 times, MxPair=       156
 NAB=    78 NAA=     0 NBB=     0.
 DE(Z)= -0.82640950     E(Z)=     -635.18327996     Delta=-2.82D-08
 NORM(A)=   0.11088785D+01
 Iteration Nr.  15
 **********************
 DD1Dir will call FoFMem   1 times, MxPair=       156
 NAB=    78 NAA=     0 NBB=     0.
 DE(Z)= -0.82640951     E(Z)=     -635.18327996     Delta=-3.62D-09
 NORM(A)=   0.11088785D+01
 Z-amplitudes converged.
 Discarding MO integrals.
          Differentiating once with respect to electric field.
                with respect to dipole field.
          Electric field/nuclear overlap derivatives assumed to be zero.
 Keep R1 ints in memory in canonical form, NReq=165824681.
          There are     1 degrees of freedom in the 1st order CPHF.  IDoFFX=0 NUNeed=     1.
 LinEq1:  Iter=  0 NonCon=     1 RMS=2.85D-03 Max=7.75D-02 NDo=     1
 AX will form     1 AO Fock derivatives at one time.
 LinEq1:  Iter=  1 NonCon=     1 RMS=8.84D-04 Max=1.23D-02 NDo=     1
 LinEq1:  Iter=  2 NonCon=     1 RMS=4.03D-04 Max=1.29D-02 NDo=     1
 LinEq1:  Iter=  3 NonCon=     1 RMS=1.09D-04 Max=2.39D-03 NDo=     1
 LinEq1:  Iter=  4 NonCon=     1 RMS=2.69D-05 Max=6.37D-04 NDo=     1
 LinEq1:  Iter=  5 NonCon=     1 RMS=6.77D-06 Max=1.03D-04 NDo=     1
 LinEq1:  Iter=  6 NonCon=     1 RMS=2.67D-06 Max=5.71D-05 NDo=     1
 LinEq1:  Iter=  7 NonCon=     1 RMS=8.32D-07 Max=1.52D-05 NDo=     1
 LinEq1:  Iter=  8 NonCon=     1 RMS=1.67D-07 Max=2.33D-06 NDo=     1
 LinEq1:  Iter=  9 NonCon=     1 RMS=3.13D-08 Max=3.73D-07 NDo=     1
 LinEq1:  Iter= 10 NonCon=     1 RMS=6.21D-09 Max=7.38D-08 NDo=     1
 LinEq1:  Iter= 11 NonCon=     1 RMS=9.85D-10 Max=1.58D-08 NDo=     1
 LinEq1:  Iter= 12 NonCon=     1 RMS=1.41D-10 Max=1.93D-09 NDo=     1
 LinEq1:  Iter= 13 NonCon=     0 RMS=2.58D-11 Max=2.91D-10 NDo=     1
 Linear equations converged to 1.000D-10 1.000D-09 after    13 iterations.
 End of Minotr F.D. properties file   721 does not exist.
 End of Minotr F.D. properties file   722 does not exist.
 End of Minotr F.D. properties file   788 does not exist.

 **********************************************************************

            Population analysis using the CC Density.

 **********************************************************************

 Alpha  occ. eigenvalues --  -91.97613 -26.39009 -26.39007 -11.51898  -8.97975
 Alpha  occ. eigenvalues --   -6.66098  -6.65935  -6.65814  -1.75538  -1.68122
 Alpha  occ. eigenvalues --   -1.09885  -0.92971  -0.84409  -0.80259  -0.77541
 Alpha  occ. eigenvalues --   -0.72174  -0.70145  -0.59709  -0.43113  -0.40182
 Alpha virt. eigenvalues --    0.05279   0.05518   0.06433   0.08647   0.08686
 Alpha virt. eigenvalues --    0.10318   0.10818   0.12189   0.19610   0.20459
 Alpha virt. eigenvalues --    0.20849   0.23046   0.23428   0.26352   0.27025
 Alpha virt. eigenvalues --    0.27356   0.28389   0.29093   0.29408   0.29787
 Alpha virt. eigenvalues --    0.35826   0.36513   0.41254   0.41888   0.44977
 Alpha virt. eigenvalues --    0.46730   0.47980   0.51696   0.51932   0.53099
 Alpha virt. eigenvalues --    0.53100   0.62322   0.63496   0.66026   0.69881
 Alpha virt. eigenvalues --    0.73065   0.73518   0.74720   0.76549   0.77698
 Alpha virt. eigenvalues --    0.85044   0.85514   0.88442   0.89870   0.90686
 Alpha virt. eigenvalues --    0.96075   0.96113   1.02111   1.03760   1.07775
 Alpha virt. eigenvalues --    1.09119   1.10832   1.11275   1.12404   1.14889
 Alpha virt. eigenvalues --    1.14991   1.17536   1.19647   1.23184   1.25754
 Alpha virt. eigenvalues --    1.28115   1.32661   1.34904   1.39893   1.42785
 Alpha virt. eigenvalues --    1.44573   1.49611   1.53748   1.57403   1.65003
 Alpha virt. eigenvalues --    1.68046   1.70388   1.70796   1.71635   1.73822
 Alpha virt. eigenvalues --    1.78914   1.99691   2.03587   2.06752   2.07985
 Alpha virt. eigenvalues --    2.11677   2.26991   2.30628   2.32036   2.36355
 Alpha virt. eigenvalues --    2.41565   2.43357   2.43635   2.45858   2.51815
 Alpha virt. eigenvalues --    2.54846   2.58829   2.66478   2.75331   2.80293
 Alpha virt. eigenvalues --    2.84153   2.86225   2.90151   2.92781   2.93785
 Alpha virt. eigenvalues --    2.96805   2.99985   3.00196   3.06923   3.14453
 Alpha virt. eigenvalues --    3.15126   3.17791   3.19207   3.20768   3.32435
 Alpha virt. eigenvalues --    3.32917   3.37563   3.39755   3.45764   3.51483
 Alpha virt. eigenvalues --    3.55004   3.56043   3.63146   3.72920   3.73868
 Alpha virt. eigenvalues --    3.75328   3.75692   3.92813   4.00696   4.11268
 Alpha virt. eigenvalues --    4.19055   4.21575   4.26402   4.43270   4.55371
 Alpha virt. eigenvalues --    4.61060   4.70330   4.74830   4.85957   5.45566
 Alpha virt. eigenvalues --    5.51302   5.69179   5.88527   6.23897   6.59712
 Alpha virt. eigenvalues --    7.20595   8.78887   8.80633   8.86004   8.86926
 Alpha virt. eigenvalues --    8.99745   9.00213   9.10513   9.12516   9.19685
 Alpha virt. eigenvalues --    9.26586   9.27255   9.29488   9.33461   9.33987
 Alpha virt. eigenvalues --    9.36309   9.36569   9.39913   9.45569   9.54837
 Alpha virt. eigenvalues --    9.56216   9.59040   9.71916   9.84818   9.86776
 Alpha virt. eigenvalues --   12.04479  15.07576  16.12359
          Condensed to atoms (all electrons):
               1          2          3          4
     1  C    5.194518   0.242986   0.110522   0.110522
     2  S    0.242986  15.949610  -0.066551  -0.066551
     3  F    0.110522  -0.066551   9.178400  -0.081392
     4  F    0.110522  -0.066551  -0.081392   9.178400
 Mulliken charges:
               1
     1  C    0.341452
     2  S   -0.059494
     3  F   -0.140979
     4  F   -0.140979
 Sum of Mulliken charges =  -0.00000
 Mulliken charges with hydrogens summed into heavy atoms:
               1
     1  C    0.341452
     2  S   -0.059494
     3  F   -0.140979
     4  F   -0.140979
 Electronic spatial extent (au):  <R**2>=            315.2002
 Charge=             -0.0000 electrons
 Dipole moment (field-independent basis, Debye):
    X=             -0.0000    Y=              0.0000    Z=             -0.2243  Tot=              0.2243
 Quadrupole moment (field-independent basis, Debye-Ang):
   XX=            -27.2810   YY=            -30.1543   ZZ=            -27.9399
   XY=              0.0000   XZ=              0.0000   YZ=             -0.0000
 Traceless Quadrupole moment (field-independent basis, Debye-Ang):
   XX=              1.1774   YY=             -1.6959   ZZ=              0.5185
   XY=              0.0000   XZ=              0.0000   YZ=             -0.0000
 Octapole moment (field-independent basis, Debye-Ang**2):
  XXX=             -0.0000  YYY=              0.0000  ZZZ=              8.7842  XYY=             -0.0000
  XXY=             -0.0000  XXZ=              0.7522  XZZ=              0.0000  YZZ=              0.0000
  YYZ=              0.8022  XYZ=             -0.0000
 Hexadecapole moment (field-independent basis, Debye-Ang**3):
 XXXX=            -28.1326 YYYY=            -96.1674 ZZZZ=           -215.0424 XXXY=              0.0000
 XXXZ=             -0.0000 YYYX=              0.0000 YYYZ=              0.0000 ZZZX=              0.0000
 ZZZY=              0.0000 XXYY=            -20.7177 XXZZ=            -40.5190 YYZZ=            -55.6371
 XXYZ=             -0.0000 YYXZ=             -0.0000 ZZXY=             -0.0000
 N-N= 1.543928589764D+02 E-N=-1.820106244580D+03  KE= 6.349953469414D+02
 There are a total of       92046 grid points.
 ElSum from          density=       40.0000001753
 ElSum from atomic densities=       39.9999997673

 Hirshfeld populations at iteration   1 (CX, CA, CB, DipXYZ):
               1          2          3          4          5          6
     1  C    0.000001   2.882892   2.882892   0.000000   0.000000  -0.240499
     2  S    0.000009   8.048038   8.048038   0.000000   0.000000   0.186792
     3  F    0.000005   4.534535   4.534535   0.000000   0.035507   0.026690
     4  F    0.000005   4.534535   4.534535  -0.000000  -0.035507   0.026690
       Tot   0.000019  20.000000  20.000000   0.000000   0.000000  -0.000328

 Dip from Atomic Chgs              0.000000   0.000000  -0.087924
         Total Dipole              0.000000   0.000000  -0.088252

 Hirshfeld charges, spin densities, dipoles, and CM5 charges using IRadAn=      5:
              Q-H        S-H        Dx         Dy         Dz        Q-CM5   
     1  C    0.234217   0.000000   0.000000   0.000000  -0.240499   0.293783
     2  S   -0.096076   0.000000   0.000000   0.000000   0.186792  -0.113974
     3  F   -0.069071   0.000000   0.000000   0.035507   0.026690  -0.089905
     4  F   -0.069071   0.000000  -0.000000  -0.035507   0.026690  -0.089905
       Tot  -0.000000   0.000000   0.000000   0.000000  -0.000328  -0.000000
 Hirshfeld charges with hydrogens summed into heavy atoms:
              Q-H       Q-CM5   
     1  C    0.234217   0.293783
     2  S   -0.096076  -0.113974
     3  F   -0.069071  -0.089905
     4  F   -0.069071  -0.089905
 
 EQQ= 0.000000000000E+00 EQD= 0.000000000000E+00 EDD=-0.240050559869E-02
 EQQ+QD+DD=-0.240050559869E-02
 
 Breneman (CHELPG) radii used.
 Generate Potential Derived Charges using the Breneman model, NDens= 1.
 Grid spacing= 0.300 Box extension= 2.800
 NStep X,Y,Z=   20     27     28   Total possible points=       15120
 Number of Points to Fit=    4650

 **********************************************************************

            Electrostatic Properties Using The CC Density.

 **********************************************************************

       Atomic Center    1 is at   0.000000  0.000000 -0.520349
       Atomic Center    2 is at   0.000000  0.000000  1.078525
       Atomic Center    3 is at   0.000000 -1.055221 -1.295538
       Atomic Center    4 is at   0.000000  1.055221 -1.295538
    4650 points will be used for fitting atomic charges
 Fitting point charges to electrostatic potential
 The dipole moment will be constrained to the correct value
 Charges from ESP fit, RMS=   0.00619 RRMS=   0.72690:
 ESP charges:
               1
     1  C    0.410288
     2  S   -0.153640
     3  F   -0.128324
     4  F   -0.128324
 Sum of ESP charges =   0.00000
 ESP charges with hydrogens summed into heavy atoms:
               1
     1  C    0.410288
     2  S   -0.153640
     3  F   -0.128324
     4  F   -0.128324
 Charge=   0.00000 Dipole=     0.0000     0.0000    -0.2243 Tot=     0.2243
 -----------------------------------------------------------------

              Electrostatic Properties (Atomic Units)

 -----------------------------------------------------------------
    Center     Electric         -------- Electric Field --------
               Potential          X             Y             Z
 -----------------------------------------------------------------
    1 Atom    -14.498941
    2 Atom    -59.212440
    3 Atom    -26.495990
    4 Atom    -26.495990
 -----------------------------------------------------------------
 ******************************Gaussian NBO Version 3.1******************************
             N A T U R A L   A T O M I C   O R B I T A L   A N D
          N A T U R A L   B O N D   O R B I T A L   A N A L Y S I S
 ******************************Gaussian NBO Version 3.1******************************
       /RESON  / : Allow strongly delocalized NBO set

 Analyzing the QCI/CC density

 Job title: f2cs-wavefunction                                               

 Storage needed:    106946 in NPA (2147483536 available)
 GSVD:  LWork=        5094 too small for GESVD, short by       54317 words or       54317 for optimal perf.


 NATURAL POPULATIONS:  Natural atomic orbital occupancies 
                                                          
   NAO  Atom  No  lang   Type(AO)    Occupancy
 --------------------------------------------
     1    C    1  S      Cor( 1S)     1.99946
     2    C    1  S      Val( 2S)     0.92930
     3    C    1  S      Ryd( 3S)     0.00604
     4    C    1  S      Ryd( 4S)     0.00026
     5    C    1  S      Ryd( 5S)     0.00006
     6    C    1  px     Val( 2p)     0.86072
     7    C    1  px     Ryd( 3p)     0.00616
     8    C    1  px     Ryd( 4p)     0.00050
     9    C    1  px     Ryd( 5p)     0.00045
    10    C    1  py     Val( 2p)     0.62333
    11    C    1  py     Ryd( 3p)     0.02263
    12    C    1  py     Ryd( 4p)     0.00057
    13    C    1  py     Ryd( 5p)     0.00032
    14    C    1  pz     Val( 2p)     0.86775
    15    C    1  pz     Ryd( 3p)     0.01826
    16    C    1  pz     Ryd( 4p)     0.00062
    17    C    1  pz     Ryd( 5p)     0.00040
    18    C    1  dxy    Ryd( 3d)     0.00784
    19    C    1  dxy    Ryd( 4d)     0.00053
    20    C    1  dxy    Ryd( 5d)     0.00025
    21    C    1  dxz    Ryd( 3d)     0.01454
    22    C    1  dxz    Ryd( 4d)     0.00048
    23    C    1  dxz    Ryd( 5d)     0.00037
    24    C    1  dyz    Ryd( 3d)     0.01133
    25    C    1  dyz    Ryd( 4d)     0.00041
    26    C    1  dyz    Ryd( 5d)     0.00019
    27    C    1  dx2y2  Ryd( 3d)     0.00605
    28    C    1  dx2y2  Ryd( 4d)     0.00045
    29    C    1  dx2y2  Ryd( 5d)     0.00043
    30    C    1  dz2    Ryd( 3d)     0.01094
    31    C    1  dz2    Ryd( 4d)     0.00059
    32    C    1  dz2    Ryd( 5d)     0.00022
    33    C    1  f(0)   Ryd( 4f)     0.00305
    34    C    1  f(0)   Ryd( 5f)     0.00029
    35    C    1  f(C1)  Ryd( 4f)     0.00148
    36    C    1  f(C1)  Ryd( 5f)     0.00042
    37    C    1  f(S1)  Ryd( 4f)     0.00244
    38    C    1  f(S1)  Ryd( 5f)     0.00066
    39    C    1  f(C2)  Ryd( 4f)     0.00221
    40    C    1  f(C2)  Ryd( 5f)     0.00028
    41    C    1  f(S2)  Ryd( 4f)     0.00219
    42    C    1  f(S2)  Ryd( 5f)     0.00036
    43    C    1  f(C3)  Ryd( 4f)     0.00122
    44    C    1  f(C3)  Ryd( 5f)     0.00035
    45    C    1  f(S3)  Ryd( 4f)     0.00110
    46    C    1  f(S3)  Ryd( 5f)     0.00023

    47    S    2  S      Cor( 1S)     2.00000
    48    S    2  S      Cor( 2S)     1.99876
    49    S    2  S      Val( 3S)     1.75699
    50    S    2  S      Ryd( 4S)     0.00665
    51    S    2  S      Ryd( 5S)     0.00026
    52    S    2  S      Ryd( 6S)     0.00019
    53    S    2  px     Cor( 2p)     1.99990
    54    S    2  px     Val( 3p)     1.28829
    55    S    2  px     Ryd( 4p)     0.00520
    56    S    2  px     Ryd( 5p)     0.00030
    57    S    2  px     Ryd( 6p)     0.00007
    58    S    2  py     Cor( 2p)     2.00001
    59    S    2  py     Val( 3p)     1.79680
    60    S    2  py     Ryd( 4p)     0.00856
    61    S    2  py     Ryd( 5p)     0.00051
    62    S    2  py     Ryd( 6p)     0.00010
    63    S    2  pz     Cor( 2p)     1.99964
    64    S    2  pz     Val( 3p)     1.02041
    65    S    2  pz     Ryd( 4p)     0.00504
    66    S    2  pz     Ryd( 5p)     0.00041
    67    S    2  pz     Ryd( 6p)     0.00009
    68    S    2  dxy    Ryd( 3d)     0.01639
    69    S    2  dxy    Ryd( 4d)     0.00052
    70    S    2  dxy    Ryd( 5d)     0.00009
    71    S    2  dxz    Ryd( 3d)     0.01939
    72    S    2  dxz    Ryd( 4d)     0.00048
    73    S    2  dxz    Ryd( 5d)     0.00017
    74    S    2  dyz    Ryd( 3d)     0.01483
    75    S    2  dyz    Ryd( 4d)     0.00050
    76    S    2  dyz    Ryd( 5d)     0.00024
    77    S    2  dx2y2  Ryd( 3d)     0.01618
    78    S    2  dx2y2  Ryd( 4d)     0.00053
    79    S    2  dx2y2  Ryd( 5d)     0.00008
    80    S    2  dz2    Ryd( 3d)     0.02157
    81    S    2  dz2    Ryd( 4d)     0.00043
    82    S    2  dz2    Ryd( 5d)     0.00015
    83    S    2  f(0)   Ryd( 4f)     0.00141
    84    S    2  f(0)   Ryd( 5f)     0.00018
    85    S    2  f(C1)  Ryd( 4f)     0.00095
    86    S    2  f(C1)  Ryd( 5f)     0.00012
    87    S    2  f(S1)  Ryd( 4f)     0.00105
    88    S    2  f(S1)  Ryd( 5f)     0.00015
    89    S    2  f(C2)  Ryd( 4f)     0.00095
    90    S    2  f(C2)  Ryd( 5f)     0.00012
    91    S    2  f(S2)  Ryd( 4f)     0.00094
    92    S    2  f(S2)  Ryd( 5f)     0.00012
    93    S    2  f(C3)  Ryd( 4f)     0.00134
    94    S    2  f(C3)  Ryd( 5f)     0.00012
    95    S    2  f(S3)  Ryd( 4f)     0.00135
    96    S    2  f(S3)  Ryd( 5f)     0.00012

    97    F    3  S      Cor( 1S)     1.99979
    98    F    3  S      Val( 2S)     1.82796
    99    F    3  S      Ryd( 3S)     0.00645
   100    F    3  S      Ryd( 4S)     0.00033
   101    F    3  S      Ryd( 5S)     0.00027
   102    F    3  px     Val( 2p)     1.87021
   103    F    3  px     Ryd( 3p)     0.01126
   104    F    3  px     Ryd( 4p)     0.00081
   105    F    3  px     Ryd( 5p)     0.00015
   106    F    3  py     Val( 2p)     1.71453
   107    F    3  py     Ryd( 3p)     0.00743
   108    F    3  py     Ryd( 4p)     0.00058
   109    F    3  py     Ryd( 5p)     0.00018
   110    F    3  pz     Val( 2p)     1.80745
   111    F    3  pz     Ryd( 3p)     0.00975
   112    F    3  pz     Ryd( 4p)     0.00073
   113    F    3  pz     Ryd( 5p)     0.00027
   114    F    3  dxy    Ryd( 3d)     0.00673
   115    F    3  dxy    Ryd( 4d)     0.00044
   116    F    3  dxy    Ryd( 5d)     0.00008
   117    F    3  dxz    Ryd( 3d)     0.00568
   118    F    3  dxz    Ryd( 4d)     0.00046
   119    F    3  dxz    Ryd( 5d)     0.00008
   120    F    3  dyz    Ryd( 3d)     0.00972
   121    F    3  dyz    Ryd( 4d)     0.00053
   122    F    3  dyz    Ryd( 5d)     0.00010
   123    F    3  dx2y2  Ryd( 3d)     0.00751
   124    F    3  dx2y2  Ryd( 4d)     0.00052
   125    F    3  dx2y2  Ryd( 5d)     0.00013
   126    F    3  dz2    Ryd( 3d)     0.00636
   127    F    3  dz2    Ryd( 4d)     0.00045
   128    F    3  dz2    Ryd( 5d)     0.00011
   129    F    3  f(0)   Ryd( 4f)     0.00053
   130    F    3  f(0)   Ryd( 5f)     0.00010
   131    F    3  f(C1)  Ryd( 4f)     0.00043
   132    F    3  f(C1)  Ryd( 5f)     0.00009
   133    F    3  f(S1)  Ryd( 4f)     0.00066
   134    F    3  f(S1)  Ryd( 5f)     0.00013
   135    F    3  f(C2)  Ryd( 4f)     0.00073
   136    F    3  f(C2)  Ryd( 5f)     0.00012
   137    F    3  f(S2)  Ryd( 4f)     0.00055
   138    F    3  f(S2)  Ryd( 5f)     0.00011
   139    F    3  f(C3)  Ryd( 4f)     0.00052
   140    F    3  f(C3)  Ryd( 5f)     0.00011
   141    F    3  f(S3)  Ryd( 4f)     0.00057
   142    F    3  f(S3)  Ryd( 5f)     0.00012

   143    F    4  S      Cor( 1S)     1.99979
   144    F    4  S      Val( 2S)     1.82796
   145    F    4  S      Ryd( 3S)     0.00645
   146    F    4  S      Ryd( 4S)     0.00033
   147    F    4  S      Ryd( 5S)     0.00027
   148    F    4  px     Val( 2p)     1.87021
   149    F    4  px     Ryd( 3p)     0.01126
   150    F    4  px     Ryd( 4p)     0.00081
   151    F    4  px     Ryd( 5p)     0.00015
   152    F    4  py     Val( 2p)     1.71453
   153    F    4  py     Ryd( 3p)     0.00743
   154    F    4  py     Ryd( 4p)     0.00058
   155    F    4  py     Ryd( 5p)     0.00018
   156    F    4  pz     Val( 2p)     1.80745
   157    F    4  pz     Ryd( 3p)     0.00975
   158    F    4  pz     Ryd( 4p)     0.00073
   159    F    4  pz     Ryd( 5p)     0.00027
   160    F    4  dxy    Ryd( 3d)     0.00673
   161    F    4  dxy    Ryd( 4d)     0.00044
   162    F    4  dxy    Ryd( 5d)     0.00008
   163    F    4  dxz    Ryd( 3d)     0.00568
   164    F    4  dxz    Ryd( 4d)     0.00046
   165    F    4  dxz    Ryd( 5d)     0.00008
   166    F    4  dyz    Ryd( 3d)     0.00972
   167    F    4  dyz    Ryd( 4d)     0.00053
   168    F    4  dyz    Ryd( 5d)     0.00010
   169    F    4  dx2y2  Ryd( 3d)     0.00751
   170    F    4  dx2y2  Ryd( 4d)     0.00052
   171    F    4  dx2y2  Ryd( 5d)     0.00013
   172    F    4  dz2    Ryd( 3d)     0.00636
   173    F    4  dz2    Ryd( 4d)     0.00045
   174    F    4  dz2    Ryd( 5d)     0.00011
   175    F    4  f(0)   Ryd( 4f)     0.00053
   176    F    4  f(0)   Ryd( 5f)     0.00010
   177    F    4  f(C1)  Ryd( 4f)     0.00043
   178    F    4  f(C1)  Ryd( 5f)     0.00009
   179    F    4  f(S1)  Ryd( 4f)     0.00066
   180    F    4  f(S1)  Ryd( 5f)     0.00013
   181    F    4  f(C2)  Ryd( 4f)     0.00073
   182    F    4  f(C2)  Ryd( 5f)     0.00012
   183    F    4  f(S2)  Ryd( 4f)     0.00055
   184    F    4  f(S2)  Ryd( 5f)     0.00011
   185    F    4  f(C3)  Ryd( 4f)     0.00052
   186    F    4  f(C3)  Ryd( 5f)     0.00011
   187    F    4  f(S3)  Ryd( 4f)     0.00057
   188    F    4  f(S3)  Ryd( 5f)     0.00012

 WARNING:  1 low occupancy (<1.9990e) core orbital  found on  S    2


 Summary of Natural Population Analysis:                  
                                                          
                                       Natural Population 
                Natural  -----------------------------------------------
    Atom  No    Charge         Core      Valence    Rydberg      Total
 -----------------------------------------------------------------------
      C    1    0.59227      1.99946     3.28110    0.12717     5.40773
      S    2    0.01134      9.99831     5.86249    0.12786    15.98866
      F    3   -0.30181      1.99979     7.22015    0.08186     9.30181
      F    4   -0.30181      1.99979     7.22015    0.08186     9.30181
 =======================================================================
   * Total *    0.00000     15.99736    23.58389    0.41876    40.00000

                                 Natural Population      
 --------------------------------------------------------
   Core                      15.99736 ( 99.9835% of  16)
   Valence                   23.58389 ( 98.2662% of  24)
   Natural Minimal Basis     39.58124 ( 98.9531% of  40)
   Natural Rydberg Basis      0.41876 (  1.0469% of  40)
 --------------------------------------------------------

    Atom  No          Natural Electron Configuration
 ----------------------------------------------------------------------------
      C    1      [core]2S( 0.93)2p( 2.35)3S( 0.01)3p( 0.05)3d( 0.05)4f( 0.01)
      S    2      [core]3S( 1.76)3p( 4.11)4S( 0.01)3d( 0.09)4p( 0.02)4f( 0.01)
      F    3      [core]2S( 1.83)2p( 5.39)3S( 0.01)3p( 0.03)3d( 0.04)
      F    4      [core]2S( 1.83)2p( 5.39)3S( 0.01)3p( 0.03)3d( 0.04)


 NBO analysis skipped by request.
 Unable to Open any file for archive entry.
 1\1\GINC-TRAPISTA\SP\RQCISD-FC\Aug-CC-pVTZ\C1F2S1\WAGNER\03-Sep-2022\0
 \\# qcisd/aug-cc-pvtz nosymm density=current pop=(chelpg,hirshfeld,npa
 ,dipole)\\f2cs-wavefunction\\0,1\C,0,0.,0.,-0.520349\S,0,0.,0.,1.07852
 5\F,0,0.,-1.055221,-1.295538\F,0,0.,1.055221,-1.295538\\Version=EM64L-
 G16RevC.01\HF=-634.3568705\MP2=-635.1964052\MP3=-635.1997909\MP4D=-635
 .2167164\MP4DQ=-635.1973636\MP4SDQ=-635.2082211\QCISD=-635.2073238\RMS
 D=6.211e-09\Dipole=0.,0.,-0.0882524\Quadrupole=0.875385,-1.2608882,0.3
 855032,0.,0.,0.\PG=C02V [C2(C1S1),SGV(F2)]\\@
 The archive entry for this job was punched.


 ABSOLUTISM, OBSOLETISM -- IF IT WORKS, IT'S OUT OF DATE

                          -- STAFFORD BEER
 Job cpu time:       0 days  6 hours 44 minutes 25.1 seconds.
 Elapsed time:       0 days  0 hours 25 minutes 35.9 seconds.
 File lengths (MBytes):  RWF=  21970 Int=      0 D2E=      0 Chk=      4 Scr=      1
 Normal termination of Gaussian 16 at Sat Sep  3 08:55:44 2022.
