 Entering Gaussian System, Link 0=/home/wagner/chemistry/gaussian/g16/g16
 Input=GAUSSIAN.com
 Output=GAUSSIAN.log
 Initial command:
 /home/wagner/chemistry/gaussian/g16/l1.exe "/home/wagner/chemistry/gaussian/work/Gau-24538.inp" -scrdir="/home/wagner/chemistry/gaussian/work/"
 Entering Link 1 = /home/wagner/chemistry/gaussian/g16/l1.exe PID=     24540.
  
 Copyright (c) 1988-2019, Gaussian, Inc.  All Rights Reserved.
  
 This is part of the Gaussian(R) 16 program.  It is based on
 the Gaussian(R) 09 system (copyright 2009, Gaussian, Inc.),
 the Gaussian(R) 03 system (copyright 2003, Gaussian, Inc.),
 the Gaussian(R) 98 system (copyright 1998, Gaussian, Inc.),
 the Gaussian(R) 94 system (copyright 1995, Gaussian, Inc.),
 the Gaussian 92(TM) system (copyright 1992, Gaussian, Inc.),
 the Gaussian 90(TM) system (copyright 1990, Gaussian, Inc.),
 the Gaussian 88(TM) system (copyright 1988, Gaussian, Inc.),
 the Gaussian 86(TM) system (copyright 1986, Carnegie Mellon
 University), and the Gaussian 82(TM) system (copyright 1983,
 Carnegie Mellon University). Gaussian is a federally registered
 trademark of Gaussian, Inc.
  
 This software contains proprietary and confidential information,
 including trade secrets, belonging to Gaussian, Inc.
  
 This software is provided under written license and may be
 used, copied, transmitted, or stored only in accord with that
 written license.
  
 The following legend is applicable only to US Government
 contracts under FAR:
  
                    RESTRICTED RIGHTS LEGEND
  
 Use, reproduction and disclosure by the US Government is
 subject to restrictions as set forth in subparagraphs (a)
 and (c) of the Commercial Computer Software - Restricted
 Rights clause in FAR 52.227-19.
  
 Gaussian, Inc.
 340 Quinnipiac St., Bldg. 40, Wallingford CT 06492
  
  
 ---------------------------------------------------------------
 Warning -- This program may not be used in any manner that
 competes with the business of Gaussian, Inc. or will provide
 assistance to any competitor of Gaussian, Inc.  The licensee
 of this program is prohibited from giving any competitor of
 Gaussian, Inc. access to this program.  By using this program,
 the user acknowledges that Gaussian, Inc. is engaged in the
 business of creating and licensing software in the field of
 computational chemistry and represents and warrants to the
 licensee that it is not a competitor of Gaussian, Inc. and that
 it will not use this program in any manner prohibited above.
 ---------------------------------------------------------------
  

 Cite this work as:
 Gaussian 16, Revision C.01,
 M. J. Frisch, G. W. Trucks, H. B. Schlegel, G. E. Scuseria, 
 M. A. Robb, J. R. Cheeseman, G. Scalmani, V. Barone, 
 G. A. Petersson, H. Nakatsuji, X. Li, M. Caricato, A. V. Marenich, 
 J. Bloino, B. G. Janesko, R. Gomperts, B. Mennucci, H. P. Hratchian, 
 J. V. Ortiz, A. F. Izmaylov, J. L. Sonnenberg, D. Williams-Young, 
 F. Ding, F. Lipparini, F. Egidi, J. Goings, B. Peng, A. Petrone, 
 T. Henderson, D. Ranasinghe, V. G. Zakrzewski, J. Gao, N. Rega, 
 G. Zheng, W. Liang, M. Hada, M. Ehara, K. Toyota, R. Fukuda, 
 J. Hasegawa, M. Ishida, T. Nakajima, Y. Honda, O. Kitao, H. Nakai, 
 T. Vreven, K. Throssell, J. A. Montgomery, Jr., J. E. Peralta, 
 F. Ogliaro, M. J. Bearpark, J. J. Heyd, E. N. Brothers, K. N. Kudin, 
 V. N. Staroverov, T. A. Keith, R. Kobayashi, J. Normand, 
 K. Raghavachari, A. P. Rendell, J. C. Burant, S. S. Iyengar, 
 J. Tomasi, M. Cossi, J. M. Millam, M. Klene, C. Adamo, R. Cammi, 
 J. W. Ochterski, R. L. Martin, K. Morokuma, O. Farkas, 
 J. B. Foresman, and D. J. Fox, Gaussian, Inc., Wallingford CT, 2019.
 
 ******************************************
 Gaussian 16:  EM64L-G16RevC.01  3-Jul-2019
                 3-Sep-2022 
 ******************************************
 %nproc=16
 Will use up to   16 processors via shared memory.
 %mem=16GB
 ----------------------------------------------------------------------
 # qcisd/aug-cc-pvtz nosymm density=current pop=(chelpg,hirshfeld,npa,d
 ipole)
 ----------------------------------------------------------------------
 1/30=1,38=1,172=1/1;
 2/12=2,15=1,17=6,18=5,40=1/2;
 3/5=16,6=1,7=10,11=9,25=1,30=1,71=1/1,2,3;
 4//1;
 5/5=2,38=5/2;
 8/6=4,9=120000,10=1/1,4;
 9/5=8,15=1/13;
 11/28=-7,31=1,32=3,42=3/11;
 10/5=6,13=10,31=1/2;
 6/7=2,8=2,9=2,10=2,15=24,20=3,22=-1,40=-1,79=1/1,2,7;
 99/5=1,9=1/99;
 -----------------
 f2cs-wavefunction
 -----------------
 Symbolic Z-matrix:
 Charge =  0 Multiplicity = 1
 C                     0.        0.       -0.52035 
 S                     0.        0.        1.07852 
 F                     0.       -1.05522  -1.29554 
 F                     0.        1.04522  -1.29554 
 
                          Input orientation:                          
 ---------------------------------------------------------------------
 Center     Atomic      Atomic             Coordinates (Angstroms)
 Number     Number       Type             X           Y           Z
 ---------------------------------------------------------------------
      1          6           0        0.000000    0.000000   -0.520349
      2         16           0        0.000000    0.000000    1.078525
      3          9           0        0.000000   -1.055221   -1.295538
      4          9           0        0.000000    1.045221   -1.295538
 ---------------------------------------------------------------------
                    Distance matrix (angstroms):
                    1          2          3          4
     1  C    0.000000
     2  S    1.598874   0.000000
     3  F    1.309355   2.598012   0.000000
     4  F    1.301309   2.593966   2.100442   0.000000
 Symmetry turned off by external request.
 Stoichiometry    CF2S
 Framework group  CS[SG(CF2S)]
 Deg. of freedom     5
 Full point group                 CS      NOp   2
 Rotational constants (GHZ):          12.0589786           5.1130517           3.5906168
 Standard basis: Aug-CC-pVTZ (5D, 7F)
   188 basis functions,   330 primitive gaussians,   224 cartesian basis functions
    20 alpha electrons       20 beta electrons
       nuclear repulsion energy       154.6702303638 Hartrees.
 NAtoms=    4 NActive=    4 NUniq=    4 SFac= 1.00D+00 NAtFMM=   60 NAOKFM=F Big=F
 Integral buffers will be    131072 words long.
 Raffenetti 1 integral format.
 Two-electron integral symmetry is turned off.
 One-electron integrals computed using PRISM.
 NBasis=   188 RedAO= T EigKep=  9.80D-05  NBF=   188
 NBsUse=   188 1.00D-06 EigRej= -1.00D+00 NBFU=   188
 ExpMin= 3.51D-02 ExpMax= 3.74D+05 ExpMxC= 1.18D+03 IAcc=3 IRadAn=         5 AccDes= 0.00D+00
 Harris functional with IExCor=  205 and IRadAn=       5 diagonalized for initial guess.
 HarFok:  IExCor=  205 AccDes= 0.00D+00 IRadAn=         5 IDoV= 1 UseB2=F ITyADJ=14
 ICtDFT=  3500011 ScaDFX=  1.000000  1.000000  1.000000  1.000000
 FoFCou: FMM=F IPFlag=           0 FMFlag=      100000 FMFlg1=           0
         NFxFlg=           0 DoJE=T BraDBF=F KetDBF=T FulRan=T
         wScrn=  0.000000 ICntrl=       500 IOpCl=  0 I1Cent=   200000004 NGrid=           0
         NMat0=    1 NMatS0=      1 NMatT0=    0 NMatD0=    1 NMtDS0=    0 NMtDT0=    0
 Symmetry not used in FoFCou.
 Keep R1 ints in memory in canonical form, NReq=165821105.
 Requested convergence on RMS density matrix=1.00D-08 within 128 cycles.
 Requested convergence on MAX density matrix=1.00D-06.
 Requested convergence on             energy=1.00D-06.
 No special actions if energy rises.
 SCF Done:  E(RHF) =  -634.357311322     A.U. after   12 cycles
            NFock= 12  Conv=0.62D-08     -V/T= 2.0005
 ExpMin= 3.51D-02 ExpMax= 3.74D+05 ExpMxC= 1.18D+03 IAcc=3 IRadAn=         5 AccDes= 0.00D+00
 HarFok:  IExCor=  205 AccDes= 0.00D+00 IRadAn=         5 IDoV=-2 UseB2=F ITyADJ=14
 ICtDFT= 12500011 ScaDFX=  1.000000  1.000000  1.000000  1.000000
 Range of M.O.s used for correlation:     9   188
 NBasis=   188 NAE=    20 NBE=    20 NFC=     8 NFV=     0
 NROrb=    180 NOA=    12 NOB=    12 NVA=   168 NVB=   168

 **** Warning!!: The largest alpha MO coefficient is  0.25084475D+02

 Semi-Direct transformation.
 ModeAB=           2 MOrb=            12 LenV=    2146475507
 LASXX=     33405819 LTotXX=    33405819 LenRXX=    33405819
 LTotAB=    33954012 MaxLAS=    54432000 LenRXY=    54432000
 NonZer=    66811638 LenScr=   100987392 LnRSAI=           0
 LnScr1=           0 LExtra=           0 Total=    188825211
 MaxDsk=          -1 SrtSym=           F ITran=            4
 JobTyp=0 Pass  1:  I=   1 to  12.
 (rs|ai) integrals will be sorted in core.
 Spin components of T(2) and E(2):
     alpha-alpha T2 =       0.3007910706D-01 E2=     -0.1103485965D+00
     alpha-beta  T2 =       0.1594229170D+00 E2=     -0.6182518832D+00
     beta-beta   T2 =       0.3007910706D-01 E2=     -0.1103485965D+00
 ANorm=    0.1104346472D+01
 E2 =    -0.8389490762D+00 EUMP2 =    -0.63519626039834D+03
 Keep R2 and R3 ints in memory in canonical form, NReq=323654178.
 CIDS: In Core Option IDoMem=           1.
 Iterations=  50 Convergence= 0.100D-07
 Produce multiple copies of IABC intergrals
 Iteration Nr.   1
 **********************
 DD1Dir will call FoFMem   1 times, MxPair=       156
 NAB=    78 NAA=     0 NBB=     0.
 MP4(R+Q)=  0.19298979D-01
 E3=       -0.35583205D-02        EUMP3=      -0.63519981872D+03
 E4(DQ)=    0.24604784D-02        UMP4(DQ)=   -0.63519735824D+03
 E4(SDQ)=  -0.83238447D-02        UMP4(SDQ)=  -0.63520814256D+03
 DE(Corr)= -0.82320842     E(Corr)=     -635.18051974    
 NORM(A)=   0.11036529D+01
 Iteration Nr.   2
 **********************
 DD1Dir will call FoFMem   1 times, MxPair=       156
 NAB=    78 NAA=     0 NBB=     0.
 DE(Corr)= -0.84874274     E(CORR)=     -635.20605406     Delta=-2.55D-02
 NORM(A)=   0.11125340D+01
 Iteration Nr.   3
 **********************
 DD1Dir will call FoFMem   1 times, MxPair=       156
 NAB=    78 NAA=     0 NBB=     0.
 DE(Corr)= -0.84709984     E(CORR)=     -635.20441116     Delta= 1.64D-03
 NORM(A)=   0.11153514D+01
 Iteration Nr.   4
 **********************
 DD1Dir will call FoFMem   1 times, MxPair=       156
 NAB=    78 NAA=     0 NBB=     0.
 DE(Corr)= -0.84961010     E(CORR)=     -635.20692142     Delta=-2.51D-03
 NORM(A)=   0.11164545D+01
 Iteration Nr.   5
 **********************
 DD1Dir will call FoFMem   1 times, MxPair=       156
 NAB=    78 NAA=     0 NBB=     0.
 DE(Corr)= -0.84990827     E(CORR)=     -635.20721960     Delta=-2.98D-04
 NORM(A)=   0.11167785D+01
 Iteration Nr.   6
 **********************
 DD1Dir will call FoFMem   1 times, MxPair=       156
 NAB=    78 NAA=     0 NBB=     0.
 DE(Corr)= -0.84994742     E(CORR)=     -635.20725874     Delta=-3.91D-05
 NORM(A)=   0.11168265D+01
 Iteration Nr.   7
 **********************
 DD1Dir will call FoFMem   1 times, MxPair=       156
 NAB=    78 NAA=     0 NBB=     0.
 DE(Corr)= -0.84995166     E(CORR)=     -635.20726298     Delta=-4.24D-06
 NORM(A)=   0.11168267D+01
 Iteration Nr.   8
 **********************
 DD1Dir will call FoFMem   1 times, MxPair=       156
 NAB=    78 NAA=     0 NBB=     0.
 DE(Corr)= -0.84995008     E(CORR)=     -635.20726140     Delta= 1.58D-06
 NORM(A)=   0.11168320D+01
 Iteration Nr.   9
 **********************
 DD1Dir will call FoFMem   1 times, MxPair=       156
 NAB=    78 NAA=     0 NBB=     0.
 DE(Corr)= -0.84994994     E(CORR)=     -635.20726126     Delta= 1.39D-07
 NORM(A)=   0.11168322D+01
 Iteration Nr.  10
 **********************
 DD1Dir will call FoFMem   1 times, MxPair=       156
 NAB=    78 NAA=     0 NBB=     0.
 DE(Corr)= -0.84994994     E(CORR)=     -635.20726126     Delta= 4.04D-09
 NORM(A)=   0.11168338D+01
 Iteration Nr.  11
 **********************
 DD1Dir will call FoFMem   1 times, MxPair=       156
 NAB=    78 NAA=     0 NBB=     0.
 DE(Corr)= -0.84995078     E(CORR)=     -635.20726210     Delta=-8.37D-07
 NORM(A)=   0.11168352D+01
 Iteration Nr.  12
 **********************
 DD1Dir will call FoFMem   1 times, MxPair=       156
 NAB=    78 NAA=     0 NBB=     0.
 DE(Corr)= -0.84995099     E(CORR)=     -635.20726231     Delta=-2.11D-07
 NORM(A)=   0.11168359D+01
 Iteration Nr.  13
 **********************
 DD1Dir will call FoFMem   1 times, MxPair=       156
 NAB=    78 NAA=     0 NBB=     0.
 DE(Corr)= -0.84995127     E(CORR)=     -635.20726259     Delta=-2.86D-07
 NORM(A)=   0.11168364D+01
 Iteration Nr.  14
 **********************
 DD1Dir will call FoFMem   1 times, MxPair=       156
 NAB=    78 NAA=     0 NBB=     0.
 DE(Corr)= -0.84995133     E(CORR)=     -635.20726265     Delta=-5.59D-08
 NORM(A)=   0.11168365D+01
 Iteration Nr.  15
 **********************
 DD1Dir will call FoFMem   1 times, MxPair=       156
 NAB=    78 NAA=     0 NBB=     0.
 DE(Corr)= -0.84995137     E(CORR)=     -635.20726269     Delta=-3.90D-08
 NORM(A)=   0.11168366D+01
 Iteration Nr.  16
 **********************
 DD1Dir will call FoFMem   1 times, MxPair=       156
 NAB=    78 NAA=     0 NBB=     0.
 DE(Corr)= -0.84995138     E(CORR)=     -635.20726270     Delta=-1.19D-08
 NORM(A)=   0.11168366D+01
 Iteration Nr.  17
 **********************
 DD1Dir will call FoFMem   1 times, MxPair=       156
 NAB=    78 NAA=     0 NBB=     0.
 DE(Corr)= -0.84995138     E(CORR)=     -635.20726270     Delta= 3.59D-09
 NORM(A)=   0.11168366D+01
 Wavefunction amplitudes converged. E(Corr)=     -635.20726270    
 Largest amplitude= 8.42D-02

 Z-amplitude iterations

 Iteration Nr.   1
 **********************
 DD1Dir will call FoFMem   1 times, MxPair=       156
 NAB=    78 NAA=     0 NBB=     0.
 DE(Z)= -0.82613054     E(Z)=     -635.18344187     Delta= 2.38D-02
 NORM(A)=   0.11168322D+01
 Iteration Nr.   2
 **********************
 DD1Dir will call FoFMem   1 times, MxPair=       156
 NAB=    78 NAA=     0 NBB=     0.
 DE(Z)= -0.82613053     E(Z)=     -635.18344185     Delta= 1.06D-08
 NORM(A)=   0.11168399D+01
 Iteration Nr.   3
 **********************
 DD1Dir will call FoFMem   1 times, MxPair=       156
 NAB=    78 NAA=     0 NBB=     0.
 DE(Z)= -0.82613060     E(Z)=     -635.18344192     Delta=-6.32D-08
 NORM(A)=   0.11168331D+01
 Iteration Nr.   4
 **********************
 DD1Dir will call FoFMem   1 times, MxPair=       156
 NAB=    78 NAA=     0 NBB=     0.
 DE(Z)= -0.82613050     E(Z)=     -635.18344182     Delta= 9.81D-08
 NORM(A)=   0.11168341D+01
 Iteration Nr.   5
 **********************
 DD1Dir will call FoFMem   1 times, MxPair=       156
 NAB=    78 NAA=     0 NBB=     0.
 DE(Z)= -0.82613052     E(Z)=     -635.18344184     Delta=-2.25D-08
 NORM(A)=   0.11086858D+01
 Iteration Nr.   6
 **********************
 DD1Dir will call FoFMem   1 times, MxPair=       156
 NAB=    78 NAA=     0 NBB=     0.
 DE(Z)= -0.82601235     E(Z)=     -635.18332367     Delta= 1.18D-04
 NORM(A)=   0.11086494D+01
 Iteration Nr.   7
 **********************
 DD1Dir will call FoFMem   1 times, MxPair=       156
 NAB=    78 NAA=     0 NBB=     0.
 DE(Z)= -0.82598306     E(Z)=     -635.18329438     Delta= 2.93D-05
 NORM(A)=   0.11086378D+01
 Iteration Nr.   8
 **********************
 DD1Dir will call FoFMem   1 times, MxPair=       156
 NAB=    78 NAA=     0 NBB=     0.
 DE(Z)= -0.82598841     E(Z)=     -635.18329973     Delta=-5.35D-06
 NORM(A)=   0.11086327D+01
 Iteration Nr.   9
 **********************
 DD1Dir will call FoFMem   1 times, MxPair=       156
 NAB=    78 NAA=     0 NBB=     0.
 DE(Z)= -0.82598587     E(Z)=     -635.18329719     Delta= 2.54D-06
 NORM(A)=   0.11086333D+01
 Iteration Nr.  10
 **********************
 DD1Dir will call FoFMem   1 times, MxPair=       156
 NAB=    78 NAA=     0 NBB=     0.
 DE(Z)= -0.82598669     E(Z)=     -635.18329802     Delta=-8.23D-07
 NORM(A)=   0.11086335D+01
 Iteration Nr.  11
 **********************
 DD1Dir will call FoFMem   1 times, MxPair=       156
 NAB=    78 NAA=     0 NBB=     0.
 DE(Z)= -0.82598683     E(Z)=     -635.18329815     Delta=-1.37D-07
 NORM(A)=   0.11086336D+01
 Iteration Nr.  12
 **********************
 DD1Dir will call FoFMem   1 times, MxPair=       156
 NAB=    78 NAA=     0 NBB=     0.
 DE(Z)= -0.82598675     E(Z)=     -635.18329808     Delta= 7.55D-08
 NORM(A)=   0.11086336D+01
 Iteration Nr.  13
 **********************
 DD1Dir will call FoFMem   1 times, MxPair=       156
 NAB=    78 NAA=     0 NBB=     0.
 DE(Z)= -0.82598684     E(Z)=     -635.18329816     Delta=-8.59D-08
 NORM(A)=   0.11086336D+01
 Iteration Nr.  14
 **********************
 DD1Dir will call FoFMem   1 times, MxPair=       156
 NAB=    78 NAA=     0 NBB=     0.
 DE(Z)= -0.82598678     E(Z)=     -635.18329810     Delta= 5.92D-08
 NORM(A)=   0.11086336D+01
 Iteration Nr.  15
 **********************
 DD1Dir will call FoFMem   1 times, MxPair=       156
 NAB=    78 NAA=     0 NBB=     0.
 DE(Z)= -0.82598679     E(Z)=     -635.18329812     Delta=-1.24D-08
 NORM(A)=   0.11086336D+01
 Iteration Nr.  16
 **********************
 DD1Dir will call FoFMem   1 times, MxPair=       156
 NAB=    78 NAA=     0 NBB=     0.
 DE(Z)= -0.82598679     E(Z)=     -635.18329811     Delta= 3.27D-09
 NORM(A)=   0.11086336D+01
 Z-amplitudes converged.
 Discarding MO integrals.
          Differentiating once with respect to electric field.
                with respect to dipole field.
          Electric field/nuclear overlap derivatives assumed to be zero.
 Keep R1 ints in memory in canonical form, NReq=165824797.
          There are     1 degrees of freedom in the 1st order CPHF.  IDoFFX=0 NUNeed=     1.
 LinEq1:  Iter=  0 NonCon=     1 RMS=2.85D-03 Max=7.70D-02 NDo=     1
 AX will form     1 AO Fock derivatives at one time.
 LinEq1:  Iter=  1 NonCon=     1 RMS=8.79D-04 Max=1.22D-02 NDo=     1
 LinEq1:  Iter=  2 NonCon=     1 RMS=4.00D-04 Max=1.29D-02 NDo=     1
 LinEq1:  Iter=  3 NonCon=     1 RMS=1.08D-04 Max=2.40D-03 NDo=     1
 LinEq1:  Iter=  4 NonCon=     1 RMS=2.70D-05 Max=6.37D-04 NDo=     1
 LinEq1:  Iter=  5 NonCon=     1 RMS=6.80D-06 Max=1.01D-04 NDo=     1
 LinEq1:  Iter=  6 NonCon=     1 RMS=2.71D-06 Max=5.72D-05 NDo=     1
 LinEq1:  Iter=  7 NonCon=     1 RMS=8.36D-07 Max=1.52D-05 NDo=     1
 LinEq1:  Iter=  8 NonCon=     1 RMS=1.67D-07 Max=2.34D-06 NDo=     1
 LinEq1:  Iter=  9 NonCon=     1 RMS=3.26D-08 Max=3.64D-07 NDo=     1
 LinEq1:  Iter= 10 NonCon=     1 RMS=9.29D-09 Max=1.25D-07 NDo=     1
 LinEq1:  Iter= 11 NonCon=     1 RMS=3.93D-09 Max=5.22D-08 NDo=     1
 LinEq1:  Iter= 12 NonCon=     1 RMS=8.32D-10 Max=1.38D-08 NDo=     1
 LinEq1:  Iter= 13 NonCon=     1 RMS=1.15D-10 Max=1.46D-09 NDo=     1
 LinEq1:  Iter= 14 NonCon=     0 RMS=2.09D-11 Max=2.09D-10 NDo=     1
 Linear equations converged to 1.000D-10 1.000D-09 after    14 iterations.
 End of Minotr F.D. properties file   721 does not exist.
 End of Minotr F.D. properties file   722 does not exist.
 End of Minotr F.D. properties file   788 does not exist.

 **********************************************************************

            Population analysis using the CC Density.

 **********************************************************************

 Alpha  occ. eigenvalues --  -91.97535 -26.39191 -26.38906 -11.51847  -8.97901
 Alpha  occ. eigenvalues --   -6.66024  -6.65860  -6.65740  -1.75868  -1.68262
 Alpha  occ. eigenvalues --   -1.09866  -0.93168  -0.84591  -0.80459  -0.77678
 Alpha  occ. eigenvalues --   -0.72231  -0.70172  -0.59679  -0.43050  -0.40136
 Alpha virt. eigenvalues --    0.05372   0.05530   0.06425   0.08641   0.08678
 Alpha virt. eigenvalues --    0.10320   0.10825   0.12209   0.19610   0.20452
 Alpha virt. eigenvalues --    0.20872   0.23098   0.23410   0.26337   0.27068
 Alpha virt. eigenvalues --    0.27321   0.28399   0.29112   0.29424   0.29830
 Alpha virt. eigenvalues --    0.35826   0.36554   0.41294   0.42004   0.45050
 Alpha virt. eigenvalues --    0.46838   0.47971   0.51692   0.51942   0.53055
 Alpha virt. eigenvalues --    0.53484   0.62332   0.63455   0.66062   0.69862
 Alpha virt. eigenvalues --    0.73096   0.73509   0.74776   0.76582   0.77675
 Alpha virt. eigenvalues --    0.85112   0.85550   0.88493   0.89983   0.90699
 Alpha virt. eigenvalues --    0.96096   0.96161   1.02100   1.03911   1.07787
 Alpha virt. eigenvalues --    1.09301   1.10814   1.11122   1.12440   1.14837
 Alpha virt. eigenvalues --    1.15061   1.17602   1.19662   1.23250   1.25826
 Alpha virt. eigenvalues --    1.28094   1.32780   1.34730   1.39659   1.42839
 Alpha virt. eigenvalues --    1.44698   1.49596   1.53699   1.57452   1.65070
 Alpha virt. eigenvalues --    1.68103   1.70408   1.70886   1.71875   1.73817
 Alpha virt. eigenvalues --    1.78805   1.99922   2.03522   2.06818   2.08015
 Alpha virt. eigenvalues --    2.11831   2.26930   2.30699   2.32100   2.36409
 Alpha virt. eigenvalues --    2.41677   2.43423   2.43639   2.45821   2.51814
 Alpha virt. eigenvalues --    2.55425   2.59055   2.66467   2.75394   2.80315
 Alpha virt. eigenvalues --    2.84343   2.86183   2.90193   2.92719   2.94000
 Alpha virt. eigenvalues --    2.97120   3.00137   3.00450   3.06562   3.14558
 Alpha virt. eigenvalues --    3.15157   3.17888   3.19067   3.21366   3.32367
 Alpha virt. eigenvalues --    3.33144   3.37976   3.39666   3.46071   3.51692
 Alpha virt. eigenvalues --    3.54723   3.56108   3.63628   3.72999   3.74136
 Alpha virt. eigenvalues --    3.75336   3.76057   3.93576   4.00891   4.11184
 Alpha virt. eigenvalues --    4.19622   4.22216   4.27036   4.43429   4.55745
 Alpha virt. eigenvalues --    4.61834   4.71082   4.75141   4.85917   5.46047
 Alpha virt. eigenvalues --    5.51967   5.70813   5.88964   6.24011   6.60179
 Alpha virt. eigenvalues --    7.22061   8.78668   8.80496   8.86024   8.86990
 Alpha virt. eigenvalues --    9.00181   9.00280   9.10222   9.12668   9.19647
 Alpha virt. eigenvalues --    9.26628   9.26966   9.29646   9.33975   9.34085
 Alpha virt. eigenvalues --    9.36626   9.36691   9.39917   9.44904   9.55022
 Alpha virt. eigenvalues --    9.56758   9.59433   9.72554   9.84945   9.87109
 Alpha virt. eigenvalues --   12.09938  15.12302  16.14804
          Condensed to atoms (all electrons):
               1          2          3          4
     1  C    5.193549   0.244196   0.111224   0.112107
     2  S    0.244196  15.952874  -0.066896  -0.068434
     3  F    0.111224  -0.066896   9.182239  -0.083910
     4  F    0.112107  -0.068434  -0.083910   9.174764
 Mulliken charges:
               1
     1  C    0.338924
     2  S   -0.061740
     3  F   -0.142657
     4  F   -0.134526
 Sum of Mulliken charges =  -0.00000
 Mulliken charges with hydrogens summed into heavy atoms:
               1
     1  C    0.338924
     2  S   -0.061740
     3  F   -0.142657
     4  F   -0.134526
 Electronic spatial extent (au):  <R**2>=            314.5037
 Charge=             -0.0000 electrons
 Dipole moment (field-independent basis, Debye):
    X=              0.0000    Y=              0.0324    Z=             -0.2556  Tot=              0.2577
 Quadrupole moment (field-independent basis, Debye-Ang):
   XX=            -27.2807   YY=            -30.1353   ZZ=            -27.9304
   XY=             -0.0000   XZ=              0.0000   YZ=             -0.0473
 Traceless Quadrupole moment (field-independent basis, Debye-Ang):
   XX=              1.1681   YY=             -1.6865   ZZ=              0.5184
   XY=             -0.0000   XZ=              0.0000   YZ=             -0.0473
 Octapole moment (field-independent basis, Debye-Ang**2):
  XXX=             -0.0000  YYY=              0.2235  ZZZ=              8.6746  XYY=             -0.0000
  XXY=              0.0654  XXZ=              0.7136  XZZ=              0.0000  YZZ=              0.1165
  YYZ=              0.7562  XYZ=             -0.0000
 Hexadecapole moment (field-independent basis, Debye-Ang**3):
 XXXX=            -28.1535 YYYY=            -95.5470 ZZZZ=           -214.9477 XXXY=              0.0000
 XXXZ=             -0.0000 YYYX=              0.0000 YYYZ=             -0.2935 ZZZX=              0.0000
 ZZZY=             -0.3188 XXYY=            -20.6125 XXZZ=            -40.5184 YYZZ=            -55.5077
 XXYZ=             -0.0889 YYXZ=             -0.0000 ZZXY=             -0.0000
 N-N= 1.546702303638D+02 E-N=-1.820667947902D+03  KE= 6.350169964409D+02
 There are a total of       92046 grid points.
 ElSum from          density=       40.0000001871
 ElSum from atomic densities=       39.9999997544

 Hirshfeld populations at iteration   1 (CX, CA, CB, DipXYZ):
               1          2          3          4          5          6
     1  C    0.000001   2.882984   2.882984   0.000000   0.000846  -0.239947
     2  S    0.000009   8.049249   8.049249   0.000000  -0.000876   0.185678
     3  F    0.000005   4.535148   4.535148   0.000000   0.036249   0.026834
     4  F    0.000005   4.532619   4.532619  -0.000000  -0.034778   0.025924
       Tot   0.000019  20.000000  20.000000   0.000000   0.001440  -0.001511

 Dip from Atomic Chgs              0.000000   0.011319  -0.099066
         Total Dipole              0.000000   0.012759  -0.100577

 Hirshfeld charges, spin densities, dipoles, and CM5 charges using IRadAn=      5:
              Q-H        S-H        Dx         Dy         Dz        Q-CM5   
     1  C    0.234031   0.000000   0.000000   0.000846  -0.239947   0.294004
     2  S   -0.098499   0.000000   0.000000  -0.000876   0.185678  -0.116391
     3  F   -0.070295   0.000000   0.000000   0.036249   0.026834  -0.091130
     4  F   -0.065237   0.000000  -0.000000  -0.034778   0.025924  -0.086484
       Tot  -0.000000   0.000000   0.000000   0.001440  -0.001511  -0.000000
 Hirshfeld charges with hydrogens summed into heavy atoms:
              Q-H       Q-CM5   
     1  C    0.234031   0.294004
     2  S   -0.098499  -0.116391
     3  F   -0.070295  -0.091130
     4  F   -0.065237  -0.086484
 
 EQQ= 0.000000000000E+00 EQD= 0.000000000000E+00 EDD=-0.238462235324E-02
 EQQ+QD+DD=-0.238462235324E-02
 
 Breneman (CHELPG) radii used.
 Generate Potential Derived Charges using the Breneman model, NDens= 1.
 Grid spacing= 0.300 Box extension= 2.800
 NStep X,Y,Z=   20     27     28   Total possible points=       15120
 Number of Points to Fit=    4640

 **********************************************************************

            Electrostatic Properties Using The CC Density.

 **********************************************************************

       Atomic Center    1 is at   0.000000  0.000000 -0.520349
       Atomic Center    2 is at   0.000000  0.000000  1.078525
       Atomic Center    3 is at   0.000000 -1.055221 -1.295538
       Atomic Center    4 is at   0.000000  1.045221 -1.295538
    4640 points will be used for fitting atomic charges
 Fitting point charges to electrostatic potential
 The dipole moment will be constrained to the correct value
 Charges from ESP fit, RMS=   0.00621 RRMS=   0.72458:
 ESP charges:
               1
     1  C    0.409689
     2  S   -0.156192
     3  F   -0.129360
     4  F   -0.124138
 Sum of ESP charges =  -0.00000
 ESP charges with hydrogens summed into heavy atoms:
               1
     1  C    0.409689
     2  S   -0.156192
     3  F   -0.129360
     4  F   -0.124138
 Charge=  -0.00000 Dipole=     0.0000     0.0324    -0.2556 Tot=     0.2577
 -----------------------------------------------------------------

              Electrostatic Properties (Atomic Units)

 -----------------------------------------------------------------
    Center     Electric         -------- Electric Field --------
               Potential          X             Y             Z
 -----------------------------------------------------------------
    1 Atom    -14.499430
    2 Atom    -59.213132
    3 Atom    -26.496961
    4 Atom    -26.494235
 -----------------------------------------------------------------
 ******************************Gaussian NBO Version 3.1******************************
             N A T U R A L   A T O M I C   O R B I T A L   A N D
          N A T U R A L   B O N D   O R B I T A L   A N A L Y S I S
 ******************************Gaussian NBO Version 3.1******************************
       /RESON  / : Allow strongly delocalized NBO set

 Analyzing the QCI/CC density

 Job title: f2cs-wavefunction                                               

 Storage needed:    106946 in NPA (2147483536 available)
 GSVD:  LWork=        5094 too small for GESVD, short by       54317 words or       54317 for optimal perf.


 NATURAL POPULATIONS:  Natural atomic orbital occupancies 
                                                          
   NAO  Atom  No  lang   Type(AO)    Occupancy
 --------------------------------------------
     1    C    1  S      Cor( 1S)     1.99947
     2    C    1  S      Val( 2S)     0.92725
     3    C    1  S      Ryd( 3S)     0.00610
     4    C    1  S      Ryd( 4S)     0.00026
     5    C    1  S      Ryd( 5S)     0.00006
     6    C    1  px     Val( 2p)     0.85950
     7    C    1  px     Ryd( 3p)     0.00616
     8    C    1  px     Ryd( 4p)     0.00050
     9    C    1  px     Ryd( 5p)     0.00045
    10    C    1  py     Val( 2p)     0.62342
    11    C    1  py     Ryd( 3p)     0.02282
    12    C    1  py     Ryd( 4p)     0.00057
    13    C    1  py     Ryd( 5p)     0.00032
    14    C    1  pz     Val( 2p)     0.86895
    15    C    1  pz     Ryd( 3p)     0.01827
    16    C    1  pz     Ryd( 4p)     0.00061
    17    C    1  pz     Ryd( 5p)     0.00040
    18    C    1  dxy    Ryd( 3d)     0.00785
    19    C    1  dxy    Ryd( 4d)     0.00053
    20    C    1  dxy    Ryd( 5d)     0.00025
    21    C    1  dxz    Ryd( 3d)     0.01458
    22    C    1  dxz    Ryd( 4d)     0.00049
    23    C    1  dxz    Ryd( 5d)     0.00038
    24    C    1  dyz    Ryd( 3d)     0.01126
    25    C    1  dyz    Ryd( 4d)     0.00041
    26    C    1  dyz    Ryd( 5d)     0.00019
    27    C    1  dx2y2  Ryd( 3d)     0.00604
    28    C    1  dx2y2  Ryd( 4d)     0.00045
    29    C    1  dx2y2  Ryd( 5d)     0.00043
    30    C    1  dz2    Ryd( 3d)     0.01094
    31    C    1  dz2    Ryd( 4d)     0.00060
    32    C    1  dz2    Ryd( 5d)     0.00022
    33    C    1  f(0)   Ryd( 4f)     0.00308
    34    C    1  f(0)   Ryd( 5f)     0.00030
    35    C    1  f(C1)  Ryd( 4f)     0.00149
    36    C    1  f(C1)  Ryd( 5f)     0.00042
    37    C    1  f(S1)  Ryd( 4f)     0.00244
    38    C    1  f(S1)  Ryd( 5f)     0.00066
    39    C    1  f(C2)  Ryd( 4f)     0.00222
    40    C    1  f(C2)  Ryd( 5f)     0.00028
    41    C    1  f(S2)  Ryd( 4f)     0.00219
    42    C    1  f(S2)  Ryd( 5f)     0.00036
    43    C    1  f(C3)  Ryd( 4f)     0.00122
    44    C    1  f(C3)  Ryd( 5f)     0.00034
    45    C    1  f(S3)  Ryd( 4f)     0.00109
    46    C    1  f(S3)  Ryd( 5f)     0.00023

    47    S    2  S      Cor( 1S)     2.00000
    48    S    2  S      Cor( 2S)     1.99876
    49    S    2  S      Val( 3S)     1.75725
    50    S    2  S      Ryd( 4S)     0.00665
    51    S    2  S      Ryd( 5S)     0.00026
    52    S    2  S      Ryd( 6S)     0.00019
    53    S    2  px     Cor( 2p)     1.99990
    54    S    2  px     Val( 3p)     1.29146
    55    S    2  px     Ryd( 4p)     0.00523
    56    S    2  px     Ryd( 5p)     0.00030
    57    S    2  px     Ryd( 6p)     0.00007
    58    S    2  py     Cor( 2p)     2.00001
    59    S    2  py     Val( 3p)     1.79740
    60    S    2  py     Ryd( 4p)     0.00856
    61    S    2  py     Ryd( 5p)     0.00051
    62    S    2  py     Ryd( 6p)     0.00010
    63    S    2  pz     Cor( 2p)     1.99964
    64    S    2  pz     Val( 3p)     1.01991
    65    S    2  pz     Ryd( 4p)     0.00505
    66    S    2  pz     Ryd( 5p)     0.00041
    67    S    2  pz     Ryd( 6p)     0.00009
    68    S    2  dxy    Ryd( 3d)     0.01641
    69    S    2  dxy    Ryd( 4d)     0.00052
    70    S    2  dxy    Ryd( 5d)     0.00009
    71    S    2  dxz    Ryd( 3d)     0.01940
    72    S    2  dxz    Ryd( 4d)     0.00048
    73    S    2  dxz    Ryd( 5d)     0.00017
    74    S    2  dyz    Ryd( 3d)     0.01483
    75    S    2  dyz    Ryd( 4d)     0.00050
    76    S    2  dyz    Ryd( 5d)     0.00024
    77    S    2  dx2y2  Ryd( 3d)     0.01620
    78    S    2  dx2y2  Ryd( 4d)     0.00053
    79    S    2  dx2y2  Ryd( 5d)     0.00008
    80    S    2  dz2    Ryd( 3d)     0.02156
    81    S    2  dz2    Ryd( 4d)     0.00043
    82    S    2  dz2    Ryd( 5d)     0.00015
    83    S    2  f(0)   Ryd( 4f)     0.00141
    84    S    2  f(0)   Ryd( 5f)     0.00018
    85    S    2  f(C1)  Ryd( 4f)     0.00095
    86    S    2  f(C1)  Ryd( 5f)     0.00012
    87    S    2  f(S1)  Ryd( 4f)     0.00105
    88    S    2  f(S1)  Ryd( 5f)     0.00015
    89    S    2  f(C2)  Ryd( 4f)     0.00095
    90    S    2  f(C2)  Ryd( 5f)     0.00013
    91    S    2  f(S2)  Ryd( 4f)     0.00094
    92    S    2  f(S2)  Ryd( 5f)     0.00012
    93    S    2  f(C3)  Ryd( 4f)     0.00134
    94    S    2  f(C3)  Ryd( 5f)     0.00012
    95    S    2  f(S3)  Ryd( 4f)     0.00135
    96    S    2  f(S3)  Ryd( 5f)     0.00012

    97    F    3  S      Cor( 1S)     1.99979
    98    F    3  S      Val( 2S)     1.82810
    99    F    3  S      Ryd( 3S)     0.00648
   100    F    3  S      Ryd( 4S)     0.00033
   101    F    3  S      Ryd( 5S)     0.00027
   102    F    3  px     Val( 2p)     1.87026
   103    F    3  px     Ryd( 3p)     0.01126
   104    F    3  px     Ryd( 4p)     0.00081
   105    F    3  px     Ryd( 5p)     0.00015
   106    F    3  py     Val( 2p)     1.71575
   107    F    3  py     Ryd( 3p)     0.00746
   108    F    3  py     Ryd( 4p)     0.00058
   109    F    3  py     Ryd( 5p)     0.00018
   110    F    3  pz     Val( 2p)     1.80694
   111    F    3  pz     Ryd( 3p)     0.00976
   112    F    3  pz     Ryd( 4p)     0.00073
   113    F    3  pz     Ryd( 5p)     0.00027
   114    F    3  dxy    Ryd( 3d)     0.00672
   115    F    3  dxy    Ryd( 4d)     0.00044
   116    F    3  dxy    Ryd( 5d)     0.00008
   117    F    3  dxz    Ryd( 3d)     0.00568
   118    F    3  dxz    Ryd( 4d)     0.00046
   119    F    3  dxz    Ryd( 5d)     0.00008
   120    F    3  dyz    Ryd( 3d)     0.00972
   121    F    3  dyz    Ryd( 4d)     0.00053
   122    F    3  dyz    Ryd( 5d)     0.00010
   123    F    3  dx2y2  Ryd( 3d)     0.00750
   124    F    3  dx2y2  Ryd( 4d)     0.00052
   125    F    3  dx2y2  Ryd( 5d)     0.00013
   126    F    3  dz2    Ryd( 3d)     0.00635
   127    F    3  dz2    Ryd( 4d)     0.00044
   128    F    3  dz2    Ryd( 5d)     0.00011
   129    F    3  f(0)   Ryd( 4f)     0.00053
   130    F    3  f(0)   Ryd( 5f)     0.00010
   131    F    3  f(C1)  Ryd( 4f)     0.00043
   132    F    3  f(C1)  Ryd( 5f)     0.00009
   133    F    3  f(S1)  Ryd( 4f)     0.00066
   134    F    3  f(S1)  Ryd( 5f)     0.00013
   135    F    3  f(C2)  Ryd( 4f)     0.00073
   136    F    3  f(C2)  Ryd( 5f)     0.00012
   137    F    3  f(S2)  Ryd( 4f)     0.00055
   138    F    3  f(S2)  Ryd( 5f)     0.00011
   139    F    3  f(C3)  Ryd( 4f)     0.00052
   140    F    3  f(C3)  Ryd( 5f)     0.00011
   141    F    3  f(S3)  Ryd( 4f)     0.00057
   142    F    3  f(S3)  Ryd( 5f)     0.00012

   143    F    4  S      Cor( 1S)     1.99979
   144    F    4  S      Val( 2S)     1.82483
   145    F    4  S      Ryd( 3S)     0.00644
   146    F    4  S      Ryd( 4S)     0.00033
   147    F    4  S      Ryd( 5S)     0.00027
   148    F    4  px     Val( 2p)     1.86799
   149    F    4  px     Ryd( 3p)     0.01118
   150    F    4  px     Ryd( 4p)     0.00081
   151    F    4  px     Ryd( 5p)     0.00015
   152    F    4  py     Val( 2p)     1.71838
   153    F    4  py     Ryd( 3p)     0.00742
   154    F    4  py     Ryd( 4p)     0.00058
   155    F    4  py     Ryd( 5p)     0.00018
   156    F    4  pz     Val( 2p)     1.80584
   157    F    4  pz     Ryd( 3p)     0.00967
   158    F    4  pz     Ryd( 4p)     0.00073
   159    F    4  pz     Ryd( 5p)     0.00027
   160    F    4  dxy    Ryd( 3d)     0.00678
   161    F    4  dxy    Ryd( 4d)     0.00044
   162    F    4  dxy    Ryd( 5d)     0.00008
   163    F    4  dxz    Ryd( 3d)     0.00573
   164    F    4  dxz    Ryd( 4d)     0.00045
   165    F    4  dxz    Ryd( 5d)     0.00008
   166    F    4  dyz    Ryd( 3d)     0.00991
   167    F    4  dyz    Ryd( 4d)     0.00053
   168    F    4  dyz    Ryd( 5d)     0.00011
   169    F    4  dx2y2  Ryd( 3d)     0.00757
   170    F    4  dx2y2  Ryd( 4d)     0.00052
   171    F    4  dx2y2  Ryd( 5d)     0.00013
   172    F    4  dz2    Ryd( 3d)     0.00642
   173    F    4  dz2    Ryd( 4d)     0.00044
   174    F    4  dz2    Ryd( 5d)     0.00011
   175    F    4  f(0)   Ryd( 4f)     0.00053
   176    F    4  f(0)   Ryd( 5f)     0.00010
   177    F    4  f(C1)  Ryd( 4f)     0.00043
   178    F    4  f(C1)  Ryd( 5f)     0.00009
   179    F    4  f(S1)  Ryd( 4f)     0.00067
   180    F    4  f(S1)  Ryd( 5f)     0.00013
   181    F    4  f(C2)  Ryd( 4f)     0.00073
   182    F    4  f(C2)  Ryd( 5f)     0.00012
   183    F    4  f(S2)  Ryd( 4f)     0.00055
   184    F    4  f(S2)  Ryd( 5f)     0.00011
   185    F    4  f(C3)  Ryd( 4f)     0.00052
   186    F    4  f(C3)  Ryd( 5f)     0.00010
   187    F    4  f(S3)  Ryd( 4f)     0.00057
   188    F    4  f(S3)  Ryd( 5f)     0.00012

 WARNING:  1 low occupancy (<1.9990e) core orbital  found on  S    2


 Summary of Natural Population Analysis:                  
                                                          
                                       Natural Population 
                Natural  -----------------------------------------------
    Atom  No    Charge         Core      Valence    Rydberg      Total
 -----------------------------------------------------------------------
      C    1    0.59395      1.99947     3.27912    0.12746     5.40605
      S    2    0.00773      9.99831     5.86602    0.12794    15.99227
      F    3   -0.30273      1.99979     7.22104    0.08189     9.30273
      F    4   -0.29895      1.99979     7.21704    0.08213     9.29895
 =======================================================================
   * Total *   -0.00000     15.99736    23.58322    0.41942    40.00000

                                 Natural Population      
 --------------------------------------------------------
   Core                      15.99736 ( 99.9835% of  16)
   Valence                   23.58322 ( 98.2634% of  24)
   Natural Minimal Basis     39.58058 ( 98.9515% of  40)
   Natural Rydberg Basis      0.41942 (  1.0485% of  40)
 --------------------------------------------------------

    Atom  No          Natural Electron Configuration
 ----------------------------------------------------------------------------
      C    1      [core]2S( 0.93)2p( 2.35)3S( 0.01)3p( 0.05)3d( 0.05)4f( 0.01)
      S    2      [core]3S( 1.76)3p( 4.11)4S( 0.01)3d( 0.09)4p( 0.02)4f( 0.01)
      F    3      [core]2S( 1.83)2p( 5.39)3S( 0.01)3p( 0.03)3d( 0.04)
      F    4      [core]2S( 1.82)2p( 5.39)3S( 0.01)3p( 0.03)3d( 0.04)


 NBO analysis skipped by request.
 Unable to Open any file for archive entry.
 1\1\GINC-TRAPISTA\SP\RQCISD-FC\Aug-CC-pVTZ\C1F2S1\WAGNER\03-Sep-2022\0
 \\# qcisd/aug-cc-pvtz nosymm density=current pop=(chelpg,hirshfeld,npa
 ,dipole)\\f2cs-wavefunction\\0,1\C,0,0.,0.,-0.520349\S,0,0.,0.,1.07852
 5\F,0,0.,-1.055221,-1.295538\F,0,0.,1.045221,-1.295538\\Version=EM64L-
 G16RevC.01\HF=-634.3573113\MP2=-635.1962604\MP3=-635.1998187\MP4D=-635
 .2166572\MP4DQ=-635.1973582\MP4SDQ=-635.2081426\QCISD=-635.2072627\RMS
 D=6.201e-09\Dipole=0.,0.0127593,-0.1005772\Quadrupole=0.8684494,-1.253
 8799,0.3854305,0.,0.,-0.0351675\PG=CS [SG(C1F2S1)]\\@
 The archive entry for this job was punched.


 A DANDELION FROM A LOVER MEANS MORE THAN AN ORCHID FROM A FRIEND.
 Job cpu time:       0 days  6 hours 41 minutes 20.3 seconds.
 Elapsed time:       0 days  0 hours 25 minutes 24.3 seconds.
 File lengths (MBytes):  RWF=  21970 Int=      0 D2E=      0 Chk=      4 Scr=      1
 Normal termination of Gaussian 16 at Sat Sep  3 18:15:17 2022.
