 Entering Gaussian System, Link 0=/home/wagner/chemistry/gaussian/g16/g16
 Input=GAUSSIAN.com
 Output=GAUSSIAN.log
 Initial command:
 /home/wagner/chemistry/gaussian/g16/l1.exe "/home/wagner/chemistry/gaussian/work/Gau-16018.inp" -scrdir="/home/wagner/chemistry/gaussian/work/"
 Entering Link 1 = /home/wagner/chemistry/gaussian/g16/l1.exe PID=     16020.
  
 Copyright (c) 1988-2019, Gaussian, Inc.  All Rights Reserved.
  
 This is part of the Gaussian(R) 16 program.  It is based on
 the Gaussian(R) 09 system (copyright 2009, Gaussian, Inc.),
 the Gaussian(R) 03 system (copyright 2003, Gaussian, Inc.),
 the Gaussian(R) 98 system (copyright 1998, Gaussian, Inc.),
 the Gaussian(R) 94 system (copyright 1995, Gaussian, Inc.),
 the Gaussian 92(TM) system (copyright 1992, Gaussian, Inc.),
 the Gaussian 90(TM) system (copyright 1990, Gaussian, Inc.),
 the Gaussian 88(TM) system (copyright 1988, Gaussian, Inc.),
 the Gaussian 86(TM) system (copyright 1986, Carnegie Mellon
 University), and the Gaussian 82(TM) system (copyright 1983,
 Carnegie Mellon University). Gaussian is a federally registered
 trademark of Gaussian, Inc.
  
 This software contains proprietary and confidential information,
 including trade secrets, belonging to Gaussian, Inc.
  
 This software is provided under written license and may be
 used, copied, transmitted, or stored only in accord with that
 written license.
  
 The following legend is applicable only to US Government
 contracts under FAR:
  
                    RESTRICTED RIGHTS LEGEND
  
 Use, reproduction and disclosure by the US Government is
 subject to restrictions as set forth in subparagraphs (a)
 and (c) of the Commercial Computer Software - Restricted
 Rights clause in FAR 52.227-19.
  
 Gaussian, Inc.
 340 Quinnipiac St., Bldg. 40, Wallingford CT 06492
  
  
 ---------------------------------------------------------------
 Warning -- This program may not be used in any manner that
 competes with the business of Gaussian, Inc. or will provide
 assistance to any competitor of Gaussian, Inc.  The licensee
 of this program is prohibited from giving any competitor of
 Gaussian, Inc. access to this program.  By using this program,
 the user acknowledges that Gaussian, Inc. is engaged in the
 business of creating and licensing software in the field of
 computational chemistry and represents and warrants to the
 licensee that it is not a competitor of Gaussian, Inc. and that
 it will not use this program in any manner prohibited above.
 ---------------------------------------------------------------
  

 Cite this work as:
 Gaussian 16, Revision C.01,
 M. J. Frisch, G. W. Trucks, H. B. Schlegel, G. E. Scuseria, 
 M. A. Robb, J. R. Cheeseman, G. Scalmani, V. Barone, 
 G. A. Petersson, H. Nakatsuji, X. Li, M. Caricato, A. V. Marenich, 
 J. Bloino, B. G. Janesko, R. Gomperts, B. Mennucci, H. P. Hratchian, 
 J. V. Ortiz, A. F. Izmaylov, J. L. Sonnenberg, D. Williams-Young, 
 F. Ding, F. Lipparini, F. Egidi, J. Goings, B. Peng, A. Petrone, 
 T. Henderson, D. Ranasinghe, V. G. Zakrzewski, J. Gao, N. Rega, 
 G. Zheng, W. Liang, M. Hada, M. Ehara, K. Toyota, R. Fukuda, 
 J. Hasegawa, M. Ishida, T. Nakajima, Y. Honda, O. Kitao, H. Nakai, 
 T. Vreven, K. Throssell, J. A. Montgomery, Jr., J. E. Peralta, 
 F. Ogliaro, M. J. Bearpark, J. J. Heyd, E. N. Brothers, K. N. Kudin, 
 V. N. Staroverov, T. A. Keith, R. Kobayashi, J. Normand, 
 K. Raghavachari, A. P. Rendell, J. C. Burant, S. S. Iyengar, 
 J. Tomasi, M. Cossi, J. M. Millam, M. Klene, C. Adamo, R. Cammi, 
 J. W. Ochterski, R. L. Martin, K. Morokuma, O. Farkas, 
 J. B. Foresman, and D. J. Fox, Gaussian, Inc., Wallingford CT, 2019.
 
 ******************************************
 Gaussian 16:  EM64L-G16RevC.01  3-Jul-2019
                 3-Sep-2022 
 ******************************************
 %nproc=16
 Will use up to   16 processors via shared memory.
 %mem=16GB
 ----------------------------------------------------------------------
 # qcisd/aug-cc-pvtz nosymm density=current pop=(chelpg,hirshfeld,npa,d
 ipole)
 ----------------------------------------------------------------------
 1/30=1,38=1,172=1/1;
 2/12=2,15=1,17=6,18=5,40=1/2;
 3/5=16,6=1,7=10,11=9,25=1,30=1,71=1/1,2,3;
 4//1;
 5/5=2,38=5/2;
 8/6=4,9=120000,10=1/1,4;
 9/5=8,15=1/13;
 11/28=-7,31=1,32=3,42=3/11;
 10/5=6,13=10,31=1/2;
 6/7=2,8=2,9=2,10=2,15=24,20=3,22=-1,40=-1,79=1/1,2,7;
 99/5=1,9=1/99;
 -----------------
 f2cs-wavefunction
 -----------------
 Symbolic Z-matrix:
 Charge =  0 Multiplicity = 1
 C                     0.        0.       -0.53035 
 S                     0.        0.        1.07852 
 F                     0.       -1.05522  -1.29554 
 F                     0.        1.05522  -1.29554 
 
                          Input orientation:                          
 ---------------------------------------------------------------------
 Center     Atomic      Atomic             Coordinates (Angstroms)
 Number     Number       Type             X           Y           Z
 ---------------------------------------------------------------------
      1          6           0        0.000000    0.000000   -0.530349
      2         16           0        0.000000    0.000000    1.078525
      3          9           0        0.000000   -1.055221   -1.295538
      4          9           0        0.000000    1.055221   -1.295538
 ---------------------------------------------------------------------
                    Distance matrix (angstroms):
                    1          2          3          4
     1  C    0.000000
     2  S    1.608874   0.000000
     3  F    1.303459   2.598012   0.000000
     4  F    1.303459   2.598012   2.110442   0.000000
 Symmetry turned off by external request.
 Stoichiometry    CF2S
 Framework group  C2V[C2(CS),SGV(F2)]
 Deg. of freedom     3
 Full point group                 C2V     NOp   4
 Rotational constants (GHZ):          11.9449202           5.1097549           3.5788201
 Standard basis: Aug-CC-pVTZ (5D, 7F)
   188 basis functions,   330 primitive gaussians,   224 cartesian basis functions
    20 alpha electrons       20 beta electrons
       nuclear repulsion energy       154.3927921461 Hartrees.
 NAtoms=    4 NActive=    4 NUniq=    4 SFac= 1.00D+00 NAtFMM=   60 NAOKFM=F Big=F
 Integral buffers will be    131072 words long.
 Raffenetti 1 integral format.
 Two-electron integral symmetry is turned off.
 One-electron integrals computed using PRISM.
 NBasis=   188 RedAO= T EigKep=  1.00D-04  NBF=   188
 NBsUse=   188 1.00D-06 EigRej= -1.00D+00 NBFU=   188
 ExpMin= 3.51D-02 ExpMax= 3.74D+05 ExpMxC= 1.18D+03 IAcc=3 IRadAn=         5 AccDes= 0.00D+00
 Harris functional with IExCor=  205 and IRadAn=       5 diagonalized for initial guess.
 HarFok:  IExCor=  205 AccDes= 0.00D+00 IRadAn=         5 IDoV= 1 UseB2=F ITyADJ=14
 ICtDFT=  3500011 ScaDFX=  1.000000  1.000000  1.000000  1.000000
 FoFCou: FMM=F IPFlag=           0 FMFlag=      100000 FMFlg1=           0
         NFxFlg=           0 DoJE=T BraDBF=F KetDBF=T FulRan=T
         wScrn=  0.000000 ICntrl=       500 IOpCl=  0 I1Cent=   200000004 NGrid=           0
         NMat0=    1 NMatS0=      1 NMatT0=    0 NMatD0=    1 NMtDS0=    0 NMtDT0=    0
 Symmetry not used in FoFCou.
 Keep R1 ints in memory in canonical form, NReq=165820989.
 Requested convergence on RMS density matrix=1.00D-08 within 128 cycles.
 Requested convergence on MAX density matrix=1.00D-06.
 Requested convergence on             energy=1.00D-06.
 No special actions if energy rises.
 SCF Done:  E(RHF) =  -634.357171414     A.U. after   12 cycles
            NFock= 12  Conv=0.66D-08     -V/T= 2.0005
 ExpMin= 3.51D-02 ExpMax= 3.74D+05 ExpMxC= 1.18D+03 IAcc=3 IRadAn=         5 AccDes= 0.00D+00
 HarFok:  IExCor=  205 AccDes= 0.00D+00 IRadAn=         5 IDoV=-2 UseB2=F ITyADJ=14
 ICtDFT= 12500011 ScaDFX=  1.000000  1.000000  1.000000  1.000000
 Range of M.O.s used for correlation:     9   188
 NBasis=   188 NAE=    20 NBE=    20 NFC=     8 NFV=     0
 NROrb=    180 NOA=    12 NOB=    12 NVA=   168 NVB=   168

 **** Warning!!: The largest alpha MO coefficient is  0.28448310D+02

 Semi-Direct transformation.
 ModeAB=           2 MOrb=            12 LenV=    2146475591
 LASXX=     33405819 LTotXX=    33405819 LenRXX=    33405819
 LTotAB=    33954012 MaxLAS=    54432000 LenRXY=    54432000
 NonZer=    66811638 LenScr=   100987392 LnRSAI=           0
 LnScr1=           0 LExtra=           0 Total=    188825211
 MaxDsk=          -1 SrtSym=           F ITran=            4
 JobTyp=0 Pass  1:  I=   1 to  12.
 (rs|ai) integrals will be sorted in core.
 Spin components of T(2) and E(2):
     alpha-alpha T2 =       0.3011121708D-01 E2=     -0.1103240509D+00
     alpha-beta  T2 =       0.1597093963D+00 E2=     -0.6182967249D+00
     beta-beta   T2 =       0.3011121708D-01 E2=     -0.1103240509D+00
 ANorm=    0.1104505242D+01
 E2 =    -0.8389448266D+00 EUMP2 =    -0.63519611624091D+03
 Keep R2 and R3 ints in memory in canonical form, NReq=323654062.
 CIDS: In Core Option IDoMem=           1.
 Iterations=  50 Convergence= 0.100D-07
 Produce multiple copies of IABC intergrals
 Iteration Nr.   1
 **********************
 DD1Dir will call FoFMem   1 times, MxPair=       156
 NAB=    78 NAA=     0 NBB=     0.
 MP4(R+Q)=  0.19345752D-01
 E3=       -0.35713072D-02        EUMP3=      -0.63519968755D+03
 E4(DQ)=    0.24817017D-02        UMP4(DQ)=   -0.63519720585D+03
 E4(SDQ)=  -0.83642328D-02        UMP4(SDQ)=  -0.63520805178D+03
 DE(Corr)= -0.82317038     E(Corr)=     -635.18034180    
 NORM(A)=   0.11038302D+01
 Iteration Nr.   2
 **********************
 DD1Dir will call FoFMem   1 times, MxPair=       156
 NAB=    78 NAA=     0 NBB=     0.
 DE(Corr)= -0.84879603     E(CORR)=     -635.20596745     Delta=-2.56D-02
 NORM(A)=   0.11127799D+01
 Iteration Nr.   3
 **********************
 DD1Dir will call FoFMem   1 times, MxPair=       156
 NAB=    78 NAA=     0 NBB=     0.
 DE(Corr)= -0.84713875     E(CORR)=     -635.20431017     Delta= 1.66D-03
 NORM(A)=   0.11156541D+01
 Iteration Nr.   4
 **********************
 DD1Dir will call FoFMem   1 times, MxPair=       156
 NAB=    78 NAA=     0 NBB=     0.
 DE(Corr)= -0.84967512     E(CORR)=     -635.20684653     Delta=-2.54D-03
 NORM(A)=   0.11167982D+01
 Iteration Nr.   5
 **********************
 DD1Dir will call FoFMem   1 times, MxPair=       156
 NAB=    78 NAA=     0 NBB=     0.
 DE(Corr)= -0.84997959     E(CORR)=     -635.20715101     Delta=-3.04D-04
 NORM(A)=   0.11171406D+01
 Iteration Nr.   6
 **********************
 DD1Dir will call FoFMem   1 times, MxPair=       156
 NAB=    78 NAA=     0 NBB=     0.
 DE(Corr)= -0.85002023     E(CORR)=     -635.20719164     Delta=-4.06D-05
 NORM(A)=   0.11171918D+01
 Iteration Nr.   7
 **********************
 DD1Dir will call FoFMem   1 times, MxPair=       156
 NAB=    78 NAA=     0 NBB=     0.
 DE(Corr)= -0.85002464     E(CORR)=     -635.20719605     Delta=-4.41D-06
 NORM(A)=   0.11171939D+01
 Iteration Nr.   8
 **********************
 DD1Dir will call FoFMem   1 times, MxPair=       156
 NAB=    78 NAA=     0 NBB=     0.
 DE(Corr)= -0.85002240     E(CORR)=     -635.20719381     Delta= 2.24D-06
 NORM(A)=   0.11172002D+01
 Iteration Nr.   9
 **********************
 DD1Dir will call FoFMem   1 times, MxPair=       156
 NAB=    78 NAA=     0 NBB=     0.
 DE(Corr)= -0.85002277     E(CORR)=     -635.20719419     Delta=-3.74D-07
 NORM(A)=   0.11172010D+01
 Iteration Nr.  10
 **********************
 DD1Dir will call FoFMem   1 times, MxPair=       156
 NAB=    78 NAA=     0 NBB=     0.
 DE(Corr)= -0.85002246     E(CORR)=     -635.20719388     Delta= 3.11D-07
 NORM(A)=   0.11172029D+01
 Iteration Nr.  11
 **********************
 DD1Dir will call FoFMem   1 times, MxPair=       156
 NAB=    78 NAA=     0 NBB=     0.
 DE(Corr)= -0.85002366     E(CORR)=     -635.20719507     Delta=-1.20D-06
 NORM(A)=   0.11172045D+01
 Iteration Nr.  12
 **********************
 DD1Dir will call FoFMem   1 times, MxPair=       156
 NAB=    78 NAA=     0 NBB=     0.
 DE(Corr)= -0.85002384     E(CORR)=     -635.20719525     Delta=-1.75D-07
 NORM(A)=   0.11172054D+01
 Iteration Nr.  13
 **********************
 DD1Dir will call FoFMem   1 times, MxPair=       156
 NAB=    78 NAA=     0 NBB=     0.
 DE(Corr)= -0.85002420     E(CORR)=     -635.20719561     Delta=-3.64D-07
 NORM(A)=   0.11172059D+01
 Iteration Nr.  14
 **********************
 DD1Dir will call FoFMem   1 times, MxPair=       156
 NAB=    78 NAA=     0 NBB=     0.
 DE(Corr)= -0.85002425     E(CORR)=     -635.20719567     Delta=-5.59D-08
 NORM(A)=   0.11172060D+01
 Iteration Nr.  15
 **********************
 DD1Dir will call FoFMem   1 times, MxPair=       156
 NAB=    78 NAA=     0 NBB=     0.
 DE(Corr)= -0.85002430     E(CORR)=     -635.20719571     Delta=-4.29D-08
 NORM(A)=   0.11172061D+01
 Iteration Nr.  16
 **********************
 DD1Dir will call FoFMem   1 times, MxPair=       156
 NAB=    78 NAA=     0 NBB=     0.
 DE(Corr)= -0.85002431     E(CORR)=     -635.20719573     Delta=-1.64D-08
 NORM(A)=   0.11172061D+01
 Iteration Nr.  17
 **********************
 DD1Dir will call FoFMem   1 times, MxPair=       156
 NAB=    78 NAA=     0 NBB=     0.
 DE(Corr)= -0.85002431     E(CORR)=     -635.20719572     Delta= 6.21D-09
 NORM(A)=   0.11172061D+01
 Wavefunction amplitudes converged. E(Corr)=     -635.20719572    
 Largest amplitude= 8.58D-02

 Z-amplitude iterations

 Iteration Nr.   1
 **********************
 DD1Dir will call FoFMem   1 times, MxPair=       156
 NAB=    78 NAA=     0 NBB=     0.
 DE(Z)= -0.82610491     E(Z)=     -635.18327632     Delta= 2.39D-02
 NORM(A)=   0.11172088D+01
 Iteration Nr.   2
 **********************
 DD1Dir will call FoFMem   1 times, MxPair=       156
 NAB=    78 NAA=     0 NBB=     0.
 DE(Z)= -0.82610491     E(Z)=     -635.18327633     Delta=-2.29D-09
 NORM(A)=   0.11171887D+01
 Iteration Nr.   3
 **********************
 DD1Dir will call FoFMem   1 times, MxPair=       156
 NAB=    78 NAA=     0 NBB=     0.
 DE(Z)= -0.82610464     E(Z)=     -635.18327606     Delta= 2.71D-07
 NORM(A)=   0.11172328D+01
 Iteration Nr.   4
 **********************
 DD1Dir will call FoFMem   1 times, MxPair=       156
 NAB=    78 NAA=     0 NBB=     0.
 DE(Z)= -0.82610524     E(Z)=     -635.18327665     Delta=-5.99D-07
 NORM(A)=   0.11171979D+01
 Iteration Nr.   5
 **********************
 DD1Dir will call FoFMem   1 times, MxPair=       156
 NAB=    78 NAA=     0 NBB=     0.
 DE(Z)= -0.82610477     E(Z)=     -635.18327619     Delta= 4.68D-07
 NORM(A)=   0.11089212D+01
 Iteration Nr.   6
 **********************
 DD1Dir will call FoFMem   1 times, MxPair=       156
 NAB=    78 NAA=     0 NBB=     0.
 DE(Z)= -0.82596809     E(Z)=     -635.18313951     Delta= 1.37D-04
 NORM(A)=   0.11089126D+01
 Iteration Nr.   7
 **********************
 DD1Dir will call FoFMem   1 times, MxPair=       156
 NAB=    78 NAA=     0 NBB=     0.
 DE(Z)= -0.82596747     E(Z)=     -635.18313888     Delta= 6.24D-07
 NORM(A)=   0.11089116D+01
 Iteration Nr.   8
 **********************
 DD1Dir will call FoFMem   1 times, MxPair=       156
 NAB=    78 NAA=     0 NBB=     0.
 DE(Z)= -0.82596722     E(Z)=     -635.18313863     Delta= 2.51D-07
 NORM(A)=   0.11089112D+01
 Iteration Nr.   9
 **********************
 DD1Dir will call FoFMem   1 times, MxPair=       156
 NAB=    78 NAA=     0 NBB=     0.
 DE(Z)= -0.82596700     E(Z)=     -635.18313841     Delta= 2.16D-07
 NORM(A)=   0.11089114D+01
 Iteration Nr.  10
 **********************
 DD1Dir will call FoFMem   1 times, MxPair=       156
 NAB=    78 NAA=     0 NBB=     0.
 DE(Z)= -0.82596729     E(Z)=     -635.18313870     Delta=-2.89D-07
 NORM(A)=   0.11089116D+01
 Iteration Nr.  11
 **********************
 DD1Dir will call FoFMem   1 times, MxPair=       156
 NAB=    78 NAA=     0 NBB=     0.
 DE(Z)= -0.82596720     E(Z)=     -635.18313861     Delta= 8.95D-08
 NORM(A)=   0.11089116D+01
 Iteration Nr.  12
 **********************
 DD1Dir will call FoFMem   1 times, MxPair=       156
 NAB=    78 NAA=     0 NBB=     0.
 DE(Z)= -0.82596723     E(Z)=     -635.18313865     Delta=-3.36D-08
 NORM(A)=   0.11089116D+01
 Iteration Nr.  13
 **********************
 DD1Dir will call FoFMem   1 times, MxPair=       156
 NAB=    78 NAA=     0 NBB=     0.
 DE(Z)= -0.82596722     E(Z)=     -635.18313864     Delta= 1.09D-08
 NORM(A)=   0.11089116D+01
 Iteration Nr.  14
 **********************
 DD1Dir will call FoFMem   1 times, MxPair=       156
 NAB=    78 NAA=     0 NBB=     0.
 DE(Z)= -0.82596723     E(Z)=     -635.18313864     Delta=-3.58D-09
 NORM(A)=   0.11089116D+01
 Z-amplitudes converged.
 Discarding MO integrals.
          Differentiating once with respect to electric field.
                with respect to dipole field.
          Electric field/nuclear overlap derivatives assumed to be zero.
 Keep R1 ints in memory in canonical form, NReq=165824739.
          There are     1 degrees of freedom in the 1st order CPHF.  IDoFFX=0 NUNeed=     1.
 LinEq1:  Iter=  0 NonCon=     1 RMS=2.86D-03 Max=7.75D-02 NDo=     1
 AX will form     1 AO Fock derivatives at one time.
 LinEq1:  Iter=  1 NonCon=     1 RMS=8.82D-04 Max=1.23D-02 NDo=     1
 LinEq1:  Iter=  2 NonCon=     1 RMS=4.07D-04 Max=1.36D-02 NDo=     1
 LinEq1:  Iter=  3 NonCon=     1 RMS=1.12D-04 Max=2.50D-03 NDo=     1
 LinEq1:  Iter=  4 NonCon=     1 RMS=2.88D-05 Max=6.85D-04 NDo=     1
 LinEq1:  Iter=  5 NonCon=     1 RMS=7.18D-06 Max=9.45D-05 NDo=     1
 LinEq1:  Iter=  6 NonCon=     1 RMS=2.88D-06 Max=5.86D-05 NDo=     1
 LinEq1:  Iter=  7 NonCon=     1 RMS=8.64D-07 Max=1.52D-05 NDo=     1
 LinEq1:  Iter=  8 NonCon=     1 RMS=1.69D-07 Max=2.38D-06 NDo=     1
 LinEq1:  Iter=  9 NonCon=     1 RMS=3.16D-08 Max=3.69D-07 NDo=     1
 LinEq1:  Iter= 10 NonCon=     1 RMS=6.26D-09 Max=7.52D-08 NDo=     1
 LinEq1:  Iter= 11 NonCon=     1 RMS=9.95D-10 Max=1.63D-08 NDo=     1
 LinEq1:  Iter= 12 NonCon=     1 RMS=1.43D-10 Max=1.94D-09 NDo=     1
 LinEq1:  Iter= 13 NonCon=     0 RMS=2.60D-11 Max=2.81D-10 NDo=     1
 Linear equations converged to 1.000D-10 1.000D-09 after    13 iterations.
 End of Minotr F.D. properties file   721 does not exist.
 End of Minotr F.D. properties file   722 does not exist.
 End of Minotr F.D. properties file   788 does not exist.

 **********************************************************************

            Population analysis using the CC Density.

 **********************************************************************

 Alpha  occ. eigenvalues --  -91.97471 -26.39304 -26.39302 -11.52030  -8.97797
 Alpha  occ. eigenvalues --   -6.65916  -6.65757  -6.65638  -1.76061  -1.68631
 Alpha  occ. eigenvalues --   -1.09510  -0.93281  -0.84903  -0.80640  -0.77814
 Alpha  occ. eigenvalues --   -0.72489  -0.70530  -0.59475  -0.42775  -0.39960
 Alpha virt. eigenvalues --    0.05338   0.05554   0.06381   0.08616   0.08671
 Alpha virt. eigenvalues --    0.10324   0.10865   0.12210   0.19536   0.20398
 Alpha virt. eigenvalues --    0.20864   0.23008   0.23387   0.26350   0.27184
 Alpha virt. eigenvalues --    0.27307   0.28372   0.29141   0.29470   0.29805
 Alpha virt. eigenvalues --    0.35872   0.36507   0.41127   0.41903   0.44929
 Alpha virt. eigenvalues --    0.47019   0.48021   0.51798   0.52025   0.53102
 Alpha virt. eigenvalues --    0.53121   0.62337   0.63473   0.66070   0.69860
 Alpha virt. eigenvalues --    0.73241   0.73537   0.74736   0.76575   0.77715
 Alpha virt. eigenvalues --    0.85056   0.85630   0.88584   0.89745   0.90519
 Alpha virt. eigenvalues --    0.96023   0.96064   1.01999   1.03456   1.07859
 Alpha virt. eigenvalues --    1.08893   1.10816   1.11193   1.12218   1.14561
 Alpha virt. eigenvalues --    1.14700   1.17463   1.19713   1.23145   1.25768
 Alpha virt. eigenvalues --    1.28359   1.32594   1.34916   1.39614   1.42673
 Alpha virt. eigenvalues --    1.44530   1.49896   1.53827   1.57203   1.64903
 Alpha virt. eigenvalues --    1.68483   1.70135   1.70594   1.70609   1.73709
 Alpha virt. eigenvalues --    1.80038   1.99218   2.03390   2.07004   2.08241
 Alpha virt. eigenvalues --    2.11525   2.26672   2.30557   2.32334   2.36579
 Alpha virt. eigenvalues --    2.41721   2.43394   2.43527   2.45626   2.51719
 Alpha virt. eigenvalues --    2.54612   2.58853   2.66564   2.75053   2.79881
 Alpha virt. eigenvalues --    2.83805   2.86200   2.89842   2.92376   2.94064
 Alpha virt. eigenvalues --    2.96258   2.99305   2.99846   3.07255   3.14555
 Alpha virt. eigenvalues --    3.14815   3.17626   3.19161   3.20556   3.32026
 Alpha virt. eigenvalues --    3.33124   3.37177   3.39701   3.45718   3.50882
 Alpha virt. eigenvalues --    3.55099   3.56130   3.63417   3.73417   3.74456
 Alpha virt. eigenvalues --    3.75133   3.76059   3.92986   4.00787   4.11713
 Alpha virt. eigenvalues --    4.19472   4.22140   4.26046   4.43423   4.55592
 Alpha virt. eigenvalues --    4.62313   4.70600   4.74156   4.86165   5.46137
 Alpha virt. eigenvalues --    5.51998   5.68776   5.90265   6.23022   6.56566
 Alpha virt. eigenvalues --    7.22206   8.78933   8.80530   8.85865   8.86679
 Alpha virt. eigenvalues --    8.99447   9.00076   9.10632   9.12535   9.19219
 Alpha virt. eigenvalues --    9.26323   9.27313   9.29156   9.32833   9.33672
 Alpha virt. eigenvalues --    9.36030   9.36391   9.39740   9.45885   9.54943
 Alpha virt. eigenvalues --    9.56502   9.59325   9.71576   9.84742   9.87022
 Alpha virt. eigenvalues --   12.12834  15.04893  16.17689
          Condensed to atoms (all electrons):
               1          2          3          4
     1  C    5.194089   0.245340   0.111078   0.111078
     2  S    0.245340  15.952967  -0.065862  -0.065862
     3  F    0.111078  -0.065862   9.171182  -0.080482
     4  F    0.111078  -0.065862  -0.080482   9.171182
 Mulliken charges:
               1
     1  C    0.338415
     2  S   -0.066584
     3  F   -0.135915
     4  F   -0.135915
 Sum of Mulliken charges =  -0.00000
 Mulliken charges with hydrogens summed into heavy atoms:
               1
     1  C    0.338415
     2  S   -0.066584
     3  F   -0.135915
     4  F   -0.135915
 Electronic spatial extent (au):  <R**2>=            315.4160
 Charge=             -0.0000 electrons
 Dipole moment (field-independent basis, Debye):
    X=              0.0000    Y=             -0.0000    Z=             -0.3468  Tot=              0.3468
 Quadrupole moment (field-independent basis, Debye-Ang):
   XX=            -27.3224   YY=            -30.1398   ZZ=            -27.9004
   XY=              0.0000   XZ=              0.0000   YZ=              0.0000
 Traceless Quadrupole moment (field-independent basis, Debye-Ang):
   XX=              1.1318   YY=             -1.6856   ZZ=              0.5538
   XY=              0.0000   XZ=              0.0000   YZ=              0.0000
 Octapole moment (field-independent basis, Debye-Ang**2):
  XXX=             -0.0000  YYY=             -0.0000  ZZZ=              8.6436  XYY=             -0.0000
  XXY=             -0.0000  XXZ=              0.6952  XZZ=             -0.0000  YZZ=              0.0000
  YYZ=              0.6996  XYZ=              0.0000
 Hexadecapole moment (field-independent basis, Debye-Ang**3):
 XXXX=            -28.2997 YYYY=            -96.0701 ZZZZ=           -215.2900 XXXY=             -0.0000
 XXXZ=              0.0000 YYYX=             -0.0000 YYYZ=              0.0000 ZZZX=              0.0000
 ZZZY=              0.0000 XXYY=            -20.7368 XXZZ=            -40.6086 YYZZ=            -55.6869
 XXYZ=             -0.0000 YYXZ=              0.0000 ZZXY=              0.0000
 N-N= 1.543927921461D+02 E-N=-1.820072374822D+03  KE= 6.349935362237D+02
 There are a total of       92046 grid points.
 ElSum from          density=       40.0000002655
 ElSum from atomic densities=       39.9999998863

 Hirshfeld populations at iteration   1 (CX, CA, CB, DipXYZ):
               1          2          3          4          5          6
     1  C    0.000001   2.882194   2.882194   0.000000   0.000000  -0.242396
     2  S    0.000009   8.052485   8.052485  -0.000000   0.000000   0.184388
     3  F    0.000005   4.532660   4.532660  -0.000000   0.034312   0.025898
     4  F    0.000005   4.532660   4.532660  -0.000000  -0.034312   0.025898
       Tot   0.000020  20.000000  20.000000  -0.000000   0.000000  -0.006211

 Dip from Atomic Chgs              0.000000   0.000000  -0.130240
         Total Dipole             -0.000000   0.000000  -0.136451

 Hirshfeld charges, spin densities, dipoles, and CM5 charges using IRadAn=      5:
              Q-H        S-H        Dx         Dy         Dz        Q-CM5   
     1  C    0.235611   0.000000   0.000000   0.000000  -0.242396   0.295305
     2  S   -0.104971   0.000000  -0.000000   0.000000   0.184388  -0.122402
     3  F   -0.065320   0.000000  -0.000000   0.034312   0.025898  -0.086452
     4  F   -0.065320   0.000000  -0.000000  -0.034312   0.025898  -0.086452
       Tot  -0.000000   0.000000  -0.000000   0.000000  -0.006211  -0.000000
 Hirshfeld charges with hydrogens summed into heavy atoms:
              Q-H       Q-CM5   
     1  C    0.235611   0.295305
     2  S   -0.104971  -0.122402
     3  F   -0.065320  -0.086452
     4  F   -0.065320  -0.086452
 
 EQQ= 0.000000000000E+00 EQD= 0.000000000000E+00 EDD=-0.235774924695E-02
 EQQ+QD+DD=-0.235774924695E-02
 
 Breneman (CHELPG) radii used.
 Generate Potential Derived Charges using the Breneman model, NDens= 1.
 Grid spacing= 0.300 Box extension= 2.800
 NStep X,Y,Z=   20     27     28   Total possible points=       15120
 Number of Points to Fit=    4650

 **********************************************************************

            Electrostatic Properties Using The CC Density.

 **********************************************************************

       Atomic Center    1 is at   0.000000  0.000000 -0.530349
       Atomic Center    2 is at   0.000000  0.000000  1.078525
       Atomic Center    3 is at   0.000000 -1.055221 -1.295538
       Atomic Center    4 is at   0.000000  1.055221 -1.295538
    4650 points will be used for fitting atomic charges
 Fitting point charges to electrostatic potential
 The dipole moment will be constrained to the correct value
 Charges from ESP fit, RMS=   0.00626 RRMS=   0.71358:
 ESP charges:
               1
     1  C    0.410591
     2  S   -0.162753
     3  F   -0.123919
     4  F   -0.123919
 Sum of ESP charges =   0.00000
 ESP charges with hydrogens summed into heavy atoms:
               1
     1  C    0.410591
     2  S   -0.162753
     3  F   -0.123919
     4  F   -0.123919
 Charge=   0.00000 Dipole=     0.0000    -0.0000    -0.3468 Tot=     0.3468
 -----------------------------------------------------------------

              Electrostatic Properties (Atomic Units)

 -----------------------------------------------------------------
    Center     Electric         -------- Electric Field --------
               Potential          X             Y             Z
 -----------------------------------------------------------------
    1 Atom    -14.497845
    2 Atom    -59.213625
    3 Atom    -26.493428
    4 Atom    -26.493428
 -----------------------------------------------------------------
 ******************************Gaussian NBO Version 3.1******************************
             N A T U R A L   A T O M I C   O R B I T A L   A N D
          N A T U R A L   B O N D   O R B I T A L   A N A L Y S I S
 ******************************Gaussian NBO Version 3.1******************************
       /RESON  / : Allow strongly delocalized NBO set

 Analyzing the QCI/CC density

 Job title: f2cs-wavefunction                                               

 Storage needed:    106946 in NPA (2147483536 available)
 GSVD:  LWork=        5094 too small for GESVD, short by       54317 words or       54317 for optimal perf.


 NATURAL POPULATIONS:  Natural atomic orbital occupancies 
                                                          
   NAO  Atom  No  lang   Type(AO)    Occupancy
 --------------------------------------------
     1    C    1  S      Cor( 1S)     1.99949
     2    C    1  S      Val( 2S)     0.92786
     3    C    1  S      Ryd( 3S)     0.00619
     4    C    1  S      Ryd( 4S)     0.00026
     5    C    1  S      Ryd( 5S)     0.00006
     6    C    1  px     Val( 2p)     0.85602
     7    C    1  px     Ryd( 3p)     0.00621
     8    C    1  px     Ryd( 4p)     0.00050
     9    C    1  px     Ryd( 5p)     0.00045
    10    C    1  py     Val( 2p)     0.61949
    11    C    1  py     Ryd( 3p)     0.02300
    12    C    1  py     Ryd( 4p)     0.00056
    13    C    1  py     Ryd( 5p)     0.00032
    14    C    1  pz     Val( 2p)     0.86837
    15    C    1  pz     Ryd( 3p)     0.01802
    16    C    1  pz     Ryd( 4p)     0.00062
    17    C    1  pz     Ryd( 5p)     0.00040
    18    C    1  dxy    Ryd( 3d)     0.00782
    19    C    1  dxy    Ryd( 4d)     0.00054
    20    C    1  dxy    Ryd( 5d)     0.00025
    21    C    1  dxz    Ryd( 3d)     0.01448
    22    C    1  dxz    Ryd( 4d)     0.00049
    23    C    1  dxz    Ryd( 5d)     0.00038
    24    C    1  dyz    Ryd( 3d)     0.01117
    25    C    1  dyz    Ryd( 4d)     0.00042
    26    C    1  dyz    Ryd( 5d)     0.00019
    27    C    1  dx2y2  Ryd( 3d)     0.00602
    28    C    1  dx2y2  Ryd( 4d)     0.00045
    29    C    1  dx2y2  Ryd( 5d)     0.00043
    30    C    1  dz2    Ryd( 3d)     0.01083
    31    C    1  dz2    Ryd( 4d)     0.00061
    32    C    1  dz2    Ryd( 5d)     0.00022
    33    C    1  f(0)   Ryd( 4f)     0.00297
    34    C    1  f(0)   Ryd( 5f)     0.00029
    35    C    1  f(C1)  Ryd( 4f)     0.00147
    36    C    1  f(C1)  Ryd( 5f)     0.00041
    37    C    1  f(S1)  Ryd( 4f)     0.00242
    38    C    1  f(S1)  Ryd( 5f)     0.00065
    39    C    1  f(C2)  Ryd( 4f)     0.00219
    40    C    1  f(C2)  Ryd( 5f)     0.00028
    41    C    1  f(S2)  Ryd( 4f)     0.00217
    42    C    1  f(S2)  Ryd( 5f)     0.00036
    43    C    1  f(C3)  Ryd( 4f)     0.00123
    44    C    1  f(C3)  Ryd( 5f)     0.00035
    45    C    1  f(S3)  Ryd( 4f)     0.00109
    46    C    1  f(S3)  Ryd( 5f)     0.00024

    47    S    2  S      Cor( 1S)     2.00000
    48    S    2  S      Cor( 2S)     1.99880
    49    S    2  S      Val( 3S)     1.76178
    50    S    2  S      Ryd( 4S)     0.00658
    51    S    2  S      Ryd( 5S)     0.00026
    52    S    2  S      Ryd( 6S)     0.00019
    53    S    2  px     Cor( 2p)     1.99990
    54    S    2  px     Val( 3p)     1.29645
    55    S    2  px     Ryd( 4p)     0.00530
    56    S    2  px     Ryd( 5p)     0.00031
    57    S    2  px     Ryd( 6p)     0.00007
    58    S    2  py     Cor( 2p)     2.00001
    59    S    2  py     Val( 3p)     1.80312
    60    S    2  py     Ryd( 4p)     0.00864
    61    S    2  py     Ryd( 5p)     0.00052
    62    S    2  py     Ryd( 6p)     0.00010
    63    S    2  pz     Cor( 2p)     1.99966
    64    S    2  pz     Val( 3p)     1.01539
    65    S    2  pz     Ryd( 4p)     0.00508
    66    S    2  pz     Ryd( 5p)     0.00041
    67    S    2  pz     Ryd( 6p)     0.00009
    68    S    2  dxy    Ryd( 3d)     0.01646
    69    S    2  dxy    Ryd( 4d)     0.00052
    70    S    2  dxy    Ryd( 5d)     0.00009
    71    S    2  dxz    Ryd( 3d)     0.01932
    72    S    2  dxz    Ryd( 4d)     0.00048
    73    S    2  dxz    Ryd( 5d)     0.00016
    74    S    2  dyz    Ryd( 3d)     0.01481
    75    S    2  dyz    Ryd( 4d)     0.00050
    76    S    2  dyz    Ryd( 5d)     0.00023
    77    S    2  dx2y2  Ryd( 3d)     0.01627
    78    S    2  dx2y2  Ryd( 4d)     0.00054
    79    S    2  dx2y2  Ryd( 5d)     0.00008
    80    S    2  dz2    Ryd( 3d)     0.02152
    81    S    2  dz2    Ryd( 4d)     0.00043
    82    S    2  dz2    Ryd( 5d)     0.00016
    83    S    2  f(0)   Ryd( 4f)     0.00140
    84    S    2  f(0)   Ryd( 5f)     0.00018
    85    S    2  f(C1)  Ryd( 4f)     0.00095
    86    S    2  f(C1)  Ryd( 5f)     0.00012
    87    S    2  f(S1)  Ryd( 4f)     0.00104
    88    S    2  f(S1)  Ryd( 5f)     0.00015
    89    S    2  f(C2)  Ryd( 4f)     0.00096
    90    S    2  f(C2)  Ryd( 5f)     0.00012
    91    S    2  f(S2)  Ryd( 4f)     0.00095
    92    S    2  f(S2)  Ryd( 5f)     0.00012
    93    S    2  f(C3)  Ryd( 4f)     0.00135
    94    S    2  f(C3)  Ryd( 5f)     0.00012
    95    S    2  f(S3)  Ryd( 4f)     0.00136
    96    S    2  f(S3)  Ryd( 5f)     0.00012

    97    F    3  S      Cor( 1S)     1.99979
    98    F    3  S      Val( 2S)     1.82579
    99    F    3  S      Ryd( 3S)     0.00641
   100    F    3  S      Ryd( 4S)     0.00033
   101    F    3  S      Ryd( 5S)     0.00027
   102    F    3  px     Val( 2p)     1.86836
   103    F    3  px     Ryd( 3p)     0.01119
   104    F    3  px     Ryd( 4p)     0.00081
   105    F    3  px     Ryd( 5p)     0.00015
   106    F    3  py     Val( 2p)     1.71301
   107    F    3  py     Ryd( 3p)     0.00735
   108    F    3  py     Ryd( 4p)     0.00058
   109    F    3  py     Ryd( 5p)     0.00018
   110    F    3  pz     Val( 2p)     1.81023
   111    F    3  pz     Ryd( 3p)     0.00978
   112    F    3  pz     Ryd( 4p)     0.00074
   113    F    3  pz     Ryd( 5p)     0.00027
   114    F    3  dxy    Ryd( 3d)     0.00681
   115    F    3  dxy    Ryd( 4d)     0.00044
   116    F    3  dxy    Ryd( 5d)     0.00008
   117    F    3  dxz    Ryd( 3d)     0.00569
   118    F    3  dxz    Ryd( 4d)     0.00046
   119    F    3  dxz    Ryd( 5d)     0.00008
   120    F    3  dyz    Ryd( 3d)     0.00985
   121    F    3  dyz    Ryd( 4d)     0.00052
   122    F    3  dyz    Ryd( 5d)     0.00010
   123    F    3  dx2y2  Ryd( 3d)     0.00764
   124    F    3  dx2y2  Ryd( 4d)     0.00052
   125    F    3  dx2y2  Ryd( 5d)     0.00012
   126    F    3  dz2    Ryd( 3d)     0.00640
   127    F    3  dz2    Ryd( 4d)     0.00044
   128    F    3  dz2    Ryd( 5d)     0.00011
   129    F    3  f(0)   Ryd( 4f)     0.00053
   130    F    3  f(0)   Ryd( 5f)     0.00010
   131    F    3  f(C1)  Ryd( 4f)     0.00043
   132    F    3  f(C1)  Ryd( 5f)     0.00009
   133    F    3  f(S1)  Ryd( 4f)     0.00067
   134    F    3  f(S1)  Ryd( 5f)     0.00013
   135    F    3  f(C2)  Ryd( 4f)     0.00073
   136    F    3  f(C2)  Ryd( 5f)     0.00012
   137    F    3  f(S2)  Ryd( 4f)     0.00055
   138    F    3  f(S2)  Ryd( 5f)     0.00011
   139    F    3  f(C3)  Ryd( 4f)     0.00053
   140    F    3  f(C3)  Ryd( 5f)     0.00011
   141    F    3  f(S3)  Ryd( 4f)     0.00057
   142    F    3  f(S3)  Ryd( 5f)     0.00012

   143    F    4  S      Cor( 1S)     1.99979
   144    F    4  S      Val( 2S)     1.82579
   145    F    4  S      Ryd( 3S)     0.00641
   146    F    4  S      Ryd( 4S)     0.00033
   147    F    4  S      Ryd( 5S)     0.00027
   148    F    4  px     Val( 2p)     1.86836
   149    F    4  px     Ryd( 3p)     0.01119
   150    F    4  px     Ryd( 4p)     0.00081
   151    F    4  px     Ryd( 5p)     0.00015
   152    F    4  py     Val( 2p)     1.71301
   153    F    4  py     Ryd( 3p)     0.00735
   154    F    4  py     Ryd( 4p)     0.00058
   155    F    4  py     Ryd( 5p)     0.00018
   156    F    4  pz     Val( 2p)     1.81023
   157    F    4  pz     Ryd( 3p)     0.00978
   158    F    4  pz     Ryd( 4p)     0.00074
   159    F    4  pz     Ryd( 5p)     0.00027
   160    F    4  dxy    Ryd( 3d)     0.00681
   161    F    4  dxy    Ryd( 4d)     0.00044
   162    F    4  dxy    Ryd( 5d)     0.00008
   163    F    4  dxz    Ryd( 3d)     0.00569
   164    F    4  dxz    Ryd( 4d)     0.00046
   165    F    4  dxz    Ryd( 5d)     0.00008
   166    F    4  dyz    Ryd( 3d)     0.00985
   167    F    4  dyz    Ryd( 4d)     0.00052
   168    F    4  dyz    Ryd( 5d)     0.00010
   169    F    4  dx2y2  Ryd( 3d)     0.00764
   170    F    4  dx2y2  Ryd( 4d)     0.00052
   171    F    4  dx2y2  Ryd( 5d)     0.00012
   172    F    4  dz2    Ryd( 3d)     0.00640
   173    F    4  dz2    Ryd( 4d)     0.00044
   174    F    4  dz2    Ryd( 5d)     0.00011
   175    F    4  f(0)   Ryd( 4f)     0.00053
   176    F    4  f(0)   Ryd( 5f)     0.00010
   177    F    4  f(C1)  Ryd( 4f)     0.00043
   178    F    4  f(C1)  Ryd( 5f)     0.00009
   179    F    4  f(S1)  Ryd( 4f)     0.00067
   180    F    4  f(S1)  Ryd( 5f)     0.00013
   181    F    4  f(C2)  Ryd( 4f)     0.00073
   182    F    4  f(C2)  Ryd( 5f)     0.00012
   183    F    4  f(S2)  Ryd( 4f)     0.00055
   184    F    4  f(S2)  Ryd( 5f)     0.00011
   185    F    4  f(C3)  Ryd( 4f)     0.00053
   186    F    4  f(C3)  Ryd( 5f)     0.00011
   187    F    4  f(S3)  Ryd( 4f)     0.00057
   188    F    4  f(S3)  Ryd( 5f)     0.00012

 WARNING:  1 low occupancy (<1.9990e) core orbital  found on  S    2


 Summary of Natural Population Analysis:                  
                                                          
                                       Natural Population 
                Natural  -----------------------------------------------
    Atom  No    Charge         Core      Valence    Rydberg      Total
 -----------------------------------------------------------------------
      C    1    0.60177      1.99949     3.27175    0.12699     5.39823
      S    2   -0.00318      9.99838     5.87674    0.12806    16.00318
      F    3   -0.29930      1.99979     7.21740    0.08211     9.29930
      F    4   -0.29930      1.99979     7.21740    0.08211     9.29930
 =======================================================================
   * Total *   -0.00000     15.99744    23.58329    0.41927    40.00000

                                 Natural Population      
 --------------------------------------------------------
   Core                      15.99744 ( 99.9840% of  16)
   Valence                   23.58329 ( 98.2637% of  24)
   Natural Minimal Basis     39.58073 ( 98.9518% of  40)
   Natural Rydberg Basis      0.41927 (  1.0482% of  40)
 --------------------------------------------------------

    Atom  No          Natural Electron Configuration
 ----------------------------------------------------------------------------
      C    1      [core]2S( 0.93)2p( 2.34)3S( 0.01)3p( 0.05)3d( 0.05)4f( 0.01)
      S    2      [core]3S( 1.76)3p( 4.11)4S( 0.01)3d( 0.09)4p( 0.02)4f( 0.01)
      F    3      [core]2S( 1.83)2p( 5.39)3S( 0.01)3p( 0.03)3d( 0.04)
      F    4      [core]2S( 1.83)2p( 5.39)3S( 0.01)3p( 0.03)3d( 0.04)


 NBO analysis skipped by request.
 Unable to Open any file for archive entry.
 1\1\GINC-TRAPISTA\SP\RQCISD-FC\Aug-CC-pVTZ\C1F2S1\WAGNER\03-Sep-2022\0
 \\# qcisd/aug-cc-pvtz nosymm density=current pop=(chelpg,hirshfeld,npa
 ,dipole)\\f2cs-wavefunction\\0,1\C,0,0.,0.,-0.530349\S,0,0.,0.,1.07852
 5\F,0,0.,-1.055221,-1.295538\F,0,0.,1.055221,-1.295538\\Version=EM64L-
 G16RevC.01\HF=-634.3571714\MP2=-635.1961162\MP3=-635.1996875\MP4D=-635
 .2165516\MP4DQ=-635.1972058\MP4SDQ=-635.2080518\QCISD=-635.2071957\RMS
 D=6.561e-09\Dipole=0.,0.,-0.1364511\Quadrupole=0.8414298,-1.2531792,0.
 4117495,0.,0.,0.\PG=C02V [C2(C1S1),SGV(F2)]\\@
 The archive entry for this job was punched.


  THE LARGE PRINT GIVETH,
  AND THE SMALL PRINT TAKETH AWAY.

                     -- TOM WAITS
 Job cpu time:       0 days  6 hours 27 minutes 34.1 seconds.
 Elapsed time:       0 days  0 hours 24 minutes 30.8 seconds.
 File lengths (MBytes):  RWF=  21970 Int=      0 D2E=      0 Chk=      4 Scr=      1
 Normal termination of Gaussian 16 at Sat Sep  3 11:28:05 2022.
