 Entering Gaussian System, Link 0=/home/wagner/chemistry/gaussian/g16/g16
 Input=GAUSSIAN.com
 Output=GAUSSIAN.log
 Initial command:
 /home/wagner/chemistry/gaussian/g16/l1.exe "/home/wagner/chemistry/gaussian/work/Gau-15498.inp" -scrdir="/home/wagner/chemistry/gaussian/work/"
 Entering Link 1 = /home/wagner/chemistry/gaussian/g16/l1.exe PID=     15500.
  
 Copyright (c) 1988-2019, Gaussian, Inc.  All Rights Reserved.
  
 This is part of the Gaussian(R) 16 program.  It is based on
 the Gaussian(R) 09 system (copyright 2009, Gaussian, Inc.),
 the Gaussian(R) 03 system (copyright 2003, Gaussian, Inc.),
 the Gaussian(R) 98 system (copyright 1998, Gaussian, Inc.),
 the Gaussian(R) 94 system (copyright 1995, Gaussian, Inc.),
 the Gaussian 92(TM) system (copyright 1992, Gaussian, Inc.),
 the Gaussian 90(TM) system (copyright 1990, Gaussian, Inc.),
 the Gaussian 88(TM) system (copyright 1988, Gaussian, Inc.),
 the Gaussian 86(TM) system (copyright 1986, Carnegie Mellon
 University), and the Gaussian 82(TM) system (copyright 1983,
 Carnegie Mellon University). Gaussian is a federally registered
 trademark of Gaussian, Inc.
  
 This software contains proprietary and confidential information,
 including trade secrets, belonging to Gaussian, Inc.
  
 This software is provided under written license and may be
 used, copied, transmitted, or stored only in accord with that
 written license.
  
 The following legend is applicable only to US Government
 contracts under FAR:
  
                    RESTRICTED RIGHTS LEGEND
  
 Use, reproduction and disclosure by the US Government is
 subject to restrictions as set forth in subparagraphs (a)
 and (c) of the Commercial Computer Software - Restricted
 Rights clause in FAR 52.227-19.
  
 Gaussian, Inc.
 340 Quinnipiac St., Bldg. 40, Wallingford CT 06492
  
  
 ---------------------------------------------------------------
 Warning -- This program may not be used in any manner that
 competes with the business of Gaussian, Inc. or will provide
 assistance to any competitor of Gaussian, Inc.  The licensee
 of this program is prohibited from giving any competitor of
 Gaussian, Inc. access to this program.  By using this program,
 the user acknowledges that Gaussian, Inc. is engaged in the
 business of creating and licensing software in the field of
 computational chemistry and represents and warrants to the
 licensee that it is not a competitor of Gaussian, Inc. and that
 it will not use this program in any manner prohibited above.
 ---------------------------------------------------------------
  

 Cite this work as:
 Gaussian 16, Revision C.01,
 M. J. Frisch, G. W. Trucks, H. B. Schlegel, G. E. Scuseria, 
 M. A. Robb, J. R. Cheeseman, G. Scalmani, V. Barone, 
 G. A. Petersson, H. Nakatsuji, X. Li, M. Caricato, A. V. Marenich, 
 J. Bloino, B. G. Janesko, R. Gomperts, B. Mennucci, H. P. Hratchian, 
 J. V. Ortiz, A. F. Izmaylov, J. L. Sonnenberg, D. Williams-Young, 
 F. Ding, F. Lipparini, F. Egidi, J. Goings, B. Peng, A. Petrone, 
 T. Henderson, D. Ranasinghe, V. G. Zakrzewski, J. Gao, N. Rega, 
 G. Zheng, W. Liang, M. Hada, M. Ehara, K. Toyota, R. Fukuda, 
 J. Hasegawa, M. Ishida, T. Nakajima, Y. Honda, O. Kitao, H. Nakai, 
 T. Vreven, K. Throssell, J. A. Montgomery, Jr., J. E. Peralta, 
 F. Ogliaro, M. J. Bearpark, J. J. Heyd, E. N. Brothers, K. N. Kudin, 
 V. N. Staroverov, T. A. Keith, R. Kobayashi, J. Normand, 
 K. Raghavachari, A. P. Rendell, J. C. Burant, S. S. Iyengar, 
 J. Tomasi, M. Cossi, J. M. Millam, M. Klene, C. Adamo, R. Cammi, 
 J. W. Ochterski, R. L. Martin, K. Morokuma, O. Farkas, 
 J. B. Foresman, and D. J. Fox, Gaussian, Inc., Wallingford CT, 2019.
 
 ******************************************
 Gaussian 16:  EM64L-G16RevC.01  3-Jul-2019
                 3-Sep-2022 
 ******************************************
 %nproc=16
 Will use up to   16 processors via shared memory.
 %mem=16GB
 ----------------------------------------------------------------------
 # qcisd/aug-cc-pvtz nosymm density=current pop=(chelpg,hirshfeld,npa,d
 ipole)
 ----------------------------------------------------------------------
 1/30=1,38=1,172=1/1;
 2/12=2,15=1,17=6,18=5,40=1/2;
 3/5=16,6=1,7=10,11=9,25=1,30=1,71=1/1,2,3;
 4//1;
 5/5=2,38=5/2;
 8/6=4,9=120000,10=1/1,4;
 9/5=8,15=1/13;
 11/28=-7,31=1,32=3,42=3/11;
 10/5=6,13=10,31=1/2;
 6/7=2,8=2,9=2,10=2,15=24,20=3,22=-1,40=-1,79=1/1,2,7;
 99/5=1,9=1/99;
 -----------------
 f2cs-wavefunction
 -----------------
 Symbolic Z-matrix:
 Charge =  0 Multiplicity = 1
 C                     0.        0.       -0.51035 
 S                     0.        0.        1.07852 
 F                     0.       -1.05522  -1.29554 
 F                     0.        1.05522  -1.29554 
 
                          Input orientation:                          
 ---------------------------------------------------------------------
 Center     Atomic      Atomic             Coordinates (Angstroms)
 Number     Number       Type             X           Y           Z
 ---------------------------------------------------------------------
      1          6           0        0.000000    0.000000   -0.510349
      2         16           0        0.000000    0.000000    1.078525
      3          9           0        0.000000   -1.055221   -1.295538
      4          9           0        0.000000    1.055221   -1.295538
 ---------------------------------------------------------------------
                    Distance matrix (angstroms):
                    1          2          3          4
     1  C    0.000000
     2  S    1.588874   0.000000
     3  F    1.315300   2.598012   0.000000
     4  F    1.315300   2.598012   2.110442   0.000000
 Symmetry turned off by external request.
 Stoichiometry    CF2S
 Framework group  C2V[C2(CS),SGV(F2)]
 Deg. of freedom     3
 Full point group                 C2V     NOp   4
 Rotational constants (GHZ):          11.9449202           5.1163176           3.5820382
 Standard basis: Aug-CC-pVTZ (5D, 7F)
   188 basis functions,   330 primitive gaussians,   224 cartesian basis functions
    20 alpha electrons       20 beta electrons
       nuclear repulsion energy       154.3955427426 Hartrees.
 NAtoms=    4 NActive=    4 NUniq=    4 SFac= 1.00D+00 NAtFMM=   60 NAOKFM=F Big=F
 Integral buffers will be    131072 words long.
 Raffenetti 1 integral format.
 Two-electron integral symmetry is turned off.
 One-electron integrals computed using PRISM.
 NBasis=   188 RedAO= T EigKep=  9.62D-05  NBF=   188
 NBsUse=   188 1.00D-06 EigRej= -1.00D+00 NBFU=   188
 ExpMin= 3.51D-02 ExpMax= 3.74D+05 ExpMxC= 1.18D+03 IAcc=3 IRadAn=         5 AccDes= 0.00D+00
 Harris functional with IExCor=  205 and IRadAn=       5 diagonalized for initial guess.
 HarFok:  IExCor=  205 AccDes= 0.00D+00 IRadAn=         5 IDoV= 1 UseB2=F ITyADJ=14
 ICtDFT=  3500011 ScaDFX=  1.000000  1.000000  1.000000  1.000000
 FoFCou: FMM=F IPFlag=           0 FMFlag=      100000 FMFlg1=           0
         NFxFlg=           0 DoJE=T BraDBF=F KetDBF=T FulRan=T
         wScrn=  0.000000 ICntrl=       500 IOpCl=  0 I1Cent=   200000004 NGrid=           0
         NMat0=    1 NMatS0=      1 NMatT0=    0 NMatD0=    1 NMtDS0=    0 NMtDT0=    0
 Symmetry not used in FoFCou.
 Keep R1 ints in memory in canonical form, NReq=165820989.
 Requested convergence on RMS density matrix=1.00D-08 within 128 cycles.
 Requested convergence on MAX density matrix=1.00D-06.
 Requested convergence on             energy=1.00D-06.
 No special actions if energy rises.
 SCF Done:  E(RHF) =  -634.356306252     A.U. after   12 cycles
            NFock= 12  Conv=0.59D-08     -V/T= 2.0005
 ExpMin= 3.51D-02 ExpMax= 3.74D+05 ExpMxC= 1.18D+03 IAcc=3 IRadAn=         5 AccDes= 0.00D+00
 HarFok:  IExCor=  205 AccDes= 0.00D+00 IRadAn=         5 IDoV=-2 UseB2=F ITyADJ=14
 ICtDFT= 12500011 ScaDFX=  1.000000  1.000000  1.000000  1.000000
 Range of M.O.s used for correlation:     9   188
 NBasis=   188 NAE=    20 NBE=    20 NFC=     8 NFV=     0
 NROrb=    180 NOA=    12 NOB=    12 NVA=   168 NVB=   168

 **** Warning!!: The largest alpha MO coefficient is  0.28786554D+02

 Semi-Direct transformation.
 ModeAB=           2 MOrb=            12 LenV=    2146475521
 LASXX=     33405819 LTotXX=    33405819 LenRXX=    33405819
 LTotAB=    33954012 MaxLAS=    54432000 LenRXY=    54432000
 NonZer=    66811638 LenScr=   100987392 LnRSAI=           0
 LnScr1=           0 LExtra=           0 Total=    188825211
 MaxDsk=          -1 SrtSym=           F ITran=            4
 JobTyp=0 Pass  1:  I=   1 to  12.
 (rs|ai) integrals will be sorted in core.
 Spin components of T(2) and E(2):
     alpha-alpha T2 =       0.3017608041D-01 E2=     -0.1104929890D+00
     alpha-beta  T2 =       0.1599334814D+00 E2=     -0.6191389648D+00
     beta-beta   T2 =       0.3017608041D-01 E2=     -0.1104929890D+00
 ANorm=    0.1104665398D+01
 E2 =    -0.8401249427D+00 EUMP2 =    -0.63519643119424D+03
 Keep R2 and R3 ints in memory in canonical form, NReq=323654062.
 CIDS: In Core Option IDoMem=           1.
 Iterations=  50 Convergence= 0.100D-07
 Produce multiple copies of IABC intergrals
 Iteration Nr.   1
 **********************
 DD1Dir will call FoFMem   1 times, MxPair=       156
 NAB=    78 NAA=     0 NBB=     0.
 MP4(R+Q)=  0.19359609D-01
 E3=       -0.31973838D-02        EUMP3=      -0.63519962858D+03
 E4(DQ)=    0.23725560D-02        UMP4(DQ)=   -0.63519725602D+03
 E4(SDQ)=  -0.84993085D-02        UMP4(SDQ)=  -0.63520812789D+03
 DE(Corr)= -0.82396272     E(Corr)=     -635.18026897    
 NORM(A)=   0.11038747D+01
 Iteration Nr.   2
 **********************
 DD1Dir will call FoFMem   1 times, MxPair=       156
 NAB=    78 NAA=     0 NBB=     0.
 DE(Corr)= -0.84970831     E(CORR)=     -635.20601456     Delta=-2.57D-02
 NORM(A)=   0.11127898D+01
 Iteration Nr.   3
 **********************
 DD1Dir will call FoFMem   1 times, MxPair=       156
 NAB=    78 NAA=     0 NBB=     0.
 DE(Corr)= -0.84801660     E(CORR)=     -635.20432285     Delta= 1.69D-03
 NORM(A)=   0.11156044D+01
 Iteration Nr.   4
 **********************
 DD1Dir will call FoFMem   1 times, MxPair=       156
 NAB=    78 NAA=     0 NBB=     0.
 DE(Corr)= -0.85054423     E(CORR)=     -635.20685048     Delta=-2.53D-03
 NORM(A)=   0.11166874D+01
 Iteration Nr.   5
 **********************
 DD1Dir will call FoFMem   1 times, MxPair=       156
 NAB=    78 NAA=     0 NBB=     0.
 DE(Corr)= -0.85084307     E(CORR)=     -635.20714932     Delta=-2.99D-04
 NORM(A)=   0.11170007D+01
 Iteration Nr.   6
 **********************
 DD1Dir will call FoFMem   1 times, MxPair=       156
 NAB=    78 NAA=     0 NBB=     0.
 DE(Corr)= -0.85088179     E(CORR)=     -635.20718805     Delta=-3.87D-05
 NORM(A)=   0.11170476D+01
 Iteration Nr.   7
 **********************
 DD1Dir will call FoFMem   1 times, MxPair=       156
 NAB=    78 NAA=     0 NBB=     0.
 DE(Corr)= -0.85088609     E(CORR)=     -635.20719234     Delta=-4.30D-06
 NORM(A)=   0.11170456D+01
 Iteration Nr.   8
 **********************
 DD1Dir will call FoFMem   1 times, MxPair=       156
 NAB=    78 NAA=     0 NBB=     0.
 DE(Corr)= -0.85088538     E(CORR)=     -635.20719163     Delta= 7.17D-07
 NORM(A)=   0.11170500D+01
 Iteration Nr.   9
 **********************
 DD1Dir will call FoFMem   1 times, MxPair=       156
 NAB=    78 NAA=     0 NBB=     0.
 DE(Corr)= -0.85088463     E(CORR)=     -635.20719088     Delta= 7.46D-07
 NORM(A)=   0.11170497D+01
 Iteration Nr.  10
 **********************
 DD1Dir will call FoFMem   1 times, MxPair=       156
 NAB=    78 NAA=     0 NBB=     0.
 DE(Corr)= -0.85088508     E(CORR)=     -635.20719133     Delta=-4.49D-07
 NORM(A)=   0.11170508D+01
 Iteration Nr.  11
 **********************
 DD1Dir will call FoFMem   1 times, MxPair=       156
 NAB=    78 NAA=     0 NBB=     0.
 DE(Corr)= -0.85088538     E(CORR)=     -635.20719163     Delta=-3.01D-07
 NORM(A)=   0.11170518D+01
 Iteration Nr.  12
 **********************
 DD1Dir will call FoFMem   1 times, MxPair=       156
 NAB=    78 NAA=     0 NBB=     0.
 DE(Corr)= -0.85088570     E(CORR)=     -635.20719195     Delta=-3.22D-07
 NORM(A)=   0.11170524D+01
 Iteration Nr.  13
 **********************
 DD1Dir will call FoFMem   1 times, MxPair=       156
 NAB=    78 NAA=     0 NBB=     0.
 DE(Corr)= -0.85088583     E(CORR)=     -635.20719208     Delta=-1.26D-07
 NORM(A)=   0.11170528D+01
 Iteration Nr.  14
 **********************
 DD1Dir will call FoFMem   1 times, MxPair=       156
 NAB=    78 NAA=     0 NBB=     0.
 DE(Corr)= -0.85088590     E(CORR)=     -635.20719215     Delta=-7.44D-08
 NORM(A)=   0.11170529D+01
 Iteration Nr.  15
 **********************
 DD1Dir will call FoFMem   1 times, MxPair=       156
 NAB=    78 NAA=     0 NBB=     0.
 DE(Corr)= -0.85088593     E(CORR)=     -635.20719218     Delta=-2.74D-08
 NORM(A)=   0.11170529D+01
 Iteration Nr.  16
 **********************
 DD1Dir will call FoFMem   1 times, MxPair=       156
 NAB=    78 NAA=     0 NBB=     0.
 DE(Corr)= -0.85088594     E(CORR)=     -635.20719219     Delta=-5.22D-09
 NORM(A)=   0.11170529D+01
 Wavefunction amplitudes converged. E(Corr)=     -635.20719219    
 Largest amplitude= 8.44D-02

 Z-amplitude iterations

 Iteration Nr.   1
 **********************
 DD1Dir will call FoFMem   1 times, MxPair=       156
 NAB=    78 NAA=     0 NBB=     0.
 DE(Z)= -0.82699403     E(Z)=     -635.18330028     Delta= 2.39D-02
 NORM(A)=   0.11170465D+01
 Iteration Nr.   2
 **********************
 DD1Dir will call FoFMem   1 times, MxPair=       156
 NAB=    78 NAA=     0 NBB=     0.
 DE(Z)= -0.82699401     E(Z)=     -635.18330027     Delta= 1.84D-08
 NORM(A)=   0.11170341D+01
 Iteration Nr.   3
 **********************
 DD1Dir will call FoFMem   1 times, MxPair=       156
 NAB=    78 NAA=     0 NBB=     0.
 DE(Z)= -0.82699373     E(Z)=     -635.18329998     Delta= 2.85D-07
 NORM(A)=   0.11170309D+01
 Iteration Nr.   4
 **********************
 DD1Dir will call FoFMem   1 times, MxPair=       156
 NAB=    78 NAA=     0 NBB=     0.
 DE(Z)= -0.82699374     E(Z)=     -635.18329999     Delta=-8.28D-09
 NORM(A)=   0.11170127D+01
 Iteration Nr.   5
 **********************
 DD1Dir will call FoFMem   1 times, MxPair=       156
 NAB=    78 NAA=     0 NBB=     0.
 DE(Z)= -0.82699333     E(Z)=     -635.18329958     Delta= 4.10D-07
 NORM(A)=   0.11088639D+01
 Iteration Nr.   6
 **********************
 DD1Dir will call FoFMem   1 times, MxPair=       156
 NAB=    78 NAA=     0 NBB=     0.
 DE(Z)= -0.82685239     E(Z)=     -635.18315864     Delta= 1.41D-04
 NORM(A)=   0.11088616D+01
 Iteration Nr.   7
 **********************
 DD1Dir will call FoFMem   1 times, MxPair=       156
 NAB=    78 NAA=     0 NBB=     0.
 DE(Z)= -0.82685083     E(Z)=     -635.18315708     Delta= 1.56D-06
 NORM(A)=   0.11088600D+01
 Iteration Nr.   8
 **********************
 DD1Dir will call FoFMem   1 times, MxPair=       156
 NAB=    78 NAA=     0 NBB=     0.
 DE(Z)= -0.82685073     E(Z)=     -635.18315699     Delta= 9.32D-08
 NORM(A)=   0.11088594D+01
 Iteration Nr.   9
 **********************
 DD1Dir will call FoFMem   1 times, MxPair=       156
 NAB=    78 NAA=     0 NBB=     0.
 DE(Z)= -0.82685062     E(Z)=     -635.18315688     Delta= 1.11D-07
 NORM(A)=   0.11088597D+01
 Iteration Nr.  10
 **********************
 DD1Dir will call FoFMem   1 times, MxPair=       156
 NAB=    78 NAA=     0 NBB=     0.
 DE(Z)= -0.82685049     E(Z)=     -635.18315674     Delta= 1.37D-07
 NORM(A)=   0.11088598D+01
 Iteration Nr.  11
 **********************
 DD1Dir will call FoFMem   1 times, MxPair=       156
 NAB=    78 NAA=     0 NBB=     0.
 DE(Z)= -0.82685068     E(Z)=     -635.18315693     Delta=-1.91D-07
 NORM(A)=   0.11088598D+01
 Iteration Nr.  12
 **********************
 DD1Dir will call FoFMem   1 times, MxPair=       156
 NAB=    78 NAA=     0 NBB=     0.
 DE(Z)= -0.82685066     E(Z)=     -635.18315691     Delta= 1.87D-08
 NORM(A)=   0.11088599D+01
 Iteration Nr.  13
 **********************
 DD1Dir will call FoFMem   1 times, MxPair=       156
 NAB=    78 NAA=     0 NBB=     0.
 DE(Z)= -0.82685067     E(Z)=     -635.18315693     Delta=-1.51D-08
 NORM(A)=   0.11088599D+01
 Iteration Nr.  14
 **********************
 DD1Dir will call FoFMem   1 times, MxPair=       156
 NAB=    78 NAA=     0 NBB=     0.
 DE(Z)= -0.82685067     E(Z)=     -635.18315693     Delta= 1.80D-10
 NORM(A)=   0.11088598D+01
 Z-amplitudes converged.
 Discarding MO integrals.
          Differentiating once with respect to electric field.
                with respect to dipole field.
          Electric field/nuclear overlap derivatives assumed to be zero.
 Keep R1 ints in memory in canonical form, NReq=165824710.
          There are     1 degrees of freedom in the 1st order CPHF.  IDoFFX=0 NUNeed=     1.
 LinEq1:  Iter=  0 NonCon=     1 RMS=2.85D-03 Max=7.74D-02 NDo=     1
 AX will form     1 AO Fock derivatives at one time.
 LinEq1:  Iter=  1 NonCon=     1 RMS=8.86D-04 Max=1.23D-02 NDo=     1
 LinEq1:  Iter=  2 NonCon=     1 RMS=3.99D-04 Max=1.23D-02 NDo=     1
 LinEq1:  Iter=  3 NonCon=     1 RMS=1.06D-04 Max=2.28D-03 NDo=     1
 LinEq1:  Iter=  4 NonCon=     1 RMS=2.49D-05 Max=5.71D-04 NDo=     1
 LinEq1:  Iter=  5 NonCon=     1 RMS=6.29D-06 Max=1.10D-04 NDo=     1
 LinEq1:  Iter=  6 NonCon=     1 RMS=2.45D-06 Max=5.54D-05 NDo=     1
 LinEq1:  Iter=  7 NonCon=     1 RMS=7.89D-07 Max=1.52D-05 NDo=     1
 LinEq1:  Iter=  8 NonCon=     1 RMS=1.64D-07 Max=2.26D-06 NDo=     1
 LinEq1:  Iter=  9 NonCon=     1 RMS=3.09D-08 Max=3.74D-07 NDo=     1
 LinEq1:  Iter= 10 NonCon=     1 RMS=6.16D-09 Max=7.23D-08 NDo=     1
 LinEq1:  Iter= 11 NonCon=     1 RMS=9.74D-10 Max=1.53D-08 NDo=     1
 LinEq1:  Iter= 12 NonCon=     1 RMS=1.38D-10 Max=1.92D-09 NDo=     1
 LinEq1:  Iter= 13 NonCon=     0 RMS=2.55D-11 Max=3.00D-10 NDo=     1
 Linear equations converged to 1.000D-10 1.000D-09 after    13 iterations.
 End of Minotr F.D. properties file   721 does not exist.
 End of Minotr F.D. properties file   722 does not exist.
 End of Minotr F.D. properties file   788 does not exist.

 **********************************************************************

            Population analysis using the CC Density.

 **********************************************************************

 Alpha  occ. eigenvalues --  -91.97752 -26.38715 -26.38712 -11.51766  -8.98152
 Alpha  occ. eigenvalues --   -6.66278  -6.66111  -6.65990  -1.75015  -1.67616
 Alpha  occ. eigenvalues --   -1.10273  -0.92654  -0.83919  -0.79880  -0.77266
 Alpha  occ. eigenvalues --   -0.71860  -0.69760  -0.59938  -0.43455  -0.40404
 Alpha virt. eigenvalues --    0.05223   0.05478   0.06487   0.08678   0.08697
 Alpha virt. eigenvalues --    0.10312   0.10773   0.12169   0.19684   0.20518
 Alpha virt. eigenvalues --    0.20831   0.23085   0.23467   0.26354   0.26836
 Alpha virt. eigenvalues --    0.27405   0.28398   0.29048   0.29348   0.29786
 Alpha virt. eigenvalues --    0.35788   0.36514   0.41386   0.41868   0.45021
 Alpha virt. eigenvalues --    0.46447   0.47938   0.51589   0.51834   0.53080
 Alpha virt. eigenvalues --    0.53094   0.62309   0.63523   0.65988   0.69902
 Alpha virt. eigenvalues --    0.72889   0.73505   0.74708   0.76513   0.77691
 Alpha virt. eigenvalues --    0.85031   0.85397   0.88301   0.89991   0.90851
 Alpha virt. eigenvalues --    0.96098   0.96199   1.02224   1.04070   1.07693
 Alpha virt. eigenvalues --    1.09339   1.10843   1.11353   1.12599   1.15084
 Alpha virt. eigenvalues --    1.15399   1.17616   1.19582   1.23217   1.25747
 Alpha virt. eigenvalues --    1.27881   1.32718   1.34902   1.40161   1.42890
 Alpha virt. eigenvalues --    1.44615   1.49324   1.53670   1.57626   1.65097
 Alpha virt. eigenvalues --    1.67593   1.70640   1.70995   1.72621   1.73988
 Alpha virt. eigenvalues --    1.77823   2.00164   2.03777   2.06496   2.07721
 Alpha virt. eigenvalues --    2.11845   2.27317   2.30676   2.31736   2.36131
 Alpha virt. eigenvalues --    2.41409   2.43326   2.43729   2.46061   2.51969
 Alpha virt. eigenvalues --    2.55113   2.58806   2.66400   2.75611   2.80697
 Alpha virt. eigenvalues --    2.84493   2.86262   2.90453   2.93166   2.93484
 Alpha virt. eigenvalues --    2.97374   3.00124   3.01091   3.06569   3.14349
 Alpha virt. eigenvalues --    3.15425   3.17953   3.19266   3.20976   3.32706
 Alpha virt. eigenvalues --    3.32826   3.37950   3.39803   3.45809   3.52028
 Alpha virt. eigenvalues --    3.54946   3.55945   3.62850   3.72392   3.73307
 Alpha virt. eigenvalues --    3.75337   3.75514   3.92617   4.00622   4.10873
 Alpha virt. eigenvalues --    4.18643   4.21059   4.26769   4.43104   4.55145
 Alpha virt. eigenvalues --    4.59541   4.70434   4.75490   4.85775   5.45049
 Alpha virt. eigenvalues --    5.50635   5.69570   5.86918   6.24811   6.62916
 Alpha virt. eigenvalues --    7.18956   8.78844   8.80741   8.86153   8.87160
 Alpha virt. eigenvalues --    9.00056   9.00339   9.10394   9.12497   9.20147
 Alpha virt. eigenvalues --    9.26850   9.27178   9.29819   9.34061   9.34304
 Alpha virt. eigenvalues --    9.36584   9.36746   9.40089   9.45268   9.54730
 Alpha virt. eigenvalues --    9.56013   9.58754   9.72244   9.84874   9.86532
 Alpha virt. eigenvalues --   11.96619  15.10238  16.07173
          Condensed to atoms (all electrons):
               1          2          3          4
     1  C    5.194355   0.240909   0.110114   0.110114
     2  S    0.240909  15.946187  -0.067233  -0.067233
     3  F    0.110114  -0.067233   9.185412  -0.082354
     4  F    0.110114  -0.067233  -0.082354   9.185412
 Mulliken charges:
               1
     1  C    0.344508
     2  S   -0.052630
     3  F   -0.145939
     4  F   -0.145939
 Sum of Mulliken charges =  -0.00000
 Mulliken charges with hydrogens summed into heavy atoms:
               1
     1  C    0.344508
     2  S   -0.052630
     3  F   -0.145939
     4  F   -0.145939
 Electronic spatial extent (au):  <R**2>=            314.9877
 Charge=             -0.0000 electrons
 Dipole moment (field-independent basis, Debye):
    X=             -0.0000    Y=              0.0000    Z=             -0.1018  Tot=              0.1018
 Quadrupole moment (field-independent basis, Debye-Ang):
   XX=            -27.2398   YY=            -30.1685   ZZ=            -27.9780
   XY=             -0.0000   XZ=             -0.0000   YZ=              0.0000
 Traceless Quadrupole moment (field-independent basis, Debye-Ang):
   XX=              1.2223   YY=             -1.7064   ZZ=              0.4841
   XY=             -0.0000   XZ=             -0.0000   YZ=              0.0000
 Octapole moment (field-independent basis, Debye-Ang**2):
  XXX=             -0.0000  YYY=              0.0000  ZZZ=              8.9229  XYY=             -0.0000
  XXY=             -0.0000  XXZ=              0.8087  XZZ=             -0.0000  YZZ=              0.0000
  YYZ=              0.9059  XYZ=             -0.0000
 Hexadecapole moment (field-independent basis, Debye-Ang**3):
 XXXX=            -27.9682 YYYY=            -96.2664 ZZZZ=           -214.7985 XXXY=              0.0000
 XXXZ=             -0.0000 YYYX=             -0.0000 YYYZ=             -0.0000 ZZZX=             -0.0000
 ZZZY=              0.0000 XXYY=            -20.6992 XXZZ=            -40.4313 YYZZ=            -55.5883
 XXYZ=             -0.0000 YYXZ=             -0.0000 ZZXY=             -0.0000
 N-N= 1.543955427426D+02 E-N=-1.820146092096D+03  KE= 6.349985289287D+02
 There are a total of       92046 grid points.
 ElSum from          density=       40.0000000653
 ElSum from atomic densities=       39.9999996301

 Hirshfeld populations at iteration   1 (CX, CA, CB, DipXYZ):
               1          2          3          4          5          6
     1  C    0.000001   2.883592   2.883592   0.000000   0.000000  -0.238693
     2  S    0.000009   8.043577   8.043577   0.000000   0.000000   0.189262
     3  F    0.000005   4.536415   4.536415   0.000000   0.036690   0.027465
     4  F    0.000005   4.536415   4.536415  -0.000000  -0.036690   0.027465
       Tot   0.000019  20.000000  20.000000   0.000000   0.000000   0.005499

 Dip from Atomic Chgs              0.000000   0.000000  -0.045555
         Total Dipole              0.000000   0.000000  -0.040055

 Hirshfeld charges, spin densities, dipoles, and CM5 charges using IRadAn=      5:
              Q-H        S-H        Dx         Dy         Dz        Q-CM5   
     1  C    0.232816   0.000000   0.000000   0.000000  -0.238693   0.292269
     2  S   -0.087155   0.000000   0.000000   0.000000   0.189262  -0.105531
     3  F   -0.072831   0.000000   0.000000   0.036690   0.027465  -0.093369
     4  F   -0.072831   0.000000  -0.000000  -0.036690   0.027465  -0.093369
       Tot  -0.000000   0.000000   0.000000   0.000000   0.005499  -0.000000
 Hirshfeld charges with hydrogens summed into heavy atoms:
              Q-H       Q-CM5   
     1  C    0.232816   0.292269
     2  S   -0.087155  -0.105531
     3  F   -0.072831  -0.093369
     4  F   -0.072831  -0.093369
 
 EQQ= 0.000000000000E+00 EQD= 0.000000000000E+00 EDD=-0.244425183303E-02
 EQQ+QD+DD=-0.244425183303E-02
 
 Breneman (CHELPG) radii used.
 Generate Potential Derived Charges using the Breneman model, NDens= 1.
 Grid spacing= 0.300 Box extension= 2.800
 NStep X,Y,Z=   20     27     28   Total possible points=       15120
 Number of Points to Fit=    4650

 **********************************************************************

            Electrostatic Properties Using The CC Density.

 **********************************************************************

       Atomic Center    1 is at   0.000000  0.000000 -0.510349
       Atomic Center    2 is at   0.000000  0.000000  1.078525
       Atomic Center    3 is at   0.000000 -1.055221 -1.295538
       Atomic Center    4 is at   0.000000  1.055221 -1.295538
    4650 points will be used for fitting atomic charges
 Fitting point charges to electrostatic potential
 The dipole moment will be constrained to the correct value
 Charges from ESP fit, RMS=   0.00613 RRMS=   0.73509:
 ESP charges:
               1
     1  C    0.409966
     2  S   -0.144519
     3  F   -0.132723
     4  F   -0.132723
 Sum of ESP charges =  -0.00000
 ESP charges with hydrogens summed into heavy atoms:
               1
     1  C    0.409966
     2  S   -0.144519
     3  F   -0.132723
     4  F   -0.132723
 Charge=  -0.00000 Dipole=     0.0000    -0.0000    -0.1018 Tot=     0.1018
 -----------------------------------------------------------------

              Electrostatic Properties (Atomic Units)

 -----------------------------------------------------------------
    Center     Electric         -------- Electric Field --------
               Potential          X             Y             Z
 -----------------------------------------------------------------
    1 Atom    -14.500074
    2 Atom    -59.211283
    3 Atom    -26.498556
    4 Atom    -26.498556
 -----------------------------------------------------------------
 ******************************Gaussian NBO Version 3.1******************************
             N A T U R A L   A T O M I C   O R B I T A L   A N D
          N A T U R A L   B O N D   O R B I T A L   A N A L Y S I S
 ******************************Gaussian NBO Version 3.1******************************
       /RESON  / : Allow strongly delocalized NBO set

 Analyzing the QCI/CC density

 Job title: f2cs-wavefunction                                               

 Storage needed:    106946 in NPA (2147483536 available)
 GSVD:  LWork=        5094 too small for GESVD, short by       54317 words or       54317 for optimal perf.


 NATURAL POPULATIONS:  Natural atomic orbital occupancies 
                                                          
   NAO  Atom  No  lang   Type(AO)    Occupancy
 --------------------------------------------
     1    C    1  S      Cor( 1S)     1.99944
     2    C    1  S      Val( 2S)     0.93064
     3    C    1  S      Ryd( 3S)     0.00589
     4    C    1  S      Ryd( 4S)     0.00026
     5    C    1  S      Ryd( 5S)     0.00006
     6    C    1  px     Val( 2p)     0.86533
     7    C    1  px     Ryd( 3p)     0.00612
     8    C    1  px     Ryd( 4p)     0.00049
     9    C    1  px     Ryd( 5p)     0.00045
    10    C    1  py     Val( 2p)     0.62734
    11    C    1  py     Ryd( 3p)     0.02227
    12    C    1  py     Ryd( 4p)     0.00058
    13    C    1  py     Ryd( 5p)     0.00032
    14    C    1  pz     Val( 2p)     0.86717
    15    C    1  pz     Ryd( 3p)     0.01850
    16    C    1  pz     Ryd( 4p)     0.00061
    17    C    1  pz     Ryd( 5p)     0.00040
    18    C    1  dxy    Ryd( 3d)     0.00787
    19    C    1  dxy    Ryd( 4d)     0.00051
    20    C    1  dxy    Ryd( 5d)     0.00025
    21    C    1  dxz    Ryd( 3d)     0.01459
    22    C    1  dxz    Ryd( 4d)     0.00048
    23    C    1  dxz    Ryd( 5d)     0.00037
    24    C    1  dyz    Ryd( 3d)     0.01148
    25    C    1  dyz    Ryd( 4d)     0.00040
    26    C    1  dyz    Ryd( 5d)     0.00019
    27    C    1  dx2y2  Ryd( 3d)     0.00609
    28    C    1  dx2y2  Ryd( 4d)     0.00044
    29    C    1  dx2y2  Ryd( 5d)     0.00043
    30    C    1  dz2    Ryd( 3d)     0.01105
    31    C    1  dz2    Ryd( 4d)     0.00058
    32    C    1  dz2    Ryd( 5d)     0.00022
    33    C    1  f(0)   Ryd( 4f)     0.00313
    34    C    1  f(0)   Ryd( 5f)     0.00030
    35    C    1  f(C1)  Ryd( 4f)     0.00149
    36    C    1  f(C1)  Ryd( 5f)     0.00043
    37    C    1  f(S1)  Ryd( 4f)     0.00246
    38    C    1  f(S1)  Ryd( 5f)     0.00067
    39    C    1  f(C2)  Ryd( 4f)     0.00223
    40    C    1  f(C2)  Ryd( 5f)     0.00028
    41    C    1  f(S2)  Ryd( 4f)     0.00221
    42    C    1  f(S2)  Ryd( 5f)     0.00036
    43    C    1  f(C3)  Ryd( 4f)     0.00121
    44    C    1  f(C3)  Ryd( 5f)     0.00034
    45    C    1  f(S3)  Ryd( 4f)     0.00110
    46    C    1  f(S3)  Ryd( 5f)     0.00023

    47    S    2  S      Cor( 1S)     2.00000
    48    S    2  S      Cor( 2S)     1.99871
    49    S    2  S      Val( 3S)     1.75214
    50    S    2  S      Ryd( 4S)     0.00673
    51    S    2  S      Ryd( 5S)     0.00027
    52    S    2  S      Ryd( 6S)     0.00019
    53    S    2  px     Cor( 2p)     1.99989
    54    S    2  px     Val( 3p)     1.28026
    55    S    2  px     Ryd( 4p)     0.00511
    56    S    2  px     Ryd( 5p)     0.00030
    57    S    2  px     Ryd( 6p)     0.00007
    58    S    2  py     Cor( 2p)     2.00001
    59    S    2  py     Val( 3p)     1.79025
    60    S    2  py     Ryd( 4p)     0.00848
    61    S    2  py     Ryd( 5p)     0.00051
    62    S    2  py     Ryd( 6p)     0.00010
    63    S    2  pz     Cor( 2p)     1.99963
    64    S    2  pz     Val( 3p)     1.02554
    65    S    2  pz     Ryd( 4p)     0.00501
    66    S    2  pz     Ryd( 5p)     0.00041
    67    S    2  pz     Ryd( 6p)     0.00009
    68    S    2  dxy    Ryd( 3d)     0.01632
    69    S    2  dxy    Ryd( 4d)     0.00051
    70    S    2  dxy    Ryd( 5d)     0.00009
    71    S    2  dxz    Ryd( 3d)     0.01946
    72    S    2  dxz    Ryd( 4d)     0.00047
    73    S    2  dxz    Ryd( 5d)     0.00017
    74    S    2  dyz    Ryd( 3d)     0.01486
    75    S    2  dyz    Ryd( 4d)     0.00050
    76    S    2  dyz    Ryd( 5d)     0.00024
    77    S    2  dx2y2  Ryd( 3d)     0.01610
    78    S    2  dx2y2  Ryd( 4d)     0.00053
    79    S    2  dx2y2  Ryd( 5d)     0.00008
    80    S    2  dz2    Ryd( 3d)     0.02162
    81    S    2  dz2    Ryd( 4d)     0.00043
    82    S    2  dz2    Ryd( 5d)     0.00015
    83    S    2  f(0)   Ryd( 4f)     0.00142
    84    S    2  f(0)   Ryd( 5f)     0.00019
    85    S    2  f(C1)  Ryd( 4f)     0.00094
    86    S    2  f(C1)  Ryd( 5f)     0.00012
    87    S    2  f(S1)  Ryd( 4f)     0.00105
    88    S    2  f(S1)  Ryd( 5f)     0.00015
    89    S    2  f(C2)  Ryd( 4f)     0.00095
    90    S    2  f(C2)  Ryd( 5f)     0.00012
    91    S    2  f(S2)  Ryd( 4f)     0.00093
    92    S    2  f(S2)  Ryd( 5f)     0.00012
    93    S    2  f(C3)  Ryd( 4f)     0.00133
    94    S    2  f(C3)  Ryd( 5f)     0.00012
    95    S    2  f(S3)  Ryd( 4f)     0.00133
    96    S    2  f(S3)  Ryd( 5f)     0.00013

    97    F    3  S      Cor( 1S)     1.99980
    98    F    3  S      Val( 2S)     1.83013
    99    F    3  S      Ryd( 3S)     0.00649
   100    F    3  S      Ryd( 4S)     0.00033
   101    F    3  S      Ryd( 5S)     0.00027
   102    F    3  px     Val( 2p)     1.87203
   103    F    3  px     Ryd( 3p)     0.01133
   104    F    3  px     Ryd( 4p)     0.00081
   105    F    3  px     Ryd( 5p)     0.00015
   106    F    3  py     Val( 2p)     1.71608
   107    F    3  py     Ryd( 3p)     0.00751
   108    F    3  py     Ryd( 4p)     0.00058
   109    F    3  py     Ryd( 5p)     0.00018
   110    F    3  pz     Val( 2p)     1.80465
   111    F    3  pz     Ryd( 3p)     0.00973
   112    F    3  pz     Ryd( 4p)     0.00072
   113    F    3  pz     Ryd( 5p)     0.00027
   114    F    3  dxy    Ryd( 3d)     0.00665
   115    F    3  dxy    Ryd( 4d)     0.00044
   116    F    3  dxy    Ryd( 5d)     0.00008
   117    F    3  dxz    Ryd( 3d)     0.00567
   118    F    3  dxz    Ryd( 4d)     0.00046
   119    F    3  dxz    Ryd( 5d)     0.00008
   120    F    3  dyz    Ryd( 3d)     0.00958
   121    F    3  dyz    Ryd( 4d)     0.00053
   122    F    3  dyz    Ryd( 5d)     0.00010
   123    F    3  dx2y2  Ryd( 3d)     0.00738
   124    F    3  dx2y2  Ryd( 4d)     0.00052
   125    F    3  dx2y2  Ryd( 5d)     0.00013
   126    F    3  dz2    Ryd( 3d)     0.00633
   127    F    3  dz2    Ryd( 4d)     0.00045
   128    F    3  dz2    Ryd( 5d)     0.00011
   129    F    3  f(0)   Ryd( 4f)     0.00053
   130    F    3  f(0)   Ryd( 5f)     0.00010
   131    F    3  f(C1)  Ryd( 4f)     0.00043
   132    F    3  f(C1)  Ryd( 5f)     0.00009
   133    F    3  f(S1)  Ryd( 4f)     0.00066
   134    F    3  f(S1)  Ryd( 5f)     0.00013
   135    F    3  f(C2)  Ryd( 4f)     0.00072
   136    F    3  f(C2)  Ryd( 5f)     0.00012
   137    F    3  f(S2)  Ryd( 4f)     0.00055
   138    F    3  f(S2)  Ryd( 5f)     0.00011
   139    F    3  f(C3)  Ryd( 4f)     0.00052
   140    F    3  f(C3)  Ryd( 5f)     0.00010
   141    F    3  f(S3)  Ryd( 4f)     0.00056
   142    F    3  f(S3)  Ryd( 5f)     0.00012

   143    F    4  S      Cor( 1S)     1.99980
   144    F    4  S      Val( 2S)     1.83013
   145    F    4  S      Ryd( 3S)     0.00649
   146    F    4  S      Ryd( 4S)     0.00033
   147    F    4  S      Ryd( 5S)     0.00027
   148    F    4  px     Val( 2p)     1.87203
   149    F    4  px     Ryd( 3p)     0.01133
   150    F    4  px     Ryd( 4p)     0.00081
   151    F    4  px     Ryd( 5p)     0.00015
   152    F    4  py     Val( 2p)     1.71608
   153    F    4  py     Ryd( 3p)     0.00751
   154    F    4  py     Ryd( 4p)     0.00058
   155    F    4  py     Ryd( 5p)     0.00018
   156    F    4  pz     Val( 2p)     1.80465
   157    F    4  pz     Ryd( 3p)     0.00973
   158    F    4  pz     Ryd( 4p)     0.00072
   159    F    4  pz     Ryd( 5p)     0.00027
   160    F    4  dxy    Ryd( 3d)     0.00665
   161    F    4  dxy    Ryd( 4d)     0.00044
   162    F    4  dxy    Ryd( 5d)     0.00008
   163    F    4  dxz    Ryd( 3d)     0.00567
   164    F    4  dxz    Ryd( 4d)     0.00046
   165    F    4  dxz    Ryd( 5d)     0.00008
   166    F    4  dyz    Ryd( 3d)     0.00958
   167    F    4  dyz    Ryd( 4d)     0.00053
   168    F    4  dyz    Ryd( 5d)     0.00010
   169    F    4  dx2y2  Ryd( 3d)     0.00738
   170    F    4  dx2y2  Ryd( 4d)     0.00052
   171    F    4  dx2y2  Ryd( 5d)     0.00013
   172    F    4  dz2    Ryd( 3d)     0.00633
   173    F    4  dz2    Ryd( 4d)     0.00045
   174    F    4  dz2    Ryd( 5d)     0.00011
   175    F    4  f(0)   Ryd( 4f)     0.00053
   176    F    4  f(0)   Ryd( 5f)     0.00010
   177    F    4  f(C1)  Ryd( 4f)     0.00043
   178    F    4  f(C1)  Ryd( 5f)     0.00009
   179    F    4  f(S1)  Ryd( 4f)     0.00066
   180    F    4  f(S1)  Ryd( 5f)     0.00013
   181    F    4  f(C2)  Ryd( 4f)     0.00072
   182    F    4  f(C2)  Ryd( 5f)     0.00012
   183    F    4  f(S2)  Ryd( 4f)     0.00055
   184    F    4  f(S2)  Ryd( 5f)     0.00011
   185    F    4  f(C3)  Ryd( 4f)     0.00052
   186    F    4  f(C3)  Ryd( 5f)     0.00010
   187    F    4  f(S3)  Ryd( 4f)     0.00056
   188    F    4  f(S3)  Ryd( 5f)     0.00012

 WARNING:  1 low occupancy (<1.9990e) core orbital  found on  S    2


 Summary of Natural Population Analysis:                  
                                                          
                                       Natural Population 
                Natural  -----------------------------------------------
    Atom  No    Charge         Core      Valence    Rydberg      Total
 -----------------------------------------------------------------------
      C    1    0.58273      1.99944     3.29048    0.12735     5.41727
      S    2    0.02589      9.99824     5.84819    0.12768    15.97411
      F    3   -0.30431      1.99980     7.22289    0.08163     9.30431
      F    4   -0.30431      1.99980     7.22289    0.08163     9.30431
 =======================================================================
   * Total *    0.00000     15.99727    23.58444    0.41829    40.00000

                                 Natural Population      
 --------------------------------------------------------
   Core                      15.99727 ( 99.9829% of  16)
   Valence                   23.58444 ( 98.2685% of  24)
   Natural Minimal Basis     39.58171 ( 98.9543% of  40)
   Natural Rydberg Basis      0.41829 (  1.0457% of  40)
 --------------------------------------------------------

    Atom  No          Natural Electron Configuration
 ----------------------------------------------------------------------------
      C    1      [core]2S( 0.93)2p( 2.36)3S( 0.01)3p( 0.05)3d( 0.05)4f( 0.01)
      S    2      [core]3S( 1.75)3p( 4.10)4S( 0.01)3d( 0.09)4p( 0.02)4f( 0.01)
      F    3      [core]2S( 1.83)2p( 5.39)3S( 0.01)3p( 0.03)3d( 0.04)
      F    4      [core]2S( 1.83)2p( 5.39)3S( 0.01)3p( 0.03)3d( 0.04)


 NBO analysis skipped by request.
 Unable to Open any file for archive entry.
 1\1\GINC-TRAPISTA\SP\RQCISD-FC\Aug-CC-pVTZ\C1F2S1\WAGNER\03-Sep-2022\0
 \\# qcisd/aug-cc-pvtz nosymm density=current pop=(chelpg,hirshfeld,npa
 ,dipole)\\f2cs-wavefunction\\0,1\C,0,0.,0.,-0.510349\S,0,0.,0.,1.07852
 5\F,0,0.,-1.055221,-1.295538\F,0,0.,1.055221,-1.295538\\Version=EM64L-
 G16RevC.01\HF=-634.3563063\MP2=-635.1964312\MP3=-635.1996286\MP4D=-635
 .2166156\MP4DQ=-635.197256\MP4SDQ=-635.2081279\QCISD=-635.2071922\RMSD
 =5.935e-09\Dipole=0.,0.,-0.040056\Quadrupole=0.9087856,-1.2686776,0.35
 9892,0.,0.,0.\PG=C02V [C2(C1S1),SGV(F2)]\\@
 The archive entry for this job was punched.


 SCIENCE IS LONG AND LIFE IS SHORT.

                     DON MOSER IN THE FEBRUARY 1979 SMITHSONIAN
 Job cpu time:       0 days  6 hours 20 minutes 53.2 seconds.
 Elapsed time:       0 days  0 hours 24 minutes  5.1 seconds.
 File lengths (MBytes):  RWF=  21970 Int=      0 D2E=      0 Chk=      4 Scr=      1
 Normal termination of Gaussian 16 at Sat Sep  3 11:03:28 2022.
