 Entering Gaussian System, Link 0=/home/wagner/chemistry/gaussian/g16/g16
 Input=GAUSSIAN.com
 Output=GAUSSIAN.log
 Initial command:
 /home/wagner/chemistry/gaussian/g16/l1.exe "/home/wagner/chemistry/gaussian/work/Gau-19085.inp" -scrdir="/home/wagner/chemistry/gaussian/work/"
 Entering Link 1 = /home/wagner/chemistry/gaussian/g16/l1.exe PID=     19087.
  
 Copyright (c) 1988-2019, Gaussian, Inc.  All Rights Reserved.
  
 This is part of the Gaussian(R) 16 program.  It is based on
 the Gaussian(R) 09 system (copyright 2009, Gaussian, Inc.),
 the Gaussian(R) 03 system (copyright 2003, Gaussian, Inc.),
 the Gaussian(R) 98 system (copyright 1998, Gaussian, Inc.),
 the Gaussian(R) 94 system (copyright 1995, Gaussian, Inc.),
 the Gaussian 92(TM) system (copyright 1992, Gaussian, Inc.),
 the Gaussian 90(TM) system (copyright 1990, Gaussian, Inc.),
 the Gaussian 88(TM) system (copyright 1988, Gaussian, Inc.),
 the Gaussian 86(TM) system (copyright 1986, Carnegie Mellon
 University), and the Gaussian 82(TM) system (copyright 1983,
 Carnegie Mellon University). Gaussian is a federally registered
 trademark of Gaussian, Inc.
  
 This software contains proprietary and confidential information,
 including trade secrets, belonging to Gaussian, Inc.
  
 This software is provided under written license and may be
 used, copied, transmitted, or stored only in accord with that
 written license.
  
 The following legend is applicable only to US Government
 contracts under FAR:
  
                    RESTRICTED RIGHTS LEGEND
  
 Use, reproduction and disclosure by the US Government is
 subject to restrictions as set forth in subparagraphs (a)
 and (c) of the Commercial Computer Software - Restricted
 Rights clause in FAR 52.227-19.
  
 Gaussian, Inc.
 340 Quinnipiac St., Bldg. 40, Wallingford CT 06492
  
  
 ---------------------------------------------------------------
 Warning -- This program may not be used in any manner that
 competes with the business of Gaussian, Inc. or will provide
 assistance to any competitor of Gaussian, Inc.  The licensee
 of this program is prohibited from giving any competitor of
 Gaussian, Inc. access to this program.  By using this program,
 the user acknowledges that Gaussian, Inc. is engaged in the
 business of creating and licensing software in the field of
 computational chemistry and represents and warrants to the
 licensee that it is not a competitor of Gaussian, Inc. and that
 it will not use this program in any manner prohibited above.
 ---------------------------------------------------------------
  

 Cite this work as:
 Gaussian 16, Revision C.01,
 M. J. Frisch, G. W. Trucks, H. B. Schlegel, G. E. Scuseria, 
 M. A. Robb, J. R. Cheeseman, G. Scalmani, V. Barone, 
 G. A. Petersson, H. Nakatsuji, X. Li, M. Caricato, A. V. Marenich, 
 J. Bloino, B. G. Janesko, R. Gomperts, B. Mennucci, H. P. Hratchian, 
 J. V. Ortiz, A. F. Izmaylov, J. L. Sonnenberg, D. Williams-Young, 
 F. Ding, F. Lipparini, F. Egidi, J. Goings, B. Peng, A. Petrone, 
 T. Henderson, D. Ranasinghe, V. G. Zakrzewski, J. Gao, N. Rega, 
 G. Zheng, W. Liang, M. Hada, M. Ehara, K. Toyota, R. Fukuda, 
 J. Hasegawa, M. Ishida, T. Nakajima, Y. Honda, O. Kitao, H. Nakai, 
 T. Vreven, K. Throssell, J. A. Montgomery, Jr., J. E. Peralta, 
 F. Ogliaro, M. J. Bearpark, J. J. Heyd, E. N. Brothers, K. N. Kudin, 
 V. N. Staroverov, T. A. Keith, R. Kobayashi, J. Normand, 
 K. Raghavachari, A. P. Rendell, J. C. Burant, S. S. Iyengar, 
 J. Tomasi, M. Cossi, J. M. Millam, M. Klene, C. Adamo, R. Cammi, 
 J. W. Ochterski, R. L. Martin, K. Morokuma, O. Farkas, 
 J. B. Foresman, and D. J. Fox, Gaussian, Inc., Wallingford CT, 2019.
 
 ******************************************
 Gaussian 16:  EM64L-G16RevC.01  3-Jul-2019
                 3-Sep-2022 
 ******************************************
 %nproc=16
 Will use up to   16 processors via shared memory.
 %mem=16GB
 ----------------------------------------------------------------------
 # qcisd/aug-cc-pvtz nosymm density=current pop=(chelpg,hirshfeld,npa,d
 ipole)
 ----------------------------------------------------------------------
 1/30=1,38=1,172=1/1;
 2/12=2,15=1,17=6,18=5,40=1/2;
 3/5=16,6=1,7=10,11=9,25=1,30=1,71=1/1,2,3;
 4//1;
 5/5=2,38=5/2;
 8/6=4,9=120000,10=1/1,4;
 9/5=8,15=1/13;
 11/28=-7,31=1,32=3,42=3/11;
 10/5=6,13=10,31=1/2;
 6/7=2,8=2,9=2,10=2,15=24,20=3,22=-1,40=-1,79=1/1,2,7;
 99/5=1,9=1/99;
 -----------------
 f2cs-wavefunction
 -----------------
 Symbolic Z-matrix:
 Charge =  0 Multiplicity = 1
 C                     0.        0.       -0.52035 
 S                     0.        0.        1.06852 
 F                     0.       -1.05522  -1.29554 
 F                     0.        1.05522  -1.29554 
 
                          Input orientation:                          
 ---------------------------------------------------------------------
 Center     Atomic      Atomic             Coordinates (Angstroms)
 Number     Number       Type             X           Y           Z
 ---------------------------------------------------------------------
      1          6           0        0.000000    0.000000   -0.520349
      2         16           0        0.000000    0.000000    1.068525
      3          9           0        0.000000   -1.055221   -1.295538
      4          9           0        0.000000    1.055221   -1.295538
 ---------------------------------------------------------------------
                    Distance matrix (angstroms):
                    1          2          3          4
     1  C    0.000000
     2  S    1.588874   0.000000
     3  F    1.309355   2.588877   0.000000
     4  F    1.309355   2.588877   2.110442   0.000000
 Symmetry turned off by external request.
 Stoichiometry    CF2S
 Framework group  C2V[C2(CS),SGV(F2)]
 Deg. of freedom     3
 Full point group                 C2V     NOp   4
 Rotational constants (GHZ):          11.9449202           5.1575150           3.6021832
 Standard basis: Aug-CC-pVTZ (5D, 7F)
   188 basis functions,   330 primitive gaussians,   224 cartesian basis functions
    20 alpha electrons       20 beta electrons
       nuclear repulsion energy       154.7998165785 Hartrees.
 NAtoms=    4 NActive=    4 NUniq=    4 SFac= 1.00D+00 NAtFMM=   60 NAOKFM=F Big=F
 Integral buffers will be    131072 words long.
 Raffenetti 1 integral format.
 Two-electron integral symmetry is turned off.
 One-electron integrals computed using PRISM.
 NBasis=   188 RedAO= T EigKep=  9.63D-05  NBF=   188
 NBsUse=   188 1.00D-06 EigRej= -1.00D+00 NBFU=   188
 ExpMin= 3.51D-02 ExpMax= 3.74D+05 ExpMxC= 1.18D+03 IAcc=3 IRadAn=         5 AccDes= 0.00D+00
 Harris functional with IExCor=  205 and IRadAn=       5 diagonalized for initial guess.
 HarFok:  IExCor=  205 AccDes= 0.00D+00 IRadAn=         5 IDoV= 1 UseB2=F ITyADJ=14
 ICtDFT=  3500011 ScaDFX=  1.000000  1.000000  1.000000  1.000000
 FoFCou: FMM=F IPFlag=           0 FMFlag=      100000 FMFlg1=           0
         NFxFlg=           0 DoJE=T BraDBF=F KetDBF=T FulRan=T
         wScrn=  0.000000 ICntrl=       500 IOpCl=  0 I1Cent=   200000004 NGrid=           0
         NMat0=    1 NMatS0=      1 NMatT0=    0 NMatD0=    1 NMtDS0=    0 NMtDT0=    0
 Symmetry not used in FoFCou.
 Keep R1 ints in memory in canonical form, NReq=165821047.
 Requested convergence on RMS density matrix=1.00D-08 within 128 cycles.
 Requested convergence on MAX density matrix=1.00D-06.
 Requested convergence on             energy=1.00D-06.
 No special actions if energy rises.
 SCF Done:  E(RHF) =  -634.357061247     A.U. after   12 cycles
            NFock= 12  Conv=0.59D-08     -V/T= 2.0005
 ExpMin= 3.51D-02 ExpMax= 3.74D+05 ExpMxC= 1.18D+03 IAcc=3 IRadAn=         5 AccDes= 0.00D+00
 HarFok:  IExCor=  205 AccDes= 0.00D+00 IRadAn=         5 IDoV=-2 UseB2=F ITyADJ=14
 ICtDFT= 12500011 ScaDFX=  1.000000  1.000000  1.000000  1.000000
 Range of M.O.s used for correlation:     9   188
 NBasis=   188 NAE=    20 NBE=    20 NFC=     8 NFV=     0
 NROrb=    180 NOA=    12 NOB=    12 NVA=   168 NVB=   168

 **** Warning!!: The largest alpha MO coefficient is  0.26886354D+02

 Semi-Direct transformation.
 ModeAB=           2 MOrb=            12 LenV=    2146475465
 LASXX=     33405819 LTotXX=    33405819 LenRXX=    33405819
 LTotAB=    33954012 MaxLAS=    54432000 LenRXY=    54432000
 NonZer=    66811638 LenScr=   100987392 LnRSAI=           0
 LnScr1=           0 LExtra=           0 Total=    188825211
 MaxDsk=          -1 SrtSym=           F ITran=            4
 JobTyp=0 Pass  1:  I=   1 to  12.
 (rs|ai) integrals will be sorted in core.
 Spin components of T(2) and E(2):
     alpha-alpha T2 =       0.3007483076D-01 E2=     -0.1103981486D+00
     alpha-beta  T2 =       0.1593746348D+00 E2=     -0.6184890610D+00
     beta-beta   T2 =       0.3007483076D-01 E2=     -0.1103981486D+00
 ANorm=    0.1104320740D+01
 E2 =    -0.8392853582D+00 EUMP2 =    -0.63519634660548D+03
 Keep R2 and R3 ints in memory in canonical form, NReq=323654120.
 CIDS: In Core Option IDoMem=           1.
 Iterations=  50 Convergence= 0.100D-07
 Produce multiple copies of IABC intergrals
 Iteration Nr.   1
 **********************
 DD1Dir will call FoFMem   1 times, MxPair=       156
 NAB=    78 NAA=     0 NBB=     0.
 MP4(R+Q)=  0.19283857D-01
 E3=       -0.34655905D-02        EUMP3=      -0.63519981220D+03
 E4(DQ)=    0.24184462D-02        UMP4(DQ)=   -0.63519739375D+03
 E4(SDQ)=  -0.83387416D-02        UMP4(SDQ)=  -0.63520815094D+03
 DE(Corr)= -0.82346709     E(Corr)=     -635.18052834    
 NORM(A)=   0.11035967D+01
 Iteration Nr.   2
 **********************
 DD1Dir will call FoFMem   1 times, MxPair=       156
 NAB=    78 NAA=     0 NBB=     0.
 DE(Corr)= -0.84898599     E(CORR)=     -635.20604724     Delta=-2.55D-02
 NORM(A)=   0.11124423D+01
 Iteration Nr.   3
 **********************
 DD1Dir will call FoFMem   1 times, MxPair=       156
 NAB=    78 NAA=     0 NBB=     0.
 DE(Corr)= -0.84734694     E(CORR)=     -635.20440818     Delta= 1.64D-03
 NORM(A)=   0.11152187D+01
 Iteration Nr.   4
 **********************
 DD1Dir will call FoFMem   1 times, MxPair=       156
 NAB=    78 NAA=     0 NBB=     0.
 DE(Corr)= -0.84984211     E(CORR)=     -635.20690335     Delta=-2.50D-03
 NORM(A)=   0.11162882D+01
 Iteration Nr.   5
 **********************
 DD1Dir will call FoFMem   1 times, MxPair=       156
 NAB=    78 NAA=     0 NBB=     0.
 DE(Corr)= -0.85013599     E(CORR)=     -635.20719723     Delta=-2.94D-04
 NORM(A)=   0.11165971D+01
 Iteration Nr.   6
 **********************
 DD1Dir will call FoFMem   1 times, MxPair=       156
 NAB=    78 NAA=     0 NBB=     0.
 DE(Corr)= -0.85017398     E(CORR)=     -635.20723523     Delta=-3.80D-05
 NORM(A)=   0.11166431D+01
 Iteration Nr.   7
 **********************
 DD1Dir will call FoFMem   1 times, MxPair=       156
 NAB=    78 NAA=     0 NBB=     0.
 DE(Corr)= -0.85017816     E(CORR)=     -635.20723941     Delta=-4.18D-06
 NORM(A)=   0.11166416D+01
 Iteration Nr.   8
 **********************
 DD1Dir will call FoFMem   1 times, MxPair=       156
 NAB=    78 NAA=     0 NBB=     0.
 DE(Corr)= -0.85017719     E(CORR)=     -635.20723844     Delta= 9.68D-07
 NORM(A)=   0.11166462D+01
 Iteration Nr.   9
 **********************
 DD1Dir will call FoFMem   1 times, MxPair=       156
 NAB=    78 NAA=     0 NBB=     0.
 DE(Corr)= -0.85017663     E(CORR)=     -635.20723787     Delta= 5.66D-07
 NORM(A)=   0.11166460D+01
 Iteration Nr.  10
 **********************
 DD1Dir will call FoFMem   1 times, MxPair=       156
 NAB=    78 NAA=     0 NBB=     0.
 DE(Corr)= -0.85017693     E(CORR)=     -635.20723817     Delta=-2.98D-07
 NORM(A)=   0.11166472D+01
 Iteration Nr.  11
 **********************
 DD1Dir will call FoFMem   1 times, MxPair=       156
 NAB=    78 NAA=     0 NBB=     0.
 DE(Corr)= -0.85017739     E(CORR)=     -635.20723864     Delta=-4.63D-07
 NORM(A)=   0.11166483D+01
 Iteration Nr.  12
 **********************
 DD1Dir will call FoFMem   1 times, MxPair=       156
 NAB=    78 NAA=     0 NBB=     0.
 DE(Corr)= -0.85017766     E(CORR)=     -635.20723891     Delta=-2.70D-07
 NORM(A)=   0.11166490D+01
 Iteration Nr.  13
 **********************
 DD1Dir will call FoFMem   1 times, MxPair=       156
 NAB=    78 NAA=     0 NBB=     0.
 DE(Corr)= -0.85017784     E(CORR)=     -635.20723909     Delta=-1.83D-07
 NORM(A)=   0.11166493D+01
 Iteration Nr.  14
 **********************
 DD1Dir will call FoFMem   1 times, MxPair=       156
 NAB=    78 NAA=     0 NBB=     0.
 DE(Corr)= -0.85017791     E(CORR)=     -635.20723915     Delta=-6.22D-08
 NORM(A)=   0.11166495D+01
 Iteration Nr.  15
 **********************
 DD1Dir will call FoFMem   1 times, MxPair=       156
 NAB=    78 NAA=     0 NBB=     0.
 DE(Corr)= -0.85017794     E(CORR)=     -635.20723919     Delta=-3.29D-08
 NORM(A)=   0.11166495D+01
 Iteration Nr.  16
 **********************
 DD1Dir will call FoFMem   1 times, MxPair=       156
 NAB=    78 NAA=     0 NBB=     0.
 DE(Corr)= -0.85017794     E(CORR)=     -635.20723919     Delta=-7.11D-09
 NORM(A)=   0.11166495D+01
 Wavefunction amplitudes converged. E(Corr)=     -635.20723919    
 Largest amplitude= 8.34D-02

 Z-amplitude iterations

 Iteration Nr.   1
 **********************
 DD1Dir will call FoFMem   1 times, MxPair=       156
 NAB=    78 NAA=     0 NBB=     0.
 DE(Z)= -0.82639816     E(Z)=     -635.18345941     Delta= 2.38D-02
 NORM(A)=   0.11166449D+01
 Iteration Nr.   2
 **********************
 DD1Dir will call FoFMem   1 times, MxPair=       156
 NAB=    78 NAA=     0 NBB=     0.
 DE(Z)= -0.82639815     E(Z)=     -635.18345939     Delta= 1.58D-08
 NORM(A)=   0.11166413D+01
 Iteration Nr.   3
 **********************
 DD1Dir will call FoFMem   1 times, MxPair=       156
 NAB=    78 NAA=     0 NBB=     0.
 DE(Z)= -0.82639802     E(Z)=     -635.18345927     Delta= 1.22D-07
 NORM(A)=   0.11166391D+01
 Iteration Nr.   4
 **********************
 DD1Dir will call FoFMem   1 times, MxPair=       156
 NAB=    78 NAA=     0 NBB=     0.
 DE(Z)= -0.82639802     E(Z)=     -635.18345926     Delta= 9.16D-09
 NORM(A)=   0.11166364D+01
 Iteration Nr.   5
 **********************
 DD1Dir will call FoFMem   1 times, MxPair=       156
 NAB=    78 NAA=     0 NBB=     0.
 DE(Z)= -0.82639793     E(Z)=     -635.18345918     Delta= 8.70D-08
 NORM(A)=   0.11085124D+01
 Iteration Nr.   6
 **********************
 DD1Dir will call FoFMem   1 times, MxPair=       156
 NAB=    78 NAA=     0 NBB=     0.
 DE(Z)= -0.82625216     E(Z)=     -635.18331340     Delta= 1.46D-04
 NORM(A)=   0.11085090D+01
 Iteration Nr.   7
 **********************
 DD1Dir will call FoFMem   1 times, MxPair=       156
 NAB=    78 NAA=     0 NBB=     0.
 DE(Z)= -0.82625125     E(Z)=     -635.18331250     Delta= 9.03D-07
 NORM(A)=   0.11085066D+01
 Iteration Nr.   8
 **********************
 DD1Dir will call FoFMem   1 times, MxPair=       156
 NAB=    78 NAA=     0 NBB=     0.
 DE(Z)= -0.82625090     E(Z)=     -635.18331215     Delta= 3.48D-07
 NORM(A)=   0.11085064D+01
 Iteration Nr.   9
 **********************
 DD1Dir will call FoFMem   1 times, MxPair=       156
 NAB=    78 NAA=     0 NBB=     0.
 DE(Z)= -0.82625086     E(Z)=     -635.18331211     Delta= 4.62D-08
 NORM(A)=   0.11085068D+01
 Iteration Nr.  10
 **********************
 DD1Dir will call FoFMem   1 times, MxPair=       156
 NAB=    78 NAA=     0 NBB=     0.
 DE(Z)= -0.82625090     E(Z)=     -635.18331215     Delta=-4.22D-08
 NORM(A)=   0.11085068D+01
 Iteration Nr.  11
 **********************
 DD1Dir will call FoFMem   1 times, MxPair=       156
 NAB=    78 NAA=     0 NBB=     0.
 DE(Z)= -0.82625102     E(Z)=     -635.18331227     Delta=-1.19D-07
 NORM(A)=   0.11085069D+01
 Iteration Nr.  12
 **********************
 DD1Dir will call FoFMem   1 times, MxPair=       156
 NAB=    78 NAA=     0 NBB=     0.
 DE(Z)= -0.82625095     E(Z)=     -635.18331220     Delta= 6.85D-08
 NORM(A)=   0.11085069D+01
 Iteration Nr.  13
 **********************
 DD1Dir will call FoFMem   1 times, MxPair=       156
 NAB=    78 NAA=     0 NBB=     0.
 DE(Z)= -0.82625098     E(Z)=     -635.18331223     Delta=-2.77D-08
 NORM(A)=   0.11085068D+01
 Iteration Nr.  14
 **********************
 DD1Dir will call FoFMem   1 times, MxPair=       156
 NAB=    78 NAA=     0 NBB=     0.
 DE(Z)= -0.82625098     E(Z)=     -635.18331222     Delta= 3.08D-09
 NORM(A)=   0.11085068D+01
 Z-amplitudes converged.
 Discarding MO integrals.
          Differentiating once with respect to electric field.
                with respect to dipole field.
          Electric field/nuclear overlap derivatives assumed to be zero.
 Keep R1 ints in memory in canonical form, NReq=165825000.
          There are     1 degrees of freedom in the 1st order CPHF.  IDoFFX=0 NUNeed=     1.
 LinEq1:  Iter=  0 NonCon=     1 RMS=2.84D-03 Max=7.67D-02 NDo=     1
 AX will form     1 AO Fock derivatives at one time.
 LinEq1:  Iter=  1 NonCon=     1 RMS=8.78D-04 Max=1.21D-02 NDo=     1
 LinEq1:  Iter=  2 NonCon=     1 RMS=3.95D-04 Max=1.23D-02 NDo=     1
 LinEq1:  Iter=  3 NonCon=     1 RMS=1.05D-04 Max=2.30D-03 NDo=     1
 LinEq1:  Iter=  4 NonCon=     1 RMS=2.52D-05 Max=5.81D-04 NDo=     1
 LinEq1:  Iter=  5 NonCon=     1 RMS=6.33D-06 Max=1.07D-04 NDo=     1
 LinEq1:  Iter=  6 NonCon=     1 RMS=2.43D-06 Max=5.35D-05 NDo=     1
 LinEq1:  Iter=  7 NonCon=     1 RMS=7.80D-07 Max=1.44D-05 NDo=     1
 LinEq1:  Iter=  8 NonCon=     1 RMS=1.62D-07 Max=2.29D-06 NDo=     1
 LinEq1:  Iter=  9 NonCon=     1 RMS=3.05D-08 Max=3.65D-07 NDo=     1
 LinEq1:  Iter= 10 NonCon=     1 RMS=6.06D-09 Max=7.16D-08 NDo=     1
 LinEq1:  Iter= 11 NonCon=     1 RMS=9.58D-10 Max=1.50D-08 NDo=     1
 LinEq1:  Iter= 12 NonCon=     1 RMS=1.36D-10 Max=1.85D-09 NDo=     1
 LinEq1:  Iter= 13 NonCon=     0 RMS=2.50D-11 Max=2.82D-10 NDo=     1
 Linear equations converged to 1.000D-10 1.000D-09 after    13 iterations.
 End of Minotr F.D. properties file   721 does not exist.
 End of Minotr F.D. properties file   722 does not exist.
 End of Minotr F.D. properties file   788 does not exist.

 **********************************************************************

            Population analysis using the CC Density.

 **********************************************************************

 Alpha  occ. eigenvalues --  -91.97543 -26.38876 -26.38873 -11.51679  -8.97955
 Alpha  occ. eigenvalues --   -6.66083  -6.65914  -6.65793  -1.75430  -1.68014
 Alpha  occ. eigenvalues --   -1.10215  -0.92892  -0.84336  -0.80188  -0.77421
 Alpha  occ. eigenvalues --   -0.72083  -0.70037  -0.59777  -0.43302  -0.40249
 Alpha virt. eigenvalues --    0.05362   0.05512   0.06451   0.08660   0.08690
 Alpha virt. eigenvalues --    0.10314   0.10801   0.12215   0.19618   0.20464
 Alpha virt. eigenvalues --    0.20906   0.23200   0.23467   0.26358   0.27035
 Alpha virt. eigenvalues --    0.27389   0.28391   0.29089   0.29411   0.29806
 Alpha virt. eigenvalues --    0.35797   0.36548   0.41248   0.42011   0.45088
 Alpha virt. eigenvalues --    0.46746   0.48024   0.51649   0.51960   0.53119
 Alpha virt. eigenvalues --    0.53211   0.62304   0.63556   0.66095   0.69942
 Alpha virt. eigenvalues --    0.73006   0.73490   0.74788   0.76585   0.77752
 Alpha virt. eigenvalues --    0.85028   0.85475   0.88621   0.90051   0.90704
 Alpha virt. eigenvalues --    0.96138   0.96191   1.02390   1.03861   1.07965
 Alpha virt. eigenvalues --    1.09165   1.10999   1.11347   1.12572   1.14996
 Alpha virt. eigenvalues --    1.15069   1.17688   1.19702   1.23392   1.25981
 Alpha virt. eigenvalues --    1.28307   1.32831   1.34894   1.39996   1.43048
 Alpha virt. eigenvalues --    1.44667   1.49619   1.53709   1.57751   1.65250
 Alpha virt. eigenvalues --    1.67801   1.70644   1.70920   1.71870   1.74124
 Alpha virt. eigenvalues --    1.78742   2.00059   2.03535   2.06679   2.07975
 Alpha virt. eigenvalues --    2.11776   2.27075   2.30740   2.31901   2.36312
 Alpha virt. eigenvalues --    2.41654   2.43499   2.43934   2.46398   2.52062
 Alpha virt. eigenvalues --    2.55089   2.59237   2.66957   2.75445   2.80630
 Alpha virt. eigenvalues --    2.84272   2.86481   2.90297   2.93016   2.93948
 Alpha virt. eigenvalues --    2.96922   3.00171   3.00848   3.07186   3.15108
 Alpha virt. eigenvalues --    3.15337   3.18040   3.19572   3.20850   3.32675
 Alpha virt. eigenvalues --    3.33471   3.37671   3.40097   3.45994   3.51694
 Alpha virt. eigenvalues --    3.54984   3.56244   3.63410   3.73088   3.74161
 Alpha virt. eigenvalues --    3.75750   3.76063   3.92986   4.00918   4.11439
 Alpha virt. eigenvalues --    4.19664   4.21892   4.27327   4.43420   4.55558
 Alpha virt. eigenvalues --    4.61288   4.71105   4.75095   4.86419   5.45693
 Alpha virt. eigenvalues --    5.51507   5.69628   5.88944   6.24600   6.63395
 Alpha virt. eigenvalues --    7.20861   8.79007   8.80793   8.86109   8.87127
 Alpha virt. eigenvalues --    8.99934   9.00337   9.10658   9.12698   9.19869
 Alpha virt. eigenvalues --    9.26716   9.27391   9.29656   9.33629   9.34111
 Alpha virt. eigenvalues --    9.36438   9.36713   9.40067   9.45796   9.54994
 Alpha virt. eigenvalues --    9.56699   9.59197   9.72084   9.84960   9.87073
 Alpha virt. eigenvalues --   12.06411  15.08037  16.14187
          Condensed to atoms (all electrons):
               1          2          3          4
     1  C    5.199115   0.240544   0.110149   0.110149
     2  S    0.240544  15.954314  -0.068566  -0.068566
     3  F    0.110149  -0.068566   9.181614  -0.082037
     4  F    0.110149  -0.068566  -0.082037   9.181614
 Mulliken charges:
               1
     1  C    0.340044
     2  S   -0.057726
     3  F   -0.141159
     4  F   -0.141159
 Sum of Mulliken charges =  -0.00000
 Mulliken charges with hydrogens summed into heavy atoms:
               1
     1  C    0.340044
     2  S   -0.057726
     3  F   -0.141159
     4  F   -0.141159
 Electronic spatial extent (au):  <R**2>=            313.9404
 Charge=             -0.0000 electrons
 Dipole moment (field-independent basis, Debye):
    X=             -0.0000    Y=             -0.0000    Z=             -0.1906  Tot=              0.1906
 Quadrupole moment (field-independent basis, Debye-Ang):
   XX=            -27.2402   YY=            -30.1395   ZZ=            -27.9510
   XY=              0.0000   XZ=             -0.0000   YZ=              0.0000
 Traceless Quadrupole moment (field-independent basis, Debye-Ang):
   XX=              1.2034   YY=             -1.6959   ZZ=              0.4925
   XY=              0.0000   XZ=             -0.0000   YZ=              0.0000
 Octapole moment (field-independent basis, Debye-Ang**2):
  XXX=             -0.0000  YYY=             -0.0000  ZZZ=              9.1912  XYY=             -0.0000
  XXY=             -0.0000  XXZ=              0.9197  XZZ=             -0.0000  YZZ=             -0.0000
  YYZ=              0.9988  XYZ=             -0.0000
 Hexadecapole moment (field-independent basis, Debye-Ang**3):
 XXXX=            -28.0070 YYYY=            -96.1321 ZZZZ=           -213.6531 XXXY=              0.0000
 XXXZ=             -0.0000 YYYX=              0.0000 YYYZ=              0.0000 ZZZX=             -0.0000
 ZZZY=             -0.0000 XXYY=            -20.6890 XXZZ=            -40.2096 YYZZ=            -55.3418
 XXYZ=             -0.0000 YYXZ=             -0.0000 ZZXY=             -0.0000
 N-N= 1.547998165785D+02 E-N=-1.820961429322D+03  KE= 6.350271302154D+02
 There are a total of       92046 grid points.
 ElSum from          density=       40.0000000552
 ElSum from atomic densities=       39.9999996171

 Hirshfeld populations at iteration   1 (CX, CA, CB, DipXYZ):
               1          2          3          4          5          6
     1  C    0.000001   2.883741   2.883741  -0.000000   0.000000  -0.240895
     2  S    0.000009   8.046402   8.046402   0.000000  -0.000000   0.185253
     3  F    0.000005   4.534928   4.534928  -0.000000   0.036048   0.027329
     4  F    0.000005   4.534928   4.534928  -0.000000  -0.036048   0.027329
       Tot   0.000019  20.000000  20.000000  -0.000000   0.000000  -0.000985

 Dip from Atomic Chgs              0.000000  -0.000000  -0.073984
         Total Dipole             -0.000000  -0.000000  -0.074968

 Hirshfeld charges, spin densities, dipoles, and CM5 charges using IRadAn=      5:
              Q-H        S-H        Dx         Dy         Dz        Q-CM5   
     1  C    0.232518   0.000000  -0.000000   0.000000  -0.240895   0.292563
     2  S   -0.092805   0.000000   0.000000  -0.000000   0.185253  -0.111153
     3  F   -0.069857   0.000000  -0.000000   0.036048   0.027329  -0.090705
     4  F   -0.069857   0.000000  -0.000000  -0.036048   0.027329  -0.090705
       Tot  -0.000000   0.000000  -0.000000   0.000000  -0.000985  -0.000000
 Hirshfeld charges with hydrogens summed into heavy atoms:
              Q-H       Q-CM5   
     1  C    0.232518   0.292563
     2  S   -0.092805  -0.111153
     3  F   -0.069857  -0.090705
     4  F   -0.069857  -0.090705
 
 EQQ= 0.000000000000E+00 EQD= 0.000000000000E+00 EDD=-0.244006235949E-02
 EQQ+QD+DD=-0.244006235949E-02
 
 Breneman (CHELPG) radii used.
 Generate Potential Derived Charges using the Breneman model, NDens= 1.
 Grid spacing= 0.300 Box extension= 2.800
 NStep X,Y,Z=   20     27     28   Total possible points=       15120
 Number of Points to Fit=    4624

 **********************************************************************

            Electrostatic Properties Using The CC Density.

 **********************************************************************

       Atomic Center    1 is at   0.000000  0.000000 -0.520349
       Atomic Center    2 is at   0.000000  0.000000  1.068525
       Atomic Center    3 is at   0.000000 -1.055221 -1.295538
       Atomic Center    4 is at   0.000000  1.055221 -1.295538
    4624 points will be used for fitting atomic charges
 Fitting point charges to electrostatic potential
 The dipole moment will be constrained to the correct value
 Charges from ESP fit, RMS=   0.00613 RRMS=   0.72364:
 ESP charges:
               1
     1  C    0.416446
     2  S   -0.153336
     3  F   -0.131555
     4  F   -0.131555
 Sum of ESP charges =  -0.00000
 ESP charges with hydrogens summed into heavy atoms:
               1
     1  C    0.416446
     2  S   -0.153336
     3  F   -0.131555
     4  F   -0.131555
 Charge=  -0.00000 Dipole=     0.0000    -0.0000    -0.1906 Tot=     0.1906
 -----------------------------------------------------------------

              Electrostatic Properties (Atomic Units)

 -----------------------------------------------------------------
    Center     Electric         -------- Electric Field --------
               Potential          X             Y             Z
 -----------------------------------------------------------------
    1 Atom    -14.500744
    2 Atom    -59.213211
    3 Atom    -26.496996
    4 Atom    -26.496996
 -----------------------------------------------------------------
 ******************************Gaussian NBO Version 3.1******************************
             N A T U R A L   A T O M I C   O R B I T A L   A N D
          N A T U R A L   B O N D   O R B I T A L   A N A L Y S I S
 ******************************Gaussian NBO Version 3.1******************************
       /RESON  / : Allow strongly delocalized NBO set

 Analyzing the QCI/CC density

 Job title: f2cs-wavefunction                                               

 Storage needed:    106946 in NPA (2147483536 available)
 GSVD:  LWork=        5094 too small for GESVD, short by       54317 words or       54317 for optimal perf.


 NATURAL POPULATIONS:  Natural atomic orbital occupancies 
                                                          
   NAO  Atom  No  lang   Type(AO)    Occupancy
 --------------------------------------------
     1    C    1  S      Cor( 1S)     1.99944
     2    C    1  S      Val( 2S)     0.92662
     3    C    1  S      Ryd( 3S)     0.00597
     4    C    1  S      Ryd( 4S)     0.00026
     5    C    1  S      Ryd( 5S)     0.00006
     6    C    1  px     Val( 2p)     0.86488
     7    C    1  px     Ryd( 3p)     0.00615
     8    C    1  px     Ryd( 4p)     0.00049
     9    C    1  px     Ryd( 5p)     0.00045
    10    C    1  py     Val( 2p)     0.62676
    11    C    1  py     Ryd( 3p)     0.02258
    12    C    1  py     Ryd( 4p)     0.00057
    13    C    1  py     Ryd( 5p)     0.00032
    14    C    1  pz     Val( 2p)     0.86922
    15    C    1  pz     Ryd( 3p)     0.01843
    16    C    1  pz     Ryd( 4p)     0.00062
    17    C    1  pz     Ryd( 5p)     0.00040
    18    C    1  dxy    Ryd( 3d)     0.00791
    19    C    1  dxy    Ryd( 4d)     0.00053
    20    C    1  dxy    Ryd( 5d)     0.00025
    21    C    1  dxz    Ryd( 3d)     0.01465
    22    C    1  dxz    Ryd( 4d)     0.00048
    23    C    1  dxz    Ryd( 5d)     0.00037
    24    C    1  dyz    Ryd( 3d)     0.01138
    25    C    1  dyz    Ryd( 4d)     0.00040
    26    C    1  dyz    Ryd( 5d)     0.00019
    27    C    1  dx2y2  Ryd( 3d)     0.00609
    28    C    1  dx2y2  Ryd( 4d)     0.00044
    29    C    1  dx2y2  Ryd( 5d)     0.00044
    30    C    1  dz2    Ryd( 3d)     0.01109
    31    C    1  dz2    Ryd( 4d)     0.00059
    32    C    1  dz2    Ryd( 5d)     0.00022
    33    C    1  f(0)   Ryd( 4f)     0.00312
    34    C    1  f(0)   Ryd( 5f)     0.00029
    35    C    1  f(C1)  Ryd( 4f)     0.00148
    36    C    1  f(C1)  Ryd( 5f)     0.00043
    37    C    1  f(S1)  Ryd( 4f)     0.00245
    38    C    1  f(S1)  Ryd( 5f)     0.00067
    39    C    1  f(C2)  Ryd( 4f)     0.00223
    40    C    1  f(C2)  Ryd( 5f)     0.00028
    41    C    1  f(S2)  Ryd( 4f)     0.00220
    42    C    1  f(S2)  Ryd( 5f)     0.00036
    43    C    1  f(C3)  Ryd( 4f)     0.00123
    44    C    1  f(C3)  Ryd( 5f)     0.00035
    45    C    1  f(S3)  Ryd( 4f)     0.00111
    46    C    1  f(S3)  Ryd( 5f)     0.00023

    47    S    2  S      Cor( 1S)     2.00000
    48    S    2  S      Cor( 2S)     1.99872
    49    S    2  S      Val( 3S)     1.75277
    50    S    2  S      Ryd( 4S)     0.00673
    51    S    2  S      Ryd( 5S)     0.00026
    52    S    2  S      Ryd( 6S)     0.00019
    53    S    2  px     Cor( 2p)     1.99989
    54    S    2  px     Val( 3p)     1.28297
    55    S    2  px     Ryd( 4p)     0.00514
    56    S    2  px     Ryd( 5p)     0.00030
    57    S    2  px     Ryd( 6p)     0.00007
    58    S    2  py     Cor( 2p)     2.00001
    59    S    2  py     Val( 3p)     1.79363
    60    S    2  py     Ryd( 4p)     0.00852
    61    S    2  py     Ryd( 5p)     0.00051
    62    S    2  py     Ryd( 6p)     0.00010
    63    S    2  pz     Cor( 2p)     1.99963
    64    S    2  pz     Val( 3p)     1.02586
    65    S    2  pz     Ryd( 4p)     0.00503
    66    S    2  pz     Ryd( 5p)     0.00041
    67    S    2  pz     Ryd( 6p)     0.00009
    68    S    2  dxy    Ryd( 3d)     0.01636
    69    S    2  dxy    Ryd( 4d)     0.00051
    70    S    2  dxy    Ryd( 5d)     0.00009
    71    S    2  dxz    Ryd( 3d)     0.01949
    72    S    2  dxz    Ryd( 4d)     0.00048
    73    S    2  dxz    Ryd( 5d)     0.00017
    74    S    2  dyz    Ryd( 3d)     0.01483
    75    S    2  dyz    Ryd( 4d)     0.00050
    76    S    2  dyz    Ryd( 5d)     0.00024
    77    S    2  dx2y2  Ryd( 3d)     0.01615
    78    S    2  dx2y2  Ryd( 4d)     0.00053
    79    S    2  dx2y2  Ryd( 5d)     0.00008
    80    S    2  dz2    Ryd( 3d)     0.02166
    81    S    2  dz2    Ryd( 4d)     0.00043
    82    S    2  dz2    Ryd( 5d)     0.00015
    83    S    2  f(0)   Ryd( 4f)     0.00142
    84    S    2  f(0)   Ryd( 5f)     0.00018
    85    S    2  f(C1)  Ryd( 4f)     0.00095
    86    S    2  f(C1)  Ryd( 5f)     0.00012
    87    S    2  f(S1)  Ryd( 4f)     0.00105
    88    S    2  f(S1)  Ryd( 5f)     0.00016
    89    S    2  f(C2)  Ryd( 4f)     0.00095
    90    S    2  f(C2)  Ryd( 5f)     0.00013
    91    S    2  f(S2)  Ryd( 4f)     0.00093
    92    S    2  f(S2)  Ryd( 5f)     0.00012
    93    S    2  f(C3)  Ryd( 4f)     0.00133
    94    S    2  f(C3)  Ryd( 5f)     0.00012
    95    S    2  f(S3)  Ryd( 4f)     0.00134
    96    S    2  f(S3)  Ryd( 5f)     0.00013

    97    F    3  S      Cor( 1S)     1.99979
    98    F    3  S      Val( 2S)     1.82788
    99    F    3  S      Ryd( 3S)     0.00646
   100    F    3  S      Ryd( 4S)     0.00033
   101    F    3  S      Ryd( 5S)     0.00027
   102    F    3  px     Val( 2p)     1.87076
   103    F    3  px     Ryd( 3p)     0.01126
   104    F    3  px     Ryd( 4p)     0.00081
   105    F    3  px     Ryd( 5p)     0.00015
   106    F    3  py     Val( 2p)     1.71410
   107    F    3  py     Ryd( 3p)     0.00743
   108    F    3  py     Ryd( 4p)     0.00058
   109    F    3  py     Ryd( 5p)     0.00018
   110    F    3  pz     Val( 2p)     1.80767
   111    F    3  pz     Ryd( 3p)     0.00975
   112    F    3  pz     Ryd( 4p)     0.00073
   113    F    3  pz     Ryd( 5p)     0.00027
   114    F    3  dxy    Ryd( 3d)     0.00670
   115    F    3  dxy    Ryd( 4d)     0.00044
   116    F    3  dxy    Ryd( 5d)     0.00008
   117    F    3  dxz    Ryd( 3d)     0.00567
   118    F    3  dxz    Ryd( 4d)     0.00046
   119    F    3  dxz    Ryd( 5d)     0.00008
   120    F    3  dyz    Ryd( 3d)     0.00968
   121    F    3  dyz    Ryd( 4d)     0.00053
   122    F    3  dyz    Ryd( 5d)     0.00010
   123    F    3  dx2y2  Ryd( 3d)     0.00748
   124    F    3  dx2y2  Ryd( 4d)     0.00052
   125    F    3  dx2y2  Ryd( 5d)     0.00013
   126    F    3  dz2    Ryd( 3d)     0.00635
   127    F    3  dz2    Ryd( 4d)     0.00045
   128    F    3  dz2    Ryd( 5d)     0.00011
   129    F    3  f(0)   Ryd( 4f)     0.00053
   130    F    3  f(0)   Ryd( 5f)     0.00010
   131    F    3  f(C1)  Ryd( 4f)     0.00043
   132    F    3  f(C1)  Ryd( 5f)     0.00009
   133    F    3  f(S1)  Ryd( 4f)     0.00066
   134    F    3  f(S1)  Ryd( 5f)     0.00013
   135    F    3  f(C2)  Ryd( 4f)     0.00073
   136    F    3  f(C2)  Ryd( 5f)     0.00012
   137    F    3  f(S2)  Ryd( 4f)     0.00055
   138    F    3  f(S2)  Ryd( 5f)     0.00011
   139    F    3  f(C3)  Ryd( 4f)     0.00052
   140    F    3  f(C3)  Ryd( 5f)     0.00010
   141    F    3  f(S3)  Ryd( 4f)     0.00057
   142    F    3  f(S3)  Ryd( 5f)     0.00012

   143    F    4  S      Cor( 1S)     1.99979
   144    F    4  S      Val( 2S)     1.82788
   145    F    4  S      Ryd( 3S)     0.00646
   146    F    4  S      Ryd( 4S)     0.00033
   147    F    4  S      Ryd( 5S)     0.00027
   148    F    4  px     Val( 2p)     1.87076
   149    F    4  px     Ryd( 3p)     0.01126
   150    F    4  px     Ryd( 4p)     0.00081
   151    F    4  px     Ryd( 5p)     0.00015
   152    F    4  py     Val( 2p)     1.71410
   153    F    4  py     Ryd( 3p)     0.00743
   154    F    4  py     Ryd( 4p)     0.00058
   155    F    4  py     Ryd( 5p)     0.00018
   156    F    4  pz     Val( 2p)     1.80767
   157    F    4  pz     Ryd( 3p)     0.00975
   158    F    4  pz     Ryd( 4p)     0.00073
   159    F    4  pz     Ryd( 5p)     0.00027
   160    F    4  dxy    Ryd( 3d)     0.00670
   161    F    4  dxy    Ryd( 4d)     0.00044
   162    F    4  dxy    Ryd( 5d)     0.00008
   163    F    4  dxz    Ryd( 3d)     0.00567
   164    F    4  dxz    Ryd( 4d)     0.00046
   165    F    4  dxz    Ryd( 5d)     0.00008
   166    F    4  dyz    Ryd( 3d)     0.00968
   167    F    4  dyz    Ryd( 4d)     0.00053
   168    F    4  dyz    Ryd( 5d)     0.00010
   169    F    4  dx2y2  Ryd( 3d)     0.00748
   170    F    4  dx2y2  Ryd( 4d)     0.00052
   171    F    4  dx2y2  Ryd( 5d)     0.00013
   172    F    4  dz2    Ryd( 3d)     0.00635
   173    F    4  dz2    Ryd( 4d)     0.00045
   174    F    4  dz2    Ryd( 5d)     0.00011
   175    F    4  f(0)   Ryd( 4f)     0.00053
   176    F    4  f(0)   Ryd( 5f)     0.00010
   177    F    4  f(C1)  Ryd( 4f)     0.00043
   178    F    4  f(C1)  Ryd( 5f)     0.00009
   179    F    4  f(S1)  Ryd( 4f)     0.00066
   180    F    4  f(S1)  Ryd( 5f)     0.00013
   181    F    4  f(C2)  Ryd( 4f)     0.00073
   182    F    4  f(C2)  Ryd( 5f)     0.00012
   183    F    4  f(S2)  Ryd( 4f)     0.00055
   184    F    4  f(S2)  Ryd( 5f)     0.00011
   185    F    4  f(C3)  Ryd( 4f)     0.00052
   186    F    4  f(C3)  Ryd( 5f)     0.00010
   187    F    4  f(S3)  Ryd( 4f)     0.00057
   188    F    4  f(S3)  Ryd( 5f)     0.00012

 WARNING:  1 low occupancy (<1.9990e) core orbital  found on  S    2


 Summary of Natural Population Analysis:                  
                                                          
                                       Natural Population 
                Natural  -----------------------------------------------
    Atom  No    Charge         Core      Valence    Rydberg      Total
 -----------------------------------------------------------------------
      C    1    0.58532      1.99944     3.28748    0.12775     5.41468
      S    2    0.01858      9.99825     5.85523    0.12794    15.98142
      F    3   -0.30195      1.99979     7.22040    0.08176     9.30195
      F    4   -0.30195      1.99979     7.22040    0.08176     9.30195
 =======================================================================
   * Total *    0.00000     15.99727    23.58352    0.41921    40.00000

                                 Natural Population      
 --------------------------------------------------------
   Core                      15.99727 ( 99.9830% of  16)
   Valence                   23.58352 ( 98.2647% of  24)
   Natural Minimal Basis     39.58079 ( 98.9520% of  40)
   Natural Rydberg Basis      0.41921 (  1.0480% of  40)
 --------------------------------------------------------

    Atom  No          Natural Electron Configuration
 ----------------------------------------------------------------------------
      C    1      [core]2S( 0.93)2p( 2.36)3S( 0.01)3p( 0.05)3d( 0.05)4f( 0.01)
      S    2      [core]3S( 1.75)3p( 4.10)4S( 0.01)3d( 0.09)4p( 0.02)4f( 0.01)
      F    3      [core]2S( 1.83)2p( 5.39)3S( 0.01)3p( 0.03)3d( 0.04)
      F    4      [core]2S( 1.83)2p( 5.39)3S( 0.01)3p( 0.03)3d( 0.04)


 NBO analysis skipped by request.
 Unable to Open any file for archive entry.
 1\1\GINC-TRAPISTA\SP\RQCISD-FC\Aug-CC-pVTZ\C1F2S1\WAGNER\03-Sep-2022\0
 \\# qcisd/aug-cc-pvtz nosymm density=current pop=(chelpg,hirshfeld,npa
 ,dipole)\\f2cs-wavefunction\\0,1\C,0,0.,0.,-0.520349\S,0,0.,0.,1.06852
 5\F,0,0.,-1.055221,-1.295538\F,0,0.,1.055221,-1.295538\\Version=EM64L-
 G16RevC.01\HF=-634.3570612\MP2=-635.1963466\MP3=-635.1998122\MP4D=-635
 .2166776\MP4DQ=-635.1973937\MP4SDQ=-635.2081509\QCISD=-635.2072392\RMS
 D=5.881e-09\Dipole=0.,0.,-0.0749692\Quadrupole=0.8946952,-1.2608712,0.
 366176,0.,0.,0.\PG=C02V [C2(C1S1),SGV(F2)]\\@
 The archive entry for this job was punched.


 I WANT IT ALL - RICH, THIN, AND CHOCOLATE.
 Job cpu time:       0 days  6 hours 51 minutes 54.2 seconds.
 Elapsed time:       0 days  0 hours 26 minutes  8.2 seconds.
 File lengths (MBytes):  RWF=  21970 Int=      0 D2E=      0 Chk=      4 Scr=      1
 Normal termination of Gaussian 16 at Sat Sep  3 14:01:08 2022.
