 Entering Gaussian System, Link 0=/home/bruns/programas/chemistry/gaussian/g09/g09
 Input=./cl2cs/cl2cs-fv.com
 Output=./cl2cs/cl2cs-fv.log
 Initial command:
 /home/bruns/programas/chemistry/gaussian/g09/l1.exe /home/bruns/programas/chemistry/gaussian/work/Gau-48371.inp -scrdir=/home/bruns/programas/chemistry/gaussian/work/
 Entering Link 1 = /home/bruns/programas/chemistry/gaussian/g09/l1.exe PID=     48373.
  
 Copyright (c) 1988,1990,1992,1993,1995,1998,2003,2009,2010,
            Gaussian, Inc.  All Rights Reserved.
  
 This is part of the Gaussian(R) 09 program.  It is based on
 the Gaussian(R) 03 system (copyright 2003, Gaussian, Inc.),
 the Gaussian(R) 98 system (copyright 1998, Gaussian, Inc.),
 the Gaussian(R) 94 system (copyright 1995, Gaussian, Inc.),
 the Gaussian 92(TM) system (copyright 1992, Gaussian, Inc.),
 the Gaussian 90(TM) system (copyright 1990, Gaussian, Inc.),
 the Gaussian 88(TM) system (copyright 1988, Gaussian, Inc.),
 the Gaussian 86(TM) system (copyright 1986, Carnegie Mellon
 University), and the Gaussian 82(TM) system (copyright 1983,
 Carnegie Mellon University). Gaussian is a federally registered
 trademark of Gaussian, Inc.
  
 This software contains proprietary and confidential information,
 including trade secrets, belonging to Gaussian, Inc.
  
 This software is provided under written license and may be
 used, copied, transmitted, or stored only in accord with that
 written license.
  
 The following legend is applicable only to US Government
 contracts under FAR:
  
                    RESTRICTED RIGHTS LEGEND
  
 Use, reproduction and disclosure by the US Government is
 subject to restrictions as set forth in subparagraphs (a)
 and (c) of the Commercial Computer Software - Restricted
 Rights clause in FAR 52.227-19.
  
 Gaussian, Inc.
 340 Quinnipiac St., Bldg. 40, Wallingford CT 06492
  
  
 ---------------------------------------------------------------
 Warning -- This program may not be used in any manner that
 competes with the business of Gaussian, Inc. or will provide
 assistance to any competitor of Gaussian, Inc.  The licensee
 of this program is prohibited from giving any competitor of
 Gaussian, Inc. access to this program.  By using this program,
 the user acknowledges that Gaussian, Inc. is engaged in the
 business of creating and licensing software in the field of
 computational chemistry and represents and warrants to the
 licensee that it is not a competitor of Gaussian, Inc. and that
 it will not use this program in any manner prohibited above.
 ---------------------------------------------------------------
  

 Cite this work as:
 Gaussian 09, Revision B.01,
 M. J. Frisch, G. W. Trucks, H. B. Schlegel, G. E. Scuseria, 
 M. A. Robb, J. R. Cheeseman, G. Scalmani, V. Barone, B. Mennucci, 
 G. A. Petersson, H. Nakatsuji, M. Caricato, X. Li, H. P. Hratchian, 
 A. F. Izmaylov, J. Bloino, G. Zheng, J. L. Sonnenberg, M. Hada, 
 M. Ehara, K. Toyota, R. Fukuda, J. Hasegawa, M. Ishida, T. Nakajima, 
 Y. Honda, O. Kitao, H. Nakai, T. Vreven, J. A. Montgomery, Jr., 
 J. E. Peralta, F. Ogliaro, M. Bearpark, J. J. Heyd, E. Brothers, 
 K. N. Kudin, V. N. Staroverov, T. Keith, R. Kobayashi, J. Normand, 
 K. Raghavachari, A. Rendell, J. C. Burant, S. S. Iyengar, J. Tomasi, 
 M. Cossi, N. Rega, J. M. Millam, M. Klene, J. E. Knox, J. B. Cross, 
 V. Bakken, C. Adamo, J. Jaramillo, R. Gomperts, R. E. Stratmann, 
 O. Yazyev, A. J. Austin, R. Cammi, C. Pomelli, J. W. Ochterski, 
 R. L. Martin, K. Morokuma, V. G. Zakrzewski, G. A. Voth, 
 P. Salvador, J. J. Dannenberg, S. Dapprich, A. D. Daniels, 
 O. Farkas, J. B. Foresman, J. V. Ortiz, J. Cioslowski, 
 and D. J. Fox, Gaussian, Inc., Wallingford CT, 2010.
 
 ******************************************
 Gaussian 09:  EM64L-G09RevB.01 12-Aug-2010
                17-Nov-2021 
 ******************************************
 %nproc=8
 Will use up to    8 processors via shared memory.
 %mem=8GB
 ----------------------------------------------------------------------
 #freq=noraman qcisd/aug-cc-pvtz density=current iop(7/33=1) nosym form
 check=forcecart
 ----------------------------------------------------------------------
 1/10=4,30=1,38=11/1,3,6;
 2/12=2,15=1,17=6,18=5,40=1/2;
 3/5=16,6=1,7=10,11=9,16=1,25=1,30=1,71=1/1,2,3;
 4/69=2/1;
 5/5=2,38=5,98=1/2;
 8/6=4,9=120000,10=1/1,4;
 9/5=8,15=1/13;
 11/28=-7,29=200,31=1,42=3/11;
 10/5=6,31=1/2;
 6/7=2,8=2,9=2,10=2,22=-1/1;
 7/12=7,30=1,33=1/1,2,3,16;
 1/38=10/6(3);
 7/8=1,25=1,30=1,33=1,44=-1/16;
 1/10=4,30=1,38=10/3;
 99//99;
 3/5=16,6=1,7=10,11=9,16=1,25=1,30=1,71=1/1,2,3;
 4/5=5,16=3,69=2/1;
 5/5=2,38=5,98=1/2;
 8/6=4,9=120000,10=1/1,4;
 9/5=8,15=1/13;
 11/28=-7,29=200,31=1,42=3/11;
 10/5=6,31=1/2;
 6/7=2,8=2,9=2,10=2,22=-1/1;
 7/7=1,12=7,30=1,33=1/1,2,3,16;
 1/38=10/6(-9);
 7/8=1,25=1,30=1,33=1,44=-1/16;
 1/10=4,30=1,38=10/3;
 99//99;
 -----------------
 cl2cs-frequencies
 -----------------
 Symbolic Z-matrix:
 Charge =  0 Multiplicity = 1
 C                     0.        0.       -0.52291 
 Cl                    0.       -1.43074  -1.5009 
 Cl                    0.        1.43074  -1.5009 
 S                     0.        0.        1.08181 
 

 GradGradGradGradGradGradGradGradGradGradGradGradGradGradGradGradGradGrad
 Berny optimization.
 Initialization pass.
 Trust Radius=3.00D-01 FncErr=1.00D-07 GrdErr=1.00D-07
 Number of steps in this run=      2 maximum allowed number of steps=      2.
 GradGradGradGradGradGradGradGradGradGradGradGradGradGradGradGradGradGrad

 NDeriv=  12 NFrqRd=  0 LFDDif=       1
 Numerical evaluation of force-constants.
 Nuclear step= 0.001000 Angstroms, electric field step= 0.000333 atomic units, NStep=1.
                          Input orientation:                          
 ---------------------------------------------------------------------
 Center     Atomic      Atomic             Coordinates (Angstroms)
 Number     Number       Type             X           Y           Z
 ---------------------------------------------------------------------
      1          6           0        0.000000    0.000000   -0.522914
      2         17           0        0.000000   -1.430735   -1.500900
      3         17           0        0.000000    1.430735   -1.500900
      4         16           0        0.000000    0.000000    1.081815
 ---------------------------------------------------------------------
                    Distance matrix (angstroms):
                    1          2          3          4
     1  C    0.000000
     2  Cl   1.733049   0.000000
     3  Cl   1.733049   2.861470   0.000000
     4  S    1.604729   2.952528   2.952528   0.000000
 Symmetry turned off by external request.
 Stoichiometry    CCl2S
 Framework group  C2V[C2(CS),SGV(Cl2)]
 Deg. of freedom     3
 Full point group                 C2V     NOp   4
 Rotational constants (GHZ):      3.5301033      3.4459009      1.7437470
 Standard basis: Aug-CC-pVTZ (5D, 7F)
 Integral buffers will be    131072 words long.
 Raffenetti 1 integral format.
 Two-electron integral symmetry is turned off.
   196 basis functions,   414 primitive gaussians,   232 cartesian basis functions
    28 alpha electrons       28 beta electrons
       nuclear repulsion energy       244.8930225845 Hartrees.
 NAtoms=    4 NActive=    4 NUniq=    4 SFac= 1.00D+00 NAtFMM=   50 NAOKFM=F Big=F
 One-electron integrals computed using PRISM.
 NBasis=   196 RedAO= T  NBF=   196
 NBsUse=   196 1.00D-06 NBFU=   196
 Harris functional with IExCor=  205 diagonalized for initial guess.
 ExpMin= 3.51D-02 ExpMax= 4.56D+05 ExpMxC= 1.44D+03 IAcc=3 IRadAn=         0 AccDes= 0.00D+00
 HarFok:  IExCor=  205 AccDes= 0.00D+00 IRadAn=         0 IDoV= 1
 ScaDFX=  1.000000  1.000000  1.000000  1.000000
 FoFCou: FMM=F IPFlag=           0 FMFlag=      100000 FMFlg1=           0
         NFxFlg=           0 DoJE=T BraDBF=F KetDBF=T FulRan=T
         Omega=  0.000000  0.000000  1.000000  0.000000  0.000000 ICntrl=     500 IOpCl=  0
         NMat0=    1 NMatS0=    1 NMatT0=    0 NMatD0=    1 NMtDS0=    0 NMtDT0=    0
         I1Cent=           4 NGrid=           0.
 Symmetry not used in FoFCou.
 Requested convergence on RMS density matrix=1.00D-08 within 128 cycles.
 Requested convergence on MAX density matrix=1.00D-06.
 Requested convergence on             energy=1.00D-06.
 No special actions if energy rises.
 Keep R1 ints in memory in canonical form, NReq=371777346.
 SCF Done:  E(RHF) =  -1354.42602442     A.U. after   12 cycles
             Convg  =    0.9618D-08             -V/T =  2.0001
 ExpMin= 3.51D-02 ExpMax= 4.56D+05 ExpMxC= 1.44D+03 IAcc=3 IRadAn=         5 AccDes= 0.00D+00
 HarFok:  IExCor=  205 AccDes= 0.00D+00 IRadAn=         5 IDoV=-2
 ScaDFX=  1.000000  1.000000  1.000000  1.000000
 Range of M.O.s used for correlation:    17   196
 NBasis=   196 NAE=    28 NBE=    28 NFC=    16 NFV=     0
 NROrb=    180 NOA=    12 NOB=    12 NVA=   168 NVB=   168

 **** Warning!!: The largest alpha MO coefficient is  0.31158878D+02

 Semi-Direct transformation.
 ModeAB=           2 MOrb=            12 LenV=    1072679875
 LASXX=     33405819 LTotXX=    33405819 LenRXX=    33405819
 LTotAB=    33954012 MaxLAS=    58380480 LenRXY=    58380480
 NonZer=    66811638 LenScr=   100987392 LnRSAI=           0
 LnScr1=           0 LExtra=           0 Total=    192773691
 MaxDsk=          -1 SrtSym=           F ITran=            4
 JobTyp=0 Pass  1:  I=   1 to  12.
 (rs|ai) integrals will be sorted in core.
 Spin components of T(2) and E(2):
     alpha-alpha T2 =       0.3952970085D-01 E2=     -0.9366364558D-01
     alpha-beta  T2 =       0.2072460574D+00 E2=     -0.5370467206D+00
     beta-beta   T2 =       0.3952970085D-01 E2=     -0.9366364558D-01
 ANorm=    0.1134154072D+01
 E2 =    -0.7243740118D+00 EUMP2 =    -0.13551503984330D+04
 R2 and R3 integrals will be kept in memory, NReq=   736864364.
 Iterations=  50 Convergence= 0.100D-07
 Iteration Nr.   1
 **********************
 DD1Dir will call FoFMem   1 times, MxPair=       156
 NAB=    78 NAA=     0 NBB=     0.
 MP4(R+Q)=  0.24886082D-01
 E3=       -0.32600081D-01        EUMP3=      -0.13551829985D+04
 E4(DQ)=    0.31061900D-02        UMP4(DQ)=   -0.13551798923D+04
 E4(SDQ)=  -0.37169464D-02        UMP4(SDQ)=  -0.13551867155D+04
 DE(Corr)= -0.73208801     E(Corr)=     -1355.1581124    
 NORM(A)=   0.11380816D+01
 Iteration Nr.   2
 **********************
 DD1Dir will call FoFMem   1 times, MxPair=       156
 NAB=    78 NAA=     0 NBB=     0.
 DE(Corr)= -0.75642008     E(CORR)=     -1355.1824445     Delta=-2.43D-02
 NORM(A)=   0.11490803D+01
 Iteration Nr.   3
 **********************
 DD1Dir will call FoFMem   1 times, MxPair=       156
 NAB=    78 NAA=     0 NBB=     0.
 DE(Corr)= -0.75560346     E(CORR)=     -1355.1816279     Delta= 8.17D-04
 NORM(A)=   0.11518235D+01
 Iteration Nr.   4
 **********************
 DD1Dir will call FoFMem   1 times, MxPair=       156
 NAB=    78 NAA=     0 NBB=     0.
 DE(Corr)= -0.75786624     E(CORR)=     -1355.1838907     Delta=-2.26D-03
 NORM(A)=   0.11529006D+01
 Iteration Nr.   5
 **********************
 DD1Dir will call FoFMem   1 times, MxPair=       156
 NAB=    78 NAA=     0 NBB=     0.
 DE(Corr)= -0.75814435     E(CORR)=     -1355.1841688     Delta=-2.78D-04
 NORM(A)=   0.11534379D+01
 Iteration Nr.   6
 **********************
 DD1Dir will call FoFMem   1 times, MxPair=       156
 NAB=    78 NAA=     0 NBB=     0.
 DE(Corr)= -0.75819727     E(CORR)=     -1355.1842217     Delta=-5.29D-05
 NORM(A)=   0.11535009D+01
 Iteration Nr.   7
 **********************
 DD1Dir will call FoFMem   1 times, MxPair=       156
 NAB=    78 NAA=     0 NBB=     0.
 DE(Corr)= -0.75820453     E(CORR)=     -1355.1842290     Delta=-7.26D-06
 NORM(A)=   0.11535063D+01
 Iteration Nr.   8
 **********************
 DD1Dir will call FoFMem   1 times, MxPair=       156
 NAB=    78 NAA=     0 NBB=     0.
 DE(Corr)= -0.75820263     E(CORR)=     -1355.1842271     Delta= 1.90D-06
 NORM(A)=   0.11535128D+01
 Iteration Nr.   9
 **********************
 DD1Dir will call FoFMem   1 times, MxPair=       156
 NAB=    78 NAA=     0 NBB=     0.
 DE(Corr)= -0.75820270     E(CORR)=     -1355.1842271     Delta=-6.31D-08
 NORM(A)=   0.11535117D+01
 Iteration Nr.  10
 **********************
 DD1Dir will call FoFMem   1 times, MxPair=       156
 NAB=    78 NAA=     0 NBB=     0.
 DE(Corr)= -0.75820368     E(CORR)=     -1355.1842281     Delta=-9.83D-07
 NORM(A)=   0.11535135D+01
 Iteration Nr.  11
 **********************
 DD1Dir will call FoFMem   1 times, MxPair=       156
 NAB=    78 NAA=     0 NBB=     0.
 DE(Corr)= -0.75820437     E(CORR)=     -1355.1842288     Delta=-6.89D-07
 NORM(A)=   0.11535145D+01
 Iteration Nr.  12
 **********************
 DD1Dir will call FoFMem   1 times, MxPair=       156
 NAB=    78 NAA=     0 NBB=     0.
 DE(Corr)= -0.75820459     E(CORR)=     -1355.1842290     Delta=-2.25D-07
 NORM(A)=   0.11535152D+01
 Iteration Nr.  13
 **********************
 DD1Dir will call FoFMem   1 times, MxPair=       156
 NAB=    78 NAA=     0 NBB=     0.
 DE(Corr)= -0.75820488     E(CORR)=     -1355.1842293     Delta=-2.88D-07
 NORM(A)=   0.11535157D+01
 Iteration Nr.  14
 **********************
 DD1Dir will call FoFMem   1 times, MxPair=       156
 NAB=    78 NAA=     0 NBB=     0.
 DE(Corr)= -0.75820491     E(CORR)=     -1355.1842293     Delta=-2.88D-08
 NORM(A)=   0.11535159D+01
 Iteration Nr.  15
 **********************
 DD1Dir will call FoFMem   1 times, MxPair=       156
 NAB=    78 NAA=     0 NBB=     0.
 DE(Corr)= -0.75820496     E(CORR)=     -1355.1842294     Delta=-5.54D-08
 NORM(A)=   0.11535160D+01
 Iteration Nr.  16
 **********************
 DD1Dir will call FoFMem   1 times, MxPair=       156
 NAB=    78 NAA=     0 NBB=     0.
 DE(Corr)= -0.75820498     E(CORR)=     -1355.1842294     Delta=-1.21D-08
 NORM(A)=   0.11535160D+01
 Iteration Nr.  17
 **********************
 DD1Dir will call FoFMem   1 times, MxPair=       156
 NAB=    78 NAA=     0 NBB=     0.
 DE(Corr)= -0.75820498     E(CORR)=     -1355.1842294     Delta= 2.88D-10
 NORM(A)=   0.11535160D+01
 Iteration Nr.  18
 **********************
 DD1Dir will call FoFMem   1 times, MxPair=       156
 NAB=    78 NAA=     0 NBB=     0.
 DE(Corr)= -0.75820498     E(CORR)=     -1355.1842294     Delta=-4.21D-09
 NORM(A)=   0.11535160D+01
 Iteration Nr.  19
 **********************
 DD1Dir will call FoFMem   1 times, MxPair=       156
 NAB=    78 NAA=     0 NBB=     0.
 DE(Corr)= -0.75820498     E(CORR)=     -1355.1842294     Delta= 1.54D-09
 NORM(A)=   0.11535160D+01
 Largest amplitude= 8.91D-02

 Z-AMPLITUDE ITERATIONS

 Iteration Nr.   1
 **********************
 DD1Dir will call FoFMem   1 times, MxPair=       156
 NAB=    78 NAA=     0 NBB=     0.
 DE(Z)  -0.72636084D+00          E(Z)=    -0.13551523853D+04
 NORM(A)=   0.11535332D+01
 Iteration Nr.   2
 **********************
 DD1Dir will call FoFMem   1 times, MxPair=       156
 NAB=    78 NAA=     0 NBB=     0.
 DE(Z)  -0.72636130D+00          E(Z)=    -0.13551523857D+04
 NORM(A)=   0.11535249D+01
 Iteration Nr.   3
 **********************
 DD1Dir will call FoFMem   1 times, MxPair=       156
 NAB=    78 NAA=     0 NBB=     0.
 DE(Z)  -0.72636108D+00          E(Z)=    -0.13551523855D+04
 NORM(A)=   0.11535183D+01
 Iteration Nr.   4
 **********************
 DD1Dir will call FoFMem   1 times, MxPair=       156
 NAB=    78 NAA=     0 NBB=     0.
 DE(Z)  -0.72636090D+00          E(Z)=    -0.13551523853D+04
 NORM(A)=   0.11535196D+01
 Iteration Nr.   5
 **********************
 DD1Dir will call FoFMem   1 times, MxPair=       156
 NAB=    78 NAA=     0 NBB=     0.
 DE(Z)  -0.72636094D+00          E(Z)=    -0.13551523854D+04
 NORM(A)=   0.11401266D+01
 Iteration Nr.   6
 **********************
 DD1Dir will call FoFMem   1 times, MxPair=       156
 NAB=    78 NAA=     0 NBB=     0.
 DE(Z)  -0.72594839D+00          E(Z)=    -0.13551519728D+04
 NORM(A)=   0.11402739D+01
 Iteration Nr.   7
 **********************
 DD1Dir will call FoFMem   1 times, MxPair=       156
 NAB=    78 NAA=     0 NBB=     0.
 DE(Z)  -0.72597676D+00          E(Z)=    -0.13551520012D+04
 NORM(A)=   0.11402770D+01
 Iteration Nr.   8
 **********************
 DD1Dir will call FoFMem   1 times, MxPair=       156
 NAB=    78 NAA=     0 NBB=     0.
 DE(Z)  -0.72597358D+00          E(Z)=    -0.13551519980D+04
 NORM(A)=   0.11402775D+01
 Iteration Nr.   9
 **********************
 DD1Dir will call FoFMem   1 times, MxPair=       156
 NAB=    78 NAA=     0 NBB=     0.
 DE(Z)  -0.72597454D+00          E(Z)=    -0.13551519990D+04
 NORM(A)=   0.11402780D+01
 Iteration Nr.  10
 **********************
 DD1Dir will call FoFMem   1 times, MxPair=       156
 NAB=    78 NAA=     0 NBB=     0.
 DE(Z)  -0.72597411D+00          E(Z)=    -0.13551519985D+04
 NORM(A)=   0.11402779D+01
 Iteration Nr.  11
 **********************
 DD1Dir will call FoFMem   1 times, MxPair=       156
 NAB=    78 NAA=     0 NBB=     0.
 DE(Z)  -0.72597414D+00          E(Z)=    -0.13551519986D+04
 NORM(A)=   0.11402780D+01
 Iteration Nr.  12
 **********************
 DD1Dir will call FoFMem   1 times, MxPair=       156
 NAB=    78 NAA=     0 NBB=     0.
 DE(Z)  -0.72597416D+00          E(Z)=    -0.13551519986D+04
 NORM(A)=   0.11402781D+01
 Iteration Nr.  13
 **********************
 DD1Dir will call FoFMem   1 times, MxPair=       156
 NAB=    78 NAA=     0 NBB=     0.
 DE(Z)  -0.72597415D+00          E(Z)=    -0.13551519986D+04
 NORM(A)=   0.11402781D+01
 Iteration Nr.  14
 **********************
 DD1Dir will call FoFMem   1 times, MxPair=       156
 NAB=    78 NAA=     0 NBB=     0.
 DE(Z)  -0.72597417D+00          E(Z)=    -0.13551519986D+04
 NORM(A)=   0.11402781D+01
 Iteration Nr.  15
 **********************
 DD1Dir will call FoFMem   1 times, MxPair=       156
 NAB=    78 NAA=     0 NBB=     0.
 DE(Z)  -0.72597417D+00          E(Z)=    -0.13551519986D+04
 NORM(A)=   0.11402781D+01
 Discarding MO integrals.
          IDoAtm=1111
          Differentiating once with respect to electric field.
                with respect to dipole field.
          Differentiating once with respect to nuclear coordinates.
          Keep R1 ints in memory in canonical form, NReq=367211145.
          There are     1 degrees of freedom in the 1st order CPHF.  IDoFFX=0.
 LinEq1:  Iter=  0 NonCon=     1 RMS=2.08D-03 Max=6.35D-02
 AX will form     1 AO Fock derivatives at one time.
 LinEq1:  Iter=  1 NonCon=     1 RMS=9.28D-04 Max=1.77D-02
 LinEq1:  Iter=  2 NonCon=     1 RMS=4.11D-04 Max=1.02D-02
 LinEq1:  Iter=  3 NonCon=     1 RMS=1.04D-04 Max=1.79D-03
 LinEq1:  Iter=  4 NonCon=     1 RMS=2.44D-05 Max=8.02D-04
 LinEq1:  Iter=  5 NonCon=     1 RMS=7.98D-06 Max=1.97D-04
 LinEq1:  Iter=  6 NonCon=     1 RMS=2.41D-06 Max=8.99D-05
 LinEq1:  Iter=  7 NonCon=     1 RMS=7.34D-07 Max=1.30D-05
 LinEq1:  Iter=  8 NonCon=     1 RMS=1.36D-07 Max=2.09D-06
 LinEq1:  Iter=  9 NonCon=     1 RMS=2.58D-08 Max=3.74D-07
 LinEq1:  Iter= 10 NonCon=     1 RMS=6.84D-09 Max=1.78D-07
 LinEq1:  Iter= 11 NonCon=     1 RMS=1.40D-09 Max=2.30D-08
 LinEq1:  Iter= 12 NonCon=     1 RMS=3.21D-10 Max=5.47D-09
 LinEq1:  Iter= 13 NonCon=     0 RMS=6.97D-11 Max=8.86D-10
 Linear equations converged to 1.000D-10 1.000D-09 after    13 iterations.
 End of Minotr Frequency-dependent properties file   721 does not exist.
 End of Minotr Frequency-dependent properties file   722 does not exist.

 **********************************************************************

            Population analysis using the QCI/CC density.

 **********************************************************************

 Alpha  occ. eigenvalues -- -104.88760-104.88760 -91.97803 -11.44947 -10.61161
 Alpha  occ. eigenvalues --  -10.61160  -8.98098  -8.07837  -8.07837  -8.07627
 Alpha  occ. eigenvalues --   -8.07627  -8.07609  -8.07609  -6.66177  -6.66076
 Alpha  occ. eigenvalues --   -6.65927  -1.24302  -1.13392  -1.03990  -0.77141
 Alpha  occ. eigenvalues --   -0.64464  -0.60874  -0.58609  -0.50420  -0.49587
 Alpha  occ. eigenvalues --   -0.47765  -0.40764  -0.38099
 Alpha virt. eigenvalues --    0.01760   0.04856   0.06332   0.06897   0.10063
 Alpha virt. eigenvalues --    0.10090   0.10371   0.11213   0.11750   0.12854
 Alpha virt. eigenvalues --    0.15154   0.15353   0.16225   0.16375   0.16490
 Alpha virt. eigenvalues --    0.21180   0.21719   0.23253   0.26519   0.27059
 Alpha virt. eigenvalues --    0.28118   0.28928   0.30184   0.34377   0.34861
 Alpha virt. eigenvalues --    0.37877   0.38933   0.39845   0.40243   0.42246
 Alpha virt. eigenvalues --    0.44427   0.45461   0.45563   0.46237   0.48088
 Alpha virt. eigenvalues --    0.49027   0.50285   0.50805   0.54002   0.55294
 Alpha virt. eigenvalues --    0.56213   0.65320   0.65629   0.65718   0.70996
 Alpha virt. eigenvalues --    0.72510   0.73109   0.73863   0.74079   0.78494
 Alpha virt. eigenvalues --    0.79058   0.80259   0.80274   0.81676   0.83098
 Alpha virt. eigenvalues --    0.83342   0.86689   0.87415   0.88433   0.88569
 Alpha virt. eigenvalues --    0.91106   0.91959   0.92632   0.94725   0.95506
 Alpha virt. eigenvalues --    0.95819   0.97616   1.02013   1.03169   1.07833
 Alpha virt. eigenvalues --    1.11090   1.11514   1.12001   1.12845   1.17963
 Alpha virt. eigenvalues --    1.18693   1.20913   1.22829   1.28724   1.29513
 Alpha virt. eigenvalues --    1.31233   1.36191   1.39572   1.40412   1.47637
 Alpha virt. eigenvalues --    1.48640   1.52267   1.52913   1.53890   1.54889
 Alpha virt. eigenvalues --    1.61669   1.66293   1.68899   1.71151   1.71555
 Alpha virt. eigenvalues --    1.75233   1.83364   1.83388   1.85289   1.87496
 Alpha virt. eigenvalues --    1.87989   1.90012   1.98031   2.07241   2.07821
 Alpha virt. eigenvalues --    2.14159   2.17560   2.32367   2.32861   2.39128
 Alpha virt. eigenvalues --    2.39355   2.42975   2.44613   2.47256   2.47891
 Alpha virt. eigenvalues --    2.47932   2.53063   2.58186   2.58492   2.59934
 Alpha virt. eigenvalues --    2.60067   2.62400   2.64100   2.65267   2.65388
 Alpha virt. eigenvalues --    2.69601   2.83276   2.83813   2.87505   2.89441
 Alpha virt. eigenvalues --    2.90956   3.02688   3.02824   3.04867   3.05402
 Alpha virt. eigenvalues --    3.05451   3.07611   3.09584   3.13285   3.13426
 Alpha virt. eigenvalues --    3.14095   3.14858   3.19505   3.21572   3.23256
 Alpha virt. eigenvalues --    3.23771   3.35837   3.46757   3.55114   3.64704
 Alpha virt. eigenvalues --    3.70160   3.70644   3.72680   3.76524   3.84465
 Alpha virt. eigenvalues --    3.89288   3.91054   3.96937   4.13458   4.14771
 Alpha virt. eigenvalues --    4.20296   4.24063   4.70573   4.76722   6.45383
 Alpha virt. eigenvalues --    7.21371   7.27058   9.77168
          Condensed to atoms (all electrons):
              1          2          3          4
     1  C    5.673232   0.071284   0.071284   0.179126
     2  Cl   0.071284  17.191990  -0.119038  -0.128558
     3  Cl   0.071284  -0.119038  17.191990  -0.128558
     4  S    0.179126  -0.128558  -0.128558  16.051708
 Mulliken atomic charges:
              1
     1  C    0.005074
     2  Cl  -0.015678
     3  Cl  -0.015678
     4  S    0.026283
 Sum of Mulliken atomic charges =   0.00000
 Mulliken charges with hydrogens summed into heavy atoms:
              1
     1  C    0.005074
     2  Cl  -0.015678
     3  Cl  -0.015678
     4  S    0.026283
 Sum of Mulliken charges with hydrogens summed into heavy atoms =   0.00000
 Electronic spatial extent (au):  <R**2>=            690.6769
 Charge=              0.0000 electrons
 Dipole moment (field-independent basis, Debye):
    X=              0.0000    Y=              0.0000    Z=             -0.4351  Tot=              0.4351
 Quadrupole moment (field-independent basis, Debye-Ang):
   XX=            -43.1530   YY=            -43.2924   ZZ=            -42.5374
   XY=              0.0000   XZ=              0.0000   YZ=              0.0000
 Traceless Quadrupole moment (field-independent basis, Debye-Ang):
   XX=             -0.1587   YY=             -0.2982   ZZ=              0.4569
   XY=              0.0000   XZ=              0.0000   YZ=              0.0000
 Octapole moment (field-independent basis, Debye-Ang**2):
  XXX=              0.0000  YYY=              0.0000  ZZZ=             81.6763  XYY=              0.0000
  XXY=              0.0000  XXZ=             27.1314  XZZ=              0.0000  YZZ=              0.0000
  YYZ=             18.9945  XYZ=              0.0000
 Hexadecapole moment (field-independent basis, Debye-Ang**3):
 XXXX=            -50.8940 YYYY=           -340.4816 ZZZZ=           -477.7187 XXXY=              0.0000
 XXXZ=              0.0000 YYYX=              0.0000 YYYZ=              0.0000 ZZZX=              0.0000
 ZZZY=              0.0000 XXYY=            -69.2256 XXZZ=            -89.7490 YYZZ=           -127.3450
 XXYZ=              0.0000 YYXZ=              0.0000 ZZXY=              0.0000
 N-N= 2.448930225845D+02 E-N=-3.713354971741D+03  KE= 1.355036369398D+03
 Use density number 7.
 DipInt: DoE/N= T T RetVal/Mat= T F Init=T NMatP=  1 IDeriv=0 Min/MaxMlt=  1  1
 Entering OneElI...
 Multipole integrals L=1 to 1 MinM= 0 MaxM= 0.
 Requested accuracy = 0.1000D-12
 PrsmSu:  NPrtUS=   1 ThrOK=F IAlg=1 NPAlg=1 LenDen=           0.
 Prism:   IPart=     0 DynPar=F LinDyn=F Incr=          19.
 PRISM was handed  1073355959 working-precision words and  1930 shell-pairs
 IPart=  0 NShTot=        1930 NBatch=          78 AvBLen=        24.7
 PrSmSu:  NxtVal=             20.
 Entering OneElI...
 Calculate overlap and kinetic energy integrals
    NBasis = 232  MinDer = 1  MaxDer = 1
 Requested accuracy = 0.1000D-12
 PrsmSu:  NPrtUS=   8 ThrOK=T IAlg=1 NPAlg=1 LenDen=           0.
 Prism:   IPart=     0 DynPar=F LinDyn=F Incr=           2.
 PRISM was handed   134076333 working-precision words and  1950 shell-pairs
 PRISM was handed   134076333 working-precision words and  1950 shell-pairs
 PRISM was handed   134076333 working-precision words and  1950 shell-pairs
 PRISM was handed   134076333 working-precision words and  1950 shell-pairs
 PRISM was handed   134076333 working-precision words and  1950 shell-pairs
 PRISM was handed   134076333 working-precision words and  1950 shell-pairs
 PRISM was handed   134076333 working-precision words and  1950 shell-pairs
 PRISM was handed   134076333 working-precision words and  1950 shell-pairs
 IPart=  4 NShTot=         231 NBatch=          48 AvBLen=         4.8
 IPart=  3 NShTot=         246 NBatch=          50 AvBLen=         4.9
 IPart=  0 NShTot=         283 NBatch=          85 AvBLen=         3.3
 IPart=  2 NShTot=         257 NBatch=          61 AvBLen=         4.2
 IPart=  1 NShTot=         273 NBatch=          76 AvBLen=         3.6
 IPart=  7 NShTot=         216 NBatch=          39 AvBLen=         5.5
 IPart=  6 NShTot=         217 NBatch=          40 AvBLen=         5.4
 IPart=  5 NShTot=         227 NBatch=          45 AvBLen=         5.0
 PrSmSu:  NxtVal=             17.
 Entering OneElI...
 Calculate potential energy integrals
    NBasis = 232  MinDer = 1  MaxDer = 1
 Requested accuracy = 0.1000D-12
 PrsmSu:  NPrtUS=   8 ThrOK=T IAlg=1 NPAlg=1 LenDen=           0.
 Prism:   IPart=     0 DynPar=F LinDyn=F Incr=           9.
 PRISM was handed   134094085 working-precision words and  1920 shell-pairs
 PRISM was handed   134094085 working-precision words and  1920 shell-pairs
 PRISM was handed   134094085 working-precision words and  1920 shell-pairs
 PRISM was handed   134094085 working-precision words and  1920 shell-pairs
 PRISM was handed   134094085 working-precision words and  1920 shell-pairs
 PRISM was handed   134094085 working-precision words and  1920 shell-pairs
 PRISM was handed   134094085 working-precision words and  1920 shell-pairs
 PRISM was handed   134094085 working-precision words and  1920 shell-pairs
 IPart=  3 NShTot=         960 NBatch=         240 AvBLen=         4.0
 IPart=  4 NShTot=         924 NBatch=         231 AvBLen=         4.0
 IPart=  2 NShTot=        1000 NBatch=         250 AvBLen=         4.0
 IPart=  1 NShTot=        1060 NBatch=         265 AvBLen=         4.0
 IPart=  7 NShTot=         860 NBatch=         215 AvBLen=         4.0
 IPart=  0 NShTot=        1100 NBatch=         275 AvBLen=         4.0
 IPart=  6 NShTot=         860 NBatch=         215 AvBLen=         4.0
 IPart=  5 NShTot=         916 NBatch=         229 AvBLen=         4.0
 PrSmSu:  NxtVal=             73.
 l701 out
 I=    0 X=   0.000000000000D+00 Y=   0.000000000000D+00 Z=  -1.711891736626D-01
 I=    1 X=   0.000000000000D+00 Y=   0.000000000000D+00 Z=  -3.077373722494D+00
 I=    2 X=   0.000000000000D+00 Y=  -2.314682714496D+01 Z=  -1.356468250482D+01
 I=    3 X=   0.000000000000D+00 Y=   2.314682714542D+01 Z=  -1.356468250505D+01
 I=    4 X=   0.000000000000D+00 Y=   0.000000000000D+00 Z=   3.020673873236D+01
 ICntrl=      2127.
 Calling FoFJK, ICntrl=      2127 FMM=F ISym2X=0 I1Cent= 0 IOpClX= 0 NMat=1 NMatS=1 NMatT=0.
 FoFJK:  IHMeth= 1 ICntrl=  2127 DoSepK=F KAlg= 1 I1Cent= 0 FoldK=F
 FoFCou: FMM=F IPFlag=           0 FMFlag=      100000 FMFlg1=         800
         NFxFlg=           0 DoJE=F BraDBF=F KetDBF=F FulRan=T
         Omega=  0.000000  0.000000  1.000000  0.000000  0.000000 ICntrl=    2127 IOpCl=  0
         NMat0=    1 NMatS0=    1 NMatT0=    0 NMatD0=    1 NMtDS0=    0 NMtDT0=    0
         I1Cent=           0 NGrid=           0.
 Symmetry not used in FoFCou.
 FoFCou:  KetSym=F NOpSet=  1 NOpAb=1 NOp=  1.
 FoFCou:  CnvScl= 1.00D+00 Thresh= 1.00D-10
 PrismS was handed  1073434831 working-precision words and  1926 shell-pairs
 FoFCou: LinMIO=F DoNuc=F BraDBF=F KetDBF=F HaveP=T PDBF=F HaveZ=T HaveW=F
         NIJTC =      10 NIJTAt=       0 NIJTCD=       0 NIJTT =      10
         IJTBeg=       1 IJTEnd=      10 KLTBeg=       1 KLTEnd=      10
         IPTBeg=       1 IPTEnd=      10 IPTBCv=       1 IPTECv=      10
         IZTBeg=       1 IZTEnd=      10 IZTBCv=       1 IZTECv=      10
         IWTBeg=      11 IWTEnd=      10 IWTBCv=      11 IWTECv=      10
         INTBeg=       1 INTEnd=       0 IFTBCv=       1 IFTECv=      10
 NCel replicated for PrismC:     1
 CoulSu:  IncDef=  1024 NBBP=        1855701 NTPThr=   100 NPartT=    8 Incr=        1024 LDynOK=F.
 CoulSu:  NPrtUS=   8 ThrOK=T IAlg=1 NPAlg=1 LenDen=           0.
 Enter PrismC: JobTyp=21 DoJE=F Cont=F.
 PrismC:  IPart=     0 DynPar=T LinDyn=F Incr=        1024 UseFst=F UseS4=T.
 PrismC was handed   134099757 working-precision words and  1926 shell-pairs
 Enter PrismC: JobTyp=21 DoJE=F Cont=F.
 Enter PrismC: JobTyp=21 DoJE=F Cont=F.
 PrismC was handed   134099757 working-precision words and  1926 shell-pairs
 PrismC was handed   134099757 working-precision words and  1926 shell-pairs
 Enter PrismC: JobTyp=21 DoJE=F Cont=F.
 Enter PrismC: JobTyp=21 DoJE=F Cont=F.
 Enter PrismC: JobTyp=21 DoJE=F Cont=F.
 Enter PrismC: JobTyp=21 DoJE=F Cont=F.
 PrismC was handed   134099757 working-precision words and  1926 shell-pairs
 PrismC was handed   134099757 working-precision words and  1926 shell-pairs
 Enter PrismC: JobTyp=21 DoJE=F Cont=F.
 PrismC was handed   134099757 working-precision words and  1926 shell-pairs
 PrismC was handed   134099757 working-precision words and  1926 shell-pairs
 PrismC was handed   134099757 working-precision words and  1926 shell-pairs
 IPart=  5 NShTot=      232598 NShNF=      232598 NShFF=           0 NBatch=        1074 AvBLen=       216.6
 IPart=  4 NShTot=      249288 NShNF=      249288 NShFF=           0 NBatch=         972 AvBLen=       256.5
 IPart=  0 NShTot=      208632 NShNF=      208632 NShFF=           0 NBatch=        1040 AvBLen=       200.6
 IPart=  6 NShTot=      207894 NShNF=      207894 NShFF=           0 NBatch=        1000 AvBLen=       207.9
 IPart=  3 NShTot=      197826 NShNF=      197826 NShFF=           0 NBatch=         994 AvBLen=       199.0
 IPart=  1 NShTot=      217805 NShNF=      217805 NShFF=           0 NBatch=        1002 AvBLen=       217.4
 IPart=  2 NShTot=      221933 NShNF=      221933 NShFF=           0 NBatch=        1043 AvBLen=       212.8
 IPart=  7 NShTot=      211530 NShNF=      211530 NShFF=           0 NBatch=         990 AvBLen=       213.7
 CoulSu:  NxtVal=        1936385.
 Forces at end of L703
 I=    0 X=   0.000000000000D+00 Y=   0.000000000000D+00 Z=  -1.711891736626D-01
 I=    1 X=   0.000000000000D+00 Y=   0.000000000000D+00 Z=   4.239281569149D-04
 I=    2 X=   0.000000000000D+00 Y=  -2.490648133247D-05 Z=  -8.680501725777D-05
 I=    3 X=   0.000000000000D+00 Y=   2.490647946374D-05 Z=  -8.680501802338D-05
 I=    4 X=   0.000000000000D+00 Y=   0.000000000000D+00 Z=  -2.503181215907D-04
 FrcOut:
 IF    =    58 IFX   =    70 IFXYZ =    82
 IFFX  =    94 IFFFX =    94 IFLen =    12
 IFFLen=     0 IFFFLn=     0 IEDerv=    94
 LEDerv=   629 IFroze=   727 ICStrt= 78004
 DipInt: DoE/N= T T RetVal/Mat= T F Init=T NMatP=  1 IDeriv=0 Min/MaxMlt=  1  1
 Entering OneElI...
 Multipole integrals L=1 to 1 MinM= 0 MaxM= 0.
 Requested accuracy = 0.1000D-12
 PrsmSu:  NPrtUS=   1 ThrOK=F IAlg=1 NPAlg=1 LenDen=           0.
 Prism:   IPart=     0 DynPar=F LinDyn=F Incr=          19.
 PRISM was handed  1073413117 working-precision words and  1930 shell-pairs
 IPart=  0 NShTot=        1930 NBatch=          78 AvBLen=        24.7
 PrSmSu:  NxtVal=             20.
 Computed dipole moment (without fudge factor):
 X=-0.3934392619423D-15   Y=-0.6394884621841D-13   Z=-0.1711891736626D+00
 Quadrupole    =-1.17995150D-01-2.21673057D-01 3.39668207D-01
                -3.43531697D-15 2.25310860D-14 2.34123831D-12
 -------------------------------------------------------------------
 Center     Atomic                   Forces (Hartrees/Bohr)
 Number     Number              X              Y              Z
 -------------------------------------------------------------------
      1        6           0.000000000    0.000000000   -0.000423928
      2       17           0.000000000    0.000024906    0.000086805
      3       17           0.000000000   -0.000024906    0.000086805
      4       16           0.000000000    0.000000000    0.000250318
 -------------------------------------------------------------------
 Cartesian Forces:  Max     0.000423928 RMS     0.000146823
 Z-matrix is all fixed cartesians, so copy forces.
 Final forces over variables, Energy=-1.35518423D+03:
  2.34604653D-13-6.07010087D-14-4.31411459D-14-1.30762498D-13
 -2.66922544D-12 2.49064813D-05-2.49064795D-05 8.31357724D-13
 -4.23928157D-04 8.68050173D-05 8.68050180D-05 2.50318122D-04
 NDeriv=  12 NFrqRd=  0 LFDDif=       1
 NDeriv=  12 NFrqRd=  0 LFDDif=       1
 At 1st pt Frequency-dependent properties file   721 does not exist.
 D2Numr ... symmetry will not be used.
 Standard basis: Aug-CC-pVTZ (5D, 7F)
 Integral buffers will be    131072 words long.
 Raffenetti 1 integral format.
 Two-electron integral symmetry is turned off.
   196 basis functions,   414 primitive gaussians,   232 cartesian basis functions
    28 alpha electrons       28 beta electrons
       nuclear repulsion energy       244.8930060681 Hartrees.
 NAtoms=    4 NActive=    4 NUniq=    4 SFac= 1.00D+00 NAtFMM=   50 NAOKFM=F Big=F
 One-electron integrals computed using PRISM.
 NBasis=   196 RedAO= T  NBF=   196
 NBsUse=   196 1.00D-06 NBFU=   196
 Initial guess read from the read-write file.
 B after Tr=     0.000000    0.000000    0.000000
         Rot=    1.000000    0.000000    0.000000    0.000000 Ang=   0.00 deg.
 Requested convergence on RMS density matrix=1.00D-08 within 128 cycles.
 Requested convergence on MAX density matrix=1.00D-06.
 Requested convergence on             energy=1.00D-06.
 No special actions if energy rises.
 Keep R1 ints in memory in canonical form, NReq=371777346.
 SCF Done:  E(RHF) =  -1354.42602421     A.U. after    7 cycles
             Convg  =    0.6467D-08             -V/T =  2.0001
 ExpMin= 3.51D-02 ExpMax= 4.56D+05 ExpMxC= 1.44D+03 IAcc=3 IRadAn=         5 AccDes= 0.00D+00
 HarFok:  IExCor=  205 AccDes= 0.00D+00 IRadAn=         5 IDoV=-2
 ScaDFX=  1.000000  1.000000  1.000000  1.000000
 DSYEVD returned Info=         101 IAlg= 4 N=    50 NDim=    50 NE2=    21472333 trying DSYEV.
 Range of M.O.s used for correlation:    17   196
 NBasis=   196 NAE=    28 NBE=    28 NFC=    16 NFV=     0
 NROrb=    180 NOA=    12 NOB=    12 NVA=   168 NVB=   168

 **** Warning!!: The largest alpha MO coefficient is  0.31158791D+02

 Semi-Direct transformation.
 ModeAB=           2 MOrb=            12 LenV=    1072679875
 LASXX=     33405819 LTotXX=    33405819 LenRXX=    33405819
 LTotAB=    33954012 MaxLAS=    58380480 LenRXY=    58380480
 NonZer=    66811638 LenScr=   100987392 LnRSAI=           0
 LnScr1=           0 LExtra=           0 Total=    192773691
 MaxDsk=          -1 SrtSym=           F ITran=            4
 JobTyp=0 Pass  1:  I=   1 to  12.
 (rs|ai) integrals will be sorted in core.
 Spin components of T(2) and E(2):
     alpha-alpha T2 =       0.3952970698D-01 E2=     -0.9366364771D-01
     alpha-beta  T2 =       0.2072461122D+00 E2=     -0.5370467576D+00
     beta-beta   T2 =       0.3952970698D-01 E2=     -0.9366364771D-01
 ANorm=    0.1134154102D+01
 E2 =    -0.7243740530D+00 EUMP2 =    -0.13551503982611D+04
 R2 and R3 integrals will be kept in memory, NReq=   736864364.
 Iterations=  50 Convergence= 0.100D-07
 Iteration Nr.   1
 **********************
 DD1Dir will call FoFMem   1 times, MxPair=       156
 NAB=    78 NAA=     0 NBB=     0.
 MP4(R+Q)=  0.24886091D-01
 E3=       -0.32600076D-01        EUMP3=      -0.13551829983D+04
 E4(DQ)=    0.31061906D-02        UMP4(DQ)=   -0.13551798921D+04
 E4(SDQ)=  -0.37169489D-02        UMP4(SDQ)=  -0.13551867153D+04
 DE(Corr)= -0.73208804     E(Corr)=     -1355.1581122    
 NORM(A)=   0.11380816D+01
 Iteration Nr.   2
 **********************
 DD1Dir will call FoFMem   1 times, MxPair=       156
 NAB=    78 NAA=     0 NBB=     0.
 DE(Corr)= -0.75642012     E(CORR)=     -1355.1824443     Delta=-2.43D-02
 NORM(A)=   0.11490804D+01
 Iteration Nr.   3
 **********************
 DD1Dir will call FoFMem   1 times, MxPair=       156
 NAB=    78 NAA=     0 NBB=     0.
 DE(Corr)= -0.75560349     E(CORR)=     -1355.1816277     Delta= 8.17D-04
 NORM(A)=   0.11518236D+01
 Iteration Nr.   4
 **********************
 DD1Dir will call FoFMem   1 times, MxPair=       156
 NAB=    78 NAA=     0 NBB=     0.
 DE(Corr)= -0.75786627     E(CORR)=     -1355.1838905     Delta=-2.26D-03
 NORM(A)=   0.11529006D+01
 Iteration Nr.   5
 **********************
 DD1Dir will call FoFMem   1 times, MxPair=       156
 NAB=    78 NAA=     0 NBB=     0.
 DE(Corr)= -0.75814439     E(CORR)=     -1355.1841686     Delta=-2.78D-04
 NORM(A)=   0.11534379D+01
 Iteration Nr.   6
 **********************
 DD1Dir will call FoFMem   1 times, MxPair=       156
 NAB=    78 NAA=     0 NBB=     0.
 DE(Corr)= -0.75819731     E(CORR)=     -1355.1842215     Delta=-5.29D-05
 NORM(A)=   0.11535009D+01
 Iteration Nr.   7
 **********************
 DD1Dir will call FoFMem   1 times, MxPair=       156
 NAB=    78 NAA=     0 NBB=     0.
 DE(Corr)= -0.75820457     E(CORR)=     -1355.1842288     Delta=-7.26D-06
 NORM(A)=   0.11535063D+01
 Iteration Nr.   8
 **********************
 DD1Dir will call FoFMem   1 times, MxPair=       156
 NAB=    78 NAA=     0 NBB=     0.
 DE(Corr)= -0.75820267     E(CORR)=     -1355.1842269     Delta= 1.90D-06
 NORM(A)=   0.11535128D+01
 Iteration Nr.   9
 **********************
 DD1Dir will call FoFMem   1 times, MxPair=       156
 NAB=    78 NAA=     0 NBB=     0.
 DE(Corr)= -0.75820273     E(CORR)=     -1355.1842269     Delta=-6.31D-08
 NORM(A)=   0.11535117D+01
 Iteration Nr.  10
 **********************
 DD1Dir will call FoFMem   1 times, MxPair=       156
 NAB=    78 NAA=     0 NBB=     0.
 DE(Corr)= -0.75820372     E(CORR)=     -1355.1842279     Delta=-9.83D-07
 NORM(A)=   0.11535135D+01
 Iteration Nr.  11
 **********************
 DD1Dir will call FoFMem   1 times, MxPair=       156
 NAB=    78 NAA=     0 NBB=     0.
 DE(Corr)= -0.75820441     E(CORR)=     -1355.1842286     Delta=-6.89D-07
 NORM(A)=   0.11535145D+01
 Iteration Nr.  12
 **********************
 DD1Dir will call FoFMem   1 times, MxPair=       156
 NAB=    78 NAA=     0 NBB=     0.
 DE(Corr)= -0.75820463     E(CORR)=     -1355.1842288     Delta=-2.25D-07
 NORM(A)=   0.11535153D+01
 Iteration Nr.  13
 **********************
 DD1Dir will call FoFMem   1 times, MxPair=       156
 NAB=    78 NAA=     0 NBB=     0.
 DE(Corr)= -0.75820492     E(CORR)=     -1355.1842291     Delta=-2.88D-07
 NORM(A)=   0.11535158D+01
 Iteration Nr.  14
 **********************
 DD1Dir will call FoFMem   1 times, MxPair=       156
 NAB=    78 NAA=     0 NBB=     0.
 DE(Corr)= -0.75820495     E(CORR)=     -1355.1842292     Delta=-2.86D-08
 NORM(A)=   0.11535160D+01
 Iteration Nr.  15
 **********************
 DD1Dir will call FoFMem   1 times, MxPair=       156
 NAB=    78 NAA=     0 NBB=     0.
 DE(Corr)= -0.75820500     E(CORR)=     -1355.1842292     Delta=-5.53D-08
 NORM(A)=   0.11535161D+01
 Iteration Nr.  16
 **********************
 DD1Dir will call FoFMem   1 times, MxPair=       156
 NAB=    78 NAA=     0 NBB=     0.
 DE(Corr)= -0.75820501     E(CORR)=     -1355.1842292     Delta=-1.19D-08
 NORM(A)=   0.11535161D+01
 Iteration Nr.  17
 **********************
 DD1Dir will call FoFMem   1 times, MxPair=       156
 NAB=    78 NAA=     0 NBB=     0.
 DE(Corr)= -0.75820501     E(CORR)=     -1355.1842292     Delta=-3.07D-10
 NORM(A)=   0.11535161D+01
 Iteration Nr.  18
 **********************
 DD1Dir will call FoFMem   1 times, MxPair=       156
 NAB=    78 NAA=     0 NBB=     0.
 DE(Corr)= -0.75820502     E(CORR)=     -1355.1842292     Delta=-4.34D-09
 NORM(A)=   0.11535161D+01
 Iteration Nr.  19
 **********************
 DD1Dir will call FoFMem   1 times, MxPair=       156
 NAB=    78 NAA=     0 NBB=     0.
 DE(Corr)= -0.75820502     E(CORR)=     -1355.1842292     Delta= 2.25D-09
 NORM(A)=   0.11535161D+01
 Largest amplitude= 8.91D-02

 Z-AMPLITUDE ITERATIONS

 Iteration Nr.   1
 **********************
 DD1Dir will call FoFMem   1 times, MxPair=       156
 NAB=    78 NAA=     0 NBB=     0.
 DE(Z)  -0.72636086D+00          E(Z)=    -0.13551523851D+04
 NORM(A)=   0.11534944D+01
 Iteration Nr.   2
 **********************
 DD1Dir will call FoFMem   1 times, MxPair=       156
 NAB=    78 NAA=     0 NBB=     0.
 DE(Z)  -0.72636029D+00          E(Z)=    -0.13551523845D+04
 NORM(A)=   0.11534627D+01
 Iteration Nr.   3
 **********************
 DD1Dir will call FoFMem   1 times, MxPair=       156
 NAB=    78 NAA=     0 NBB=     0.
 DE(Z)  -0.72635944D+00          E(Z)=    -0.13551523836D+04
 NORM(A)=   0.11534867D+01
 Iteration Nr.   4
 **********************
 DD1Dir will call FoFMem   1 times, MxPair=       156
 NAB=    78 NAA=     0 NBB=     0.
 DE(Z)  -0.72636005D+00          E(Z)=    -0.13551523843D+04
 NORM(A)=   0.11535292D+01
 Iteration Nr.   5
 **********************
 DD1Dir will call FoFMem   1 times, MxPair=       156
 NAB=    78 NAA=     0 NBB=     0.
 DE(Z)  -0.72636124D+00          E(Z)=    -0.13551523854D+04
 NORM(A)=   0.11402897D+01
 Iteration Nr.   6
 **********************
 DD1Dir will call FoFMem   1 times, MxPair=       156
 NAB=    78 NAA=     0 NBB=     0.
 DE(Z)  -0.72597348D+00          E(Z)=    -0.13551519977D+04
 NORM(A)=   0.11402770D+01
 Iteration Nr.   7
 **********************
 DD1Dir will call FoFMem   1 times, MxPair=       156
 NAB=    78 NAA=     0 NBB=     0.
 DE(Z)  -0.72597492D+00          E(Z)=    -0.13551519991D+04
 NORM(A)=   0.11402773D+01
 Iteration Nr.   8
 **********************
 DD1Dir will call FoFMem   1 times, MxPair=       156
 NAB=    78 NAA=     0 NBB=     0.
 DE(Z)  -0.72597353D+00          E(Z)=    -0.13551519977D+04
 NORM(A)=   0.11402768D+01
 Iteration Nr.   9
 **********************
 DD1Dir will call FoFMem   1 times, MxPair=       156
 NAB=    78 NAA=     0 NBB=     0.
 DE(Z)  -0.72597423D+00          E(Z)=    -0.13551519984D+04
 NORM(A)=   0.11402776D+01
 Iteration Nr.  10
 **********************
 DD1Dir will call FoFMem   1 times, MxPair=       156
 NAB=    78 NAA=     0 NBB=     0.
 DE(Z)  -0.72597424D+00          E(Z)=    -0.13551519984D+04
 NORM(A)=   0.11402781D+01
 Iteration Nr.  11
 **********************
 DD1Dir will call FoFMem   1 times, MxPair=       156
 NAB=    78 NAA=     0 NBB=     0.
 DE(Z)  -0.72597414D+00          E(Z)=    -0.13551519984D+04
 NORM(A)=   0.11402782D+01
 Iteration Nr.  12
 **********************
 DD1Dir will call FoFMem   1 times, MxPair=       156
 NAB=    78 NAA=     0 NBB=     0.
 DE(Z)  -0.72597423D+00          E(Z)=    -0.13551519984D+04
 NORM(A)=   0.11402782D+01
 Iteration Nr.  13
 **********************
 DD1Dir will call FoFMem   1 times, MxPair=       156
 NAB=    78 NAA=     0 NBB=     0.
 DE(Z)  -0.72597418D+00          E(Z)=    -0.13551519984D+04
 NORM(A)=   0.11402782D+01
 Iteration Nr.  14
 **********************
 DD1Dir will call FoFMem   1 times, MxPair=       156
 NAB=    78 NAA=     0 NBB=     0.
 DE(Z)  -0.72597420D+00          E(Z)=    -0.13551519984D+04
 NORM(A)=   0.11402782D+01
 Iteration Nr.  15
 **********************
 DD1Dir will call FoFMem   1 times, MxPair=       156
 NAB=    78 NAA=     0 NBB=     0.
 DE(Z)  -0.72597420D+00          E(Z)=    -0.13551519984D+04
 NORM(A)=   0.11402782D+01
 Iteration Nr.  16
 **********************
 DD1Dir will call FoFMem   1 times, MxPair=       156
 NAB=    78 NAA=     0 NBB=     0.
 DE(Z)  -0.72597420D+00          E(Z)=    -0.13551519984D+04
 NORM(A)=   0.11402782D+01
 Iteration Nr.  17
 **********************
 DD1Dir will call FoFMem   1 times, MxPair=       156
 NAB=    78 NAA=     0 NBB=     0.
 DE(Z)  -0.72597419D+00          E(Z)=    -0.13551519984D+04
 NORM(A)=   0.11402781D+01
 Discarding MO integrals.
          IDoAtm=1111
          Differentiating once with respect to electric field.
                with respect to dipole field.
          Differentiating once with respect to nuclear coordinates.
          Keep R1 ints in memory in canonical form, NReq=367211145.
          There are     1 degrees of freedom in the 1st order CPHF.  IDoFFX=0.
 LinEq1:  Iter=  0 NonCon=     1 RMS=2.08D-03 Max=6.35D-02
 AX will form     1 AO Fock derivatives at one time.
 LinEq1:  Iter=  1 NonCon=     1 RMS=9.28D-04 Max=1.77D-02
 LinEq1:  Iter=  2 NonCon=     1 RMS=4.11D-04 Max=1.02D-02
 LinEq1:  Iter=  3 NonCon=     1 RMS=1.04D-04 Max=1.79D-03
 LinEq1:  Iter=  4 NonCon=     1 RMS=2.44D-05 Max=8.02D-04
 LinEq1:  Iter=  5 NonCon=     1 RMS=7.98D-06 Max=1.97D-04
 LinEq1:  Iter=  6 NonCon=     1 RMS=2.41D-06 Max=8.99D-05
 LinEq1:  Iter=  7 NonCon=     1 RMS=7.34D-07 Max=1.30D-05
 LinEq1:  Iter=  8 NonCon=     1 RMS=1.36D-07 Max=2.09D-06
 LinEq1:  Iter=  9 NonCon=     1 RMS=2.58D-08 Max=3.74D-07
 LinEq1:  Iter= 10 NonCon=     1 RMS=6.84D-09 Max=1.78D-07
 LinEq1:  Iter= 11 NonCon=     1 RMS=1.41D-09 Max=2.30D-08
 LinEq1:  Iter= 12 NonCon=     1 RMS=3.21D-10 Max=5.47D-09
 LinEq1:  Iter= 13 NonCon=     0 RMS=7.00D-11 Max=8.85D-10
 Linear equations converged to 1.000D-10 1.000D-09 after    13 iterations.
 End of Minotr Frequency-dependent properties file   721 does not exist.
 End of Minotr Frequency-dependent properties file   722 does not exist.

 **********************************************************************

            Population analysis using the QCI/CC density.

 **********************************************************************

 Alpha  occ. eigenvalues -- -104.88760-104.88760 -91.97803 -11.44947 -10.61161
 Alpha  occ. eigenvalues --  -10.61160  -8.98098  -8.07837  -8.07837  -8.07627
 Alpha  occ. eigenvalues --   -8.07627  -8.07609  -8.07609  -6.66177  -6.66076
 Alpha  occ. eigenvalues --   -6.65927  -1.24302  -1.13392  -1.03990  -0.77141
 Alpha  occ. eigenvalues --   -0.64464  -0.60874  -0.58609  -0.50420  -0.49587
 Alpha  occ. eigenvalues --   -0.47765  -0.40764  -0.38099
 Alpha virt. eigenvalues --    0.01760   0.04856   0.06332   0.06897   0.10063
 Alpha virt. eigenvalues --    0.10090   0.10371   0.11213   0.11750   0.12854
 Alpha virt. eigenvalues --    0.15154   0.15353   0.16225   0.16375   0.16490
 Alpha virt. eigenvalues --    0.21180   0.21719   0.23253   0.26519   0.27059
 Alpha virt. eigenvalues --    0.28118   0.28928   0.30184   0.34377   0.34861
 Alpha virt. eigenvalues --    0.37877   0.38933   0.39844   0.40243   0.42246
 Alpha virt. eigenvalues --    0.44427   0.45461   0.45563   0.46237   0.48088
 Alpha virt. eigenvalues --    0.49027   0.50285   0.50805   0.54002   0.55294
 Alpha virt. eigenvalues --    0.56213   0.65320   0.65629   0.65718   0.70996
 Alpha virt. eigenvalues --    0.72510   0.73109   0.73863   0.74079   0.78494
 Alpha virt. eigenvalues --    0.79058   0.80258   0.80275   0.81677   0.83098
 Alpha virt. eigenvalues --    0.83342   0.86689   0.87415   0.88433   0.88569
 Alpha virt. eigenvalues --    0.91106   0.91959   0.92632   0.94725   0.95506
 Alpha virt. eigenvalues --    0.95819   0.97616   1.02013   1.03169   1.07833
 Alpha virt. eigenvalues --    1.11090   1.11514   1.12001   1.12845   1.17963
 Alpha virt. eigenvalues --    1.18693   1.20913   1.22829   1.28724   1.29513
 Alpha virt. eigenvalues --    1.31233   1.36191   1.39571   1.40412   1.47638
 Alpha virt. eigenvalues --    1.48640   1.52267   1.52913   1.53890   1.54889
 Alpha virt. eigenvalues --    1.61669   1.66293   1.68900   1.71151   1.71555
 Alpha virt. eigenvalues --    1.75233   1.83364   1.83388   1.85289   1.87496
 Alpha virt. eigenvalues --    1.87989   1.90012   1.98031   2.07241   2.07821
 Alpha virt. eigenvalues --    2.14159   2.17560   2.32367   2.32861   2.39128
 Alpha virt. eigenvalues --    2.39355   2.42975   2.44613   2.47256   2.47878
 Alpha virt. eigenvalues --    2.47946   2.53063   2.58186   2.58492   2.59934
 Alpha virt. eigenvalues --    2.60067   2.62400   2.64100   2.65267   2.65388
 Alpha virt. eigenvalues --    2.69601   2.83276   2.83813   2.87505   2.89441
 Alpha virt. eigenvalues --    2.90956   3.02688   3.02824   3.04866   3.05402
 Alpha virt. eigenvalues --    3.05451   3.07611   3.09584   3.13285   3.13426
 Alpha virt. eigenvalues --    3.14095   3.14858   3.19505   3.21572   3.23256
 Alpha virt. eigenvalues --    3.23771   3.35837   3.46757   3.55114   3.64704
 Alpha virt. eigenvalues --    3.70159   3.70644   3.72680   3.76524   3.84465
 Alpha virt. eigenvalues --    3.89288   3.91054   3.96937   4.13458   4.14771
 Alpha virt. eigenvalues --    4.20296   4.24063   4.70573   4.76722   6.45383
 Alpha virt. eigenvalues --    7.21372   7.27058   9.77167
          Condensed to atoms (all electrons):
              1          2          3          4
     1  C    5.673232   0.071284   0.071284   0.179126
     2  Cl   0.071284  17.191991  -0.119038  -0.128558
     3  Cl   0.071284  -0.119038  17.191991  -0.128558
     4  S    0.179126  -0.128558  -0.128558  16.051707
 Mulliken atomic charges:
              1
     1  C    0.005074
     2  Cl  -0.015679
     3  Cl  -0.015679
     4  S    0.026284
 Sum of Mulliken atomic charges =   0.00000
 Mulliken charges with hydrogens summed into heavy atoms:
              1
     1  C    0.005074
     2  Cl  -0.015679
     3  Cl  -0.015679
     4  S    0.026284
 Sum of Mulliken charges with hydrogens summed into heavy atoms =   0.00000
 Electronic spatial extent (au):  <R**2>=            690.6769
 Charge=              0.0000 electrons
 Dipole moment (field-independent basis, Debye):
    X=             -0.0005    Y=              0.0000    Z=             -0.4351  Tot=              0.4351
 Quadrupole moment (field-independent basis, Debye-Ang):
   XX=            -43.1530   YY=            -43.2925   ZZ=            -42.5374
   XY=              0.0000   XZ=             -0.0004   YZ=              0.0000
 Traceless Quadrupole moment (field-independent basis, Debye-Ang):
   XX=             -0.1587   YY=             -0.2982   ZZ=              0.4569
   XY=              0.0000   XZ=             -0.0004   YZ=              0.0000
 Octapole moment (field-independent basis, Debye-Ang**2):
  XXX=             -0.0187  YYY=              0.0000  ZZZ=             81.6763  XYY=             -0.0123
  XXY=              0.0000  XXZ=             27.1314  XZZ=             -0.0128  YZZ=              0.0000
  YYZ=             18.9945  XYZ=              0.0000
 Hexadecapole moment (field-independent basis, Debye-Ang**3):
 XXXX=            -50.8941 YYYY=           -340.4817 ZZZZ=           -477.7188 XXXY=              0.0000
 XXXZ=              0.0066 YYYX=              0.0000 YYYZ=              0.0000 ZZZX=              0.0152
 ZZZY=              0.0000 XXYY=            -69.2256 XXZZ=            -89.7490 YYZZ=           -127.3450
 XXYZ=              0.0000 YYXZ=              0.0156 ZZXY=              0.0000
 N-N= 2.448930060681D+02 E-N=-3.713354935841D+03  KE= 1.355036367912D+03
 Use density number 7.
 DipInt: DoE/N= T T RetVal/Mat= T F Init=T NMatP=  1 IDeriv=0 Min/MaxMlt=  1  1
 Entering OneElI...
 Multipole integrals L=1 to 1 MinM= 0 MaxM= 0.
 Requested accuracy = 0.1000D-12
 PrsmSu:  NPrtUS=   1 ThrOK=F IAlg=1 NPAlg=1 LenDen=           0.
 Prism:   IPart=     0 DynPar=F LinDyn=F Incr=          19.
 PRISM was handed  1073355959 working-precision words and  1930 shell-pairs
 IPart=  0 NShTot=        1930 NBatch=          78 AvBLen=        24.7
 PrSmSu:  NxtVal=             20.
 Entering OneElI...
 Calculate overlap and kinetic energy integrals
    NBasis = 232  MinDer = 1  MaxDer = 1
 Requested accuracy = 0.1000D-12
 PrsmSu:  NPrtUS=   8 ThrOK=T IAlg=1 NPAlg=1 LenDen=           0.
 Prism:   IPart=     0 DynPar=F LinDyn=F Incr=           2.
 PRISM was handed   134076333 working-precision words and  1950 shell-pairs
 PRISM was handed   134076333 working-precision words and  1950 shell-pairs
 PRISM was handed   134076333 working-precision words and  1950 shell-pairs
 PRISM was handed   134076333 working-precision words and  1950 shell-pairs
 PRISM was handed   134076333 working-precision words and  1950 shell-pairs
 PRISM was handed   134076333 working-precision words and  1950 shell-pairs
 PRISM was handed   134076333 working-precision words and  1950 shell-pairs
 PRISM was handed   134076333 working-precision words and  1950 shell-pairs
 IPart=  0 NShTot=         283 NBatch=          85 AvBLen=         3.3
 IPart=  6 NShTot=         217 NBatch=          40 AvBLen=         5.4
 IPart=  7 NShTot=         216 NBatch=          39 AvBLen=         5.5
 IPart=  5 NShTot=         227 NBatch=          45 AvBLen=         5.0
 IPart=  3 NShTot=         246 NBatch=          50 AvBLen=         4.9
 IPart=  2 NShTot=         257 NBatch=          61 AvBLen=         4.2
 IPart=  1 NShTot=         273 NBatch=          76 AvBLen=         3.6
 IPart=  4 NShTot=         231 NBatch=          48 AvBLen=         4.8
 PrSmSu:  NxtVal=             17.
 Entering OneElI...
 Calculate potential energy integrals
    NBasis = 232  MinDer = 1  MaxDer = 1
 Requested accuracy = 0.1000D-12
 PrsmSu:  NPrtUS=   8 ThrOK=T IAlg=1 NPAlg=1 LenDen=           0.
 Prism:   IPart=     0 DynPar=F LinDyn=F Incr=           9.
 PRISM was handed   134094085 working-precision words and  1920 shell-pairs
 PRISM was handed   134094085 working-precision words and  1920 shell-pairs
 PRISM was handed   134094085 working-precision words and  1920 shell-pairs
 PRISM was handed   134094085 working-precision words and  1920 shell-pairs
 PRISM was handed   134094085 working-precision words and  1920 shell-pairs
 PRISM was handed   134094085 working-precision words and  1920 shell-pairs
 PRISM was handed   134094085 working-precision words and  1920 shell-pairs
 PRISM was handed   134094085 working-precision words and  1920 shell-pairs
 IPart=  7 NShTot=         860 NBatch=         215 AvBLen=         4.0
 IPart=  6 NShTot=         860 NBatch=         215 AvBLen=         4.0
 IPart=  5 NShTot=         916 NBatch=         229 AvBLen=         4.0
 IPart=  3 NShTot=         960 NBatch=         240 AvBLen=         4.0
 IPart=  2 NShTot=        1000 NBatch=         250 AvBLen=         4.0
 IPart=  0 NShTot=        1100 NBatch=         275 AvBLen=         4.0
 IPart=  1 NShTot=        1060 NBatch=         265 AvBLen=         4.0
 IPart=  4 NShTot=         924 NBatch=         231 AvBLen=         4.0
 PrSmSu:  NxtVal=             73.
 l701 out
 I=    0 X=  -2.114975198842D-04 Y=   0.000000000000D+00 Z=  -1.711877588252D-01
 I=    1 X=   2.551188492619D-02 Y=   0.000000000000D+00 Z=  -3.077358944839D+00
 I=    2 X=  -6.675740927252D-03 Y=  -2.314681644534D+01 Z=  -1.356468537927D+01
 I=    3 X=  -6.675740926597D-03 Y=   2.314681644356D+01 Z=  -1.356468537973D+01
 I=    4 X=  -1.216040307234D-02 Y=   0.000000000000D+00 Z=   3.020672970383D+01
 ICntrl=      2127.
 Calling FoFJK, ICntrl=      2127 FMM=F ISym2X=0 I1Cent= 0 IOpClX= 0 NMat=1 NMatS=1 NMatT=0.
 FoFJK:  IHMeth= 1 ICntrl=  2127 DoSepK=F KAlg= 1 I1Cent= 0 FoldK=F
 FoFCou: FMM=F IPFlag=           0 FMFlag=      100000 FMFlg1=         800
         NFxFlg=           0 DoJE=F BraDBF=F KetDBF=F FulRan=T
         Omega=  0.000000  0.000000  1.000000  0.000000  0.000000 ICntrl=    2127 IOpCl=  0
         NMat0=    1 NMatS0=    1 NMatT0=    0 NMatD0=    1 NMtDS0=    0 NMtDT0=    0
         I1Cent=           0 NGrid=           0.
 Symmetry not used in FoFCou.
 FoFCou:  KetSym=F NOpSet=  1 NOpAb=1 NOp=  1.
 FoFCou:  CnvScl= 1.00D+00 Thresh= 1.00D-10
 PrismS was handed  1073434831 working-precision words and  1926 shell-pairs
 FoFCou: LinMIO=F DoNuc=F BraDBF=F KetDBF=F HaveP=T PDBF=F HaveZ=T HaveW=F
         NIJTC =      10 NIJTAt=       0 NIJTCD=       0 NIJTT =      10
         IJTBeg=       1 IJTEnd=      10 KLTBeg=       1 KLTEnd=      10
         IPTBeg=       1 IPTEnd=      10 IPTBCv=       1 IPTECv=      10
         IZTBeg=       1 IZTEnd=      10 IZTBCv=       1 IZTECv=      10
         IWTBeg=      11 IWTEnd=      10 IWTBCv=      11 IWTECv=      10
         INTBeg=       1 INTEnd=       0 IFTBCv=       1 IFTECv=      10
 NCel replicated for PrismC:     1
 CoulSu:  IncDef=  1024 NBBP=        1855701 NTPThr=   100 NPartT=    8 Incr=        1024 LDynOK=F.
 CoulSu:  NPrtUS=   8 ThrOK=T IAlg=1 NPAlg=1 LenDen=           0.
 Enter PrismC: JobTyp=21 DoJE=F Cont=F.
 PrismC:  IPart=     0 DynPar=T LinDyn=F Incr=        1024 UseFst=F UseS4=T.
 PrismC was handed   134099757 working-precision words and  1926 shell-pairs
 Enter PrismC: JobTyp=21 DoJE=F Cont=F.
 Enter PrismC: JobTyp=21 DoJE=F Cont=F.
 PrismC was handed   134099757 working-precision words and  1926 shell-pairs
 PrismC was handed   134099757 working-precision words and  1926 shell-pairs
 Enter PrismC: JobTyp=21 DoJE=F Cont=F.
 Enter PrismC: JobTyp=21 DoJE=F Cont=F.
 Enter PrismC: JobTyp=21 DoJE=F Cont=F.
 PrismC was handed   134099757 working-precision words and  1926 shell-pairs
 PrismC was handed   134099757 working-precision words and  1926 shell-pairs
 Enter PrismC: JobTyp=21 DoJE=F Cont=F.
 Enter PrismC: JobTyp=21 DoJE=F Cont=F.
 PrismC was handed   134099757 working-precision words and  1926 shell-pairs
 PrismC was handed   134099757 working-precision words and  1926 shell-pairs
 PrismC was handed   134099757 working-precision words and  1926 shell-pairs
 IPart=  7 NShTot=      244889 NShNF=      244889 NShFF=           0 NBatch=        1026 AvBLen=       238.7
 IPart=  6 NShTot=      204135 NShNF=      204135 NShFF=           0 NBatch=         989 AvBLen=       206.4
 IPart=  3 NShTot=      226233 NShNF=      226233 NShFF=           0 NBatch=        1008 AvBLen=       224.4
 IPart=  1 NShTot=      161849 NShNF=      161849 NShFF=           0 NBatch=         770 AvBLen=       210.2
 IPart=  5 NShTot=      202471 NShNF=      202471 NShFF=           0 NBatch=         970 AvBLen=       208.7
 IPart=  0 NShTot=      211999 NShNF=      211999 NShFF=           0 NBatch=        1091 AvBLen=       194.3
 IPart=  2 NShTot=      233134 NShNF=      233134 NShFF=           0 NBatch=        1056 AvBLen=       220.8
 IPart=  4 NShTot=      262796 NShNF=      262796 NShFF=           0 NBatch=        1213 AvBLen=       216.6
 CoulSu:  NxtVal=        1936385.
 Forces at end of L703
 I=    0 X=  -2.114975198842D-04 Y=   0.000000000000D+00 Z=  -1.711877588252D-01
 I=    1 X=   1.758424809376D-04 Y=   0.000000000000D+00 Z=   4.239392937322D-04
 I=    2 X=  -5.469529713684D-05 Y=  -2.491650911196D-05 Z=  -8.692975800351D-05
 I=    3 X=  -5.469529713596D-05 Y=   2.491650716863D-05 Z=  -8.692975744040D-05
 I=    4 X=  -6.645188666479D-05 Y=   0.000000000000D+00 Z=  -2.500797781551D-04
 FrcOut:
 IF    =    58 IFX   =    70 IFXYZ =    82
 IFFX  =    94 IFFFX =    94 IFLen =    12
 IFFLen=     0 IFFFLn=     0 IEDerv=    94
 LEDerv=   629 IFroze=   727 ICStrt= 78004
 DipInt: DoE/N= T T RetVal/Mat= T F Init=T NMatP=  1 IDeriv=0 Min/MaxMlt=  1  1
 Entering OneElI...
 Multipole integrals L=1 to 1 MinM= 0 MaxM= 0.
 Requested accuracy = 0.1000D-12
 PrsmSu:  NPrtUS=   1 ThrOK=F IAlg=1 NPAlg=1 LenDen=           0.
 Prism:   IPart=     0 DynPar=F LinDyn=F Incr=          19.
 PRISM was handed  1073413117 working-precision words and  1930 shell-pairs
 IPart=  0 NShTot=        1930 NBatch=          78 AvBLen=        24.7
 PrSmSu:  NxtVal=             20.
 Computed dipole moment (without fudge factor):
 X=-0.2114975198842D-03   Y= 0.2202682480856D-12   Z=-0.1711877588252D+00
 Quadrupole    =-1.17987935D-01-2.21676145D-01 3.39664080D-01
                 1.10599265D-14-2.90758305D-04-5.57776048D-13
 -------------------------------------------------------------------
 Center     Atomic                   Forces (Hartrees/Bohr)
 Number     Number              X              Y              Z
 -------------------------------------------------------------------
      1        6          -0.000175842    0.000000000   -0.000423939
      2       17           0.000054695    0.000024917    0.000086930
      3       17           0.000054695   -0.000024917    0.000086930
      4       16           0.000066452    0.000000000    0.000250080
 -------------------------------------------------------------------
 Cartesian Forces:  Max     0.000423939 RMS     0.000158098
 Final forces over variables, Energy=-1.35518423D+03:
  2.34604653D-13-6.07010087D-14-4.31411459D-14-1.30762498D-13
 -2.66922544D-12 2.49064813D-05-2.49064795D-05 8.31357724D-13
 -4.23928157D-04 8.68050173D-05 8.68050180D-05 2.50318122D-04
 NDeriv=  12 NFrqRd=  0 LFDDif=       1
 NDeriv=  12 NFrqRd=  0 LFDDif=       1
 Re-enter D2Numr: IAtom=  1 IXYZ=1 IStep= 1.
 Standard basis: Aug-CC-pVTZ (5D, 7F)
 Integral buffers will be    131072 words long.
 Raffenetti 1 integral format.
 Two-electron integral symmetry is turned off.
   196 basis functions,   414 primitive gaussians,   232 cartesian basis functions
    28 alpha electrons       28 beta electrons
       nuclear repulsion energy       244.8930060681 Hartrees.
 NAtoms=    4 NActive=    4 NUniq=    4 SFac= 1.00D+00 NAtFMM=   50 NAOKFM=F Big=F
 One-electron integrals computed using PRISM.
 NBasis=   196 RedAO= T  NBF=   196
 NBsUse=   196 1.00D-06 NBFU=   196
 Initial guess read from the read-write file.
 B after Tr=     0.000000    0.000000    0.000000
         Rot=    1.000000    0.000000    0.000000    0.000000 Ang=   0.00 deg.
 Requested convergence on RMS density matrix=1.00D-08 within 128 cycles.
 Requested convergence on MAX density matrix=1.00D-06.
 Requested convergence on             energy=1.00D-06.
 No special actions if energy rises.
 Keep R1 ints in memory in canonical form, NReq=371777346.
 SCF Done:  E(RHF) =  -1354.42602421     A.U. after    8 cycles
             Convg  =    0.8814D-08             -V/T =  2.0001
 ExpMin= 3.51D-02 ExpMax= 4.56D+05 ExpMxC= 1.44D+03 IAcc=3 IRadAn=         5 AccDes= 0.00D+00
 HarFok:  IExCor=  205 AccDes= 0.00D+00 IRadAn=         5 IDoV=-2
 ScaDFX=  1.000000  1.000000  1.000000  1.000000
 Range of M.O.s used for correlation:    17   196
 NBasis=   196 NAE=    28 NBE=    28 NFC=    16 NFV=     0
 NROrb=    180 NOA=    12 NOB=    12 NVA=   168 NVB=   168

 **** Warning!!: The largest alpha MO coefficient is  0.31158791D+02

 Semi-Direct transformation.
 ModeAB=           2 MOrb=            12 LenV=    1072679875
 LASXX=     33405819 LTotXX=    33405819 LenRXX=    33405819
 LTotAB=    33954012 MaxLAS=    58380480 LenRXY=    58380480
 NonZer=    66811638 LenScr=   100987392 LnRSAI=           0
 LnScr1=           0 LExtra=           0 Total=    192773691
 MaxDsk=          -1 SrtSym=           F ITran=            4
 JobTyp=0 Pass  1:  I=   1 to  12.
 (rs|ai) integrals will be sorted in core.
 Spin components of T(2) and E(2):
     alpha-alpha T2 =       0.3952970785D-01 E2=     -0.9366364949D-01
     alpha-beta  T2 =       0.2072461177D+00 E2=     -0.5370467664D+00
     beta-beta   T2 =       0.3952970785D-01 E2=     -0.9366364949D-01
 ANorm=    0.1134154105D+01
 E2 =    -0.7243740653D+00 EUMP2 =    -0.13551503982733D+04
 R2 and R3 integrals will be kept in memory, NReq=   736864364.
 Iterations=  50 Convergence= 0.100D-07
 Iteration Nr.   1
 **********************
 DD1Dir will call FoFMem   1 times, MxPair=       156
 NAB=    78 NAA=     0 NBB=     0.
 MP4(R+Q)=  0.24886092D-01
 E3=       -0.32600073D-01        EUMP3=      -0.13551829983D+04
 E4(DQ)=    0.31061894D-02        UMP4(DQ)=   -0.13551798922D+04
 E4(SDQ)=  -0.37169511D-02        UMP4(SDQ)=  -0.13551867153D+04
 DE(Corr)= -0.73208805     E(Corr)=     -1355.1581123    
 NORM(A)=   0.11380816D+01
 Iteration Nr.   2
 **********************
 DD1Dir will call FoFMem   1 times, MxPair=       156
 NAB=    78 NAA=     0 NBB=     0.
 DE(Corr)= -0.75642013     E(CORR)=     -1355.1824443     Delta=-2.43D-02
 NORM(A)=   0.11490804D+01
 Iteration Nr.   3
 **********************
 DD1Dir will call FoFMem   1 times, MxPair=       156
 NAB=    78 NAA=     0 NBB=     0.
 DE(Corr)= -0.75560350     E(CORR)=     -1355.1816277     Delta= 8.17D-04
 NORM(A)=   0.11518236D+01
 Iteration Nr.   4
 **********************
 DD1Dir will call FoFMem   1 times, MxPair=       156
 NAB=    78 NAA=     0 NBB=     0.
 DE(Corr)= -0.75786628     E(CORR)=     -1355.1838905     Delta=-2.26D-03
 NORM(A)=   0.11529006D+01
 Iteration Nr.   5
 **********************
 DD1Dir will call FoFMem   1 times, MxPair=       156
 NAB=    78 NAA=     0 NBB=     0.
 DE(Corr)= -0.75814440     E(CORR)=     -1355.1841686     Delta=-2.78D-04
 NORM(A)=   0.11534379D+01
 Iteration Nr.   6
 **********************
 DD1Dir will call FoFMem   1 times, MxPair=       156
 NAB=    78 NAA=     0 NBB=     0.
 DE(Corr)= -0.75819732     E(CORR)=     -1355.1842215     Delta=-5.29D-05
 NORM(A)=   0.11535009D+01
 Iteration Nr.   7
 **********************
 DD1Dir will call FoFMem   1 times, MxPair=       156
 NAB=    78 NAA=     0 NBB=     0.
 DE(Corr)= -0.75820458     E(CORR)=     -1355.1842288     Delta=-7.26D-06
 NORM(A)=   0.11535063D+01
 Iteration Nr.   8
 **********************
 DD1Dir will call FoFMem   1 times, MxPair=       156
 NAB=    78 NAA=     0 NBB=     0.
 DE(Corr)= -0.75820268     E(CORR)=     -1355.1842269     Delta= 1.90D-06
 NORM(A)=   0.11535128D+01
 Iteration Nr.   9
 **********************
 DD1Dir will call FoFMem   1 times, MxPair=       156
 NAB=    78 NAA=     0 NBB=     0.
 DE(Corr)= -0.75820274     E(CORR)=     -1355.1842270     Delta=-6.31D-08
 NORM(A)=   0.11535117D+01
 Iteration Nr.  10
 **********************
 DD1Dir will call FoFMem   1 times, MxPair=       156
 NAB=    78 NAA=     0 NBB=     0.
 DE(Corr)= -0.75820373     E(CORR)=     -1355.1842279     Delta=-9.83D-07
 NORM(A)=   0.11535135D+01
 Iteration Nr.  11
 **********************
 DD1Dir will call FoFMem   1 times, MxPair=       156
 NAB=    78 NAA=     0 NBB=     0.
 DE(Corr)= -0.75820442     E(CORR)=     -1355.1842286     Delta=-6.89D-07
 NORM(A)=   0.11535145D+01
 Iteration Nr.  12
 **********************
 DD1Dir will call FoFMem   1 times, MxPair=       156
 NAB=    78 NAA=     0 NBB=     0.
 DE(Corr)= -0.75820464     E(CORR)=     -1355.1842288     Delta=-2.25D-07
 NORM(A)=   0.11535153D+01
 Iteration Nr.  13
 **********************
 DD1Dir will call FoFMem   1 times, MxPair=       156
 NAB=    78 NAA=     0 NBB=     0.
 DE(Corr)= -0.75820493     E(CORR)=     -1355.1842291     Delta=-2.88D-07
 NORM(A)=   0.11535158D+01
 Iteration Nr.  14
 **********************
 DD1Dir will call FoFMem   1 times, MxPair=       156
 NAB=    78 NAA=     0 NBB=     0.
 DE(Corr)= -0.75820496     E(CORR)=     -1355.1842292     Delta=-2.87D-08
 NORM(A)=   0.11535160D+01
 Iteration Nr.  15
 **********************
 DD1Dir will call FoFMem   1 times, MxPair=       156
 NAB=    78 NAA=     0 NBB=     0.
 DE(Corr)= -0.75820501     E(CORR)=     -1355.1842292     Delta=-5.52D-08
 NORM(A)=   0.11535161D+01
 Iteration Nr.  16
 **********************
 DD1Dir will call FoFMem   1 times, MxPair=       156
 NAB=    78 NAA=     0 NBB=     0.
 DE(Corr)= -0.75820502     E(CORR)=     -1355.1842292     Delta=-1.18D-08
 NORM(A)=   0.11535161D+01
 Iteration Nr.  17
 **********************
 DD1Dir will call FoFMem   1 times, MxPair=       156
 NAB=    78 NAA=     0 NBB=     0.
 DE(Corr)= -0.75820503     E(CORR)=     -1355.1842292     Delta=-5.41D-10
 NORM(A)=   0.11535161D+01
 Iteration Nr.  18
 **********************
 DD1Dir will call FoFMem   1 times, MxPair=       156
 NAB=    78 NAA=     0 NBB=     0.
 DE(Corr)= -0.75820503     E(CORR)=     -1355.1842292     Delta=-4.49D-09
 NORM(A)=   0.11535161D+01
 Iteration Nr.  19
 **********************
 DD1Dir will call FoFMem   1 times, MxPair=       156
 NAB=    78 NAA=     0 NBB=     0.
 DE(Corr)= -0.75820503     E(CORR)=     -1355.1842292     Delta= 2.32D-09
 NORM(A)=   0.11535161D+01
 Largest amplitude= 8.91D-02

 Z-AMPLITUDE ITERATIONS

 Iteration Nr.   1
 **********************
 DD1Dir will call FoFMem   1 times, MxPair=       156
 NAB=    78 NAA=     0 NBB=     0.
 DE(Z)  -0.72636087D+00          E(Z)=    -0.13551523851D+04
 NORM(A)=   0.11535169D+01
 Iteration Nr.   2
 **********************
 DD1Dir will call FoFMem   1 times, MxPair=       156
 NAB=    78 NAA=     0 NBB=     0.
 DE(Z)  -0.72636089D+00          E(Z)=    -0.13551523851D+04
 NORM(A)=   0.11535161D+01
 Iteration Nr.   3
 **********************
 DD1Dir will call FoFMem   1 times, MxPair=       156
 NAB=    78 NAA=     0 NBB=     0.
 DE(Z)  -0.72636087D+00          E(Z)=    -0.13551523851D+04
 NORM(A)=   0.11535161D+01
 Iteration Nr.   4
 **********************
 DD1Dir will call FoFMem   1 times, MxPair=       156
 NAB=    78 NAA=     0 NBB=     0.
 DE(Z)  -0.72636087D+00          E(Z)=    -0.13551523851D+04
 NORM(A)=   0.11535161D+01
 Iteration Nr.   5
 **********************
 DD1Dir will call FoFMem   1 times, MxPair=       156
 NAB=    78 NAA=     0 NBB=     0.
 DE(Z)  -0.72636087D+00          E(Z)=    -0.13551523851D+04
 NORM(A)=   0.11404543D+01
 Iteration Nr.   6
 **********************
 DD1Dir will call FoFMem   1 times, MxPair=       156
 NAB=    78 NAA=     0 NBB=     0.
 DE(Z)  -0.72600388D+00          E(Z)=    -0.13551520281D+04
 NORM(A)=   0.11403567D+01
 Iteration Nr.   7
 **********************
 DD1Dir will call FoFMem   1 times, MxPair=       156
 NAB=    78 NAA=     0 NBB=     0.
 DE(Z)  -0.72598838D+00          E(Z)=    -0.13551520126D+04
 NORM(A)=   0.11402971D+01
 Iteration Nr.   8
 **********************
 DD1Dir will call FoFMem   1 times, MxPair=       156
 NAB=    78 NAA=     0 NBB=     0.
 DE(Z)  -0.72597329D+00          E(Z)=    -0.13551519975D+04
 NORM(A)=   0.11402782D+01
 Iteration Nr.   9
 **********************
 DD1Dir will call FoFMem   1 times, MxPair=       156
 NAB=    78 NAA=     0 NBB=     0.
 DE(Z)  -0.72597490D+00          E(Z)=    -0.13551519991D+04
 NORM(A)=   0.11402772D+01
 Iteration Nr.  10
 **********************
 DD1Dir will call FoFMem   1 times, MxPair=       156
 NAB=    78 NAA=     0 NBB=     0.
 DE(Z)  -0.72597350D+00          E(Z)=    -0.13551519977D+04
 NORM(A)=   0.11402769D+01
 Iteration Nr.  11
 **********************
 DD1Dir will call FoFMem   1 times, MxPair=       156
 NAB=    78 NAA=     0 NBB=     0.
 DE(Z)  -0.72597421D+00          E(Z)=    -0.13551519984D+04
 NORM(A)=   0.11402776D+01
 Iteration Nr.  12
 **********************
 DD1Dir will call FoFMem   1 times, MxPair=       156
 NAB=    78 NAA=     0 NBB=     0.
 DE(Z)  -0.72597423D+00          E(Z)=    -0.13551519984D+04
 NORM(A)=   0.11402781D+01
 Iteration Nr.  13
 **********************
 DD1Dir will call FoFMem   1 times, MxPair=       156
 NAB=    78 NAA=     0 NBB=     0.
 DE(Z)  -0.72597413D+00          E(Z)=    -0.13551519983D+04
 NORM(A)=   0.11402782D+01
 Iteration Nr.  14
 **********************
 DD1Dir will call FoFMem   1 times, MxPair=       156
 NAB=    78 NAA=     0 NBB=     0.
 DE(Z)  -0.72597427D+00          E(Z)=    -0.13551519985D+04
 NORM(A)=   0.11402782D+01
 Iteration Nr.  15
 **********************
 DD1Dir will call FoFMem   1 times, MxPair=       156
 NAB=    78 NAA=     0 NBB=     0.
 DE(Z)  -0.72597419D+00          E(Z)=    -0.13551519984D+04
 NORM(A)=   0.11402782D+01
 Iteration Nr.  16
 **********************
 DD1Dir will call FoFMem   1 times, MxPair=       156
 NAB=    78 NAA=     0 NBB=     0.
 DE(Z)  -0.72597421D+00          E(Z)=    -0.13551519984D+04
 NORM(A)=   0.11402782D+01
 Iteration Nr.  17
 **********************
 DD1Dir will call FoFMem   1 times, MxPair=       156
 NAB=    78 NAA=     0 NBB=     0.
 DE(Z)  -0.72597421D+00          E(Z)=    -0.13551519984D+04
 NORM(A)=   0.11402781D+01
 Iteration Nr.  18
 **********************
 DD1Dir will call FoFMem   1 times, MxPair=       156
 NAB=    78 NAA=     0 NBB=     0.
 DE(Z)  -0.72597420D+00          E(Z)=    -0.13551519984D+04
 NORM(A)=   0.11402781D+01
 Iteration Nr.  19
 **********************
 DD1Dir will call FoFMem   1 times, MxPair=       156
 NAB=    78 NAA=     0 NBB=     0.
 DE(Z)  -0.72597421D+00          E(Z)=    -0.13551519984D+04
 NORM(A)=   0.11402781D+01
 Iteration Nr.  20
 **********************
 DD1Dir will call FoFMem   1 times, MxPair=       156
 NAB=    78 NAA=     0 NBB=     0.
 DE(Z)  -0.72597421D+00          E(Z)=    -0.13551519984D+04
 NORM(A)=   0.11402781D+01
 Iteration Nr.  21
 **********************
 DD1Dir will call FoFMem   1 times, MxPair=       156
 NAB=    78 NAA=     0 NBB=     0.
 DE(Z)  -0.72597421D+00          E(Z)=    -0.13551519984D+04
 NORM(A)=   0.11402781D+01
 Iteration Nr.  22
 **********************
 DD1Dir will call FoFMem   1 times, MxPair=       156
 NAB=    78 NAA=     0 NBB=     0.
 DE(Z)  -0.72597420D+00          E(Z)=    -0.13551519984D+04
 NORM(A)=   0.11402781D+01
 Discarding MO integrals.
          IDoAtm=1111
          Differentiating once with respect to electric field.
                with respect to dipole field.
          Differentiating once with respect to nuclear coordinates.
          Keep R1 ints in memory in canonical form, NReq=367211145.
          There are     1 degrees of freedom in the 1st order CPHF.  IDoFFX=0.
 LinEq1:  Iter=  0 NonCon=     1 RMS=2.08D-03 Max=6.35D-02
 AX will form     1 AO Fock derivatives at one time.
 LinEq1:  Iter=  1 NonCon=     1 RMS=9.28D-04 Max=1.77D-02
 LinEq1:  Iter=  2 NonCon=     1 RMS=4.11D-04 Max=1.02D-02
 LinEq1:  Iter=  3 NonCon=     1 RMS=1.04D-04 Max=1.79D-03
 LinEq1:  Iter=  4 NonCon=     1 RMS=2.44D-05 Max=8.02D-04
 LinEq1:  Iter=  5 NonCon=     1 RMS=7.98D-06 Max=1.97D-04
 LinEq1:  Iter=  6 NonCon=     1 RMS=2.41D-06 Max=8.99D-05
 LinEq1:  Iter=  7 NonCon=     1 RMS=7.34D-07 Max=1.30D-05
 LinEq1:  Iter=  8 NonCon=     1 RMS=1.36D-07 Max=2.09D-06
 LinEq1:  Iter=  9 NonCon=     1 RMS=2.58D-08 Max=3.74D-07
 LinEq1:  Iter= 10 NonCon=     1 RMS=6.84D-09 Max=1.78D-07
 LinEq1:  Iter= 11 NonCon=     1 RMS=1.41D-09 Max=2.30D-08
 LinEq1:  Iter= 12 NonCon=     1 RMS=3.21D-10 Max=5.47D-09
 LinEq1:  Iter= 13 NonCon=     0 RMS=7.00D-11 Max=8.85D-10
 Linear equations converged to 1.000D-10 1.000D-09 after    13 iterations.
 End of Minotr Frequency-dependent properties file   721 does not exist.
 End of Minotr Frequency-dependent properties file   722 does not exist.

 **********************************************************************

            Population analysis using the QCI/CC density.

 **********************************************************************

 Alpha  occ. eigenvalues -- -104.88760-104.88760 -91.97803 -11.44947 -10.61161
 Alpha  occ. eigenvalues --  -10.61160  -8.98098  -8.07837  -8.07837  -8.07627
 Alpha  occ. eigenvalues --   -8.07627  -8.07609  -8.07609  -6.66177  -6.66076
 Alpha  occ. eigenvalues --   -6.65927  -1.24302  -1.13392  -1.03990  -0.77141
 Alpha  occ. eigenvalues --   -0.64464  -0.60874  -0.58609  -0.50420  -0.49587
 Alpha  occ. eigenvalues --   -0.47765  -0.40764  -0.38099
 Alpha virt. eigenvalues --    0.01760   0.04856   0.06332   0.06897   0.10063
 Alpha virt. eigenvalues --    0.10090   0.10371   0.11213   0.11750   0.12854
 Alpha virt. eigenvalues --    0.15154   0.15353   0.16225   0.16375   0.16490
 Alpha virt. eigenvalues --    0.21180   0.21719   0.23253   0.26519   0.27059
 Alpha virt. eigenvalues --    0.28118   0.28928   0.30184   0.34377   0.34861
 Alpha virt. eigenvalues --    0.37877   0.38933   0.39844   0.40243   0.42246
 Alpha virt. eigenvalues --    0.44427   0.45461   0.45563   0.46237   0.48088
 Alpha virt. eigenvalues --    0.49027   0.50285   0.50805   0.54002   0.55294
 Alpha virt. eigenvalues --    0.56213   0.65320   0.65629   0.65718   0.70996
 Alpha virt. eigenvalues --    0.72510   0.73109   0.73863   0.74079   0.78494
 Alpha virt. eigenvalues --    0.79058   0.80258   0.80275   0.81677   0.83098
 Alpha virt. eigenvalues --    0.83342   0.86689   0.87415   0.88433   0.88569
 Alpha virt. eigenvalues --    0.91106   0.91959   0.92632   0.94725   0.95506
 Alpha virt. eigenvalues --    0.95819   0.97616   1.02013   1.03169   1.07833
 Alpha virt. eigenvalues --    1.11090   1.11514   1.12001   1.12845   1.17963
 Alpha virt. eigenvalues --    1.18693   1.20913   1.22829   1.28724   1.29513
 Alpha virt. eigenvalues --    1.31233   1.36191   1.39571   1.40412   1.47638
 Alpha virt. eigenvalues --    1.48640   1.52267   1.52913   1.53890   1.54889
 Alpha virt. eigenvalues --    1.61669   1.66293   1.68900   1.71151   1.71555
 Alpha virt. eigenvalues --    1.75233   1.83364   1.83388   1.85289   1.87496
 Alpha virt. eigenvalues --    1.87989   1.90012   1.98031   2.07241   2.07821
 Alpha virt. eigenvalues --    2.14159   2.17560   2.32367   2.32861   2.39128
 Alpha virt. eigenvalues --    2.39355   2.42975   2.44613   2.47256   2.47878
 Alpha virt. eigenvalues --    2.47946   2.53063   2.58186   2.58492   2.59934
 Alpha virt. eigenvalues --    2.60067   2.62400   2.64100   2.65267   2.65388
 Alpha virt. eigenvalues --    2.69601   2.83276   2.83813   2.87505   2.89441
 Alpha virt. eigenvalues --    2.90956   3.02688   3.02824   3.04866   3.05402
 Alpha virt. eigenvalues --    3.05451   3.07611   3.09584   3.13285   3.13426
 Alpha virt. eigenvalues --    3.14095   3.14858   3.19505   3.21572   3.23256
 Alpha virt. eigenvalues --    3.23771   3.35837   3.46757   3.55114   3.64704
 Alpha virt. eigenvalues --    3.70159   3.70644   3.72680   3.76524   3.84465
 Alpha virt. eigenvalues --    3.89288   3.91054   3.96937   4.13458   4.14771
 Alpha virt. eigenvalues --    4.20296   4.24063   4.70573   4.76722   6.45383
 Alpha virt. eigenvalues --    7.21372   7.27058   9.77167
          Condensed to atoms (all electrons):
              1          2          3          4
     1  C    5.673232   0.071284   0.071284   0.179126
     2  Cl   0.071284  17.191991  -0.119038  -0.128558
     3  Cl   0.071284  -0.119038  17.191991  -0.128558
     4  S    0.179126  -0.128558  -0.128558  16.051706
 Mulliken atomic charges:
              1
     1  C    0.005073
     2  Cl  -0.015679
     3  Cl  -0.015679
     4  S    0.026284
 Sum of Mulliken atomic charges =   0.00000
 Mulliken charges with hydrogens summed into heavy atoms:
              1
     1  C    0.005073
     2  Cl  -0.015679
     3  Cl  -0.015679
     4  S    0.026284
 Sum of Mulliken charges with hydrogens summed into heavy atoms =   0.00000
 Electronic spatial extent (au):  <R**2>=            690.6769
[...]
 OrtVCM:  IS=    1 I=    2 IndO=    8 Dot= 8.94D-01 DotN= 8.94D-01 ElMax1= 8.94D-01 ElMax1N= 8.94D-01
 OrtVCM:  Ph=2 NNew=    0 IAdd=    3 IPass= 1 DotMx2= 0.00D+00
 OrtVCM:  IS=    1 I=    3 IndO=    9 Dot= 8.95D-01 DotN= 8.95D-01 ElMax1= 8.95D-01 ElMax1N= 8.95D-01
 OrtVCM:  Ph=2 NNew=    0 IAdd=    4 IPass= 1 DotMx2= 1.72D-01
 OrtVCM:  Ph=2 NNew=    0 IAdd=    4 IPass= 2 DotMx2= 6.30D-17
 OrtVCM:  IS=    1 I=    4 IndO=    0 Dot= 1.50D-34 DotN= 1.50D-34 ElMax1= 7.01D-18 ElMax1N= 7.01D-18
 OrtVCM:  Ph=2 NNew=    0 IAdd=    5 IPass= 1 DotMx2= 1.81D-01
 OrtVCM:  Ph=2 NNew=    0 IAdd=    5 IPass= 2 DotMx2= 0.00D+00
 OrtVCM:  IS=    1 I=    5 IndO=   10 Dot= 5.78D-01 DotN= 5.78D-01 ElMax1= 5.78D-01 ElMax1N= 5.78D-01
 OrtVCM:  Ph=2 NNew=    0 IAdd=    6 IPass= 1 DotMx2= 1.90D-01
 OrtVCM:  Ph=2 NNew=    0 IAdd=    6 IPass= 2 DotMx2= 3.47D-17
 OrtVCM:  IS=    1 I=    6 IndO=   11 Dot= 3.76D-01 DotN= 3.76D-01 ElMax1= 3.76D-01 ElMax1N= 3.76D-01
 SchOr2:  IPass= 1 Test2A= 1.00D-01 IOff=     0 NDo=     6 NNew=     5
 OrtVCM:  Ph=1 IPass= 1 DotMx1= 7.07D-01
 OrtVCM:  Ph=1 IPass= 2 DotMx1= 1.79D-16
 OrtVCM:  IS=    1 I=    1 IndO=    0 Dot= 5.50D-63 DotN= 5.50D-63 ElMax1= 5.24D-32 ElMax1N= 5.24D-32
 SchOr2:  IPass= 1 Test2A= 1.00D-01 IOff=     6 NDo=     1 NNew=     0
 OrtVCM:  Ph=1 IPass= 1 DotMx1= 5.56D-01
 OrtVCM:  Ph=1 IPass= 2 DotMx1= 2.01D-16
 OrtVCM:  IS=    1 I=    1 IndO=   12 Dot= 1.12D-01 DotN= 1.12D-01 ElMax1= 2.12D-01 ElMax1N= 2.12D-01
 SchOr2:  IPass= 1 Test2A= 1.00D-01 IOff=     7 NDo=     1 NNew=     1
 VibFq2-Diag2:  N=      6 IV=           5 MDV=  1073662928 NE2=   178943820
 Dipole derivatives wrt mode   1:  4.15217D-06  3.08664D-05  2.31844D-01
 Vibrational polarizability contributions from mode   1       0.0000000       0.0000000       0.0163754
 Vibrational hyperpolarizability contributions from mode   1       0.0000000       0.0000000       0.0000000
 Dipole derivatives wrt mode   2:  2.31904D-09  5.90996D-03  2.81441D-04
 Vibrational polarizability contributions from mode   2       0.0000000       0.0000100       0.0000000
 Vibrational hyperpolarizability contributions from mode   2       0.0000000       0.0000000       0.0000000
 Dipole derivatives wrt mode   3: -1.05690D+00 -1.37772D-07 -1.91961D-03
 Vibrational polarizability contributions from mode   3       0.1309842       0.0000000       0.0000004
 Vibrational hyperpolarizability contributions from mode   3       0.0000000       0.0000000       0.0000000
 Dipole derivatives wrt mode   4: -2.95437D-04  4.84712D-04  3.98015D+00
 Vibrational polarizability contributions from mode   4       0.0000000       0.0000000       1.6259619
 Vibrational hyperpolarizability contributions from mode   4       0.0000000       0.0000000       0.0000000
 Dipole derivatives wrt mode   5: -1.09892D-10  1.40202D+01  1.05771D-03
 Vibrational polarizability contributions from mode   5       0.0000000       7.4889921       0.0000000
 Vibrational hyperpolarizability contributions from mode   5       0.0000000       0.0000000       0.0000000
 Dipole derivatives wrt mode   6: -1.16817D-06 -5.98274D-06  1.68585D+01
 Vibrational polarizability contributions from mode   6       0.0000000       0.0000000       5.5656801
 Vibrational hyperpolarizability contributions from mode   6       0.0000000       0.0000000       0.0000000
 Diagonal vibrational polarizability:
        0.1309842       7.4890022       7.2080179
 NorSel:  MapVib=      1      2      3      4      5      6
 Harmonic frequencies (cm**-1), IR intensities (KM/Mole), Raman scattering
 activities (A**4/AMU), depolarization ratios for plane and unpolarized
 incident light, reduced masses (AMU), force constants (mDyne/A),
 and normal coordinates:
                           1         2         3         4         5
                           A         A         A         A         A
       Frequencies ---   297.2129  305.8448  479.0594  512.0477  840.4460
    Reduced masses ---    31.0121   30.8829   12.8874   31.9231   13.3779
   Force constants ---     1.6140    1.7020    1.7426    4.9315    5.5675
    IR Intensities ---     0.0538    0.0000    1.1170   15.8416  196.5667
 Coord Atom Element:
   1     1     6         -0.00001   0.00000   0.97920   0.00043   0.00000
   2     1     6          0.00002   0.36117   0.00000   0.00004   0.96945
   3     1     6          0.38364  -0.00001  -0.00005   0.29772  -0.00001
   1     2    17          0.00000   0.00000  -0.10439  -0.00005   0.00000
   2     2    17          0.50927   0.21367   0.00008  -0.43250  -0.14971
   3     2    17         -0.26627   0.45529   0.00006  -0.31647  -0.08369
   1     3    17          0.00000   0.00000  -0.10439  -0.00005   0.00000
   2     3    17         -0.50925   0.21374  -0.00008   0.43247  -0.14973
   3     3    17         -0.26632  -0.45528   0.00006  -0.31645   0.08370
   1     4    16          0.00000   0.00000  -0.13917  -0.00006   0.00000
   2     4    16         -0.00003  -0.60303   0.00000   0.00001  -0.03636
   3     4    16          0.43853  -0.00001  -0.00010   0.58051  -0.00001
                           6
                           A
       Frequencies ---  1172.2667
    Reduced masses ---    13.6765
   Force constants ---    11.0733
    IR Intensities ---   284.2091
 Coord Atom Element:
   1     1     6          0.00000
   2     1     6          0.00000
   3     1     6          0.95748
   1     2    17          0.00000
   2     2    17         -0.03237
   3     2    17         -0.03619
   1     3    17          0.00000
   2     3    17          0.03237
   3     3    17         -0.03619
   1     4    16          0.00000
   2     4    16          0.00000
   3     4    16         -0.28021
 Harmonic frequencies (cm**-1), IR intensities (KM/Mole), Raman scattering
 activities (A**4/AMU), depolarization ratios for plane and unpolarized
 incident light, reduced masses (AMU), force constants (mDyne/A),
 and normal coordinates:
                     1                      2                      3
                     A                      A                      A
 Frequencies --   297.2129               305.8448               479.0594
 Red. masses --    31.0121                30.8829                12.8874
 Frc consts  --     1.6140                 1.7020                 1.7426
 IR Inten    --     0.0538                 0.0000                 1.1170
  Atom  AN      X      Y      Z        X      Y      Z        X      Y      Z
     1   6     0.00   0.00   0.38     0.00   0.36   0.00     0.98   0.00   0.00
     2  17     0.00   0.51  -0.27     0.00   0.21   0.46    -0.10   0.00   0.00
     3  17     0.00  -0.51  -0.27     0.00   0.21  -0.46    -0.10   0.00   0.00
     4  16     0.00   0.00   0.44     0.00  -0.60   0.00    -0.14   0.00   0.00
                     4                      5                      6
                     A                      A                      A
 Frequencies --   512.0477               840.4460              1172.2667
 Red. masses --    31.9231                13.3779                13.6765
 Frc consts  --     4.9315                 5.5675                11.0733
 IR Inten    --    15.8416               196.5667               284.2091
  Atom  AN      X      Y      Z        X      Y      Z        X      Y      Z
     1   6     0.00   0.00   0.30     0.00   0.97   0.00     0.00   0.00   0.96
     2  17     0.00  -0.43  -0.32     0.00  -0.15  -0.08     0.00  -0.03  -0.04
     3  17     0.00   0.43  -0.32     0.00  -0.15   0.08     0.00   0.03  -0.04
     4  16     0.00   0.00   0.58     0.00  -0.04   0.00     0.00   0.00  -0.28

 -------------------
 - Thermochemistry -
 -------------------
 Temperature   298.150 Kelvin.  Pressure   1.00000 Atm.
 Atom     1 has atomic number  6 and mass  12.00000
 Atom     2 has atomic number 17 and mass  34.96885
 Atom     3 has atomic number 17 and mass  34.96885
 Atom     4 has atomic number 16 and mass  31.97207
 Molecular mass:   113.90978 amu.
 Principal axes and moments of inertia in atomic units:
                           1         2         3
     Eigenvalues --   511.24317 523.735661034.97883
           X            0.00000   0.00000   1.00000
           Y            0.00000   1.00000   0.00000
           Z            1.00000   0.00000   0.00000
 This molecule is an asymmetric top.
 Rotational symmetry number  2.
 Warning -- assumption of classical behavior for rotation
           may cause significant error
 Rotational temperatures (Kelvin)      0.16942     0.16538     0.08369
 Rotational constants (GHZ):           3.53010     3.44590     1.74375
 Zero-point vibrational energy      21573.9 (Joules/Mol)
                                    5.15629 (Kcal/Mol)
 Warning -- explicit consideration of   4 degrees of freedom as
           vibrations may cause significant error
 Vibrational temperatures:    427.62   440.04   689.26   736.72  1209.21
          (Kelvin)           1686.63
 
 Zero-point correction=                           0.008217 (Hartree/Particle)
 Thermal correction to Energy=                    0.012428
 Thermal correction to Enthalpy=                  0.013372
 Thermal correction to Gibbs Free Energy=        -0.019996
 Sum of electronic and zero-point Energies=          -1355.176012
 Sum of electronic and thermal Energies=             -1355.171802
 Sum of electronic and thermal Enthalpies=           -1355.170857
 Sum of electronic and thermal Free Energies=        -1355.204226
 
                     E (Thermal)             CV                S
                      KCal/Mol        Cal/Mol-Kelvin    Cal/Mol-Kelvin
 Total                    7.799             12.633             70.229
 Electronic               0.000              0.000              0.000
 Translational            0.889              2.981             40.106
 Rotational               0.889              2.981             25.741
 Vibrational              6.021              6.671              4.382
 Vibration     1          0.691              1.679              1.433
 Vibration     2          0.696              1.663              1.385
 Vibration     3          0.835              1.297              0.713
 Vibration     4          0.867              1.223              0.629
                       Q            Log10(Q)             Ln(Q)
 Total Bot       0.157598D+10          9.197550         21.178142
 Total V=0       0.948708D+13         12.977132         29.880952
 Vib (Bot)       0.350027D-03         -3.455899         -7.957501
 Vib (Bot)    1  0.640867D+00         -0.193232         -0.444933
 Vib (Bot)    2  0.619748D+00         -0.207785         -0.478443
 Vib (Bot)    3  0.349396D+00         -0.456682         -1.051549
 Vib (Bot)    4  0.317524D+00         -0.498223         -1.147201
 Vib (V=0)       0.210709D+01          0.323684          0.745309
 Vib (V=0)    1  0.131284D+01          0.118212          0.272194
 Vib (V=0)    2  0.129630D+01          0.112704          0.259511
 Vib (V=0)    3  0.110998D+01          0.045316          0.104344
 Vib (V=0)    4  0.109230D+01          0.038343          0.088287
 Electronic      0.100000D+01          0.000000          0.000000
 Translational   0.477856D+08          7.679297         17.682234
 Rotational      0.942219D+05          4.974152         11.453408
 -------------------------------------------------------------------
 Center     Atomic                   Forces (Hartrees/Bohr)
 Number     Number              X              Y              Z
 -------------------------------------------------------------------
      1        6           0.000000000    0.000000000   -0.000423928
      2       17           0.000000000    0.000024906    0.000086805
      3       17           0.000000000   -0.000024906    0.000086805
      4       16           0.000000000    0.000000000    0.000250318
 -------------------------------------------------------------------
 Cartesian Forces:  Max     0.000423928 RMS     0.000146823
 Z-matrix is all fixed cartesians, so copy forces.
 Force constants in Cartesian coordinates: 
                1             2             3             4             5 
      1  0.930546D-01
      2  0.000000D+00  0.272578D+00
      3  0.184091D-05 -0.170295D-05  0.508234D+00
      4 -0.289475D-01  0.000000D+00 -0.109380D-05  0.901090D-02
      5 -0.362132D-05 -0.118003D+00 -0.574175D-01  0.322502D-05  0.171331D+00
      6 -0.305405D-05 -0.600740D-01 -0.721947D-01  0.272885D-05  0.838261D-01
      7 -0.289475D-01  0.000000D+00  0.000000D+00  0.899284D-02  0.321616D-05
      8  0.362119D-05 -0.118014D+00  0.574165D-01 -0.325609D-05 -0.489656D-01
      9 -0.305412D-05  0.600832D-01 -0.721959D-01  0.274923D-05 -0.465136D-02
     10 -0.351567D-01  0.000000D+00  0.439485D-05  0.109470D-01 -0.778372D-05
     11  0.000000D+00 -0.365480D-01  0.000000D+00  0.000000D+00 -0.436127D-02
     12  0.426727D-05 -0.750673D-05 -0.363852D+00 -0.438427D-05 -0.217656D-01
                6             7             8             9            10 
      6  0.996809D-01
      7  0.270110D-05  0.901090D-02
      8  0.465187D-02 -0.318506D-05  0.171330D+00
      9  0.731910D-02  0.268058D-05 -0.838264D-01  0.996818D-01
     10 -0.675997D-05  0.109470D-01  0.778351D-05 -0.675968D-05  0.132534D-01
     11 -0.283971D-01  0.000000D+00 -0.436125D-02  0.283970D-01  0.000000D+00
     12 -0.348040D-01 -0.465151D-05  0.217665D-01 -0.348037D-01  0.912485D-05
               11            12 
     11  0.452658D-01
     12  0.000000D+00  0.433466D+00
 Final forces over variables, Energy=-1.35518423D+03:
  2.34604653D-13-6.07010087D-14-4.31411459D-14-1.30762498D-13
 -2.66922544D-12 2.49064813D-05-2.49064795D-05 8.31357724D-13
 -4.23928157D-04 8.68050173D-05 8.68050180D-05 2.50318122D-04

 GradGradGradGradGradGradGradGradGradGradGradGradGradGradGradGradGradGrad
 Berny optimization.
 Search for a local minimum.
 Step number   1 out of a maximum of    2
 All quantities printed in internal units (Hartrees-Bohrs-Radians)
 Second derivative matrix not updated -- analytic derivatives used.
 The second derivative matrix:
                          X1        Y1        Z1        X2        Y2
           X1           0.09305
           Y1           0.00000   0.27258
           Z1           0.00000   0.00000   0.50823
           X2          -0.02895   0.00000   0.00000   0.00901
           Y2           0.00000  -0.11800  -0.05742   0.00000   0.17133
           Z2           0.00000  -0.06007  -0.07219   0.00000   0.08383
           X3          -0.02895   0.00000   0.00000   0.00899   0.00000
           Y3           0.00000  -0.11801   0.05742   0.00000  -0.04897
           Z3           0.00000   0.06008  -0.07220   0.00000  -0.00465
           X4          -0.03516   0.00000   0.00000   0.01095  -0.00001
           Y4           0.00000  -0.03655   0.00000   0.00000  -0.00436
           Z4           0.00000  -0.00001  -0.36385   0.00000  -0.02177
                          Z2        X3        Y3        Z3        X4
           Z2           0.09968
           X3           0.00000   0.00901
           Y3           0.00465   0.00000   0.17133
           Z3           0.00732   0.00000  -0.08383   0.09968
           X4          -0.00001   0.01095   0.00001  -0.00001   0.01325
           Y4          -0.02840   0.00000  -0.00436   0.02840   0.00000
           Z4          -0.03480   0.00000   0.02177  -0.03480   0.00001
                          Y4        Z4
           Y4           0.04527
           Z4           0.00000   0.43347
 ITU=  0
     Eigenvalues ---    0.10412   0.10783   0.11992   0.32019   0.41126
     Eigenvalues ---    0.82182
 Angle between quadratic step and forces=  45.68 degrees.
 Linear search not attempted -- first point.
 TrRot=  0.000000  0.000000  0.000093  0.000000  0.000000  0.000000
 Variable       Old X    -DE/DX   Delta X   Delta X   Delta X     New X
                                 (Linear)    (Quad)   (Total)
    X1        0.00000   0.00000   0.00000   0.00000   0.00000   0.00000
    Y1        0.00000   0.00000   0.00000   0.00000   0.00000   0.00000
    Z1       -0.98816  -0.00042   0.00000  -0.00091  -0.00081  -0.98898
    X2        0.00000   0.00000   0.00000   0.00000   0.00000   0.00000
    Y2       -2.70370   0.00002   0.00000  -0.00026  -0.00026  -2.70396
    Z2       -2.83629   0.00009   0.00000   0.00034   0.00044  -2.83585
    X3        0.00000   0.00000   0.00000   0.00000   0.00000   0.00000
    Y3        2.70370  -0.00002   0.00000   0.00026   0.00026   2.70396
    Z3       -2.83629   0.00009   0.00000   0.00034   0.00044  -2.83585
    X4        0.00000   0.00000   0.00000   0.00000   0.00000   0.00000
    Y4        0.00000   0.00000   0.00000   0.00000   0.00000   0.00000
    Z4        2.04433   0.00025   0.00000  -0.00015  -0.00006   2.04427
         Item               Value     Threshold  Converged?
 Maximum Force            0.000424     0.000450     YES
 RMS     Force            0.000147     0.000300     YES
 Maximum Displacement     0.000813     0.001800     YES
 RMS     Displacement     0.000314     0.001200     YES
 Predicted change in Energy=-1.960509D-07
 Optimization completed.
    -- Stationary point found.
 GradGradGradGradGradGradGradGradGradGradGradGradGradGradGradGradGradGrad


 Test job not archived.
 1\1\GINC-TRAPISTA\Freq\RQCISD-FC\Aug-CC-pVTZ\C1Cl2S1\BRUNS\18-Nov-2021
 \0\\#freq=noraman qcisd/aug-cc-pvtz density=current iop(7/33=1) nosym 
 formcheck=forcecart\\cl2cs-frequencies\\0,1\C,0.,0.,-0.522914\Cl,0.,-1
 .430735,-1.5009\Cl,0.,1.430735,-1.5009\S,0.,0.,1.081815\\Version=EM64L
 -G09RevB.01\HF=-1354.4260244\MP2=-1355.1503984\MP3=-1355.1829985\MP4D=
 -1355.2047784\MP4DQ=-1355.1798923\MP4SDQ=-1355.1867155\QCISD=-1355.184
 2294\RMSD=9.618e-09\RMSF=1.468e-04\ZeroPoint=0.0082171\Thermal=0.01242
 78\Dipole=0.,0.,-0.1711892\DipoleDeriv=-0.1119006,0.,-0.0001045,0.,1.4
 277815,0.0001404,0.,0.,1.7642524,0.0523268,0.0000006,0.0000809,0.,-0.6
 334642,-0.4827474,0.,-0.3744418,-0.4468638,0.0523268,-0.0000006,0.0000
 818,0.,-0.6334645,0.4827485,0.,0.3744419,-0.4468265,0.0073252,0.,-0.00
 02053,0.,-0.160984,-0.0000051,0.,0.,-0.8705978\Quadrupole=-0.1179951,-
 0.2216731,0.3396682,0.,0.,0.\QuadrupoleDeriv=0.0004016,-0.0001343,-0.0
 002673,0.,-0.1537647,0.,-0.0006249,0.0002299,0.000395,0.,0.,-5.8114776
 ,1.6242496,-2.1768145,0.5525649,0.,0.,0.,-0.000392,0.0001412,0.0002507
 ,0.0188677,-0.0352041,-0.0000063,0.0118622,-0.3536428,0.3417806,0.,0.,
 1.956209,-0.0294985,0.8979725,-0.868474,0.,0.,0.4402858,-0.0003878,0.0
 00136,0.0002518,-0.0188677,-0.0352041,0.0000063,-0.0118625,0.3536451,-
 0.3417826,0.,0.,1.9562097,-0.0294636,0.8979451,-0.8684815,0.,0.,-0.440
 286,0.0008934,-0.0003341,-0.0005593,0.,0.0526267,0.,-0.0000051,0.00000
 98,-0.0000047,0.,0.,1.7291601,-1.4507986,0.4950777,0.9557209,0.,0.,0.\
 PG=C02V [C2(C1S1),SGV(Cl2)]\NImag=0\\0.09305456,0.,0.27257847,0.000001
 84,-0.00000170,0.50823400,-0.02894750,0.00000003,-0.00000109,0.0090109
 0,-0.00000362,-0.11800310,-0.05741752,0.00000323,0.17133091,-0.0000030
 5,-0.06007402,-0.07219465,0.00000273,0.08382607,0.09968091,-0.02894750
 ,-0.00000003,-0.00000073,0.00899284,0.00000322,0.00000270,0.00901090,0
 .00000362,-0.11801366,0.05741645,-0.00000326,-0.04896558,0.00465187,-0
 .00000319,0.17133049,-0.00000305,0.06008323,-0.07219586,0.00000275,-0.
 00465136,0.00731910,0.00000268,-0.08382639,0.09968176,-0.03515665,0.,0
 .00000439,0.01094696,-0.00000778,-0.00000676,0.01094696,0.00000778,-0.
 00000676,0.01325343,0.,-0.03654796,0.00000071,0.,-0.00436127,-0.028397
 10,0.,-0.00436125,0.02839698,0.,0.04526581,0.00000427,-0.00000751,-0.3
 6385199,-0.00000438,-0.02176557,-0.03480403,-0.00000465,0.02176645,-0.
 03480368,0.00000912,-0.00000059,0.43346555\\0.,0.,0.00042393,0.,-0.000
 02491,-0.00008681,0.,0.00002491,-0.00008681,0.,0.,-0.00025032\\\@


 ON A TOMBSTONE, "HERE LIES LESTER MOORE,
 FOUR SLUGS FROM A 44, NO LES, NO MORE".
 Job cpu time:  2 days 14 hours 17 minutes 36.4 seconds.
 File lengths (MBytes):  RWF=  18573 Int=      0 D2E=      0 Chk=     43 Scr=      1
 Normal termination of Gaussian 09 at Thu Nov 18 05:57:22 2021.
