 Entering Gaussian System, Link 0=/home/bruns/programas/chemistry/gaussian/g09/g09
 Input=./cl2cs/cl2cs-opt.com
 Output=./cl2cs/cl2cs-opt.log
 Initial command:
 /home/bruns/programas/chemistry/gaussian/g09/l1.exe /home/bruns/programas/chemistry/gaussian/work/Gau-43696.inp -scrdir=/home/bruns/programas/chemistry/gaussian/work/
 Entering Link 1 = /home/bruns/programas/chemistry/gaussian/g09/l1.exe PID=     43698.
  
 Copyright (c) 1988,1990,1992,1993,1995,1998,2003,2009,2010,
            Gaussian, Inc.  All Rights Reserved.
  
 This is part of the Gaussian(R) 09 program.  It is based on
 the Gaussian(R) 03 system (copyright 2003, Gaussian, Inc.),
 the Gaussian(R) 98 system (copyright 1998, Gaussian, Inc.),
 the Gaussian(R) 94 system (copyright 1995, Gaussian, Inc.),
 the Gaussian 92(TM) system (copyright 1992, Gaussian, Inc.),
 the Gaussian 90(TM) system (copyright 1990, Gaussian, Inc.),
 the Gaussian 88(TM) system (copyright 1988, Gaussian, Inc.),
 the Gaussian 86(TM) system (copyright 1986, Carnegie Mellon
 University), and the Gaussian 82(TM) system (copyright 1983,
 Carnegie Mellon University). Gaussian is a federally registered
 trademark of Gaussian, Inc.
  
 This software contains proprietary and confidential information,
 including trade secrets, belonging to Gaussian, Inc.
  
 This software is provided under written license and may be
 used, copied, transmitted, or stored only in accord with that
 written license.
  
 The following legend is applicable only to US Government
 contracts under FAR:
  
                    RESTRICTED RIGHTS LEGEND
  
 Use, reproduction and disclosure by the US Government is
 subject to restrictions as set forth in subparagraphs (a)
 and (c) of the Commercial Computer Software - Restricted
 Rights clause in FAR 52.227-19.
  
 Gaussian, Inc.
 340 Quinnipiac St., Bldg. 40, Wallingford CT 06492
  
  
 ---------------------------------------------------------------
 Warning -- This program may not be used in any manner that
 competes with the business of Gaussian, Inc. or will provide
 assistance to any competitor of Gaussian, Inc.  The licensee
 of this program is prohibited from giving any competitor of
 Gaussian, Inc. access to this program.  By using this program,
 the user acknowledges that Gaussian, Inc. is engaged in the
 business of creating and licensing software in the field of
 computational chemistry and represents and warrants to the
 licensee that it is not a competitor of Gaussian, Inc. and that
 it will not use this program in any manner prohibited above.
 ---------------------------------------------------------------
  

 Cite this work as:
 Gaussian 09, Revision B.01,
 M. J. Frisch, G. W. Trucks, H. B. Schlegel, G. E. Scuseria, 
 M. A. Robb, J. R. Cheeseman, G. Scalmani, V. Barone, B. Mennucci, 
 G. A. Petersson, H. Nakatsuji, M. Caricato, X. Li, H. P. Hratchian, 
 A. F. Izmaylov, J. Bloino, G. Zheng, J. L. Sonnenberg, M. Hada, 
 M. Ehara, K. Toyota, R. Fukuda, J. Hasegawa, M. Ishida, T. Nakajima, 
 Y. Honda, O. Kitao, H. Nakai, T. Vreven, J. A. Montgomery, Jr., 
 J. E. Peralta, F. Ogliaro, M. Bearpark, J. J. Heyd, E. Brothers, 
 K. N. Kudin, V. N. Staroverov, T. Keith, R. Kobayashi, J. Normand, 
 K. Raghavachari, A. Rendell, J. C. Burant, S. S. Iyengar, J. Tomasi, 
 M. Cossi, N. Rega, J. M. Millam, M. Klene, J. E. Knox, J. B. Cross, 
 V. Bakken, C. Adamo, J. Jaramillo, R. Gomperts, R. E. Stratmann, 
 O. Yazyev, A. J. Austin, R. Cammi, C. Pomelli, J. W. Ochterski, 
 R. L. Martin, K. Morokuma, V. G. Zakrzewski, G. A. Voth, 
 P. Salvador, J. J. Dannenberg, S. Dapprich, A. D. Daniels, 
 O. Farkas, J. B. Foresman, J. V. Ortiz, J. Cioslowski, 
 and D. J. Fox, Gaussian, Inc., Wallingford CT, 2010.
 
 ******************************************
 Gaussian 09:  EM64L-G09RevB.01 12-Aug-2010
                17-Nov-2021 
 ******************************************
 %nproc=8
 Will use up to    8 processors via shared memory.
 %mem=8GB
 --------------------------------------------
 #opt qcisd/aug-cc-pvtz density=current nosym
 --------------------------------------------
 1/18=20,19=15,38=1/1,3;
 2/9=110,12=2,15=1,17=6,18=5,40=1/2;
 3/5=16,6=1,7=10,11=9,16=1,25=1,30=1,71=1/1,2,3;
 4//1;
 5/5=2,38=5/2;
 8/6=4,9=120000,10=1/1,4;
 9/5=8,15=1/13;
 11/28=-7,29=200,31=1,42=3/11;
 10/5=6,31=1/2;
 6/7=2,8=2,9=2,10=2,22=-1/1;
 7/12=7,30=1/1,2,3,16;
 1/18=20,19=15/3(2);
 2/9=110,15=1/2;
 99//99;
 2/9=110,15=1/2;
 3/5=16,6=1,7=10,11=9,16=1,25=1,30=1,71=1/1,2,3;
 4/5=5,16=3/1;
 5/5=2,38=5/2;
 8/6=4,9=120000,10=1/1,4;
 9/5=8,15=1/13;
 11/28=-7,29=200,31=1,42=3/11;
 10/5=6,31=1/2;
 7/12=7,30=1/1,2,3,16;
 1/18=20,19=15/3(-9);
 2/9=110,15=1/2;
 6/7=2,8=2,9=2,10=2,22=-1/1;
 99//99;
 -----
 cl2cs
 -----
 Symbolic Z-matrix:
 Charge =  0 Multiplicity = 1
 C                     0.        0.       -0.56233 
 Cl                    0.       -1.5242   -1.44233 
 Cl                    0.        1.5242   -1.44233 
 S                     0.        0.        1.00408 
 

 GradGradGradGradGradGradGradGradGradGradGradGradGradGradGradGradGradGrad
 Berny optimization.
 Initialization pass.
                           ----------------------------
                           !    Initial Parameters    !
                           ! (Angstroms and Degrees)  !
 --------------------------                            --------------------------
 ! Name  Definition              Value          Derivative Info.                !
 --------------------------------------------------------------------------------
 ! R1    R(1,2)                  1.76           estimate D2E/DX2                !
 ! R2    R(1,3)                  1.76           estimate D2E/DX2                !
 ! R3    R(1,4)                  1.5664         estimate D2E/DX2                !
 ! A1    A(2,1,3)              120.0            estimate D2E/DX2                !
 ! A2    A(2,1,4)              120.0            estimate D2E/DX2                !
 ! A3    A(3,1,4)              120.0            estimate D2E/DX2                !
 ! D1    D(2,1,4,3)            180.0            estimate D2E/DX2                !
 --------------------------------------------------------------------------------
 Trust Radius=3.00D-01 FncErr=1.00D-07 GrdErr=1.00D-07
 Number of steps in this run=     20 maximum allowed number of steps=    100.
 GradGradGradGradGradGradGradGradGradGradGradGradGradGradGradGradGradGrad

                          Input orientation:                          
 ---------------------------------------------------------------------
 Center     Atomic      Atomic             Coordinates (Angstroms)
 Number     Number       Type             X           Y           Z
 ---------------------------------------------------------------------
      1          6           0        0.000000    0.000000   -0.562325
      2         17           0        0.000000   -1.524205   -1.442325
      3         17           0        0.000000    1.524205   -1.442325
      4         16           0        0.000000    0.000000    1.004075
 ---------------------------------------------------------------------
                    Distance matrix (angstroms):
                    1          2          3          4
     1  C    0.000000
     2  Cl   1.760000   0.000000
     3  Cl   1.760000   3.048409   0.000000
     4  S    1.566400   2.882373   2.882373   0.000000
 Symmetry turned off by external request.
 Stoichiometry    CCl2S
 Framework group  C2V[C2(CS),SGV(Cl2)]
 Deg. of freedom     3
 Full point group                 C2V     NOp   4
 Rotational constants (GHZ):      3.8445620      3.1104213      1.7193726
 Standard basis: Aug-CC-pVTZ (5D, 7F)
 Integral buffers will be    131072 words long.
 Raffenetti 1 integral format.
 Two-electron integral symmetry is turned off.
   196 basis functions,   414 primitive gaussians,   232 cartesian basis functions
    28 alpha electrons       28 beta electrons
       nuclear repulsion energy       243.8094296389 Hartrees.
 NAtoms=    4 NActive=    4 NUniq=    4 SFac= 1.00D+00 NAtFMM=   50 NAOKFM=F Big=F
 One-electron integrals computed using PRISM.
 NBasis=   196 RedAO= T  NBF=   196
 NBsUse=   196 1.00D-06 NBFU=   196
 Harris functional with IExCor=  205 diagonalized for initial guess.
 ExpMin= 3.51D-02 ExpMax= 4.56D+05 ExpMxC= 1.44D+03 IAcc=3 IRadAn=         0 AccDes= 0.00D+00
 HarFok:  IExCor=  205 AccDes= 0.00D+00 IRadAn=         0 IDoV= 1
 ScaDFX=  1.000000  1.000000  1.000000  1.000000
 FoFCou: FMM=F IPFlag=           0 FMFlag=      100000 FMFlg1=           0
         NFxFlg=           0 DoJE=T BraDBF=F KetDBF=T FulRan=T
         Omega=  0.000000  0.000000  1.000000  0.000000  0.000000 ICntrl=     500 IOpCl=  0
         NMat0=    1 NMatS0=    1 NMatT0=    0 NMatD0=    1 NMtDS0=    0 NMtDT0=    0
         I1Cent=           4 NGrid=           0.
 Symmetry not used in FoFCou.
 Requested convergence on RMS density matrix=1.00D-08 within 128 cycles.
 Requested convergence on MAX density matrix=1.00D-06.
 Requested convergence on             energy=1.00D-06.
 No special actions if energy rises.
 Keep R1 ints in memory in canonical form, NReq=371777346.
 SCF Done:  E(RHF) =  -1354.42004909     A.U. after   13 cycles
             Convg  =    0.4308D-08             -V/T =  2.0001
 ExpMin= 3.51D-02 ExpMax= 4.56D+05 ExpMxC= 1.44D+03 IAcc=3 IRadAn=         5 AccDes= 0.00D+00
 HarFok:  IExCor=  205 AccDes= 0.00D+00 IRadAn=         5 IDoV=-2
 ScaDFX=  1.000000  1.000000  1.000000  1.000000
 DSYEVD returned Info=         101 IAlg= 4 N=    50 NDim=    50 NE2=    21472333 trying DSYEV.
 Range of M.O.s used for correlation:    17   196
 NBasis=   196 NAE=    28 NBE=    28 NFC=    16 NFV=     0
 NROrb=    180 NOA=    12 NOB=    12 NVA=   168 NVB=   168

 **** Warning!!: The largest alpha MO coefficient is  0.27688842D+02

 Semi-Direct transformation.
 ModeAB=           2 MOrb=            12 LenV=    1072680547
 LASXX=     33405819 LTotXX=    33405819 LenRXX=    33405819
 LTotAB=    33954012 MaxLAS=    58380480 LenRXY=    58380480
 NonZer=    66811638 LenScr=   100987392 LnRSAI=           0
 LnScr1=           0 LExtra=           0 Total=    192773691
 MaxDsk=          -1 SrtSym=           F ITran=            4
 JobTyp=0 Pass  1:  I=   1 to  12.
 (rs|ai) integrals will be sorted in core.
 Spin components of T(2) and E(2):
     alpha-alpha T2 =       0.3924138241D-01 E2=     -0.9329149165D-01
     alpha-beta  T2 =       0.2065863659D+00 E2=     -0.5366486598D+00
     beta-beta   T2 =       0.3924138241D-01 E2=     -0.9329149165D-01
 ANorm=    0.1133608897D+01
 E2 =    -0.7232316431D+00 EUMP2 =    -0.13551432807336D+04
 R2 and R3 integrals will be kept in memory, NReq=   736864364.
 Iterations=  50 Convergence= 0.100D-07
 Iteration Nr.   1
 **********************
 DD1Dir will call FoFMem   1 times, MxPair=       156
 NAB=    78 NAA=     0 NBB=     0.
 MP4(R+Q)=  0.24748640D-01
 E3=       -0.33445701D-01        EUMP3=      -0.13551767264D+04
 E4(DQ)=    0.30724583D-02        UMP4(DQ)=   -0.13551736540D+04
 E4(SDQ)=  -0.34439737D-02        UMP4(SDQ)=  -0.13551801704D+04
 DE(Corr)= -0.73192870     E(Corr)=     -1355.1519778    
 NORM(A)=   0.11378886D+01
 Iteration Nr.   2
 **********************
 DD1Dir will call FoFMem   1 times, MxPair=       156
 NAB=    78 NAA=     0 NBB=     0.
 DE(Corr)= -0.75578360     E(CORR)=     -1355.1758327     Delta=-2.39D-02
 NORM(A)=   0.11488143D+01
 Iteration Nr.   3
 **********************
 DD1Dir will call FoFMem   1 times, MxPair=       156
 NAB=    78 NAA=     0 NBB=     0.
 DE(Corr)= -0.75520754     E(CORR)=     -1355.1752566     Delta= 5.76D-04
 NORM(A)=   0.11513885D+01
 Iteration Nr.   4
 **********************
 DD1Dir will call FoFMem   1 times, MxPair=       156
 NAB=    78 NAA=     0 NBB=     0.
 DE(Corr)= -0.75737576     E(CORR)=     -1355.1774248     Delta=-2.17D-03
 NORM(A)=   0.11523669D+01
 Iteration Nr.   5
 **********************
 DD1Dir will call FoFMem   1 times, MxPair=       156
 NAB=    78 NAA=     0 NBB=     0.
 DE(Corr)= -0.75763019     E(CORR)=     -1355.1776793     Delta=-2.54D-04
 NORM(A)=   0.11528469D+01
 Iteration Nr.   6
 **********************
 DD1Dir will call FoFMem   1 times, MxPair=       156
 NAB=    78 NAA=     0 NBB=     0.
 DE(Corr)= -0.75767893     E(CORR)=     -1355.1777280     Delta=-4.87D-05
 NORM(A)=   0.11528996D+01
 Iteration Nr.   7
 **********************
 DD1Dir will call FoFMem   1 times, MxPair=       156
 NAB=    78 NAA=     0 NBB=     0.
 DE(Corr)= -0.75768551     E(CORR)=     -1355.1777346     Delta=-6.58D-06
 NORM(A)=   0.11529119D+01
 Iteration Nr.   8
 **********************
 DD1Dir will call FoFMem   1 times, MxPair=       156
 NAB=    78 NAA=     0 NBB=     0.
 DE(Corr)= -0.75768176     E(CORR)=     -1355.1777309     Delta= 3.75D-06
 NORM(A)=   0.11529168D+01
 Iteration Nr.   9
 **********************
 DD1Dir will call FoFMem   1 times, MxPair=       156
 NAB=    78 NAA=     0 NBB=     0.
 DE(Corr)= -0.75768424     E(CORR)=     -1355.1777333     Delta=-2.48D-06
 NORM(A)=   0.11529175D+01
 Iteration Nr.  10
 **********************
 DD1Dir will call FoFMem   1 times, MxPair=       156
 NAB=    78 NAA=     0 NBB=     0.
 DE(Corr)= -0.75768413     E(CORR)=     -1355.1777332     Delta= 1.09D-07
 NORM(A)=   0.11529198D+01
 Iteration Nr.  11
 **********************
 DD1Dir will call FoFMem   1 times, MxPair=       156
 NAB=    78 NAA=     0 NBB=     0.
 DE(Corr)= -0.75768558     E(CORR)=     -1355.1777347     Delta=-1.45D-06
 NORM(A)=   0.11529211D+01
 Iteration Nr.  12
 **********************
 DD1Dir will call FoFMem   1 times, MxPair=       156
 NAB=    78 NAA=     0 NBB=     0.
 DE(Corr)= -0.75768558     E(CORR)=     -1355.1777347     Delta=-2.77D-09
 NORM(A)=   0.11529220D+01
 Iteration Nr.  13
 **********************
 DD1Dir will call FoFMem   1 times, MxPair=       156
 NAB=    78 NAA=     0 NBB=     0.
 DE(Corr)= -0.75768600     E(CORR)=     -1355.1777351     Delta=-4.16D-07
 NORM(A)=   0.11529227D+01
 Iteration Nr.  14
 **********************
 DD1Dir will call FoFMem   1 times, MxPair=       156
 NAB=    78 NAA=     0 NBB=     0.
 DE(Corr)= -0.75768602     E(CORR)=     -1355.1777351     Delta=-1.61D-08
 NORM(A)=   0.11529229D+01
 Iteration Nr.  15
 **********************
 DD1Dir will call FoFMem   1 times, MxPair=       156
 NAB=    78 NAA=     0 NBB=     0.
 DE(Corr)= -0.75768607     E(CORR)=     -1355.1777352     Delta=-5.78D-08
 NORM(A)=   0.11529230D+01
 Iteration Nr.  16
 **********************
 DD1Dir will call FoFMem   1 times, MxPair=       156
 NAB=    78 NAA=     0 NBB=     0.
 DE(Corr)= -0.75768609     E(CORR)=     -1355.1777352     Delta=-1.88D-08
 NORM(A)=   0.11529230D+01
 Iteration Nr.  17
 **********************
 DD1Dir will call FoFMem   1 times, MxPair=       156
 NAB=    78 NAA=     0 NBB=     0.
 DE(Corr)= -0.75768608     E(CORR)=     -1355.1777352     Delta= 9.24D-09
 NORM(A)=   0.11529231D+01
 Iteration Nr.  18
 **********************
 DD1Dir will call FoFMem   1 times, MxPair=       156
 NAB=    78 NAA=     0 NBB=     0.
 DE(Corr)= -0.75768609     E(CORR)=     -1355.1777352     Delta=-1.03D-08
 NORM(A)=   0.11529231D+01
 Iteration Nr.  19
 **********************
 DD1Dir will call FoFMem   1 times, MxPair=       156
 NAB=    78 NAA=     0 NBB=     0.
 DE(Corr)= -0.75768609     E(CORR)=     -1355.1777352     Delta= 5.02D-09
 NORM(A)=   0.11529231D+01
 Iteration Nr.  20
 **********************
 DD1Dir will call FoFMem   1 times, MxPair=       156
 NAB=    78 NAA=     0 NBB=     0.
 DE(Corr)= -0.75768609     E(CORR)=     -1355.1777352     Delta=-2.59D-09
 NORM(A)=   0.11529231D+01
 Largest amplitude= 8.22D-02

 Z-AMPLITUDE ITERATIONS

 Iteration Nr.   1
 **********************
 DD1Dir will call FoFMem   1 times, MxPair=       156
 NAB=    78 NAA=     0 NBB=     0.
 DE(Z)  -0.72600961D+00          E(Z)=    -0.13551460587D+04
 NORM(A)=   0.11530437D+01
 Iteration Nr.   2
 **********************
 DD1Dir will call FoFMem   1 times, MxPair=       156
 NAB=    78 NAA=     0 NBB=     0.
 DE(Z)  -0.72601337D+00          E(Z)=    -0.13551460625D+04
 NORM(A)=   0.11528520D+01
 Iteration Nr.   3
 **********************
 DD1Dir will call FoFMem   1 times, MxPair=       156
 NAB=    78 NAA=     0 NBB=     0.
 DE(Z)  -0.72600746D+00          E(Z)=    -0.13551460566D+04
 NORM(A)=   0.11529799D+01
 Iteration Nr.   4
 **********************
 DD1Dir will call FoFMem   1 times, MxPair=       156
 NAB=    78 NAA=     0 NBB=     0.
 DE(Z)  -0.72601142D+00          E(Z)=    -0.13551460605D+04
 NORM(A)=   0.11528211D+01
 Iteration Nr.   5
 **********************
 DD1Dir will call FoFMem   1 times, MxPair=       156
 NAB=    78 NAA=     0 NBB=     0.
 DE(Z)  -0.72600631D+00          E(Z)=    -0.13551460554D+04
 NORM(A)=   0.11398549D+01
 Iteration Nr.   6
 **********************
 DD1Dir will call FoFMem   1 times, MxPair=       156
 NAB=    78 NAA=     0 NBB=     0.
 DE(Z)  -0.72557778D+00          E(Z)=    -0.13551456269D+04
 NORM(A)=   0.11398549D+01
 Iteration Nr.   7
 **********************
 DD1Dir will call FoFMem   1 times, MxPair=       156
 NAB=    78 NAA=     0 NBB=     0.
 DE(Z)  -0.72557641D+00          E(Z)=    -0.13551456255D+04
 NORM(A)=   0.11398545D+01
 Iteration Nr.   8
 **********************
 DD1Dir will call FoFMem   1 times, MxPair=       156
 NAB=    78 NAA=     0 NBB=     0.
 DE(Z)  -0.72557696D+00          E(Z)=    -0.13551456260D+04
 NORM(A)=   0.11398548D+01
 Iteration Nr.   9
 **********************
 DD1Dir will call FoFMem   1 times, MxPair=       156
 NAB=    78 NAA=     0 NBB=     0.
 DE(Z)  -0.72557705D+00          E(Z)=    -0.13551456261D+04
 NORM(A)=   0.11398552D+01
 Iteration Nr.  10
 **********************
 DD1Dir will call FoFMem   1 times, MxPair=       156
 NAB=    78 NAA=     0 NBB=     0.
 DE(Z)  -0.72557697D+00          E(Z)=    -0.13551456261D+04
 NORM(A)=   0.11398554D+01
 Iteration Nr.  11
 **********************
 DD1Dir will call FoFMem   1 times, MxPair=       156
 NAB=    78 NAA=     0 NBB=     0.
 DE(Z)  -0.72557702D+00          E(Z)=    -0.13551456261D+04
 NORM(A)=   0.11398555D+01
 Iteration Nr.  12
 **********************
 DD1Dir will call FoFMem   1 times, MxPair=       156
 NAB=    78 NAA=     0 NBB=     0.
 DE(Z)  -0.72557701D+00          E(Z)=    -0.13551456261D+04
 NORM(A)=   0.11398555D+01
 Iteration Nr.  13
 **********************
 DD1Dir will call FoFMem   1 times, MxPair=       156
 NAB=    78 NAA=     0 NBB=     0.
 DE(Z)  -0.72557702D+00          E(Z)=    -0.13551456261D+04
 NORM(A)=   0.11398555D+01
 Iteration Nr.  14
 **********************
 DD1Dir will call FoFMem   1 times, MxPair=       156
 NAB=    78 NAA=     0 NBB=     0.
 DE(Z)  -0.72557701D+00          E(Z)=    -0.13551456261D+04
 NORM(A)=   0.11398555D+01
 Iteration Nr.  15
 **********************
 DD1Dir will call FoFMem   1 times, MxPair=       156
 NAB=    78 NAA=     0 NBB=     0.
 DE(Z)  -0.72557701D+00          E(Z)=    -0.13551456261D+04
 NORM(A)=   0.11398555D+01
 Discarding MO integrals.
          IDoAtm=1111
          Differentiating once with respect to electric field.
                with respect to dipole field.
          Differentiating once with respect to nuclear coordinates.
          Keep R1 ints in memory in canonical form, NReq=367211145.
          There are     1 degrees of freedom in the 1st order CPHF.  IDoFFX=0.
 LinEq1:  Iter=  0 NonCon=     1 RMS=2.04D-03 Max=6.04D-02
 AX will form     1 AO Fock derivatives at one time.
 LinEq1:  Iter=  1 NonCon=     1 RMS=9.34D-04 Max=2.11D-02
 LinEq1:  Iter=  2 NonCon=     1 RMS=3.99D-04 Max=9.64D-03
 LinEq1:  Iter=  3 NonCon=     1 RMS=1.00D-04 Max=1.51D-03
 LinEq1:  Iter=  4 NonCon=     1 RMS=1.91D-05 Max=3.36D-04
 LinEq1:  Iter=  5 NonCon=     1 RMS=6.38D-06 Max=1.04D-04
 LinEq1:  Iter=  6 NonCon=     1 RMS=1.58D-06 Max=2.87D-05
 LinEq1:  Iter=  7 NonCon=     1 RMS=4.57D-07 Max=7.97D-06
 LinEq1:  Iter=  8 NonCon=     1 RMS=8.53D-08 Max=2.05D-06
 LinEq1:  Iter=  9 NonCon=     1 RMS=1.42D-08 Max=2.24D-07
 LinEq1:  Iter= 10 NonCon=     1 RMS=3.67D-09 Max=5.84D-08
 LinEq1:  Iter= 11 NonCon=     1 RMS=7.86D-10 Max=1.06D-08
 LinEq1:  Iter= 12 NonCon=     1 RMS=2.07D-10 Max=7.52D-09
 LinEq1:  Iter= 13 NonCon=     1 RMS=5.70D-11 Max=1.11D-09
 LinEq1:  Iter= 14 NonCon=     0 RMS=1.24D-11 Max=1.94D-10
 Linear equations converged to 1.000D-10 1.000D-09 after    14 iterations.
 End of Minotr Frequency-dependent properties file   721 does not exist.
 End of Minotr Frequency-dependent properties file   722 does not exist.

 **********************************************************************

            Population analysis using the QCI/CC density.

 **********************************************************************

 Alpha  occ. eigenvalues -- -104.88730-104.88730 -91.97464 -11.44444 -10.61050
 Alpha  occ. eigenvalues --  -10.61049  -8.97976  -8.07723  -8.07723  -8.07513
 Alpha  occ. eigenvalues --   -8.07513  -8.07500  -8.07500  -6.66066  -6.65950
 Alpha  occ. eigenvalues --   -6.65794  -1.23262  -1.13388  -1.04648  -0.76305
 Alpha  occ. eigenvalues --   -0.64545  -0.60149  -0.58134  -0.49770  -0.49666
 Alpha  occ. eigenvalues --   -0.48726  -0.41242  -0.37791
 Alpha virt. eigenvalues --    0.02081   0.04770   0.06332   0.06866   0.09679
 Alpha virt. eigenvalues --    0.10082   0.10349   0.11136   0.11824   0.12842
 Alpha virt. eigenvalues --    0.14864   0.15273   0.16133   0.16326   0.16444
 Alpha virt. eigenvalues --    0.21279   0.22177   0.22714   0.26456   0.26918
 Alpha virt. eigenvalues --    0.28301   0.29020   0.30584   0.34049   0.34785
 Alpha virt. eigenvalues --    0.38224   0.38981   0.39459   0.40798   0.43295
 Alpha virt. eigenvalues --    0.43388   0.44773   0.46291   0.46519   0.48469
 Alpha virt. eigenvalues --    0.48656   0.50634   0.51461   0.53188   0.55740
 Alpha virt. eigenvalues --    0.55875   0.65457   0.65593   0.66440   0.69322
 Alpha virt. eigenvalues --    0.72323   0.72832   0.73528   0.73744   0.78487
 Alpha virt. eigenvalues --    0.79567   0.79592   0.81091   0.82608   0.83107
 Alpha virt. eigenvalues --    0.84650   0.87093   0.88253   0.88937   0.89544
 Alpha virt. eigenvalues --    0.90872   0.92156   0.92876   0.94561   0.95166
 Alpha virt. eigenvalues --    0.97119   0.98391   1.02108   1.02695   1.07474
 Alpha virt. eigenvalues --    1.10708   1.10957   1.11299   1.13424   1.17586
 Alpha virt. eigenvalues --    1.20073   1.20580   1.21573   1.28324   1.31883
 Alpha virt. eigenvalues --    1.33204   1.36918   1.37806   1.41559   1.42681
 Alpha virt. eigenvalues --    1.48005   1.50159   1.53663   1.53855   1.57680
 Alpha virt. eigenvalues --    1.60985   1.65146   1.65858   1.70260   1.71851
 Alpha virt. eigenvalues --    1.72386   1.82575   1.84275   1.85340   1.88566
 Alpha virt. eigenvalues --    1.88849   1.93270   1.95176   2.06793   2.08857
 Alpha virt. eigenvalues --    2.13276   2.16027   2.31753   2.33057   2.39484
 Alpha virt. eigenvalues --    2.40523   2.44224   2.45114   2.47858   2.47906
 Alpha virt. eigenvalues --    2.49113   2.54576   2.56905   2.59824   2.60883
 Alpha virt. eigenvalues --    2.62686   2.63608   2.64288   2.66386   2.67493
 Alpha virt. eigenvalues --    2.68936   2.80901   2.82154   2.87847   2.89671
 Alpha virt. eigenvalues --    2.95545   2.97460   3.02474   3.05919   3.06683
 Alpha virt. eigenvalues --    3.07542   3.08020   3.09390   3.11602   3.13182
 Alpha virt. eigenvalues --    3.15040   3.15795   3.17583   3.21781   3.21893
 Alpha virt. eigenvalues --    3.24456   3.35445   3.40621   3.47945   3.65882
 Alpha virt. eigenvalues --    3.70782   3.70930   3.77361   3.79372   3.85384
 Alpha virt. eigenvalues --    3.87573   3.89701   3.96700   4.13964   4.15404
 Alpha virt. eigenvalues --    4.19601   4.26792   4.71944   4.72087   6.55091
 Alpha virt. eigenvalues --    7.06840   7.21102   9.92280
          Condensed to atoms (all electrons):
              1          2          3          4
     1  C    5.673703   0.064544   0.064544   0.193031
     2  Cl   0.064544  17.205255  -0.097763  -0.142084
     3  Cl   0.064544  -0.097763  17.205255  -0.142084
     4  S    0.193031  -0.142084  -0.142084  16.035411
 Mulliken atomic charges:
              1
     1  C    0.004178
     2  Cl  -0.029952
     3  Cl  -0.029952
     4  S    0.055726
 Sum of Mulliken atomic charges =   0.00000
 Mulliken charges with hydrogens summed into heavy atoms:
              1
     1  C    0.004178
     2  Cl  -0.029952
     3  Cl  -0.029952
     4  S    0.055726
 Sum of Mulliken charges with hydrogens summed into heavy atoms =   0.00000
 Electronic spatial extent (au):  <R**2>=            695.0755
 Charge=              0.0000 electrons
 Dipole moment (field-independent basis, Debye):
    X=              0.0000    Y=              0.0000    Z=             -0.2384  Tot=              0.2384
 Quadrupole moment (field-independent basis, Debye-Ang):
   XX=            -43.0860   YY=            -42.8982   ZZ=            -43.1933
   XY=              0.0000   XZ=              0.0000   YZ=              0.0000
 Traceless Quadrupole moment (field-independent basis, Debye-Ang):
   XX=             -0.0268   YY=              0.1610   ZZ=             -0.1341
   XY=              0.0000   XZ=              0.0000   YZ=              0.0000
 Octapole moment (field-independent basis, Debye-Ang**2):
  XXX=              0.0000  YYY=              0.0000  ZZZ=             83.0713  XYY=              0.0000
  XXY=              0.0000  XXZ=             27.2609  XZZ=              0.0000  YZZ=              0.0000
  YYZ=             19.0918  XYZ=              0.0000
 Hexadecapole moment (field-independent basis, Debye-Ang**3):
 XXXX=            -50.6332 YYYY=           -372.8438 ZZZZ=           -449.9652 XXXY=              0.0000
 XXXZ=              0.0000 YYYX=              0.0000 YYYZ=              0.0000 ZZZX=              0.0000
 ZZZY=              0.0000 XXYY=            -76.2673 XXZZ=            -83.9706 YYZZ=           -130.3729
 XXYZ=              0.0000 YYXZ=              0.0000 ZZXY=              0.0000
 N-N= 2.438094296389D+02 E-N=-3.711267104355D+03  KE= 1.355067431934D+03
 Calling FoFJK, ICntrl=      2127 FMM=F ISym2X=0 I1Cent= 0 IOpClX= 0 NMat=1 NMatS=1 NMatT=0.
 -------------------------------------------------------------------
 Center     Atomic                   Forces (Hartrees/Bohr)
 Number     Number              X              Y              Z
 -------------------------------------------------------------------
      1        6           0.000000000    0.000000000   -0.023719404
      2       17           0.000000000    0.018890772   -0.008286446
      3       17           0.000000000   -0.018890772   -0.008286446
      4       16           0.000000000    0.000000000    0.040292297
 -------------------------------------------------------------------
 Cartesian Forces:  Max     0.040292297 RMS     0.015908939

 GradGradGradGradGradGradGradGradGradGradGradGradGradGradGradGradGradGrad
 Berny optimization.
 Internal  Forces:  Max     0.040292297 RMS     0.023782896
 Search for a local minimum.
 Step number   1 out of a maximum of   20
 All quantities printed in internal units (Hartrees-Bohrs-Radians)
 Mixed Optimization -- RFO/linear search
 Second derivative matrix not updated -- first step.
 The second derivative matrix:
                          R1        R2        R3        A1        A2
           R1           0.29539
           R2           0.00000   0.29539
           R3           0.00000   0.00000   0.58306
           A1           0.00000   0.00000   0.00000   0.25000
           A2           0.00000   0.00000   0.00000   0.00000   0.25000
           A3           0.00000   0.00000   0.00000   0.00000   0.00000
           D1           0.00000   0.00000   0.00000   0.00000   0.00000
                          A3        D1
           A3           0.25000
           D1           0.00000   0.03460
 ITU=  0
     Eigenvalues ---    0.03460   0.25000   0.25000   0.29539   0.29539
     Eigenvalues ---    0.58306
 RFO step:  Lambda=-1.14946652D-02 EMin= 3.46038156D-02
 Linear search not attempted -- first point.
 Iteration  1 RMS(Cart)=  0.11672291 RMS(Int)=  0.00451332
 Iteration  2 RMS(Cart)=  0.00389940 RMS(Int)=  0.00000179
 Iteration  3 RMS(Cart)=  0.00000282 RMS(Int)=  0.00000000
 Iteration  4 RMS(Cart)=  0.00000000 RMS(Int)=  0.00000000
 Variable       Old X    -DE/DX   Delta X   Delta X   Delta X     New X
                                 (Linear)    (Quad)   (Total)
    R1        3.32592  -0.01222   0.00000  -0.03981  -0.03981   3.28611
    R2        3.32592  -0.01222   0.00000  -0.03981  -0.03981   3.28611
    R3        2.96007   0.04029   0.00000   0.06777   0.06777   3.02784
    A1        2.09440  -0.03685   0.00000  -0.14094  -0.14094   1.95346
    A2        2.09440   0.01843   0.00000   0.07047   0.07047   2.16486
    A3        2.09440   0.01843   0.00000   0.07047   0.07047   2.16486
    D1        3.14159   0.00000   0.00000   0.00000   0.00000   3.14159
         Item               Value     Threshold  Converged?
 Maximum Force            0.040292     0.000450     NO 
 RMS     Force            0.023783     0.000300     NO 
 Maximum Displacement     0.157228     0.001800     NO 
 RMS     Displacement     0.117081     0.001200     NO 
 Predicted change in Energy=-5.963190D-03
 GradGradGradGradGradGradGradGradGradGradGradGradGradGradGradGradGradGrad

                          Input orientation:                          
 ---------------------------------------------------------------------
 Center     Atomic      Atomic             Coordinates (Angstroms)
 Number     Number       Type             X           Y           Z
 ---------------------------------------------------------------------
      1          6           0        0.000000    0.000000   -0.524618
      2         17           0        0.000000   -1.441003   -1.497963
      3         17           0        0.000000    1.441003   -1.497963
      4         16           0        0.000000    0.000000    1.077644
 ---------------------------------------------------------------------
                    Distance matrix (angstroms):
                    1          2          3          4
     1  C    0.000000
     2  Cl   1.738934   0.000000
     3  Cl   1.738934   2.882006   0.000000
     4  S    1.602262   2.951313   2.951313   0.000000
 Symmetry turned off by external request.
 Stoichiometry    CCl2S
 Framework group  C2V[C2(CS),SGV(Cl2)]
 Deg. of freedom     3
 Full point group                 C2V     NOp   4
 Rotational constants (GHZ):      3.4799732      3.4651101      1.7362629
 Standard basis: Aug-CC-pVTZ (5D, 7F)
 Integral buffers will be    131072 words long.
 Raffenetti 1 integral format.
 Two-electron integral symmetry is turned off.
   196 basis functions,   414 primitive gaussians,   232 cartesian basis functions
    28 alpha electrons       28 beta electrons
       nuclear repulsion energy       244.3902592329 Hartrees.
 NAtoms=    4 NActive=    4 NUniq=    4 SFac= 1.00D+00 NAtFMM=   50 NAOKFM=F Big=F
 One-electron integrals computed using PRISM.
 NBasis=   196 RedAO= T  NBF=   196
 NBsUse=   196 1.00D-06 NBFU=   196
 Initial guess read from the read-write file.
 B after Tr=     0.000000    0.000000    0.000000
         Rot=    1.000000    0.000000    0.000000    0.000000 Ang=   0.00 deg.
 Harris functional with IExCor=  205 diagonalized for initial guess.
 ExpMin= 3.51D-02 ExpMax= 4.56D+05 ExpMxC= 1.44D+03 IAcc=3 IRadAn=         0 AccDes= 0.00D+00
 HarFok:  IExCor=  205 AccDes= 0.00D+00 IRadAn=         0 IDoV= 1
 ScaDFX=  1.000000  1.000000  1.000000  1.000000
 FoFCou: FMM=F IPFlag=           0 FMFlag=      100000 FMFlg1=           0
         NFxFlg=           0 DoJE=T BraDBF=F KetDBF=T FulRan=T
         Omega=  0.000000  0.000000  1.000000  0.000000  0.000000 ICntrl=     500 IOpCl=  0
         NMat0=    1 NMatS0=    1 NMatT0=    0 NMatD0=    1 NMtDS0=    0 NMtDT0=    0
         I1Cent=           4 NGrid=           0.
 Symmetry not used in FoFCou.
 Requested convergence on RMS density matrix=1.00D-08 within 128 cycles.
 Requested convergence on MAX density matrix=1.00D-06.
 Requested convergence on             energy=1.00D-06.
 No special actions if energy rises.
 Keep R1 ints in memory in canonical form, NReq=371777346.
 SCF Done:  E(RHF) =  -1354.42589818     A.U. after   12 cycles
             Convg  =    0.3360D-08             -V/T =  2.0002
 ExpMin= 3.51D-02 ExpMax= 4.56D+05 ExpMxC= 1.44D+03 IAcc=3 IRadAn=         5 AccDes= 0.00D+00
 HarFok:  IExCor=  205 AccDes= 0.00D+00 IRadAn=         5 IDoV=-2
 ScaDFX=  1.000000  1.000000  1.000000  1.000000
 Range of M.O.s used for correlation:    17   196
 NBasis=   196 NAE=    28 NBE=    28 NFC=    16 NFV=     0
 NROrb=    180 NOA=    12 NOB=    12 NVA=   168 NVB=   168

 **** Warning!!: The largest alpha MO coefficient is  0.30962142D+02

 Semi-Direct transformation.
 ModeAB=           2 MOrb=            12 LenV=    1072679959
 LASXX=     33405819 LTotXX=    33405819 LenRXX=    33405819
 LTotAB=    33954012 MaxLAS=    58380480 LenRXY=    58380480
 NonZer=    66811638 LenScr=   100987392 LnRSAI=           0
 LnScr1=           0 LExtra=           0 Total=    192773691
 MaxDsk=          -1 SrtSym=           F ITran=            4
 JobTyp=0 Pass  1:  I=   1 to  12.
 (rs|ai) integrals will be sorted in core.
 Spin components of T(2) and E(2):
     alpha-alpha T2 =       0.3954038066D-01 E2=     -0.9361998567D-01
     alpha-beta  T2 =       0.2074443828D+00 E2=     -0.5371269771D+00
     beta-beta   T2 =       0.3954038066D-01 E2=     -0.9361998567D-01
 ANorm=    0.1134250918D+01
 E2 =    -0.7243669484D+00 EUMP2 =    -0.13551502651238D+04
 R2 and R3 integrals will be kept in memory, NReq=   736864364.
 Iterations=  50 Convergence= 0.100D-07
 Iteration Nr.   1
 **********************
 DD1Dir will call FoFMem   1 times, MxPair=       156
 NAB=    78 NAA=     0 NBB=     0.
 MP4(R+Q)=  0.24905911D-01
 E3=       -0.32646351D-01        EUMP3=      -0.13551829115D+04
 E4(DQ)=    0.30864737D-02        UMP4(DQ)=   -0.13551798250D+04
 E4(SDQ)=  -0.37453420D-02        UMP4(SDQ)=  -0.13551866568D+04
 DE(Corr)= -0.73210739     E(Corr)=     -1355.1580056    
 NORM(A)=   0.11381986D+01
 Iteration Nr.   2
 **********************
 DD1Dir will call FoFMem   1 times, MxPair=       156
 NAB=    78 NAA=     0 NBB=     0.
 DE(Corr)= -0.75647467     E(CORR)=     -1355.1823728     Delta=-2.44D-02
 NORM(A)=   0.11492235D+01
 Iteration Nr.   3
 **********************
 DD1Dir will call FoFMem   1 times, MxPair=       156
 NAB=    78 NAA=     0 NBB=     0.
 DE(Corr)= -0.75565711     E(CORR)=     -1355.1815553     Delta= 8.18D-04
 NORM(A)=   0.11519696D+01
 Iteration Nr.   4
 **********************
 DD1Dir will call FoFMem   1 times, MxPair=       156
 NAB=    78 NAA=     0 NBB=     0.
 DE(Corr)= -0.75792502     E(CORR)=     -1355.1838232     Delta=-2.27D-03
 NORM(A)=   0.11530443D+01
 Iteration Nr.   5
 **********************
 DD1Dir will call FoFMem   1 times, MxPair=       156
 NAB=    78 NAA=     0 NBB=     0.
 DE(Corr)= -0.75820295     E(CORR)=     -1355.1841011     Delta=-2.78D-04
 NORM(A)=   0.11535799D+01
 Iteration Nr.   6
 **********************
 DD1Dir will call FoFMem   1 times, MxPair=       156
 NAB=    78 NAA=     0 NBB=     0.
 DE(Corr)= -0.75825584     E(CORR)=     -1355.1841540     Delta=-5.29D-05
 NORM(A)=   0.11536423D+01
 Iteration Nr.   7
 **********************
 DD1Dir will call FoFMem   1 times, MxPair=       156
 NAB=    78 NAA=     0 NBB=     0.
 DE(Corr)= -0.75826309     E(CORR)=     -1355.1841613     Delta=-7.25D-06
 NORM(A)=   0.11536482D+01
 Iteration Nr.   8
 **********************
 DD1Dir will call FoFMem   1 times, MxPair=       156
 NAB=    78 NAA=     0 NBB=     0.
 DE(Corr)= -0.75826109     E(CORR)=     -1355.1841593     Delta= 2.00D-06
 NORM(A)=   0.11536547D+01
 Iteration Nr.   9
 **********************
 DD1Dir will call FoFMem   1 times, MxPair=       156
 NAB=    78 NAA=     0 NBB=     0.
 DE(Corr)= -0.75826128     E(CORR)=     -1355.1841595     Delta=-1.87D-07
 NORM(A)=   0.11536537D+01
 Iteration Nr.  10
 **********************
 DD1Dir will call FoFMem   1 times, MxPair=       156
 NAB=    78 NAA=     0 NBB=     0.
 DE(Corr)= -0.75826222     E(CORR)=     -1355.1841604     Delta=-9.39D-07
 NORM(A)=   0.11536555D+01
 Iteration Nr.  11
 **********************
 DD1Dir will call FoFMem   1 times, MxPair=       156
 NAB=    78 NAA=     0 NBB=     0.
 DE(Corr)= -0.75826296     E(CORR)=     -1355.1841611     Delta=-7.39D-07
 NORM(A)=   0.11536566D+01
 Iteration Nr.  12
 **********************
 DD1Dir will call FoFMem   1 times, MxPair=       156
 NAB=    78 NAA=     0 NBB=     0.
 DE(Corr)= -0.75826317     E(CORR)=     -1355.1841613     Delta=-2.12D-07
 NORM(A)=   0.11536573D+01
 Iteration Nr.  13
 **********************
 DD1Dir will call FoFMem   1 times, MxPair=       156
 NAB=    78 NAA=     0 NBB=     0.
 DE(Corr)= -0.75826348     E(CORR)=     -1355.1841617     Delta=-3.06D-07
 NORM(A)=   0.11536579D+01
 Iteration Nr.  14
 **********************
 DD1Dir will call FoFMem   1 times, MxPair=       156
 NAB=    78 NAA=     0 NBB=     0.
 DE(Corr)= -0.75826350     E(CORR)=     -1355.1841617     Delta=-2.58D-08
 NORM(A)=   0.11536581D+01
 Iteration Nr.  15
 **********************
 DD1Dir will call FoFMem   1 times, MxPair=       156
 NAB=    78 NAA=     0 NBB=     0.
 DE(Corr)= -0.75826356     E(CORR)=     -1355.1841617     Delta=-5.76D-08
 NORM(A)=   0.11536582D+01
 Iteration Nr.  16
 **********************
 DD1Dir will call FoFMem   1 times, MxPair=       156
 NAB=    78 NAA=     0 NBB=     0.
 DE(Corr)= -0.75826357     E(CORR)=     -1355.1841617     Delta=-1.21D-08
 NORM(A)=   0.11536582D+01
 Iteration Nr.  17
 **********************
 DD1Dir will call FoFMem   1 times, MxPair=       156
 NAB=    78 NAA=     0 NBB=     0.
 DE(Corr)= -0.75826357     E(CORR)=     -1355.1841617     Delta= 1.60D-09
 NORM(A)=   0.11536582D+01
 Iteration Nr.  18
 **********************
 DD1Dir will call FoFMem   1 times, MxPair=       156
 NAB=    78 NAA=     0 NBB=     0.
 DE(Corr)= -0.75826358     E(CORR)=     -1355.1841618     Delta=-5.00D-09
 NORM(A)=   0.11536582D+01
 Iteration Nr.  19
 **********************
 DD1Dir will call FoFMem   1 times, MxPair=       156
 NAB=    78 NAA=     0 NBB=     0.
 DE(Corr)= -0.75826357     E(CORR)=     -1355.1841617     Delta= 2.88D-09
 NORM(A)=   0.11536582D+01
 Largest amplitude= 8.87D-02

 Z-AMPLITUDE ITERATIONS

 Iteration Nr.   1
 **********************
 DD1Dir will call FoFMem   1 times, MxPair=       156
 NAB=    78 NAA=     0 NBB=     0.
 DE(Z)  -0.72638083D+00          E(Z)=    -0.13551522790D+04
 NORM(A)=   0.11536543D+01
 Iteration Nr.   2
 **********************
 DD1Dir will call FoFMem   1 times, MxPair=       156
 NAB=    78 NAA=     0 NBB=     0.
 DE(Z)  -0.72638073D+00          E(Z)=    -0.13551522789D+04
 NORM(A)=   0.11536586D+01
 Iteration Nr.   3
 **********************
 DD1Dir will call FoFMem   1 times, MxPair=       156
 NAB=    78 NAA=     0 NBB=     0.
 DE(Z)  -0.72638084D+00          E(Z)=    -0.13551522790D+04
 NORM(A)=   0.11536594D+01
 Iteration Nr.   4
 **********************
 DD1Dir will call FoFMem   1 times, MxPair=       156
 NAB=    78 NAA=     0 NBB=     0.
 DE(Z)  -0.72638086D+00          E(Z)=    -0.13551522790D+04
 NORM(A)=   0.11536586D+01
 Iteration Nr.   5
 **********************
 DD1Dir will call FoFMem   1 times, MxPair=       156
 NAB=    78 NAA=     0 NBB=     0.
 DE(Z)  -0.72638084D+00          E(Z)=    -0.13551522790D+04
 NORM(A)=   0.11404131D+01
 Iteration Nr.   6
 **********************
 DD1Dir will call FoFMem   1 times, MxPair=       156
 NAB=    78 NAA=     0 NBB=     0.
 DE(Z)  -0.72599500D+00          E(Z)=    -0.13551518932D+04
 NORM(A)=   0.11403952D+01
 Iteration Nr.   7
 **********************
 DD1Dir will call FoFMem   1 times, MxPair=       156
 NAB=    78 NAA=     0 NBB=     0.
 DE(Z)  -0.72598403D+00          E(Z)=    -0.13551518822D+04
 NORM(A)=   0.11404031D+01
 Iteration Nr.   8
 **********************
 DD1Dir will call FoFMem   1 times, MxPair=       156
 NAB=    78 NAA=     0 NBB=     0.
 DE(Z)  -0.72599343D+00          E(Z)=    -0.13551518916D+04
 NORM(A)=   0.11404046D+01
 Iteration Nr.   9
 **********************
 DD1Dir will call FoFMem   1 times, MxPair=       156
 NAB=    78 NAA=     0 NBB=     0.
 DE(Z)  -0.72599222D+00          E(Z)=    -0.13551518904D+04
 NORM(A)=   0.11404014D+01
 Iteration Nr.  10
 **********************
 DD1Dir will call FoFMem   1 times, MxPair=       156
 NAB=    78 NAA=     0 NBB=     0.
 DE(Z)  -0.72599255D+00          E(Z)=    -0.13551518907D+04
 NORM(A)=   0.11403998D+01
 Iteration Nr.  11
 **********************
 DD1Dir will call FoFMem   1 times, MxPair=       156
 NAB=    78 NAA=     0 NBB=     0.
 DE(Z)  -0.72599229D+00          E(Z)=    -0.13551518905D+04
 NORM(A)=   0.11403998D+01
 Iteration Nr.  12
 **********************
 DD1Dir will call FoFMem   1 times, MxPair=       156
 NAB=    78 NAA=     0 NBB=     0.
 DE(Z)  -0.72599199D+00          E(Z)=    -0.13551518902D+04
 NORM(A)=   0.11403999D+01
 Iteration Nr.  13
 **********************
 DD1Dir will call FoFMem   1 times, MxPair=       156
 NAB=    78 NAA=     0 NBB=     0.
 DE(Z)  -0.72599215D+00          E(Z)=    -0.13551518903D+04
 NORM(A)=   0.11404001D+01
 Iteration Nr.  14
 **********************
 DD1Dir will call FoFMem   1 times, MxPair=       156
 NAB=    78 NAA=     0 NBB=     0.
 DE(Z)  -0.72599208D+00          E(Z)=    -0.13551518903D+04
 NORM(A)=   0.11404002D+01
 Iteration Nr.  15
 **********************
 DD1Dir will call FoFMem   1 times, MxPair=       156
 NAB=    78 NAA=     0 NBB=     0.
 DE(Z)  -0.72599212D+00          E(Z)=    -0.13551518903D+04
 NORM(A)=   0.11404002D+01
 Iteration Nr.  16
 **********************
 DD1Dir will call FoFMem   1 times, MxPair=       156
 NAB=    78 NAA=     0 NBB=     0.
 DE(Z)  -0.72599212D+00          E(Z)=    -0.13551518903D+04
 NORM(A)=   0.11404002D+01
 Iteration Nr.  17
 **********************
 DD1Dir will call FoFMem   1 times, MxPair=       156
 NAB=    78 NAA=     0 NBB=     0.
 DE(Z)  -0.72599212D+00          E(Z)=    -0.13551518903D+04
 NORM(A)=   0.11404002D+01
 Discarding MO integrals.
          IDoAtm=1111
          Differentiating once with respect to electric field.
                with respect to dipole field.
          Differentiating once with respect to nuclear coordinates.
          Keep R1 ints in memory in canonical form, NReq=367211145.
          There are     1 degrees of freedom in the 1st order CPHF.  IDoFFX=0.
 LinEq1:  Iter=  0 NonCon=     1 RMS=2.08D-03 Max=6.33D-02
 AX will form     1 AO Fock derivatives at one time.
 LinEq1:  Iter=  1 NonCon=     1 RMS=9.32D-04 Max=1.82D-02
 LinEq1:  Iter=  2 NonCon=     1 RMS=4.12D-04 Max=1.02D-02
 LinEq1:  Iter=  3 NonCon=     1 RMS=1.04D-04 Max=1.76D-03
 LinEq1:  Iter=  4 NonCon=     1 RMS=2.38D-05 Max=7.45D-04
 LinEq1:  Iter=  5 NonCon=     1 RMS=7.71D-06 Max=1.83D-04
 LinEq1:  Iter=  6 NonCon=     1 RMS=2.32D-06 Max=8.78D-05
 LinEq1:  Iter=  7 NonCon=     1 RMS=7.20D-07 Max=1.31D-05
 LinEq1:  Iter=  8 NonCon=     1 RMS=1.35D-07 Max=2.02D-06
 LinEq1:  Iter=  9 NonCon=     1 RMS=2.58D-08 Max=3.88D-07
 LinEq1:  Iter= 10 NonCon=     1 RMS=6.58D-09 Max=1.70D-07
 LinEq1:  Iter= 11 NonCon=     1 RMS=1.35D-09 Max=2.28D-08
 LinEq1:  Iter= 12 NonCon=     1 RMS=2.99D-10 Max=5.21D-09
 LinEq1:  Iter= 13 NonCon=     0 RMS=6.60D-11 Max=9.07D-10
 Linear equations converged to 1.000D-10 1.000D-09 after    13 iterations.
 End of Minotr Frequency-dependent properties file   721 does not exist.
 End of Minotr Frequency-dependent properties file   722 does not exist.
 Calling FoFJK, ICntrl=      2127 FMM=F ISym2X=0 I1Cent= 0 IOpClX= 0 NMat=1 NMatS=1 NMatT=0.
 -------------------------------------------------------------------
 Center     Atomic                   Forces (Hartrees/Bohr)
 Number     Number              X              Y              Z
 -------------------------------------------------------------------
      1        6           0.000000000    0.000000000   -0.003052384
      2       17           0.000000000    0.003431748    0.000503816
      3       17           0.000000000   -0.003431748    0.000503816
      4       16           0.000000000    0.000000000    0.002044752
 -------------------------------------------------------------------
 Cartesian Forces:  Max     0.003431748 RMS     0.001769169

 GradGradGradGradGradGradGradGradGradGradGradGradGradGradGradGradGradGrad
 Berny optimization.
 Using GEDIIS/GDIIS optimizer.
 Internal  Forces:  Max     0.003293512 RMS     0.002390248
 Search for a local minimum.
 Step number   2 out of a maximum of   20
 All quantities printed in internal units (Hartrees-Bohrs-Radians)
 Mixed Optimization -- RFO/linear search
 Update second derivatives using D2CorX and points    1    2
 DE= -6.43D-03 DEPred=-5.96D-03 R= 1.08D+00
 SS=  1.41D+00  RLast= 1.94D-01 DXNew= 5.0454D-01 5.8140D-01
 Trust test= 1.08D+00 RLast= 1.94D-01 DXMaxT set to 5.05D-01
 The second derivative matrix:
                          R1        R2        R3        A1        A2
           R1           0.29083
           R2          -0.00456   0.29083
           R3           0.00860   0.00860   0.58244
           A1          -0.00815  -0.00815   0.00255   0.24597
           A2           0.00407   0.00407  -0.00128   0.00202   0.24899
           A3           0.00407   0.00407  -0.00128   0.00202  -0.00101
           D1           0.00000   0.00000   0.00000   0.00000   0.00000
                          A3        D1
           A3           0.24899
           D1           0.00000   0.03460
 ITU=  1  0
 Use linear search instead of GDIIS.
     Eigenvalues ---    0.03460   0.23956   0.25000   0.29015   0.29539
     Eigenvalues ---    0.58296
 RFO step:  Lambda=-3.74330045D-05 EMin= 3.46038156D-02
 Quartic linear search produced a step of  0.09566.
 Iteration  1 RMS(Cart)=  0.01242586 RMS(Int)=  0.00004221
 Iteration  2 RMS(Cart)=  0.00003832 RMS(Int)=  0.00000000
 Iteration  3 RMS(Cart)=  0.00000000 RMS(Int)=  0.00000000
 Variable       Old X    -DE/DX   Delta X   Delta X   Delta X     New X
                                 (Linear)    (Quad)   (Total)
    R1        3.28611  -0.00313  -0.00381  -0.00745  -0.01126   3.27485
    R2        3.28611  -0.00313  -0.00381  -0.00745  -0.01126   3.27485
    R3        3.02784   0.00204   0.00648  -0.00283   0.00366   3.03149
    A1        1.95346  -0.00329  -0.01348   0.00054  -0.01294   1.94052
    A2        2.16486   0.00165   0.00674  -0.00027   0.00647   2.17134
    A3        2.16486   0.00165   0.00674  -0.00027   0.00647   2.17134
    D1        3.14159   0.00000   0.00000   0.00000   0.00000  -3.14159
         Item               Value     Threshold  Converged?
 Maximum Force            0.003294     0.000450     NO 
 RMS     Force            0.002390     0.000300     NO 
 Maximum Displacement     0.021244     0.001800     NO 
 RMS     Displacement     0.012419     0.001200     NO 
 Predicted change in Energy=-7.542044D-05
 GradGradGradGradGradGradGradGradGradGradGradGradGradGradGradGradGradGrad

                          Input orientation:                          
 ---------------------------------------------------------------------
 Center     Atomic      Atomic             Coordinates (Angstroms)
 Number     Number       Type             X           Y           Z
 ---------------------------------------------------------------------
      1          6           0        0.000000    0.000000   -0.522132
      2         17           0        0.000000   -1.429761   -1.501416
      3         17           0        0.000000    1.429761   -1.501416
      4         16           0        0.000000    0.000000    1.082064
 ---------------------------------------------------------------------
                    Distance matrix (angstroms):
                    1          2          3          4
     1  C    0.000000
     2  Cl   1.732978   0.000000
     3  Cl   1.732978   2.859523   0.000000
     4  S    1.604197   2.952725   2.952725   0.000000
 Symmetry turned off by external request.
 Stoichiometry    CCl2S
 Framework group  CS[SG(CS),X(Cl2)]
 Deg. of freedom     4
 Full point group                 CS      NOp   2
 Rotational constants (GHZ):      3.5349130      3.4437745      1.7443743
 Standard basis: Aug-CC-pVTZ (5D, 7F)
 Integral buffers will be    131072 words long.
 Raffenetti 1 integral format.
 Two-electron integral symmetry is turned off.
   196 basis functions,   414 primitive gaussians,   232 cartesian basis functions
    28 alpha electrons       28 beta electrons
       nuclear repulsion energy       244.9359393231 Hartrees.
 NAtoms=    4 NActive=    4 NUniq=    4 SFac= 1.00D+00 NAtFMM=   50 NAOKFM=F Big=F
 One-electron integrals computed using PRISM.
 NBasis=   196 RedAO= T  NBF=   196
 NBsUse=   196 1.00D-06 NBFU=   196
 Initial guess read from the read-write file.
 B after Tr=     0.000000    0.000000    0.000000
         Rot=    1.000000    0.000000    0.000000    0.000000 Ang=   0.00 deg.
 Harris functional with IExCor=  205 diagonalized for initial guess.
 ExpMin= 3.51D-02 ExpMax= 4.56D+05 ExpMxC= 1.44D+03 IAcc=3 IRadAn=         0 AccDes= 0.00D+00
 HarFok:  IExCor=  205 AccDes= 0.00D+00 IRadAn=         0 IDoV= 1
 ScaDFX=  1.000000  1.000000  1.000000  1.000000
 FoFCou: FMM=F IPFlag=           0 FMFlag=      100000 FMFlg1=           0
         NFxFlg=           0 DoJE=T BraDBF=F KetDBF=T FulRan=T
         Omega=  0.000000  0.000000  1.000000  0.000000  0.000000 ICntrl=     500 IOpCl=  0
         NMat0=    1 NMatS0=    1 NMatT0=    0 NMatD0=    1 NMtDS0=    0 NMtDT0=    0
         I1Cent=           4 NGrid=           0.
 Symmetry not used in FoFCou.
 Requested convergence on RMS density matrix=1.00D-08 within 128 cycles.
 Requested convergence on MAX density matrix=1.00D-06.
 Requested convergence on             energy=1.00D-06.
 No special actions if energy rises.
 Keep R1 ints in memory in canonical form, NReq=371777346.
 DSYEVD returned Info=        9948 IAlg= 4 N=   196 NDim=   196 NE2=     3613802 trying DSYEV.
 SCF Done:  E(RHF) =  -1354.42603772     A.U. after   10 cycles
             Convg  =    0.9001D-08             -V/T =  2.0001
 ExpMin= 3.51D-02 ExpMax= 4.56D+05 ExpMxC= 1.44D+03 IAcc=3 IRadAn=         5 AccDes= 0.00D+00
 HarFok:  IExCor=  205 AccDes= 0.00D+00 IRadAn=         5 IDoV=-2
 ScaDFX=  1.000000  1.000000  1.000000  1.000000
 DSYEVD returned Info=         101 IAlg= 4 N=    50 NDim=    50 NE2=    21472333 trying DSYEV.
 Range of M.O.s used for correlation:    17   196
 NBasis=   196 NAE=    28 NBE=    28 NFC=    16 NFV=     0
 NROrb=    180 NOA=    12 NOB=    12 NVA=   168 NVB=   168

 **** Warning!!: The largest alpha MO coefficient is  0.31140979D+02

 Semi-Direct transformation.
 ModeAB=           2 MOrb=            12 LenV=    1072679847
 LASXX=     33405819 LTotXX=    33405819 LenRXX=    33405819
 LTotAB=    33954012 MaxLAS=    58380480 LenRXY=    58380480
 NonZer=    66811638 LenScr=   100987392 LnRSAI=           0
 LnScr1=           0 LExtra=           0 Total=    192773691
 MaxDsk=          -1 SrtSym=           F ITran=            4
 JobTyp=0 Pass  1:  I=   1 to  12.
 (rs|ai) integrals will be sorted in core.
 Spin components of T(2) and E(2):
     alpha-alpha T2 =       0.3952632618D-01 E2=     -0.9366552915D-01
     alpha-beta  T2 =       0.2072136406D+00 E2=     -0.5370321684D+00
     beta-beta   T2 =       0.3952632618D-01 E2=     -0.9366552915D-01
 ANorm=    0.1134136805D+01
 E2 =    -0.7243632267D+00 EUMP2 =    -0.13551504009483D+04
 R2 and R3 integrals will be kept in memory, NReq=   736864364.
 Iterations=  50 Convergence= 0.100D-07
 Iteration Nr.   1
 **********************
 DD1Dir will call FoFMem   1 times, MxPair=       156
 NAB=    78 NAA=     0 NBB=     0.
 MP4(R+Q)=  0.24881497D-01
 E3=       -0.32601151D-01        EUMP3=      -0.13551830021D+04
 E4(DQ)=    0.31072597D-02        UMP4(DQ)=   -0.13551798948D+04
 E4(SDQ)=  -0.37117832D-02        UMP4(SDQ)=  -0.13551867139D+04
 DE(Corr)= -0.73208288     E(Corr)=     -1355.1581206    
 NORM(A)=   0.11380649D+01
 Iteration Nr.   2
 **********************
 DD1Dir will call FoFMem   1 times, MxPair=       156
 NAB=    78 NAA=     0 NBB=     0.
 DE(Corr)= -0.75640578     E(CORR)=     -1355.1824435     Delta=-2.43D-02
 NORM(A)=   0.11490582D+01
 Iteration Nr.   3
 **********************
 DD1Dir will call FoFMem   1 times, MxPair=       156
 NAB=    78 NAA=     0 NBB=     0.
 DE(Corr)= -0.75559112     E(CORR)=     -1355.1816288     Delta= 8.15D-04
 NORM(A)=   0.11517980D+01
 Iteration Nr.   4
 **********************
 DD1Dir will call FoFMem   1 times, MxPair=       156
 NAB=    78 NAA=     0 NBB=     0.
 DE(Corr)= -0.75785205     E(CORR)=     -1355.1838898     Delta=-2.26D-03
 NORM(A)=   0.11528733D+01
 Iteration Nr.   5
 **********************
 DD1Dir will call FoFMem   1 times, MxPair=       156
 NAB=    78 NAA=     0 NBB=     0.
 DE(Corr)= -0.75812976     E(CORR)=     -1355.1841675     Delta=-2.78D-04
 NORM(A)=   0.11534094D+01
 Iteration Nr.   6
 **********************
 DD1Dir will call FoFMem   1 times, MxPair=       156
 NAB=    78 NAA=     0 NBB=     0.
 DE(Corr)= -0.75818259     E(CORR)=     -1355.1842203     Delta=-5.28D-05
 NORM(A)=   0.11534722D+01
 Iteration Nr.   7
 **********************
 DD1Dir will call FoFMem   1 times, MxPair=       156
 NAB=    78 NAA=     0 NBB=     0.
 DE(Corr)= -0.75818983     E(CORR)=     -1355.1842276     Delta=-7.24D-06
 NORM(A)=   0.11534776D+01
 Iteration Nr.   8
 **********************
 DD1Dir will call FoFMem   1 times, MxPair=       156
 NAB=    78 NAA=     0 NBB=     0.
 DE(Corr)= -0.75818793     E(CORR)=     -1355.1842257     Delta= 1.90D-06
 NORM(A)=   0.11534841D+01
 Iteration Nr.   9
 **********************
 DD1Dir will call FoFMem   1 times, MxPair=       156
 NAB=    78 NAA=     0 NBB=     0.
 DE(Corr)= -0.75818800     E(CORR)=     -1355.1842257     Delta=-7.26D-08
 NORM(A)=   0.11534830D+01
 Iteration Nr.  10
 **********************
 DD1Dir will call FoFMem   1 times, MxPair=       156
 NAB=    78 NAA=     0 NBB=     0.
 DE(Corr)= -0.75818898     E(CORR)=     -1355.1842267     Delta=-9.78D-07
 NORM(A)=   0.11534849D+01
 Iteration Nr.  11
 **********************
 DD1Dir will call FoFMem   1 times, MxPair=       156
 NAB=    78 NAA=     0 NBB=     0.
 DE(Corr)= -0.75818967     E(CORR)=     -1355.1842274     Delta=-6.90D-07
 NORM(A)=   0.11534858D+01
 Iteration Nr.  12
 **********************
 DD1Dir will call FoFMem   1 times, MxPair=       156
 NAB=    78 NAA=     0 NBB=     0.
 DE(Corr)= -0.75818989     E(CORR)=     -1355.1842276     Delta=-2.24D-07
 NORM(A)=   0.11534866D+01
 Iteration Nr.  13
 **********************
 DD1Dir will call FoFMem   1 times, MxPair=       156
 NAB=    78 NAA=     0 NBB=     0.
 DE(Corr)= -0.75819018     E(CORR)=     -1355.1842279     Delta=-2.88D-07
 NORM(A)=   0.11534871D+01
 Iteration Nr.  14
 **********************
 DD1Dir will call FoFMem   1 times, MxPair=       156
 NAB=    78 NAA=     0 NBB=     0.
 DE(Corr)= -0.75819021     E(CORR)=     -1355.1842279     Delta=-2.85D-08
 NORM(A)=   0.11534873D+01
 Iteration Nr.  15
 **********************
 DD1Dir will call FoFMem   1 times, MxPair=       156
 NAB=    78 NAA=     0 NBB=     0.
 DE(Corr)= -0.75819027     E(CORR)=     -1355.1842280     Delta=-5.54D-08
 NORM(A)=   0.11534874D+01
 Iteration Nr.  16
 **********************
 DD1Dir will call FoFMem   1 times, MxPair=       156
 NAB=    78 NAA=     0 NBB=     0.
 DE(Corr)= -0.75819028     E(CORR)=     -1355.1842280     Delta=-1.21D-08
 NORM(A)=   0.11534874D+01
 Iteration Nr.  17
 **********************
 DD1Dir will call FoFMem   1 times, MxPair=       156
 NAB=    78 NAA=     0 NBB=     0.
 DE(Corr)= -0.75819028     E(CORR)=     -1355.1842280     Delta= 4.88D-10
 NORM(A)=   0.11534874D+01
 Iteration Nr.  18
 **********************
 DD1Dir will call FoFMem   1 times, MxPair=       156
 NAB=    78 NAA=     0 NBB=     0.
 DE(Corr)= -0.75819028     E(CORR)=     -1355.1842280     Delta=-4.43D-09
 NORM(A)=   0.11534874D+01
 Iteration Nr.  19
 **********************
 DD1Dir will call FoFMem   1 times, MxPair=       156
 NAB=    78 NAA=     0 NBB=     0.
 DE(Corr)= -0.75819028     E(CORR)=     -1355.1842280     Delta= 1.08D-09
 NORM(A)=   0.11534874D+01
 Largest amplitude= 8.90D-02

 Z-AMPLITUDE ITERATIONS

 Iteration Nr.   1
 **********************
 DD1Dir will call FoFMem   1 times, MxPair=       156
 NAB=    78 NAA=     0 NBB=     0.
 DE(Z)  -0.72635487D+00          E(Z)=    -0.13551523926D+04
 NORM(A)=   0.11534796D+01
 Iteration Nr.   2
 **********************
 DD1Dir will call FoFMem   1 times, MxPair=       156
 NAB=    78 NAA=     0 NBB=     0.
 DE(Z)  -0.72635466D+00          E(Z)=    -0.13551523924D+04
 NORM(A)=   0.11534834D+01
 Iteration Nr.   3
 **********************
 DD1Dir will call FoFMem   1 times, MxPair=       156
 NAB=    78 NAA=     0 NBB=     0.
 DE(Z)  -0.72635476D+00          E(Z)=    -0.13551523925D+04
 NORM(A)=   0.11534884D+01
 Iteration Nr.   4
 **********************
 DD1Dir will call FoFMem   1 times, MxPair=       156
 NAB=    78 NAA=     0 NBB=     0.
 DE(Z)  -0.72635490D+00          E(Z)=    -0.13551523926D+04
 NORM(A)=   0.11534888D+01
 Iteration Nr.   5
 **********************
 DD1Dir will call FoFMem   1 times, MxPair=       156
 NAB=    78 NAA=     0 NBB=     0.
 DE(Z)  -0.72635491D+00          E(Z)=    -0.13551523926D+04
 NORM(A)=   0.11403150D+01
 Iteration Nr.   6
 **********************
 DD1Dir will call FoFMem   1 times, MxPair=       156
 NAB=    78 NAA=     0 NBB=     0.
 DE(Z)  -0.72597652D+00          E(Z)=    -0.13551520142D+04
 NORM(A)=   0.11402676D+01
 Iteration Nr.   7
 **********************
 DD1Dir will call FoFMem   1 times, MxPair=       156
 NAB=    78 NAA=     0 NBB=     0.
 DE(Z)  -0.72596720D+00          E(Z)=    -0.13551520049D+04
 NORM(A)=   0.11402557D+01
 Iteration Nr.   8
 **********************
 DD1Dir will call FoFMem   1 times, MxPair=       156
 NAB=    78 NAA=     0 NBB=     0.
 DE(Z)  -0.72596811D+00          E(Z)=    -0.13551520058D+04
 NORM(A)=   0.11402541D+01
 Iteration Nr.   9
 **********************
 DD1Dir will call FoFMem   1 times, MxPair=       156
 NAB=    78 NAA=     0 NBB=     0.
 DE(Z)  -0.72596664D+00          E(Z)=    -0.13551520044D+04
 NORM(A)=   0.11402551D+01
 Iteration Nr.  10
 **********************
 DD1Dir will call FoFMem   1 times, MxPair=       156
 NAB=    78 NAA=     0 NBB=     0.
 DE(Z)  -0.72596754D+00          E(Z)=    -0.13551520053D+04
 NORM(A)=   0.11402558D+01
 Iteration Nr.  11
 **********************
 DD1Dir will call FoFMem   1 times, MxPair=       156
 NAB=    78 NAA=     0 NBB=     0.
 DE(Z)  -0.72596746D+00          E(Z)=    -0.13551520052D+04
 NORM(A)=   0.11402560D+01
 Iteration Nr.  12
 **********************
 DD1Dir will call FoFMem   1 times, MxPair=       156
 NAB=    78 NAA=     0 NBB=     0.
 DE(Z)  -0.72596745D+00          E(Z)=    -0.13551520052D+04
 NORM(A)=   0.11402562D+01
 Iteration Nr.  13
 **********************
 DD1Dir will call FoFMem   1 times, MxPair=       156
 NAB=    78 NAA=     0 NBB=     0.
 DE(Z)  -0.72596750D+00          E(Z)=    -0.13551520052D+04
 NORM(A)=   0.11402562D+01
 Iteration Nr.  14
 **********************
 DD1Dir will call FoFMem   1 times, MxPair=       156
 NAB=    78 NAA=     0 NBB=     0.
 DE(Z)  -0.72596745D+00          E(Z)=    -0.13551520052D+04
 NORM(A)=   0.11402562D+01
 Iteration Nr.  15
 **********************
 DD1Dir will call FoFMem   1 times, MxPair=       156
 NAB=    78 NAA=     0 NBB=     0.
 DE(Z)  -0.72596747D+00          E(Z)=    -0.13551520052D+04
 NORM(A)=   0.11402562D+01
 Iteration Nr.  16
 **********************
 DD1Dir will call FoFMem   1 times, MxPair=       156
 NAB=    78 NAA=     0 NBB=     0.
 DE(Z)  -0.72596746D+00          E(Z)=    -0.13551520052D+04
 NORM(A)=   0.11402562D+01
 Iteration Nr.  17
 **********************
 DD1Dir will call FoFMem   1 times, MxPair=       156
 NAB=    78 NAA=     0 NBB=     0.
 DE(Z)  -0.72596746D+00          E(Z)=    -0.13551520052D+04
 NORM(A)=   0.11402562D+01
 Discarding MO integrals.
          IDoAtm=1111
          Differentiating once with respect to electric field.
                with respect to dipole field.
          Differentiating once with respect to nuclear coordinates.
          Keep R1 ints in memory in canonical form, NReq=367211145.
          There are     1 degrees of freedom in the 1st order CPHF.  IDoFFX=0.
 LinEq1:  Iter=  0 NonCon=     1 RMS=2.08D-03 Max=6.35D-02
 AX will form     1 AO Fock derivatives at one time.
 LinEq1:  Iter=  1 NonCon=     1 RMS=9.28D-04 Max=1.77D-02
 LinEq1:  Iter=  2 NonCon=     1 RMS=4.11D-04 Max=1.02D-02
 LinEq1:  Iter=  3 NonCon=     1 RMS=1.04D-04 Max=1.79D-03
 LinEq1:  Iter=  4 NonCon=     1 RMS=2.43D-05 Max=7.93D-04
 LinEq1:  Iter=  5 NonCon=     1 RMS=7.93D-06 Max=1.95D-04
 LinEq1:  Iter=  6 NonCon=     1 RMS=2.39D-06 Max=8.95D-05
 LinEq1:  Iter=  7 NonCon=     1 RMS=7.32D-07 Max=1.29D-05
 LinEq1:  Iter=  8 NonCon=     1 RMS=1.36D-07 Max=2.08D-06
 LinEq1:  Iter=  9 NonCon=     1 RMS=2.57D-08 Max=3.76D-07
 LinEq1:  Iter= 10 NonCon=     1 RMS=6.86D-09 Max=1.78D-07
 LinEq1:  Iter= 11 NonCon=     1 RMS=1.41D-09 Max=2.30D-08
 LinEq1:  Iter= 12 NonCon=     1 RMS=3.22D-10 Max=5.47D-09
 LinEq1:  Iter= 13 NonCon=     0 RMS=6.99D-11 Max=8.85D-10
 Linear equations converged to 1.000D-10 1.000D-09 after    13 iterations.
 End of Minotr Frequency-dependent properties file   721 does not exist.
 End of Minotr Frequency-dependent properties file   722 does not exist.
 Calling FoFJK, ICntrl=      2127 FMM=F ISym2X=0 I1Cent= 0 IOpClX= 0 NMat=1 NMatS=1 NMatT=0.
 -------------------------------------------------------------------
 Center     Atomic                   Forces (Hartrees/Bohr)
 Number     Number              X              Y              Z
 -------------------------------------------------------------------
      1        6          -0.000000002    0.000000000   -0.000933456
      2       17           0.000000001   -0.000208649    0.000168627
      3       17           0.000000001    0.000208649    0.000168627
      4       16           0.000000001    0.000000000    0.000596201
 -------------------------------------------------------------------
 Cartesian Forces:  Max     0.000933456 RMS     0.000337976

 GradGradGradGradGradGradGradGradGradGradGradGradGradGradGradGradGradGrad
 Berny optimization.
 Using GEDIIS/GDIIS optimizer.
 Internal  Forces:  Max     0.000596201 RMS     0.000346329
 Search for a local minimum.
 Step number   3 out of a maximum of   20
 All quantities printed in internal units (Hartrees-Bohrs-Radians)
 Mixed Optimization -- En-DIIS/RFO-DIIS
 Update second derivatives using D2CorX and points    1    2    3
 DE= -6.63D-05 DEPred=-7.54D-05 R= 8.78D-01
 SS=  1.41D+00  RLast= 2.28D-02 DXNew= 8.4853D-01 6.8274D-02
 Trust test= 8.78D-01 RLast= 2.28D-02 DXMaxT set to 5.05D-01
 The second derivative matrix:
                          R1        R2        R3        A1        A2
           R1           0.28929
           R2          -0.00611   0.28929
           R3           0.02059   0.02059   0.56602
           A1           0.00467   0.00467   0.00812   0.27803
           A2          -0.00234  -0.00234  -0.00406  -0.01401   0.25701
           A3          -0.00234  -0.00234  -0.00406  -0.01401   0.00701
           D1           0.00000   0.00000   0.00000   0.00000   0.00000
                          A3        D1
           A3           0.25701
           D1           0.00000   0.03460
 ITU=  1  1  0
 Use linear search instead of GDIIS.
     Eigenvalues ---    0.03460   0.25000   0.27686   0.29498   0.29539
     Eigenvalues ---    0.56940
 RFO step:  Lambda=-1.49319303D-06 EMin= 3.46038156D-02
 Quartic linear search produced a step of -0.06714.
 Iteration  1 RMS(Cart)=  0.00125816 RMS(Int)=  0.00000077
 Iteration  2 RMS(Cart)=  0.00000067 RMS(Int)=  0.00000000
 Variable       Old X    -DE/DX   Delta X   Delta X   Delta X     New X
                                 (Linear)    (Quad)   (Total)
    R1        3.27485   0.00008   0.00076  -0.00062   0.00013   3.27499
    R2        3.27485   0.00008   0.00076  -0.00062   0.00013   3.27499
    R3        3.03149   0.00060  -0.00025   0.00125   0.00101   3.03250
    A1        1.94052   0.00056   0.00087   0.00100   0.00187   1.94239
    A2        2.17134  -0.00028  -0.00043  -0.00050  -0.00094   2.17040
    A3        2.17134  -0.00028  -0.00043  -0.00050  -0.00094   2.17040
    D1       -3.14159   0.00000   0.00000   0.00000   0.00000   3.14159
         Item               Value     Threshold  Converged?
 Maximum Force            0.000596     0.000450     NO 
 RMS     Force            0.000346     0.000300     NO 
 Maximum Displacement     0.001841     0.001800     NO 
 RMS     Displacement     0.001258     0.001200     NO 
 Predicted change in Energy=-1.105019D-06
 GradGradGradGradGradGradGradGradGradGradGradGradGradGradGradGradGradGrad

                          Input orientation:                          
 ---------------------------------------------------------------------
 Center     Atomic      Atomic             Coordinates (Angstroms)
 Number     Number       Type             X           Y           Z
 ---------------------------------------------------------------------
      1          6           0        0.000000    0.000000   -0.522914
      2         17           0        0.000000   -1.430735   -1.500900
      3         17           0        0.000000    1.430735   -1.500900
      4         16           0        0.000000    0.000000    1.081815
 ---------------------------------------------------------------------
                    Distance matrix (angstroms):
                    1          2          3          4
     1  C    0.000000
     2  Cl   1.733050   0.000000
     3  Cl   1.733050   2.861471   0.000000
     4  S    1.604729   2.952528   2.952528   0.000000
 Symmetry turned off by external request.
 Stoichiometry    CCl2S
 Framework group  CS[SG(CS),X(Cl2)]
 Deg. of freedom     4
 Full point group                 CS      NOp   2
 Rotational constants (GHZ):      3.5301017      3.4458995      1.7437462
 Standard basis: Aug-CC-pVTZ (5D, 7F)
 Integral buffers will be    131072 words long.
 Raffenetti 1 integral format.
 Two-electron integral symmetry is turned off.
   196 basis functions,   414 primitive gaussians,   232 cartesian basis functions
    28 alpha electrons       28 beta electrons
       nuclear repulsion energy       244.8929695037 Hartrees.
 NAtoms=    4 NActive=    4 NUniq=    4 SFac= 1.00D+00 NAtFMM=   50 NAOKFM=F Big=F
 One-electron integrals computed using PRISM.
 NBasis=   196 RedAO= T  NBF=   196
 NBsUse=   196 1.00D-06 NBFU=   196
 Initial guess read from the read-write file.
 B after Tr=     0.000000    0.000000    0.000000
         Rot=    1.000000    0.000000    0.000000    0.000000 Ang=   0.00 deg.
 Requested convergence on RMS density matrix=1.00D-08 within 128 cycles.
 Requested convergence on MAX density matrix=1.00D-06.
 Requested convergence on             energy=1.00D-06.
 No special actions if energy rises.
 Keep R1 ints in memory in canonical form, NReq=371777346.
 SCF Done:  E(RHF) =  -1354.42602440     A.U. after    8 cycles
             Convg  =    0.6392D-08             -V/T =  2.0001
 ExpMin= 3.51D-02 ExpMax= 4.56D+05 ExpMxC= 1.44D+03 IAcc=3 IRadAn=         5 AccDes= 0.00D+00
 HarFok:  IExCor=  205 AccDes= 0.00D+00 IRadAn=         5 IDoV=-2
 ScaDFX=  1.000000  1.000000  1.000000  1.000000
 DSYEVD returned Info=         101 IAlg= 4 N=    50 NDim=    50 NE2=    21472333 trying DSYEV.
 Range of M.O.s used for correlation:    17   196
 NBasis=   196 NAE=    28 NBE=    28 NFC=    16 NFV=     0
 NROrb=    180 NOA=    12 NOB=    12 NVA=   168 NVB=   168

 **** Warning!!: The largest alpha MO coefficient is  0.31158874D+02

 Semi-Direct transformation.
 ModeAB=           2 MOrb=            12 LenV=    1072679875
 LASXX=     33405819 LTotXX=    33405819 LenRXX=    33405819
 LTotAB=    33954012 MaxLAS=    58380480 LenRXY=    58380480
 NonZer=    66811638 LenScr=   100987392 LnRSAI=           0
 LnScr1=           0 LExtra=           0 Total=    192773691
 MaxDsk=          -1 SrtSym=           F ITran=            4
 JobTyp=0 Pass  1:  I=   1 to  12.
 (rs|ai) integrals will be sorted in core.
 Spin components of T(2) and E(2):
     alpha-alpha T2 =       0.3952970211D-01 E2=     -0.9366364000D-01
     alpha-beta  T2 =       0.2072460950D+00 E2=     -0.5370467413D+00
     beta-beta   T2 =       0.3952970211D-01 E2=     -0.9366364000D-01
 ANorm=    0.1134154090D+01
 E2 =    -0.7243740213D+00 EUMP2 =    -0.13551503984234D+04
 R2 and R3 integrals will be kept in memory, NReq=   736864364.
 Iterations=  50 Convergence= 0.100D-07
 Iteration Nr.   1
 **********************
 DD1Dir will call FoFMem   1 times, MxPair=       156
 NAB=    78 NAA=     0 NBB=     0.
 MP4(R+Q)=  0.24886086D-01
 E3=       -0.32600087D-01        EUMP3=      -0.13551829985D+04
 E4(DQ)=    0.31061875D-02        UMP4(DQ)=   -0.13551798923D+04
 E4(SDQ)=  -0.37169473D-02        UMP4(SDQ)=  -0.13551867155D+04
 DE(Corr)= -0.73208802     E(Corr)=     -1355.1581124    
 NORM(A)=   0.11380816D+01
 Iteration Nr.   2
 **********************
 DD1Dir will call FoFMem   1 times, MxPair=       156
 NAB=    78 NAA=     0 NBB=     0.
 DE(Corr)= -0.75642010     E(CORR)=     -1355.1824445     Delta=-2.43D-02
 NORM(A)=   0.11490803D+01
 Iteration Nr.   3
 **********************
 DD1Dir will call FoFMem   1 times, MxPair=       156
 NAB=    78 NAA=     0 NBB=     0.
 DE(Corr)= -0.75560347     E(CORR)=     -1355.1816279     Delta= 8.17D-04
 NORM(A)=   0.11518235D+01
 Iteration Nr.   4
 **********************
 DD1Dir will call FoFMem   1 times, MxPair=       156
 NAB=    78 NAA=     0 NBB=     0.
 DE(Corr)= -0.75786625     E(CORR)=     -1355.1838907     Delta=-2.26D-03
 NORM(A)=   0.11529006D+01
 Iteration Nr.   5
 **********************
 DD1Dir will call FoFMem   1 times, MxPair=       156
 NAB=    78 NAA=     0 NBB=     0.
 DE(Corr)= -0.75814437     E(CORR)=     -1355.1841688     Delta=-2.78D-04
 NORM(A)=   0.11534379D+01
 Iteration Nr.   6
 **********************
 DD1Dir will call FoFMem   1 times, MxPair=       156
 NAB=    78 NAA=     0 NBB=     0.
 DE(Corr)= -0.75819728     E(CORR)=     -1355.1842217     Delta=-5.29D-05
 NORM(A)=   0.11535009D+01
 Iteration Nr.   7
 **********************
 DD1Dir will call FoFMem   1 times, MxPair=       156
 NAB=    78 NAA=     0 NBB=     0.
 DE(Corr)= -0.75820454     E(CORR)=     -1355.1842289     Delta=-7.26D-06
 NORM(A)=   0.11535063D+01
 Iteration Nr.   8
 **********************
 DD1Dir will call FoFMem   1 times, MxPair=       156
 NAB=    78 NAA=     0 NBB=     0.
 DE(Corr)= -0.75820265     E(CORR)=     -1355.1842270     Delta= 1.90D-06
 NORM(A)=   0.11535128D+01
 Iteration Nr.   9
 **********************
 DD1Dir will call FoFMem   1 times, MxPair=       156
 NAB=    78 NAA=     0 NBB=     0.
 DE(Corr)= -0.75820271     E(CORR)=     -1355.1842271     Delta=-6.32D-08
 NORM(A)=   0.11535117D+01
 Iteration Nr.  10
 **********************
 DD1Dir will call FoFMem   1 times, MxPair=       156
 NAB=    78 NAA=     0 NBB=     0.
 DE(Corr)= -0.75820369     E(CORR)=     -1355.1842281     Delta=-9.83D-07
 NORM(A)=   0.11535135D+01
 Iteration Nr.  11
 **********************
 DD1Dir will call FoFMem   1 times, MxPair=       156
 NAB=    78 NAA=     0 NBB=     0.
 DE(Corr)= -0.75820438     E(CORR)=     -1355.1842288     Delta=-6.89D-07
 NORM(A)=   0.11535145D+01
 Iteration Nr.  12
 **********************
 DD1Dir will call FoFMem   1 times, MxPair=       156
 NAB=    78 NAA=     0 NBB=     0.
 DE(Corr)= -0.75820461     E(CORR)=     -1355.1842290     Delta=-2.25D-07
 NORM(A)=   0.11535153D+01
 Iteration Nr.  13
 **********************
 DD1Dir will call FoFMem   1 times, MxPair=       156
 NAB=    78 NAA=     0 NBB=     0.
 DE(Corr)= -0.75820489     E(CORR)=     -1355.1842293     Delta=-2.88D-07
 NORM(A)=   0.11535157D+01
 Iteration Nr.  14
 **********************
 DD1Dir will call FoFMem   1 times, MxPair=       156
 NAB=    78 NAA=     0 NBB=     0.
 DE(Corr)= -0.75820492     E(CORR)=     -1355.1842293     Delta=-2.87D-08
 NORM(A)=   0.11535159D+01
 Iteration Nr.  15
 **********************
 DD1Dir will call FoFMem   1 times, MxPair=       156
 NAB=    78 NAA=     0 NBB=     0.
 DE(Corr)= -0.75820498     E(CORR)=     -1355.1842294     Delta=-5.54D-08
 NORM(A)=   0.11535160D+01
 Iteration Nr.  16
 **********************
 DD1Dir will call FoFMem   1 times, MxPair=       156
 NAB=    78 NAA=     0 NBB=     0.
 DE(Corr)= -0.75820499     E(CORR)=     -1355.1842294     Delta=-1.21D-08
 NORM(A)=   0.11535161D+01
 Iteration Nr.  17
 **********************
 DD1Dir will call FoFMem   1 times, MxPair=       156
 NAB=    78 NAA=     0 NBB=     0.
 DE(Corr)= -0.75820499     E(CORR)=     -1355.1842294     Delta= 2.48D-10
 NORM(A)=   0.11535161D+01
 Iteration Nr.  18
 **********************
 DD1Dir will call FoFMem   1 times, MxPair=       156
 NAB=    78 NAA=     0 NBB=     0.
 DE(Corr)= -0.75820500     E(CORR)=     -1355.1842294     Delta=-4.79D-09
 NORM(A)=   0.11535161D+01
 Iteration Nr.  19
 **********************
 DD1Dir will call FoFMem   1 times, MxPair=       156
 NAB=    78 NAA=     0 NBB=     0.
 DE(Corr)= -0.75820499     E(CORR)=     -1355.1842294     Delta= 2.31D-09
 NORM(A)=   0.11535161D+01
 Largest amplitude= 8.91D-02

 Z-AMPLITUDE ITERATIONS

 Iteration Nr.   1
 **********************
 DD1Dir will call FoFMem   1 times, MxPair=       156
 NAB=    78 NAA=     0 NBB=     0.
 DE(Z)  -0.72636085D+00          E(Z)=    -0.13551523852D+04
 NORM(A)=   0.11535443D+01
 Iteration Nr.   2
 **********************
 DD1Dir will call FoFMem   1 times, MxPair=       156
 NAB=    78 NAA=     0 NBB=     0.
 DE(Z)  -0.72636160D+00          E(Z)=    -0.13551523860D+04
 NORM(A)=   0.11535683D+01
 Iteration Nr.   3
 **********************
 DD1Dir will call FoFMem   1 times, MxPair=       156
 NAB=    78 NAA=     0 NBB=     0.
 DE(Z)  -0.72636224D+00          E(Z)=    -0.13551523866D+04
 NORM(A)=   0.11535383D+01
 Iteration Nr.   4
 **********************
 DD1Dir will call FoFMem   1 times, MxPair=       156
 NAB=    78 NAA=     0 NBB=     0.
 DE(Z)  -0.72636146D+00          E(Z)=    -0.13551523859D+04
 NORM(A)=   0.11535222D+01
 Iteration Nr.   5
 **********************
 DD1Dir will call FoFMem   1 times, MxPair=       156
 NAB=    78 NAA=     0 NBB=     0.
 DE(Z)  -0.72636102D+00          E(Z)=    -0.13551523854D+04
 NORM(A)=   0.11402832D+01
 Iteration Nr.   6
 **********************
 DD1Dir will call FoFMem   1 times, MxPair=       156
 NAB=    78 NAA=     0 NBB=     0.
 DE(Z)  -0.72597369D+00          E(Z)=    -0.13551519981D+04
 NORM(A)=   0.11402767D+01
 Iteration Nr.   7
 **********************
 DD1Dir will call FoFMem   1 times, MxPair=       156
 NAB=    78 NAA=     0 NBB=     0.
 DE(Z)  -0.72597450D+00          E(Z)=    -0.13551519989D+04
 NORM(A)=   0.11402771D+01
 Iteration Nr.   8
 **********************
 DD1Dir will call FoFMem   1 times, MxPair=       156
 NAB=    78 NAA=     0 NBB=     0.
 DE(Z)  -0.72597375D+00          E(Z)=    -0.13551519982D+04
 NORM(A)=   0.11402772D+01
 Iteration Nr.   9
 **********************
 DD1Dir will call FoFMem   1 times, MxPair=       156
 NAB=    78 NAA=     0 NBB=     0.
 DE(Z)  -0.72597431D+00          E(Z)=    -0.13551519987D+04
 NORM(A)=   0.11402779D+01
 Iteration Nr.  10
 **********************
 DD1Dir will call FoFMem   1 times, MxPair=       156
 NAB=    78 NAA=     0 NBB=     0.
 DE(Z)  -0.72597416D+00          E(Z)=    -0.13551519986D+04
 NORM(A)=   0.11402781D+01
 Iteration Nr.  11
 **********************
 DD1Dir will call FoFMem   1 times, MxPair=       156
 NAB=    78 NAA=     0 NBB=     0.
 DE(Z)  -0.72597416D+00          E(Z)=    -0.13551519986D+04
 NORM(A)=   0.11402782D+01
 Iteration Nr.  12
 **********************
 DD1Dir will call FoFMem   1 times, MxPair=       156
 NAB=    78 NAA=     0 NBB=     0.
 DE(Z)  -0.72597421D+00          E(Z)=    -0.13551519986D+04
 NORM(A)=   0.11402782D+01
 Iteration Nr.  13
 **********************
 DD1Dir will call FoFMem   1 times, MxPair=       156
 NAB=    78 NAA=     0 NBB=     0.
 DE(Z)  -0.72597417D+00          E(Z)=    -0.13551519986D+04
 NORM(A)=   0.11402782D+01
 Iteration Nr.  14
 **********************
 DD1Dir will call FoFMem   1 times, MxPair=       156
 NAB=    78 NAA=     0 NBB=     0.
 DE(Z)  -0.72597418D+00          E(Z)=    -0.13551519986D+04
 NORM(A)=   0.11402781D+01
 Iteration Nr.  15
 **********************
 DD1Dir will call FoFMem   1 times, MxPair=       156
 NAB=    78 NAA=     0 NBB=     0.
 DE(Z)  -0.72597417D+00          E(Z)=    -0.13551519986D+04
 NORM(A)=   0.11402781D+01
 Discarding MO integrals.
          IDoAtm=1111
          Differentiating once with respect to electric field.
                with respect to dipole field.
          Differentiating once with respect to nuclear coordinates.
          Keep R1 ints in memory in canonical form, NReq=367211145.
          There are     1 degrees of freedom in the 1st order CPHF.  IDoFFX=0.
 LinEq1:  Iter=  0 NonCon=     1 RMS=2.08D-03 Max=6.35D-02
 AX will form     1 AO Fock derivatives at one time.
 LinEq1:  Iter=  1 NonCon=     1 RMS=9.28D-04 Max=1.77D-02
 LinEq1:  Iter=  2 NonCon=     1 RMS=4.11D-04 Max=1.02D-02
 LinEq1:  Iter=  3 NonCon=     1 RMS=1.04D-04 Max=1.79D-03
 LinEq1:  Iter=  4 NonCon=     1 RMS=2.44D-05 Max=8.02D-04
 LinEq1:  Iter=  5 NonCon=     1 RMS=7.98D-06 Max=1.97D-04
 LinEq1:  Iter=  6 NonCon=     1 RMS=2.41D-06 Max=8.99D-05
 LinEq1:  Iter=  7 NonCon=     1 RMS=7.34D-07 Max=1.30D-05
 LinEq1:  Iter=  8 NonCon=     1 RMS=1.36D-07 Max=2.09D-06
 LinEq1:  Iter=  9 NonCon=     1 RMS=2.58D-08 Max=3.74D-07
 LinEq1:  Iter= 10 NonCon=     1 RMS=6.84D-09 Max=1.78D-07
 LinEq1:  Iter= 11 NonCon=     1 RMS=1.40D-09 Max=2.30D-08
 LinEq1:  Iter= 12 NonCon=     1 RMS=3.21D-10 Max=5.47D-09
 LinEq1:  Iter= 13 NonCon=     0 RMS=6.97D-11 Max=8.86D-10
 Linear equations converged to 1.000D-10 1.000D-09 after    13 iterations.
 End of Minotr Frequency-dependent properties file   721 does not exist.
 End of Minotr Frequency-dependent properties file   722 does not exist.
 Calling FoFJK, ICntrl=      2127 FMM=F ISym2X=0 I1Cent= 0 IOpClX= 0 NMat=1 NMatS=1 NMatT=0.
 -------------------------------------------------------------------
 Center     Atomic                   Forces (Hartrees/Bohr)
 Number     Number              X              Y              Z
 -------------------------------------------------------------------
      1        6           0.000000002    0.000000000   -0.000424094
      2       17          -0.000000001    0.000025042    0.000087027
      3       17          -0.000000001   -0.000025042    0.000087027
      4       16          -0.000000001    0.000000000    0.000250040
 -------------------------------------------------------------------
 Cartesian Forces:  Max     0.000424094 RMS     0.000146849

 GradGradGradGradGradGradGradGradGradGradGradGradGradGradGradGradGradGrad
 Berny optimization.
 Using GEDIIS/GDIIS optimizer.
 Internal  Forces:  Max     0.000250040 RMS     0.000117155
 Search for a local minimum.
 Step number   4 out of a maximum of   20
 All quantities printed in internal units (Hartrees-Bohrs-Radians)
 Mixed Optimization -- En-DIIS/RFO-DIIS
 Swaping is turned off.
 Update second derivatives using D2CorX and points    1    2    3    4
 DE= -1.39D-06 DEPred=-1.11D-06 R= 1.26D+00
 SS=  1.41D+00  RLast= 2.51D-03 DXNew= 8.4853D-01 7.5268D-03
 Trust test= 1.26D+00 RLast= 2.51D-03 DXMaxT set to 5.05D-01
 The second derivative matrix:
                          R1        R2        R3        A1        A2
           R1           0.29347
           R2          -0.00193   0.29347
           R3           0.03726   0.03726   0.48050
           A1           0.02489   0.02489  -0.05251   0.25489
           A2          -0.01244  -0.01244   0.02625  -0.00245   0.25122
           A3          -0.01244  -0.01244   0.02625  -0.00245   0.00122
           D1           0.00000   0.00000   0.00000   0.00000   0.00000
                          A3        D1
           A3           0.25122
           D1           0.00000   0.03460
 ITU=  1  1  1  0
     Eigenvalues ---    0.03460   0.20328   0.25000   0.29539   0.32058
     Eigenvalues ---    0.50551
 En-DIIS/RFO-DIIS IScMMF=        0 using points:     4    3
 RFO step:  Lambda=-1.84629816D-07.
 DidBck=F Rises=F RFO-DIIS coefs:    1.36445   -0.36445
 Iteration  1 RMS(Cart)=  0.00040854 RMS(Int)=  0.00000012
 Iteration  2 RMS(Cart)=  0.00000014 RMS(Int)=  0.00000000
 Variable       Old X    -DE/DX   Delta X   Delta X   Delta X     New X
                                  (DIIS)     (GDIIS)  (Total)
    R1        3.27499  -0.00007   0.00005  -0.00047  -0.00042   3.27457
    R2        3.27499  -0.00007   0.00005  -0.00047  -0.00042   3.27457
    R3        3.03250   0.00025   0.00037   0.00034   0.00070   3.03320
    A1        1.94239   0.00013   0.00068   0.00003   0.00071   1.94310
    A2        2.17040  -0.00006  -0.00034  -0.00002  -0.00036   2.17004
    A3        2.17040  -0.00006  -0.00034  -0.00002  -0.00036   2.17004
    D1        3.14159   0.00000   0.00000   0.00000   0.00000  -3.14159
         Item               Value     Threshold  Converged?
 Maximum Force            0.000250     0.000450     YES
 RMS     Force            0.000117     0.000300     YES
 Maximum Displacement     0.000777     0.001800     YES
 RMS     Displacement     0.000408     0.001200     YES
 Predicted change in Energy=-1.847320D-07
 Optimization completed.
    -- Stationary point found.
                           ----------------------------
                           !   Optimized Parameters   !
                           ! (Angstroms and Degrees)  !
 --------------------------                            --------------------------
 ! Name  Definition              Value          Derivative Info.                !
 --------------------------------------------------------------------------------
 ! R1    R(1,2)                  1.733          -DE/DX =   -0.0001              !
 ! R2    R(1,3)                  1.733          -DE/DX =   -0.0001              !
 ! R3    R(1,4)                  1.6047         -DE/DX =    0.0003              !
 ! A1    A(2,1,3)              111.2905         -DE/DX =    0.0001              !
 ! A2    A(2,1,4)              124.3548         -DE/DX =   -0.0001              !
 ! A3    A(3,1,4)              124.3548         -DE/DX =   -0.0001              !
 ! D1    D(2,1,4,3)           -180.0            -DE/DX =    0.0                 !
 --------------------------------------------------------------------------------
 GradGradGradGradGradGradGradGradGradGradGradGradGradGradGradGradGradGrad

                          Input orientation:                          
 ---------------------------------------------------------------------
 Center     Atomic      Atomic             Coordinates (Angstroms)
 Number     Number       Type             X           Y           Z
 ---------------------------------------------------------------------
      1          6           0        0.000000    0.000000   -0.522914
      2         17           0        0.000000   -1.430735   -1.500900
      3         17           0        0.000000    1.430735   -1.500900
      4         16           0        0.000000    0.000000    1.081815
 ---------------------------------------------------------------------
                    Distance matrix (angstroms):
                    1          2          3          4
     1  C    0.000000
     2  Cl   1.733050   0.000000
     3  Cl   1.733050   2.861471   0.000000
     4  S    1.604729   2.952528   2.952528   0.000000
 Symmetry turned off by external request.
 Stoichiometry    CCl2S
 Framework group  CS[SG(CS),X(Cl2)]
 Deg. of freedom     4
 Full point group                 CS      NOp   2
 Rotational constants (GHZ):      3.5301017      3.4458995      1.7437462

 **********************************************************************

            Population analysis using the QCI/CC density.

 **********************************************************************

 Alpha  occ. eigenvalues -- -104.88760-104.88760 -91.97803 -11.44947 -10.61161
 Alpha  occ. eigenvalues --  -10.61160  -8.98098  -8.07837  -8.07837  -8.07627
 Alpha  occ. eigenvalues --   -8.07627  -8.07609  -8.07609  -6.66177  -6.66076
 Alpha  occ. eigenvalues --   -6.65927  -1.24302  -1.13392  -1.03990  -0.77141
 Alpha  occ. eigenvalues --   -0.64464  -0.60874  -0.58609  -0.50420  -0.49587
 Alpha  occ. eigenvalues --   -0.47765  -0.40764  -0.38099
 Alpha virt. eigenvalues --    0.01760   0.04856   0.06332   0.06897   0.10063
 Alpha virt. eigenvalues --    0.10090   0.10371   0.11213   0.11750   0.12854
 Alpha virt. eigenvalues --    0.15154   0.15353   0.16225   0.16375   0.16490
 Alpha virt. eigenvalues --    0.21180   0.21719   0.23253   0.26519   0.27059
 Alpha virt. eigenvalues --    0.28118   0.28928   0.30184   0.34377   0.34861
 Alpha virt. eigenvalues --    0.37877   0.38933   0.39845   0.40243   0.42246
 Alpha virt. eigenvalues --    0.44427   0.45461   0.45563   0.46237   0.48088
 Alpha virt. eigenvalues --    0.49027   0.50285   0.50805   0.54002   0.55294
 Alpha virt. eigenvalues --    0.56213   0.65320   0.65629   0.65718   0.70996
 Alpha virt. eigenvalues --    0.72510   0.73109   0.73863   0.74079   0.78494
 Alpha virt. eigenvalues --    0.79058   0.80259   0.80274   0.81676   0.83098
 Alpha virt. eigenvalues --    0.83342   0.86689   0.87415   0.88433   0.88569
 Alpha virt. eigenvalues --    0.91106   0.91959   0.92632   0.94725   0.95506
 Alpha virt. eigenvalues --    0.95819   0.97616   1.02013   1.03169   1.07833
 Alpha virt. eigenvalues --    1.11090   1.11514   1.12001   1.12845   1.17963
 Alpha virt. eigenvalues --    1.18693   1.20913   1.22829   1.28724   1.29513
 Alpha virt. eigenvalues --    1.31233   1.36191   1.39572   1.40412   1.47637
 Alpha virt. eigenvalues --    1.48640   1.52267   1.52913   1.53890   1.54889
 Alpha virt. eigenvalues --    1.61669   1.66293   1.68899   1.71151   1.71555
 Alpha virt. eigenvalues --    1.75233   1.83364   1.83388   1.85289   1.87496
 Alpha virt. eigenvalues --    1.87989   1.90012   1.98031   2.07241   2.07821
 Alpha virt. eigenvalues --    2.14159   2.17560   2.32367   2.32861   2.39128
 Alpha virt. eigenvalues --    2.39355   2.42975   2.44613   2.47256   2.47891
 Alpha virt. eigenvalues --    2.47932   2.53063   2.58186   2.58492   2.59934
 Alpha virt. eigenvalues --    2.60067   2.62400   2.64100   2.65267   2.65388
 Alpha virt. eigenvalues --    2.69601   2.83276   2.83813   2.87505   2.89441
 Alpha virt. eigenvalues --    2.90956   3.02688   3.02824   3.04867   3.05402
 Alpha virt. eigenvalues --    3.05451   3.07611   3.09584   3.13285   3.13426
 Alpha virt. eigenvalues --    3.14095   3.14858   3.19505   3.21572   3.23256
 Alpha virt. eigenvalues --    3.23771   3.35837   3.46757   3.55114   3.64704
 Alpha virt. eigenvalues --    3.70160   3.70644   3.72680   3.76524   3.84465
 Alpha virt. eigenvalues --    3.89288   3.91054   3.96937   4.13458   4.14771
 Alpha virt. eigenvalues --    4.20296   4.24063   4.70573   4.76722   6.45383
 Alpha virt. eigenvalues --    7.21371   7.27058   9.77167
          Condensed to atoms (all electrons):
              1          2          3          4
     1  C    5.673231   0.071284   0.071284   0.179126
     2  Cl   0.071284  17.191991  -0.119038  -0.128558
     3  Cl   0.071284  -0.119038  17.191991  -0.128558
     4  S    0.179126  -0.128558  -0.128558  16.051707
 Mulliken atomic charges:
              1
     1  C    0.005074
     2  Cl  -0.015679
     3  Cl  -0.015679
     4  S    0.026284
 Sum of Mulliken atomic charges =   0.00000
 Mulliken charges with hydrogens summed into heavy atoms:
              1
     1  C    0.005074
     2  Cl  -0.015679
     3  Cl  -0.015679
     4  S    0.026284
 Sum of Mulliken charges with hydrogens summed into heavy atoms =   0.00000
 Electronic spatial extent (au):  <R**2>=            690.6772
 Charge=              0.0000 electrons
 Dipole moment (field-independent basis, Debye):
    X=              0.0000    Y=              0.0000    Z=             -0.4351  Tot=              0.4351
 Quadrupole moment (field-independent basis, Debye-Ang):
   XX=            -43.1530   YY=            -43.2924   ZZ=            -42.5374
   XY=              0.0000   XZ=              0.0000   YZ=              0.0000
 Traceless Quadrupole moment (field-independent basis, Debye-Ang):
   XX=             -0.1587   YY=             -0.2982   ZZ=              0.4569
   XY=              0.0000   XZ=              0.0000   YZ=              0.0000
 Octapole moment (field-independent basis, Debye-Ang**2):
  XXX=              0.0000  YYY=              0.0000  ZZZ=             81.6763  XYY=              0.0000
  XXY=              0.0000  XXZ=             27.1314  XZZ=              0.0000  YZZ=              0.0000
  YYZ=             18.9946  XYZ=              0.0000
 Hexadecapole moment (field-independent basis, Debye-Ang**3):
 XXXX=            -50.8940 YYYY=           -340.4818 ZZZZ=           -477.7190 XXXY=              0.0000
 XXXZ=              0.0000 YYYX=              0.0000 YYYZ=              0.0000 ZZZX=              0.0000
 ZZZY=              0.0000 XXYY=            -69.2256 XXZZ=            -89.7490 YYZZ=           -127.3451
 XXYZ=              0.0000 YYXZ=              0.0000 ZZXY=              0.0000
 N-N= 2.448929695037D+02 E-N=-3.713354862876D+03  KE= 1.355036366817D+03
 1\1\GINC-TRAPISTA\FOpt\RQCISD-FC\Aug-CC-pVTZ\C1Cl2S1\BRUNS\17-Nov-2021
 \0\\#opt qcisd/aug-cc-pvtz density=current nosym\\cl2cs\\0,1\C,-0.0000
 000092,0.,-0.5229140934\Cl,0.0000000028,-1.4307353268,-1.5009004787\Cl
 ,0.0000000028,1.4307353268,-1.5009004787\S,0.0000000035,0.,1.081815050
 7\\Version=EM64L-G09RevB.01\HF=-1354.4260244\MP2=-1355.1503984\MP3=-13
 55.1829985\MP4D=-1355.2047784\MP4DQ=-1355.1798923\MP4SDQ=-1355.1867155
 \QCISD=-1355.1842294\RMSD=6.392e-09\RMSF=1.468e-04\Dipole=0.,0.,-0.171
 1863\Quadrupole=-0.1179917,-0.2216761,0.3396677,0.,0.,0.\PG=CS [SG(C1S
 1),X(Cl2)]\\@


 In the beginning the Universe was created.
 This has made a lot of people very angry
 and been widely regarded as a bad move.
                               -D.Adams
 Job cpu time:  0 days  9 hours 46 minutes 10.0 seconds.
 File lengths (MBytes):  RWF=  18604 Int=      0 D2E=      0 Chk=      4 Scr=      1
 Normal termination of Gaussian 09 at Wed Nov 17 22:07:45 2021.
