 Entering Gaussian System, Link 0=/home/bruns/programas/chemistry/gaussian/g09/g09
 Input=./f2cs/f2cs-fv.com
 Output=./f2cs/f2cs-fv.log
 Initial command:
 /home/bruns/programas/chemistry/gaussian/g09/l1.exe /home/bruns/programas/chemistry/gaussian/work/Gau-69678.inp -scrdir=/home/bruns/programas/chemistry/gaussian/work/
 Entering Link 1 = /home/bruns/programas/chemistry/gaussian/g09/l1.exe PID=     69680.
  
 Copyright (c) 1988,1990,1992,1993,1995,1998,2003,2009,2010,
            Gaussian, Inc.  All Rights Reserved.
  
 This is part of the Gaussian(R) 09 program.  It is based on
 the Gaussian(R) 03 system (copyright 2003, Gaussian, Inc.),
 the Gaussian(R) 98 system (copyright 1998, Gaussian, Inc.),
 the Gaussian(R) 94 system (copyright 1995, Gaussian, Inc.),
 the Gaussian 92(TM) system (copyright 1992, Gaussian, Inc.),
 the Gaussian 90(TM) system (copyright 1990, Gaussian, Inc.),
 the Gaussian 88(TM) system (copyright 1988, Gaussian, Inc.),
 the Gaussian 86(TM) system (copyright 1986, Carnegie Mellon
 University), and the Gaussian 82(TM) system (copyright 1983,
 Carnegie Mellon University). Gaussian is a federally registered
 trademark of Gaussian, Inc.
  
 This software contains proprietary and confidential information,
 including trade secrets, belonging to Gaussian, Inc.
  
 This software is provided under written license and may be
 used, copied, transmitted, or stored only in accord with that
 written license.
  
 The following legend is applicable only to US Government
 contracts under FAR:
  
                    RESTRICTED RIGHTS LEGEND
  
 Use, reproduction and disclosure by the US Government is
 subject to restrictions as set forth in subparagraphs (a)
 and (c) of the Commercial Computer Software - Restricted
 Rights clause in FAR 52.227-19.
  
 Gaussian, Inc.
 340 Quinnipiac St., Bldg. 40, Wallingford CT 06492
  
  
 ---------------------------------------------------------------
 Warning -- This program may not be used in any manner that
 competes with the business of Gaussian, Inc. or will provide
 assistance to any competitor of Gaussian, Inc.  The licensee
 of this program is prohibited from giving any competitor of
 Gaussian, Inc. access to this program.  By using this program,
 the user acknowledges that Gaussian, Inc. is engaged in the
 business of creating and licensing software in the field of
 computational chemistry and represents and warrants to the
 licensee that it is not a competitor of Gaussian, Inc. and that
 it will not use this program in any manner prohibited above.
 ---------------------------------------------------------------
  

 Cite this work as:
 Gaussian 09, Revision B.01,
 M. J. Frisch, G. W. Trucks, H. B. Schlegel, G. E. Scuseria, 
 M. A. Robb, J. R. Cheeseman, G. Scalmani, V. Barone, B. Mennucci, 
 G. A. Petersson, H. Nakatsuji, M. Caricato, X. Li, H. P. Hratchian, 
 A. F. Izmaylov, J. Bloino, G. Zheng, J. L. Sonnenberg, M. Hada, 
 M. Ehara, K. Toyota, R. Fukuda, J. Hasegawa, M. Ishida, T. Nakajima, 
 Y. Honda, O. Kitao, H. Nakai, T. Vreven, J. A. Montgomery, Jr., 
 J. E. Peralta, F. Ogliaro, M. Bearpark, J. J. Heyd, E. Brothers, 
 K. N. Kudin, V. N. Staroverov, T. Keith, R. Kobayashi, J. Normand, 
 K. Raghavachari, A. Rendell, J. C. Burant, S. S. Iyengar, J. Tomasi, 
 M. Cossi, N. Rega, J. M. Millam, M. Klene, J. E. Knox, J. B. Cross, 
 V. Bakken, C. Adamo, J. Jaramillo, R. Gomperts, R. E. Stratmann, 
 O. Yazyev, A. J. Austin, R. Cammi, C. Pomelli, J. W. Ochterski, 
 R. L. Martin, K. Morokuma, V. G. Zakrzewski, G. A. Voth, 
 P. Salvador, J. J. Dannenberg, S. Dapprich, A. D. Daniels, 
 O. Farkas, J. B. Foresman, J. V. Ortiz, J. Cioslowski, 
 and D. J. Fox, Gaussian, Inc., Wallingford CT, 2010.
 
 ******************************************
 Gaussian 09:  EM64L-G09RevB.01 12-Aug-2010
                17-Nov-2021 
 ******************************************
 %nproc=8
 Will use up to    8 processors via shared memory.
 %mem=8GB
 ----------------------------------------------------------------------
 #freq=noraman qcisd/aug-cc-pvtz density=current iop(7/33=1) nosym form
 check=forcecart
 ----------------------------------------------------------------------
 1/10=4,30=1,38=11/1,3,6;
 2/12=2,15=1,17=6,18=5,40=1/2;
 3/5=16,6=1,7=10,11=9,16=1,25=1,30=1,71=1/1,2,3;
 4/69=2/1;
 5/5=2,38=5,98=1/2;
 8/6=4,9=120000,10=1/1,4;
 9/5=8,15=1/13;
 11/28=-7,29=200,31=1,42=3/11;
 10/5=6,31=1/2;
 6/7=2,8=2,9=2,10=2,22=-1/1;
 7/12=7,30=1,33=1/1,2,3,16;
 1/38=10/6(3);
 7/8=1,25=1,30=1,33=1,44=-1/16;
 1/10=4,30=1,38=10/3;
 99//99;
 3/5=16,6=1,7=10,11=9,16=1,25=1,30=1,71=1/1,2,3;
 4/5=5,16=3,69=2/1;
 5/5=2,38=5,98=1/2;
 8/6=4,9=120000,10=1/1,4;
 9/5=8,15=1/13;
 11/28=-7,29=200,31=1,42=3/11;
 10/5=6,31=1/2;
 6/7=2,8=2,9=2,10=2,22=-1/1;
 7/7=1,12=7,30=1,33=1/1,2,3,16;
 1/38=10/6(-9);
 7/8=1,25=1,30=1,33=1,44=-1/16;
 1/10=4,30=1,38=10/3;
 99//99;
 ----------------
 f2cs-frequencies
 ----------------
 Symbolic Z-matrix:
 Charge =  0 Multiplicity = 1
 C                     0.        0.       -0.52035 
 S                     0.        0.        1.07852 
 F                     0.       -1.05522  -1.29554 
 F                     0.        1.05522  -1.29554 
 

 GradGradGradGradGradGradGradGradGradGradGradGradGradGradGradGradGradGrad
 Berny optimization.
 Initialization pass.
 Trust Radius=3.00D-01 FncErr=1.00D-07 GrdErr=1.00D-07
 Number of steps in this run=      2 maximum allowed number of steps=      2.
 GradGradGradGradGradGradGradGradGradGradGradGradGradGradGradGradGradGrad

 NDeriv=  12 NFrqRd=  0 LFDDif=       1
 Numerical evaluation of force-constants.
 Nuclear step= 0.001000 Angstroms, electric field step= 0.000333 atomic units, NStep=1.
                          Input orientation:                          
 ---------------------------------------------------------------------
 Center     Atomic      Atomic             Coordinates (Angstroms)
 Number     Number       Type             X           Y           Z
 ---------------------------------------------------------------------
      1          6           0        0.000000    0.000000   -0.520349
      2         16           0        0.000000    0.000000    1.078525
      3          9           0        0.000000   -1.055221   -1.295538
      4          9           0        0.000000    1.055221   -1.295538
 ---------------------------------------------------------------------
                    Distance matrix (angstroms):
                    1          2          3          4
     1  C    0.000000
     2  S    1.598874   0.000000
     3  F    1.309355   2.598012   0.000000
     4  F    1.309355   2.598012   2.110442   0.000000
 Symmetry turned off by external request.
 Stoichiometry    CF2S
 Framework group  C2V[C2(CS),SGV(F2)]
 Deg. of freedom     3
 Full point group                 C2V     NOp   4
 Rotational constants (GHZ):     11.9449201      5.1130871      3.5804544
 Standard basis: Aug-CC-pVTZ (5D, 7F)
 Integral buffers will be    131072 words long.
 Raffenetti 1 integral format.
 Two-electron integral symmetry is turned off.
   188 basis functions,   330 primitive gaussians,   224 cartesian basis functions
    20 alpha electrons       20 beta electrons
       nuclear repulsion energy       154.3928582966 Hartrees.
 NAtoms=    4 NActive=    4 NUniq=    4 SFac= 1.00D+00 NAtFMM=   50 NAOKFM=F Big=F
 One-electron integrals computed using PRISM.
 NBasis=   188 RedAO= T  NBF=   188
 NBsUse=   188 1.00D-06 NBFU=   188
 Harris functional with IExCor=  205 diagonalized for initial guess.
 ExpMin= 3.51D-02 ExpMax= 3.74D+05 ExpMxC= 1.18D+03 IAcc=3 IRadAn=         0 AccDes= 0.00D+00
 HarFok:  IExCor=  205 AccDes= 0.00D+00 IRadAn=         0 IDoV= 1
 ScaDFX=  1.000000  1.000000  1.000000  1.000000
 FoFCou: FMM=F IPFlag=           0 FMFlag=      100000 FMFlg1=           0
         NFxFlg=           0 DoJE=T BraDBF=F KetDBF=T FulRan=T
         Omega=  0.000000  0.000000  1.000000  0.000000  0.000000 ICntrl=     500 IOpCl=  0
         NMat0=    1 NMatS0=    1 NMatT0=    0 NMatD0=    1 NMtDS0=    0 NMtDT0=    0
         I1Cent=           4 NGrid=           0.
 Symmetry not used in FoFCou.
 Requested convergence on RMS density matrix=1.00D-08 within 128 cycles.
 Requested convergence on MAX density matrix=1.00D-06.
 Requested convergence on             energy=1.00D-06.
 No special actions if energy rises.
 Keep R1 ints in memory in canonical form, NReq=323399632.
 SCF Done:  E(RHF) =  -634.356870457     A.U. after   12 cycles
             Convg  =    0.7679D-08             -V/T =  2.0005
 ExpMin= 3.51D-02 ExpMax= 3.74D+05 ExpMxC= 1.18D+03 IAcc=3 IRadAn=         5 AccDes= 0.00D+00
 HarFok:  IExCor=  205 AccDes= 0.00D+00 IRadAn=         5 IDoV=-2
 ScaDFX=  1.000000  1.000000  1.000000  1.000000
 DSYEVD returned Info=          93 IAlg= 4 N=    46 NDim=    46 NE2=    21472498 trying DSYEV.
 Range of M.O.s used for correlation:     9   188
 NBasis=   188 NAE=    20 NBE=    20 NFC=     8 NFV=     0
 NROrb=    180 NOA=    12 NOB=    12 NVA=   168 NVB=   168

 **** Warning!!: The largest alpha MO coefficient is  0.26786365D+02

 Semi-Direct transformation.
 ModeAB=           2 MOrb=            12 LenV=    1072746531
 LASXX=     33405819 LTotXX=    33405819 LenRXX=    33405819
 LTotAB=    33954012 MaxLAS=    54432000 LenRXY=    54432000
 NonZer=    66811638 LenScr=   100987392 LnRSAI=           0
 LnScr1=           0 LExtra=           0 Total=    188825211
 MaxDsk=          -1 SrtSym=           F ITran=            4
 JobTyp=0 Pass  1:  I=   1 to  12.
 (rs|ai) integrals will be sorted in core.
 Spin components of T(2) and E(2):
     alpha-alpha T2 =       0.3014340084D-01 E2=     -0.1104082433D+00
     alpha-beta  T2 =       0.1598226644D+00 E2=     -0.6187182530D+00
     beta-beta   T2 =       0.3014340084D-01 E2=     -0.1104082433D+00
 ANorm=    0.1104585654D+01
 E2 =    -0.8395347396D+00 EUMP2 =    -0.63519640519629D+03
 R2 and R3 integrals will be kept in memory, NReq=   640760400.
 Iterations=  50 Convergence= 0.100D-07
 Iteration Nr.   1
 **********************
 DD1Dir will call FoFMem   1 times, MxPair=       156
 NAB=    78 NAA=     0 NBB=     0.
 MP4(R+Q)=  0.19352800D-01
 E3=       -0.33857009D-02        EUMP3=      -0.63519979090D+03
 E4(DQ)=    0.24272740D-02        UMP4(DQ)=   -0.63519736362D+03
 E4(SDQ)=  -0.84301923D-02        UMP4(SDQ)=  -0.63520822109D+03
 DE(Corr)= -0.82356764     E(Corr)=     -635.18043810    
 NORM(A)=   0.11038521D+01
 Iteration Nr.   2
 **********************
 DD1Dir will call FoFMem   1 times, MxPair=       156
 NAB=    78 NAA=     0 NBB=     0.
 DE(Corr)= -0.84925157     E(CORR)=     -635.20612202     Delta=-2.57D-02
 NORM(A)=   0.11127833D+01
 Iteration Nr.   3
 **********************
 DD1Dir will call FoFMem   1 times, MxPair=       156
 NAB=    78 NAA=     0 NBB=     0.
 DE(Corr)= -0.84757747     E(CORR)=     -635.20444793     Delta= 1.67D-03
 NORM(A)=   0.11156252D+01
 Iteration Nr.   4
 **********************
 DD1Dir will call FoFMem   1 times, MxPair=       156
 NAB=    78 NAA=     0 NBB=     0.
 DE(Corr)= -0.85010858     E(CORR)=     -635.20697904     Delta=-2.53D-03
 NORM(A)=   0.11167363D+01
 Iteration Nr.   5
 **********************
 DD1Dir will call FoFMem   1 times, MxPair=       156
 NAB=    78 NAA=     0 NBB=     0.
 DE(Corr)= -0.85040980     E(CORR)=     -635.20728025     Delta=-3.01D-04
 NORM(A)=   0.11170622D+01
 Iteration Nr.   6
 **********************
 DD1Dir will call FoFMem   1 times, MxPair=       156
 NAB=    78 NAA=     0 NBB=     0.
 DE(Corr)= -0.85044928     E(CORR)=     -635.20731974     Delta=-3.95D-05
 NORM(A)=   0.11171107D+01
 Iteration Nr.   7
 **********************
 DD1Dir will call FoFMem   1 times, MxPair=       156
 NAB=    78 NAA=     0 NBB=     0.
 DE(Corr)= -0.85045358     E(CORR)=     -635.20732404     Delta=-4.30D-06
 NORM(A)=   0.11171105D+01
 Iteration Nr.   8
 **********************
 DD1Dir will call FoFMem   1 times, MxPair=       156
 NAB=    78 NAA=     0 NBB=     0.
 DE(Corr)= -0.85045220     E(CORR)=     -635.20732265     Delta= 1.38D-06
 NORM(A)=   0.11171157D+01
 Iteration Nr.   9
 **********************
 DD1Dir will call FoFMem   1 times, MxPair=       156
 NAB=    78 NAA=     0 NBB=     0.
 DE(Corr)= -0.85045189     E(CORR)=     -635.20732234     Delta= 3.11D-07
 NORM(A)=   0.11171158D+01
 Iteration Nr.  10
 **********************
 DD1Dir will call FoFMem   1 times, MxPair=       156
 NAB=    78 NAA=     0 NBB=     0.
 DE(Corr)= -0.85045198     E(CORR)=     -635.20732244     Delta=-9.57D-08
 NORM(A)=   0.11171173D+01
 Iteration Nr.  11
 **********************
 DD1Dir will call FoFMem   1 times, MxPair=       156
 NAB=    78 NAA=     0 NBB=     0.
 DE(Corr)= -0.85045272     E(CORR)=     -635.20732317     Delta=-7.33D-07
 NORM(A)=   0.11171187D+01
 Iteration Nr.  12
 **********************
 DD1Dir will call FoFMem   1 times, MxPair=       156
 NAB=    78 NAA=     0 NBB=     0.
 DE(Corr)= -0.85045295     E(CORR)=     -635.20732341     Delta=-2.38D-07
 NORM(A)=   0.11171194D+01
 Iteration Nr.  13
 **********************
 DD1Dir will call FoFMem   1 times, MxPair=       156
 NAB=    78 NAA=     0 NBB=     0.
 DE(Corr)= -0.85045322     E(CORR)=     -635.20732367     Delta=-2.64D-07
 NORM(A)=   0.11171199D+01
 Iteration Nr.  14
 **********************
 DD1Dir will call FoFMem   1 times, MxPair=       156
 NAB=    78 NAA=     0 NBB=     0.
 DE(Corr)= -0.85045328     E(CORR)=     -635.20732373     Delta=-5.95D-08
 NORM(A)=   0.11171200D+01
 Iteration Nr.  15
 **********************
 DD1Dir will call FoFMem   1 times, MxPair=       156
 NAB=    78 NAA=     0 NBB=     0.
 DE(Corr)= -0.85045332     E(CORR)=     -635.20732377     Delta=-3.91D-08
 NORM(A)=   0.11171201D+01
 Iteration Nr.  16
 **********************
 DD1Dir will call FoFMem   1 times, MxPair=       156
 NAB=    78 NAA=     0 NBB=     0.
 DE(Corr)= -0.85045333     E(CORR)=     -635.20732378     Delta=-1.11D-08
 NORM(A)=   0.11171201D+01
 Iteration Nr.  17
 **********************
 DD1Dir will call FoFMem   1 times, MxPair=       156
 NAB=    78 NAA=     0 NBB=     0.
 DE(Corr)= -0.85045333     E(CORR)=     -635.20732378     Delta= 1.60D-09
 NORM(A)=   0.11171201D+01
 Iteration Nr.  18
 **********************
 DD1Dir will call FoFMem   1 times, MxPair=       156
 NAB=    78 NAA=     0 NBB=     0.
 DE(Corr)= -0.85045333     E(CORR)=     -635.20732378     Delta=-1.25D-09
 NORM(A)=   0.11171201D+01
 Largest amplitude= 8.52D-02

 Z-AMPLITUDE ITERATIONS

 Iteration Nr.   1
 **********************
 DD1Dir will call FoFMem   1 times, MxPair=       156
 NAB=    78 NAA=     0 NBB=     0.
 DE(Z)  -0.82655013D+00          E(Z)=    -0.63518342058D+03
 NORM(A)=   0.11171266D+01
 Iteration Nr.   2
 **********************
 DD1Dir will call FoFMem   1 times, MxPair=       156
 NAB=    78 NAA=     0 NBB=     0.
 DE(Z)  -0.82655014D+00          E(Z)=    -0.63518342060D+03
 NORM(A)=   0.11171326D+01
 Iteration Nr.   3
 **********************
 DD1Dir will call FoFMem   1 times, MxPair=       156
 NAB=    78 NAA=     0 NBB=     0.
 DE(Z)  -0.82655032D+00          E(Z)=    -0.63518342078D+03
 NORM(A)=   0.11171237D+01
 Iteration Nr.   4
 **********************
 DD1Dir will call FoFMem   1 times, MxPair=       156
 NAB=    78 NAA=     0 NBB=     0.
 DE(Z)  -0.82655017D+00          E(Z)=    -0.63518342063D+03
 NORM(A)=   0.11171248D+01
 Iteration Nr.   5
 **********************
 DD1Dir will call FoFMem   1 times, MxPair=       156
 NAB=    78 NAA=     0 NBB=     0.
 DE(Z)  -0.82655021D+00          E(Z)=    -0.63518342066D+03
 NORM(A)=   0.11091834D+01
 Iteration Nr.   6
 **********************
 DD1Dir will call FoFMem   1 times, MxPair=       156
 NAB=    78 NAA=     0 NBB=     0.
 DE(Z)  -0.82629167D+00          E(Z)=    -0.63518316212D+03
 NORM(A)=   0.11087681D+01
 Iteration Nr.   7
 **********************
 DD1Dir will call FoFMem   1 times, MxPair=       156
 NAB=    78 NAA=     0 NBB=     0.
 DE(Z)  -0.82640478D+00          E(Z)=    -0.63518327523D+03
 NORM(A)=   0.11088685D+01
 Iteration Nr.   8
 **********************
 DD1Dir will call FoFMem   1 times, MxPair=       156
 NAB=    78 NAA=     0 NBB=     0.
 DE(Z)  -0.82641816D+00          E(Z)=    -0.63518328862D+03
 NORM(A)=   0.11088797D+01
 Iteration Nr.   9
 **********************
 DD1Dir will call FoFMem   1 times, MxPair=       156
 NAB=    78 NAA=     0 NBB=     0.
 DE(Z)  -0.82641025D+00          E(Z)=    -0.63518328071D+03
 NORM(A)=   0.11088786D+01
 Iteration Nr.  10
 **********************
 DD1Dir will call FoFMem   1 times, MxPair=       156
 NAB=    78 NAA=     0 NBB=     0.
 DE(Z)  -0.82640982D+00          E(Z)=    -0.63518328027D+03
 NORM(A)=   0.11088786D+01
 Iteration Nr.  11
 **********************
 DD1Dir will call FoFMem   1 times, MxPair=       156
 NAB=    78 NAA=     0 NBB=     0.
 DE(Z)  -0.82640951D+00          E(Z)=    -0.63518327996D+03
 NORM(A)=   0.11088785D+01
 Iteration Nr.  12
 **********************
 DD1Dir will call FoFMem   1 times, MxPair=       156
 NAB=    78 NAA=     0 NBB=     0.
 DE(Z)  -0.82640952D+00          E(Z)=    -0.63518327998D+03
 NORM(A)=   0.11088785D+01
 Iteration Nr.  13
 **********************
 DD1Dir will call FoFMem   1 times, MxPair=       156
 NAB=    78 NAA=     0 NBB=     0.
 DE(Z)  -0.82640949D+00          E(Z)=    -0.63518327995D+03
 NORM(A)=   0.11088785D+01
 Iteration Nr.  14
 **********************
 DD1Dir will call FoFMem   1 times, MxPair=       156
 NAB=    78 NAA=     0 NBB=     0.
 DE(Z)  -0.82640952D+00          E(Z)=    -0.63518327997D+03
 NORM(A)=   0.11088785D+01
 Iteration Nr.  15
 **********************
 DD1Dir will call FoFMem   1 times, MxPair=       156
 NAB=    78 NAA=     0 NBB=     0.
 DE(Z)  -0.82640950D+00          E(Z)=    -0.63518327996D+03
 NORM(A)=   0.11088785D+01
 Iteration Nr.  16
 **********************
 DD1Dir will call FoFMem   1 times, MxPair=       156
 NAB=    78 NAA=     0 NBB=     0.
 DE(Z)  -0.82640951D+00          E(Z)=    -0.63518327997D+03
 NORM(A)=   0.11088785D+01
 Discarding MO integrals.
          IDoAtm=1111
          Differentiating once with respect to electric field.
                with respect to dipole field.
          Differentiating once with respect to nuclear coordinates.
          Keep R1 ints in memory in canonical form, NReq=319473803.
          There are     1 degrees of freedom in the 1st order CPHF.  IDoFFX=0.
 LinEq1:  Iter=  0 NonCon=     1 RMS=2.85D-03 Max=7.75D-02
 AX will form     1 AO Fock derivatives at one time.
 LinEq1:  Iter=  1 NonCon=     1 RMS=8.84D-04 Max=1.23D-02
 LinEq1:  Iter=  2 NonCon=     1 RMS=4.03D-04 Max=1.29D-02
 LinEq1:  Iter=  3 NonCon=     1 RMS=1.09D-04 Max=2.39D-03
 LinEq1:  Iter=  4 NonCon=     1 RMS=2.69D-05 Max=6.37D-04
 LinEq1:  Iter=  5 NonCon=     1 RMS=6.77D-06 Max=1.03D-04
 LinEq1:  Iter=  6 NonCon=     1 RMS=2.67D-06 Max=5.71D-05
 LinEq1:  Iter=  7 NonCon=     1 RMS=8.32D-07 Max=1.52D-05
 LinEq1:  Iter=  8 NonCon=     1 RMS=1.67D-07 Max=2.33D-06
 LinEq1:  Iter=  9 NonCon=     1 RMS=3.13D-08 Max=3.73D-07
 LinEq1:  Iter= 10 NonCon=     1 RMS=6.21D-09 Max=7.38D-08
 LinEq1:  Iter= 11 NonCon=     1 RMS=9.85D-10 Max=1.58D-08
 LinEq1:  Iter= 12 NonCon=     1 RMS=1.41D-10 Max=1.93D-09
 LinEq1:  Iter= 13 NonCon=     0 RMS=2.58D-11 Max=2.91D-10
 Linear equations converged to 1.000D-10 1.000D-09 after    13 iterations.
 End of Minotr Frequency-dependent properties file   721 does not exist.
 End of Minotr Frequency-dependent properties file   722 does not exist.

 **********************************************************************

            Population analysis using the QCI/CC density.

 **********************************************************************

 Alpha  occ. eigenvalues --  -91.97613 -26.39009 -26.39007 -11.51898  -8.97975
 Alpha  occ. eigenvalues --   -6.66098  -6.65935  -6.65814  -1.75538  -1.68122
 Alpha  occ. eigenvalues --   -1.09885  -0.92971  -0.84409  -0.80259  -0.77541
 Alpha  occ. eigenvalues --   -0.72174  -0.70145  -0.59709  -0.43113  -0.40182
 Alpha virt. eigenvalues --    0.05279   0.05518   0.06433   0.08647   0.08686
 Alpha virt. eigenvalues --    0.10318   0.10818   0.12189   0.19610   0.20459
 Alpha virt. eigenvalues --    0.20849   0.23046   0.23428   0.26352   0.27025
 Alpha virt. eigenvalues --    0.27356   0.28389   0.29093   0.29408   0.29787
 Alpha virt. eigenvalues --    0.35826   0.36513   0.41254   0.41888   0.44977
 Alpha virt. eigenvalues --    0.46730   0.47980   0.51696   0.51932   0.53099
 Alpha virt. eigenvalues --    0.53100   0.62322   0.63496   0.66026   0.69881
 Alpha virt. eigenvalues --    0.73065   0.73518   0.74720   0.76549   0.77698
 Alpha virt. eigenvalues --    0.85044   0.85514   0.88442   0.89870   0.90686
 Alpha virt. eigenvalues --    0.96075   0.96113   1.02111   1.03760   1.07775
 Alpha virt. eigenvalues --    1.09119   1.10832   1.11275   1.12404   1.14889
 Alpha virt. eigenvalues --    1.14991   1.17536   1.19647   1.23184   1.25754
 Alpha virt. eigenvalues --    1.28115   1.32661   1.34904   1.39893   1.42785
 Alpha virt. eigenvalues --    1.44573   1.49611   1.53748   1.57403   1.65003
 Alpha virt. eigenvalues --    1.68046   1.70388   1.70796   1.71635   1.73822
 Alpha virt. eigenvalues --    1.78914   1.99691   2.03587   2.06752   2.07985
 Alpha virt. eigenvalues --    2.11677   2.26991   2.30628   2.32036   2.36355
 Alpha virt. eigenvalues --    2.41565   2.43357   2.43635   2.45858   2.51815
 Alpha virt. eigenvalues --    2.54846   2.58829   2.66478   2.75331   2.80293
 Alpha virt. eigenvalues --    2.84153   2.86225   2.90151   2.92781   2.93785
 Alpha virt. eigenvalues --    2.96805   2.99985   3.00196   3.06923   3.14453
 Alpha virt. eigenvalues --    3.15126   3.17791   3.19207   3.20768   3.32435
 Alpha virt. eigenvalues --    3.32917   3.37563   3.39755   3.45764   3.51483
 Alpha virt. eigenvalues --    3.55004   3.56043   3.63146   3.72920   3.73868
 Alpha virt. eigenvalues --    3.75328   3.75692   3.92813   4.00696   4.11268
 Alpha virt. eigenvalues --    4.19055   4.21575   4.26402   4.43270   4.55371
 Alpha virt. eigenvalues --    4.61060   4.70330   4.74830   4.85957   5.45566
 Alpha virt. eigenvalues --    5.51302   5.69179   5.88527   6.23897   6.59712
 Alpha virt. eigenvalues --    7.20595   8.78887   8.80633   8.86004   8.86926
 Alpha virt. eigenvalues --    8.99745   9.00213   9.10513   9.12516   9.19685
 Alpha virt. eigenvalues --    9.26586   9.27255   9.29488   9.33461   9.33987
 Alpha virt. eigenvalues --    9.36309   9.36569   9.39913   9.45569   9.54837
 Alpha virt. eigenvalues --    9.56216   9.59040   9.71916   9.84818   9.86776
 Alpha virt. eigenvalues --   12.04479  15.07576  16.12359
          Condensed to atoms (all electrons):
              1          2          3          4
     1  C    5.194518   0.242986   0.110522   0.110522
     2  S    0.242986  15.949610  -0.066551  -0.066551
     3  F    0.110522  -0.066551   9.178400  -0.081392
     4  F    0.110522  -0.066551  -0.081392   9.178400
 Mulliken atomic charges:
              1
     1  C    0.341452
     2  S   -0.059494
     3  F   -0.140979
     4  F   -0.140979
 Sum of Mulliken atomic charges =   0.00000
 Mulliken charges with hydrogens summed into heavy atoms:
              1
     1  C    0.341452
     2  S   -0.059494
     3  F   -0.140979
     4  F   -0.140979
 Sum of Mulliken charges with hydrogens summed into heavy atoms =   0.00000
 Electronic spatial extent (au):  <R**2>=            315.2002
 Charge=              0.0000 electrons
 Dipole moment (field-independent basis, Debye):
    X=              0.0000    Y=              0.0000    Z=             -0.2243  Tot=              0.2243
 Quadrupole moment (field-independent basis, Debye-Ang):
   XX=            -27.2810   YY=            -30.1543   ZZ=            -27.9399
   XY=              0.0000   XZ=              0.0000   YZ=              0.0000
 Traceless Quadrupole moment (field-independent basis, Debye-Ang):
   XX=              1.1774   YY=             -1.6959   ZZ=              0.5185
   XY=              0.0000   XZ=              0.0000   YZ=              0.0000
 Octapole moment (field-independent basis, Debye-Ang**2):
  XXX=              0.0000  YYY=              0.0000  ZZZ=              8.7842  XYY=              0.0000
  XXY=              0.0000  XXZ=              0.7522  XZZ=              0.0000  YZZ=              0.0000
  YYZ=              0.8022  XYZ=              0.0000
 Hexadecapole moment (field-independent basis, Debye-Ang**3):
 XXXX=            -28.1326 YYYY=            -96.1674 ZZZZ=           -215.0424 XXXY=              0.0000
 XXXZ=              0.0000 YYYX=              0.0000 YYYZ=              0.0000 ZZZX=              0.0000
 ZZZY=              0.0000 XXYY=            -20.7177 XXZZ=            -40.5190 YYZZ=            -55.6371
 XXYZ=              0.0000 YYXZ=              0.0000 ZZXY=              0.0000
 N-N= 1.543928582966D+02 E-N=-1.820106243139D+03  KE= 6.349953468903D+02
 Use density number 7.
 DipInt: DoE/N= T T RetVal/Mat= T F Init=T NMatP=  1 IDeriv=0 Min/MaxMlt=  1  1
 Entering OneElI...
 Multipole integrals L=1 to 1 MinM= 0 MaxM= 0.
 Requested accuracy = 0.1000D-12
 PrsmSu:  NPrtUS=   1 ThrOK=F IAlg=1 NPAlg=1 LenDen=           0.
 Prism:   IPart=     0 DynPar=F LinDyn=F Incr=          16.
 PRISM was handed  1073432621 working-precision words and  1698 shell-pairs
 IPart=  0 NShTot=        1698 NBatch=          81 AvBLen=        21.0
 PrSmSu:  NxtVal=             17.
 Entering OneElI...
 Calculate overlap and kinetic energy integrals
    NBasis = 224  MinDer = 1  MaxDer = 1
 Requested accuracy = 0.1000D-12
 PrsmSu:  NPrtUS=   8 ThrOK=T IAlg=1 NPAlg=1 LenDen=           0.
 Prism:   IPart=     0 DynPar=F LinDyn=F Incr=           2.
 PRISM was handed   134118960 working-precision words and  1709 shell-pairs
 PRISM was handed   134118960 working-precision words and  1709 shell-pairs
 PRISM was handed   134118960 working-precision words and  1709 shell-pairs
 PRISM was handed   134118960 working-precision words and  1709 shell-pairs
 PRISM was handed   134118960 working-precision words and  1709 shell-pairs
 PRISM was handed   134118960 working-precision words and  1709 shell-pairs
 PRISM was handed   134118960 working-precision words and  1709 shell-pairs
 PRISM was handed   134118960 working-precision words and  1709 shell-pairs
 IPart=  0 NShTot=         254 NBatch=          79 AvBLen=         3.2
 IPart=  7 NShTot=         190 NBatch=          37 AvBLen=         5.1
 IPart=  5 NShTot=         200 NBatch=          38 AvBLen=         5.3
 IPart=  2 NShTot=         223 NBatch=          49 AvBLen=         4.6
 IPart=  1 NShTot=         234 NBatch=          59 AvBLen=         4.0
 IPart=  6 NShTot=         191 NBatch=          37 AvBLen=         5.2
 IPart=  4 NShTot=         200 NBatch=          38 AvBLen=         5.3
 IPart=  3 NShTot=         217 NBatch=          43 AvBLen=         5.0
 PrSmSu:  NxtVal=             17.
 Entering OneElI...
 Calculate potential energy integrals
    NBasis = 224  MinDer = 1  MaxDer = 1
 Requested accuracy = 0.1000D-12
 PrsmSu:  NPrtUS=   8 ThrOK=T IAlg=1 NPAlg=1 LenDen=           0.
 Prism:   IPart=     0 DynPar=F LinDyn=F Incr=           8.
 PRISM was handed   134131909 working-precision words and  1684 shell-pairs
 PRISM was handed   134131909 working-precision words and  1684 shell-pairs
 PRISM was handed   134131909 working-precision words and  1684 shell-pairs
 PRISM was handed   134131909 working-precision words and  1684 shell-pairs
 PRISM was handed   134131909 working-precision words and  1684 shell-pairs
 PRISM was handed   134131909 working-precision words and  1684 shell-pairs
 PRISM was handed   134131909 working-precision words and  1684 shell-pairs
 PRISM was handed   134131909 working-precision words and  1684 shell-pairs
 IPart=  7 NShTot=         744 NBatch=         186 AvBLen=         4.0
 IPart=  5 NShTot=         784 NBatch=         196 AvBLen=         4.0
 IPart=  0 NShTot=        1008 NBatch=         252 AvBLen=         4.0
 IPart=  2 NShTot=         864 NBatch=         216 AvBLen=         4.0
 IPart=  1 NShTot=         960 NBatch=         240 AvBLen=         4.0
 IPart=  6 NShTot=         748 NBatch=         187 AvBLen=         4.0
 IPart=  3 NShTot=         840 NBatch=         210 AvBLen=         4.0
 IPart=  4 NShTot=         788 NBatch=         197 AvBLen=         4.0
 PrSmSu:  NxtVal=             65.
 l701 out
 I=    0 X=   0.000000000000D+00 Y=   0.000000000000D+00 Z=  -8.825252254130D-02
 I=    1 X=   0.000000000000D+00 Y=   0.000000000000D+00 Z=  -5.316384573566D+00
 I=    2 X=   0.000000000000D+00 Y=   0.000000000000D+00 Z=   2.571247206562D+01
 I=    3 X=   0.000000000000D+00 Y=  -1.466262917515D+01 Z=  -1.019804374607D+01
 I=    4 X=   0.000000000000D+00 Y=   1.466262917527D+01 Z=  -1.019804374598D+01
 ICntrl=      2127.
 Calling FoFJK, ICntrl=      2127 FMM=F ISym2X=0 I1Cent= 0 IOpClX= 0 NMat=1 NMatS=1 NMatT=0.
 FoFJK:  IHMeth= 1 ICntrl=  2127 DoSepK=F KAlg= 1 I1Cent= 0 FoldK=F
 FoFCou: FMM=F IPFlag=           0 FMFlag=      100000 FMFlg1=         800
         NFxFlg=           0 DoJE=F BraDBF=F KetDBF=F FulRan=T
         Omega=  0.000000  0.000000  1.000000  0.000000  0.000000 ICntrl=    2127 IOpCl=  0
         NMat0=    1 NMatS0=    1 NMatT0=    0 NMatD0=    1 NMtDS0=    0 NMtDT0=    0
         I1Cent=           0 NGrid=           0.
 Symmetry not used in FoFCou.
 FoFCou:  KetSym=F NOpSet=  1 NOpAb=1 NOp=  1.
 FoFCou:  CnvScl= 1.00D+00 Thresh= 1.00D-10
 PrismS was handed  1073507537 working-precision words and  1698 shell-pairs
 FoFCou: LinMIO=F DoNuc=F BraDBF=F KetDBF=F HaveP=T PDBF=F HaveZ=T HaveW=F
         NIJTC =      10 NIJTAt=       0 NIJTCD=       0 NIJTT =      10
         IJTBeg=       1 IJTEnd=      10 KLTBeg=       1 KLTEnd=      10
         IPTBeg=       1 IPTEnd=      10 IPTBCv=       1 IPTECv=      10
         IZTBeg=       1 IZTEnd=      10 IZTBCv=       1 IZTECv=      10
         IWTBeg=      11 IWTEnd=      10 IWTBCv=      11 IWTECv=      10
         INTBeg=       1 INTEnd=       0 IFTBCv=       1 IFTECv=      10
 NCel replicated for PrismC:     1
 CoulSu:  IncDef=  1024 NBBP=        1442451 NTPThr=   100 NPartT=    8 Incr=        1024 LDynOK=F.
 CoulSu:  NPrtUS=   8 ThrOK=T IAlg=1 NPAlg=1 LenDen=           0.
 Enter PrismC: JobTyp=21 DoJE=F Cont=F.
 PrismC:  IPart=     0 DynPar=T LinDyn=F Incr=        1024 UseFst=F UseS4=T.
 PrismC was handed   134139810 working-precision words and  1698 shell-pairs
 Enter PrismC: JobTyp=21 DoJE=F Cont=F.
 Enter PrismC: JobTyp=21 DoJE=F Cont=F.
 PrismC was handed   134139810 working-precision words and  1698 shell-pairs
 PrismC was handed   134139810 working-precision words and  1698 shell-pairs
 Enter PrismC: JobTyp=21 DoJE=F Cont=F.
 Enter PrismC: JobTyp=21 DoJE=F Cont=F.
 PrismC was handed   134139810 working-precision words and  1698 shell-pairs
 PrismC was handed   134139810 working-precision words and  1698 shell-pairs
 Enter PrismC: JobTyp=21 DoJE=F Cont=F.
 Enter PrismC: JobTyp=21 DoJE=F Cont=F.
 Enter PrismC: JobTyp=21 DoJE=F Cont=F.
 PrismC was handed   134139810 working-precision words and  1698 shell-pairs
 PrismC was handed   134139810 working-precision words and  1698 shell-pairs
 PrismC was handed   134139810 working-precision words and  1698 shell-pairs
 IPart=  7 NShTot=      177652 NShNF=      177652 NShFF=           0 NBatch=         856 AvBLen=       207.5
 IPart=  6 NShTot=      187006 NShNF=      187006 NShFF=           0 NBatch=         847 AvBLen=       220.8
 IPart=  4 NShTot=      161810 NShNF=      161810 NShFF=           0 NBatch=         921 AvBLen=       175.7
 IPart=  2 NShTot=      167615 NShNF=      167615 NShFF=           0 NBatch=         827 AvBLen=       202.7
 IPart=  5 NShTot=      179072 NShNF=      179072 NShFF=           0 NBatch=         931 AvBLen=       192.3
 IPart=  3 NShTot=      178611 NShNF=      178611 NShFF=           0 NBatch=         906 AvBLen=       197.1
 IPart=  0 NShTot=      168248 NShNF=      168248 NShFF=           0 NBatch=         880 AvBLen=       191.2
 IPart=  1 NShTot=      147052 NShNF=      147052 NShFF=           0 NBatch=         799 AvBLen=       184.0
 CoulSu:  NxtVal=        1514497.
 Forces at end of L703
 I=    0 X=   0.000000000000D+00 Y=   0.000000000000D+00 Z=  -8.825252254130D-02
 I=    1 X=   0.000000000000D+00 Y=   0.000000000000D+00 Z=   5.421684931584D-05
 I=    2 X=   0.000000000000D+00 Y=   0.000000000000D+00 Z=  -1.000392944839D-04
 I=    3 X=   0.000000000000D+00 Y=   1.576846333329D-05 Z=   2.291122151554D-05
 I=    4 X=   0.000000000000D+00 Y=  -1.576846436357D-05 Z=   2.291122362230D-05
 FrcOut:
 IF    =    56 IFX   =    68 IFXYZ =    80
 IFFX  =    92 IFFFX =    92 IFLen =    12
 IFFLen=     0 IFFFLn=     0 IEDerv=    92
 LEDerv=   629 IFroze=   725 ICStrt= 71842
 DipInt: DoE/N= T T RetVal/Mat= T F Init=T NMatP=  1 IDeriv=0 Min/MaxMlt=  1  1
 Entering OneElI...
 Multipole integrals L=1 to 1 MinM= 0 MaxM= 0.
 Requested accuracy = 0.1000D-12
 PrsmSu:  NPrtUS=   1 ThrOK=F IAlg=1 NPAlg=1 LenDen=           0.
 Prism:   IPart=     0 DynPar=F LinDyn=F Incr=          16.
 PRISM was handed  1073486801 working-precision words and  1698 shell-pairs
 IPart=  0 NShTot=        1698 NBatch=          81 AvBLen=        21.0
 PrSmSu:  NxtVal=             17.
 Computed dipole moment (without fudge factor):
 X=-0.3338661331678D-12   Y= 0.2486899575160D-13   Z=-0.8825252254130D-01
 Quadrupole    = 8.75384893D-01-1.26088812D+00 3.85503223D-01
                -7.08330572D-14-4.59996482D-13-2.08516428D-14
 -------------------------------------------------------------------
 Center     Atomic                   Forces (Hartrees/Bohr)
 Number     Number              X              Y              Z
 -------------------------------------------------------------------
      1        6           0.000000000    0.000000000   -0.000054217
      2       16           0.000000000    0.000000000    0.000100039
      3        9           0.000000000   -0.000015768   -0.000022911
      4        9           0.000000000    0.000015768   -0.000022911
 -------------------------------------------------------------------
 Cartesian Forces:  Max     0.000100039 RMS     0.000034754
 Z-matrix is all fixed cartesians, so copy forces.
 Final forces over variables, Energy=-6.35207324D+02:
  3.42005299D-12-4.95842459D-12 7.76596425D-13 7.61775176D-13
 -6.80655249D-13-2.83369513D-13-1.57684633D-05 1.57684644D-05
 -5.42168493D-05 1.00039294D-04-2.29112215D-05-2.29112236D-05
 NDeriv=  12 NFrqRd=  0 LFDDif=       1
 NDeriv=  12 NFrqRd=  0 LFDDif=       1
 At 1st pt Frequency-dependent properties file   721 does not exist.
 D2Numr ... symmetry will not be used.
 Standard basis: Aug-CC-pVTZ (5D, 7F)
 Integral buffers will be    131072 words long.
 Raffenetti 1 integral format.
 Two-electron integral symmetry is turned off.
   188 basis functions,   330 primitive gaussians,   224 cartesian basis functions
    20 alpha electrons       20 beta electrons
       nuclear repulsion energy       154.3928393524 Hartrees.
 NAtoms=    4 NActive=    4 NUniq=    4 SFac= 1.00D+00 NAtFMM=   50 NAOKFM=F Big=F
 One-electron integrals computed using PRISM.
 NBasis=   188 RedAO= T  NBF=   188
 NBsUse=   188 1.00D-06 NBFU=   188
 Initial guess read from the read-write file.
 B after Tr=     0.000000    0.000000    0.000000
         Rot=    1.000000    0.000000    0.000000    0.000000 Ang=   0.00 deg.
 Requested convergence on RMS density matrix=1.00D-08 within 128 cycles.
 Requested convergence on MAX density matrix=1.00D-06.
 Requested convergence on             energy=1.00D-06.
 No special actions if energy rises.
 Keep R1 ints in memory in canonical form, NReq=323399632.
 SCF Done:  E(RHF) =  -634.356870084     A.U. after    6 cycles
             Convg  =    0.8158D-08             -V/T =  2.0005
 ExpMin= 3.51D-02 ExpMax= 3.74D+05 ExpMxC= 1.18D+03 IAcc=3 IRadAn=         5 AccDes= 0.00D+00
 HarFok:  IExCor=  205 AccDes= 0.00D+00 IRadAn=         5 IDoV=-2
 ScaDFX=  1.000000  1.000000  1.000000  1.000000
 Range of M.O.s used for correlation:     9   188
 NBasis=   188 NAE=    20 NBE=    20 NFC=     8 NFV=     0
 NROrb=    180 NOA=    12 NOB=    12 NVA=   168 NVB=   168

 **** Warning!!: The largest alpha MO coefficient is  0.26790826D+02

 Semi-Direct transformation.
 ModeAB=           2 MOrb=            12 LenV=    1072746531
 LASXX=     33405819 LTotXX=    33405819 LenRXX=    33405819
 LTotAB=    33954012 MaxLAS=    54432000 LenRXY=    54432000
 NonZer=    66811638 LenScr=   100987392 LnRSAI=           0
 LnScr1=           0 LExtra=           0 Total=    188825211
 MaxDsk=          -1 SrtSym=           F ITran=            4
 JobTyp=0 Pass  1:  I=   1 to  12.
 (rs|ai) integrals will be sorted in core.
 Spin components of T(2) and E(2):
     alpha-alpha T2 =       0.3014340974D-01 E2=     -0.1104082510D+00
     alpha-beta  T2 =       0.1598227435D+00 E2=     -0.6187183269D+00
     beta-beta   T2 =       0.3014340974D-01 E2=     -0.1104082510D+00
 ANorm=    0.1104585697D+01
 E2 =    -0.8395348288D+00 EUMP2 =    -0.63519640491284D+03
 R2 and R3 integrals will be kept in memory, NReq=   640760400.
 Iterations=  50 Convergence= 0.100D-07
 Iteration Nr.   1
 **********************
 DD1Dir will call FoFMem   1 times, MxPair=       156
 NAB=    78 NAA=     0 NBB=     0.
 MP4(R+Q)=  0.19352814D-01
 E3=       -0.33856866D-02        EUMP3=      -0.63519979060D+03
 E4(DQ)=    0.24272735D-02        UMP4(DQ)=   -0.63519736333D+03
 E4(SDQ)=  -0.84302030D-02        UMP4(SDQ)=  -0.63520822080D+03
 DE(Corr)= -0.82356770     E(Corr)=     -635.18043779    
 NORM(A)=   0.11038521D+01
 Iteration Nr.   2
 **********************
 DD1Dir will call FoFMem   1 times, MxPair=       156
 NAB=    78 NAA=     0 NBB=     0.
 DE(Corr)= -0.84925165     E(CORR)=     -635.20612173     Delta=-2.57D-02
 NORM(A)=   0.11127834D+01
 Iteration Nr.   3
 **********************
 DD1Dir will call FoFMem   1 times, MxPair=       156
 NAB=    78 NAA=     0 NBB=     0.
 DE(Corr)= -0.84757755     E(CORR)=     -635.20444764     Delta= 1.67D-03
 NORM(A)=   0.11156253D+01
 Iteration Nr.   4
 **********************
 DD1Dir will call FoFMem   1 times, MxPair=       156
 NAB=    78 NAA=     0 NBB=     0.
 DE(Corr)= -0.85010867     E(CORR)=     -635.20697875     Delta=-2.53D-03
 NORM(A)=   0.11167364D+01
 Iteration Nr.   5
 **********************
 DD1Dir will call FoFMem   1 times, MxPair=       156
 NAB=    78 NAA=     0 NBB=     0.
 DE(Corr)= -0.85040988     E(CORR)=     -635.20727997     Delta=-3.01D-04
 NORM(A)=   0.11170622D+01
 Iteration Nr.   6
 **********************
 DD1Dir will call FoFMem   1 times, MxPair=       156
 NAB=    78 NAA=     0 NBB=     0.
 DE(Corr)= -0.85044937     E(CORR)=     -635.20731945     Delta=-3.95D-05
 NORM(A)=   0.11171108D+01
 Iteration Nr.   7
 **********************
 DD1Dir will call FoFMem   1 times, MxPair=       156
 NAB=    78 NAA=     0 NBB=     0.
 DE(Corr)= -0.85045367     E(CORR)=     -635.20732375     Delta=-4.30D-06
 NORM(A)=   0.11171106D+01
 Iteration Nr.   8
 **********************
 DD1Dir will call FoFMem   1 times, MxPair=       156
 NAB=    78 NAA=     0 NBB=     0.
 DE(Corr)= -0.85045228     E(CORR)=     -635.20732237     Delta= 1.38D-06
 NORM(A)=   0.11171158D+01
 Iteration Nr.   9
 **********************
 DD1Dir will call FoFMem   1 times, MxPair=       156
 NAB=    78 NAA=     0 NBB=     0.
 DE(Corr)= -0.85045197     E(CORR)=     -635.20732206     Delta= 3.11D-07
 NORM(A)=   0.11171159D+01
 Iteration Nr.  10
 **********************
 DD1Dir will call FoFMem   1 times, MxPair=       156
 NAB=    78 NAA=     0 NBB=     0.
 DE(Corr)= -0.85045207     E(CORR)=     -635.20732215     Delta=-9.57D-08
 NORM(A)=   0.11171174D+01
 Iteration Nr.  11
 **********************
 DD1Dir will call FoFMem   1 times, MxPair=       156
 NAB=    78 NAA=     0 NBB=     0.
 DE(Corr)= -0.85045280     E(CORR)=     -635.20732288     Delta=-7.33D-07
 NORM(A)=   0.11171188D+01
 Iteration Nr.  12
 **********************
 DD1Dir will call FoFMem   1 times, MxPair=       156
 NAB=    78 NAA=     0 NBB=     0.
 DE(Corr)= -0.85045304     E(CORR)=     -635.20732312     Delta=-2.38D-07
 NORM(A)=   0.11171195D+01
 Iteration Nr.  13
 **********************
 DD1Dir will call FoFMem   1 times, MxPair=       156
 NAB=    78 NAA=     0 NBB=     0.
 DE(Corr)= -0.85045330     E(CORR)=     -635.20732339     Delta=-2.64D-07
 NORM(A)=   0.11171199D+01
 Iteration Nr.  14
 **********************
 DD1Dir will call FoFMem   1 times, MxPair=       156
 NAB=    78 NAA=     0 NBB=     0.
 DE(Corr)= -0.85045336     E(CORR)=     -635.20732345     Delta=-5.92D-08
 NORM(A)=   0.11171201D+01
 Iteration Nr.  15
 **********************
 DD1Dir will call FoFMem   1 times, MxPair=       156
 NAB=    78 NAA=     0 NBB=     0.
 DE(Corr)= -0.85045340     E(CORR)=     -635.20732349     Delta=-3.93D-08
 NORM(A)=   0.11171201D+01
 Iteration Nr.  16
 **********************
 DD1Dir will call FoFMem   1 times, MxPair=       156
 NAB=    78 NAA=     0 NBB=     0.
 DE(Corr)= -0.85045341     E(CORR)=     -635.20732350     Delta=-1.09D-08
 NORM(A)=   0.11171201D+01
 Iteration Nr.  17
 **********************
 DD1Dir will call FoFMem   1 times, MxPair=       156
 NAB=    78 NAA=     0 NBB=     0.
 DE(Corr)= -0.85045341     E(CORR)=     -635.20732349     Delta= 2.00D-09
 NORM(A)=   0.11171201D+01
 Iteration Nr.  18
 **********************
 DD1Dir will call FoFMem   1 times, MxPair=       156
 NAB=    78 NAA=     0 NBB=     0.
 DE(Corr)= -0.85045341     E(CORR)=     -635.20732350     Delta=-1.90D-09
 NORM(A)=   0.11171201D+01
 Largest amplitude= 8.51D-02

 Z-AMPLITUDE ITERATIONS

 Iteration Nr.   1
 **********************
 DD1Dir will call FoFMem   1 times, MxPair=       156
 NAB=    78 NAA=     0 NBB=     0.
 DE(Z)  -0.82655019D+00          E(Z)=    -0.63518342027D+03
 NORM(A)=   0.11171150D+01
 Iteration Nr.   2
 **********************
 DD1Dir will call FoFMem   1 times, MxPair=       156
 NAB=    78 NAA=     0 NBB=     0.
 DE(Z)  -0.82655018D+00          E(Z)=    -0.63518342026D+03
 NORM(A)=   0.11171227D+01
 Iteration Nr.   3
 **********************
 DD1Dir will call FoFMem   1 times, MxPair=       156
 NAB=    78 NAA=     0 NBB=     0.
 DE(Z)  -0.82655023D+00          E(Z)=    -0.63518342031D+03
 NORM(A)=   0.11171195D+01
 Iteration Nr.   4
 **********************
 DD1Dir will call FoFMem   1 times, MxPair=       156
 NAB=    78 NAA=     0 NBB=     0.
 DE(Z)  -0.82655018D+00          E(Z)=    -0.63518342026D+03
 NORM(A)=   0.11171196D+01
 Iteration Nr.   5
 **********************
 DD1Dir will call FoFMem   1 times, MxPair=       156
 NAB=    78 NAA=     0 NBB=     0.
 DE(Z)  -0.82655018D+00          E(Z)=    -0.63518342027D+03
 NORM(A)=   0.11089507D+01
 Iteration Nr.   6
 **********************
 DD1Dir will call FoFMem   1 times, MxPair=       156
 NAB=    78 NAA=     0 NBB=     0.
 DE(Z)  -0.82644047D+00          E(Z)=    -0.63518331056D+03
 NORM(A)=   0.11089019D+01
 Iteration Nr.   7
 **********************
 DD1Dir will call FoFMem   1 times, MxPair=       156
 NAB=    78 NAA=     0 NBB=     0.
 DE(Z)  -0.82640632D+00          E(Z)=    -0.63518327640D+03
 NORM(A)=   0.11088817D+01
 Iteration Nr.   8
 **********************
 DD1Dir will call FoFMem   1 times, MxPair=       156
 NAB=    78 NAA=     0 NBB=     0.
 DE(Z)  -0.82640988D+00          E(Z)=    -0.63518327997D+03
 NORM(A)=   0.11088781D+01
 Iteration Nr.   9
 **********************
 DD1Dir will call FoFMem   1 times, MxPair=       156
 NAB=    78 NAA=     0 NBB=     0.
 DE(Z)  -0.82640841D+00          E(Z)=    -0.63518327849D+03
 NORM(A)=   0.11088782D+01
 Iteration Nr.  10
 **********************
 DD1Dir will call FoFMem   1 times, MxPair=       156
 NAB=    78 NAA=     0 NBB=     0.
 DE(Z)  -0.82640936D+00          E(Z)=    -0.63518327944D+03
 NORM(A)=   0.11088785D+01
 Iteration Nr.  11
 **********************
 DD1Dir will call FoFMem   1 times, MxPair=       156
 NAB=    78 NAA=     0 NBB=     0.
 DE(Z)  -0.82640968D+00          E(Z)=    -0.63518327976D+03
 NORM(A)=   0.11088787D+01
 Iteration Nr.  12
 **********************
 DD1Dir will call FoFMem   1 times, MxPair=       156
 NAB=    78 NAA=     0 NBB=     0.
 DE(Z)  -0.82640944D+00          E(Z)=    -0.63518327953D+03
 NORM(A)=   0.11088786D+01
 Iteration Nr.  13
 **********************
 DD1Dir will call FoFMem   1 times, MxPair=       156
 NAB=    78 NAA=     0 NBB=     0.
 DE(Z)  -0.82640965D+00          E(Z)=    -0.63518327974D+03
 NORM(A)=   0.11088786D+01
 Iteration Nr.  14
 **********************
 DD1Dir will call FoFMem   1 times, MxPair=       156
 NAB=    78 NAA=     0 NBB=     0.
 DE(Z)  -0.82640957D+00          E(Z)=    -0.63518327965D+03
 NORM(A)=   0.11088786D+01
 Iteration Nr.  15
 **********************
 DD1Dir will call FoFMem   1 times, MxPair=       156
 NAB=    78 NAA=     0 NBB=     0.
 DE(Z)  -0.82640958D+00          E(Z)=    -0.63518327966D+03
 NORM(A)=   0.11088786D+01
 Iteration Nr.  16
 **********************
 DD1Dir will call FoFMem   1 times, MxPair=       156
 NAB=    78 NAA=     0 NBB=     0.
 DE(Z)  -0.82640958D+00          E(Z)=    -0.63518327966D+03
 NORM(A)=   0.11088785D+01
 Iteration Nr.  17
 **********************
 DD1Dir will call FoFMem   1 times, MxPair=       156
 NAB=    78 NAA=     0 NBB=     0.
 DE(Z)  -0.82640957D+00          E(Z)=    -0.63518327966D+03
 NORM(A)=   0.11088785D+01
 Discarding MO integrals.
          IDoAtm=1111
          Differentiating once with respect to electric field.
                with respect to dipole field.
          Differentiating once with respect to nuclear coordinates.
          Keep R1 ints in memory in canonical form, NReq=319473803.
          There are     1 degrees of freedom in the 1st order CPHF.  IDoFFX=0.
 LinEq1:  Iter=  0 NonCon=     1 RMS=2.85D-03 Max=7.74D-02
 AX will form     1 AO Fock derivatives at one time.
 LinEq1:  Iter=  1 NonCon=     1 RMS=8.84D-04 Max=1.23D-02
 LinEq1:  Iter=  2 NonCon=     1 RMS=4.03D-04 Max=1.29D-02
 LinEq1:  Iter=  3 NonCon=     1 RMS=1.09D-04 Max=2.39D-03
 LinEq1:  Iter=  4 NonCon=     1 RMS=2.69D-05 Max=6.37D-04
 LinEq1:  Iter=  5 NonCon=     1 RMS=6.77D-06 Max=1.03D-04
 LinEq1:  Iter=  6 NonCon=     1 RMS=2.67D-06 Max=5.71D-05
 LinEq1:  Iter=  7 NonCon=     1 RMS=8.32D-07 Max=1.52D-05
 LinEq1:  Iter=  8 NonCon=     1 RMS=1.67D-07 Max=2.33D-06
 LinEq1:  Iter=  9 NonCon=     1 RMS=3.13D-08 Max=3.73D-07
 LinEq1:  Iter= 10 NonCon=     1 RMS=6.21D-09 Max=7.38D-08
 LinEq1:  Iter= 11 NonCon=     1 RMS=9.85D-10 Max=1.58D-08
 LinEq1:  Iter= 12 NonCon=     1 RMS=1.41D-10 Max=1.93D-09
 LinEq1:  Iter= 13 NonCon=     0 RMS=2.62D-11 Max=2.94D-10
 Linear equations converged to 1.000D-10 1.000D-09 after    13 iterations.
 End of Minotr Frequency-dependent properties file   721 does not exist.
 End of Minotr Frequency-dependent properties file   722 does not exist.

 **********************************************************************

            Population analysis using the QCI/CC density.

 **********************************************************************

 Alpha  occ. eigenvalues --  -91.97613 -26.39009 -26.39007 -11.51898  -8.97975
 Alpha  occ. eigenvalues --   -6.66098  -6.65935  -6.65814  -1.75538  -1.68122
 Alpha  occ. eigenvalues --   -1.09885  -0.92971  -0.84409  -0.80259  -0.77541
 Alpha  occ. eigenvalues --   -0.72174  -0.70145  -0.59709  -0.43113  -0.40182
 Alpha virt. eigenvalues --    0.05279   0.05518   0.06433   0.08647   0.08686
 Alpha virt. eigenvalues --    0.10318   0.10818   0.12189   0.19610   0.20459
 Alpha virt. eigenvalues --    0.20849   0.23046   0.23428   0.26352   0.27025
 Alpha virt. eigenvalues --    0.27356   0.28389   0.29093   0.29408   0.29787
 Alpha virt. eigenvalues --    0.35826   0.36513   0.41254   0.41889   0.44977
 Alpha virt. eigenvalues --    0.46730   0.47980   0.51696   0.51933   0.53099
 Alpha virt. eigenvalues --    0.53100   0.62322   0.63496   0.66026   0.69881
 Alpha virt. eigenvalues --    0.73065   0.73518   0.74720   0.76548   0.77698
 Alpha virt. eigenvalues --    0.85044   0.85514   0.88442   0.89870   0.90686
 Alpha virt. eigenvalues --    0.96074   0.96114   1.02111   1.03760   1.07775
 Alpha virt. eigenvalues --    1.09119   1.10832   1.11275   1.12403   1.14889
 Alpha virt. eigenvalues --    1.14991   1.17536   1.19647   1.23184   1.25754
 Alpha virt. eigenvalues --    1.28115   1.32662   1.34904   1.39893   1.42785
 Alpha virt. eigenvalues --    1.44573   1.49611   1.53749   1.57403   1.65003
 Alpha virt. eigenvalues --    1.68046   1.70388   1.70796   1.71636   1.73822
 Alpha virt. eigenvalues --    1.78914   1.99691   2.03587   2.06752   2.07985
 Alpha virt. eigenvalues --    2.11677   2.26991   2.30628   2.32036   2.36355
 Alpha virt. eigenvalues --    2.41564   2.43355   2.43637   2.45858   2.51815
 Alpha virt. eigenvalues --    2.54846   2.58829   2.66478   2.75331   2.80293
 Alpha virt. eigenvalues --    2.84153   2.86225   2.90151   2.92781   2.93785
 Alpha virt. eigenvalues --    2.96805   2.99981   3.00199   3.06924   3.14453
 Alpha virt. eigenvalues --    3.15126   3.17791   3.19207   3.20768   3.32435
 Alpha virt. eigenvalues --    3.32916   3.37563   3.39756   3.45763   3.51484
 Alpha virt. eigenvalues --    3.55004   3.56043   3.63146   3.72920   3.73867
 Alpha virt. eigenvalues --    3.75328   3.75694   3.92813   4.00696   4.11267
 Alpha virt. eigenvalues --    4.19056   4.21575   4.26402   4.43270   4.55371
 Alpha virt. eigenvalues --    4.61059   4.70330   4.74830   4.85957   5.45566
 Alpha virt. eigenvalues --    5.51302   5.69180   5.88527   6.23897   6.59711
 Alpha virt. eigenvalues --    7.20595   8.78887   8.80633   8.86004   8.86926
 Alpha virt. eigenvalues --    8.99746   9.00213   9.10513   9.12516   9.19685
 Alpha virt. eigenvalues --    9.26586   9.27255   9.29488   9.33461   9.33987
 Alpha virt. eigenvalues --    9.36309   9.36569   9.39913   9.45569   9.54837
 Alpha virt. eigenvalues --    9.56215   9.59040   9.71916   9.84818   9.86777
 Alpha virt. eigenvalues --   12.04478  15.07576  16.12357
          Condensed to atoms (all electrons):
              1          2          3          4
     1  C    5.194516   0.242986   0.110522   0.110522
     2  S    0.242986  15.949608  -0.066551  -0.066551
     3  F    0.110522  -0.066551   9.178401  -0.081392
     4  F    0.110522  -0.066551  -0.081392   9.178401
 Mulliken atomic charges:
              1
     1  C    0.341453
     2  S   -0.059493
     3  F   -0.140980
     4  F   -0.140980
 Sum of Mulliken atomic charges =   0.00000
 Mulliken charges with hydrogens summed into heavy atoms:
              1
     1  C    0.341453
     2  S   -0.059493
     3  F   -0.140980
     4  F   -0.140980
 Sum of Mulliken charges with hydrogens summed into heavy atoms =   0.00000
 Electronic spatial extent (au):  <R**2>=            315.2002
 Charge=              0.0000 electrons
 Dipole moment (field-independent basis, Debye):
    X=              0.0007    Y=              0.0000    Z=             -0.2243  Tot=              0.2243
 Quadrupole moment (field-independent basis, Debye-Ang):
   XX=            -27.2810   YY=            -30.1543   ZZ=            -27.9399
   XY=              0.0000   XZ=             -0.0041   YZ=              0.0000
 Traceless Quadrupole moment (field-independent basis, Debye-Ang):
   XX=              1.1774   YY=             -1.6959   ZZ=              0.5185
   XY=              0.0000   XZ=             -0.0041   YZ=              0.0000
 Octapole moment (field-independent basis, Debye-Ang**2):
  XXX=             -0.0178  YYY=              0.0000  ZZZ=              8.7842  XYY=             -0.0069
  XXY=              0.0000  XXZ=              0.7522  XZZ=             -0.0090  YZZ=              0.0000
  YYZ=              0.8022  XYZ=              0.0000
 Hexadecapole moment (field-independent basis, Debye-Ang**3):
 XXXX=            -28.1326 YYYY=            -96.1674 ZZZZ=           -215.0425 XXXY=              0.0000
 XXXZ=              0.0019 YYYX=              0.0000 YYYZ=              0.0000 ZZZX=             -0.0011
 ZZZY=              0.0000 XXYY=            -20.7177 XXZZ=            -40.5190 YYZZ=            -55.6372
 XXYZ=              0.0000 YYXZ=              0.0034 ZZXY=              0.0000
 N-N= 1.543928393524D+02 E-N=-1.820106208156D+03  KE= 6.349953469926D+02
 Use density number 7.
 DipInt: DoE/N= T T RetVal/Mat= T F Init=T NMatP=  1 IDeriv=0 Min/MaxMlt=  1  1
 Entering OneElI...
 Multipole integrals L=1 to 1 MinM= 0 MaxM= 0.
 Requested accuracy = 0.1000D-12
 PrsmSu:  NPrtUS=   1 ThrOK=F IAlg=1 NPAlg=1 LenDen=           0.
 Prism:   IPart=     0 DynPar=F LinDyn=F Incr=          16.
 PRISM was handed  1073432621 working-precision words and  1698 shell-pairs
 IPart=  0 NShTot=        1698 NBatch=          81 AvBLen=        21.0
 PrSmSu:  NxtVal=             17.
 Entering OneElI...
 Calculate overlap and kinetic energy integrals
    NBasis = 224  MinDer = 1  MaxDer = 1
 Requested accuracy = 0.1000D-12
 PrsmSu:  NPrtUS=   8 ThrOK=T IAlg=1 NPAlg=1 LenDen=           0.
 Prism:   IPart=     0 DynPar=F LinDyn=F Incr=           2.
 PRISM was handed   134118960 working-precision words and  1709 shell-pairs
 PRISM was handed   134118960 working-precision words and  1709 shell-pairs
 PRISM was handed   134118960 working-precision words and  1709 shell-pairs
 PRISM was handed   134118960 working-precision words and  1709 shell-pairs
 PRISM was handed   134118960 working-precision words and  1709 shell-pairs
 PRISM was handed   134118960 working-precision words and  1709 shell-pairs
 PRISM was handed   134118960 working-precision words and  1709 shell-pairs
 PRISM was handed   134118960 working-precision words and  1709 shell-pairs
 IPart=  0 NShTot=         254 NBatch=          79 AvBLen=         3.2
 IPart=  4 NShTot=         200 NBatch=          38 AvBLen=         5.3
 IPart=  6 NShTot=         191 NBatch=          37 AvBLen=         5.2
 IPart=  1 NShTot=         234 NBatch=          59 AvBLen=         4.0
 IPart=  5 NShTot=         200 NBatch=          38 AvBLen=         5.3
 IPart=  7 NShTot=         190 NBatch=          37 AvBLen=         5.1
 IPart=  3 NShTot=         217 NBatch=          43 AvBLen=         5.0
 IPart=  2 NShTot=         223 NBatch=          49 AvBLen=         4.6
 PrSmSu:  NxtVal=             17.
 Entering OneElI...
 Calculate potential energy integrals
    NBasis = 224  MinDer = 1  MaxDer = 1
 Requested accuracy = 0.1000D-12
 PrsmSu:  NPrtUS=   8 ThrOK=T IAlg=1 NPAlg=1 LenDen=           0.
 Prism:   IPart=     0 DynPar=F LinDyn=F Incr=           8.
 PRISM was handed   134131909 working-precision words and  1684 shell-pairs
 PRISM was handed   134131909 working-precision words and  1684 shell-pairs
 PRISM was handed   134131909 working-precision words and  1684 shell-pairs
 PRISM was handed   134131909 working-precision words and  1684 shell-pairs
 PRISM was handed   134131909 working-precision words and  1684 shell-pairs
 PRISM was handed   134131909 working-precision words and  1684 shell-pairs
 PRISM was handed   134131909 working-precision words and  1684 shell-pairs
 PRISM was handed   134131909 working-precision words and  1684 shell-pairs
 IPart=  1 NShTot=         960 NBatch=         240 AvBLen=         4.0
 IPart=  4 NShTot=         788 NBatch=         197 AvBLen=         4.0
 IPart=  6 NShTot=         748 NBatch=         187 AvBLen=         4.0
 IPart=  0 NShTot=        1008 NBatch=         252 AvBLen=         4.0
 IPart=  7 NShTot=         744 NBatch=         186 AvBLen=         4.0
 IPart=  5 NShTot=         784 NBatch=         196 AvBLen=         4.0
 IPart=  3 NShTot=         840 NBatch=         210 AvBLen=         4.0
 IPart=  2 NShTot=         864 NBatch=         216 AvBLen=         4.0
 PrSmSu:  NxtVal=             65.
 l701 out
 I=    0 X=   2.720460072974D-04 Y=   0.000000000000D+00 Z=  -8.825061594941D-02
 I=    1 X=   2.395029408329D-02 Y=   0.000000000000D+00 Z=  -5.316387001277D+00
 I=    2 X=  -7.185517630381D-03 Y=   0.000000000000D+00 Z=   2.571247675077D+01
 I=    3 X=  -8.382388225835D-03 Y=  -1.466262026619D+01 Z=  -1.019804487452D+01
 I=    4 X=  -8.382388227072D-03 Y=   1.466262026669D+01 Z=  -1.019804487497D+01
 ICntrl=      2127.
 Calling FoFJK, ICntrl=      2127 FMM=F ISym2X=0 I1Cent= 0 IOpClX= 0 NMat=1 NMatS=1 NMatT=0.
 FoFJK:  IHMeth= 1 ICntrl=  2127 DoSepK=F KAlg= 1 I1Cent= 0 FoldK=F
 FoFCou: FMM=F IPFlag=           0 FMFlag=      100000 FMFlg1=         800
         NFxFlg=           0 DoJE=F BraDBF=F KetDBF=F FulRan=T
         Omega=  0.000000  0.000000  1.000000  0.000000  0.000000 ICntrl=    2127 IOpCl=  0
         NMat0=    1 NMatS0=    1 NMatT0=    0 NMatD0=    1 NMtDS0=    0 NMtDT0=    0
         I1Cent=           0 NGrid=           0.
 Symmetry not used in FoFCou.
 FoFCou:  KetSym=F NOpSet=  1 NOpAb=1 NOp=  1.
 FoFCou:  CnvScl= 1.00D+00 Thresh= 1.00D-10
 PrismS was handed  1073507537 working-precision words and  1698 shell-pairs
 FoFCou: LinMIO=F DoNuc=F BraDBF=F KetDBF=F HaveP=T PDBF=F HaveZ=T HaveW=F
         NIJTC =      10 NIJTAt=       0 NIJTCD=       0 NIJTT =      10
         IJTBeg=       1 IJTEnd=      10 KLTBeg=       1 KLTEnd=      10
         IPTBeg=       1 IPTEnd=      10 IPTBCv=       1 IPTECv=      10
         IZTBeg=       1 IZTEnd=      10 IZTBCv=       1 IZTECv=      10
         IWTBeg=      11 IWTEnd=      10 IWTBCv=      11 IWTECv=      10
         INTBeg=       1 INTEnd=       0 IFTBCv=       1 IFTECv=      10
 NCel replicated for PrismC:     1
 CoulSu:  IncDef=  1024 NBBP=        1442451 NTPThr=   100 NPartT=    8 Incr=        1024 LDynOK=F.
 CoulSu:  NPrtUS=   8 ThrOK=T IAlg=1 NPAlg=1 LenDen=           0.
 Enter PrismC: JobTyp=21 DoJE=F Cont=F.
 PrismC:  IPart=     0 DynPar=T LinDyn=F Incr=        1024 UseFst=F UseS4=T.
 PrismC was handed   134139810 working-precision words and  1698 shell-pairs
 Enter PrismC: JobTyp=21 DoJE=F Cont=F.
 Enter PrismC: JobTyp=21 DoJE=F Cont=F.
 PrismC was handed   134139810 working-precision words and  1698 shell-pairs
 Enter PrismC: JobTyp=21 DoJE=F Cont=F.
 Enter PrismC: JobTyp=21 DoJE=F Cont=F.
 PrismC was handed   134139810 working-precision words and  1698 shell-pairs
 PrismC was handed   134139810 working-precision words and  1698 shell-pairs
 Enter PrismC: JobTyp=21 DoJE=F Cont=F.
 PrismC was handed   134139810 working-precision words and  1698 shell-pairs
 PrismC was handed   134139810 working-precision words and  1698 shell-pairs
 Enter PrismC: JobTyp=21 DoJE=F Cont=F.
 PrismC was handed   134139810 working-precision words and  1698 shell-pairs
 Enter PrismC: JobTyp=21 DoJE=F Cont=F.
 PrismC was handed   134139810 working-precision words and  1698 shell-pairs
 IPart=  0 NShTot=      143184 NShNF=      143184 NShFF=           0 NBatch=         722 AvBLen=       198.3
 IPart=  2 NShTot=      160172 NShNF=      160172 NShFF=           0 NBatch=         884 AvBLen=       181.2
 IPart=  1 NShTot=      176783 NShNF=      176783 NShFF=           0 NBatch=         904 AvBLen=       195.6
 IPart=  3 NShTot=      192350 NShNF=      192350 NShFF=           0 NBatch=         815 AvBLen=       236.0
 IPart=  7 NShTot=      167114 NShNF=      167114 NShFF=           0 NBatch=         880 AvBLen=       189.9
 IPart=  6 NShTot=      178812 NShNF=      178812 NShFF=           0 NBatch=         925 AvBLen=       193.3
 IPart=  5 NShTot=      185673 NShNF=      185673 NShFF=           0 NBatch=         814 AvBLen=       228.1
 IPart=  4 NShTot=      162978 NShNF=      162978 NShFF=           0 NBatch=        1025 AvBLen=       159.0
 CoulSu:  NxtVal=        1514497.
 Forces at end of L703
 I=    0 X=   2.720460072974D-04 Y=   0.000000000000D+00 Z=  -8.825061594941D-02
 I=    1 X=   2.944708065076D-04 Y=   0.000000000000D+00 Z=   5.427206568420D-05
 I=    2 X=  -9.608138521645D-05 Y=   0.000000000000D+00 Z=  -9.987558938107D-05
 I=    3 X=  -9.919471064237D-05 Y=   1.568392281293D-05 Z=   2.280176272329D-05
 I=    4 X=  -9.919471064889D-05 Y=  -1.568392219120D-05 Z=   2.280176089542D-05
 FrcOut:
 IF    =    56 IFX   =    68 IFXYZ =    80
 IFFX  =    92 IFFFX =    92 IFLen =    12
 IFFLen=     0 IFFFLn=     0 IEDerv=    92
 LEDerv=   629 IFroze=   725 ICStrt= 71842
 DipInt: DoE/N= T T RetVal/Mat= T F Init=T NMatP=  1 IDeriv=0 Min/MaxMlt=  1  1
 Entering OneElI...
 Multipole integrals L=1 to 1 MinM= 0 MaxM= 0.
 Requested accuracy = 0.1000D-12
 PrsmSu:  NPrtUS=   1 ThrOK=F IAlg=1 NPAlg=1 LenDen=           0.
 Prism:   IPart=     0 DynPar=F LinDyn=F Incr=          16.
 PRISM was handed  1073486801 working-precision words and  1698 shell-pairs
 IPart=  0 NShTot=        1698 NBatch=          81 AvBLen=        21.0
 PrSmSu:  NxtVal=             17.
 Computed dipole moment (without fudge factor):
 X= 0.2720460072974D-03   Y= 0.4085620730621D-12   Z=-0.8825061594941D-01
 Quadrupole    = 8.75390141D-01-1.26088983D+00 3.85499688D-01
                 1.29170507D-13-3.06459641D-03 2.74277503D-13
 -------------------------------------------------------------------
 Center     Atomic                   Forces (Hartrees/Bohr)
 Number     Number              X              Y              Z
 -------------------------------------------------------------------
      1        6          -0.000294471    0.000000000   -0.000054272
      2       16           0.000096081    0.000000000    0.000099876
      3        9           0.000099195   -0.000015684   -0.000022802
      4        9           0.000099195    0.000015684   -0.000022802
 -------------------------------------------------------------------
 Cartesian Forces:  Max     0.000294471 RMS     0.000104114
 Final forces over variables, Energy=-6.35207323D+02:
  3.42005299D-12-4.95842459D-12 7.76596425D-13 7.61775176D-13
 -6.80655249D-13-2.83369513D-13-1.57684633D-05 1.57684644D-05
 -5.42168493D-05 1.00039294D-04-2.29112215D-05-2.29112236D-05
 NDeriv=  12 NFrqRd=  0 LFDDif=       1
 NDeriv=  12 NFrqRd=  0 LFDDif=       1
 Re-enter D2Numr: IAtom=  1 IXYZ=1 IStep= 1.
 Standard basis: Aug-CC-pVTZ (5D, 7F)
 Integral buffers will be    131072 words long.
 Raffenetti 1 integral format.
 Two-electron integral symmetry is turned off.
   188 basis functions,   330 primitive gaussians,   224 cartesian basis functions
    20 alpha electrons       20 beta electrons
       nuclear repulsion energy       154.3928393524 Hartrees.
 NAtoms=    4 NActive=    4 NUniq=    4 SFac= 1.00D+00 NAtFMM=   50 NAOKFM=F Big=F
 One-electron integrals computed using PRISM.
 NBasis=   188 RedAO= T  NBF=   188
 NBsUse=   188 1.00D-06 NBFU=   188
 Initial guess read from the read-write file.
 B after Tr=     0.000000    0.000000    0.000000
         Rot=    1.000000    0.000000    0.000000    0.000000 Ang=   0.00 deg.
 Requested convergence on RMS density matrix=1.00D-08 within 128 cycles.
 Requested convergence on MAX density matrix=1.00D-06.
 Requested convergence on             energy=1.00D-06.
 No special actions if energy rises.
 Keep R1 ints in memory in canonical form, NReq=323399632.
 SCF Done:  E(RHF) =  -634.356870084     A.U. after    7 cycles
             Convg  =    0.9087D-08             -V/T =  2.0005
 ExpMin= 3.51D-02 ExpMax= 3.74D+05 ExpMxC= 1.18D+03 IAcc=3 IRadAn=         5 AccDes= 0.00D+00
 HarFok:  IExCor=  205 AccDes= 0.00D+00 IRadAn=         5 IDoV=-2
 ScaDFX=  1.000000  1.000000  1.000000  1.000000
 DSYEVD returned Info=          93 IAlg= 4 N=    46 NDim=    46 NE2=    21472498 trying DSYEV.
 DSYEVD returned Info=          93 IAlg= 4 N=    46 NDim=    46 NE2=    21472498 trying DSYEV.
 Range of M.O.s used for correlation:     9   188
 NBasis=   188 NAE=    20 NBE=    20 NFC=     8 NFV=     0
 NROrb=    180 NOA=    12 NOB=    12 NVA=   168 NVB=   168

 **** Warning!!: The largest alpha MO coefficient is  0.26790916D+02

 Semi-Direct transformation.
 ModeAB=           2 MOrb=            12 LenV=    1072746531
 LASXX=     33405819 LTotXX=    33405819 LenRXX=    33405819
 LTotAB=    33954012 MaxLAS=    54432000 LenRXY=    54432000
 NonZer=    66811638 LenScr=   100987392 LnRSAI=           0
 LnScr1=           0 LExtra=           0 Total=    188825211
 MaxDsk=          -1 SrtSym=           F ITran=            4
 JobTyp=0 Pass  1:  I=   1 to  12.
 (rs|ai) integrals will be sorted in core.
 Spin components of T(2) and E(2):
     alpha-alpha T2 =       0.3014341210D-01 E2=     -0.1104082548D+00
     alpha-beta  T2 =       0.1598227557D+00 E2=     -0.6187183438D+00
     beta-beta   T2 =       0.3014341210D-01 E2=     -0.1104082548D+00
 ANorm=    0.1104585705D+01
 E2 =    -0.8395348535D+00 EUMP2 =    -0.63519640493745D+03
 R2 and R3 integrals will be kept in memory, NReq=   640760400.
 Iterations=  50 Convergence= 0.100D-07
 Iteration Nr.   1
 **********************
 DD1Dir will call FoFMem   1 times, MxPair=       156
 NAB=    78 NAA=     0 NBB=     0.
 MP4(R+Q)=  0.19352816D-01
 E3=       -0.33856801D-02        EUMP3=      -0.63519979062D+03
 E4(DQ)=    0.24272732D-02        UMP4(DQ)=   -0.63519736334D+03
 E4(SDQ)=  -0.84302060D-02        UMP4(SDQ)=  -0.63520822082D+03
 DE(Corr)= -0.82356772     E(Corr)=     -635.18043780    
 NORM(A)=   0.11038521D+01
 Iteration Nr.   2
 **********************
 DD1Dir will call FoFMem   1 times, MxPair=       156
 NAB=    78 NAA=     0 NBB=     0.
 DE(Corr)= -0.84925167     E(CORR)=     -635.20612175     Delta=-2.57D-02
 NORM(A)=   0.11127834D+01
 Iteration Nr.   3
 **********************
 DD1Dir will call FoFMem   1 times, MxPair=       156
 NAB=    78 NAA=     0 NBB=     0.
 DE(Corr)= -0.84757757     E(CORR)=     -635.20444766     Delta= 1.67D-03
 NORM(A)=   0.11156253D+01
 Iteration Nr.   4
 **********************
 DD1Dir will call FoFMem   1 times, MxPair=       156
 NAB=    78 NAA=     0 NBB=     0.
 DE(Corr)= -0.85010869     E(CORR)=     -635.20697877     Delta=-2.53D-03
 NORM(A)=   0.11167364D+01
 Iteration Nr.   5
 **********************
 DD1Dir will call FoFMem   1 times, MxPair=       156
 NAB=    78 NAA=     0 NBB=     0.
 DE(Corr)= -0.85040990     E(CORR)=     -635.20727999     Delta=-3.01D-04
 NORM(A)=   0.11170623D+01
 Iteration Nr.   6
 **********************
 DD1Dir will call FoFMem   1 times, MxPair=       156
 NAB=    78 NAA=     0 NBB=     0.
 DE(Corr)= -0.85044939     E(CORR)=     -635.20731947     Delta=-3.95D-05
 NORM(A)=   0.11171108D+01
 Iteration Nr.   7
 **********************
 DD1Dir will call FoFMem   1 times, MxPair=       156
 NAB=    78 NAA=     0 NBB=     0.
 DE(Corr)= -0.85045369     E(CORR)=     -635.20732377     Delta=-4.30D-06
 NORM(A)=   0.11171106D+01
 Iteration Nr.   8
 **********************
 DD1Dir will call FoFMem   1 times, MxPair=       156
 NAB=    78 NAA=     0 NBB=     0.
 DE(Corr)= -0.85045230     E(CORR)=     -635.20732239     Delta= 1.38D-06
 NORM(A)=   0.11171158D+01
 Iteration Nr.   9
 **********************
 DD1Dir will call FoFMem   1 times, MxPair=       156
 NAB=    78 NAA=     0 NBB=     0.
 DE(Corr)= -0.85045199     E(CORR)=     -635.20732208     Delta= 3.11D-07
 NORM(A)=   0.11171159D+01
 Iteration Nr.  10
 **********************
 DD1Dir will call FoFMem   1 times, MxPair=       156
 NAB=    78 NAA=     0 NBB=     0.
 DE(Corr)= -0.85045209     E(CORR)=     -635.20732217     Delta=-9.57D-08
 NORM(A)=   0.11171174D+01
 Iteration Nr.  11
 **********************
 DD1Dir will call FoFMem   1 times, MxPair=       156
 NAB=    78 NAA=     0 NBB=     0.
 DE(Corr)= -0.85045282     E(CORR)=     -635.20732291     Delta=-7.33D-07
 NORM(A)=   0.11171188D+01
 Iteration Nr.  12
 **********************
 DD1Dir will call FoFMem   1 times, MxPair=       156
 NAB=    78 NAA=     0 NBB=     0.
 DE(Corr)= -0.85045306     E(CORR)=     -635.20732314     Delta=-2.38D-07
 NORM(A)=   0.11171195D+01
 Iteration Nr.  13
 **********************
 DD1Dir will call FoFMem   1 times, MxPair=       156
 NAB=    78 NAA=     0 NBB=     0.
 DE(Corr)= -0.85045332     E(CORR)=     -635.20732341     Delta=-2.64D-07
 NORM(A)=   0.11171199D+01
 Iteration Nr.  14
 **********************
 DD1Dir will call FoFMem   1 times, MxPair=       156
 NAB=    78 NAA=     0 NBB=     0.
 DE(Corr)= -0.85045338     E(CORR)=     -635.20732347     Delta=-5.95D-08
 NORM(A)=   0.11171201D+01
 Iteration Nr.  15
 **********************
 DD1Dir will call FoFMem   1 times, MxPair=       156
 NAB=    78 NAA=     0 NBB=     0.
 DE(Corr)= -0.85045342     E(CORR)=     -635.20732351     Delta=-3.92D-08
 NORM(A)=   0.11171201D+01
 Iteration Nr.  16
 **********************
 DD1Dir will call FoFMem   1 times, MxPair=       156
 NAB=    78 NAA=     0 NBB=     0.
 DE(Corr)= -0.85045343     E(CORR)=     -635.20732352     Delta=-1.09D-08
 NORM(A)=   0.11171202D+01
 Iteration Nr.  17
 **********************
 DD1Dir will call FoFMem   1 times, MxPair=       156
 NAB=    78 NAA=     0 NBB=     0.
 DE(Corr)= -0.85045343     E(CORR)=     -635.20732351     Delta= 1.93D-09
 NORM(A)=   0.11171202D+01
 Iteration Nr.  18
 **********************
 DD1Dir will call FoFMem   1 times, MxPair=       156
 NAB=    78 NAA=     0 NBB=     0.
 DE(Corr)= -0.85045343     E(CORR)=     -635.20732352     Delta=-1.81D-09
 NORM(A)=   0.11171202D+01
 Largest amplitude= 8.51D-02

 Z-AMPLITUDE ITERATIONS

 Iteration Nr.   1
 **********************
 DD1Dir will call FoFMem   1 times, MxPair=       156
 NAB=    78 NAA=     0 NBB=     0.
 DE(Z)  -0.82655021D+00          E(Z)=    -0.63518342029D+03
 NORM(A)=   0.11171115D+01
 Iteration Nr.   2
 **********************
 DD1Dir will call FoFMem   1 times, MxPair=       156
 NAB=    78 NAA=     0 NBB=     0.
 DE(Z)  -0.82655019D+00          E(Z)=    -0.63518342027D+03
 NORM(A)=   0.11171258D+01
 Iteration Nr.   3
 **********************
 DD1Dir will call FoFMem   1 times, MxPair=       156
 NAB=    78 NAA=     0 NBB=     0.
 DE(Z)  -0.82655030D+00          E(Z)=    -0.63518342038D+03
 NORM(A)=   0.11171149D+01
 Iteration Nr.   4
 **********************
 DD1Dir will call FoFMem   1 times, MxPair=       156
 NAB=    78 NAA=     0 NBB=     0.
 DE(Z)  -0.82655014D+00          E(Z)=    -0.63518342022D+03
 NORM(A)=   0.11171285D+01
 Iteration Nr.   5
 **********************
 DD1Dir will call FoFMem   1 times, MxPair=       156
 NAB=    78 NAA=     0 NBB=     0.
 DE(Z)  -0.82655034D+00          E(Z)=    -0.63518342042D+03
 NORM(A)=   0.11088888D+01
 Iteration Nr.   6
 **********************
 DD1Dir will call FoFMem   1 times, MxPair=       156
 NAB=    78 NAA=     0 NBB=     0.
 DE(Z)  -0.82640528D+00          E(Z)=    -0.63518327536D+03
 NORM(A)=   0.11088802D+01
 Iteration Nr.   7
 **********************
 DD1Dir will call FoFMem   1 times, MxPair=       156
 NAB=    78 NAA=     0 NBB=     0.
 DE(Z)  -0.82641061D+00          E(Z)=    -0.63518328069D+03
 NORM(A)=   0.11088779D+01
 Iteration Nr.   8
 **********************
 DD1Dir will call FoFMem   1 times, MxPair=       156
 NAB=    78 NAA=     0 NBB=     0.
 DE(Z)  -0.82640959D+00          E(Z)=    -0.63518327968D+03
 NORM(A)=   0.11088784D+01
 Iteration Nr.   9
 **********************
 DD1Dir will call FoFMem   1 times, MxPair=       156
 NAB=    78 NAA=     0 NBB=     0.
 DE(Z)  -0.82640964D+00          E(Z)=    -0.63518327973D+03
 NORM(A)=   0.11088784D+01
 Iteration Nr.  10
 **********************
 DD1Dir will call FoFMem   1 times, MxPair=       156
 NAB=    78 NAA=     0 NBB=     0.
 DE(Z)  -0.82640959D+00          E(Z)=    -0.63518327967D+03
 NORM(A)=   0.11088786D+01
 Iteration Nr.  11
 **********************
 DD1Dir will call FoFMem   1 times, MxPair=       156
 NAB=    78 NAA=     0 NBB=     0.
 DE(Z)  -0.82640955D+00          E(Z)=    -0.63518327963D+03
 NORM(A)=   0.11088786D+01
 Iteration Nr.  12
 **********************
 DD1Dir will call FoFMem   1 times, MxPair=       156
 NAB=    78 NAA=     0 NBB=     0.
 DE(Z)  -0.82640961D+00          E(Z)=    -0.63518327970D+03
 NORM(A)=   0.11088786D+01
 Iteration Nr.  13
 **********************
 DD1Dir will call FoFMem   1 times, MxPair=       156
 NAB=    78 NAA=     0 NBB=     0.
 DE(Z)  -0.82640959D+00          E(Z)=    -0.63518327967D+03
 NORM(A)=   0.11088786D+01
 Iteration Nr.  14
 **********************
 DD1Dir will call FoFMem   1 times, MxPair=       156
 NAB=    78 NAA=     0 NBB=     0.
 DE(Z)  -0.82640959D+00          E(Z)=    -0.63518327968D+03
 NORM(A)=   0.11088786D+01
 Discarding MO integrals.
          IDoAtm=1111
          Differentiating once with respect to electric field.
                with respect to dipole field.
          Differentiating once with respect to nuclear coordinates.
          Keep R1 ints in memory in canonical form, NReq=319473803.
          There are     1 degrees of freedom in the 1st order CPHF.  IDoFFX=0.
 LinEq1:  Iter=  0 NonCon=     1 RMS=2.85D-03 Max=7.74D-02
 AX will form     1 AO Fock derivatives at one time.
 LinEq1:  Iter=  1 NonCon=     1 RMS=8.84D-04 Max=1.23D-02
 LinEq1:  Iter=  2 NonCon=     1 RMS=4.03D-04 Max=1.29D-02
 LinEq1:  Iter=  3 NonCon=     1 RMS=1.09D-04 Max=2.39D-03
 LinEq1:  Iter=  4 NonCon=     1 RMS=2.69D-05 Max=6.37D-04
 LinEq1:  Iter=  5 NonCon=     1 RMS=6.77D-06 Max=1.03D-04
 LinEq1:  Iter=  6 NonCon=     1 RMS=2.67D-06 Max=5.71D-05
 LinEq1:  Iter=  7 NonCon=     1 RMS=8.32D-07 Max=1.52D-05
 LinEq1:  Iter=  8 NonCon=     1 RMS=1.67D-07 Max=2.33D-06
 LinEq1:  Iter=  9 NonCon=     1 RMS=3.13D-08 Max=3.73D-07
 LinEq1:  Iter= 10 NonCon=     1 RMS=6.21D-09 Max=7.38D-08
 LinEq1:  Iter= 11 NonCon=     1 RMS=9.85D-10 Max=1.58D-08
 LinEq1:  Iter= 12 NonCon=     1 RMS=1.41D-10 Max=1.93D-09
 LinEq1:  Iter= 13 NonCon=     0 RMS=2.62D-11 Max=2.94D-10
 Linear equations converged to 1.000D-10 1.000D-09 after    13 iterations.
 End of Minotr Frequency-dependent properties file   721 does not exist.
 End of Minotr Frequency-dependent properties file   722 does not exist.

 **********************************************************************

            Population analysis using the QCI/CC density.

 **********************************************************************

 Alpha  occ. eigenvalues --  -91.97613 -26.39009 -26.39007 -11.51899  -8.97975
 Alpha  occ. eigenvalues --   -6.66098  -6.65935  -6.65814  -1.75538  -1.68122
 Alpha  occ. eigenvalues --   -1.09885  -0.92971  -0.84409  -0.80259  -0.77541
 Alpha  occ. eigenvalues --   -0.72174  -0.70145  -0.59709  -0.43113  -0.40182
 Alpha virt. eigenvalues --    0.05279   0.05518   0.06433   0.08647   0.08686
 Alpha virt. eigenvalues --    0.10318   0.10818   0.12189   0.19610   0.20459
 Alpha virt. eigenvalues --    0.20849   0.23046   0.23428   0.26352   0.27025
 Alpha virt. eigenvalues --    0.27356   0.28389   0.29093   0.29408   0.29787
 Alpha virt. eigenvalues --    0.35826   0.36513   0.41254   0.41889   0.44977
 Alpha virt. eigenvalues --    0.46730   0.47980   0.51696   0.51933   0.53099
 Alpha virt. eigenvalues --    0.53100   0.62322   0.63496   0.66026   0.69881
 Alpha virt. eigenvalues --    0.73065   0.73518   0.74720   0.76548   0.77698
 Alpha virt. eigenvalues --    0.85044   0.85514   0.88442   0.89870   0.90686
 Alpha virt. eigenvalues --    0.96074   0.96114   1.02111   1.03760   1.07775
 Alpha virt. eigenvalues --    1.09119   1.10832   1.11275   1.12403   1.14889
 Alpha virt. eigenvalues --    1.14991   1.17536   1.19647   1.23184   1.25754
 Alpha virt. eigenvalues --    1.28115   1.32662   1.34904   1.39893   1.42785
 Alpha virt. eigenvalues --    1.44573   1.49611   1.53749   1.57403   1.65003
 Alpha virt. eigenvalues --    1.68046   1.70388   1.70796   1.71636   1.73822
 Alpha virt. eigenvalues --    1.78914   1.99691   2.03587   2.06752   2.07985
 Alpha virt. eigenvalues --    2.11677   2.26991   2.30628   2.32036   2.36355
 Alpha virt. eigenvalues --    2.41564   2.43355   2.43637   2.45858   2.51815
 Alpha virt. eigenvalues --    2.54846   2.58829   2.66478   2.75331   2.80293
 Alpha virt. eigenvalues --    2.84153   2.86225   2.90151   2.92781   2.93785
 Alpha virt. eigenvalues --    2.96805   2.99981   3.00199   3.06924   3.14453
 Alpha virt. eigenvalues --    3.15126   3.17791   3.19207   3.20768   3.32435
 Alpha virt. eigenvalues --    3.32916   3.37563   3.39756   3.45763   3.51484
 Alpha virt. eigenvalues --    3.55004   3.56043   3.63146   3.72920   3.73867
 Alpha virt. eigenvalues --    3.75328   3.75694   3.92813   4.00696   4.11267
 Alpha virt. eigenvalues --    4.19056   4.21575   4.26402   4.43270   4.55371
 Alpha virt. eigenvalues --    4.61059   4.70330   4.74830   4.85957   5.45566
 Alpha virt. eigenvalues --    5.51302   5.69180   5.88527   6.23897   6.59711
 Alpha virt. eigenvalues --    7.20595   8.78887   8.80633   8.86004   8.86926
 Alpha virt. eigenvalues --    8.99746   9.00213   9.10513   9.12516   9.19685
 Alpha virt. eigenvalues --    9.26586   9.27255   9.29488   9.33461   9.33987
 Alpha virt. eigenvalues --    9.36309   9.36569   9.39913   9.45569   9.54837
 Alpha virt. eigenvalues --    9.56215   9.59040   9.71916   9.84818   9.86777
 Alpha virt. eigenvalues --   12.04478  15.07576  16.12357
          Condensed to atoms (all electrons):
              1          2          3          4
     1  C    5.194517   0.242986   0.110522   0.110522
     2  S    0.242986  15.949607  -0.066551  -0.066551
     3  F    0.110522  -0.066551   9.178400  -0.081392
     4  F    0.110522  -0.066551  -0.081392   9.178400
 Mulliken atomic charges:
              1
     1  C    0.341452
     2  S   -0.059493
     3  F   -0.140980
     4  F   -0.140980
 Sum of Mulliken atomic charges =   0.00000
 Mulliken charges with hydrogens summed into heavy atoms:
              1
     1  C    0.341452
     2  S   -0.059493
     3  F   -0.140980
     4  F   -0.140980
 Sum of Mulliken charges with hydrogens summed into heavy atoms =   0.00000
 Electronic spatial extent (au):  <R**2>=            315.2002
 Charge=              0.0000 electrons
 Dipole moment (field-independent basis, Debye):
    X=             -0.0007    Y=              0.0000    Z=             -0.2243  Tot=              0.2243
 Quadrupole moment (field-independent basis, Debye-Ang):
   XX=            -27.2810   YY=            -30.1543   ZZ=            -27.9399
   XY=              0.0000   XZ=              0.0041   YZ=              0.0000
 Traceless Quadrupole moment (field-independent basis, Debye-Ang):
   XX=              1.1774   YY=             -1.6959   ZZ=              0.5185
   XY=              0.0000   XZ=              0.0041   YZ=              0.0000
 Octapole moment (field-independent basis, Debye-Ang**2):
  XXX=              0.0178  YYY=              0.0000  ZZZ=              8.7842  XYY=              0.0069
  XXY=              0.0000  XXZ=              0.7522  XZZ=              0.0090  YZZ=              0.0000
  YYZ=              0.8022  XYZ=              0.0000
 Hexadecapole moment (field-independent basis, Debye-Ang**3):
 XXXX=            -28.1326 YYYY=            -96.1674 ZZZZ=           -215.0424 XXXY=              0.0000
 XXXZ=             -0.0019 YYYX=              0.0000 YYYZ=              0.0000 ZZZX=              0.0011
 ZZZY=              0.0000 XXYY=            -20.7177 XXZZ=            -40.5190 YYZZ=            -55.6372
 XXYZ=              0.0000 YYXZ=             -0.0034 ZZXY=              0.0000
 N-N= 1.543928393524D+02 E-N=-1.820106205854D+03  KE= 6.349953450848D+02
 Use density number 7.
 DipInt: DoE/N= T T RetVal/Mat= T F Init=T NMatP=  1 IDeriv=0 Min/MaxMlt=  1  1
 Entering OneElI...
 Multipole integrals L=1 to 1 MinM= 0 MaxM= 0.
 Requested accuracy = 0.1000D-12
 PrsmSu:  NPrtUS=   1 ThrOK=F IAlg=1 NPAlg=1 LenDen=           0.
 Prism:   IPart=     0 DynPar=F LinDyn=F Incr=          16.
 PRISM was handed  1073432621 working-precision words and  1698 shell-pairs
 IPart=  0 NShTot=        1698 NBatch=          81 AvBLen=        21.0
 PrSmSu:  NxtVal=             17.
 Entering OneElI...
 Calculate overlap and kinetic energy integrals
    NBasis = 224  MinDer = 1  MaxDer = 1
 Requested accuracy = 0.1000D-12
 PrsmSu:  NPrtUS=   8 ThrOK=T IAlg=1 NPAlg=1 LenDen=           0.
 Prism:   IPart=     0 DynPar=F LinDyn=F Incr=           2.
 PRISM was handed   134118960 working-precision words and  1709 shell-pairs
 PRISM was handed   134118960 working-precision words and  1709 shell-pairs
[...]
 OrtVCM:  Ph=2 NNew=    0 IAdd=    6 IPass= 1 DotMx2= 1.11D-16
 OrtVCM:  IS=    1 I=    6 IndO=    6 Dot= 1.00D+00 DotN= 1.00D+00 ElMax1= 6.35D-01 ElMax1N= 6.35D-01
 OrtVCM:  Ph=1 IPass= 1 DotMx1= 7.59D-01
 OrtVCM:  Ph=1 IPass= 2 DotMx1= 1.80D-16
 OrtVCM:  IS=    1 I=    1 IndO=    7 Dot= 8.45D-01 DotN= 8.45D-01 ElMax1= 8.45D-01 ElMax1N= 8.45D-01
 OrtVCM:  Ph=2 NNew=    0 IAdd=    2 IPass= 1 DotMx2= 0.00D+00
 OrtVCM:  IS=    1 I=    2 IndO=    8 Dot= 8.48D-01 DotN= 8.48D-01 ElMax1= 8.48D-01 ElMax1N= 8.48D-01
 OrtVCM:  Ph=2 NNew=    0 IAdd=    3 IPass= 1 DotMx2= 0.00D+00
 OrtVCM:  IS=    1 I=    3 IndO=    9 Dot= 8.54D-01 DotN= 8.54D-01 ElMax1= 8.54D-01 ElMax1N= 8.54D-01
 OrtVCM:  Ph=2 NNew=    0 IAdd=    4 IPass= 1 DotMx2= 1.84D-01
 OrtVCM:  Ph=2 NNew=    0 IAdd=    4 IPass= 2 DotMx2= 3.96D-17
 OrtVCM:  IS=    1 I=    4 IndO=    0 Dot= 5.03D-34 DotN= 5.03D-34 ElMax1= 1.35D-17 ElMax1N= 1.35D-17
 OrtVCM:  Ph=2 NNew=    0 IAdd=    5 IPass= 1 DotMx2= 2.06D-01
 OrtVCM:  Ph=2 NNew=    0 IAdd=    5 IPass= 2 DotMx2= 4.34D-17
 OrtVCM:  IS=    1 I=    5 IndO=   10 Dot= 1.64D-01 DotN= 1.64D-01 ElMax1= 2.39D-01 ElMax1N= 2.39D-01
 OrtVCM:  Ph=2 NNew=    0 IAdd=    6 IPass= 1 DotMx2= 2.59D-01
 OrtVCM:  Ph=2 NNew=    0 IAdd=    6 IPass= 2 DotMx2= 2.78D-17
 OrtVCM:  IS=    1 I=    6 IndO=   11 Dot= 5.43D-01 DotN= 5.43D-01 ElMax1= 5.43D-01 ElMax1N= 5.43D-01
 SchOr2:  IPass= 1 Test2A= 1.00D-01 IOff=     0 NDo=     6 NNew=     5
 OrtVCM:  Ph=1 IPass= 1 DotMx1= 7.07D-01
 OrtVCM:  Ph=1 IPass= 2 DotMx1= 1.57D-16
 OrtVCM:  IS=    1 I=    1 IndO=    0 Dot= 3.14D-63 DotN= 3.14D-63 ElMax1= 5.55D-32 ElMax1N= 5.55D-32
 SchOr2:  IPass= 1 Test2A= 1.00D-01 IOff=     6 NDo=     1 NNew=     0
 OrtVCM:  Ph=1 IPass= 1 DotMx1= 4.81D-01
 OrtVCM:  Ph=1 IPass= 2 DotMx1= 1.11D-16
 OrtVCM:  IS=    1 I=    1 IndO=   12 Dot= 5.00D-01 DotN= 5.00D-01 ElMax1= 5.00D-01 ElMax1N= 5.00D-01
 SchOr2:  IPass= 1 Test2A= 1.00D-01 IOff=     7 NDo=     1 NNew=     1
 VibFq2-Diag2:  N=      6 IV=           5 MDV=  1073669090 NE2=   178944847
 Dipole derivatives wrt mode   1:  2.40022D-09 -5.83121D-01 -3.14685D-04
 Vibrational polarizability contributions from mode   1       0.0000000       0.0507584       0.0000000
 Vibrational hyperpolarizability contributions from mode   1       0.0000000       0.0000000       0.0000000
 Dipole derivatives wrt mode   2: -1.51912D-05  3.88759D-06  2.66273D+00
 Vibrational polarizability contributions from mode   2       0.0000000       0.0000000       0.6697050
 Vibrational hyperpolarizability contributions from mode   2       0.0000000       0.0000000       0.0000000
 Dipole derivatives wrt mode   3:  1.39699D+00 -4.41234D-09 -1.13929D-03
 Vibrational polarizability contributions from mode   3       0.1293457       0.0000000       0.0000001
 Vibrational hyperpolarizability contributions from mode   3       0.0000000       0.0000000       0.0000000
 Dipole derivatives wrt mode   4: -1.07440D-04 -6.93201D-05 -2.69082D+00
 Vibrational polarizability contributions from mode   4       0.0000000       0.0000000       0.2980367
 Vibrational hyperpolarizability contributions from mode   4       0.0000000       0.0000000       0.0000000
 Dipole derivatives wrt mode   5:  1.46462D-10  1.55048D+01  5.53909D-04
 Vibrational polarizability contributions from mode   5       0.0000000       4.0938205       0.0000000
 Vibrational hyperpolarizability contributions from mode   5       0.0000000       0.0000000       0.0000000
 Dipole derivatives wrt mode   6: -6.04008D-06 -2.91935D-05  2.56923D+01
 Vibrational polarizability contributions from mode   6       0.0000000       0.0000000       9.0784807
 Vibrational hyperpolarizability contributions from mode   6       0.0000000       0.0000000       0.0000000
 Diagonal vibrational polarizability:
        0.1293457       4.1445789      10.0462225
 NorSel:  MapVib=      1      2      3      4      5      6
 Harmonic frequencies (cm**-1), IR intensities (KM/Mole), Raman scattering
 activities (A**4/AMU), depolarization ratios for plane and unpolarized
 incident light, reduced masses (AMU), force constants (mDyne/A),
 and normal coordinates:
                           1         2         3         4         5
                           A         A         A         A         A
       Frequencies ---   424.5917  533.7680  637.2104  808.5680 1257.0990
    Reduced masses ---    18.9320   21.3521   12.8441   20.7007   13.5023
   Force constants ---     2.0109    3.5842    3.0727    7.9738   12.5718
    IR Intensities ---     0.3400    7.0902    1.9516    7.2405  240.4001
 Coord Atom Element:
   1     1     6          0.00000  -0.00001   0.95109  -0.00009   0.00000
   2     1     6         -0.48565   0.00000   0.00000   0.00000   0.88633
   3     1     6          0.00000   0.18618   0.00002   0.22057   0.00000
   1     2    16          0.00000   0.00000  -0.11656   0.00001   0.00000
   2     2    16          0.34944   0.00000   0.00000   0.00000  -0.01123
   3     2    16          0.00000   0.44735  -0.00002  -0.39681   0.00000
   1     3     9          0.00000   0.00000  -0.20229   0.00002   0.00000
   2     3     9         -0.14066   0.43953   0.00004   0.57196  -0.27047
   3     3     9         -0.54885  -0.43522   0.00001   0.26423  -0.18438
   1     4     9          0.00000   0.00000  -0.20229   0.00002   0.00000
   2     4     9         -0.14066  -0.43953  -0.00004  -0.57195  -0.27047
   3     4     9          0.54885  -0.43522   0.00001   0.26422   0.18438
                           6
                           A
       Frequencies ---  1398.8243
    Reduced masses ---    13.1679
   Force constants ---    15.1807
    IR Intensities ---   660.0949
 Coord Atom Element:
   1     1     6          0.00000
   2     1     6          0.00000
   3     1     6          0.94040
   1     2    16          0.00000
   2     2    16          0.00000
   3     2    16         -0.16624
   1     3     9          0.00000
   2     3     9         -0.13900
   3     3     9         -0.15711
   1     4     9          0.00000
   2     4     9          0.13900
   3     4     9         -0.15711
 Harmonic frequencies (cm**-1), IR intensities (KM/Mole), Raman scattering
 activities (A**4/AMU), depolarization ratios for plane and unpolarized
 incident light, reduced masses (AMU), force constants (mDyne/A),
 and normal coordinates:
                     1                      2                      3
                     A                      A                      A
 Frequencies --   424.5917               533.7680               637.2104
 Red. masses --    18.9320                21.3521                12.8441
 Frc consts  --     2.0109                 3.5842                 3.0727
 IR Inten    --     0.3400                 7.0902                 1.9516
  Atom  AN      X      Y      Z        X      Y      Z        X      Y      Z
     1   6     0.00  -0.49   0.00     0.00   0.00   0.19     0.95   0.00   0.00
     2  16     0.00   0.35   0.00     0.00   0.00   0.45    -0.12   0.00   0.00
     3   9     0.00  -0.14  -0.55     0.00   0.44  -0.44    -0.20   0.00   0.00
     4   9     0.00  -0.14   0.55     0.00  -0.44  -0.44    -0.20   0.00   0.00
                     4                      5                      6
                     A                      A                      A
 Frequencies --   808.5680              1257.0990              1398.8243
 Red. masses --    20.7007                13.5023                13.1679
 Frc consts  --     7.9738                12.5718                15.1807
 IR Inten    --     7.2405               240.4001               660.0949
  Atom  AN      X      Y      Z        X      Y      Z        X      Y      Z
     1   6     0.00   0.00   0.22     0.00   0.89   0.00     0.00   0.00   0.94
     2  16     0.00   0.00  -0.40     0.00  -0.01   0.00     0.00   0.00  -0.17
     3   9     0.00   0.57   0.26     0.00  -0.27  -0.18     0.00  -0.14  -0.16
     4   9     0.00  -0.57   0.26     0.00  -0.27   0.18     0.00   0.14  -0.16

 -------------------
 - Thermochemistry -
 -------------------
 Temperature   298.150 Kelvin.  Pressure   1.00000 Atm.
 Atom     1 has atomic number  6 and mass  12.00000
 Atom     2 has atomic number 16 and mass  31.97207
 Atom     3 has atomic number  9 and mass  18.99840
 Atom     4 has atomic number  9 and mass  18.99840
 Molecular mass:    81.96888 amu.
 Principal axes and moments of inertia in atomic units:
                           1         2         3
     Eigenvalues --   151.08860 352.96508 504.05368
           X            0.00000   0.00000   1.00000
           Y            0.00000   1.00000   0.00000
           Z            1.00000   0.00000   0.00000
 This molecule is an asymmetric top.
 Rotational symmetry number  2.
 Rotational temperatures (Kelvin)      0.57327     0.24539     0.17183
 Rotational constants (GHZ):          11.94492     5.11309     3.58045
 Zero-point vibrational energy      30265.9 (Joules/Mol)
                                    7.23372 (Kcal/Mol)
 Warning -- explicit consideration of   2 degrees of freedom as
           vibrations may cause significant error
 Vibrational temperatures:    610.89   767.97   916.80  1163.35  1808.68
          (Kelvin)           2012.59
 
 Zero-point correction=                           0.011528 (Hartree/Particle)
 Thermal correction to Energy=                    0.015084
 Thermal correction to Enthalpy=                  0.016028
 Thermal correction to Gibbs Free Energy=        -0.014687
 Sum of electronic and zero-point Energies=           -635.195796
 Sum of electronic and thermal Energies=              -635.192240
 Sum of electronic and thermal Enthalpies=            -635.191296
 Sum of electronic and thermal Free Energies=         -635.222010
 
                     E (Thermal)             CV                S
                      KCal/Mol        Cal/Mol-Kelvin    Cal/Mol-Kelvin
 Total                    9.465             10.421             64.645
 Electronic               0.000              0.000              0.000
 Translational            0.889              2.981             39.125
 Rotational               0.889              2.981             23.423
 Vibrational              7.688              4.459              2.096
 Vibration     1          0.787              1.417              0.877
 Vibration     2          0.889              1.175              0.579
                       Q            Log10(Q)             Ln(Q)
 Total Bot       0.569281D+07          6.755327         15.554715
 Total V=0       0.114202D+13         12.057675         27.763823
 Vib (Bot)       0.665061D-05         -5.177138        -11.920801
 Vib (Bot)    1  0.412093D+00         -0.385004         -0.886506
 Vib (Bot)    2  0.298570D+00         -0.524954         -1.208751
 Vib (V=0)       0.133417D+01          0.125210          0.288306
 Vib (V=0)    1  0.114794D+01          0.059918          0.137965
 Vib (V=0)    2  0.108236D+01          0.034372          0.079145
 Electronic      0.100000D+01          0.000000          0.000000
 Translational   0.291695D+08          7.464929         17.188634
 Rotational      0.293452D+05          4.467537         10.286883
 -------------------------------------------------------------------
 Center     Atomic                   Forces (Hartrees/Bohr)
 Number     Number              X              Y              Z
 -------------------------------------------------------------------
      1        6           0.000000000    0.000000000   -0.000054217
      2       16           0.000000000    0.000000000    0.000100039
      3        9           0.000000000   -0.000015768   -0.000022911
      4        9           0.000000000    0.000015768   -0.000022911
 -------------------------------------------------------------------
 Cartesian Forces:  Max     0.000100039 RMS     0.000034754
 Z-matrix is all fixed cartesians, so copy forces.
 Force constants in Cartesian coordinates: 
                1             2             3             4             5 
      1  0.155834D+00
      2  0.000000D+00  0.513276D+00
      3 -0.348283D-05  0.000000D+00  0.727022D+00
      4 -0.508527D-01  0.000000D+00  0.000000D+00  0.165873D-01
      5  0.000000D+00 -0.403501D-01 -0.149130D-05  0.000000D+00  0.455259D-01
      6  0.821863D-05 -0.185070D-05 -0.361287D+00  0.132580D-05  0.136564D-05
      7 -0.524831D-01  0.570127D-05  0.267459D-05  0.171413D-01  0.000000D+00
      8 -0.487608D-05 -0.236462D+00 -0.123783D+00 -0.123876D-05 -0.258598D-02
      9 -0.236790D-05 -0.143108D+00 -0.182866D+00  0.000000D+00 -0.364225D-01
     10 -0.524831D-01 -0.570121D-05  0.157851D-05  0.171413D-01  0.000000D+00
     11  0.487614D-05 -0.236465D+00  0.123783D+00  0.123859D-05 -0.258572D-02
     12 -0.236794D-05  0.143110D+00 -0.182866D+00  0.000000D+00  0.364226D-01
                6             7             8             9            10 
      6  0.454559D+00
      7 -0.368660D-05  0.176769D-01
      8 -0.255133D-01 -0.106148D-05  0.335074D+00
      9 -0.466192D-01  0.000000D+00  0.164430D+00  0.208259D+00
     10 -0.337482D-05  0.176490D-01  0.449177D-05  0.169129D-05  0.176769D-01
     11  0.255132D-01 -0.398742D-05 -0.960257D-01  0.151042D-01  0.000000D+00
     12 -0.466196D-01  0.129913D-05 -0.151045D-01  0.212087D-01  0.000000D+00
               11            12 
     11  0.335074D+00
     12 -0.164430D+00  0.208259D+00
 Final forces over variables, Energy=-6.35207324D+02:
  3.42005299D-12-4.95842459D-12 7.76596425D-13 7.61775176D-13
 -6.80655249D-13-2.83369513D-13-1.57684633D-05 1.57684644D-05
 -5.42168493D-05 1.00039294D-04-2.29112215D-05-2.29112236D-05

 GradGradGradGradGradGradGradGradGradGradGradGradGradGradGradGradGradGrad
 Berny optimization.
 Search for a local minimum.
 Step number   1 out of a maximum of    2
 All quantities printed in internal units (Hartrees-Bohrs-Radians)
 Second derivative matrix not updated -- analytic derivatives used.
 The second derivative matrix:
                          X1        Y1        Z1        X2        Y2
           X1           0.15583
           Y1           0.00000   0.51328
           Z1           0.00000   0.00000   0.72702
           X2          -0.05085   0.00000   0.00000   0.01659
           Y2           0.00000  -0.04035   0.00000   0.00000   0.04553
           Z2           0.00001   0.00000  -0.36129   0.00000   0.00000
           X3          -0.05248   0.00001   0.00000   0.01714   0.00000
           Y3           0.00000  -0.23646  -0.12378   0.00000  -0.00259
           Z3           0.00000  -0.14311  -0.18287   0.00000  -0.03642
           X4          -0.05248  -0.00001   0.00000   0.01714   0.00000
           Y4           0.00000  -0.23647   0.12378   0.00000  -0.00259
           Z4           0.00000   0.14311  -0.18287   0.00000   0.03642
                          Z2        X3        Y3        Z3        X4
           Z2           0.45456
           X3           0.00000   0.01768
           Y3          -0.02551   0.00000   0.33507
           Z3          -0.04662   0.00000   0.16443   0.20826
           X4           0.00000   0.01765   0.00000   0.00000   0.01768
           Y4           0.02551   0.00000  -0.09603   0.01510   0.00000
           Z4          -0.04662   0.00000  -0.01510   0.02121   0.00000
                          Y4        Z4
           Y4           0.33507
           Z4          -0.16443   0.20826
 ITU=  0
     Eigenvalues ---    0.13486   0.20456   0.22724   0.54612   0.84285
     Eigenvalues ---    1.04197
 Angle between quadratic step and forces=  26.77 degrees.
 Linear search not attempted -- first point.
 TrRot=  0.000000  0.000000  0.000016  0.000000  0.000000  0.000000
 Variable       Old X    -DE/DX   Delta X   Delta X   Delta X     New X
                                 (Linear)    (Quad)   (Total)
    X1        0.00000   0.00000   0.00000   0.00000   0.00000   0.00000
    Y1        0.00000   0.00000   0.00000   0.00000   0.00000   0.00000
    Z1       -0.98332  -0.00005   0.00000  -0.00004  -0.00003  -0.98334
    X2        0.00000   0.00000   0.00000   0.00000   0.00000   0.00000
    Y2        0.00000   0.00000   0.00000   0.00000   0.00000   0.00000
    Z2        2.03812   0.00010   0.00000   0.00017   0.00018   2.03830
    X3        0.00000   0.00000   0.00000   0.00000   0.00000   0.00000
    Y3       -1.99408  -0.00002   0.00000  -0.00001  -0.00001  -1.99408
    Z3       -2.44821  -0.00002   0.00000  -0.00009  -0.00008  -2.44829
    X4        0.00000   0.00000   0.00000   0.00000   0.00000   0.00000
    Y4        1.99408   0.00002   0.00000   0.00001   0.00001   1.99408
    Z4       -2.44821  -0.00002   0.00000  -0.00009  -0.00008  -2.44829
         Item               Value     Threshold  Converged?
 Maximum Force            0.000100     0.000450     YES
 RMS     Force            0.000035     0.000300     YES
 Maximum Displacement     0.000183     0.001800     YES
 RMS     Displacement     0.000062     0.001200     YES
 Predicted change in Energy=-1.174678D-08
 Optimization completed.
    -- Stationary point found.
 GradGradGradGradGradGradGradGradGradGradGradGradGradGradGradGradGradGrad


 Test job not archived.
 1\1\GINC-TRAPISTA\Freq\RQCISD-FC\Aug-CC-pVTZ\C1F2S1\BRUNS\17-Nov-2021\
 0\\#freq=noraman qcisd/aug-cc-pvtz density=current iop(7/33=1) nosym f
 ormcheck=forcecart\\f2cs-frequencies\\0,1\C,0.,0.,-0.520349\S,0.,0.,1.
 078525\F,0.,-1.055221,-1.295538\F,0.,1.055221,-1.295538\\Version=EM64L
 -G09RevB.01\HF=-634.3568705\MP2=-635.1964052\MP3=-635.1997909\MP4D=-63
 5.2167164\MP4DQ=-635.1973636\MP4SDQ=-635.2082211\QCISD=-635.2073238\RM
 SD=7.679e-09\RMSF=3.475e-05\ZeroPoint=0.0115277\Thermal=0.0150841\Dipo
 le=0.,0.,-0.0882525\DipoleDeriv=0.1439377,0.,-0.0001192,0.,1.4634132,0
 .000067,0.,0.,2.5501927,-0.0667181,0.,-0.0000379,0.,-0.1106122,-0.0000
 12,0.,0.,-0.7006316,-0.0387455,-0.0000492,0.0000252,0.,-0.6764135,-0.6
 505506,0.,-0.4352786,-0.9243152,-0.0387455,0.0000492,0.0000448,0.,-0.6
 764133,0.6505361,0.,0.4352785,-0.9243282\Quadrupole=0.8753849,-1.26088
 81,0.3855032,0.,0.,0.\QuadrupoleDeriv=0.000325,0.0000705,-0.0003955,0.
 ,-1.6218405,0.,-0.0000562,-0.0000444,0.0001006,0.,0.,-4.9755133,1.7818
 094,-0.4096847,-1.3721247,0.,0.,0.,0.0000704,0.0000225,-0.0000929,0.,0
 .3726055,0.,-0.0000134,0.0000096,0.0000039,0.,0.,1.1671225,-1.0158092,
 0.000939,1.0148701,0.,0.,0.,-0.0001391,-0.0000152,0.0001543,0.5351859,
 0.5811061,0.0000888,-0.3682694,0.3816932,-0.0134238,0.,0.,1.860052,-0.
 3526724,0.2335933,0.1190791,0.,0.,0.8737687,-0.0001327,-0.0000256,0.00
 01584,-0.5351859,0.5811061,-0.0000888,0.3682577,-0.381683,0.0134253,0.
 ,0.,1.8600521,-0.3526781,0.233602,0.119076,0.,0.,-0.8737686\PG=C02V [C
 2(C1S1),SGV(F2)]\NImag=0\\0.15583364,0.,0.51327626,-0.00000348,-0.0000
 0001,0.72702157,-0.05085275,0.,0.00000062,0.01658732,0.,-0.04035008,-0
 .00000149,0.,0.04552585,0.00000822,-0.00000185,-0.36128681,0.00000133,
 0.00000137,0.45455858,-0.05248311,0.00000570,0.00000267,0.01714133,-0.
 00000065,-0.00000369,0.01767688,-0.00000488,-0.23646222,-0.12378315,-0
 .00000124,-0.00258598,-0.02551326,-0.00000106,0.33507358,-0.00000237,-
 0.14310807,-0.18286626,-0.00000097,-0.03642249,-0.04661920,-0.00000029
 ,0.16442960,0.20825890,-0.05248311,-0.00000570,0.00000158,0.01714133,0
 .00000065,-0.00000337,0.01764895,0.00000449,0.00000169,0.01767688,0.00
 000488,-0.23646523,0.12378346,0.00000124,-0.00258572,0.02551316,-0.000
 00399,-0.09602565,0.01510425,0.00000056,0.33507410,-0.00000237,0.14310
 994,-0.18286580,-0.00000097,0.03642261,-0.04661958,0.00000130,-0.01510
 448,0.02120872,0.00000011,-0.16442957,0.20825882\\0.,0.,0.00005422,0.,
 0.,-0.00010004,0.,0.00001577,0.00002291,0.,-0.00001577,0.00002291\\\@


 I DON'T EXACTLY UNDERSTAND WHAT YOU ARE SAYING,
 BUT YOU ARE ABSOLUTELY RIGHT.
     M.S.GORDON, IN A NDSU FACULTY MEETING
 Job cpu time:  2 days  9 hours 44 minutes 46.5 seconds.
 File lengths (MBytes):  RWF=  17813 Int=      0 D2E=      0 Chk=     43 Scr=      1
 Normal termination of Gaussian 09 at Wed Nov 17 12:17:20 2021.
