 Entering Gaussian System, Link 0=/home/bruns/programas/chemistry/gaussian/g09/g09
 Input=./f2cs/f2cs-opt.com
 Output=./f2cs/f2cs-opt.log
 Initial command:
 /home/bruns/programas/chemistry/gaussian/g09/l1.exe /home/bruns/programas/chemistry/gaussian/work/Gau-68702.inp -scrdir=/home/bruns/programas/chemistry/gaussian/work/
 Entering Link 1 = /home/bruns/programas/chemistry/gaussian/g09/l1.exe PID=     68704.
  
 Copyright (c) 1988,1990,1992,1993,1995,1998,2003,2009,2010,
            Gaussian, Inc.  All Rights Reserved.
  
 This is part of the Gaussian(R) 09 program.  It is based on
 the Gaussian(R) 03 system (copyright 2003, Gaussian, Inc.),
 the Gaussian(R) 98 system (copyright 1998, Gaussian, Inc.),
 the Gaussian(R) 94 system (copyright 1995, Gaussian, Inc.),
 the Gaussian 92(TM) system (copyright 1992, Gaussian, Inc.),
 the Gaussian 90(TM) system (copyright 1990, Gaussian, Inc.),
 the Gaussian 88(TM) system (copyright 1988, Gaussian, Inc.),
 the Gaussian 86(TM) system (copyright 1986, Carnegie Mellon
 University), and the Gaussian 82(TM) system (copyright 1983,
 Carnegie Mellon University). Gaussian is a federally registered
 trademark of Gaussian, Inc.
  
 This software contains proprietary and confidential information,
 including trade secrets, belonging to Gaussian, Inc.
  
 This software is provided under written license and may be
 used, copied, transmitted, or stored only in accord with that
 written license.
  
 The following legend is applicable only to US Government
 contracts under FAR:
  
                    RESTRICTED RIGHTS LEGEND
  
 Use, reproduction and disclosure by the US Government is
 subject to restrictions as set forth in subparagraphs (a)
 and (c) of the Commercial Computer Software - Restricted
 Rights clause in FAR 52.227-19.
  
 Gaussian, Inc.
 340 Quinnipiac St., Bldg. 40, Wallingford CT 06492
  
  
 ---------------------------------------------------------------
 Warning -- This program may not be used in any manner that
 competes with the business of Gaussian, Inc. or will provide
 assistance to any competitor of Gaussian, Inc.  The licensee
 of this program is prohibited from giving any competitor of
 Gaussian, Inc. access to this program.  By using this program,
 the user acknowledges that Gaussian, Inc. is engaged in the
 business of creating and licensing software in the field of
 computational chemistry and represents and warrants to the
 licensee that it is not a competitor of Gaussian, Inc. and that
 it will not use this program in any manner prohibited above.
 ---------------------------------------------------------------
  

 Cite this work as:
 Gaussian 09, Revision B.01,
 M. J. Frisch, G. W. Trucks, H. B. Schlegel, G. E. Scuseria, 
 M. A. Robb, J. R. Cheeseman, G. Scalmani, V. Barone, B. Mennucci, 
 G. A. Petersson, H. Nakatsuji, M. Caricato, X. Li, H. P. Hratchian, 
 A. F. Izmaylov, J. Bloino, G. Zheng, J. L. Sonnenberg, M. Hada, 
 M. Ehara, K. Toyota, R. Fukuda, J. Hasegawa, M. Ishida, T. Nakajima, 
 Y. Honda, O. Kitao, H. Nakai, T. Vreven, J. A. Montgomery, Jr., 
 J. E. Peralta, F. Ogliaro, M. Bearpark, J. J. Heyd, E. Brothers, 
 K. N. Kudin, V. N. Staroverov, T. Keith, R. Kobayashi, J. Normand, 
 K. Raghavachari, A. Rendell, J. C. Burant, S. S. Iyengar, J. Tomasi, 
 M. Cossi, N. Rega, J. M. Millam, M. Klene, J. E. Knox, J. B. Cross, 
 V. Bakken, C. Adamo, J. Jaramillo, R. Gomperts, R. E. Stratmann, 
 O. Yazyev, A. J. Austin, R. Cammi, C. Pomelli, J. W. Ochterski, 
 R. L. Martin, K. Morokuma, V. G. Zakrzewski, G. A. Voth, 
 P. Salvador, J. J. Dannenberg, S. Dapprich, A. D. Daniels, 
 O. Farkas, J. B. Foresman, J. V. Ortiz, J. Cioslowski, 
 and D. J. Fox, Gaussian, Inc., Wallingford CT, 2010.
 
 ******************************************
 Gaussian 09:  EM64L-G09RevB.01 12-Aug-2010
                17-Nov-2021 
 ******************************************
 %nproc=8
 Will use up to    8 processors via shared memory.
 %mem=8GB
 --------------------------------------------
 #opt qcisd/aug-cc-pvtz density=current nosym
 --------------------------------------------
 1/18=20,19=15,38=1/1,3;
 2/9=110,12=2,15=1,17=6,18=5,40=1/2;
 3/5=16,6=1,7=10,11=9,16=1,25=1,30=1,71=1/1,2,3;
 4//1;
 5/5=2,38=5/2;
 8/6=4,9=120000,10=1/1,4;
 9/5=8,15=1/13;
 11/28=-7,29=200,31=1,42=3/11;
 10/5=6,31=1/2;
 6/7=2,8=2,9=2,10=2,22=-1/1;
 7/12=7,30=1/1,2,3,16;
 1/18=20,19=15/3(2);
 2/9=110,15=1/2;
 99//99;
 2/9=110,15=1/2;
 3/5=16,6=1,7=10,11=9,16=1,25=1,30=1,71=1/1,2,3;
 4/5=5,16=3/1;
 5/5=2,38=5/2;
 8/6=4,9=120000,10=1/1,4;
 9/5=8,15=1/13;
 11/28=-7,29=200,31=1,42=3/11;
 10/5=6,31=1/2;
 7/12=7,30=1/1,2,3,16;
 1/18=20,19=15/3(-9);
 2/9=110,15=1/2;
 6/7=2,8=2,9=2,10=2,22=-1/1;
 99//99;
 ----
 f2cs
 ----
 Symbolic Z-matrix:
 Charge =  0 Multiplicity = 1
 C                     0.        0.       -0.56233 
 S                     0.        0.        1.00408 
 F                     0.       -1.16913  -1.23733 
 F                     0.        1.16913  -1.23733 
 

 GradGradGradGradGradGradGradGradGradGradGradGradGradGradGradGradGradGrad
 Berny optimization.
 Initialization pass.
                           ----------------------------
                           !    Initial Parameters    !
                           ! (Angstroms and Degrees)  !
 --------------------------                            --------------------------
 ! Name  Definition              Value          Derivative Info.                !
 --------------------------------------------------------------------------------
 ! R1    R(1,2)                  1.5664         estimate D2E/DX2                !
 ! R2    R(1,3)                  1.35           estimate D2E/DX2                !
 ! R3    R(1,4)                  1.35           estimate D2E/DX2                !
 ! A1    A(2,1,3)              120.0            estimate D2E/DX2                !
 ! A2    A(2,1,4)              120.0            estimate D2E/DX2                !
 ! A3    A(3,1,4)              120.0            estimate D2E/DX2                !
 ! D1    D(2,1,4,3)            180.0            estimate D2E/DX2                !
 --------------------------------------------------------------------------------
 Trust Radius=3.00D-01 FncErr=1.00D-07 GrdErr=1.00D-07
 Number of steps in this run=     20 maximum allowed number of steps=    100.
 GradGradGradGradGradGradGradGradGradGradGradGradGradGradGradGradGradGrad

                          Input orientation:                          
 ---------------------------------------------------------------------
 Center     Atomic      Atomic             Coordinates (Angstroms)
 Number     Number       Type             X           Y           Z
 ---------------------------------------------------------------------
      1          6           0        0.000000    0.000000   -0.562325
      2         16           0        0.000000    0.000000    1.004075
      3          9           0        0.000000   -1.169134   -1.237325
      4          9           0        0.000000    1.169134   -1.237325
 ---------------------------------------------------------------------
                    Distance matrix (angstroms):
                    1          2          3          4
     1  C    0.000000
     2  S    1.566400   0.000000
     3  F    1.350000   2.527993   0.000000
     4  F    1.350000   2.527993   2.338269   0.000000
 Symmetry turned off by external request.
 Stoichiometry    CF2S
 Framework group  C2V[C2(CS),SGV(F2)]
 Deg. of freedom     3
 Full point group                 C2V     NOp   4
 Rotational constants (GHZ):      9.7306377      5.7120315      3.5992294
 Standard basis: Aug-CC-pVTZ (5D, 7F)
 Integral buffers will be    131072 words long.
 Raffenetti 1 integral format.
 Two-electron integral symmetry is turned off.
   188 basis functions,   330 primitive gaussians,   224 cartesian basis functions
    20 alpha electrons       20 beta electrons
       nuclear repulsion energy       153.3832877460 Hartrees.
 NAtoms=    4 NActive=    4 NUniq=    4 SFac= 1.00D+00 NAtFMM=   50 NAOKFM=F Big=F
 One-electron integrals computed using PRISM.
 NBasis=   188 RedAO= T  NBF=   188
 NBsUse=   188 1.00D-06 NBFU=   188
 Harris functional with IExCor=  205 diagonalized for initial guess.
 ExpMin= 3.51D-02 ExpMax= 3.74D+05 ExpMxC= 1.18D+03 IAcc=3 IRadAn=         0 AccDes= 0.00D+00
 HarFok:  IExCor=  205 AccDes= 0.00D+00 IRadAn=         0 IDoV= 1
 ScaDFX=  1.000000  1.000000  1.000000  1.000000
 FoFCou: FMM=F IPFlag=           0 FMFlag=      100000 FMFlg1=           0
         NFxFlg=           0 DoJE=T BraDBF=F KetDBF=T FulRan=T
         Omega=  0.000000  0.000000  1.000000  0.000000  0.000000 ICntrl=     500 IOpCl=  0
         NMat0=    1 NMatS0=    1 NMatT0=    0 NMatD0=    1 NMtDS0=    0 NMtDT0=    0
         I1Cent=           4 NGrid=           0.
 Symmetry not used in FoFCou.
 Requested convergence on RMS density matrix=1.00D-08 within 128 cycles.
 Requested convergence on MAX density matrix=1.00D-06.
 Requested convergence on             energy=1.00D-06.
 No special actions if energy rises.
 Keep R1 ints in memory in canonical form, NReq=323399632.
 SCF Done:  E(RHF) =  -634.336798533     A.U. after   12 cycles
             Convg  =    0.6070D-08             -V/T =  2.0006
 ExpMin= 3.51D-02 ExpMax= 3.74D+05 ExpMxC= 1.18D+03 IAcc=3 IRadAn=         5 AccDes= 0.00D+00
 HarFok:  IExCor=  205 AccDes= 0.00D+00 IRadAn=         5 IDoV=-2
 ScaDFX=  1.000000  1.000000  1.000000  1.000000
 DSYEVD returned Info=          93 IAlg= 4 N=    46 NDim=    46 NE2=    21472498 trying DSYEV.
 DSYEVD returned Info=          93 IAlg= 4 N=    46 NDim=    46 NE2=    21472498 trying DSYEV.
 Range of M.O.s used for correlation:     9   188
 NBasis=   188 NAE=    20 NBE=    20 NFC=     8 NFV=     0
 NROrb=    180 NOA=    12 NOB=    12 NVA=   168 NVB=   168

 **** Warning!!: The largest alpha MO coefficient is  0.22552461D+02

 Semi-Direct transformation.
 ModeAB=           2 MOrb=            12 LenV=    1072746769
 LASXX=     33405819 LTotXX=    33405819 LenRXX=    33405819
 LTotAB=    33954012 MaxLAS=    54432000 LenRXY=    54432000
 NonZer=    66811638 LenScr=   100987392 LnRSAI=           0
 LnScr1=           0 LExtra=           0 Total=    188825211
 MaxDsk=          -1 SrtSym=           F ITran=            4
 JobTyp=0 Pass  1:  I=   1 to  12.
 (rs|ai) integrals will be sorted in core.
 Spin components of T(2) and E(2):
     alpha-alpha T2 =       0.3050075455D-01 E2=     -0.1109423275D+00
     alpha-beta  T2 =       0.1628177441D+00 E2=     -0.6233138638D+00
     beta-beta   T2 =       0.3050075455D-01 E2=     -0.1109423275D+00
 ANorm=    0.1106263645D+01
 E2 =    -0.8451985188D+00 EUMP2 =    -0.63518199705172D+03
 R2 and R3 integrals will be kept in memory, NReq=   640760400.
 Iterations=  50 Convergence= 0.100D-07
 Iteration Nr.   1
 **********************
 DD1Dir will call FoFMem   1 times, MxPair=       156
 NAB=    78 NAA=     0 NBB=     0.
 MP4(R+Q)=  0.19756543D-01
 E3=       -0.21463844D-02        EUMP3=      -0.63518414344D+03
 E4(DQ)=    0.20258300D-02        UMP4(DQ)=   -0.63518211761D+03
 E4(SDQ)=  -0.92071241D-02        UMP4(SDQ)=  -0.63519335056D+03
 DE(Corr)= -0.82758836     E(Corr)=     -635.16438689    
 NORM(A)=   0.11052980D+01
 Iteration Nr.   2
 **********************
 DD1Dir will call FoFMem   1 times, MxPair=       156
 NAB=    78 NAA=     0 NBB=     0.
 DE(Corr)= -0.85425868     E(CORR)=     -635.19105722     Delta=-2.67D-02
 NORM(A)=   0.11145511D+01
 Iteration Nr.   3
 **********************
 DD1Dir will call FoFMem   1 times, MxPair=       156
 NAB=    78 NAA=     0 NBB=     0.
 DE(Corr)= -0.85243798     E(CORR)=     -635.18923651     Delta= 1.82D-03
 NORM(A)=   0.11174665D+01
 Iteration Nr.   4
 **********************
 DD1Dir will call FoFMem   1 times, MxPair=       156
 NAB=    78 NAA=     0 NBB=     0.
 DE(Corr)= -0.85507637     E(CORR)=     -635.19187490     Delta=-2.64D-03
 NORM(A)=   0.11185457D+01
 Iteration Nr.   5
 **********************
 DD1Dir will call FoFMem   1 times, MxPair=       156
 NAB=    78 NAA=     0 NBB=     0.
 DE(Corr)= -0.85539172     E(CORR)=     -635.19219025     Delta=-3.15D-04
 NORM(A)=   0.11188586D+01
 Iteration Nr.   6
 **********************
 DD1Dir will call FoFMem   1 times, MxPair=       156
 NAB=    78 NAA=     0 NBB=     0.
 DE(Corr)= -0.85543241     E(CORR)=     -635.19223095     Delta=-4.07D-05
 NORM(A)=   0.11189129D+01
 Iteration Nr.   7
 **********************
 DD1Dir will call FoFMem   1 times, MxPair=       156
 NAB=    78 NAA=     0 NBB=     0.
 DE(Corr)= -0.85543809     E(CORR)=     -635.19223662     Delta=-5.67D-06
 NORM(A)=   0.11189067D+01
 Iteration Nr.   8
 **********************
 DD1Dir will call FoFMem   1 times, MxPair=       156
 NAB=    78 NAA=     0 NBB=     0.
 DE(Corr)= -0.85543848     E(CORR)=     -635.19223701     Delta=-3.90D-07
 NORM(A)=   0.11189103D+01
 Iteration Nr.   9
 **********************
 DD1Dir will call FoFMem   1 times, MxPair=       156
 NAB=    78 NAA=     0 NBB=     0.
 DE(Corr)= -0.85543709     E(CORR)=     -635.19223562     Delta= 1.39D-06
 NORM(A)=   0.11189093D+01
 Iteration Nr.  10
 **********************
 DD1Dir will call FoFMem   1 times, MxPair=       156
 NAB=    78 NAA=     0 NBB=     0.
 DE(Corr)= -0.85543808     E(CORR)=     -635.19223662     Delta=-9.94D-07
 NORM(A)=   0.11189098D+01
 Iteration Nr.  11
 **********************
 DD1Dir will call FoFMem   1 times, MxPair=       156
 NAB=    78 NAA=     0 NBB=     0.
 DE(Corr)= -0.85543805     E(CORR)=     -635.19223658     Delta= 3.54D-08
 NORM(A)=   0.11189102D+01
 Iteration Nr.  12
 **********************
 DD1Dir will call FoFMem   1 times, MxPair=       156
 NAB=    78 NAA=     0 NBB=     0.
 DE(Corr)= -0.85543849     E(CORR)=     -635.19223703     Delta=-4.44D-07
 NORM(A)=   0.11189105D+01
 Iteration Nr.  13
 **********************
 DD1Dir will call FoFMem   1 times, MxPair=       156
 NAB=    78 NAA=     0 NBB=     0.
 DE(Corr)= -0.85543846     E(CORR)=     -635.19223699     Delta= 3.61D-08
 NORM(A)=   0.11189107D+01
 Iteration Nr.  14
 **********************
 DD1Dir will call FoFMem   1 times, MxPair=       156
 NAB=    78 NAA=     0 NBB=     0.
 DE(Corr)= -0.85543856     E(CORR)=     -635.19223709     Delta=-1.05D-07
 NORM(A)=   0.11189107D+01
 Iteration Nr.  15
 **********************
 DD1Dir will call FoFMem   1 times, MxPair=       156
 NAB=    78 NAA=     0 NBB=     0.
 DE(Corr)= -0.85543855     E(CORR)=     -635.19223709     Delta= 8.72D-09
 NORM(A)=   0.11189107D+01
 Iteration Nr.  16
 **********************
 DD1Dir will call FoFMem   1 times, MxPair=       156
 NAB=    78 NAA=     0 NBB=     0.
 DE(Corr)= -0.85543856     E(CORR)=     -635.19223709     Delta=-4.32D-09
 NORM(A)=   0.11189107D+01
 Iteration Nr.  17
 **********************
 DD1Dir will call FoFMem   1 times, MxPair=       156
 NAB=    78 NAA=     0 NBB=     0.
 DE(Corr)= -0.85543856     E(CORR)=     -635.19223709     Delta=-2.20D-09
 NORM(A)=   0.11189107D+01
 Largest amplitude= 9.02D-02

 Z-AMPLITUDE ITERATIONS

 Iteration Nr.   1
 **********************
 DD1Dir will call FoFMem   1 times, MxPair=       156
 NAB=    78 NAA=     0 NBB=     0.
 DE(Z)  -0.83088695D+00          E(Z)=    -0.63516768548D+03
 NORM(A)=   0.11189164D+01
 Iteration Nr.   2
 **********************
 DD1Dir will call FoFMem   1 times, MxPair=       156
 NAB=    78 NAA=     0 NBB=     0.
 DE(Z)  -0.83088696D+00          E(Z)=    -0.63516768550D+03
 NORM(A)=   0.11188937D+01
 Iteration Nr.   3
 **********************
 DD1Dir will call FoFMem   1 times, MxPair=       156
 NAB=    78 NAA=     0 NBB=     0.
 DE(Z)  -0.83088673D+00          E(Z)=    -0.63516768526D+03
 NORM(A)=   0.11189131D+01
 Iteration Nr.   4
 **********************
 DD1Dir will call FoFMem   1 times, MxPair=       156
 NAB=    78 NAA=     0 NBB=     0.
 DE(Z)  -0.83088698D+00          E(Z)=    -0.63516768551D+03
 NORM(A)=   0.11189082D+01
 Iteration Nr.   5
 **********************
 DD1Dir will call FoFMem   1 times, MxPair=       156
 NAB=    78 NAA=     0 NBB=     0.
 DE(Z)  -0.83088692D+00          E(Z)=    -0.63516768545D+03
 NORM(A)=   0.11105590D+01
 Iteration Nr.   6
 **********************
 DD1Dir will call FoFMem   1 times, MxPair=       156
 NAB=    78 NAA=     0 NBB=     0.
 DE(Z)  -0.83077988D+00          E(Z)=    -0.63516757841D+03
 NORM(A)=   0.11105147D+01
 Iteration Nr.   7
 **********************
 DD1Dir will call FoFMem   1 times, MxPair=       156
 NAB=    78 NAA=     0 NBB=     0.
 DE(Z)  -0.83076140D+00          E(Z)=    -0.63516755993D+03
 NORM(A)=   0.11104985D+01
 Iteration Nr.   8
 **********************
 DD1Dir will call FoFMem   1 times, MxPair=       156
 NAB=    78 NAA=     0 NBB=     0.
 DE(Z)  -0.83076386D+00          E(Z)=    -0.63516756239D+03
 NORM(A)=   0.11104960D+01
 Iteration Nr.   9
 **********************
 DD1Dir will call FoFMem   1 times, MxPair=       156
 NAB=    78 NAA=     0 NBB=     0.
 DE(Z)  -0.83076073D+00          E(Z)=    -0.63516755927D+03
 NORM(A)=   0.11104971D+01
 Iteration Nr.  10
 **********************
 DD1Dir will call FoFMem   1 times, MxPair=       156
 NAB=    78 NAA=     0 NBB=     0.
 DE(Z)  -0.83076253D+00          E(Z)=    -0.63516756106D+03
 NORM(A)=   0.11104974D+01
 Iteration Nr.  11
 **********************
 DD1Dir will call FoFMem   1 times, MxPair=       156
 NAB=    78 NAA=     0 NBB=     0.
 DE(Z)  -0.83076213D+00          E(Z)=    -0.63516756067D+03
 NORM(A)=   0.11104975D+01
 Iteration Nr.  12
 **********************
 DD1Dir will call FoFMem   1 times, MxPair=       156
 NAB=    78 NAA=     0 NBB=     0.
 DE(Z)  -0.83076231D+00          E(Z)=    -0.63516756085D+03
 NORM(A)=   0.11104976D+01
 Iteration Nr.  13
 **********************
 DD1Dir will call FoFMem   1 times, MxPair=       156
 NAB=    78 NAA=     0 NBB=     0.
 DE(Z)  -0.83076230D+00          E(Z)=    -0.63516756083D+03
 NORM(A)=   0.11104977D+01
 Iteration Nr.  14
 **********************
 DD1Dir will call FoFMem   1 times, MxPair=       156
 NAB=    78 NAA=     0 NBB=     0.
 DE(Z)  -0.83076228D+00          E(Z)=    -0.63516756081D+03
 NORM(A)=   0.11104977D+01
 Iteration Nr.  15
 **********************
 DD1Dir will call FoFMem   1 times, MxPair=       156
 NAB=    78 NAA=     0 NBB=     0.
 DE(Z)  -0.83076230D+00          E(Z)=    -0.63516756083D+03
 NORM(A)=   0.11104977D+01
 Iteration Nr.  16
 **********************
 DD1Dir will call FoFMem   1 times, MxPair=       156
 NAB=    78 NAA=     0 NBB=     0.
 DE(Z)  -0.83076229D+00          E(Z)=    -0.63516756083D+03
 NORM(A)=   0.11104976D+01
 Discarding MO integrals.
          IDoAtm=1111
          Differentiating once with respect to electric field.
                with respect to dipole field.
          Differentiating once with respect to nuclear coordinates.
          Keep R1 ints in memory in canonical form, NReq=319473803.
          There are     1 degrees of freedom in the 1st order CPHF.  IDoFFX=0.
 LinEq1:  Iter=  0 NonCon=     1 RMS=2.87D-03 Max=7.79D-02
 AX will form     1 AO Fock derivatives at one time.
 LinEq1:  Iter=  1 NonCon=     1 RMS=9.20D-04 Max=1.51D-02
 LinEq1:  Iter=  2 NonCon=     1 RMS=4.04D-04 Max=1.11D-02
 LinEq1:  Iter=  3 NonCon=     1 RMS=1.05D-04 Max=1.66D-03
 LinEq1:  Iter=  4 NonCon=     1 RMS=2.15D-05 Max=3.68D-04
 LinEq1:  Iter=  5 NonCon=     1 RMS=5.46D-06 Max=1.52D-04
 LinEq1:  Iter=  6 NonCon=     1 RMS=1.46D-06 Max=2.63D-05
 LinEq1:  Iter=  7 NonCon=     1 RMS=5.62D-07 Max=1.04D-05
 LinEq1:  Iter=  8 NonCon=     1 RMS=1.73D-07 Max=2.17D-06
 LinEq1:  Iter=  9 NonCon=     1 RMS=3.20D-08 Max=4.80D-07
 LinEq1:  Iter= 10 NonCon=     1 RMS=6.23D-09 Max=7.63D-08
 LinEq1:  Iter= 11 NonCon=     1 RMS=9.99D-10 Max=1.15D-08
 LinEq1:  Iter= 12 NonCon=     1 RMS=1.24D-10 Max=1.21D-09
 LinEq1:  Iter= 13 NonCon=     0 RMS=2.10D-11 Max=2.72D-10
 Linear equations converged to 1.000D-10 1.000D-09 after    13 iterations.
 End of Minotr Frequency-dependent properties file   721 does not exist.
 End of Minotr Frequency-dependent properties file   722 does not exist.

 **********************************************************************

            Population analysis using the QCI/CC density.

 **********************************************************************

 Alpha  occ. eigenvalues --  -91.97290 -26.38846 -26.38845 -11.51510  -8.97840
 Alpha  occ. eigenvalues --   -6.65966  -6.65806  -6.65669  -1.72036  -1.67474
 Alpha  occ. eigenvalues --   -1.10915  -0.90271  -0.83498  -0.78473  -0.75555
 Alpha  occ. eigenvalues --   -0.72200  -0.70914  -0.59117  -0.43851  -0.39979
 Alpha virt. eigenvalues --    0.04703   0.05475   0.06298   0.08635   0.08808
 Alpha virt. eigenvalues --    0.10269   0.10868   0.12228   0.19081   0.20137
 Alpha virt. eigenvalues --    0.21076   0.22615   0.23864   0.25966   0.27119
 Alpha virt. eigenvalues --    0.28058   0.28566   0.29100   0.29656   0.29686
 Alpha virt. eigenvalues --    0.35711   0.36145   0.39687   0.40063   0.42237
 Alpha virt. eigenvalues --    0.46791   0.48362   0.49129   0.51947   0.52537
 Alpha virt. eigenvalues --    0.54956   0.62117   0.64711   0.66166   0.70571
 Alpha virt. eigenvalues --    0.73277   0.74090   0.74391   0.75929   0.78669
 Alpha virt. eigenvalues --    0.82720   0.85150   0.88933   0.89869   0.90435
 Alpha virt. eigenvalues --    0.96301   0.96719   1.00911   1.02405   1.05512
 Alpha virt. eigenvalues --    1.09682   1.10622   1.10882   1.14449   1.14619
 Alpha virt. eigenvalues --    1.14954   1.18765   1.19295   1.23806   1.27089
 Alpha virt. eigenvalues --    1.30508   1.31707   1.40012   1.40329   1.43165
 Alpha virt. eigenvalues --    1.44911   1.51141   1.51681   1.59427   1.62280
 Alpha virt. eigenvalues --    1.64886   1.67081   1.69191   1.70940   1.83077
 Alpha virt. eigenvalues --    1.86121   1.94697   2.05873   2.06558   2.08023
 Alpha virt. eigenvalues --    2.09675   2.25932   2.25987   2.31623   2.36769
 Alpha virt. eigenvalues --    2.38628   2.43496   2.44570   2.49642   2.51441
 Alpha virt. eigenvalues --    2.53779   2.58764   2.72346   2.75837   2.79219
 Alpha virt. eigenvalues --    2.79787   2.86627   2.89430   2.89643   2.93740
 Alpha virt. eigenvalues --    2.94479   2.95104   2.98060   3.06009   3.10359
 Alpha virt. eigenvalues --    3.13828   3.17356   3.21025   3.23592   3.31621
 Alpha virt. eigenvalues --    3.35289   3.36357   3.42549   3.45302   3.45670
 Alpha virt. eigenvalues --    3.57560   3.58310   3.64547   3.76200   3.76545
 Alpha virt. eigenvalues --    3.76786   3.77592   3.83128   3.96476   4.08881
 Alpha virt. eigenvalues --    4.14955   4.17903   4.24638   4.46068   4.49189
 Alpha virt. eigenvalues --    4.54109   4.66780   4.67630   4.87002   5.44962
 Alpha virt. eigenvalues --    5.45455   5.51438   5.94756   6.28895   6.68311
 Alpha virt. eigenvalues --    7.00285   8.81574   8.83809   8.84446   8.84794
 Alpha virt. eigenvalues --    8.97858   9.04985   9.08923   9.15527   9.16753
 Alpha virt. eigenvalues --    9.20738   9.24544   9.26257   9.31166   9.35203
 Alpha virt. eigenvalues --    9.35319   9.35334   9.39560   9.45544   9.52792
 Alpha virt. eigenvalues --    9.53753   9.54687   9.79355   9.79800   9.83087
 Alpha virt. eigenvalues --   11.72093  14.21235  16.31796
          Condensed to atoms (all electrons):
              1          2          3          4
     1  C    5.254303   0.225611   0.088876   0.088876
     2  S    0.225611  15.941384  -0.063821  -0.063821
     3  F    0.088876  -0.063821   9.175352  -0.048917
     4  F    0.088876  -0.063821  -0.048917   9.175352
 Mulliken atomic charges:
              1
     1  C    0.342334
     2  S   -0.039352
     3  F   -0.151491
     4  F   -0.151491
 Sum of Mulliken atomic charges =   0.00000
 Mulliken charges with hydrogens summed into heavy atoms:
              1
     1  C    0.342334
     2  S   -0.039352
     3  F   -0.151491
     4  F   -0.151491
 Sum of Mulliken charges with hydrogens summed into heavy atoms =   0.00000
 Electronic spatial extent (au):  <R**2>=            314.1629
 Charge=              0.0000 electrons
 Dipole moment (field-independent basis, Debye):
    X=              0.0000    Y=              0.0000    Z=             -0.2187  Tot=              0.2187
 Quadrupole moment (field-independent basis, Debye-Ang):
   XX=            -27.1594   YY=            -30.3581   ZZ=            -27.9094
   XY=              0.0000   XZ=              0.0000   YZ=              0.0000
 Traceless Quadrupole moment (field-independent basis, Debye-Ang):
   XX=              1.3163   YY=             -1.8824   ZZ=              0.5662
   XY=              0.0000   XZ=              0.0000   YZ=              0.0000
 Octapole moment (field-independent basis, Debye-Ang**2):
  XXX=              0.0000  YYY=              0.0000  ZZZ=             10.5207  XYY=              0.0000
  XXY=              0.0000  XXZ=              1.7564  XZZ=              0.0000  YZZ=              0.0000
  YYZ=              1.9110  XYZ=              0.0000
 Hexadecapole moment (field-independent basis, Debye-Ang**3):
 XXXX=            -27.6147 YYYY=           -110.0239 ZZZZ=           -199.2543 XXXY=              0.0000
 XXXZ=              0.0000 YYYX=              0.0000 YYYZ=              0.0000 ZZZX=              0.0000
 ZZZY=              0.0000 XXYY=            -23.1269 XXZZ=            -37.3222 YYZZ=            -55.6246
 XXYZ=              0.0000 YYXZ=              0.0000 ZZXY=              0.0000
 N-N= 1.533832877460D+02 E-N=-1.818180137085D+03  KE= 6.349249113405D+02
 Calling FoFJK, ICntrl=      2127 FMM=F ISym2X=0 I1Cent= 0 IOpClX= 0 NMat=1 NMatS=1 NMatT=0.
 -------------------------------------------------------------------
 Center     Atomic                   Forces (Hartrees/Bohr)
 Number     Number              X              Y              Z
 -------------------------------------------------------------------
      1        6           0.000000000    0.000000000   -0.008075766
      2       16           0.000000000    0.000000000    0.037025759
      3        9           0.000000000    0.047662138   -0.014474997
      4        9           0.000000000   -0.047662138   -0.014474997
 -------------------------------------------------------------------
 Cartesian Forces:  Max     0.047662138 RMS     0.023091367

 GradGradGradGradGradGradGradGradGradGradGradGradGradGradGradGradGradGrad
 Berny optimization.
 Internal  Forces:  Max     0.061850936 RMS     0.036696707
 Search for a local minimum.
 Step number   1 out of a maximum of   20
 All quantities printed in internal units (Hartrees-Bohrs-Radians)
 Mixed Optimization -- RFO/linear search
 Second derivative matrix not updated -- first step.
 The second derivative matrix:
                          R1        R2        R3        A1        A2
           R1           0.58306
           R2           0.00000   0.55021
           R3           0.00000   0.00000   0.55021
           A1           0.00000   0.00000   0.00000   0.25000
           A2           0.00000   0.00000   0.00000   0.00000   0.25000
           A3           0.00000   0.00000   0.00000   0.00000   0.00000
           D1           0.00000   0.00000   0.00000   0.00000   0.00000
                          A3        D1
           A3           0.25000
           D1           0.00000   0.02089
 ITU=  0
     Eigenvalues ---    0.02089   0.25000   0.25000   0.55021   0.55021
     Eigenvalues ---    0.58306
 RFO step:  Lambda=-2.69795099D-02 EMin= 2.08853423D-02
 Linear search not attempted -- first point.
 Iteration  1 RMS(Cart)=  0.13210798 RMS(Int)=  0.00922846
 Iteration  2 RMS(Cart)=  0.01071395 RMS(Int)=  0.00003759
 Iteration  3 RMS(Cart)=  0.00003495 RMS(Int)=  0.00000000
 Iteration  4 RMS(Cart)=  0.00000000 RMS(Int)=  0.00000000
 Variable       Old X    -DE/DX   Delta X   Delta X   Delta X     New X
                                 (Linear)    (Quad)   (Total)
    R1        2.96007   0.03703   0.00000   0.06069   0.06069   3.02076
    R2        2.55113  -0.03404   0.00000  -0.05897  -0.05897   2.49216
    R3        2.55113  -0.03404   0.00000  -0.05897  -0.05897   2.49216
    A1        2.09440   0.03093   0.00000   0.11165   0.11165   2.20605
    A2        2.09440   0.03093   0.00000   0.11165   0.11165   2.20605
    A3        2.09440  -0.06185   0.00000  -0.22331  -0.22331   1.87109
    D1        3.14159   0.00000   0.00000   0.00000   0.00000   3.14159
         Item               Value     Threshold  Converged?
 Maximum Force            0.061851     0.000450     NO 
 RMS     Force            0.036697     0.000300     NO 
 Maximum Displacement     0.203350     0.001800     NO 
 RMS     Displacement     0.140968     0.001200     NO 
 Predicted change in Energy=-1.464228D-02
 GradGradGradGradGradGradGradGradGradGradGradGradGradGradGradGradGradGrad

                          Input orientation:                          
 ---------------------------------------------------------------------
 Center     Atomic      Atomic             Coordinates (Angstroms)
 Number     Number       Type             X           Y           Z
 ---------------------------------------------------------------------
      1          6           0        0.000000    0.000000   -0.516582
      2         16           0        0.000000    0.000000    1.081936
      3          9           0        0.000000   -1.061526   -1.299127
      4          9           0        0.000000    1.061526   -1.299127
 ---------------------------------------------------------------------
                    Distance matrix (angstroms):
                    1          2          3          4
     1  C    0.000000
     2  S    1.598518   0.000000
     3  F    1.318793   2.606971   0.000000
     4  F    1.318793   2.606971   2.123052   0.000000
 Symmetry turned off by external request.
 Stoichiometry    CF2S
 Framework group  C2V[C2(CS),SGV(F2)]
 Deg. of freedom     3
 Full point group                 C2V     NOp   4
 Rotational constants (GHZ):     11.8034482      5.0847043      3.5537957
 Standard basis: Aug-CC-pVTZ (5D, 7F)
 Integral buffers will be    131072 words long.
 Raffenetti 1 integral format.
 Two-electron integral symmetry is turned off.
   188 basis functions,   330 primitive gaussians,   224 cartesian basis functions
    20 alpha electrons       20 beta electrons
       nuclear repulsion energy       153.7653388232 Hartrees.
 NAtoms=    4 NActive=    4 NUniq=    4 SFac= 1.00D+00 NAtFMM=   50 NAOKFM=F Big=F
 One-electron integrals computed using PRISM.
 NBasis=   188 RedAO= T  NBF=   188
 NBsUse=   188 1.00D-06 NBFU=   188
 Initial guess read from the read-write file.
 B after Tr=     0.000000    0.000000    0.000000
         Rot=    1.000000    0.000000    0.000000    0.000000 Ang=   0.00 deg.
 Harris functional with IExCor=  205 diagonalized for initial guess.
 ExpMin= 3.51D-02 ExpMax= 3.74D+05 ExpMxC= 1.18D+03 IAcc=3 IRadAn=         0 AccDes= 0.00D+00
 HarFok:  IExCor=  205 AccDes= 0.00D+00 IRadAn=         0 IDoV= 1
 ScaDFX=  1.000000  1.000000  1.000000  1.000000
 FoFCou: FMM=F IPFlag=           0 FMFlag=      100000 FMFlg1=           0
         NFxFlg=           0 DoJE=T BraDBF=F KetDBF=T FulRan=T
         Omega=  0.000000  0.000000  1.000000  0.000000  0.000000 ICntrl=     500 IOpCl=  0
         NMat0=    1 NMatS0=    1 NMatT0=    0 NMatD0=    1 NMtDS0=    0 NMtDT0=    0
         I1Cent=           4 NGrid=           0.
 Symmetry not used in FoFCou.
 Requested convergence on RMS density matrix=1.00D-08 within 128 cycles.
 Requested convergence on MAX density matrix=1.00D-06.
 Requested convergence on             energy=1.00D-06.
 No special actions if energy rises.
 Keep R1 ints in memory in canonical form, NReq=323399632.
 SCF Done:  E(RHF) =  -634.355577585     A.U. after   11 cycles
             Convg  =    0.4913D-08             -V/T =  2.0006
 ExpMin= 3.51D-02 ExpMax= 3.74D+05 ExpMxC= 1.18D+03 IAcc=3 IRadAn=         5 AccDes= 0.00D+00
 HarFok:  IExCor=  205 AccDes= 0.00D+00 IRadAn=         5 IDoV=-2
 ScaDFX=  1.000000  1.000000  1.000000  1.000000
 DSYEVD returned Info=          93 IAlg= 4 N=    46 NDim=    46 NE2=    21472498 trying DSYEV.
 Range of M.O.s used for correlation:     9   188
 NBasis=   188 NAE=    20 NBE=    20 NFC=     8 NFV=     0
 NROrb=    180 NOA=    12 NOB=    12 NVA=   168 NVB=   168

 **** Warning!!: The largest alpha MO coefficient is  0.28918555D+02

 Semi-Direct transformation.
 ModeAB=           2 MOrb=            12 LenV=    1072746691
 LASXX=     33405819 LTotXX=    33405819 LenRXX=    33405819
 LTotAB=    33954012 MaxLAS=    54432000 LenRXY=    54432000
 NonZer=    66811638 LenScr=   100987392 LnRSAI=           0
 LnScr1=           0 LExtra=           0 Total=    188825211
 MaxDsk=          -1 SrtSym=           F ITran=            4
 JobTyp=0 Pass  1:  I=   1 to  12.
 (rs|ai) integrals will be sorted in core.
 Spin components of T(2) and E(2):
     alpha-alpha T2 =       0.3029671406D-01 E2=     -0.1105524524D+00
     alpha-beta  T2 =       0.1607257283D+00 E2=     -0.6197759060D+00
     beta-beta   T2 =       0.3029671406D-01 E2=     -0.1105524524D+00
 ANorm=    0.1105133094D+01
 E2 =    -0.8408808109D+00 EUMP2 =    -0.63519645839556D+03
 R2 and R3 integrals will be kept in memory, NReq=   640760400.
 Iterations=  50 Convergence= 0.100D-07
 Iteration Nr.   1
 **********************
 DD1Dir will call FoFMem   1 times, MxPair=       156
 NAB=    78 NAA=     0 NBB=     0.
 MP4(R+Q)=  0.19474864D-01
 E3=       -0.29725427D-02        EUMP3=      -0.63519943094D+03
 E4(DQ)=    0.23504969D-02        UMP4(DQ)=   -0.63519708044D+03
 E4(SDQ)=  -0.86811758D-02        UMP4(SDQ)=  -0.63520811211D+03
 DE(Corr)= -0.82437849     E(Corr)=     -635.17995607    
 NORM(A)=   0.11043000D+01
 Iteration Nr.   2
 **********************
 DD1Dir will call FoFMem   1 times, MxPair=       156
 NAB=    78 NAA=     0 NBB=     0.
 DE(Corr)= -0.85041461     E(CORR)=     -635.20599219     Delta=-2.60D-02
 NORM(A)=   0.11133432D+01
 Iteration Nr.   3
 **********************
 DD1Dir will call FoFMem   1 times, MxPair=       156
 NAB=    78 NAA=     0 NBB=     0.
 DE(Corr)= -0.84866259     E(CORR)=     -635.20424017     Delta= 1.75D-03
 NORM(A)=   0.11162427D+01
 Iteration Nr.   4
 **********************
 DD1Dir will call FoFMem   1 times, MxPair=       156
 NAB=    78 NAA=     0 NBB=     0.
 DE(Corr)= -0.85124314     E(CORR)=     -635.20682072     Delta=-2.58D-03
 NORM(A)=   0.11173725D+01
 Iteration Nr.   5
 **********************
 DD1Dir will call FoFMem   1 times, MxPair=       156
 NAB=    78 NAA=     0 NBB=     0.
 DE(Corr)= -0.85155170     E(CORR)=     -635.20712928     Delta=-3.09D-04
 NORM(A)=   0.11177034D+01
 Iteration Nr.   6
 **********************
 DD1Dir will call FoFMem   1 times, MxPair=       156
 NAB=    78 NAA=     0 NBB=     0.
 DE(Corr)= -0.85159211     E(CORR)=     -635.20716970     Delta=-4.04D-05
 NORM(A)=   0.11177533D+01
 Iteration Nr.   7
 **********************
 DD1Dir will call FoFMem   1 times, MxPair=       156
 NAB=    78 NAA=     0 NBB=     0.
 DE(Corr)= -0.85159658     E(CORR)=     -635.20717416     Delta=-4.46D-06
 NORM(A)=   0.11177520D+01
 Iteration Nr.   8
 **********************
 DD1Dir will call FoFMem   1 times, MxPair=       156
 NAB=    78 NAA=     0 NBB=     0.
 DE(Corr)= -0.85159566     E(CORR)=     -635.20717324     Delta= 9.20D-07
 NORM(A)=   0.11177570D+01
 Iteration Nr.   9
 **********************
 DD1Dir will call FoFMem   1 times, MxPair=       156
 NAB=    78 NAA=     0 NBB=     0.
 DE(Corr)= -0.85159497     E(CORR)=     -635.20717256     Delta= 6.81D-07
 NORM(A)=   0.11177568D+01
 Iteration Nr.  10
 **********************
 DD1Dir will call FoFMem   1 times, MxPair=       156
 NAB=    78 NAA=     0 NBB=     0.
 DE(Corr)= -0.85159533     E(CORR)=     -635.20717291     Delta=-3.53D-07
 NORM(A)=   0.11177582D+01
 Iteration Nr.  11
 **********************
 DD1Dir will call FoFMem   1 times, MxPair=       156
 NAB=    78 NAA=     0 NBB=     0.
 DE(Corr)= -0.85159578     E(CORR)=     -635.20717336     Delta=-4.52D-07
 NORM(A)=   0.11177594D+01
 Iteration Nr.  12
 **********************
 DD1Dir will call FoFMem   1 times, MxPair=       156
 NAB=    78 NAA=     0 NBB=     0.
 DE(Corr)= -0.85159610     E(CORR)=     -635.20717368     Delta=-3.17D-07
 NORM(A)=   0.11177601D+01
 Iteration Nr.  13
 **********************
 DD1Dir will call FoFMem   1 times, MxPair=       156
 NAB=    78 NAA=     0 NBB=     0.
 DE(Corr)= -0.85159628     E(CORR)=     -635.20717387     Delta=-1.86D-07
 NORM(A)=   0.11177605D+01
 Iteration Nr.  14
 **********************
 DD1Dir will call FoFMem   1 times, MxPair=       156
 NAB=    78 NAA=     0 NBB=     0.
 DE(Corr)= -0.85159636     E(CORR)=     -635.20717394     Delta=-7.49D-08
 NORM(A)=   0.11177606D+01
 Iteration Nr.  15
 **********************
 DD1Dir will call FoFMem   1 times, MxPair=       156
 NAB=    78 NAA=     0 NBB=     0.
 DE(Corr)= -0.85159639     E(CORR)=     -635.20717398     Delta=-3.53D-08
 NORM(A)=   0.11177607D+01
 Iteration Nr.  16
 **********************
 DD1Dir will call FoFMem   1 times, MxPair=       156
 NAB=    78 NAA=     0 NBB=     0.
 DE(Corr)= -0.85159640     E(CORR)=     -635.20717399     Delta=-7.48D-09
 NORM(A)=   0.11177607D+01
 Iteration Nr.  17
 **********************
 DD1Dir will call FoFMem   1 times, MxPair=       156
 NAB=    78 NAA=     0 NBB=     0.
 DE(Corr)= -0.85159640     E(CORR)=     -635.20717399     Delta=-1.75D-09
 NORM(A)=   0.11177607D+01
 Iteration Nr.  18
 **********************
 DD1Dir will call FoFMem   1 times, MxPair=       156
 NAB=    78 NAA=     0 NBB=     0.
 DE(Corr)= -0.85159640     E(CORR)=     -635.20717399     Delta= 3.09D-10
 NORM(A)=   0.11177607D+01
 Largest amplitude= 8.70D-02

 Z-AMPLITUDE ITERATIONS

 Iteration Nr.   1
 **********************
 DD1Dir will call FoFMem   1 times, MxPair=       156
 NAB=    78 NAA=     0 NBB=     0.
 DE(Z)  -0.82750964D+00          E(Z)=    -0.63518308722D+03
 NORM(A)=   0.11177450D+01
 Iteration Nr.   2
 **********************
 DD1Dir will call FoFMem   1 times, MxPair=       156
 NAB=    78 NAA=     0 NBB=     0.
 DE(Z)  -0.82750962D+00          E(Z)=    -0.63518308720D+03
 NORM(A)=   0.11176660D+01
 Iteration Nr.   3
 **********************
 DD1Dir will call FoFMem   1 times, MxPair=       156
 NAB=    78 NAA=     0 NBB=     0.
 DE(Z)  -0.82750823D+00          E(Z)=    -0.63518308581D+03
 NORM(A)=   0.11177342D+01
 Iteration Nr.   4
 **********************
 DD1Dir will call FoFMem   1 times, MxPair=       156
 NAB=    78 NAA=     0 NBB=     0.
 DE(Z)  -0.82750932D+00          E(Z)=    -0.63518308690D+03
 NORM(A)=   0.11177722D+01
 Iteration Nr.   5
 **********************
 DD1Dir will call FoFMem   1 times, MxPair=       156
 NAB=    78 NAA=     0 NBB=     0.
 DE(Z)  -0.82750982D+00          E(Z)=    -0.63518308741D+03
 NORM(A)=   0.11094397D+01
 Iteration Nr.   6
 **********************
 DD1Dir will call FoFMem   1 times, MxPair=       156
 NAB=    78 NAA=     0 NBB=     0.
 DE(Z)  -0.82737755D+00          E(Z)=    -0.63518295513D+03
 NORM(A)=   0.11094364D+01
 Iteration Nr.   7
 **********************
 DD1Dir will call FoFMem   1 times, MxPair=       156
 NAB=    78 NAA=     0 NBB=     0.
 DE(Z)  -0.82737557D+00          E(Z)=    -0.63518295315D+03
 NORM(A)=   0.11094359D+01
 Iteration Nr.   8
 **********************
 DD1Dir will call FoFMem   1 times, MxPair=       156
 NAB=    78 NAA=     0 NBB=     0.
 DE(Z)  -0.82737583D+00          E(Z)=    -0.63518295341D+03
 NORM(A)=   0.11094359D+01
 Iteration Nr.   9
 **********************
 DD1Dir will call FoFMem   1 times, MxPair=       156
 NAB=    78 NAA=     0 NBB=     0.
 DE(Z)  -0.82737558D+00          E(Z)=    -0.63518295317D+03
 NORM(A)=   0.11094362D+01
 Iteration Nr.  10
 **********************
 DD1Dir will call FoFMem   1 times, MxPair=       156
 NAB=    78 NAA=     0 NBB=     0.
 DE(Z)  -0.82737559D+00          E(Z)=    -0.63518295317D+03
 NORM(A)=   0.11094362D+01
 Iteration Nr.  11
 **********************
 DD1Dir will call FoFMem   1 times, MxPair=       156
 NAB=    78 NAA=     0 NBB=     0.
 DE(Z)  -0.82737570D+00          E(Z)=    -0.63518295329D+03
 NORM(A)=   0.11094362D+01
 Iteration Nr.  12
 **********************
 DD1Dir will call FoFMem   1 times, MxPair=       156
 NAB=    78 NAA=     0 NBB=     0.
 DE(Z)  -0.82737566D+00          E(Z)=    -0.63518295324D+03
 NORM(A)=   0.11094362D+01
 Iteration Nr.  13
 **********************
 DD1Dir will call FoFMem   1 times, MxPair=       156
 NAB=    78 NAA=     0 NBB=     0.
 DE(Z)  -0.82737568D+00          E(Z)=    -0.63518295326D+03
 NORM(A)=   0.11094362D+01
 Iteration Nr.  14
 **********************
 DD1Dir will call FoFMem   1 times, MxPair=       156
 NAB=    78 NAA=     0 NBB=     0.
 DE(Z)  -0.82737567D+00          E(Z)=    -0.63518295325D+03
 NORM(A)=   0.11094362D+01
 Discarding MO integrals.
          IDoAtm=1111
          Differentiating once with respect to electric field.
                with respect to dipole field.
          Differentiating once with respect to nuclear coordinates.
          Keep R1 ints in memory in canonical form, NReq=319473803.
          There are     1 degrees of freedom in the 1st order CPHF.  IDoFFX=0.
 LinEq1:  Iter=  0 NonCon=     1 RMS=2.87D-03 Max=7.84D-02
 AX will form     1 AO Fock derivatives at one time.
 LinEq1:  Iter=  1 NonCon=     1 RMS=8.97D-04 Max=1.20D-02
 LinEq1:  Iter=  2 NonCon=     1 RMS=4.08D-04 Max=1.29D-02
 LinEq1:  Iter=  3 NonCon=     1 RMS=1.09D-04 Max=2.36D-03
 LinEq1:  Iter=  4 NonCon=     1 RMS=2.65D-05 Max=6.29D-04
 LinEq1:  Iter=  5 NonCon=     1 RMS=6.72D-06 Max=1.09D-04
 LinEq1:  Iter=  6 NonCon=     1 RMS=2.65D-06 Max=5.84D-05
 LinEq1:  Iter=  7 NonCon=     1 RMS=8.36D-07 Max=1.58D-05
 LinEq1:  Iter=  8 NonCon=     1 RMS=1.70D-07 Max=2.25D-06
 LinEq1:  Iter=  9 NonCon=     1 RMS=3.17D-08 Max=3.85D-07
 LinEq1:  Iter= 10 NonCon=     1 RMS=6.30D-09 Max=7.26D-08
 LinEq1:  Iter= 11 NonCon=     1 RMS=1.00D-09 Max=1.60D-08
 LinEq1:  Iter= 12 NonCon=     1 RMS=1.43D-10 Max=2.01D-09
 LinEq1:  Iter= 13 NonCon=     0 RMS=2.64D-11 Max=3.15D-10
 Linear equations converged to 1.000D-10 1.000D-09 after    13 iterations.
 End of Minotr Frequency-dependent properties file   721 does not exist.
 End of Minotr Frequency-dependent properties file   722 does not exist.
 Calling FoFJK, ICntrl=      2127 FMM=F ISym2X=0 I1Cent= 0 IOpClX= 0 NMat=1 NMatS=1 NMatT=0.
 -------------------------------------------------------------------
 Center     Atomic                   Forces (Hartrees/Bohr)
 Number     Number              X              Y              Z
 -------------------------------------------------------------------
      1        6           0.000000001    0.000000000   -0.008076068
      2       16           0.000000000    0.000000000   -0.001478037
      3        9           0.000000000    0.006950817    0.004777052
      4        9           0.000000000   -0.006950817    0.004777052
 -------------------------------------------------------------------
 Cartesian Forces:  Max     0.008076068 RMS     0.004180068

 GradGradGradGradGradGradGradGradGradGradGradGradGradGradGradGradGradGrad
 Berny optimization.
 Using GEDIIS/GDIIS optimizer.
 Internal  Forces:  Max     0.008429476 RMS     0.004545324
 Search for a local minimum.
 Step number   2 out of a maximum of   20
 All quantities printed in internal units (Hartrees-Bohrs-Radians)
 Mixed Optimization -- RFO/linear search
 Update second derivatives using D2CorX and points    1    2
 DE= -1.49D-02 DEPred=-1.46D-02 R= 1.02D+00
 SS=  1.41D+00  RLast= 2.92D-01 DXNew= 5.0454D-01 8.7689D-01
 Trust test= 1.02D+00 RLast= 2.92D-01 DXMaxT set to 5.05D-01
 The second derivative matrix:
                          R1        R2        R3        A1        A2
           R1           0.58950
           R2           0.00849   0.53285
           R3           0.00849  -0.01737   0.53285
           A1           0.00556   0.00638   0.00638   0.25477
           A2           0.00556   0.00638   0.00638   0.00477   0.25477
           A3          -0.01112  -0.01276  -0.01276  -0.00954  -0.00954
           D1           0.00000   0.00000   0.00000   0.00000   0.00000
                          A3        D1
           A3           0.26908
           D1           0.00000   0.02089
 ITU=  1  0
 Use linear search instead of GDIIS.
     Eigenvalues ---    0.02089   0.25000   0.27608   0.51519   0.55021
     Eigenvalues ---    0.59233
 RFO step:  Lambda=-2.41881321D-04 EMin= 2.08853423D-02
 Quartic linear search produced a step of  0.03331.
 Iteration  1 RMS(Cart)=  0.00828658 RMS(Int)=  0.00000421
 Iteration  2 RMS(Cart)=  0.00000484 RMS(Int)=  0.00000000
 Iteration  3 RMS(Cart)=  0.00000000 RMS(Int)=  0.00000000
 Variable       Old X    -DE/DX   Delta X   Delta X   Delta X     New X
                                 (Linear)    (Quad)   (Total)
    R1        3.02076  -0.00148   0.00202  -0.00434  -0.00232   3.01844
    R2        2.49216  -0.00843  -0.00196  -0.01413  -0.01610   2.47606
    R3        2.49216  -0.00843  -0.00196  -0.01413  -0.01610   2.47606
    A1        2.20605   0.00023   0.00372  -0.00302   0.00070   2.20674
    A2        2.20605   0.00023   0.00372  -0.00302   0.00070   2.20674
    A3        1.87109  -0.00046  -0.00744   0.00604  -0.00139   1.86970
    D1        3.14159   0.00000   0.00000   0.00000   0.00000  -3.14159
         Item               Value     Threshold  Converged?
 Maximum Force            0.008429     0.000450     NO 
 RMS     Force            0.004545     0.000300     NO 
 Maximum Displacement     0.013981     0.001800     NO 
 RMS     Displacement     0.008285     0.001200     NO 
 Predicted change in Energy=-1.404964D-04
 GradGradGradGradGradGradGradGradGradGradGradGradGradGradGradGradGradGrad

                          Input orientation:                          
 ---------------------------------------------------------------------
 Center     Atomic      Atomic             Coordinates (Angstroms)
 Number     Number       Type             X           Y           Z
 ---------------------------------------------------------------------
      1          6           0        0.000000    0.000000   -0.518435
      2         16           0        0.000000    0.000000    1.078856
      3          9           0        0.000000   -1.054128   -1.296661
      4          9           0        0.000000    1.054128   -1.296661
 ---------------------------------------------------------------------
                    Distance matrix (angstroms):
                    1          2          3          4
     1  C    0.000000
     2  S    1.597291   0.000000
     3  F    1.310275   2.598897   0.000000
     4  F    1.310275   2.598897   2.108255   0.000000
 Symmetry turned off by external request.
 Stoichiometry    CF2S
 Framework group  CS[SG(CS),X(F2)]
 Deg. of freedom     4
 Full point group                 CS      NOp   2
 Rotational constants (GHZ):     11.9697120      5.1076666      3.5800165
 Standard basis: Aug-CC-pVTZ (5D, 7F)
 Integral buffers will be    131072 words long.
 Raffenetti 1 integral format.
 Two-electron integral symmetry is turned off.
   188 basis functions,   330 primitive gaussians,   224 cartesian basis functions
    20 alpha electrons       20 beta electrons
       nuclear repulsion energy       154.3947809848 Hartrees.
 NAtoms=    4 NActive=    4 NUniq=    4 SFac= 1.00D+00 NAtFMM=   50 NAOKFM=F Big=F
 One-electron integrals computed using PRISM.
 NBasis=   188 RedAO= T  NBF=   188
 NBsUse=   188 1.00D-06 NBFU=   188
 Initial guess read from the read-write file.
 B after Tr=     0.000000    0.000000    0.000000
         Rot=    1.000000    0.000000    0.000000    0.000000 Ang=   0.00 deg.
 Requested convergence on RMS density matrix=1.00D-08 within 128 cycles.
 Requested convergence on MAX density matrix=1.00D-06.
 Requested convergence on             energy=1.00D-06.
 No special actions if energy rises.
 Keep R1 ints in memory in canonical form, NReq=323399632.
 SCF Done:  E(RHF) =  -634.356801947     A.U. after   10 cycles
             Convg  =    0.4518D-08             -V/T =  2.0005
 ExpMin= 3.51D-02 ExpMax= 3.74D+05 ExpMxC= 1.18D+03 IAcc=3 IRadAn=         5 AccDes= 0.00D+00
 HarFok:  IExCor=  205 AccDes= 0.00D+00 IRadAn=         5 IDoV=-2
 ScaDFX=  1.000000  1.000000  1.000000  1.000000
 DSYEVD returned Info=          93 IAlg= 4 N=    46 NDim=    46 NE2=    21472498 trying DSYEV.
 Range of M.O.s used for correlation:     9   188
 NBasis=   188 NAE=    20 NBE=    20 NFC=     8 NFV=     0
 NROrb=    180 NOA=    12 NOB=    12 NVA=   168 NVB=   168

 **** Warning!!: The largest alpha MO coefficient is  0.27184578D+02

 Semi-Direct transformation.
 ModeAB=           2 MOrb=            12 LenV=    1072746559
 LASXX=     33405819 LTotXX=    33405819 LenRXX=    33405819
 LTotAB=    33954012 MaxLAS=    54432000 LenRXY=    54432000
 NonZer=    66811638 LenScr=   100987392 LnRSAI=           0
 LnScr1=           0 LExtra=           0 Total=    188825211
 MaxDsk=          -1 SrtSym=           F ITran=            4
 JobTyp=0 Pass  1:  I=   1 to  12.
 (rs|ai) integrals will be sorted in core.
 Spin components of T(2) and E(2):
     alpha-alpha T2 =       0.3014919469D-01 E2=     -0.1104223729D+00
     alpha-beta  T2 =       0.1598343587D+00 E2=     -0.6187776761D+00
     beta-beta   T2 =       0.3014919469D-01 E2=     -0.1104223729D+00
 ANorm=    0.1104596192D+01
 E2 =    -0.8396224218D+00 EUMP2 =    -0.63519642436864D+03
 R2 and R3 integrals will be kept in memory, NReq=   640760400.
 Iterations=  50 Convergence= 0.100D-07
 Iteration Nr.   1
 **********************
 DD1Dir will call FoFMem   1 times, MxPair=       156
 NAB=    78 NAA=     0 NBB=     0.
 MP4(R+Q)=  0.19353122D-01
 E3=       -0.33550019D-02        EUMP3=      -0.63519977937D+03
 E4(DQ)=    0.24192117D-02        UMP4(DQ)=   -0.63519736016D+03
 E4(SDQ)=  -0.84410018D-02        UMP4(SDQ)=  -0.63520822037D+03
 DE(Corr)= -0.82362430     E(Corr)=     -635.18042625    
 NORM(A)=   0.11038526D+01
 Iteration Nr.   2
 **********************
 DD1Dir will call FoFMem   1 times, MxPair=       156
 NAB=    78 NAA=     0 NBB=     0.
 DE(Corr)= -0.84931796     E(CORR)=     -635.20611991     Delta=-2.57D-02
 NORM(A)=   0.11127803D+01
 Iteration Nr.   3
 **********************
 DD1Dir will call FoFMem   1 times, MxPair=       156
 NAB=    78 NAA=     0 NBB=     0.
 DE(Corr)= -0.84764033     E(CORR)=     -635.20444227     Delta= 1.68D-03
 NORM(A)=   0.11156176D+01
 Iteration Nr.   4
 **********************
 DD1Dir will call FoFMem   1 times, MxPair=       156
 NAB=    78 NAA=     0 NBB=     0.
 DE(Corr)= -0.85017091     E(CORR)=     -635.20697285     Delta=-2.53D-03
 NORM(A)=   0.11167241D+01
 Iteration Nr.   5
 **********************
 DD1Dir will call FoFMem   1 times, MxPair=       156
 NAB=    78 NAA=     0 NBB=     0.
 DE(Corr)= -0.85047172     E(CORR)=     -635.20727367     Delta=-3.01D-04
 NORM(A)=   0.11170478D+01
 Iteration Nr.   6
 **********************
 DD1Dir will call FoFMem   1 times, MxPair=       156
 NAB=    78 NAA=     0 NBB=     0.
 DE(Corr)= -0.85051108     E(CORR)=     -635.20731302     Delta=-3.94D-05
 NORM(A)=   0.11170960D+01
 Iteration Nr.   7
 **********************
 DD1Dir will call FoFMem   1 times, MxPair=       156
 NAB=    78 NAA=     0 NBB=     0.
 DE(Corr)= -0.85051537     E(CORR)=     -635.20731731     Delta=-4.29D-06
 NORM(A)=   0.11170955D+01
 Iteration Nr.   8
 **********************
 DD1Dir will call FoFMem   1 times, MxPair=       156
 NAB=    78 NAA=     0 NBB=     0.
 DE(Corr)= -0.85051410     E(CORR)=     -635.20731605     Delta= 1.26D-06
 NORM(A)=   0.11171005D+01
 Iteration Nr.   9
 **********************
 DD1Dir will call FoFMem   1 times, MxPair=       156
 NAB=    78 NAA=     0 NBB=     0.
 DE(Corr)= -0.85051371     E(CORR)=     -635.20731566     Delta= 3.94D-07
 NORM(A)=   0.11171006D+01
 Iteration Nr.  10
 **********************
 DD1Dir will call FoFMem   1 times, MxPair=       156
 NAB=    78 NAA=     0 NBB=     0.
 DE(Corr)= -0.85051387     E(CORR)=     -635.20731581     Delta=-1.57D-07
 NORM(A)=   0.11171020D+01
 Iteration Nr.  11
 **********************
 DD1Dir will call FoFMem   1 times, MxPair=       156
 NAB=    78 NAA=     0 NBB=     0.
 DE(Corr)= -0.85051452     E(CORR)=     -635.20731647     Delta=-6.57D-07
 NORM(A)=   0.11171033D+01
 Iteration Nr.  12
 **********************
 DD1Dir will call FoFMem   1 times, MxPair=       156
 NAB=    78 NAA=     0 NBB=     0.
 DE(Corr)= -0.85051477     E(CORR)=     -635.20731672     Delta=-2.50D-07
 NORM(A)=   0.11171040D+01
 Iteration Nr.  13
 **********************
 DD1Dir will call FoFMem   1 times, MxPair=       156
 NAB=    78 NAA=     0 NBB=     0.
 DE(Corr)= -0.85051502     E(CORR)=     -635.20731696     Delta=-2.44D-07
 NORM(A)=   0.11171044D+01
 Iteration Nr.  14
 **********************
 DD1Dir will call FoFMem   1 times, MxPair=       156
 NAB=    78 NAA=     0 NBB=     0.
 DE(Corr)= -0.85051508     E(CORR)=     -635.20731703     Delta=-6.08D-08
 NORM(A)=   0.11171046D+01
 Iteration Nr.  15
 **********************
 DD1Dir will call FoFMem   1 times, MxPair=       156
 NAB=    78 NAA=     0 NBB=     0.
 DE(Corr)= -0.85051512     E(CORR)=     -635.20731706     Delta=-3.79D-08
 NORM(A)=   0.11171046D+01
 Iteration Nr.  16
 **********************
 DD1Dir will call FoFMem   1 times, MxPair=       156
 NAB=    78 NAA=     0 NBB=     0.
 DE(Corr)= -0.85051513     E(CORR)=     -635.20731707     Delta=-1.00D-08
 NORM(A)=   0.11171046D+01
 Iteration Nr.  17
 **********************
 DD1Dir will call FoFMem   1 times, MxPair=       156
 NAB=    78 NAA=     0 NBB=     0.
 DE(Corr)= -0.85051513     E(CORR)=     -635.20731707     Delta= 6.99D-10
 NORM(A)=   0.11171046D+01
 Iteration Nr.  18
 **********************
 DD1Dir will call FoFMem   1 times, MxPair=       156
 NAB=    78 NAA=     0 NBB=     0.
 DE(Corr)= -0.85051513     E(CORR)=     -635.20731707     Delta=-8.91D-10
 NORM(A)=   0.11171046D+01
 Largest amplitude= 8.50D-02

 Z-AMPLITUDE ITERATIONS

 Iteration Nr.   1
 **********************
 DD1Dir will call FoFMem   1 times, MxPair=       156
 NAB=    78 NAA=     0 NBB=     0.
 DE(Z)  -0.82661586D+00          E(Z)=    -0.63518341781D+03
 NORM(A)=   0.11171082D+01
 Iteration Nr.   2
 **********************
 DD1Dir will call FoFMem   1 times, MxPair=       156
 NAB=    78 NAA=     0 NBB=     0.
 DE(Z)  -0.82661587D+00          E(Z)=    -0.63518341781D+03
 NORM(A)=   0.11169302D+01
 Iteration Nr.   3
 **********************
 DD1Dir will call FoFMem   1 times, MxPair=       156
 NAB=    78 NAA=     0 NBB=     0.
 DE(Z)  -0.82661309D+00          E(Z)=    -0.63518341504D+03
 NORM(A)=   0.11171114D+01
 Iteration Nr.   4
 **********************
 DD1Dir will call FoFMem   1 times, MxPair=       156
 NAB=    78 NAA=     0 NBB=     0.
 DE(Z)  -0.82661595D+00          E(Z)=    -0.63518341789D+03
 NORM(A)=   0.11171007D+01
 Iteration Nr.   5
 **********************
 DD1Dir will call FoFMem   1 times, MxPair=       156
 NAB=    78 NAA=     0 NBB=     0.
 DE(Z)  -0.82661579D+00          E(Z)=    -0.63518341774D+03
 NORM(A)=   0.11088884D+01
 Iteration Nr.   6
 **********************
 DD1Dir will call FoFMem   1 times, MxPair=       156
 NAB=    78 NAA=     0 NBB=     0.
 DE(Z)  -0.82647225D+00          E(Z)=    -0.63518327420D+03
 NORM(A)=   0.11088750D+01
 Iteration Nr.   7
 **********************
 DD1Dir will call FoFMem   1 times, MxPair=       156
 NAB=    78 NAA=     0 NBB=     0.
 DE(Z)  -0.82647550D+00          E(Z)=    -0.63518327745D+03
 NORM(A)=   0.11088721D+01
 Iteration Nr.   8
 **********************
 DD1Dir will call FoFMem   1 times, MxPair=       156
 NAB=    78 NAA=     0 NBB=     0.
 DE(Z)  -0.82647411D+00          E(Z)=    -0.63518327606D+03
 NORM(A)=   0.11088718D+01
 Iteration Nr.   9
 **********************
 DD1Dir will call FoFMem   1 times, MxPair=       156
 NAB=    78 NAA=     0 NBB=     0.
 DE(Z)  -0.82647462D+00          E(Z)=    -0.63518327657D+03
 NORM(A)=   0.11088720D+01
 Iteration Nr.  10
 **********************
 DD1Dir will call FoFMem   1 times, MxPair=       156
 NAB=    78 NAA=     0 NBB=     0.
 DE(Z)  -0.82647474D+00          E(Z)=    -0.63518327668D+03
 NORM(A)=   0.11088722D+01
 Iteration Nr.  11
 **********************
 DD1Dir will call FoFMem   1 times, MxPair=       156
 NAB=    78 NAA=     0 NBB=     0.
 DE(Z)  -0.82647458D+00          E(Z)=    -0.63518327653D+03
 NORM(A)=   0.11088722D+01
 Iteration Nr.  12
 **********************
 DD1Dir will call FoFMem   1 times, MxPair=       156
 NAB=    78 NAA=     0 NBB=     0.
 DE(Z)  -0.82647469D+00          E(Z)=    -0.63518327664D+03
 NORM(A)=   0.11088722D+01
 Iteration Nr.  13
 **********************
 DD1Dir will call FoFMem   1 times, MxPair=       156
 NAB=    78 NAA=     0 NBB=     0.
 DE(Z)  -0.82647466D+00          E(Z)=    -0.63518327660D+03
 NORM(A)=   0.11088722D+01
 Iteration Nr.  14
 **********************
 DD1Dir will call FoFMem   1 times, MxPair=       156
 NAB=    78 NAA=     0 NBB=     0.
 DE(Z)  -0.82647467D+00          E(Z)=    -0.63518327661D+03
 NORM(A)=   0.11088721D+01
 Iteration Nr.  15
 **********************
 DD1Dir will call FoFMem   1 times, MxPair=       156
 NAB=    78 NAA=     0 NBB=     0.
 DE(Z)  -0.82647465D+00          E(Z)=    -0.63518327660D+03
 NORM(A)=   0.11088721D+01
 Iteration Nr.  16
 **********************
 DD1Dir will call FoFMem   1 times, MxPair=       156
 NAB=    78 NAA=     0 NBB=     0.
 DE(Z)  -0.82647466D+00          E(Z)=    -0.63518327660D+03
 NORM(A)=   0.11088721D+01
 Discarding MO integrals.
          IDoAtm=1111
          Differentiating once with respect to electric field.
                with respect to dipole field.
          Differentiating once with respect to nuclear coordinates.
          Keep R1 ints in memory in canonical form, NReq=319473803.
          There are     1 degrees of freedom in the 1st order CPHF.  IDoFFX=0.
 LinEq1:  Iter=  0 NonCon=     1 RMS=2.85D-03 Max=7.75D-02
 AX will form     1 AO Fock derivatives at one time.
 LinEq1:  Iter=  1 NonCon=     1 RMS=8.84D-04 Max=1.23D-02
 LinEq1:  Iter=  2 NonCon=     1 RMS=4.02D-04 Max=1.28D-02
 LinEq1:  Iter=  3 NonCon=     1 RMS=1.08D-04 Max=2.38D-03
 LinEq1:  Iter=  4 NonCon=     1 RMS=2.65D-05 Max=6.28D-04
 LinEq1:  Iter=  5 NonCon=     1 RMS=6.70D-06 Max=1.04D-04
 LinEq1:  Iter=  6 NonCon=     1 RMS=2.65D-06 Max=5.72D-05
 LinEq1:  Iter=  7 NonCon=     1 RMS=8.28D-07 Max=1.54D-05
 LinEq1:  Iter=  8 NonCon=     1 RMS=1.66D-07 Max=2.32D-06
 LinEq1:  Iter=  9 NonCon=     1 RMS=3.12D-08 Max=3.75D-07
 LinEq1:  Iter= 10 NonCon=     1 RMS=6.21D-09 Max=7.37D-08
 LinEq1:  Iter= 11 NonCon=     1 RMS=9.84D-10 Max=1.58D-08
 LinEq1:  Iter= 12 NonCon=     1 RMS=1.41D-10 Max=1.93D-09
 LinEq1:  Iter= 13 NonCon=     0 RMS=2.58D-11 Max=2.93D-10
 Linear equations converged to 1.000D-10 1.000D-09 after    13 iterations.
 End of Minotr Frequency-dependent properties file   721 does not exist.
 End of Minotr Frequency-dependent properties file   722 does not exist.
 Calling FoFJK, ICntrl=      2127 FMM=F ISym2X=0 I1Cent= 0 IOpClX= 0 NMat=1 NMatS=1 NMatT=0.
 -------------------------------------------------------------------
 Center     Atomic                   Forces (Hartrees/Bohr)
 Number     Number              X              Y              Z
 -------------------------------------------------------------------
      1        6          -0.000000004    0.000000000   -0.002725758
      2       16           0.000000001    0.000000000    0.001034679
      3        9           0.000000001   -0.000129675    0.000845540
      4        9           0.000000001    0.000129675    0.000845540
 -------------------------------------------------------------------
 Cartesian Forces:  Max     0.002725758 RMS     0.000911218

 GradGradGradGradGradGradGradGradGradGradGradGradGradGradGradGradGradGrad
 Berny optimization.
 Using GEDIIS/GDIIS optimizer.
 Internal  Forces:  Max     0.001250020 RMS     0.000730068
 Search for a local minimum.
 Step number   3 out of a maximum of   20
 All quantities printed in internal units (Hartrees-Bohrs-Radians)
 Mixed Optimization -- En-DIIS/RFO-DIIS
 Update second derivatives using D2CorX and points    1    2    3
 DE= -1.43D-04 DEPred=-1.40D-04 R= 1.02D+00
 SS=  1.41D+00  RLast= 2.29D-02 DXNew= 8.4853D-01 6.8835D-02
 Trust test= 1.02D+00 RLast= 2.29D-02 DXMaxT set to 5.05D-01
 The second derivative matrix:
                          R1        R2        R3        A1        A2
           R1           0.59940
           R2           0.03449   0.51953
           R3           0.03449  -0.03068   0.51953
           A1          -0.00313  -0.01984  -0.01984   0.25884
           A2          -0.00313  -0.01984  -0.01984   0.00884   0.25884
           A3           0.00626   0.03967   0.03967  -0.01769  -0.01769
           D1           0.00000   0.00000   0.00000   0.00000   0.00000
                          A3        D1
           A3           0.28537
           D1           0.00000   0.02089
 ITU=  1  1  0
 Use linear search instead of GDIIS.
     Eigenvalues ---    0.02089   0.25000   0.28020   0.48989   0.55021
     Eigenvalues ---    0.62122
 RFO step:  Lambda=-1.12246804D-05 EMin= 2.08853423D-02
 Quartic linear search produced a step of  0.02824.
 Iteration  1 RMS(Cart)=  0.00207191 RMS(Int)=  0.00000353
 Iteration  2 RMS(Cart)=  0.00000373 RMS(Int)=  0.00000000
 Iteration  3 RMS(Cart)=  0.00000000 RMS(Int)=  0.00000000
 Variable       Old X    -DE/DX   Delta X   Delta X   Delta X     New X
                                 (Linear)    (Quad)   (Total)
    R1        3.01844   0.00103  -0.00007   0.00189   0.00183   3.02027
    R2        2.47606  -0.00040  -0.00045  -0.00102  -0.00147   2.47459
    R3        2.47606  -0.00040  -0.00045  -0.00102  -0.00147   2.47459
    A1        2.20674  -0.00063   0.00002  -0.00226  -0.00224   2.20451
    A2        2.20674  -0.00063   0.00002  -0.00226  -0.00224   2.20451
    A3        1.86970   0.00125  -0.00004   0.00451   0.00447   1.87417
    D1       -3.14159   0.00000   0.00000   0.00000   0.00000   3.14159
         Item               Value     Threshold  Converged?
 Maximum Force            0.001250     0.000450     NO 
 RMS     Force            0.000730     0.000300     NO 
 Maximum Displacement     0.003123     0.001800     NO 
 RMS     Displacement     0.002070     0.001200     NO 
 Predicted change in Energy=-5.733919D-06
 GradGradGradGradGradGradGradGradGradGradGradGradGradGradGradGradGradGrad

                          Input orientation:                          
 ---------------------------------------------------------------------
 Center     Atomic      Atomic             Coordinates (Angstroms)
 Number     Number       Type             X           Y           Z
 ---------------------------------------------------------------------
      1          6           0        0.000000    0.000000   -0.520088
      2         16           0        0.000000    0.000000    1.078170
      3          9           0        0.000000   -1.055238   -1.295491
      4          9           0        0.000000    1.055238   -1.295491
 ---------------------------------------------------------------------
                    Distance matrix (angstroms):
                    1          2          3          4
     1  C    0.000000
     2  S    1.598258   0.000000
     3  F    1.309495   2.597652   0.000000
     4  F    1.309495   2.597652   2.110476   0.000000
 Symmetry turned off by external request.
 Stoichiometry    CF2S
 Framework group  CS[SG(CS),X(F2)]
 Deg. of freedom     4
 Full point group                 CS      NOp   2
 Rotational constants (GHZ):     11.9445381      5.1149290      3.5813232
 Standard basis: Aug-CC-pVTZ (5D, 7F)
 Integral buffers will be    131072 words long.
 Raffenetti 1 integral format.
 Two-electron integral symmetry is turned off.
   188 basis functions,   330 primitive gaussians,   224 cartesian basis functions
    20 alpha electrons       20 beta electrons
       nuclear repulsion energy       154.4082113467 Hartrees.
 NAtoms=    4 NActive=    4 NUniq=    4 SFac= 1.00D+00 NAtFMM=   50 NAOKFM=F Big=F
 One-electron integrals computed using PRISM.
 NBasis=   188 RedAO= T  NBF=   188
 NBsUse=   188 1.00D-06 NBFU=   188
 Initial guess read from the read-write file.
 B after Tr=     0.000000    0.000000    0.000000
         Rot=    1.000000    0.000000    0.000000    0.000000 Ang=   0.00 deg.
 Requested convergence on RMS density matrix=1.00D-08 within 128 cycles.
 Requested convergence on MAX density matrix=1.00D-06.
 Requested convergence on             energy=1.00D-06.
 No special actions if energy rises.
 Keep R1 ints in memory in canonical form, NReq=323399632.
 SCF Done:  E(RHF) =  -634.356870195     A.U. after    9 cycles
             Convg  =    0.5734D-08             -V/T =  2.0005
 ExpMin= 3.51D-02 ExpMax= 3.74D+05 ExpMxC= 1.18D+03 IAcc=3 IRadAn=         5 AccDes= 0.00D+00
 HarFok:  IExCor=  205 AccDes= 0.00D+00 IRadAn=         5 IDoV=-2
 ScaDFX=  1.000000  1.000000  1.000000  1.000000
 Range of M.O.s used for correlation:     9   188
 NBasis=   188 NAE=    20 NBE=    20 NFC=     8 NFV=     0
 NROrb=    180 NOA=    12 NOB=    12 NVA=   168 NVB=   168

 **** Warning!!: The largest alpha MO coefficient is  0.26811417D+02

 Semi-Direct transformation.
 ModeAB=           2 MOrb=            12 LenV=    1072746531
 LASXX=     33405819 LTotXX=    33405819 LenRXX=    33405819
 LTotAB=    33954012 MaxLAS=    54432000 LenRXY=    54432000
 NonZer=    66811638 LenScr=   100987392 LnRSAI=           0
 LnScr1=           0 LExtra=           0 Total=    188825211
 MaxDsk=          -1 SrtSym=           F ITran=            4
 JobTyp=0 Pass  1:  I=   1 to  12.
 (rs|ai) integrals will be sorted in core.
 Spin components of T(2) and E(2):
     alpha-alpha T2 =       0.3014156604D-01 E2=     -0.1104098602D+00
     alpha-beta  T2 =       0.1598084905D+00 E2=     -0.6187197235D+00
     beta-beta   T2 =       0.3014156604D-01 E2=     -0.1104098602D+00
 ANorm=    0.1104577577D+01
 E2 =    -0.8395394438D+00 EUMP2 =    -0.63519640963860D+03
 R2 and R3 integrals will be kept in memory, NReq=   640760400.
 Iterations=  50 Convergence= 0.100D-07
 Iteration Nr.   1
 **********************
 DD1Dir will call FoFMem   1 times, MxPair=       156
 NAB=    78 NAA=     0 NBB=     0.
 MP4(R+Q)=  0.19350374D-01
 E3=       -0.33843094D-02        EUMP3=      -0.63519979395D+03
 E4(DQ)=    0.24256473D-02        UMP4(DQ)=   -0.63519736830D+03
 E4(SDQ)=  -0.84282718D-02        UMP4(SDQ)=  -0.63520822222D+03
 DE(Corr)= -0.82357338     E(Corr)=     -635.18044357    
 NORM(A)=   0.11038430D+01
 Iteration Nr.   2
 **********************
 DD1Dir will call FoFMem   1 times, MxPair=       156
 NAB=    78 NAA=     0 NBB=     0.
 DE(Corr)= -0.84925242     E(CORR)=     -635.20612261     Delta=-2.57D-02
 NORM(A)=   0.11127705D+01
 Iteration Nr.   3
 **********************
 DD1Dir will call FoFMem   1 times, MxPair=       156
 NAB=    78 NAA=     0 NBB=     0.
 DE(Corr)= -0.84757927     E(CORR)=     -635.20444947     Delta= 1.67D-03
 NORM(A)=   0.11156092D+01
 Iteration Nr.   4
 **********************
 DD1Dir will call FoFMem   1 times, MxPair=       156
 NAB=    78 NAA=     0 NBB=     0.
 DE(Corr)= -0.85010889     E(CORR)=     -635.20697909     Delta=-2.53D-03
 NORM(A)=   0.11167179D+01
 Iteration Nr.   5
 **********************
 DD1Dir will call FoFMem   1 times, MxPair=       156
 NAB=    78 NAA=     0 NBB=     0.
 DE(Corr)= -0.85040975     E(CORR)=     -635.20727994     Delta=-3.01D-04
 NORM(A)=   0.11170427D+01
 Iteration Nr.   6
 **********************
 DD1Dir will call FoFMem   1 times, MxPair=       156
 NAB=    78 NAA=     0 NBB=     0.
 DE(Corr)= -0.85044915     E(CORR)=     -635.20731935     Delta=-3.94D-05
 NORM(A)=   0.11170911D+01
 Iteration Nr.   7
 **********************
 DD1Dir will call FoFMem   1 times, MxPair=       156
 NAB=    78 NAA=     0 NBB=     0.
 DE(Corr)= -0.85045345     E(CORR)=     -635.20732364     Delta=-4.29D-06
 NORM(A)=   0.11170908D+01
 Iteration Nr.   8
 **********************
 DD1Dir will call FoFMem   1 times, MxPair=       156
 NAB=    78 NAA=     0 NBB=     0.
 DE(Corr)= -0.85045210     E(CORR)=     -635.20732229     Delta= 1.35D-06
 NORM(A)=   0.11170960D+01
 Iteration Nr.   9
 **********************
 DD1Dir will call FoFMem   1 times, MxPair=       156
 NAB=    78 NAA=     0 NBB=     0.
 DE(Corr)= -0.85045176     E(CORR)=     -635.20732196     Delta= 3.36D-07
 NORM(A)=   0.11170961D+01
 Iteration Nr.  10
 **********************
 DD1Dir will call FoFMem   1 times, MxPair=       156
 NAB=    78 NAA=     0 NBB=     0.
 DE(Corr)= -0.85045187     E(CORR)=     -635.20732207     Delta=-1.13D-07
 NORM(A)=   0.11170975D+01
 Iteration Nr.  11
 **********************
 DD1Dir will call FoFMem   1 times, MxPair=       156
 NAB=    78 NAA=     0 NBB=     0.
 DE(Corr)= -0.85045258     E(CORR)=     -635.20732278     Delta=-7.11D-07
 NORM(A)=   0.11170989D+01
 Iteration Nr.  12
 **********************
 DD1Dir will call FoFMem   1 times, MxPair=       156
 NAB=    78 NAA=     0 NBB=     0.
 DE(Corr)= -0.85045283     E(CORR)=     -635.20732302     Delta=-2.41D-07
 NORM(A)=   0.11170996D+01
 Iteration Nr.  13
 **********************
 DD1Dir will call FoFMem   1 times, MxPair=       156
 NAB=    78 NAA=     0 NBB=     0.
 DE(Corr)= -0.85045308     E(CORR)=     -635.20732328     Delta=-2.59D-07
 NORM(A)=   0.11171000D+01
 Iteration Nr.  14
 **********************
 DD1Dir will call FoFMem   1 times, MxPair=       156
 NAB=    78 NAA=     0 NBB=     0.
 DE(Corr)= -0.85045314     E(CORR)=     -635.20732334     Delta=-5.96D-08
 NORM(A)=   0.11171002D+01
 Iteration Nr.  15
 **********************
 DD1Dir will call FoFMem   1 times, MxPair=       156
 NAB=    78 NAA=     0 NBB=     0.
 DE(Corr)= -0.85045318     E(CORR)=     -635.20732338     Delta=-3.87D-08
 NORM(A)=   0.11171002D+01
 Iteration Nr.  16
 **********************
 DD1Dir will call FoFMem   1 times, MxPair=       156
 NAB=    78 NAA=     0 NBB=     0.
 DE(Corr)= -0.85045319     E(CORR)=     -635.20732339     Delta=-1.07D-08
 NORM(A)=   0.11171003D+01
 Iteration Nr.  17
 **********************
 DD1Dir will call FoFMem   1 times, MxPair=       156
 NAB=    78 NAA=     0 NBB=     0.
 DE(Corr)= -0.85045319     E(CORR)=     -635.20732339     Delta= 1.42D-09
 NORM(A)=   0.11171003D+01
 Iteration Nr.  18
 **********************
 DD1Dir will call FoFMem   1 times, MxPair=       156
 NAB=    78 NAA=     0 NBB=     0.
 DE(Corr)= -0.85045319     E(CORR)=     -635.20732339     Delta=-1.40D-09
 NORM(A)=   0.11171003D+01
 Largest amplitude= 8.51D-02

 Z-AMPLITUDE ITERATIONS

 Iteration Nr.   1
 **********************
 DD1Dir will call FoFMem   1 times, MxPair=       156
 NAB=    78 NAA=     0 NBB=     0.
 DE(Z)  -0.82655502D+00          E(Z)=    -0.63518342521D+03
 NORM(A)=   0.11171066D+01
 Iteration Nr.   2
 **********************
 DD1Dir will call FoFMem   1 times, MxPair=       156
 NAB=    78 NAA=     0 NBB=     0.
 DE(Z)  -0.82655503D+00          E(Z)=    -0.63518342523D+03
 NORM(A)=   0.11171024D+01
 Iteration Nr.   3
 **********************
 DD1Dir will call FoFMem   1 times, MxPair=       156
 NAB=    78 NAA=     0 NBB=     0.
 DE(Z)  -0.82655505D+00          E(Z)=    -0.63518342525D+03
 NORM(A)=   0.11171011D+01
 Iteration Nr.   4
 **********************
 DD1Dir will call FoFMem   1 times, MxPair=       156
 NAB=    78 NAA=     0 NBB=     0.
 DE(Z)  -0.82655503D+00          E(Z)=    -0.63518342523D+03
 NORM(A)=   0.11171009D+01
 Iteration Nr.   5
 **********************
 DD1Dir will call FoFMem   1 times, MxPair=       156
 NAB=    78 NAA=     0 NBB=     0.
 DE(Z)  -0.82655503D+00          E(Z)=    -0.63518342522D+03
 NORM(A)=   0.11089275D+01
 Iteration Nr.   6
 **********************
 DD1Dir will call FoFMem   1 times, MxPair=       156
 NAB=    78 NAA=     0 NBB=     0.
 DE(Z)  -0.82644668D+00          E(Z)=    -0.63518331688D+03
 NORM(A)=   0.11089161D+01
 Iteration Nr.   7
 **********************
 DD1Dir will call FoFMem   1 times, MxPair=       156
 NAB=    78 NAA=     0 NBB=     0.
 DE(Z)  -0.82643996D+00          E(Z)=    -0.63518331015D+03
 NORM(A)=   0.11088676D+01
 Iteration Nr.   8
 **********************
 DD1Dir will call FoFMem   1 times, MxPair=       156
 NAB=    78 NAA=     0 NBB=     0.
 DE(Z)  -0.82641360D+00          E(Z)=    -0.63518328379D+03
 NORM(A)=   0.11088645D+01
 Iteration Nr.   9
 **********************
 DD1Dir will call FoFMem   1 times, MxPair=       156
 NAB=    78 NAA=     0 NBB=     0.
 DE(Z)  -0.82641371D+00          E(Z)=    -0.63518328390D+03
 NORM(A)=   0.11088634D+01
 Iteration Nr.  10
 **********************
 DD1Dir will call FoFMem   1 times, MxPair=       156
 NAB=    78 NAA=     0 NBB=     0.
 DE(Z)  -0.82641390D+00          E(Z)=    -0.63518328410D+03
 NORM(A)=   0.11088632D+01
 Iteration Nr.  11
 **********************
 DD1Dir will call FoFMem   1 times, MxPair=       156
 NAB=    78 NAA=     0 NBB=     0.
 DE(Z)  -0.82641399D+00          E(Z)=    -0.63518328419D+03
 NORM(A)=   0.11088635D+01
 Iteration Nr.  12
 **********************
 DD1Dir will call FoFMem   1 times, MxPair=       156
 NAB=    78 NAA=     0 NBB=     0.
 DE(Z)  -0.82641398D+00          E(Z)=    -0.63518328417D+03
 NORM(A)=   0.11088636D+01
 Iteration Nr.  13
 **********************
 DD1Dir will call FoFMem   1 times, MxPair=       156
 NAB=    78 NAA=     0 NBB=     0.
 DE(Z)  -0.82641410D+00          E(Z)=    -0.63518328429D+03
 NORM(A)=   0.11088637D+01
 Iteration Nr.  14
 **********************
 DD1Dir will call FoFMem   1 times, MxPair=       156
 NAB=    78 NAA=     0 NBB=     0.
 DE(Z)  -0.82641407D+00          E(Z)=    -0.63518328426D+03
 NORM(A)=   0.11088637D+01
 Iteration Nr.  15
 **********************
 DD1Dir will call FoFMem   1 times, MxPair=       156
 NAB=    78 NAA=     0 NBB=     0.
 DE(Z)  -0.82641409D+00          E(Z)=    -0.63518328429D+03
 NORM(A)=   0.11088637D+01
 Iteration Nr.  16
 **********************
 DD1Dir will call FoFMem   1 times, MxPair=       156
 NAB=    78 NAA=     0 NBB=     0.
 DE(Z)  -0.82641409D+00          E(Z)=    -0.63518328428D+03
 NORM(A)=   0.11088637D+01
 Discarding MO integrals.
          IDoAtm=1111
          Differentiating once with respect to electric field.
                with respect to dipole field.
          Differentiating once with respect to nuclear coordinates.
          Keep R1 ints in memory in canonical form, NReq=319473803.
          There are     1 degrees of freedom in the 1st order CPHF.  IDoFFX=0.
 LinEq1:  Iter=  0 NonCon=     1 RMS=2.85D-03 Max=7.74D-02
 AX will form     1 AO Fock derivatives at one time.
 LinEq1:  Iter=  1 NonCon=     1 RMS=8.84D-04 Max=1.23D-02
 LinEq1:  Iter=  2 NonCon=     1 RMS=4.02D-04 Max=1.29D-02
 LinEq1:  Iter=  3 NonCon=     1 RMS=1.08D-04 Max=2.39D-03
 LinEq1:  Iter=  4 NonCon=     1 RMS=2.68D-05 Max=6.34D-04
 LinEq1:  Iter=  5 NonCon=     1 RMS=6.74D-06 Max=1.03D-04
 LinEq1:  Iter=  6 NonCon=     1 RMS=2.66D-06 Max=5.70D-05
 LinEq1:  Iter=  7 NonCon=     1 RMS=8.29D-07 Max=1.52D-05
 LinEq1:  Iter=  8 NonCon=     1 RMS=1.67D-07 Max=2.33D-06
 LinEq1:  Iter=  9 NonCon=     1 RMS=3.12D-08 Max=3.73D-07
 LinEq1:  Iter= 10 NonCon=     1 RMS=6.20D-09 Max=7.37D-08
 LinEq1:  Iter= 11 NonCon=     1 RMS=9.84D-10 Max=1.58D-08
 LinEq1:  Iter= 12 NonCon=     1 RMS=1.41D-10 Max=1.93D-09
 LinEq1:  Iter= 13 NonCon=     0 RMS=2.58D-11 Max=2.90D-10
 Linear equations converged to 1.000D-10 1.000D-09 after    13 iterations.
 End of Minotr Frequency-dependent properties file   721 does not exist.
 End of Minotr Frequency-dependent properties file   722 does not exist.
 Calling FoFJK, ICntrl=      2127 FMM=F ISym2X=0 I1Cent= 0 IOpClX= 0 NMat=1 NMatS=1 NMatT=0.
 -------------------------------------------------------------------
 Center     Atomic                   Forces (Hartrees/Bohr)
 Number     Number              X              Y              Z
 -------------------------------------------------------------------
      1        6           0.000000016    0.000000000   -0.000631412
      2       16          -0.000000005    0.000000000    0.000590274
      3        9          -0.000000005    0.000028703    0.000020569
      4        9          -0.000000005   -0.000028703    0.000020569
 -------------------------------------------------------------------
 Cartesian Forces:  Max     0.000631412 RMS     0.000249933

 GradGradGradGradGradGradGradGradGradGradGradGradGradGradGradGradGradGrad
 Berny optimization.
 Using GEDIIS/GDIIS optimizer.
 Internal  Forces:  Max     0.000590274 RMS     0.000223900
 Search for a local minimum.
 Step number   4 out of a maximum of   20
 All quantities printed in internal units (Hartrees-Bohrs-Radians)
 Mixed Optimization -- En-DIIS/RFO-DIIS
 Swaping is turned off.
 Update second derivatives using D2CorX and points    1    2    3    4
 DE= -6.31D-06 DEPred=-5.73D-06 R= 1.10D+00
 SS=  1.41D+00  RLast= 6.14D-03 DXNew= 8.4853D-01 1.8423D-02
 Trust test= 1.10D+00 RLast= 6.14D-03 DXMaxT set to 5.05D-01
 The second derivative matrix:
                          R1        R2        R3        A1        A2
           R1           0.55641
           R2           0.06936   0.51700
           R3           0.06936  -0.03321   0.51700
           A1           0.02741  -0.01664  -0.01664   0.26230
           A2           0.02741  -0.01664  -0.01664   0.01230   0.26230
           A3          -0.05482   0.03328   0.03328  -0.02461  -0.02461
           D1           0.00000   0.00000   0.00000   0.00000   0.00000
                          A3        D1
           A3           0.29922
           D1           0.00000   0.02089
 ITU=  1  1  1  0
     Eigenvalues ---    0.02089   0.25000   0.27147   0.46603   0.55021
     Eigenvalues ---    0.62653
 En-DIIS/RFO-DIIS IScMMF=        0 using points:     4    3
 RFO step:  Lambda=-4.91510310D-07.
 DidBck=F Rises=F RFO-DIIS coefs:    1.11465   -0.11465
 Iteration  1 RMS(Cart)=  0.00031854 RMS(Int)=  0.00000002
 Iteration  2 RMS(Cart)=  0.00000002 RMS(Int)=  0.00000000
 Variable       Old X    -DE/DX   Delta X   Delta X   Delta X     New X
                                  (DIIS)     (GDIIS)  (Total)
    R1        3.02027   0.00059   0.00021   0.00095   0.00116   3.02143
    R2        2.47459  -0.00004  -0.00017  -0.00010  -0.00027   2.47432
    R3        2.47459  -0.00004  -0.00017  -0.00010  -0.00027   2.47432
    A1        2.20451   0.00000  -0.00026   0.00013  -0.00012   2.20438
    A2        2.20451   0.00000  -0.00026   0.00013  -0.00012   2.20438
    A3        1.87417   0.00000   0.00051  -0.00026   0.00025   1.87442
    D1        3.14159   0.00000   0.00000   0.00000   0.00000  -3.14159
         Item               Value     Threshold  Converged?
 Maximum Force            0.000590     0.000450     NO 
 RMS     Force            0.000224     0.000300     YES
 Maximum Displacement     0.000670     0.001800     YES
 RMS     Displacement     0.000319     0.001200     YES
 Predicted change in Energy=-3.527737D-07
 GradGradGradGradGradGradGradGradGradGradGradGradGradGradGradGradGradGrad

                          Input orientation:                          
 ---------------------------------------------------------------------
 Center     Atomic      Atomic             Coordinates (Angstroms)
 Number     Number       Type             X           Y           Z
 ---------------------------------------------------------------------
      1          6           0        0.000000    0.000000   -0.520349
      2         16           0        0.000000    0.000000    1.078525
      3          9           0        0.000000   -1.055221   -1.295538
      4          9           0        0.000000    1.055221   -1.295538
 ---------------------------------------------------------------------
                    Distance matrix (angstroms):
                    1          2          3          4
     1  C    0.000000
     2  S    1.598874   0.000000
     3  F    1.309355   2.598012   0.000000
     4  F    1.309355   2.598012   2.110443   0.000000
 Symmetry turned off by external request.
 Stoichiometry    CF2S
 Framework group  CS[SG(CS),X(F2)]
 Deg. of freedom     4
[...]
 DE(Corr)= -0.85045221     E(CORR)=     -635.20732266     Delta= 1.38D-06
 NORM(A)=   0.11171157D+01
 Iteration Nr.   9
 **********************
 DD1Dir will call FoFMem   1 times, MxPair=       156
 NAB=    78 NAA=     0 NBB=     0.
 DE(Corr)= -0.85045190     E(CORR)=     -635.20732234     Delta= 3.11D-07
 NORM(A)=   0.11171158D+01
 Iteration Nr.  10
 **********************
 DD1Dir will call FoFMem   1 times, MxPair=       156
 NAB=    78 NAA=     0 NBB=     0.
 DE(Corr)= -0.85045199     E(CORR)=     -635.20732244     Delta=-9.57D-08
 NORM(A)=   0.11171173D+01
 Iteration Nr.  11
 **********************
 DD1Dir will call FoFMem   1 times, MxPair=       156
 NAB=    78 NAA=     0 NBB=     0.
 DE(Corr)= -0.85045273     E(CORR)=     -635.20732317     Delta=-7.33D-07
 NORM(A)=   0.11171187D+01
 Iteration Nr.  12
 **********************
 DD1Dir will call FoFMem   1 times, MxPair=       156
 NAB=    78 NAA=     0 NBB=     0.
 DE(Corr)= -0.85045297     E(CORR)=     -635.20732341     Delta=-2.38D-07
 NORM(A)=   0.11171194D+01
 Iteration Nr.  13
 **********************
 DD1Dir will call FoFMem   1 times, MxPair=       156
 NAB=    78 NAA=     0 NBB=     0.
 DE(Corr)= -0.85045323     E(CORR)=     -635.20732367     Delta=-2.64D-07
 NORM(A)=   0.11171199D+01
 Iteration Nr.  14
 **********************
 DD1Dir will call FoFMem   1 times, MxPair=       156
 NAB=    78 NAA=     0 NBB=     0.
 DE(Corr)= -0.85045329     E(CORR)=     -635.20732373     Delta=-5.93D-08
 NORM(A)=   0.11171200D+01
 Iteration Nr.  15
 **********************
 DD1Dir will call FoFMem   1 times, MxPair=       156
 NAB=    78 NAA=     0 NBB=     0.
 DE(Corr)= -0.85045333     E(CORR)=     -635.20732377     Delta=-3.92D-08
 NORM(A)=   0.11171201D+01
 Iteration Nr.  16
 **********************
 DD1Dir will call FoFMem   1 times, MxPair=       156
 NAB=    78 NAA=     0 NBB=     0.
 DE(Corr)= -0.85045334     E(CORR)=     -635.20732378     Delta=-1.08D-08
 NORM(A)=   0.11171201D+01
 Iteration Nr.  17
 **********************
 DD1Dir will call FoFMem   1 times, MxPair=       156
 NAB=    78 NAA=     0 NBB=     0.
 DE(Corr)= -0.85045334     E(CORR)=     -635.20732378     Delta= 1.46D-09
 NORM(A)=   0.11171201D+01
 Iteration Nr.  18
 **********************
 DD1Dir will call FoFMem   1 times, MxPair=       156
 NAB=    78 NAA=     0 NBB=     0.
 DE(Corr)= -0.85045334     E(CORR)=     -635.20732378     Delta=-1.48D-09
 NORM(A)=   0.11171201D+01
 Largest amplitude= 8.52D-02

 Z-AMPLITUDE ITERATIONS

 Iteration Nr.   1
 **********************
 DD1Dir will call FoFMem   1 times, MxPair=       156
 NAB=    78 NAA=     0 NBB=     0.
 DE(Z)  -0.82655013D+00          E(Z)=    -0.63518342058D+03
 NORM(A)=   0.11171246D+01
 Iteration Nr.   2
 **********************
 DD1Dir will call FoFMem   1 times, MxPair=       156
 NAB=    78 NAA=     0 NBB=     0.
 DE(Z)  -0.82655014D+00          E(Z)=    -0.63518342059D+03
 NORM(A)=   0.11171186D+01
 Iteration Nr.   3
 **********************
 DD1Dir will call FoFMem   1 times, MxPair=       156
 NAB=    78 NAA=     0 NBB=     0.
 DE(Z)  -0.82655011D+00          E(Z)=    -0.63518342056D+03
 NORM(A)=   0.11171198D+01
 Iteration Nr.   4
 **********************
 DD1Dir will call FoFMem   1 times, MxPair=       156
 NAB=    78 NAA=     0 NBB=     0.
 DE(Z)  -0.82655013D+00          E(Z)=    -0.63518342057D+03
 NORM(A)=   0.11171197D+01
 Iteration Nr.   5
 **********************
 DD1Dir will call FoFMem   1 times, MxPair=       156
 NAB=    78 NAA=     0 NBB=     0.
 DE(Z)  -0.82655013D+00          E(Z)=    -0.63518342057D+03
 NORM(A)=   0.11091935D+01
 Iteration Nr.   6
 **********************
 DD1Dir will call FoFMem   1 times, MxPair=       156
 NAB=    78 NAA=     0 NBB=     0.
 DE(Z)  -0.82640566D+00          E(Z)=    -0.63518327610D+03
 NORM(A)=   0.11090138D+01
 Iteration Nr.   7
 **********************
 DD1Dir will call FoFMem   1 times, MxPair=       156
 NAB=    78 NAA=     0 NBB=     0.
 DE(Z)  -0.82645673D+00          E(Z)=    -0.63518332718D+03
 NORM(A)=   0.11089512D+01
 Iteration Nr.   8
 **********************
 DD1Dir will call FoFMem   1 times, MxPair=       156
 NAB=    78 NAA=     0 NBB=     0.
 DE(Z)  -0.82640630D+00          E(Z)=    -0.63518327675D+03
 NORM(A)=   0.11088869D+01
 Iteration Nr.   9
 **********************
 DD1Dir will call FoFMem   1 times, MxPair=       156
 NAB=    78 NAA=     0 NBB=     0.
 DE(Z)  -0.82641115D+00          E(Z)=    -0.63518328159D+03
 NORM(A)=   0.11088796D+01
 Iteration Nr.  10
 **********************
 DD1Dir will call FoFMem   1 times, MxPair=       156
 NAB=    78 NAA=     0 NBB=     0.
 DE(Z)  -0.82640897D+00          E(Z)=    -0.63518327942D+03
 NORM(A)=   0.11088786D+01
 Iteration Nr.  11
 **********************
 DD1Dir will call FoFMem   1 times, MxPair=       156
 NAB=    78 NAA=     0 NBB=     0.
 DE(Z)  -0.82640930D+00          E(Z)=    -0.63518327974D+03
 NORM(A)=   0.11088783D+01
 Iteration Nr.  12
 **********************
 DD1Dir will call FoFMem   1 times, MxPair=       156
 NAB=    78 NAA=     0 NBB=     0.
 DE(Z)  -0.82640958D+00          E(Z)=    -0.63518328003D+03
 NORM(A)=   0.11088785D+01
 Iteration Nr.  13
 **********************
 DD1Dir will call FoFMem   1 times, MxPair=       156
 NAB=    78 NAA=     0 NBB=     0.
 DE(Z)  -0.82640929D+00          E(Z)=    -0.63518327973D+03
 NORM(A)=   0.11088786D+01
 Iteration Nr.  14
 **********************
 DD1Dir will call FoFMem   1 times, MxPair=       156
 NAB=    78 NAA=     0 NBB=     0.
 DE(Z)  -0.82640958D+00          E(Z)=    -0.63518328003D+03
 NORM(A)=   0.11088786D+01
 Iteration Nr.  15
 **********************
 DD1Dir will call FoFMem   1 times, MxPair=       156
 NAB=    78 NAA=     0 NBB=     0.
 DE(Z)  -0.82640951D+00          E(Z)=    -0.63518327995D+03
 NORM(A)=   0.11088785D+01
 Iteration Nr.  16
 **********************
 DD1Dir will call FoFMem   1 times, MxPair=       156
 NAB=    78 NAA=     0 NBB=     0.
 DE(Z)  -0.82640953D+00          E(Z)=    -0.63518327997D+03
 NORM(A)=   0.11088785D+01
 Iteration Nr.  17
 **********************
 DD1Dir will call FoFMem   1 times, MxPair=       156
 NAB=    78 NAA=     0 NBB=     0.
 DE(Z)  -0.82640952D+00          E(Z)=    -0.63518327996D+03
 NORM(A)=   0.11088785D+01
 Iteration Nr.  18
 **********************
 DD1Dir will call FoFMem   1 times, MxPair=       156
 NAB=    78 NAA=     0 NBB=     0.
 DE(Z)  -0.82640952D+00          E(Z)=    -0.63518327996D+03
 NORM(A)=   0.11088785D+01
 Discarding MO integrals.
          IDoAtm=1111
          Differentiating once with respect to electric field.
                with respect to dipole field.
          Differentiating once with respect to nuclear coordinates.
          Keep R1 ints in memory in canonical form, NReq=319473803.
          There are     1 degrees of freedom in the 1st order CPHF.  IDoFFX=0.
 LinEq1:  Iter=  0 NonCon=     1 RMS=2.85D-03 Max=7.75D-02
 AX will form     1 AO Fock derivatives at one time.
 LinEq1:  Iter=  1 NonCon=     1 RMS=8.84D-04 Max=1.23D-02
 LinEq1:  Iter=  2 NonCon=     1 RMS=4.03D-04 Max=1.29D-02
 LinEq1:  Iter=  3 NonCon=     1 RMS=1.09D-04 Max=2.39D-03
 LinEq1:  Iter=  4 NonCon=     1 RMS=2.69D-05 Max=6.37D-04
 LinEq1:  Iter=  5 NonCon=     1 RMS=6.77D-06 Max=1.03D-04
 LinEq1:  Iter=  6 NonCon=     1 RMS=2.67D-06 Max=5.71D-05
 LinEq1:  Iter=  7 NonCon=     1 RMS=8.32D-07 Max=1.52D-05
 LinEq1:  Iter=  8 NonCon=     1 RMS=1.67D-07 Max=2.33D-06
 LinEq1:  Iter=  9 NonCon=     1 RMS=3.13D-08 Max=3.73D-07
 LinEq1:  Iter= 10 NonCon=     1 RMS=6.21D-09 Max=7.38D-08
 LinEq1:  Iter= 11 NonCon=     1 RMS=9.85D-10 Max=1.58D-08
 LinEq1:  Iter= 12 NonCon=     1 RMS=1.41D-10 Max=1.93D-09
 LinEq1:  Iter= 13 NonCon=     0 RMS=2.58D-11 Max=2.91D-10
 Linear equations converged to 1.000D-10 1.000D-09 after    13 iterations.
 End of Minotr Frequency-dependent properties file   721 does not exist.
 End of Minotr Frequency-dependent properties file   722 does not exist.
 Calling FoFJK, ICntrl=      2127 FMM=F ISym2X=0 I1Cent= 0 IOpClX= 0 NMat=1 NMatS=1 NMatT=0.
 -------------------------------------------------------------------
 Center     Atomic                   Forces (Hartrees/Bohr)
 Number     Number              X              Y              Z
 -------------------------------------------------------------------
      1        6          -0.000000068    0.000000000   -0.000053930
      2       16           0.000000022    0.000000000    0.000099818
      3        9           0.000000023   -0.000015642   -0.000022944
      4        9           0.000000023    0.000015642   -0.000022944
 -------------------------------------------------------------------
 Cartesian Forces:  Max     0.000099818 RMS     0.000034658

 GradGradGradGradGradGradGradGradGradGradGradGradGradGradGradGradGradGrad
 Berny optimization.
 Using GEDIIS/GDIIS optimizer.
 Internal  Forces:  Max     0.000099818 RMS     0.000040854
 Search for a local minimum.
 Step number   5 out of a maximum of   20
 All quantities printed in internal units (Hartrees-Bohrs-Radians)
 Mixed Optimization -- En-DIIS/RFO-DIIS
 Swaping is turned off.
 Update second derivatives using D2CorX and points    1    2    3    4    5
 DE= -3.96D-07 DEPred=-3.53D-07 R= 1.12D+00
 Trust test= 1.12D+00 RLast= 1.26D-03 DXMaxT set to 5.05D-01
 The second derivative matrix:
                          R1        R2        R3        A1        A2
           R1           0.45699
           R2           0.04849   0.51906
           R3           0.04849  -0.03115   0.51906
           A1           0.02098  -0.01557  -0.01557   0.26172
           A2           0.02098  -0.01557  -0.01557   0.01172   0.26172
           A3          -0.04196   0.03115   0.03115  -0.02344  -0.02344
           D1           0.00004  -0.00001  -0.00001   0.00000   0.00000
                          A3        D1
           A3           0.29687
           D1           0.00000   0.02089
 ITU=  0  1  1  1  0
     Eigenvalues ---    0.02089   0.25000   0.27654   0.44538   0.54329
     Eigenvalues ---    0.55021
 En-DIIS/RFO-DIIS IScMMF=        0 using points:     5    4    3
 RFO step:  Lambda=-1.64267320D-08.
 DidBck=F Rises=F RFO-DIIS coefs:    1.20119   -0.22322    0.02203
 Iteration  1 RMS(Cart)=  0.00008103 RMS(Int)=  0.00000000
 Iteration  2 RMS(Cart)=  0.00000000 RMS(Int)=  0.00000000
 Variable       Old X    -DE/DX   Delta X   Delta X   Delta X     New X
                                  (DIIS)     (GDIIS)  (Total)
    R1        3.02143   0.00010   0.00019   0.00001   0.00021   3.02164
    R2        2.47432   0.00003  -0.00002   0.00006   0.00004   2.47436
    R3        2.47432   0.00003  -0.00002   0.00006   0.00004   2.47436
    A1        2.20438   0.00001   0.00002  -0.00001   0.00001   2.20440
    A2        2.20438   0.00001   0.00002  -0.00001   0.00001   2.20440
    A3        1.87442  -0.00002  -0.00005   0.00002  -0.00003   1.87439
    D1       -3.14159   0.00000   0.00000   0.00000   0.00000   3.14159
         Item               Value     Threshold  Converged?
 Maximum Force            0.000100     0.000450     YES
 RMS     Force            0.000041     0.000300     YES
 Maximum Displacement     0.000182     0.001800     YES
 RMS     Displacement     0.000081     0.001200     YES
 Predicted change in Energy=-1.157891D-08
 Optimization completed.
    -- Stationary point found.
                           ----------------------------
                           !   Optimized Parameters   !
                           ! (Angstroms and Degrees)  !
 --------------------------                            --------------------------
 ! Name  Definition              Value          Derivative Info.                !
 --------------------------------------------------------------------------------
 ! R1    R(1,2)                  1.5989         -DE/DX =    0.0001              !
 ! R2    R(1,3)                  1.3094         -DE/DX =    0.0                 !
 ! R3    R(1,4)                  1.3094         -DE/DX =    0.0                 !
 ! A1    A(2,1,3)              126.3018         -DE/DX =    0.0                 !
 ! A2    A(2,1,4)              126.3018         -DE/DX =    0.0                 !
 ! A3    A(3,1,4)              107.3964         -DE/DX =    0.0                 !
 ! D1    D(2,1,4,3)            180.0            -DE/DX =    0.0                 !
 --------------------------------------------------------------------------------
 GradGradGradGradGradGradGradGradGradGradGradGradGradGradGradGradGradGrad

                          Input orientation:                          
 ---------------------------------------------------------------------
 Center     Atomic      Atomic             Coordinates (Angstroms)
 Number     Number       Type             X           Y           Z
 ---------------------------------------------------------------------
      1          6           0        0.000000    0.000000   -0.520349
      2         16           0        0.000000    0.000000    1.078525
      3          9           0        0.000000   -1.055221   -1.295538
      4          9           0        0.000000    1.055221   -1.295538
 ---------------------------------------------------------------------
                    Distance matrix (angstroms):
                    1          2          3          4
     1  C    0.000000
     2  S    1.598874   0.000000
     3  F    1.309355   2.598012   0.000000
     4  F    1.309355   2.598012   2.110443   0.000000
 Symmetry turned off by external request.
 Stoichiometry    CF2S
 Framework group  CS[SG(CS),X(F2)]
 Deg. of freedom     4
 Full point group                 CS      NOp   2
 Rotational constants (GHZ):     11.9449127      5.1130875      3.5804539

 **********************************************************************

            Population analysis using the QCI/CC density.

 **********************************************************************

 Alpha  occ. eigenvalues --  -91.97613 -26.39009 -26.39007 -11.51898  -8.97975
 Alpha  occ. eigenvalues --   -6.66098  -6.65935  -6.65814  -1.75538  -1.68122
 Alpha  occ. eigenvalues --   -1.09885  -0.92971  -0.84409  -0.80259  -0.77541
 Alpha  occ. eigenvalues --   -0.72174  -0.70145  -0.59709  -0.43113  -0.40182
 Alpha virt. eigenvalues --    0.05279   0.05518   0.06433   0.08647   0.08686
 Alpha virt. eigenvalues --    0.10318   0.10819   0.12189   0.19610   0.20459
 Alpha virt. eigenvalues --    0.20849   0.23046   0.23428   0.26352   0.27025
 Alpha virt. eigenvalues --    0.27356   0.28389   0.29093   0.29408   0.29787
 Alpha virt. eigenvalues --    0.35826   0.36513   0.41254   0.41888   0.44977
 Alpha virt. eigenvalues --    0.46730   0.47980   0.51696   0.51932   0.53099
 Alpha virt. eigenvalues --    0.53100   0.62322   0.63496   0.66026   0.69881
 Alpha virt. eigenvalues --    0.73065   0.73518   0.74720   0.76549   0.77698
 Alpha virt. eigenvalues --    0.85044   0.85514   0.88442   0.89870   0.90686
 Alpha virt. eigenvalues --    0.96075   0.96113   1.02111   1.03760   1.07775
 Alpha virt. eigenvalues --    1.09119   1.10832   1.11275   1.12404   1.14889
 Alpha virt. eigenvalues --    1.14991   1.17536   1.19647   1.23184   1.25754
 Alpha virt. eigenvalues --    1.28115   1.32661   1.34904   1.39893   1.42785
 Alpha virt. eigenvalues --    1.44573   1.49611   1.53748   1.57403   1.65003
 Alpha virt. eigenvalues --    1.68046   1.70388   1.70796   1.71635   1.73822
 Alpha virt. eigenvalues --    1.78914   1.99691   2.03587   2.06752   2.07985
 Alpha virt. eigenvalues --    2.11677   2.26991   2.30628   2.32036   2.36355
 Alpha virt. eigenvalues --    2.41565   2.43357   2.43635   2.45858   2.51815
 Alpha virt. eigenvalues --    2.54846   2.58829   2.66478   2.75331   2.80293
 Alpha virt. eigenvalues --    2.84153   2.86225   2.90151   2.92781   2.93785
 Alpha virt. eigenvalues --    2.96804   2.99985   3.00196   3.06923   3.14453
 Alpha virt. eigenvalues --    3.15126   3.17791   3.19207   3.20768   3.32435
 Alpha virt. eigenvalues --    3.32917   3.37563   3.39755   3.45764   3.51483
 Alpha virt. eigenvalues --    3.55004   3.56043   3.63146   3.72920   3.73868
 Alpha virt. eigenvalues --    3.75328   3.75692   3.92813   4.00696   4.11268
 Alpha virt. eigenvalues --    4.19055   4.21575   4.26402   4.43270   4.55371
 Alpha virt. eigenvalues --    4.61060   4.70330   4.74830   4.85957   5.45566
 Alpha virt. eigenvalues --    5.51302   5.69179   5.88527   6.23897   6.59711
 Alpha virt. eigenvalues --    7.20595   8.78887   8.80633   8.86004   8.86926
 Alpha virt. eigenvalues --    8.99745   9.00213   9.10513   9.12516   9.19685
 Alpha virt. eigenvalues --    9.26586   9.27255   9.29488   9.33461   9.33987
 Alpha virt. eigenvalues --    9.36309   9.36569   9.39913   9.45569   9.54837
 Alpha virt. eigenvalues --    9.56216   9.59040   9.71916   9.84818   9.86776
 Alpha virt. eigenvalues --   12.04479  15.07576  16.12359
          Condensed to atoms (all electrons):
              1          2          3          4
     1  C    5.194518   0.242986   0.110522   0.110522
     2  S    0.242986  15.949610  -0.066551  -0.066551
     3  F    0.110522  -0.066551   9.178400  -0.081392
     4  F    0.110522  -0.066551  -0.081392   9.178400
 Mulliken atomic charges:
              1
     1  C    0.341452
     2  S   -0.059494
     3  F   -0.140979
     4  F   -0.140979
 Sum of Mulliken atomic charges =   0.00000
 Mulliken charges with hydrogens summed into heavy atoms:
              1
     1  C    0.341452
     2  S   -0.059494
     3  F   -0.140979
     4  F   -0.140979
 Sum of Mulliken charges with hydrogens summed into heavy atoms =   0.00000
 Electronic spatial extent (au):  <R**2>=            315.2002
 Charge=              0.0000 electrons
 Dipole moment (field-independent basis, Debye):
    X=              0.0000    Y=              0.0000    Z=             -0.2243  Tot=              0.2243
 Quadrupole moment (field-independent basis, Debye-Ang):
   XX=            -27.2810   YY=            -30.1543   ZZ=            -27.9399
   XY=              0.0000   XZ=              0.0000   YZ=              0.0000
 Traceless Quadrupole moment (field-independent basis, Debye-Ang):
   XX=              1.1774   YY=             -1.6959   ZZ=              0.5185
   XY=              0.0000   XZ=              0.0000   YZ=              0.0000
 Octapole moment (field-independent basis, Debye-Ang**2):
  XXX=              0.0000  YYY=              0.0000  ZZZ=              8.7842  XYY=              0.0000
  XXY=              0.0000  XXZ=              0.7522  XZZ=              0.0000  YZZ=              0.0000
  YYZ=              0.8022  XYZ=              0.0000
 Hexadecapole moment (field-independent basis, Debye-Ang**3):
 XXXX=            -28.1326 YYYY=            -96.1674 ZZZZ=           -215.0424 XXXY=              0.0000
 XXXZ=              0.0000 YYYX=              0.0000 YYYZ=              0.0000 ZZZX=              0.0000
 ZZZY=              0.0000 XXYY=            -20.7177 XXZZ=            -40.5190 YYZZ=            -55.6372
 XXYZ=              0.0000 YYXZ=              0.0000 ZZXY=              0.0000
 N-N= 1.543928454345D+02 E-N=-1.820106216479D+03  KE= 6.349953459280D+02
 1\1\GINC-TRAPISTA\FOpt\RQCISD-FC\Aug-CC-pVTZ\C1F2S1\BRUNS\17-Nov-2021\
 0\\#opt qcisd/aug-cc-pvtz density=current nosym\\f2cs\\0,1\C,0.0000001
 723,0.,-0.520349265\S,-0.0000000563,0.,1.0785250026\F,-0.000000058,-1.
 0552213259,-1.2955378688\F,-0.000000058,1.0552213259,-1.2955378688\\Ve
 rsion=EM64L-G09RevB.01\HF=-634.3568704\MP2=-635.1964052\MP3=-635.19979
 09\MP4D=-635.2167164\MP4DQ=-635.1973636\MP4SDQ=-635.2082211\QCISD=-635
 .2073238\RMSD=2.676e-09\RMSF=3.466e-05\Dipole=0.,0.,-0.0882532\Quadrup
 ole=0.8753854,-1.2608887,0.3855033,0.,-0.0000007,0.\PG=CS [SG(C1S1),X(
 F2)]\\@


 FAULTILY FAULTLESS, ICILY REGULAR, SPLENDIDLY NULL...
           MAUDE BY TENNYSON
 Job cpu time:  0 days 11 hours 27 minutes  8.9 seconds.
 File lengths (MBytes):  RWF=  17813 Int=      0 D2E=      0 Chk=      4 Scr=      1
 Normal termination of Gaussian 09 at Wed Nov 17 04:59:20 2021.
