 Entering Gaussian System, Link 0=/home/bruns/programas/chemistry/gaussian/g09/g09
 Input=GAUSSIAN.com
 Output=GAUSSIAN.log
 Initial command:
 /home/bruns/programas/chemistry/gaussian/g09/l1.exe /home/bruns/programas/chemistry/gaussian/work/Gau-39854.inp -scrdir=/home/bruns/programas/chemistry/gaussian/work/
 Entering Link 1 = /home/bruns/programas/chemistry/gaussian/g09/l1.exe PID=     39856.
  
 Copyright (c) 1988,1990,1992,1993,1995,1998,2003,2009,2010,
            Gaussian, Inc.  All Rights Reserved.
  
 This is part of the Gaussian(R) 09 program.  It is based on
 the Gaussian(R) 03 system (copyright 2003, Gaussian, Inc.),
 the Gaussian(R) 98 system (copyright 1998, Gaussian, Inc.),
 the Gaussian(R) 94 system (copyright 1995, Gaussian, Inc.),
 the Gaussian 92(TM) system (copyright 1992, Gaussian, Inc.),
 the Gaussian 90(TM) system (copyright 1990, Gaussian, Inc.),
 the Gaussian 88(TM) system (copyright 1988, Gaussian, Inc.),
 the Gaussian 86(TM) system (copyright 1986, Carnegie Mellon
 University), and the Gaussian 82(TM) system (copyright 1983,
 Carnegie Mellon University). Gaussian is a federally registered
 trademark of Gaussian, Inc.
  
 This software contains proprietary and confidential information,
 including trade secrets, belonging to Gaussian, Inc.
  
 This software is provided under written license and may be
 used, copied, transmitted, or stored only in accord with that
 written license.
  
 The following legend is applicable only to US Government
 contracts under FAR:
  
                    RESTRICTED RIGHTS LEGEND
  
 Use, reproduction and disclosure by the US Government is
 subject to restrictions as set forth in subparagraphs (a)
 and (c) of the Commercial Computer Software - Restricted
 Rights clause in FAR 52.227-19.
  
 Gaussian, Inc.
 340 Quinnipiac St., Bldg. 40, Wallingford CT 06492
  
  
 ---------------------------------------------------------------
 Warning -- This program may not be used in any manner that
 competes with the business of Gaussian, Inc. or will provide
 assistance to any competitor of Gaussian, Inc.  The licensee
 of this program is prohibited from giving any competitor of
 Gaussian, Inc. access to this program.  By using this program,
 the user acknowledges that Gaussian, Inc. is engaged in the
 business of creating and licensing software in the field of
 computational chemistry and represents and warrants to the
 licensee that it is not a competitor of Gaussian, Inc. and that
 it will not use this program in any manner prohibited above.
 ---------------------------------------------------------------
  

 Cite this work as:
 Gaussian 09, Revision B.01,
 M. J. Frisch, G. W. Trucks, H. B. Schlegel, G. E. Scuseria, 
 M. A. Robb, J. R. Cheeseman, G. Scalmani, V. Barone, B. Mennucci, 
 G. A. Petersson, H. Nakatsuji, M. Caricato, X. Li, H. P. Hratchian, 
 A. F. Izmaylov, J. Bloino, G. Zheng, J. L. Sonnenberg, M. Hada, 
 M. Ehara, K. Toyota, R. Fukuda, J. Hasegawa, M. Ishida, T. Nakajima, 
 Y. Honda, O. Kitao, H. Nakai, T. Vreven, J. A. Montgomery, Jr., 
 J. E. Peralta, F. Ogliaro, M. Bearpark, J. J. Heyd, E. Brothers, 
 K. N. Kudin, V. N. Staroverov, T. Keith, R. Kobayashi, J. Normand, 
 K. Raghavachari, A. Rendell, J. C. Burant, S. S. Iyengar, J. Tomasi, 
 M. Cossi, N. Rega, J. M. Millam, M. Klene, J. E. Knox, J. B. Cross, 
 V. Bakken, C. Adamo, J. Jaramillo, R. Gomperts, R. E. Stratmann, 
 O. Yazyev, A. J. Austin, R. Cammi, C. Pomelli, J. W. Ochterski, 
 R. L. Martin, K. Morokuma, V. G. Zakrzewski, G. A. Voth, 
 P. Salvador, J. J. Dannenberg, S. Dapprich, A. D. Daniels, 
 O. Farkas, J. B. Foresman, J. V. Ortiz, J. Cioslowski, 
 and D. J. Fox, Gaussian, Inc., Wallingford CT, 2010.
 
 ******************************************
 Gaussian 09:  EM64L-G09RevB.01 12-Aug-2010
                27-Nov-2021 
 ******************************************
 %nproc=8
 Will use up to    8 processors via shared memory.
 %mem=8GB
 -----------------------------------------------------
 # qcisd/aug-cc-pvtz nosymm density=current output=wfn
 -----------------------------------------------------
 1/30=1,38=1/1;
 2/12=2,15=1,17=6,18=5,40=1/2;
 3/5=16,6=1,7=10,11=9,16=1,25=1,30=1,71=1/1,2,3;
 4//1;
 5/5=2,38=5/2;
 8/6=4,9=120000,10=1/1,4;
 9/5=8,15=1/13;
 11/28=-7,31=1,32=3,42=3/11;
 10/5=6,13=10,31=1/2;
 6/7=2,8=2,9=2,10=2,22=-1,31=1/1;
 99/5=1,6=1100,9=1/99;
 -----------------
 f2cs-wavefunction
 -----------------
 Symbolic Z-matrix:
 Charge =  0 Multiplicity = 1
 C                     0.        0.       -0.52035 
 S                     0.        0.        1.07852 
 F                     0.       -1.05522  -1.29554 
 F                     0.        1.04522  -1.29554 
 
                          Input orientation:                          
 ---------------------------------------------------------------------
 Center     Atomic      Atomic             Coordinates (Angstroms)
 Number     Number       Type             X           Y           Z
 ---------------------------------------------------------------------
      1          6           0        0.000000    0.000000   -0.520349
      2         16           0        0.000000    0.000000    1.078525
      3          9           0        0.000000   -1.055221   -1.295538
      4          9           0        0.000000    1.045221   -1.295538
 ---------------------------------------------------------------------
                    Distance matrix (angstroms):
                    1          2          3          4
     1  C    0.000000
     2  S    1.598874   0.000000
     3  F    1.309355   2.598012   0.000000
     4  F    1.301309   2.593966   2.100442   0.000000
 Symmetry turned off by external request.
 Stoichiometry    CF2S
 Framework group  CS[SG(CF2S)]
 Deg. of freedom     5
 Full point group                 CS      NOp   2
 Rotational constants (GHZ):     12.0589785      5.1130516      3.5906168
 Standard basis: Aug-CC-pVTZ (5D, 7F)
 Integral buffers will be    131072 words long.
 Raffenetti 1 integral format.
 Two-electron integral symmetry is turned off.
   188 basis functions,   330 primitive gaussians,   224 cartesian basis functions
    20 alpha electrons       20 beta electrons
       nuclear repulsion energy       154.6702296828 Hartrees.
 NAtoms=    4 NActive=    4 NUniq=    4 SFac= 1.00D+00 NAtFMM=   50 NAOKFM=F Big=F
 One-electron integrals computed using PRISM.
 NBasis=   188 RedAO= T  NBF=   188
 NBsUse=   188 1.00D-06 NBFU=   188
 Harris functional with IExCor=  205 diagonalized for initial guess.
 ExpMin= 3.51D-02 ExpMax= 3.74D+05 ExpMxC= 1.18D+03 IAcc=3 IRadAn=         0 AccDes= 0.00D+00
 HarFok:  IExCor=  205 AccDes= 0.00D+00 IRadAn=         0 IDoV= 1
 ScaDFX=  1.000000  1.000000  1.000000  1.000000
 FoFCou: FMM=F IPFlag=           0 FMFlag=      100000 FMFlg1=           0
         NFxFlg=           0 DoJE=T BraDBF=F KetDBF=T FulRan=T
         Omega=  0.000000  0.000000  1.000000  0.000000  0.000000 ICntrl=     500 IOpCl=  0
         NMat0=    1 NMatS0=    1 NMatT0=    0 NMatD0=    1 NMtDS0=    0 NMtDT0=    0
         I1Cent=           4 NGrid=           0.
 Symmetry not used in FoFCou.
 Requested convergence on RMS density matrix=1.00D-08 within 128 cycles.
 Requested convergence on MAX density matrix=1.00D-06.
 Requested convergence on             energy=1.00D-06.
 No special actions if energy rises.
 Keep R1 ints in memory in canonical form, NReq=323399632.
 SCF Done:  E(RHF) =  -634.357311321     A.U. after   12 cycles
             Convg  =    0.7131D-08             -V/T =  2.0005
 ExpMin= 3.51D-02 ExpMax= 3.74D+05 ExpMxC= 1.18D+03 IAcc=3 IRadAn=         5 AccDes= 0.00D+00
 HarFok:  IExCor=  205 AccDes= 0.00D+00 IRadAn=         5 IDoV=-2
 ScaDFX=  1.000000  1.000000  1.000000  1.000000
 Range of M.O.s used for correlation:     9   188
 NBasis=   188 NAE=    20 NBE=    20 NFC=     8 NFV=     0
 NROrb=    180 NOA=    12 NOB=    12 NVA=   168 NVB=   168

 **** Warning!!: The largest alpha MO coefficient is  0.25084530D+02

 Semi-Direct transformation.
 ModeAB=           2 MOrb=            12 LenV=    1072746475
 LASXX=     33405819 LTotXX=    33405819 LenRXX=    33405819
 LTotAB=    33954012 MaxLAS=    54432000 LenRXY=    54432000
 NonZer=    66811638 LenScr=   100987392 LnRSAI=           0
 LnScr1=           0 LExtra=           0 Total=    188825211
 MaxDsk=          -1 SrtSym=           F ITran=            4
 JobTyp=0 Pass  1:  I=   1 to  12.
 (rs|ai) integrals will be sorted in core.
 Spin components of T(2) and E(2):
     alpha-alpha T2 =       0.3007910734D-01 E2=     -0.1103485965D+00
     alpha-beta  T2 =       0.1594229151D+00 E2=     -0.6182518798D+00
     beta-beta   T2 =       0.3007910734D-01 E2=     -0.1103485965D+00
 ANorm=    0.1104346472D+01
 E2 =    -0.8389490728D+00 EUMP2 =    -0.63519626039411D+03
 R2 and R3 integrals will be kept in memory, NReq=   640760400.
 Iterations=  50 Convergence= 0.100D-07
 Iteration Nr.   1
 **********************
 DD1Dir will call FoFMem   1 times, MxPair=       156
 NAB=    78 NAA=     0 NBB=     0.
 MP4(R+Q)=  0.19298979D-01
 E3=       -0.35583186D-02        EUMP3=      -0.63519981871D+03
 E4(DQ)=    0.24604781D-02        UMP4(DQ)=   -0.63519735823D+03
 E4(SDQ)=  -0.83238468D-02        UMP4(SDQ)=  -0.63520814256D+03
 DE(Corr)= -0.82320841     E(Corr)=     -635.18051973    
 NORM(A)=   0.11036529D+01
 Iteration Nr.   2
 **********************
 DD1Dir will call FoFMem   1 times, MxPair=       156
 NAB=    78 NAA=     0 NBB=     0.
 DE(Corr)= -0.84874274     E(CORR)=     -635.20605406     Delta=-2.55D-02
 NORM(A)=   0.11125340D+01
 Iteration Nr.   3
 **********************
 DD1Dir will call FoFMem   1 times, MxPair=       156
 NAB=    78 NAA=     0 NBB=     0.
 DE(Corr)= -0.84709984     E(CORR)=     -635.20441116     Delta= 1.64D-03
 NORM(A)=   0.11153514D+01
 Iteration Nr.   4
 **********************
 DD1Dir will call FoFMem   1 times, MxPair=       156
 NAB=    78 NAA=     0 NBB=     0.
 DE(Corr)= -0.84961010     E(CORR)=     -635.20692142     Delta=-2.51D-03
 NORM(A)=   0.11164545D+01
 Iteration Nr.   5
 **********************
 DD1Dir will call FoFMem   1 times, MxPair=       156
 NAB=    78 NAA=     0 NBB=     0.
 DE(Corr)= -0.84990827     E(CORR)=     -635.20721959     Delta=-2.98D-04
 NORM(A)=   0.11167785D+01
 Iteration Nr.   6
 **********************
 DD1Dir will call FoFMem   1 times, MxPair=       156
 NAB=    78 NAA=     0 NBB=     0.
 DE(Corr)= -0.84994742     E(CORR)=     -635.20725874     Delta=-3.91D-05
 NORM(A)=   0.11168265D+01
 Iteration Nr.   7
 **********************
 DD1Dir will call FoFMem   1 times, MxPair=       156
 NAB=    78 NAA=     0 NBB=     0.
 DE(Corr)= -0.84995166     E(CORR)=     -635.20726298     Delta=-4.24D-06
 NORM(A)=   0.11168267D+01
 Iteration Nr.   8
 **********************
 DD1Dir will call FoFMem   1 times, MxPair=       156
 NAB=    78 NAA=     0 NBB=     0.
 DE(Corr)= -0.84995008     E(CORR)=     -635.20726140     Delta= 1.58D-06
 NORM(A)=   0.11168320D+01
 Iteration Nr.   9
 **********************
 DD1Dir will call FoFMem   1 times, MxPair=       156
 NAB=    78 NAA=     0 NBB=     0.
 DE(Corr)= -0.84994994     E(CORR)=     -635.20726126     Delta= 1.39D-07
 NORM(A)=   0.11168323D+01
 Iteration Nr.  10
 **********************
 DD1Dir will call FoFMem   1 times, MxPair=       156
 NAB=    78 NAA=     0 NBB=     0.
 DE(Corr)= -0.84994994     E(CORR)=     -635.20726126     Delta= 4.05D-09
 NORM(A)=   0.11168338D+01
 Iteration Nr.  11
 **********************
 DD1Dir will call FoFMem   1 times, MxPair=       156
 NAB=    78 NAA=     0 NBB=     0.
 DE(Corr)= -0.84995077     E(CORR)=     -635.20726209     Delta=-8.37D-07
 NORM(A)=   0.11168352D+01
 Iteration Nr.  12
 **********************
 DD1Dir will call FoFMem   1 times, MxPair=       156
 NAB=    78 NAA=     0 NBB=     0.
 DE(Corr)= -0.84995098     E(CORR)=     -635.20726231     Delta=-2.11D-07
 NORM(A)=   0.11168359D+01
 Iteration Nr.  13
 **********************
 DD1Dir will call FoFMem   1 times, MxPair=       156
 NAB=    78 NAA=     0 NBB=     0.
 DE(Corr)= -0.84995127     E(CORR)=     -635.20726259     Delta=-2.86D-07
 NORM(A)=   0.11168364D+01
 Iteration Nr.  14
 **********************
 DD1Dir will call FoFMem   1 times, MxPair=       156
 NAB=    78 NAA=     0 NBB=     0.
 DE(Corr)= -0.84995133     E(CORR)=     -635.20726265     Delta=-5.58D-08
 NORM(A)=   0.11168365D+01
 Iteration Nr.  15
 **********************
 DD1Dir will call FoFMem   1 times, MxPair=       156
 NAB=    78 NAA=     0 NBB=     0.
 DE(Corr)= -0.84995136     E(CORR)=     -635.20726269     Delta=-3.90D-08
 NORM(A)=   0.11168366D+01
 Iteration Nr.  16
 **********************
 DD1Dir will call FoFMem   1 times, MxPair=       156
 NAB=    78 NAA=     0 NBB=     0.
 DE(Corr)= -0.84995138     E(CORR)=     -635.20726270     Delta=-1.20D-08
 NORM(A)=   0.11168366D+01
 Iteration Nr.  17
 **********************
 DD1Dir will call FoFMem   1 times, MxPair=       156
 NAB=    78 NAA=     0 NBB=     0.
 DE(Corr)= -0.84995137     E(CORR)=     -635.20726269     Delta= 3.89D-09
 NORM(A)=   0.11168366D+01
 Iteration Nr.  18
 **********************
 DD1Dir will call FoFMem   1 times, MxPair=       156
 NAB=    78 NAA=     0 NBB=     0.
 DE(Corr)= -0.84995138     E(CORR)=     -635.20726270     Delta=-2.85D-09
 NORM(A)=   0.11168366D+01
 Iteration Nr.  19
 **********************
 DD1Dir will call FoFMem   1 times, MxPair=       156
 NAB=    78 NAA=     0 NBB=     0.
 DE(Corr)= -0.84995137     E(CORR)=     -635.20726270     Delta= 1.23D-09
 NORM(A)=   0.11168366D+01
 Largest amplitude= 8.42D-02

 Z-AMPLITUDE ITERATIONS

 Iteration Nr.   1
 **********************
 DD1Dir will call FoFMem   1 times, MxPair=       156
 NAB=    78 NAA=     0 NBB=     0.
 DE(Z)  -0.82613054D+00          E(Z)=    -0.63518344186D+03
 NORM(A)=   0.11168360D+01
 Iteration Nr.   2
 **********************
 DD1Dir will call FoFMem   1 times, MxPair=       156
 NAB=    78 NAA=     0 NBB=     0.
 DE(Z)  -0.82613054D+00          E(Z)=    -0.63518344186D+03
 NORM(A)=   0.11168367D+01
 Iteration Nr.   3
 **********************
 DD1Dir will call FoFMem   1 times, MxPair=       156
 NAB=    78 NAA=     0 NBB=     0.
 DE(Z)  -0.82613054D+00          E(Z)=    -0.63518344186D+03
 NORM(A)=   0.11168366D+01
 Iteration Nr.   4
 **********************
 DD1Dir will call FoFMem   1 times, MxPair=       156
 NAB=    78 NAA=     0 NBB=     0.
 DE(Z)  -0.82613054D+00          E(Z)=    -0.63518344186D+03
 NORM(A)=   0.11168367D+01
 Iteration Nr.   5
 **********************
 DD1Dir will call FoFMem   1 times, MxPair=       156
 NAB=    78 NAA=     0 NBB=     0.
 DE(Z)  -0.82613054D+00          E(Z)=    -0.63518344186D+03
 NORM(A)=   0.11085751D+01
 Iteration Nr.   6
 **********************
 DD1Dir will call FoFMem   1 times, MxPair=       156
 NAB=    78 NAA=     0 NBB=     0.
 DE(Z)  -0.82603603D+00          E(Z)=    -0.63518334735D+03
 NORM(A)=   0.11089307D+01
 Iteration Nr.   7
 **********************
 DD1Dir will call FoFMem   1 times, MxPair=       156
 NAB=    78 NAA=     0 NBB=     0.
 DE(Z)  -0.82602398D+00          E(Z)=    -0.63518333530D+03
 NORM(A)=   0.11086782D+01
 Iteration Nr.   8
 **********************
 DD1Dir will call FoFMem   1 times, MxPair=       156
 NAB=    78 NAA=     0 NBB=     0.
 DE(Z)  -0.82597471D+00          E(Z)=    -0.63518328604D+03
 NORM(A)=   0.11086398D+01
 Iteration Nr.   9
 **********************
 DD1Dir will call FoFMem   1 times, MxPair=       156
 NAB=    78 NAA=     0 NBB=     0.
 DE(Z)  -0.82598833D+00          E(Z)=    -0.63518329965D+03
 NORM(A)=   0.11086343D+01
 Iteration Nr.  10
 **********************
 DD1Dir will call FoFMem   1 times, MxPair=       156
 NAB=    78 NAA=     0 NBB=     0.
 DE(Z)  -0.82598644D+00          E(Z)=    -0.63518329776D+03
 NORM(A)=   0.11086338D+01
 Iteration Nr.  11
 **********************
 DD1Dir will call FoFMem   1 times, MxPair=       156
 NAB=    78 NAA=     0 NBB=     0.
 DE(Z)  -0.82598656D+00          E(Z)=    -0.63518329789D+03
 NORM(A)=   0.11086331D+01
 Iteration Nr.  12
 **********************
 DD1Dir will call FoFMem   1 times, MxPair=       156
 NAB=    78 NAA=     0 NBB=     0.
 DE(Z)  -0.82598690D+00          E(Z)=    -0.63518329822D+03
 NORM(A)=   0.11086336D+01
 Iteration Nr.  13
 **********************
 DD1Dir will call FoFMem   1 times, MxPair=       156
 NAB=    78 NAA=     0 NBB=     0.
 DE(Z)  -0.82598665D+00          E(Z)=    -0.63518329797D+03
 NORM(A)=   0.11086336D+01
 Iteration Nr.  14
 **********************
 DD1Dir will call FoFMem   1 times, MxPair=       156
 NAB=    78 NAA=     0 NBB=     0.
 DE(Z)  -0.82598681D+00          E(Z)=    -0.63518329813D+03
 NORM(A)=   0.11086336D+01
 Iteration Nr.  15
 **********************
 DD1Dir will call FoFMem   1 times, MxPair=       156
 NAB=    78 NAA=     0 NBB=     0.
 DE(Z)  -0.82598678D+00          E(Z)=    -0.63518329810D+03
 NORM(A)=   0.11086336D+01
 Iteration Nr.  16
 **********************
 DD1Dir will call FoFMem   1 times, MxPair=       156
 NAB=    78 NAA=     0 NBB=     0.
 DE(Z)  -0.82598679D+00          E(Z)=    -0.63518329811D+03
 NORM(A)=   0.11086336D+01
 Iteration Nr.  17
 **********************
 DD1Dir will call FoFMem   1 times, MxPair=       156
 NAB=    78 NAA=     0 NBB=     0.
 DE(Z)  -0.82598679D+00          E(Z)=    -0.63518329811D+03
 NORM(A)=   0.11086336D+01
 Discarding MO integrals.
          Differentiating once with respect to electric field.
                with respect to dipole field.
          Electric field/nuclear overlap derivatives assumed to be zero.
          Keep R1 ints in memory in canonical form, NReq=319473719.
          There are     1 degrees of freedom in the 1st order CPHF.  IDoFFX=0.
 LinEq1:  Iter=  0 NonCon=     1 RMS=2.85D-03 Max=7.70D-02
 AX will form     1 AO Fock derivatives at one time.
 LinEq1:  Iter=  1 NonCon=     1 RMS=8.79D-04 Max=1.22D-02
 LinEq1:  Iter=  2 NonCon=     1 RMS=4.00D-04 Max=1.29D-02
 LinEq1:  Iter=  3 NonCon=     1 RMS=1.08D-04 Max=2.40D-03
 LinEq1:  Iter=  4 NonCon=     1 RMS=2.70D-05 Max=6.37D-04
 LinEq1:  Iter=  5 NonCon=     1 RMS=6.80D-06 Max=1.01D-04
 LinEq1:  Iter=  6 NonCon=     1 RMS=2.71D-06 Max=5.72D-05
 LinEq1:  Iter=  7 NonCon=     1 RMS=8.36D-07 Max=1.52D-05
 LinEq1:  Iter=  8 NonCon=     1 RMS=1.67D-07 Max=2.34D-06
 LinEq1:  Iter=  9 NonCon=     1 RMS=3.26D-08 Max=3.64D-07
 LinEq1:  Iter= 10 NonCon=     1 RMS=9.29D-09 Max=1.25D-07
 LinEq1:  Iter= 11 NonCon=     1 RMS=3.93D-09 Max=5.22D-08
 LinEq1:  Iter= 12 NonCon=     1 RMS=8.32D-10 Max=1.38D-08
 LinEq1:  Iter= 13 NonCon=     1 RMS=1.15D-10 Max=1.46D-09
 LinEq1:  Iter= 14 NonCon=     0 RMS=2.09D-11 Max=2.09D-10
 Linear equations converged to 1.000D-10 1.000D-09 after    14 iterations.
 End of Minotr Frequency-dependent properties file   721 does not exist.
 End of Minotr Frequency-dependent properties file   722 does not exist.

 **********************************************************************

            Population analysis using the QCI/CC density.

 **********************************************************************

     Natural Orbital Coefficients:
                           1         2         3         4         5
     Eigenvalues --     2.00003   2.00002   2.00001   2.00001   2.00000
   1 1   C  1S          0.00061  -0.17767   0.59403   0.00000   0.48579
   2        2S         -0.00003   0.00325  -0.00923   0.00000  -0.00497
   3        3S          0.00002  -0.00680   0.02394   0.00000   0.02033
   4        4S          0.00009  -0.00903   0.00221   0.00000  -0.00208
   5        5S         -0.00001  -0.00082   0.00193   0.00000   0.00045
   6        6PX         0.00000   0.00000   0.00000  -0.00182   0.00000
   7        6PY        -0.00139  -0.00001   0.00001   0.00000   0.00000
   8        6PZ        -0.00001   0.00135  -0.00336   0.00000  -0.00038
   9        7PX         0.00000   0.00000   0.00000  -0.00186   0.00000
  10        7PY        -0.00366  -0.00002   0.00001   0.00000   0.00001
  11        7PZ         0.00002  -0.00098   0.00139   0.00000   0.00159
  12        8PX         0.00000   0.00000   0.00000  -0.00121   0.00000
  13        8PY         0.00606   0.00004  -0.00002   0.00000  -0.00003
  14        8PZ        -0.00005  -0.00924   0.00521   0.00000  -0.00100
  15        9PX         0.00000   0.00000   0.00000   0.00009   0.00000
  16        9PY        -0.00062   0.00000   0.00000   0.00000   0.00001
  17        9PZ         0.00000   0.00036   0.00029   0.00000   0.00054
  18       10D 0        0.00000  -0.00008   0.00007   0.00000   0.00019
  19       10D+1        0.00000   0.00000   0.00000  -0.00030   0.00000
  20       10D-1       -0.00030   0.00000  -0.00001   0.00000   0.00000
  21       10D+2        0.00000   0.00011  -0.00037   0.00000  -0.00019
  22       10D-2        0.00000   0.00000   0.00000   0.00000   0.00000
  23       11D 0        0.00001  -0.00117   0.00017   0.00000  -0.00036
  24       11D+1        0.00000   0.00000   0.00000   0.00121   0.00000
  25       11D-1        0.00103   0.00000   0.00001   0.00000   0.00001
  26       11D+2        0.00000  -0.00014   0.00118   0.00000   0.00081
  27       11D-2        0.00000   0.00000   0.00000  -0.00001   0.00000
  28       12D 0        0.00001  -0.00271   0.00162   0.00000  -0.00136
  29       12D+1        0.00000   0.00000   0.00000  -0.00055   0.00000
  30       12D-1       -0.00449  -0.00002   0.00002   0.00000   0.00002
  31       12D+2        0.00001  -0.00088   0.00057   0.00000  -0.00053
  32       12D-2        0.00000   0.00000   0.00000   0.00000   0.00000
  33       13F 0        0.00000  -0.00005  -0.00001   0.00000   0.00041
  34       13F+1        0.00000   0.00000   0.00000  -0.00018   0.00000
  35       13F-1       -0.00056   0.00000   0.00000   0.00000   0.00000
  36       13F+2        0.00000  -0.00010   0.00016   0.00000   0.00002
  37       13F-2        0.00000   0.00000   0.00000   0.00000   0.00000
  38       13F+3        0.00000   0.00000   0.00000   0.00002   0.00000
  39       13F-3        0.00005   0.00000   0.00000   0.00000   0.00000
  40       14F 0       -0.00001   0.00062  -0.00196   0.00000  -0.00023
  41       14F+1        0.00000   0.00000   0.00000   0.00089   0.00000
  42       14F-1        0.00293   0.00000   0.00002   0.00000  -0.00003
  43       14F+2        0.00000   0.00066  -0.00151   0.00000  -0.00090
  44       14F-2        0.00000   0.00000   0.00000   0.00000   0.00000
  45       14F+3        0.00000   0.00000   0.00000   0.00017   0.00000
  46       14F-3        0.00004   0.00000   0.00001   0.00000   0.00000
  47 2   S  1S          0.00075  -0.21701  -0.16990   0.00000   0.07210
  48        2S         -0.00255   0.74202   0.58740   0.00000  -0.25031
  49        3S          0.00008  -0.02144  -0.00889   0.00000   0.00218
  50        4S         -0.00016   0.04958   0.04238   0.00000  -0.01828
  51        5S         -0.00001   0.01003  -0.01120   0.00000   0.00416
  52        6S          0.00001   0.00100  -0.00254   0.00000  -0.00081
  53        7PX         0.00000   0.00000   0.00000   0.97270   0.00000
  54        7PY         0.97646   0.00394  -0.00050   0.00000   0.00037
  55        7PZ        -0.00306   0.62371  -0.50370   0.00000   0.43982
  56        8PX         0.00000   0.00000   0.00000  -0.01228   0.00000
  57        8PY        -0.02024  -0.00007   0.00000   0.00000   0.00001
  58        8PZ         0.00007  -0.01235   0.00872   0.00000  -0.00450
  59        9PX         0.00000   0.00000   0.00000   0.06129   0.00000
  60        9PY         0.05655   0.00023  -0.00003   0.00000   0.00002
  61        9PZ        -0.00019   0.03857  -0.03312   0.00000   0.02902
  62       10PX         0.00000   0.00000   0.00000   0.00019   0.00000
  63       10PY        -0.00421  -0.00001  -0.00002   0.00000   0.00000
  64       10PZ         0.00003  -0.00882   0.00479   0.00000  -0.00070
  65       11PX         0.00000   0.00000   0.00000  -0.00082   0.00000
  66       11PY        -0.00033   0.00000   0.00000   0.00000   0.00000
  67       11PZ         0.00000  -0.00029   0.00029   0.00000  -0.00003
  68       12D 0       -0.00002   0.00245  -0.00292   0.00000   0.00109
  69       12D+1        0.00000   0.00000   0.00000   0.00201   0.00000
  70       12D-1        0.00337   0.00001   0.00001   0.00000  -0.00001
  71       12D+2        0.00000  -0.00039   0.00026   0.00000   0.00030
  72       12D-2        0.00000   0.00000   0.00000   0.00000   0.00000
  73       13D 0        0.00000   0.00019   0.00028   0.00000  -0.00070
  74       13D+1        0.00000   0.00000   0.00000  -0.00013   0.00000
  75       13D-1       -0.00028   0.00000   0.00000   0.00000   0.00000
  76       13D+2        0.00000   0.00026   0.00013   0.00000  -0.00008
  77       13D-2        0.00000   0.00000   0.00000   0.00000   0.00000
  78       14D 0       -0.00001   0.00142  -0.00061   0.00000   0.00011
  79       14D+1        0.00000   0.00000   0.00000  -0.00039   0.00000
  80       14D-1       -0.00082   0.00000   0.00001   0.00000   0.00000
  81       14D+2        0.00000   0.00024  -0.00002   0.00000   0.00013
  82       14D-2        0.00000   0.00000   0.00000   0.00000   0.00000
  83       15F 0        0.00000  -0.00023   0.00029   0.00000   0.00033
  84       15F+1        0.00000   0.00000   0.00000  -0.00023   0.00000
  85       15F-1       -0.00022   0.00000   0.00000   0.00000   0.00000
  86       15F+2        0.00000   0.00011  -0.00014   0.00000   0.00003
  87       15F-2        0.00000   0.00000   0.00000   0.00000   0.00000
  88       15F+3        0.00000   0.00000   0.00000   0.00009   0.00000
  89       15F-3        0.00006   0.00000   0.00000   0.00000   0.00000
  90       16F 0        0.00001  -0.00047   0.00057   0.00000  -0.00047
  91       16F+1        0.00000   0.00000   0.00000  -0.00047   0.00000
  92       16F-1       -0.00104   0.00000   0.00000   0.00000   0.00000
  93       16F+2        0.00000  -0.00001  -0.00017   0.00000  -0.00026
  94       16F-2        0.00000   0.00000   0.00000   0.00000   0.00000
  95       16F+3        0.00000   0.00000   0.00000  -0.00013   0.00000
  96       16F-3       -0.00012   0.00000   0.00000   0.00000   0.00000
  97 3   F  1S          0.00826   0.01094  -0.08473   0.00000  -0.48342
  98        2S          0.00019  -0.00045   0.00235   0.00000   0.00836
  99        3S          0.00045   0.00040  -0.00338   0.00000  -0.02055
 100        4S          0.00030  -0.00134   0.00376   0.00000   0.00181
 101        5S          0.00726  -0.00211   0.00120   0.00000  -0.00033
 102        6PX         0.00000   0.00000   0.00000   0.00095   0.00000
 103        6PY        -0.00020   0.00002  -0.00068   0.00000  -0.00170
 104        6PZ        -0.00057  -0.00014  -0.00017   0.00000  -0.00143
 105        7PX         0.00000   0.00000   0.00000   0.00118   0.00000
 106        7PY        -0.00031  -0.00007  -0.00039   0.00000  -0.00093
 107        7PZ        -0.00085  -0.00030   0.00018   0.00000  -0.00085
 108        8PX         0.00000   0.00000   0.00000   0.00126   0.00000
 109        8PY        -0.00054   0.00001  -0.00018   0.00000  -0.00111
 110        8PZ        -0.00274  -0.00031   0.00071   0.00000  -0.00143
 111        9PX         0.00000   0.00000   0.00000  -0.00002   0.00000
 112        9PY         0.00170  -0.00008  -0.00005   0.00000   0.00006
 113        9PZ         0.00021  -0.00110   0.00052   0.00000  -0.00068
 114       10D 0        0.00000   0.00001   0.00000   0.00000   0.00001
 115       10D+1        0.00000   0.00000   0.00000  -0.00001   0.00000
 116       10D-1        0.00001   0.00000   0.00002   0.00000   0.00002
 117       10D+2        0.00000   0.00001  -0.00002   0.00000   0.00002
 118       10D-2        0.00000   0.00000   0.00000  -0.00002   0.00000
 119       11D 0        0.00015   0.00001  -0.00006   0.00000  -0.00003
 120       11D+1        0.00000   0.00000   0.00000  -0.00003   0.00000
 121       11D-1       -0.00007   0.00004  -0.00013   0.00000  -0.00010
 122       11D+2        0.00004  -0.00001   0.00007   0.00000  -0.00001
 123       11D-2        0.00000   0.00000   0.00000   0.00005   0.00000
 124       12D 0       -0.00047   0.00019  -0.00030   0.00000  -0.00005
 125       12D+1        0.00000   0.00000   0.00000   0.00024   0.00000
 126       12D-1       -0.00085  -0.00007   0.00022   0.00000  -0.00053
 127       12D+2        0.00040  -0.00017   0.00033   0.00000   0.00020
 128       12D-2        0.00000   0.00000   0.00000   0.00003   0.00000
 129       13F 0       -0.00001  -0.00002   0.00004   0.00000  -0.00001
 130       13F+1        0.00000   0.00000   0.00000   0.00001   0.00000
 131       13F-1        0.00003   0.00001   0.00000   0.00000   0.00002
 132       13F+2        0.00000  -0.00001   0.00001   0.00000  -0.00004
 133       13F-2        0.00000   0.00000   0.00000  -0.00002   0.00000
 134       13F+3        0.00000   0.00000   0.00000   0.00001   0.00000
 135       13F-3       -0.00002   0.00001  -0.00002   0.00000   0.00001
 136       14F 0        0.00013   0.00006  -0.00010   0.00000   0.00014
 137       14F+1        0.00000   0.00000   0.00000  -0.00003   0.00000
 138       14F-1       -0.00001   0.00003  -0.00014   0.00000  -0.00020
 139       14F+2        0.00007  -0.00001   0.00012   0.00000   0.00030
 140       14F-2        0.00000   0.00000   0.00000   0.00008   0.00000
 141       14F+3        0.00000   0.00000   0.00000  -0.00004   0.00000
 142       14F-3        0.00012  -0.00005   0.00015   0.00000   0.00000
 143 4   F  1S         -0.00848   0.01099  -0.08552   0.00000  -0.48076
 144        2S         -0.00018  -0.00046   0.00238   0.00000   0.00832
 145        3S         -0.00045   0.00040  -0.00341   0.00000  -0.02044
 146        4S         -0.00029  -0.00134   0.00376   0.00000   0.00183
 147        5S         -0.00732  -0.00220   0.00123   0.00000  -0.00029
 148        6PX         0.00000   0.00000   0.00000   0.00095   0.00000
 149        6PY        -0.00018  -0.00003   0.00070   0.00000   0.00171
 150        6PZ         0.00058  -0.00013  -0.00019   0.00000  -0.00145
 151        7PX         0.00000   0.00000   0.00000   0.00119   0.00000
 152        7PY        -0.00030   0.00006   0.00041   0.00000   0.00094
 153        7PZ         0.00086  -0.00029   0.00016   0.00000  -0.00087
 154        8PX         0.00000   0.00000   0.00000   0.00129   0.00000
 155        8PY        -0.00053  -0.00005   0.00027   0.00000   0.00111
 156        8PZ         0.00278  -0.00030   0.00073   0.00000  -0.00148
 157        9PX         0.00000   0.00000   0.00000  -0.00002   0.00000
 158        9PY         0.00170   0.00009   0.00005   0.00000  -0.00008
 159        9PZ        -0.00021  -0.00112   0.00052   0.00000  -0.00069
 160       10D 0        0.00000   0.00001   0.00000   0.00000   0.00001
 161       10D+1        0.00000   0.00000   0.00000  -0.00001   0.00000
 162       10D-1        0.00001   0.00000  -0.00002   0.00000  -0.00002
 163       10D+2        0.00000   0.00001  -0.00002   0.00000   0.00002
 164       10D-2        0.00000   0.00000   0.00000   0.00002   0.00000
 165       11D 0       -0.00015   0.00001  -0.00006   0.00000  -0.00003
 166       11D+1        0.00000   0.00000   0.00000  -0.00003   0.00000
 167       11D-1       -0.00007  -0.00004   0.00014   0.00000   0.00011
 168       11D+2       -0.00004  -0.00002   0.00007   0.00000  -0.00001
 169       11D-2        0.00000   0.00000   0.00000  -0.00005   0.00000
 170       12D 0        0.00048   0.00018  -0.00028   0.00000  -0.00007
 171       12D+1        0.00000   0.00000   0.00000   0.00025   0.00000
 172       12D-1       -0.00085   0.00007  -0.00022   0.00000   0.00055
 173       12D+2       -0.00040  -0.00018   0.00035   0.00000   0.00020
 174       12D-2        0.00000   0.00000   0.00000  -0.00004   0.00000
 175       13F 0        0.00001  -0.00002   0.00003   0.00000  -0.00001
 176       13F+1        0.00000   0.00000   0.00000   0.00001   0.00000
 177       13F-1        0.00003  -0.00001   0.00000   0.00000  -0.00002
 178       13F+2        0.00000  -0.00001   0.00001   0.00000  -0.00004
 179       13F-2        0.00000   0.00000   0.00000   0.00003   0.00000
 180       13F+3        0.00000   0.00000   0.00000   0.00001   0.00000
 181       13F-3       -0.00001  -0.00001   0.00002   0.00000  -0.00001
 182       14F 0       -0.00013   0.00006  -0.00009   0.00000   0.00014
 183       14F+1        0.00000   0.00000   0.00000  -0.00004   0.00000
 184       14F-1       -0.00001  -0.00003   0.00014   0.00000   0.00020
 185       14F+2       -0.00007  -0.00001   0.00013   0.00000   0.00031
 186       14F-2        0.00000   0.00000   0.00000  -0.00008   0.00000
 187       14F+3        0.00000   0.00000   0.00000  -0.00004   0.00000
 188       14F-3        0.00012   0.00005  -0.00015   0.00000   0.00000
                           6         7         8         9        10
     Eigenvalues --     2.00000   2.00000   2.00000   1.98615   1.98547
   1 1   C  1S         -0.00653   0.58508   0.00016  -0.04859   0.00080
   2        2S          0.00009  -0.00549  -0.00003   0.09989  -0.00182
   3        3S         -0.00027   0.02373   0.00002   0.02087  -0.00035
   4        4S          0.00008  -0.00202  -0.00004   0.01172  -0.00031
   5        5S          0.00000   0.00065  -0.00007   0.00515  -0.00014
   6        6PX         0.00000   0.00000   0.00000   0.00000   0.00000
   7        6PY        -0.00002   0.00001   0.00000   0.00125   0.03373
   8        6PZ         0.00001  -0.00095   0.00001  -0.02130   0.00021
   9        7PX         0.00000   0.00000   0.00000   0.00000   0.00000
  10        7PY         0.00076   0.00008   0.00000   0.00095   0.02722
  11        7PZ        -0.00004   0.00011  -0.00013  -0.02525   0.00048
  12        8PX         0.00000   0.00000   0.00000   0.00000   0.00000
  13        8PY        -0.00053   0.00002   0.00000  -0.00048  -0.01786
  14        8PZ        -0.00005   0.00221   0.00004   0.03708  -0.00069
  15        9PX         0.00000   0.00000   0.00000   0.00000   0.00000
  16        9PY         0.00033   0.00000   0.00000   0.00006   0.00139
  17        9PZ         0.00000   0.00028  -0.00003   0.00136  -0.00003
  18       10D 0        0.00000   0.00024  -0.00001   0.00316  -0.00005
  19       10D+1        0.00000   0.00000   0.00000   0.00000   0.00000
  20       10D-1       -0.00021  -0.00002   0.00000  -0.00041  -0.01056
  21       10D+2        0.00000  -0.00052   0.00000  -0.00845   0.00016
  22       10D-2        0.00000   0.00000   0.00000   0.00000   0.00000
  23       11D 0        0.00002  -0.00051  -0.00008   0.00243   0.00000
  24       11D+1        0.00000   0.00000   0.00000   0.00000   0.00000
  25       11D-1       -0.00127  -0.00004   0.00000  -0.00033  -0.01071
  26       11D+2       -0.00001  -0.00002  -0.00003  -0.01134   0.00029
  27       11D-2        0.00000   0.00000   0.00000   0.00000   0.00000
  28       12D 0        0.00000  -0.00013  -0.00002   0.00682  -0.00021
  29       12D+1        0.00000   0.00000   0.00000   0.00000   0.00000
  30       12D-1        0.00063   0.00002   0.00000   0.00068   0.01341
  31       12D+2       -0.00001   0.00027   0.00000   0.00846  -0.00017
  32       12D-2        0.00000   0.00000   0.00000   0.00000   0.00000
  33       13F 0       -0.00001   0.00061   0.00001   0.00273  -0.00006
  34       13F+1        0.00000   0.00000   0.00000   0.00000   0.00000
  35       13F-1        0.00017   0.00001   0.00000   0.00008   0.00184
  36       13F+2        0.00000   0.00061   0.00001   0.00522  -0.00012
  37       13F-2        0.00000   0.00000   0.00000   0.00000   0.00000
  38       13F+3        0.00000   0.00000   0.00000   0.00000   0.00000
  39       13F-3       -0.00021   0.00000   0.00000  -0.00004  -0.00213
  40       14F 0       -0.00001   0.00053   0.00003   0.00418  -0.00013
  41       14F+1        0.00000   0.00000   0.00000   0.00000   0.00000
  42       14F-1        0.00107   0.00001   0.00000   0.00023   0.00431
  43       14F+2        0.00001  -0.00025   0.00001   0.00231  -0.00009
  44       14F-2        0.00000   0.00000   0.00000   0.00000   0.00000
  45       14F+3        0.00000   0.00000   0.00000   0.00000   0.00000
  46       14F-3        0.00013   0.00000   0.00000   0.00004   0.00034
  47 2   S  1S         -0.00069   0.04605   0.99641   0.00292  -0.00007
  48        2S          0.00240  -0.16132   0.01317  -0.01165   0.00028
  49        3S         -0.00001   0.00049   0.00031   0.02249  -0.00053
  50        4S          0.00018  -0.01203  -0.00003   0.00242  -0.00004
  51        5S         -0.00001   0.00117  -0.00005  -0.01879   0.00026
  52        6S          0.00001  -0.00092   0.00005  -0.01184   0.00023
  53        7PX         0.00000   0.00000   0.00000   0.00000   0.00000
  54        7PY         0.01190   0.00050   0.00000  -0.00008  -0.00432
  55        7PZ        -0.00456   0.33169   0.00171   0.00756  -0.00019
  56        8PX         0.00000   0.00000   0.00000   0.00000   0.00000
  57        8PY        -0.00035   0.00000   0.00000   0.00026   0.01599
  58        8PZ         0.00004  -0.00288  -0.00018  -0.01267   0.00041
  59        9PX         0.00000   0.00000   0.00000   0.00000   0.00000
  60        9PY         0.00074   0.00003   0.00000   0.00013   0.00660
  61        9PZ        -0.00030   0.02218   0.00019  -0.00740   0.00018
  62       10PX         0.00000   0.00000   0.00000   0.00000   0.00000
  63       10PY        -0.00047  -0.00001   0.00000  -0.00027   0.00395
  64       10PZ         0.00001  -0.00020   0.00003   0.00686   0.00002
  65       11PX         0.00000   0.00000   0.00000   0.00000   0.00000
  66       11PY        -0.00017   0.00000   0.00000  -0.00004  -0.00055
  67       11PZ         0.00000   0.00007   0.00000   0.00192  -0.00003
  68       12D 0       -0.00001   0.00103   0.00008   0.00135  -0.00009
  69       12D+1        0.00000   0.00000   0.00000   0.00000   0.00000
  70       12D-1        0.00012   0.00000   0.00000   0.00007   0.00015
  71       12D+2        0.00000   0.00009  -0.00001  -0.00018   0.00001
  72       12D-2        0.00000   0.00000   0.00000   0.00000   0.00000
  73       13D 0        0.00001  -0.00067   0.00001   0.00256  -0.00006
  74       13D+1        0.00000   0.00000   0.00000   0.00000   0.00000
  75       13D-1       -0.00001   0.00000   0.00000   0.00000  -0.00034
  76       13D+2        0.00000  -0.00005   0.00001  -0.00001   0.00000
  77       13D-2        0.00000   0.00000   0.00000   0.00000   0.00000
  78       14D 0       -0.00001   0.00027  -0.00003  -0.00164  -0.00001
  79       14D+1        0.00000   0.00000   0.00000   0.00000   0.00000
  80       14D-1        0.00013   0.00000   0.00000   0.00016   0.00202
  81       14D+2        0.00000  -0.00008   0.00000  -0.00271   0.00005
  82       14D-2        0.00000   0.00000   0.00000   0.00000   0.00000
  83       15F 0        0.00000   0.00035  -0.00002  -0.00044   0.00002
  84       15F+1        0.00000   0.00000   0.00000   0.00000   0.00000
  85       15F-1        0.00000   0.00000   0.00000  -0.00001   0.00020
  86       15F+2        0.00000   0.00008   0.00000   0.00000   0.00000
  87       15F-2        0.00000   0.00000   0.00000   0.00000   0.00000
  88       15F+3        0.00000   0.00000   0.00000   0.00000   0.00000
  89       15F-3       -0.00001   0.00000   0.00000   0.00000   0.00000
  90       16F 0        0.00001  -0.00051  -0.00001   0.00034   0.00002
  91       16F+1        0.00000   0.00000   0.00000   0.00000   0.00000
  92       16F-1       -0.00002   0.00000   0.00000  -0.00002  -0.00021
  93       16F+2        0.00000  -0.00008   0.00000   0.00088  -0.00002
  94       16F-2        0.00000   0.00000   0.00000   0.00000   0.00000
  95       16F+3        0.00000   0.00000   0.00000   0.00000   0.00000
  96       16F-3        0.00003   0.00000   0.00000   0.00000   0.00023
  97 3   F  1S         -0.69614   0.48205   0.00014  -0.14258   0.15376
  98        2S          0.01121  -0.00680  -0.00001   0.36447  -0.39340
  99        3S         -0.03000   0.02112   0.00001   0.11104  -0.12055
 100        4S          0.00068   0.00125  -0.00003   0.22768  -0.25974
 101        5S         -0.00066   0.00032   0.00004   0.01741  -0.03236
 102        6PX         0.00000   0.00000   0.00000   0.00000   0.00000
 103        6PY        -0.00143   0.00045   0.00000  -0.00464   0.03776
 104        6PZ        -0.00109   0.00001   0.00000  -0.02168   0.00870
 105        7PX         0.00000   0.00000   0.00000   0.00000   0.00000
 106        7PY         0.00016  -0.00072  -0.00001  -0.00144   0.04113
 107        7PZ        -0.00011  -0.00097  -0.00001  -0.02374   0.00683
 108        8PX         0.00000   0.00000   0.00000   0.00000   0.00000
 109        8PY        -0.00067   0.00060   0.00000  -0.01253   0.03438
 110        8PZ        -0.00152  -0.00064  -0.00004  -0.02912   0.00532
 111        9PX         0.00000   0.00000   0.00000   0.00000   0.00000
 112        9PY        -0.00039   0.00008   0.00001  -0.00177  -0.00111
 113        9PZ        -0.00005  -0.00013   0.00001  -0.00058   0.00044
 114       10D 0        0.00000   0.00001   0.00000  -0.00014  -0.00013
 115       10D+1        0.00000   0.00000   0.00000   0.00000   0.00000
 116       10D-1       -0.00001   0.00005   0.00000   0.00064  -0.00043
 117       10D+2        0.00001  -0.00001   0.00000  -0.00065   0.00011
 118       10D-2        0.00000   0.00000   0.00000   0.00000   0.00000
 119       11D 0       -0.00007  -0.00007   0.00000  -0.00081  -0.00092
 120       11D+1        0.00000   0.00000   0.00000   0.00000   0.00000
 121       11D-1        0.00025  -0.00052  -0.00001   0.00349  -0.00394
 122       11D+2       -0.00017   0.00021   0.00000  -0.00333   0.00203
 123       11D-2        0.00000   0.00000   0.00000   0.00000   0.00000
 124       12D 0       -0.00030  -0.00013   0.00000  -0.00149  -0.00121
 125       12D+1        0.00000   0.00000   0.00000   0.00000   0.00000
 126       12D-1       -0.00038  -0.00029  -0.00002  -0.00533   0.00007
 127       12D+2        0.00018  -0.00013  -0.00001   0.00179  -0.00127
 128       12D-2        0.00000   0.00000   0.00000   0.00000   0.00000
 129       13F 0        0.00000  -0.00002   0.00000  -0.00033   0.00012
 130       13F+1        0.00000   0.00000   0.00000   0.00000   0.00000
 131       13F-1        0.00001  -0.00001   0.00000   0.00014  -0.00028
 132       13F+2       -0.00001   0.00001   0.00000  -0.00053   0.00032
 133       13F-2        0.00000   0.00000   0.00000   0.00000   0.00000
 134       13F+3        0.00000   0.00000   0.00000   0.00000   0.00000
 135       13F-3       -0.00006   0.00002   0.00000  -0.00042   0.00004
 136       14F 0       -0.00004   0.00020   0.00001  -0.00035   0.00035
 137       14F+1        0.00000   0.00000   0.00000   0.00000   0.00000
 138       14F-1       -0.00002  -0.00020   0.00000  -0.00022  -0.00086
 139       14F+2       -0.00001   0.00027   0.00000  -0.00073   0.00099
 140       14F-2        0.00000   0.00000   0.00000   0.00000   0.00000
 141       14F+3        0.00000   0.00000   0.00000   0.00000   0.00000
 142       14F-3        0.00013   0.00004   0.00000  -0.00046   0.00063
 143 4   F  1S          0.68792   0.49611   0.00015  -0.15027  -0.14630
 144        2S         -0.01109  -0.00701  -0.00001   0.38404   0.37427
 145        3S          0.02965   0.02174   0.00001   0.11698   0.11467
 146        4S         -0.00077   0.00116  -0.00003   0.23996   0.24739
 147        5S          0.00062   0.00030   0.00004   0.01951   0.03153
 148        6PX         0.00000   0.00000   0.00000   0.00000   0.00000
 149        6PY        -0.00144  -0.00048   0.00000   0.00614   0.03756
 150        6PZ         0.00112   0.00003   0.00000  -0.02222  -0.00756
 151        7PX         0.00000   0.00000   0.00000   0.00000   0.00000
 152        7PY         0.00014   0.00074   0.00001   0.00301   0.04109
 153        7PZ         0.00013  -0.00099  -0.00001  -0.02417  -0.00550
 154        8PX         0.00000   0.00000   0.00000   0.00000   0.00000
 155        8PY        -0.00064  -0.00055  -0.00001   0.01435   0.03400
 156        8PZ         0.00154  -0.00068  -0.00004  -0.02966  -0.00397
 157        9PX         0.00000   0.00000   0.00000   0.00000   0.00000
 158        9PY        -0.00039  -0.00008  -0.00001   0.00161  -0.00118
 159        9PZ         0.00004  -0.00015   0.00001  -0.00062  -0.00040
 160       10D 0        0.00000   0.00001   0.00000  -0.00013   0.00015
 161       10D+1        0.00000   0.00000   0.00000   0.00000   0.00000
 162       10D-1       -0.00001  -0.00005   0.00000  -0.00069  -0.00042
 163       10D+2       -0.00001  -0.00002   0.00000  -0.00068  -0.00008
 164       10D-2        0.00000   0.00000   0.00000   0.00000   0.00000
 165       11D 0        0.00007  -0.00008   0.00000  -0.00075   0.00102
 166       11D+1        0.00000   0.00000   0.00000   0.00000   0.00000
 167       11D-1        0.00024   0.00054   0.00001  -0.00379  -0.00382
 168       11D+2        0.00017   0.00022   0.00000  -0.00349  -0.00186
 169       11D-2        0.00000   0.00000   0.00000   0.00000   0.00000
 170       12D 0        0.00031  -0.00013  -0.00001  -0.00141   0.00128
 171       12D+1        0.00000   0.00000   0.00000   0.00000   0.00000
 172       12D-1       -0.00038   0.00031   0.00002   0.00538  -0.00009
 173       12D+2       -0.00018  -0.00011  -0.00001   0.00195   0.00122
 174       12D-2        0.00000   0.00000   0.00000   0.00000   0.00000
 175       13F 0        0.00000  -0.00002   0.00000  -0.00035  -0.00010
 176       13F+1        0.00000   0.00000   0.00000   0.00000   0.00000
 177       13F-1        0.00000   0.00001   0.00000  -0.00016  -0.00029
 178       13F+2        0.00001   0.00001   0.00000  -0.00056  -0.00030
 179       13F-2        0.00000   0.00000   0.00000   0.00000   0.00000
 180       13F+3        0.00000   0.00000   0.00000   0.00000   0.00000
 181       13F-3       -0.00006  -0.00002   0.00000   0.00043   0.00002
 182       14F 0        0.00004   0.00020   0.00001  -0.00037  -0.00032
 183       14F+1        0.00000   0.00000   0.00000   0.00000   0.00000
 184       14F-1       -0.00002   0.00021   0.00000   0.00016  -0.00087
 185       14F+2        0.00000   0.00027   0.00000  -0.00079  -0.00093
 186       14F-2        0.00000   0.00000   0.00000   0.00000   0.00000
 187       14F+3        0.00000   0.00000   0.00000   0.00000   0.00000
 188       14F-3        0.00013  -0.00004   0.00000   0.00049   0.00060
                          11        12        13        14        15
     Eigenvalues --     1.97420   1.97124   1.97010   1.96730   1.96699
   1 1   C  1S         -0.05454  -0.10342  -0.00037   0.00000   0.00000
   2        2S          0.14751   0.27880   0.00097   0.00000   0.00000
   3        3S          0.03474   0.06866   0.00023   0.00000   0.00000
   4        4S          0.01877   0.14506  -0.00029   0.00000   0.00000
   5        5S         -0.02041   0.04308  -0.00036   0.00000   0.00000
   6        6PX         0.00000   0.00000   0.00000  -0.00897   0.10280
   7        6PY         0.00095   0.00069  -0.05179   0.00000   0.00000
   8        6PZ         0.09105   0.00890   0.00004   0.00000   0.00000
   9        7PX         0.00000   0.00000   0.00000  -0.01083   0.12594
  10        7PY         0.00122   0.00094  -0.07644   0.00000   0.00000
  11        7PZ         0.11670  -0.00434   0.00021   0.00000   0.00000
  12        8PX         0.00000   0.00000   0.00000  -0.00066   0.00558
  13        8PY        -0.00025   0.00022   0.05667   0.00000   0.00000
  14        8PZ        -0.05332   0.03555  -0.00089   0.00000   0.00000
  15        9PX         0.00000   0.00000   0.00000   0.00000  -0.00073
  16        9PY        -0.00005  -0.00002  -0.00054   0.00000   0.00000
  17        9PZ        -0.00748   0.01360  -0.00003   0.00000   0.00000
  18       10D 0       -0.00859   0.01907   0.00026   0.00000   0.00000
  19       10D+1        0.00000   0.00000   0.00000   0.00135  -0.01513
  20       10D-1       -0.00002  -0.00012  -0.00920   0.00000   0.00000
  21       10D+2       -0.00997   0.00262   0.00013   0.00000   0.00000
  22       10D-2        0.00000   0.00000   0.00000  -0.02032  -0.00143
  23       11D 0       -0.01885   0.03186   0.00013   0.00000   0.00000
  24       11D+1        0.00000   0.00000   0.00000   0.00215  -0.02503
  25       11D-1       -0.00024  -0.00020  -0.00670   0.00000   0.00000
  26       11D+2       -0.01819   0.00169   0.00013   0.00000   0.00000
  27       11D-2        0.00000   0.00000   0.00000  -0.03277  -0.00229
  28       12D 0       -0.00411  -0.00414  -0.00038   0.00000   0.00000
  29       12D+1        0.00000   0.00000   0.00000  -0.00008  -0.00218
  30       12D-1       -0.00019  -0.00007   0.01067   0.00000   0.00000
  31       12D+2        0.00070  -0.00026  -0.00002   0.00000   0.00000
  32       12D-2        0.00000   0.00000   0.00000   0.00883   0.00059
  33       13F 0        0.00843   0.00179  -0.00004   0.00000   0.00000
  34       13F+1        0.00000   0.00000   0.00000  -0.00038   0.00420
  35       13F-1       -0.00002   0.00003   0.00934   0.00000   0.00000
  36       13F+2        0.00161   0.00285  -0.00004   0.00000   0.00000
  37       13F-2        0.00000   0.00000   0.00000   0.00878   0.00064
  38       13F+3        0.00000   0.00000   0.00000   0.00061  -0.00779
  39       13F-3       -0.00004  -0.00001   0.00521   0.00000   0.00000
  40       14F 0        0.00686   0.00132  -0.00014   0.00000   0.00000
  41       14F+1        0.00000   0.00000   0.00000   0.00003  -0.00137
  42       14F-1       -0.00039   0.00020   0.01926   0.00000   0.00000
  43       14F+2        0.00688   0.00249  -0.00001   0.00000   0.00000
  44       14F-2        0.00000   0.00000   0.00000   0.00961   0.00054
  45       14F+3        0.00000   0.00000   0.00000   0.00013  -0.00071
  46       14F-3       -0.00009   0.00004   0.00011   0.00000   0.00000
  47 2   S  1S          0.03134   0.04382   0.00033   0.00000   0.00000
  48        2S         -0.12225  -0.16814  -0.00123   0.00000   0.00000
  49        3S          0.24639   0.35425   0.00271   0.00000   0.00000
  50        4S          0.03147   0.04480   0.00034   0.00000   0.00000
  51        5S          0.17181   0.15637   0.00268   0.00000   0.00000
  52        6S          0.02768  -0.05424   0.00039   0.00000   0.00000
  53        7PX         0.00000   0.00000   0.00000  -0.00091   0.01242
  54        7PY         0.00003  -0.00015   0.00328   0.00000   0.00000
  55        7PZ         0.02860   0.03493   0.00019   0.00000   0.00000
  56        8PX         0.00000   0.00000   0.00000   0.00230  -0.03118
  57        8PY         0.00016   0.00031  -0.01969   0.00000   0.00000
  58        8PZ        -0.03278  -0.04135  -0.00043   0.00000   0.00000
  59        9PX         0.00000   0.00000   0.00000   0.00103  -0.01405
  60        9PY        -0.00006   0.00017  -0.00157   0.00000   0.00000
  61        9PZ        -0.01813  -0.02390  -0.00012   0.00000   0.00000
  62       10PX         0.00000   0.00000   0.00000   0.00235  -0.02733
  63       10PY         0.00029   0.00025  -0.02319   0.00000   0.00000
  64       10PZ        -0.01458   0.03231  -0.00046   0.00000   0.00000
  65       11PX         0.00000   0.00000   0.00000   0.00036  -0.00415
  66       11PY         0.00002   0.00001   0.00451   0.00000   0.00000
  67       11PZ        -0.00073   0.00940  -0.00003   0.00000   0.00000
  68       12D 0        0.00550   0.00941   0.00007   0.00000   0.00000
  69       12D+1        0.00000   0.00000   0.00000   0.00061  -0.00814
  70       12D-1       -0.00027   0.00000   0.01993   0.00000   0.00000
  71       12D+2       -0.00239   0.00188  -0.00001   0.00000   0.00000
  72       12D-2        0.00000   0.00000   0.00000  -0.00421  -0.00029
  73       13D 0        0.01640   0.01842   0.00011   0.00000   0.00000
  74       13D+1        0.00000   0.00000   0.00000   0.00040  -0.00468
  75       13D-1       -0.00005  -0.00004   0.00791   0.00000   0.00000
  76       13D+2       -0.00083   0.00158   0.00000   0.00000   0.00000
  77       13D-2        0.00000   0.00000   0.00000  -0.00127  -0.00011
  78       14D 0       -0.00193  -0.01046   0.00000   0.00000   0.00000
  79       14D+1        0.00000   0.00000   0.00000   0.00007  -0.00262
  80       14D-1       -0.00016  -0.00005   0.01323   0.00000   0.00000
  81       14D+2       -0.00077  -0.00063  -0.00001   0.00000   0.00000
  82       14D-2        0.00000   0.00000   0.00000  -0.00475  -0.00033
  83       15F 0       -0.00510  -0.00697  -0.00004   0.00000   0.00000
  84       15F+1        0.00000   0.00000   0.00000  -0.00015   0.00182
  85       15F-1        0.00005   0.00001  -0.00513   0.00000   0.00000
  86       15F+2        0.00073  -0.00061   0.00000   0.00000   0.00000
  87       15F-2        0.00000   0.00000   0.00000   0.00136   0.00010
  88       15F+3        0.00000   0.00000   0.00000   0.00003  -0.00035
  89       15F-3        0.00000   0.00000   0.00027   0.00000   0.00000
  90       16F 0        0.00675   0.00101   0.00004   0.00000   0.00000
  91       16F+1        0.00000   0.00000   0.00000  -0.00013   0.00198
  92       16F-1        0.00008  -0.00001  -0.00188   0.00000   0.00000
  93       16F+2       -0.00040  -0.00053   0.00000   0.00000   0.00000
  94       16F-2        0.00000   0.00000   0.00000   0.00334   0.00021
  95       16F+3        0.00000   0.00000   0.00000  -0.00004   0.00034
  96       16F-3        0.00000   0.00000  -0.00037   0.00000   0.00000
  97 3   F  1S         -0.00058   0.02771   0.01602   0.00000   0.00000
  98        2S         -0.00001  -0.07813  -0.04187   0.00000   0.00000
  99        3S          0.00032  -0.02651  -0.01399   0.00000   0.00000
 100        4S         -0.01297  -0.10215  -0.04011   0.00000   0.00000
 101        5S         -0.01512  -0.01918   0.00711   0.00000   0.00000
 102        6PX         0.00000   0.00000   0.00000   0.25585   0.27194
 103        6PY        -0.11036   0.15504  -0.15526   0.00000   0.00000
 104        6PZ         0.17943  -0.06412   0.23054   0.00000   0.00000
 105        7PX         0.00000   0.00000   0.00000   0.31140   0.33174
 106        7PY        -0.13467   0.18578  -0.18859   0.00000   0.00000
 107        7PZ         0.21614  -0.07931   0.27843   0.00000   0.00000
 108        8PX         0.00000   0.00000   0.00000   0.21819   0.22894
 109        8PY        -0.09102   0.10209  -0.14971   0.00000   0.00000
 110        8PZ         0.14718  -0.07479   0.18794   0.00000   0.00000
 111        9PX         0.00000   0.00000   0.00000   0.02604   0.01917
 112        9PY        -0.01246   0.00556  -0.01250   0.00000   0.00000
 113        9PZ         0.01067  -0.01438   0.02323   0.00000   0.00000
 114       10D 0        0.00240  -0.00121   0.00231   0.00000   0.00000
 115       10D+1        0.00000   0.00000   0.00000   0.00159   0.00199
 116       10D-1        0.00141   0.00161   0.00118   0.00000   0.00000
 117       10D+2        0.00135  -0.00237   0.00075   0.00000   0.00000
 118       10D-2        0.00000   0.00000   0.00000   0.00188   0.00315
 119       11D 0        0.00854  -0.00506   0.00856   0.00000   0.00000
 120       11D+1        0.00000   0.00000   0.00000   0.00651   0.00838
 121       11D-1        0.00373   0.00356   0.00416   0.00000   0.00000
 122       11D+2        0.00506  -0.00743   0.00347   0.00000   0.00000
 123       11D-2        0.00000   0.00000   0.00000   0.00860   0.01291
 124       12D 0        0.00564  -0.00326   0.00733   0.00000   0.00000
 125       12D+1        0.00000   0.00000   0.00000   0.00435   0.00463
 126       12D-1        0.00341  -0.00279  -0.00180   0.00000   0.00000
 127       12D+2       -0.00019  -0.00027   0.00907   0.00000   0.00000
 128       12D-2        0.00000   0.00000   0.00000   0.00511   0.00837
 129       13F 0        0.00040  -0.00080   0.00062   0.00000   0.00000
 130       13F+1        0.00000   0.00000   0.00000   0.00025   0.00031
 131       13F-1        0.00167  -0.00042   0.00173   0.00000   0.00000
 132       13F+2        0.00002  -0.00101   0.00000   0.00000   0.00000
 133       13F-2        0.00000   0.00000   0.00000   0.00136   0.00177
 134       13F+3        0.00000   0.00000   0.00000  -0.00073  -0.00157
 135       13F-3        0.00075  -0.00087   0.00031   0.00000   0.00000
 136       14F 0        0.00192  -0.00114   0.00069   0.00000   0.00000
 137       14F+1        0.00000   0.00000   0.00000   0.00068   0.00036
 138       14F-1        0.00222  -0.00157   0.00293   0.00000   0.00000
 139       14F+2        0.00033  -0.00094  -0.00021   0.00000   0.00000
 140       14F-2        0.00000   0.00000   0.00000   0.00244   0.00316
 141       14F+3        0.00000   0.00000   0.00000  -0.00240  -0.00229
 142       14F-3        0.00043  -0.00131   0.00151   0.00000   0.00000
 143 4   F  1S         -0.00028   0.02770  -0.01575   0.00000   0.00000
 144        2S         -0.00089  -0.07834   0.04120   0.00000   0.00000
 145        3S          0.00002  -0.02664   0.01379   0.00000   0.00000
 146        4S         -0.01409  -0.10429   0.03975   0.00000   0.00000
 147        5S         -0.01574  -0.01997  -0.00776   0.00000   0.00000
 148        6PX         0.00000   0.00000   0.00000  -0.29443   0.22920
 149        6PY         0.11187  -0.15728  -0.15527   0.00000   0.00000
 150        6PZ         0.18124  -0.06095  -0.22922   0.00000   0.00000
 151        7PX         0.00000   0.00000   0.00000  -0.35863   0.27980
 152        7PY         0.13656  -0.18848  -0.18867   0.00000   0.00000
 153        7PZ         0.21834  -0.07559  -0.27692   0.00000   0.00000
 154        8PX         0.00000   0.00000   0.00000  -0.24961   0.19146
 155        8PY         0.09186  -0.10260  -0.14938   0.00000   0.00000
 156        8PZ         0.14749  -0.07246  -0.18608   0.00000   0.00000
 157        9PX         0.00000   0.00000   0.00000  -0.02836   0.01465
 158        9PY         0.01261  -0.00540  -0.01221   0.00000   0.00000
 159        9PZ         0.01051  -0.01424  -0.02321   0.00000   0.00000
 160       10D 0        0.00248  -0.00121  -0.00235   0.00000   0.00000
 161       10D+1        0.00000   0.00000   0.00000  -0.00193   0.00177
 162       10D-1       -0.00143  -0.00171   0.00117   0.00000   0.00000
 163       10D+2        0.00138  -0.00242  -0.00077   0.00000   0.00000
 164       10D-2        0.00000   0.00000   0.00000   0.00238  -0.00288
 165       11D 0        0.00878  -0.00506  -0.00872   0.00000   0.00000
 166       11D+1        0.00000   0.00000   0.00000  -0.00792   0.00743
 167       11D-1       -0.00377  -0.00385   0.00412   0.00000   0.00000
 168       11D+2        0.00513  -0.00759  -0.00354   0.00000   0.00000
 169       11D-2        0.00000   0.00000   0.00000   0.01061  -0.01155
 170       12D 0        0.00542  -0.00306  -0.00721   0.00000   0.00000
 171       12D+1        0.00000   0.00000   0.00000  -0.00491   0.00380
 172       12D-1       -0.00323   0.00277  -0.00200   0.00000   0.00000
 173       12D+2       -0.00029  -0.00011  -0.00898   0.00000   0.00000
 174       12D-2        0.00000   0.00000   0.00000   0.00609  -0.00717
 175       13F 0        0.00043  -0.00083  -0.00065   0.00000   0.00000
 176       13F+1        0.00000   0.00000   0.00000  -0.00032   0.00029
 177       13F-1       -0.00172   0.00039   0.00175   0.00000   0.00000
 178       13F+2        0.00003  -0.00105  -0.00001   0.00000   0.00000
 179       13F-2        0.00000   0.00000   0.00000   0.00166  -0.00158
 180       13F+3        0.00000   0.00000   0.00000   0.00098  -0.00147
 181       13F-3       -0.00076   0.00089   0.00033   0.00000   0.00000
 182       14F 0        0.00195  -0.00116  -0.00070   0.00000   0.00000
 183       14F+1        0.00000   0.00000   0.00000  -0.00075   0.00027
 184       14F-1       -0.00221   0.00149   0.00292   0.00000   0.00000
 185       14F+2        0.00032  -0.00100   0.00019   0.00000   0.00000
 186       14F-2        0.00000   0.00000   0.00000   0.00289  -0.00272
 187       14F+3        0.00000   0.00000   0.00000   0.00267  -0.00185
 188       14F-3       -0.00042   0.00131   0.00150   0.00000   0.00000
                          16        17        18        19        20
     Eigenvalues --     1.96309   1.95925   1.94253   1.93939   1.91730
   1 1   C  1S         -0.08075   0.00463   0.07755   0.00084   0.00000
   2        2S          0.21109  -0.01263  -0.23096  -0.00248   0.00000
   3        3S          0.05525  -0.00311  -0.05928  -0.00072   0.00000
   4        4S          0.09356  -0.00652  -0.16662  -0.00110   0.00000
   5        5S         -0.02022   0.00087  -0.02280  -0.00020   0.00000
   6        6PX         0.00000   0.00000   0.00000   0.00000   0.18121
   7        6PY         0.00963   0.19239  -0.00079   0.03385   0.00000
   8        6PZ        -0.13732   0.00523  -0.18039  -0.00149   0.00000
   9        7PX         0.00000   0.00000   0.00000   0.00000   0.25397
  10        7PY         0.01132   0.23325  -0.00118   0.04837   0.00000
  11        7PZ        -0.17112   0.00710  -0.22278  -0.00211   0.00000
  12        8PX         0.00000   0.00000   0.00000   0.00000   0.13695
  13        8PY         0.00229   0.05628  -0.00105   0.04979   0.00000
  14        8PZ        -0.01428   0.00060  -0.06754  -0.00053   0.00000
  15        9PX         0.00000   0.00000   0.00000   0.00000   0.02116
  16        9PY        -0.00012   0.00000   0.00001  -0.00356   0.00000
  17        9PZ        -0.00556   0.00027  -0.00566  -0.00012   0.00000
  18       10D 0       -0.00742   0.00041  -0.01002  -0.00010   0.00000
  19       10D+1        0.00000   0.00000   0.00000   0.00000   0.01564
  20       10D-1       -0.00147  -0.02667  -0.00014   0.02078   0.00000
  21       10D+2       -0.01490   0.00073  -0.00770  -0.00009   0.00000
  22       10D-2        0.00000   0.00000   0.00000   0.00000  -0.00003
  23       11D 0       -0.01916   0.00123  -0.01802  -0.00021   0.00000
  24       11D+1        0.00000   0.00000   0.00000   0.00000   0.04783
  25       11D-1       -0.00298  -0.05796  -0.00027   0.05095   0.00000
  26       11D+2       -0.03595   0.00198  -0.01940  -0.00032   0.00000
  27       11D-2        0.00000   0.00000   0.00000   0.00000  -0.00014
  28       12D 0        0.00262  -0.00012  -0.00600   0.00015   0.00000
  29       12D+1        0.00000   0.00000   0.00000   0.00000   0.01877
  30       12D-1       -0.00026  -0.00399   0.00041  -0.02368   0.00000
  31       12D+2        0.00433  -0.00018  -0.00246   0.00003   0.00000
  32       12D-2        0.00000   0.00000   0.00000   0.00000   0.00003
  33       13F 0        0.00209  -0.00014  -0.00395  -0.00006   0.00000
  34       13F+1        0.00000   0.00000   0.00000   0.00000   0.00669
  35       13F-1        0.00043   0.00788  -0.00009   0.00706   0.00000
  36       13F+2        0.00537  -0.00027   0.00173   0.00002   0.00000
  37       13F-2        0.00000   0.00000   0.00000   0.00000   0.00001
  38       13F+3        0.00000   0.00000   0.00000   0.00000   0.00044
  39       13F-3       -0.00010  -0.00251  -0.00001   0.00205   0.00000
  40       14F 0        0.00999  -0.00077   0.00127   0.00005   0.00000
  41       14F+1        0.00000   0.00000   0.00000   0.00000   0.00050
  42       14F-1        0.00078   0.01880  -0.00004  -0.00034   0.00000
  43       14F+2        0.01068  -0.00077   0.00036   0.00002   0.00000
  44       14F-2        0.00000   0.00000   0.00000   0.00000   0.00013
  45       14F+3        0.00000   0.00000   0.00000   0.00000   0.00397
  46       14F-3       -0.00011  -0.00209   0.00003   0.00038   0.00000
  47 2   S  1S         -0.03671   0.00171   0.02966   0.00022   0.00000
  48        2S          0.14002  -0.00648  -0.11382  -0.00085   0.00000
  49        3S         -0.30276   0.01428   0.26192   0.00188   0.00000
  50        4S         -0.04156   0.00206   0.03778   0.00025   0.00000
  51        5S         -0.18941   0.00953   0.32686   0.00248   0.00000
  52        6S          0.01570  -0.00051   0.05494   0.00076   0.00000
  53        7PX         0.00000   0.00000   0.00000   0.00000  -0.18882
  54        7PY        -0.00046  -0.01381   0.00200  -0.21580   0.00000
  55        7PZ        -0.01020  -0.00032  -0.17377  -0.00153   0.00000
  56        8PX         0.00000   0.00000   0.00000   0.00000   0.43290
  57        8PY         0.00089   0.02765  -0.00486   0.52210   0.00000
  58        8PZ         0.00718   0.00129   0.35940   0.00310   0.00000
  59        9PX         0.00000   0.00000   0.00000   0.00000   0.17779
  60        9PY         0.00048   0.01417  -0.00205   0.21968   0.00000
  61        9PZ         0.00539   0.00041   0.16453   0.00144   0.00000
  62       10PX         0.00000   0.00000   0.00000   0.00000   0.23856
  63       10PY         0.00013   0.00382  -0.00339   0.37002   0.00000
  64       10PZ         0.00204   0.00020   0.09592   0.00070   0.00000
  65       11PX         0.00000   0.00000   0.00000   0.00000   0.00071
  66       11PY         0.00009   0.00055  -0.00024   0.02724   0.00000
  67       11PZ        -0.00305   0.00007  -0.00445  -0.00008   0.00000
  68       12D 0       -0.00071  -0.00028  -0.02730  -0.00023   0.00000
  69       12D+1        0.00000   0.00000   0.00000   0.00000  -0.03387
  70       12D-1       -0.00024  -0.00512   0.00017  -0.01335   0.00000
  71       12D+2       -0.00148   0.00012  -0.00083  -0.00007   0.00000
  72       12D-2        0.00000   0.00000   0.00000   0.00000  -0.00001
  73       13D 0       -0.00663  -0.00001  -0.04845  -0.00046   0.00000
  74       13D+1        0.00000   0.00000   0.00000   0.00000  -0.03411
  75       13D-1       -0.00035  -0.00866   0.00018  -0.01491   0.00000
  76       13D+2       -0.00100   0.00004  -0.00096  -0.00003   0.00000
  77       13D-2        0.00000   0.00000   0.00000   0.00000   0.00001
  78       14D 0        0.00148  -0.00006   0.00511   0.00004   0.00000
  79       14D+1        0.00000   0.00000   0.00000   0.00000  -0.00479
  80       14D-1        0.00001   0.00182   0.00017  -0.01782   0.00000
  81       14D+2       -0.00082   0.00004  -0.00194  -0.00012   0.00000
  82       14D-2        0.00000   0.00000   0.00000   0.00000   0.00003
  83       15F 0        0.00408  -0.00007   0.01573   0.00013   0.00000
  84       15F+1        0.00000   0.00000   0.00000   0.00000   0.01205
  85       15F-1        0.00012   0.00312  -0.00009   0.00819   0.00000
  86       15F+2        0.00019  -0.00001   0.00213   0.00002   0.00000
  87       15F-2        0.00000   0.00000   0.00000   0.00000   0.00001
  88       15F+3        0.00000   0.00000   0.00000   0.00000   0.00240
  89       15F-3        0.00000   0.00010  -0.00002   0.00261   0.00000
  90       16F 0       -0.00187   0.00009  -0.00537  -0.00005   0.00000
  91       16F+1        0.00000   0.00000   0.00000   0.00000  -0.00063
  92       16F-1        0.00001  -0.00060  -0.00002   0.00231   0.00000
  93       16F+2        0.00067  -0.00007   0.00079   0.00004   0.00000
  94       16F-2        0.00000   0.00000   0.00000   0.00000   0.00001
  95       16F+3        0.00000   0.00000   0.00000   0.00000   0.00186
  96       16F-3        0.00006   0.00139  -0.00003   0.00237   0.00000
  97 3   F  1S          0.00666   0.00828  -0.01334  -0.01579   0.00000
  98        2S         -0.02514  -0.01205   0.03701   0.04312   0.00000
  99        3S         -0.01148   0.00068   0.01069   0.01353   0.00000
 100        4S         -0.09396   0.08450   0.01995   0.03702   0.00000
 101        5S         -0.01924   0.03688  -0.00631   0.05534   0.00000
 102        6PX         0.00000   0.00000   0.00000   0.00000  -0.05328
 103        6PY         0.10401  -0.22401   0.02821   0.01966   0.00000
 104        6PZ         0.15949  -0.11440   0.06336   0.05339   0.00000
 105        7PX         0.00000   0.00000   0.00000   0.00000  -0.06445
 106        7PY         0.12568  -0.27180   0.03592   0.02610   0.00000
 107        7PZ         0.19297  -0.13926   0.07864   0.06616   0.00000
 108        8PX         0.00000   0.00000   0.00000   0.00000  -0.06065
 109        8PY         0.05023  -0.14580   0.01606   0.00841   0.00000
 110        8PZ         0.10515  -0.07091   0.05259   0.05352   0.00000
 111        9PX         0.00000   0.00000   0.00000   0.00000  -0.02556
 112        9PY        -0.00498  -0.00841  -0.00003   0.01490   0.00000
 113        9PZ         0.00864   0.00392   0.01061   0.01821   0.00000
 114       10D 0        0.00000  -0.00037  -0.00066  -0.00039   0.00000
 115       10D+1        0.00000   0.00000   0.00000   0.00000   0.00108
 116       10D-1        0.00396  -0.00505   0.00051   0.00043   0.00000
 117       10D+2       -0.00265   0.00305  -0.00098  -0.00022   0.00000
 118       10D-2        0.00000   0.00000   0.00000   0.00000   0.00111
 119       11D 0       -0.00025  -0.00214  -0.00218  -0.00227   0.00000
 120       11D+1        0.00000   0.00000   0.00000   0.00000   0.00386
 121       11D-1        0.01326  -0.01733   0.00309   0.00207   0.00000
 122       11D+2       -0.00870   0.00997  -0.00353  -0.00206   0.00000
 123       11D-2        0.00000   0.00000   0.00000   0.00000   0.00302
 124       12D 0       -0.00190  -0.00485  -0.00340  -0.00043   0.00000
 125       12D+1        0.00000   0.00000   0.00000   0.00000   0.00211
 126       12D-1       -0.00017  -0.00380  -0.00245  -0.00177   0.00000
 127       12D+2       -0.00171   0.00120  -0.00015   0.00236   0.00000
 128       12D-2        0.00000   0.00000   0.00000   0.00000   0.00369
 129       13F 0       -0.00105   0.00124  -0.00036  -0.00027   0.00000
 130       13F+1        0.00000   0.00000   0.00000   0.00000   0.00024
 131       13F-1        0.00103  -0.00124  -0.00006   0.00010   0.00000
 132       13F+2       -0.00180   0.00234  -0.00049  -0.00028   0.00000
 133       13F-2        0.00000   0.00000   0.00000   0.00000   0.00054
 134       13F+3        0.00000   0.00000   0.00000   0.00000  -0.00036
 135       13F-3       -0.00100   0.00100  -0.00055  -0.00010   0.00000
 136       14F 0       -0.00151   0.00127  -0.00133  -0.00093   0.00000
 137       14F+1        0.00000   0.00000   0.00000   0.00000   0.00051
 138       14F-1        0.00078  -0.00324   0.00001  -0.00066   0.00000
 139       14F+2       -0.00293   0.00357  -0.00136  -0.00032   0.00000
 140       14F-2        0.00000   0.00000   0.00000   0.00000   0.00055
 141       14F+3        0.00000   0.00000   0.00000   0.00000  -0.00018
 142       14F-3       -0.00147   0.00183  -0.00026  -0.00052   0.00000
 143 4   F  1S          0.00581  -0.00927  -0.01355   0.01546   0.00000
 144        2S         -0.02399   0.01545   0.03771  -0.04223   0.00000
 145        3S         -0.01159   0.00078   0.01094  -0.01328   0.00000
 146        4S         -0.10355  -0.07487   0.02084  -0.03654   0.00000
 147        5S         -0.02314  -0.03467  -0.00462  -0.05564   0.00000
 148        6PX         0.00000   0.00000   0.00000   0.00000  -0.05423
 149        6PY        -0.12596  -0.21118  -0.02613   0.01838   0.00000
 150        6PZ         0.17056   0.09922   0.06392  -0.05167   0.00000
 151        7PX         0.00000   0.00000   0.00000   0.00000  -0.06566
 152        7PY        -0.15227  -0.25623  -0.03343   0.02453   0.00000
 153        7PZ         0.20643   0.12090   0.07939  -0.06408   0.00000
 154        8PX         0.00000   0.00000   0.00000   0.00000  -0.06155
 155        8PY        -0.06396  -0.13815  -0.01383   0.00732   0.00000
 156        8PZ         0.11077   0.06061   0.05319  -0.05201   0.00000
 157        9PX         0.00000   0.00000   0.00000   0.00000  -0.02588
 158        9PY         0.00447  -0.00882  -0.00002   0.01470   0.00000
 159        9PZ         0.00809  -0.00476   0.01102  -0.01774   0.00000
 160       10D 0        0.00006   0.00042  -0.00069   0.00038   0.00000
 161       10D+1        0.00000   0.00000   0.00000   0.00000   0.00111
 162       10D-1       -0.00452  -0.00470  -0.00051   0.00043   0.00000
 163       10D+2       -0.00298  -0.00277  -0.00098   0.00020   0.00000
 164       10D-2        0.00000   0.00000   0.00000   0.00000  -0.00113
 165       11D 0        0.00003   0.00236  -0.00223   0.00226   0.00000
 166       11D+1        0.00000   0.00000   0.00000   0.00000   0.00391
 167       11D-1       -0.01514  -0.01607  -0.00308   0.00203   0.00000
 168       11D+2       -0.00974  -0.00900  -0.00353   0.00200   0.00000
 169       11D-2        0.00000   0.00000   0.00000   0.00000  -0.00302
 170       12D 0       -0.00160   0.00511  -0.00344   0.00042   0.00000
 171       12D+1        0.00000   0.00000   0.00000   0.00000   0.00218
 172       12D-1       -0.00002  -0.00366   0.00257  -0.00170   0.00000
 173       12D+2       -0.00182  -0.00083   0.00000  -0.00231   0.00000
 174       12D-2        0.00000   0.00000   0.00000   0.00000  -0.00381
 175       13F 0       -0.00117  -0.00111  -0.00036   0.00027   0.00000
 176       13F+1        0.00000   0.00000   0.00000   0.00000   0.00025
 177       13F-1       -0.00117  -0.00117   0.00007   0.00010   0.00000
 178       13F+2       -0.00205  -0.00215  -0.00048   0.00027   0.00000
 179       13F-2        0.00000   0.00000   0.00000   0.00000  -0.00055
 180       13F+3        0.00000   0.00000   0.00000   0.00000  -0.00037
 181       13F-3        0.00110   0.00087   0.00055  -0.00009   0.00000
 182       14F 0       -0.00163  -0.00109  -0.00134   0.00092   0.00000
 183       14F+1        0.00000   0.00000   0.00000   0.00000   0.00052
 184       14F-1       -0.00113  -0.00320  -0.00001  -0.00066   0.00000
 185       14F+2       -0.00328  -0.00324  -0.00134   0.00030   0.00000
 186       14F-2        0.00000   0.00000   0.00000   0.00000  -0.00056
 187       14F+3        0.00000   0.00000   0.00000   0.00000  -0.00017
 188       14F-3        0.00162   0.00165   0.00023  -0.00052   0.00000
                          21        22        23        24        25
     Eigenvalues --     0.07372   0.04100   0.03910   0.03192   0.01911
   1 1   C  1S          0.00000   0.17481  -0.01666   0.03985   0.03280
   2        2S          0.00000  -0.59677   0.05890  -0.11274  -0.09598
   3        3S          0.00000  -0.21273   0.02196   0.00383  -0.04132
   4        4S          0.00000  -0.64081   0.06984   0.02637   0.07337
   5        5S          0.00000  -0.12199   0.01405   0.02705   0.09406
   6        6PX         0.31797   0.00000   0.00000   0.00000   0.00000
   7        6PY         0.00000   0.03120   0.30200  -0.00692  -0.00117
   8        6PZ         0.00000  -0.05462   0.01520   0.37058   0.05400
   9        7PX         0.44562   0.00000   0.00000   0.00000   0.00000
  10        7PY         0.00000   0.05848   0.58405  -0.01568  -0.00248
  11        7PZ         0.00000  -0.06128   0.02113   0.66836   0.05720
  12        8PX         0.15533   0.00000   0.00000   0.00000   0.00000
  13        8PY         0.00000   0.01086   0.10541  -0.00367  -0.00155
  14        8PZ         0.00000  -0.21894   0.02800   0.27465   0.29609
  15        9PX         0.00814   0.00000   0.00000   0.00000   0.00000
  16        9PY         0.00000   0.00165   0.01571  -0.00026   0.00023
  17        9PZ         0.00000  -0.00742   0.00081  -0.00509   0.03291
  18       10D 0        0.00000  -0.00161   0.00045   0.00931   0.05636
  19       10D+1        0.01636   0.00000   0.00000   0.00000   0.00000
  20       10D-1        0.00000   0.00278   0.03027  -0.00118   0.00006
  21       10D+2        0.00000  -0.00927   0.00103   0.00306   0.04702
  22       10D-2       -0.00005   0.00000   0.00000   0.00000   0.00000
  23       11D 0        0.00000  -0.04584   0.00843   0.07088   0.15522
  24       11D+1        0.07210   0.00000   0.00000   0.00000   0.00000
  25       11D-1        0.00000  -0.00681  -0.06356   0.00133   0.00067
  26       11D+2        0.00000   0.02705  -0.00036   0.06672   0.14489
  27       11D-2        0.00009   0.00000   0.00000   0.00000   0.00000
  28       12D 0        0.00000  -0.05347   0.00623   0.02329   0.01453
  29       12D+1        0.02807   0.00000   0.00000   0.00000   0.00000
  30       12D-1        0.00000  -0.00234  -0.03019   0.00196   0.00098
  31       12D+2        0.00000   0.00664  -0.00052   0.02113   0.02365
  32       12D-2        0.00001   0.00000   0.00000   0.00000   0.00000
  33       13F 0        0.00000  -0.00793   0.00100   0.01381  -0.00209
  34       13F+1        0.01200   0.00000   0.00000   0.00000   0.00000
  35       13F-1        0.00000   0.00320   0.03344  -0.00125  -0.00027
  36       13F+2        0.00000  -0.02165   0.00172  -0.02189   0.01249
  37       13F-2       -0.00006   0.00000   0.00000   0.00000   0.00000
  38       13F+3       -0.00134   0.00000   0.00000   0.00000   0.00000
  39       13F-3        0.00000  -0.00119  -0.01159   0.00023  -0.00001
  40       14F 0        0.00000  -0.02483   0.00190  -0.00872  -0.02672
  41       14F+1        0.02873   0.00000   0.00000   0.00000   0.00000
  42       14F-1        0.00000   0.01150   0.11652  -0.00414   0.00140
  43       14F+2        0.00000  -0.01460   0.00024  -0.04205  -0.02687
  44       14F-2       -0.00021   0.00000   0.00000   0.00000   0.00000
  45       14F+3        0.00938   0.00000   0.00000   0.00000   0.00000
  46       14F-3        0.00000   0.00277   0.02831  -0.00097   0.00053
  47 2   S  1S          0.00000   0.02083  -0.00243  -0.01219   0.01051
  48        2S          0.00000  -0.05640   0.00639   0.02715  -0.05233
  49        3S          0.00000   0.21866  -0.02575  -0.13620   0.09118
  50        4S          0.00000   0.00805  -0.00015   0.02753   0.08142
  51        5S          0.00000   0.52525  -0.06703  -0.51558  -0.37523
  52        6S          0.00000   0.15761  -0.01986  -0.12649  -0.17354
  53        7PX         0.18298   0.00000   0.00000   0.00000   0.00000
  54        7PY         0.00000   0.01054   0.10377  -0.00282  -0.00011
  55        7PZ         0.00000   0.18316  -0.02085  -0.08962   0.03038
  56        8PX        -0.48746   0.00000   0.00000   0.00000   0.00000
  57        8PY         0.00000  -0.02946  -0.29240   0.00866  -0.00052
  58        8PZ         0.00000  -0.61015   0.07382   0.46118   0.02479
  59        9PX        -0.20084   0.00000   0.00000   0.00000   0.00000
  60        9PY         0.00000  -0.01416  -0.14073   0.00395   0.00022
  61        9PZ         0.00000  -0.19913   0.02244   0.08364  -0.04458
  62       10PX        -0.12637   0.00000   0.00000   0.00000   0.00000
  63       10PY         0.00000   0.00291   0.03954  -0.00264  -0.00144
  64       10PZ         0.00000  -0.32336   0.04175   0.34566   0.19247
  65       11PX        -0.00361   0.00000   0.00000   0.00000   0.00000
  66       11PY         0.00000  -0.00026  -0.00200  -0.00008  -0.00027
  67       11PZ         0.00000  -0.02230   0.00288   0.02339   0.02154
  68       12D 0        0.00000  -0.07481   0.00900   0.04958   0.11346
  69       12D+1       -0.05940   0.00000   0.00000   0.00000   0.00000
  70       12D-1        0.00000  -0.01778  -0.18714   0.00658   0.00159
  71       12D+2        0.00000  -0.04589   0.00570   0.02361   0.41039
  72       12D-2       -0.00001   0.00000   0.00000   0.00000   0.00000
  73       13D 0        0.00000  -0.10066   0.01379   0.13675   0.10857
  74       13D+1       -0.07044   0.00000   0.00000   0.00000   0.00000
  75       13D-1        0.00000  -0.01488  -0.15699   0.00565   0.00070
  76       13D+2        0.00000  -0.03214   0.00385   0.01312   0.29175
  77       13D-2       -0.00004   0.00000   0.00000   0.00000   0.00000
  78       14D 0        0.00000   0.04028  -0.00591  -0.06897  -0.03220
  79       14D+1        0.01255   0.00000   0.00000   0.00000   0.00000
  80       14D-1        0.00000  -0.00312  -0.03382   0.00143   0.00046
  81       14D+2        0.00000  -0.00877   0.00113   0.00312   0.02666
  82       14D-2        0.00001   0.00000   0.00000   0.00000   0.00000
  83       15F 0        0.00000   0.01855  -0.00255  -0.02237  -0.02357
  84       15F+1        0.01927   0.00000   0.00000   0.00000   0.00000
[...]
  93       16F+2       -0.02508   0.00406   0.04941   0.00000   0.00001
  94       16F-2        0.00000   0.00000   0.00000  -0.00050   0.00000
  95       16F+3        0.00000   0.00000   0.00000  -0.04406   0.00000
  96       16F-3       -0.01548  -0.07193   0.00483   0.00000   0.00320
  97 3   F  1S         -0.08665  -0.00003  -0.04813   0.00000  -0.09036
  98        2S         -0.36373  -0.04144  -0.20621   0.00000  -0.42476
  99        3S          0.09807  -0.04340   0.05339   0.00000   0.05222
 100        4S          3.09963   0.64822   0.83848   0.00000   3.33178
 101        5S          6.90701   1.06249   7.21573   0.00000  17.53503
 102        6PX         0.00000   0.00000   0.00000   0.01990   0.00000
 103        6PY        -0.00020   0.01228   0.00427   0.00000   0.01316
 104        6PZ        -0.01816   0.00658   0.00238   0.00000   0.00559
 105        7PX         0.00000   0.00000   0.00000  -0.07514   0.00000
 106        7PY         0.05945  -0.07352  -0.03966   0.00000  -0.05362
 107        7PZ         0.13326  -0.05052  -0.02030   0.00000  -0.01625
 108        8PX         0.00000   0.00000   0.00000   0.08007   0.00000
 109        8PY         1.22816   0.93000   0.28155   0.00000   2.60565
 110        8PZ        -0.61185   1.22568  -0.03713   0.00000   0.85864
 111        9PX         0.00000   0.00000   0.00000  -1.16554   0.00000
 112        9PY         0.19478  -1.65830   0.88688   0.00000   4.97640
 113        9PZ        -1.57651   0.55529   4.73195   0.00000   1.69431
 114       10D 0       -0.01379  -0.00679   0.00135   0.00000  -0.00298
 115       10D+1        0.00000   0.00000   0.00000  -0.01462   0.00000
 116       10D-1       -0.00138  -0.00496   0.02677   0.00000  -0.00022
 117       10D+2        0.04122   0.01884   0.00450   0.00000  -0.00329
 118       10D-2        0.00000   0.00000   0.00000  -0.00462   0.00000
 119       11D 0        0.03329   0.01765   0.00063   0.00000   0.00873
 120       11D+1        0.00000   0.00000   0.00000   0.05464   0.00000
 121       11D-1        0.02212   0.04010  -0.09513   0.00000   0.03560
 122       11D+2       -0.16281  -0.06532  -0.00955   0.00000  -0.01926
 123       11D-2        0.00000   0.00000   0.00000   0.01756   0.00000
 124       12D 0       -0.61534   0.16362  -0.13118   0.00000  -0.44055
 125       12D+1        0.00000   0.00000   0.00000  -0.18097   0.00000
 126       12D-1        0.12195   0.38024   0.09166   0.00000   0.44585
 127       12D+2        0.29471  -0.10971  -0.00580   0.00000  -0.51356
 128       12D-2        0.00000   0.00000   0.00000  -0.09575   0.00000
 129       13F 0        0.02081   0.01738   0.00297   0.00000   0.01012
 130       13F+1        0.00000   0.00000   0.00000  -0.00943   0.00000
 131       13F-1       -0.00364  -0.01536   0.02790   0.00000   0.00916
 132       13F+2        0.02741   0.01469  -0.02309   0.00000   0.00328
 133       13F-2        0.00000   0.00000   0.00000   0.00888   0.00000
 134       13F+3        0.00000   0.00000   0.00000   0.00008   0.00000
 135       13F-3       -0.02747   0.02016   0.00707   0.00000  -0.00491
 136       14F 0       -0.08850  -0.04880  -0.00346   0.00000  -0.06566
 137       14F+1        0.00000   0.00000   0.00000   0.01471   0.00000
 138       14F-1       -0.02306   0.05885  -0.05838   0.00000  -0.02428
 139       14F+2       -0.06731  -0.06799   0.04361   0.00000  -0.05543
 140       14F-2        0.00000   0.00000   0.00000  -0.01013   0.00000
 141       14F+3        0.00000   0.00000   0.00000  -0.00083   0.00000
 142       14F-3        0.07170  -0.05958  -0.01788   0.00000  -0.02294
 143 4   F  1S         -0.01002  -0.00478  -0.04716   0.00000   0.09014
 144        2S         -0.05459   0.02090  -0.20810   0.00000   0.42174
 145        3S         -0.00467   0.04866   0.04609   0.00000  -0.05467
 146        4S         -0.14883  -0.49906   0.91397   0.00000  -3.26676
 147        5S         -5.65619   0.12985   7.23195   0.00000 -17.28107
 148        6PX         0.00000   0.00000   0.00000   0.01973   0.00000
 149        6PY         0.00401   0.01088  -0.00574   0.00000   0.01217
 150        6PZ         0.02366  -0.00572   0.00342   0.00000  -0.00507
 151        7PX         0.00000   0.00000   0.00000  -0.07467   0.00000
 152        7PY         0.01922  -0.06592   0.04927   0.00000  -0.04792
 153        7PZ        -0.16144   0.04637  -0.02852   0.00000   0.01343
 154        8PX         0.00000   0.00000   0.00000   0.07757   0.00000
 155        8PY         0.08582   0.87765  -0.40918   0.00000   2.52920
 156        8PZ         2.75235  -1.21647   0.13439   0.00000  -0.78184
 157        9PX         0.00000   0.00000   0.00000  -1.16433   0.00000
 158        9PY        -0.35176  -1.78872  -0.59001   0.00000   4.91881
 159        9PZ         1.93202   0.13815   4.82944   0.00000  -1.69177
 160       10D 0        0.02111   0.00659   0.00078   0.00000   0.00267
 161       10D+1        0.00000   0.00000   0.00000  -0.01458   0.00000
 162       10D-1       -0.01406  -0.00950  -0.02539   0.00000  -0.00007
 163       10D+2       -0.05239  -0.01835   0.00691   0.00000   0.00276
 164       10D-2        0.00000   0.00000   0.00000   0.00435   0.00000
 165       11D 0       -0.06326  -0.01633   0.00184   0.00000  -0.00758
 166       11D+1        0.00000   0.00000   0.00000   0.05477   0.00000
 167       11D-1        0.03841   0.05599   0.08759   0.00000   0.03380
 168       11D+2        0.18358   0.06506  -0.01779   0.00000   0.02042
 169       11D-2        0.00000   0.00000   0.00000  -0.01703   0.00000
 170       12D 0        0.94318  -0.18474  -0.10753   0.00000   0.44793
 171       12D+1        0.00000   0.00000   0.00000  -0.18147   0.00000
 172       12D-1       -0.76136   0.36569  -0.13909   0.00000   0.42817
 173       12D+2       -0.37983   0.11605  -0.02706   0.00000   0.50039
 174       12D-2        0.00000   0.00000   0.00000   0.09461   0.00000
 175       13F 0        0.00560  -0.01622   0.00550   0.00000  -0.00996
 176       13F+1        0.00000   0.00000   0.00000  -0.00926   0.00000
 177       13F-1        0.00322  -0.01922  -0.02571   0.00000   0.00959
 178       13F+2       -0.02805  -0.01821  -0.02081   0.00000  -0.00313
 179       13F-2        0.00000   0.00000   0.00000  -0.00892   0.00000
 180       13F+3        0.00000   0.00000   0.00000  -0.00010   0.00000
 181       13F-3       -0.00841   0.01937  -0.01030   0.00000  -0.00405
 182       14F 0        0.00590   0.04738  -0.01053   0.00000   0.06505
 183       14F+1        0.00000   0.00000   0.00000   0.01449   0.00000
 184       14F-1       -0.07154   0.06733   0.05053   0.00000  -0.02597
 185       14F+2        0.02095   0.07624   0.03374   0.00000   0.05400
 186       14F-2        0.00000   0.00000   0.00000   0.00986   0.00000
 187       14F+3        0.00000   0.00000   0.00000  -0.00075   0.00000
 188       14F-3        0.02990  -0.05900   0.02735   0.00000  -0.02387
                         186       187       188
     Eigenvalues --     0.00000   0.00000   0.00000
   1 1   C  1S         -0.07572  -0.07191   0.00299
   2        2S         -0.36876  -0.39236  -0.02886
   3        3S          0.23825   0.15563  -0.01393
   4        4S        -13.14686 -14.90524 -13.69902
   5        5S         -4.56214  -9.43696 -21.66657
   6        6PX         0.00000   0.00000   0.00000
   7        6PY         0.00088   0.00027  -0.00044
   8        6PZ        -0.01249   0.00212  -0.00948
   9        7PX         0.00000   0.00000   0.00000
  10        7PY        -0.04483  -0.02975  -0.00629
  11        7PZ         0.74871   0.40665   0.28810
  12        8PX         0.00000   0.00000   0.00000
  13        8PY        -0.18537  -0.14262   0.02143
  14        8PZ         1.75412  -2.47305  -7.43843
  15        9PX         0.00000   0.00000   0.00000
  16        9PY        -0.00262   0.00477  -0.00811
  17        9PZ         3.85037  -3.28536  -4.19501
  18       10D 0        0.01904   0.01247   0.01172
  19       10D+1        0.00000   0.00000   0.00000
  20       10D-1        0.00124   0.00067   0.00075
  21       10D+2       -0.03199   0.01444   0.03527
  22       10D-2        0.00000   0.00000   0.00000
  23       11D 0        0.04709  -0.63150  -0.23686
  24       11D+1        0.00000   0.00000   0.00000
  25       11D-1        0.02603   0.02647  -0.00177
  26       11D+2        1.16309   0.56998   0.11198
  27       11D-2        0.00000   0.00000   0.00000
  28       12D 0       -0.99093  -1.54071  -1.56353
  29       12D+1        0.00000   0.00000   0.00000
  30       12D-1        0.06196   0.11859   0.00839
  31       12D+2        0.70186   0.86353   0.30807
  32       12D-2        0.00000   0.00000   0.00000
  33       13F 0       -0.05592  -0.02742  -0.00790
  34       13F+1        0.00000   0.00000   0.00000
  35       13F-1       -0.00005  -0.00097  -0.00027
  36       13F+2       -0.06623  -0.04242  -0.01420
  37       13F-2        0.00000   0.00000   0.00000
  38       13F+3        0.00000   0.00000   0.00000
  39       13F-3        0.00067   0.00020  -0.00010
  40       14F 0       -0.69234  -0.30541  -0.13521
  41       14F+1        0.00000   0.00000   0.00000
  42       14F-1       -0.00309  -0.01006   0.01047
  43       14F+2       -0.40715  -0.08353   0.02748
  44       14F-2        0.00000   0.00000   0.00000
  45       14F+3        0.00000   0.00000   0.00000
  46       14F-3        0.00193  -0.00169   0.00120
  47 2   S  1S          0.00849  -0.00217  -0.00695
  48        2S          0.12970  -0.02206  -0.08132
  49        3S          0.37161  -0.09179  -0.28647
  50        4S         -0.03524  -0.10740  -0.09482
  51        5S          2.66559   7.51925   7.34724
  52        6S          0.39133   5.78771  23.42893
  53        7PX         0.00000   0.00000   0.00000
  54        7PY         0.00021   0.00044  -0.00015
  55        7PZ        -0.02683  -0.04817  -0.00025
  56        8PX         0.00000   0.00000   0.00000
  57        8PY         0.00373   0.00875  -0.00406
  58        8PZ        -0.64561  -1.16927  -0.13442
  59        9PX         0.00000   0.00000   0.00000
  60        9PY        -0.00082  -0.00139   0.00032
  61        9PZ         0.03944   0.12804  -0.02002
  62       10PX         0.00000   0.00000   0.00000
  63       10PY        -0.01900  -0.07670  -0.01612
  64       10PZ        -1.59485  -4.11764  -9.55958
  65       11PX         0.00000   0.00000   0.00000
  66       11PY        -0.01493  -0.01882   0.00726
  67       11PZ        -1.54248   1.60655  -4.98247
  68       12D 0        0.09640   1.04012   0.44279
  69       12D+1        0.00000   0.00000   0.00000
  70       12D-1       -0.00375  -0.00178   0.00630
  71       12D+2        0.09861  -0.05213  -0.01721
  72       12D-2        0.00000   0.00000   0.00000
  73       13D 0        0.05409  -0.08507  -0.02066
  74       13D+1        0.00000   0.00000   0.00000
  75       13D-1        0.00096   0.00017  -0.00027
  76       13D+2       -0.01967   0.00660   0.00132
  77       13D-2        0.00000   0.00000   0.00000
  78       14D 0        0.74129  -0.39462   2.71714
  79       14D+1        0.00000   0.00000   0.00000
  80       14D-1        0.00913   0.03519   0.00516
  81       14D+2       -0.28183   0.02626  -0.05492
  82       14D-2        0.00000   0.00000   0.00000
  83       15F 0       -0.01267  -0.06062   0.03553
  84       15F+1        0.00000   0.00000   0.00000
  85       15F-1       -0.00093  -0.00008   0.00005
  86       15F+2       -0.01864   0.01516   0.00163
  87       15F-2        0.00000   0.00000   0.00000
  88       15F+3        0.00000   0.00000   0.00000
  89       15F-3       -0.00019   0.00032  -0.00008
  90       16F 0       -0.05556  -0.03985  -0.31259
  91       16F+1        0.00000   0.00000   0.00000
  92       16F-1        0.00207  -0.00176  -0.00306
  93       16F+2        0.04537  -0.00681   0.01924
  94       16F-2        0.00000   0.00000   0.00000
  95       16F+3        0.00000   0.00000   0.00000
  96       16F-3        0.00054  -0.00038   0.00007
  97 3   F  1S         -0.02246  -0.03215   0.00296
  98        2S         -0.13117  -0.16804   0.00266
  99        3S         -0.01912   0.00003  -0.01572
 100        4S          2.42750   1.42079   0.14868
 101        5S          5.42521   5.48568   1.90253
 102        6PX         0.00000   0.00000   0.00000
 103        6PY         0.00109   0.01071   0.00236
 104        6PZ         0.01010   0.00298   0.00176
 105        7PX         0.00000   0.00000   0.00000
 106        7PY         0.00833  -0.06095  -0.01781
 107        7PZ        -0.02814  -0.02995  -0.02368
 108        8PX         0.00000   0.00000   0.00000
 109        8PY         1.34158   1.35126   0.42124
 110        8PZ         1.60838   1.01048   0.49579
 111        9PX         0.00000   0.00000   0.00000
 112        9PY         0.96628   0.60701  -0.02262
 113        9PZ        -0.97552   1.33789  -0.22975
 114       10D 0       -0.01955   0.00923  -0.00097
 115       10D+1        0.00000   0.00000   0.00000
 116       10D-1       -0.01267  -0.00398   0.00006
 117       10D+2        0.00095  -0.00218   0.00805
 118       10D-2        0.00000   0.00000   0.00000
 119       11D 0        0.07407  -0.04038  -0.00316
 120       11D+1        0.00000   0.00000   0.00000
 121       11D-1        0.08393   0.02636   0.00386
 122       11D+2       -0.01652  -0.00757  -0.02813
 123       11D-2        0.00000   0.00000   0.00000
 124       12D 0        0.02164   0.14584   0.03424
 125       12D+1        0.00000   0.00000   0.00000
 126       12D-1        0.40150   0.37623   0.23654
 127       12D+2       -0.05962  -0.25254  -0.07093
 128       12D-2        0.00000   0.00000   0.00000
 129       13F 0        0.00487   0.00669   0.00754
 130       13F+1        0.00000   0.00000   0.00000
 131       13F-1       -0.01585  -0.00243  -0.00655
 132       13F+2        0.00725   0.00397   0.01451
 133       13F-2        0.00000   0.00000   0.00000
 134       13F+3        0.00000   0.00000   0.00000
 135       13F-3       -0.02180  -0.00099   0.00737
 136       14F 0       -0.03041  -0.02618  -0.03026
 137       14F+1        0.00000   0.00000   0.00000
 138       14F-1        0.07344   0.01712   0.01594
 139       14F+2       -0.04625  -0.04295  -0.04798
 140       14F-2        0.00000   0.00000   0.00000
 141       14F+3        0.00000   0.00000   0.00000
 142       14F-3        0.04734  -0.01712  -0.02331
 143 4   F  1S         -0.02541  -0.03575   0.00218
 144        2S         -0.14521  -0.18484  -0.00089
 145        3S         -0.01770   0.00222  -0.01515
 146        4S          2.57000   1.56097   0.15381
 147        5S          6.01295   6.12374   1.89303
 148        6PX         0.00000   0.00000   0.00000
 149        6PY        -0.00150  -0.01097  -0.00232
 150        6PZ         0.01016   0.00306   0.00178
 151        7PX         0.00000   0.00000   0.00000
 152        7PY        -0.00786   0.06098   0.01773
 153        7PZ        -0.02767  -0.02934  -0.02401
 154        8PX         0.00000   0.00000   0.00000
 155        8PY        -1.40475  -1.43454  -0.41615
 156        8PZ         1.68895   1.05544   0.51787
 157        9PX         0.00000   0.00000   0.00000
 158        9PY        -1.10656  -0.76273   0.03910
 159        9PZ        -0.90988   1.38884  -0.24355
 160       10D 0       -0.01969   0.00892  -0.00097
 161       10D+1        0.00000   0.00000   0.00000
 162       10D-1        0.01266   0.00431   0.00010
 163       10D+2        0.00110  -0.00205   0.00824
 164       10D-2        0.00000   0.00000   0.00000
 165       11D 0        0.07547  -0.03927  -0.00306
 166       11D+1        0.00000   0.00000   0.00000
 167       11D-1       -0.08627  -0.02939  -0.00479
 168       11D+2       -0.01793  -0.00942  -0.02903
 169       11D-2        0.00000   0.00000   0.00000
 170       12D 0        0.03041   0.13605   0.04351
 171       12D+1        0.00000   0.00000   0.00000
 172       12D-1       -0.42201  -0.39039  -0.24209
 173       12D+2       -0.06340  -0.26384  -0.06702
 174       12D-2        0.00000   0.00000   0.00000
 175       13F 0        0.00473   0.00686   0.00740
 176       13F+1        0.00000   0.00000   0.00000
 177       13F-1        0.01625   0.00215   0.00696
 178       13F+2        0.00715   0.00388   0.01443
 179       13F-2        0.00000   0.00000   0.00000
 180       13F+3        0.00000   0.00000   0.00000
 181       13F-3        0.02179   0.00138  -0.00718
 182       14F 0       -0.03041  -0.02782  -0.02995
 183       14F+1        0.00000   0.00000   0.00000
 184       14F-1       -0.07640  -0.01699  -0.01780
 185       14F+2       -0.04762  -0.04446  -0.04835
 186       14F-2        0.00000   0.00000   0.00000
 187       14F+3        0.00000   0.00000   0.00000
 188       14F-3       -0.04688   0.01726   0.02302
          Condensed to atoms (all electrons):
              1          2          3          4
     1  C    5.193549   0.244196   0.111225   0.112107
     2  S    0.244196  15.952874  -0.066896  -0.068434
     3  F    0.111225  -0.066896   9.182238  -0.083910
     4  F    0.112107  -0.068434  -0.083910   9.174764
 Mulliken atomic charges:
              1
     1  C    0.338923
     2  S   -0.061740
     3  F   -0.142657
     4  F   -0.134526
 Sum of Mulliken atomic charges =   0.00000
 Mulliken charges with hydrogens summed into heavy atoms:
              1
     1  C    0.338923
     2  S   -0.061740
     3  F   -0.142657
     4  F   -0.134526
 Sum of Mulliken charges with hydrogens summed into heavy atoms =   0.00000
 Electronic spatial extent (au):  <R**2>=            314.5037
 Charge=              0.0000 electrons
 Dipole moment (field-independent basis, Debye):
    X=              0.0000    Y=              0.0324    Z=             -0.2556  Tot=              0.2577
 Quadrupole moment (field-independent basis, Debye-Ang):
   XX=            -27.2807   YY=            -30.1353   ZZ=            -27.9304
   XY=              0.0000   XZ=              0.0000   YZ=             -0.0473
 Traceless Quadrupole moment (field-independent basis, Debye-Ang):
   XX=              1.1681   YY=             -1.6865   ZZ=              0.5184
   XY=              0.0000   XZ=              0.0000   YZ=             -0.0473
 Octapole moment (field-independent basis, Debye-Ang**2):
  XXX=              0.0000  YYY=              0.2235  ZZZ=              8.6746  XYY=              0.0000
  XXY=              0.0654  XXZ=              0.7135  XZZ=              0.0000  YZZ=              0.1165
  YYZ=              0.7562  XYZ=              0.0000
 Hexadecapole moment (field-independent basis, Debye-Ang**3):
 XXXX=            -28.1535 YYYY=            -95.5470 ZZZZ=           -214.9476 XXXY=              0.0000
 XXXZ=              0.0000 YYYX=              0.0000 YYYZ=             -0.2935 ZZZX=              0.0000
 ZZZY=             -0.3188 XXYY=            -20.6125 XXZZ=            -40.5184 YYZZ=            -55.5077
 XXYZ=             -0.0889 YYXZ=              0.0000 ZZXY=              0.0000
 N-N= 1.546702296828D+02 E-N=-1.820667946309D+03  KE= 6.350169963488D+02
 1\1\GINC-TRAPISTA\SP\RQCISD-FC\Aug-CC-pVTZ\C1F2S1\BRUNS\27-Nov-2021\0\
 \# qcisd/aug-cc-pvtz nosymm density=current output=wfn\\f2cs-wavefunct
 ion\\0,1\C,0,0.,0.,-0.520349\S,0,0.,0.,1.078525\F,0,0.,-1.055221,-1.29
 5538\F,0,0.,1.045221,-1.295538\\Version=EM64L-G09RevB.01\HF=-634.35731
 13\MP2=-635.1962604\MP3=-635.1998187\MP4D=-635.2166572\MP4DQ=-635.1973
 582\MP4SDQ=-635.2081426\QCISD=-635.2072627\RMSD=7.131e-09\Dipole=0.,0.
 0127591,-0.1005771\Quadrupole=0.8684491,-1.2538801,0.385431,0.,0.,-0.0
 351672\PG=CS [SG(C1F2S1)]\\@

 Writing a WFN file to GAUSSIAN.wfn.


 THE BEST WAY TO CONVINCE A FOOL THAT HE IS WRONG 
 IS TO LET HIM HAVE HIS OWN WAY.

                                         JOSH BILLINGS
 Job cpu time:  0 days  2 hours  0 minutes 18.9 seconds.
 File lengths (MBytes):  RWF=  17813 Int=      0 D2E=      0 Chk=      3 Scr=      1
 Normal termination of Gaussian 09 at Sat Nov 27 09:20:44 2021.
