 f2cs-wavefunction
GAUSSIAN            188 MOL ORBITALS    330 PRIMITIVES        4 NUCLEI
  C    1    (CENTRE  1)   0.00000000  0.00000000 -0.96441984  CHARGE =  6.0
  S    2    (CENTRE  2)   0.00000000  0.00000000  2.03811688  CHARGE = 16.0
  F    3    (CENTRE  3)   0.00000000 -1.99407870 -2.44821201  CHARGE =  9.0
  F    4    (CENTRE  4)   0.00000000  1.99407870 -2.44821201  CHARGE =  9.0
CENTRE ASSIGNMENTS    1  1  1  1  1  1  1  1  1  1  1  1  1  1  1  1  1  1  1  1
CENTRE ASSIGNMENTS    1  1  1  1  1  1  1  1  1  1  1  1  1  1  1  1  1  1  1  1
CENTRE ASSIGNMENTS    1  1  1  1  1  1  1  1  1  1  1  1  1  1  1  1  1  1  1  1
CENTRE ASSIGNMENTS    1  1  1  1  1  1  1  1  1  1  1  1  2  2  2  2  2  2  2  2
CENTRE ASSIGNMENTS    2  2  2  2  2  2  2  2  2  2  2  2  2  2  2  2  2  2  2  2
CENTRE ASSIGNMENTS    2  2  2  2  2  2  2  2  2  2  2  2  2  2  2  2  2  2  2  2
CENTRE ASSIGNMENTS    2  2  2  2  2  2  2  2  2  2  2  2  2  2  2  2  2  2  2  2
CENTRE ASSIGNMENTS    2  2  2  2  2  2  2  2  2  2  2  2  2  2  2  2  2  2  2  2
CENTRE ASSIGNMENTS    2  2  2  2  2  2  2  2  2  2  2  2  2  2  2  2  2  2  2  2
CENTRE ASSIGNMENTS    2  2  2  2  2  2  3  3  3  3  3  3  3  3  3  3  3  3  3  3
CENTRE ASSIGNMENTS    3  3  3  3  3  3  3  3  3  3  3  3  3  3  3  3  3  3  3  3
CENTRE ASSIGNMENTS    3  3  3  3  3  3  3  3  3  3  3  3  3  3  3  3  3  3  3  3
CENTRE ASSIGNMENTS    3  3  3  3  3  3  3  3  3  3  3  3  3  3  3  3  3  3  4  4
CENTRE ASSIGNMENTS    4  4  4  4  4  4  4  4  4  4  4  4  4  4  4  4  4  4  4  4
CENTRE ASSIGNMENTS    4  4  4  4  4  4  4  4  4  4  4  4  4  4  4  4  4  4  4  4
CENTRE ASSIGNMENTS    4  4  4  4  4  4  4  4  4  4  4  4  4  4  4  4  4  4  4  4
CENTRE ASSIGNMENTS    4  4  4  4  4  4  4  4  4  4
TYPE ASSIGNMENTS      1  1  1  1  1  1  1  1  1  1  1  1  1  1  1  1  2  2  2  3
TYPE ASSIGNMENTS      3  3  4  4  4  2  3  4  2  3  4  2  3  4  5  6  7  8  9 10
TYPE ASSIGNMENTS      5  6  7  8  9 10  5  6  7  8  9 10 11 12 13 17 14 15 18 19
TYPE ASSIGNMENTS     16 20 11 12 13 17 14 15 18 19 16 20  1  1  1  1  1  1  1  1
TYPE ASSIGNMENTS      1  1  1  1  1  1  1  1  1  1  1  1  1  1  1  1  1  1  1  1
TYPE ASSIGNMENTS      1  1  1  2  2  2  2  2  2  3  3  3  3  3  3  4  4  4  4  4
TYPE ASSIGNMENTS      4  2  2  2  2  2  2  3  3  3  3  3  3  4  4  4  4  4  4  2
TYPE ASSIGNMENTS      3  4  2  3  4  2  3  4  5  6  7  8  9 10  5  6  7  8  9 10
TYPE ASSIGNMENTS      5  6  7  8  9 10 11 12 13 17 14 15 18 19 16 20 11 12 13 17
TYPE ASSIGNMENTS     14 15 18 19 16 20  1  1  1  1  1  1  1  1  1  1  1  1  1  1
TYPE ASSIGNMENTS      1  1  2  2  2  3  3  3  4  4  4  2  3  4  2  3  4  2  3  4
TYPE ASSIGNMENTS      5  6  7  8  9 10  5  6  7  8  9 10  5  6  7  8  9 10 11 12
TYPE ASSIGNMENTS     13 17 14 15 18 19 16 20 11 12 13 17 14 15 18 19 16 20  1  1
TYPE ASSIGNMENTS      1  1  1  1  1  1  1  1  1  1  1  1  1  1  2  2  2  3  3  3
TYPE ASSIGNMENTS      4  4  4  2  3  4  2  3  4  2  3  4  5  6  7  8  9 10  5  6
TYPE ASSIGNMENTS      7  8  9 10  5  6  7  8  9 10 11 12 13 17 14 15 18 19 16 20
TYPE ASSIGNMENTS     11 12 13 17 14 15 18 19 16 20
EXPONENTS  0.8236000D+04 0.1235000D+04 0.2808000D+03 0.7927000D+02 0.2559000D+02
EXPONENTS  0.8997000D+01 0.3319000D+01 0.2808000D+03 0.7927000D+02 0.2559000D+02
EXPONENTS  0.8997000D+01 0.3319000D+01 0.3643000D+00 0.9059000D+00 0.1285000D+00
EXPONENTS  0.4402000D-01 0.1871000D+02 0.4133000D+01 0.1200000D+01 0.1871000D+02
EXPONENTS  0.4133000D+01 0.1200000D+01 0.1871000D+02 0.4133000D+01 0.1200000D+01
EXPONENTS  0.3827000D+00 0.3827000D+00 0.3827000D+00 0.1209000D+00 0.1209000D+00
EXPONENTS  0.1209000D+00 0.3569000D-01 0.3569000D-01 0.3569000D-01 0.1097000D+01
EXPONENTS  0.1097000D+01 0.1097000D+01 0.1097000D+01 0.1097000D+01 0.1097000D+01
EXPONENTS  0.3180000D+00 0.3180000D+00 0.3180000D+00 0.3180000D+00 0.3180000D+00
EXPONENTS  0.3180000D+00 0.1000000D+00 0.1000000D+00 0.1000000D+00 0.1000000D+00
EXPONENTS  0.1000000D+00 0.1000000D+00 0.7610000D+00 0.7610000D+00 0.7610000D+00
EXPONENTS  0.7610000D+00 0.7610000D+00 0.7610000D+00 0.7610000D+00 0.7610000D+00
EXPONENTS  0.7610000D+00 0.7610000D+00 0.2680000D+00 0.2680000D+00 0.2680000D+00
EXPONENTS  0.2680000D+00 0.2680000D+00 0.2680000D+00 0.2680000D+00 0.2680000D+00
EXPONENTS  0.2680000D+00 0.2680000D+00 0.3741000D+06 0.5605000D+05 0.1276000D+05
EXPONENTS  0.3615000D+04 0.1183000D+04 0.4288000D+03 0.1678000D+03 0.6947000D+02
EXPONENTS  0.2984000D+02 0.1272000D+02 0.5244000D+01 0.3615000D+04 0.1183000D+04
EXPONENTS  0.4288000D+03 0.1678000D+03 0.6947000D+02 0.2984000D+02 0.1272000D+02
EXPONENTS  0.5244000D+01 0.2219000D+01 0.1183000D+04 0.1678000D+03 0.6947000D+02
EXPONENTS  0.2984000D+02 0.1272000D+02 0.5244000D+01 0.2219000D+01 0.3490000D+00
EXPONENTS  0.7767000D+00 0.1322000D+00 0.4970000D-01 0.5744000D+03 0.1358000D+03
EXPONENTS  0.4319000D+02 0.1587000D+02 0.6208000D+01 0.2483000D+01 0.5744000D+03
EXPONENTS  0.1358000D+03 0.4319000D+02 0.1587000D+02 0.6208000D+01 0.2483000D+01
EXPONENTS  0.5744000D+03 0.1358000D+03 0.4319000D+02 0.1587000D+02 0.6208000D+01
EXPONENTS  0.2483000D+01 0.1358000D+03 0.4319000D+02 0.1587000D+02 0.6208000D+01
EXPONENTS  0.2483000D+01 0.3229000D+00 0.1358000D+03 0.4319000D+02 0.1587000D+02
EXPONENTS  0.6208000D+01 0.2483000D+01 0.3229000D+00 0.1358000D+03 0.4319000D+02
EXPONENTS  0.1587000D+02 0.6208000D+01 0.2483000D+01 0.3229000D+00 0.8688000D+00
EXPONENTS  0.8688000D+00 0.8688000D+00 0.1098000D+00 0.1098000D+00 0.1098000D+00
EXPONENTS  0.3510000D-01 0.3510000D-01 0.3510000D-01 0.2690000D+00 0.2690000D+00
EXPONENTS  0.2690000D+00 0.2690000D+00 0.2690000D+00 0.2690000D+00 0.8190000D+00
EXPONENTS  0.8190000D+00 0.8190000D+00 0.8190000D+00 0.8190000D+00 0.8190000D+00
EXPONENTS  0.1010000D+00 0.1010000D+00 0.1010000D+00 0.1010000D+00 0.1010000D+00
EXPONENTS  0.1010000D+00 0.5570000D+00 0.5570000D+00 0.5570000D+00 0.5570000D+00
EXPONENTS  0.5570000D+00 0.5570000D+00 0.5570000D+00 0.5570000D+00 0.5570000D+00
EXPONENTS  0.5570000D+00 0.2180000D+00 0.2180000D+00 0.2180000D+00 0.2180000D+00
EXPONENTS  0.2180000D+00 0.2180000D+00 0.2180000D+00 0.2180000D+00 0.2180000D+00
EXPONENTS  0.2180000D+00 0.1950000D+05 0.2923000D+04 0.6645000D+03 0.1875000D+03
EXPONENTS  0.6062000D+02 0.2142000D+02 0.7950000D+01 0.6645000D+03 0.1875000D+03
EXPONENTS  0.6062000D+02 0.2142000D+02 0.7950000D+01 0.8815000D+00 0.2257000D+01
EXPONENTS  0.3041000D+00 0.9158000D-01 0.4388000D+02 0.9926000D+01 0.2930000D+01
EXPONENTS  0.4388000D+02 0.9926000D+01 0.2930000D+01 0.4388000D+02 0.9926000D+01
EXPONENTS  0.2930000D+01 0.9132000D+00 0.9132000D+00 0.9132000D+00 0.2672000D+00
EXPONENTS  0.2672000D+00 0.2672000D+00 0.7361000D-01 0.7361000D-01 0.7361000D-01
EXPONENTS  0.3107000D+01 0.3107000D+01 0.3107000D+01 0.3107000D+01 0.3107000D+01
EXPONENTS  0.3107000D+01 0.8550000D+00 0.8550000D+00 0.8550000D+00 0.8550000D+00
EXPONENTS  0.8550000D+00 0.8550000D+00 0.2920000D+00 0.2920000D+00 0.2920000D+00
EXPONENTS  0.2920000D+00 0.2920000D+00 0.2920000D+00 0.1917000D+01 0.1917000D+01
EXPONENTS  0.1917000D+01 0.1917000D+01 0.1917000D+01 0.1917000D+01 0.1917000D+01
EXPONENTS  0.1917000D+01 0.1917000D+01 0.1917000D+01 0.7240000D+00 0.7240000D+00
EXPONENTS  0.7240000D+00 0.7240000D+00 0.7240000D+00 0.7240000D+00 0.7240000D+00
EXPONENTS  0.7240000D+00 0.7240000D+00 0.7240000D+00 0.1950000D+05 0.2923000D+04
EXPONENTS  0.6645000D+03 0.1875000D+03 0.6062000D+02 0.2142000D+02 0.7950000D+01
EXPONENTS  0.6645000D+03 0.1875000D+03 0.6062000D+02 0.2142000D+02 0.7950000D+01
EXPONENTS  0.8815000D+00 0.2257000D+01 0.3041000D+00 0.9158000D-01 0.4388000D+02
EXPONENTS  0.9926000D+01 0.2930000D+01 0.4388000D+02 0.9926000D+01 0.2930000D+01
EXPONENTS  0.4388000D+02 0.9926000D+01 0.2930000D+01 0.9132000D+00 0.9132000D+00
EXPONENTS  0.9132000D+00 0.2672000D+00 0.2672000D+00 0.2672000D+00 0.7361000D-01
EXPONENTS  0.7361000D-01 0.7361000D-01 0.3107000D+01 0.3107000D+01 0.3107000D+01
EXPONENTS  0.3107000D+01 0.3107000D+01 0.3107000D+01 0.8550000D+00 0.8550000D+00
EXPONENTS  0.8550000D+00 0.8550000D+00 0.8550000D+00 0.8550000D+00 0.2920000D+00
EXPONENTS  0.2920000D+00 0.2920000D+00 0.2920000D+00 0.2920000D+00 0.2920000D+00
EXPONENTS  0.1917000D+01 0.1917000D+01 0.1917000D+01 0.1917000D+01 0.1917000D+01
EXPONENTS  0.1917000D+01 0.1917000D+01 0.1917000D+01 0.1917000D+01 0.1917000D+01
EXPONENTS  0.7240000D+00 0.7240000D+00 0.7240000D+00 0.7240000D+00 0.7240000D+00
EXPONENTS  0.7240000D+00 0.7240000D+00 0.7240000D+00 0.7240000D+00 0.7240000D+00
MO    1     MO 0.0        OCC NO =    2.0000304  ORB. ENERGY =    0.000000
 -0.12375299D-10 -0.23070050D-10 -0.38991527D-10 -0.58611538D-10 -0.71993776D-10
 -0.60760207D-10 -0.22847425D-10 -0.16309908D-14 -0.12190645D-13 -0.45559226D-13
 -0.12710315D-12 -0.17028317D-12  0.20107268D-12 -0.97247094D-12 -0.15729706D-12
  0.68494197D-14 -0.81641342D-12 -0.76543947D-12 -0.54503851D-12 -0.31510356D-02
 -0.29542962D-02 -0.21036349D-02  0.43690186D-12  0.40962327D-12  0.29167617D-12
 -0.14797793D-12 -0.15817425D-02 -0.57859043D-13 -0.14882424D-13  0.60535178D-03
 -0.97366742D-13  0.80649678D-15 -0.13900250D-04  0.12710339D-14  0.34823231D-13
 -0.19016817D-13 -0.15806414D-13  0.27895530D-15 -0.19632787D-12 -0.10631762D-02
  0.96940792D-14  0.23789236D-13 -0.33483315D-13 -0.54793630D-14  0.86983503D-13
  0.43052290D-03  0.21845491D-14  0.74271446D-14 -0.96116937D-14 -0.81834767D-15
 -0.44717757D-14 -0.23082353D-03  0.21080780D-13  0.23892199D-03 -0.74593819D-14
  0.86849956D-14  0.36846092D-03 -0.11256069D-14 -0.71927335D-13 -0.10852269D-02
  0.23503753D-13  0.10417816D-13 -0.75421981D-14 -0.13461559D-03  0.69336224D-14
 -0.11295453D-13 -0.12882872D-03  0.45873769D-14  0.33922048D-13  0.53267550D-03
 -0.25388244D-13  0.59701105D-15 -0.29957734D-11 -0.56009001D-11 -0.96800202D-11
 -0.15657034D-10 -0.23665082D-10 -0.32591718D-10 -0.38095750D-10 -0.32924923D-10
 -0.15366233D-10 -0.20817874D-11  0.15226493D-13 -0.12052613D-12 -0.15493513D-11
 -0.56518107D-11 -0.19069069D-10 -0.41884233D-10 -0.54103004D-10  0.86948131D-11
  0.72939147D-10  0.40028063D-10 -0.10822257D-14 -0.12327223D-13 -0.25595759D-13
 -0.70381838D-13  0.91258136D-14  0.31823462D-12  0.79372768D-12 -0.65703628D-12
  0.21897593D-11  0.20045537D-12 -0.92140753D-14  0.19222315D-08  0.25218584D-08
  0.27659329D-08  0.22757262D-08  0.11996335D-08  0.31212206D-09  0.97651334D+01
  0.12811300D+02  0.14051223D+02  0.11560923D+02  0.60942613D+01  0.15856122D+01
  0.62572259D-09  0.82091245D-09  0.90036330D-09  0.74079180D-09  0.39050332D-09
  0.10160162D-09  0.11388006D-13  0.40877965D-12  0.64853917D-12  0.77012037D-12
  0.11653951D-12 -0.84815272D-12  0.94914743D-04  0.34070246D-02  0.54053299D-02
  0.64186635D-02  0.97131296D-03 -0.70690337D-02  0.63290494D-14  0.22718522D-12
  0.36043505D-12  0.42800556D-12  0.64768523D-13 -0.47137317D-12  0.14493427D-10
  0.67661786D-01  0.46723784D-11 -0.36048862D-15 -0.36492218D-03 -0.73636871D-13
 -0.38437910D-14 -0.64493681D-05  0.62830897D-15 -0.28927252D-13 -0.17047803D-13
  0.45975055D-13  0.79421375D-15  0.11568487D-12  0.96453401D-03  0.34627132D-14
 -0.35774944D-13  0.32312231D-13 -0.22629463D-14 -0.43453529D-13 -0.52095417D-03
 -0.84239144D-15 -0.20697404D-14  0.29121319D-14  0.19170147D-15 -0.21836282D-14
 -0.43854908D-04  0.16404767D-13  0.34483781D-04 -0.13590649D-13 -0.71459398D-14
  0.11009521D-03  0.31339911D-13 -0.42068361D-13 -0.21354655D-03  0.94320350D-14
  0.20429884D-14  0.21012738D-14  0.34583870D-04 -0.15881149D-14  0.55909292D-14
  0.16158696D-04  0.24800697D-14 -0.11894751D-13 -0.11991031D-03  0.22842749D-14
 -0.82137505D-15  0.50768875D-02  0.94633270D-02  0.16042448D-01  0.24290435D-01
  0.30368394D-01  0.26122265D-01  0.10018451D-01 -0.69437056D-06 -0.91921660D-05
 -0.33387619D-04 -0.99043744D-04 -0.11412791D-03  0.13862535D-03  0.59183951D-03
  0.80799564D-04  0.85786905D-03  0.11429536D-11  0.11177836D-11  0.73856692D-12
 -0.13066353D-02 -0.12778608D-02 -0.84433663D-03 -0.39809802D-02 -0.38933117D-02
 -0.25724757D-02  0.27709000D-12 -0.39246454D-03 -0.11045821D-02  0.51761783D-13
 -0.16033251D-03 -0.74038676D-03 -0.11471679D-14  0.92505967D-04  0.12028045D-04
  0.24006783D-04  0.26863469D-04 -0.50870252D-04 -0.48693315D-13 -0.43236940D-13
  0.27330400D-03 -0.53932786D-04 -0.13038334D-03  0.18431612D-03  0.18053089D-13
 -0.12058579D-13 -0.15639337D-03  0.11222270D-03 -0.23729315D-04 -0.88493381D-04
 -0.47683880D-14  0.95847338D-14 -0.27680839D-03 -0.11723070D-13 -0.24484163D-04
 -0.51391875D-04  0.33221972D-14 -0.32998922D-03  0.15020818D-04  0.31847012D-13
  0.40344171D-03  0.13915481D-03 -0.10569307D-12  0.32187814D-14 -0.61565176D-04
  0.94055093D-04  0.68776048D-14  0.19909732D-03 -0.38126757D-04 -0.16533949D-13
 -0.14401790D-04 -0.24403852D-03  0.27508276D-13 -0.50768874D-02 -0.94633269D-02
 -0.16042447D-01 -0.24290435D-01 -0.30368394D-01 -0.26122264D-01 -0.10018451D-01
  0.69437056D-06  0.91921661D-05  0.33387620D-04  0.99043745D-04  0.11412791D-03
 -0.13862535D-03 -0.59183951D-03 -0.80799564D-04 -0.85786905D-03  0.12446738D-11
  0.12172638D-11  0.80429768D-12 -0.13066353D-02 -0.12778608D-02 -0.84433664D-03
  0.39809802D-02  0.38933117D-02  0.25724757D-02  0.29830746D-12 -0.39246454D-03
  0.11045821D-02  0.63428140D-13 -0.16033251D-03  0.74038676D-03 -0.51294811D-16
  0.92505967D-04 -0.12028045D-04 -0.24006783D-04 -0.26863469D-04  0.50870252D-04
  0.46822088D-13 -0.34399606D-13  0.27330400D-03  0.53932786D-04  0.13038334D-03
 -0.18431612D-03 -0.22048805D-13 -0.11179516D-13 -0.15639337D-03 -0.11222270D-03
  0.23729315D-04  0.88493381D-04 -0.40659124D-15  0.13565285D-13 -0.27680839D-03
 -0.39524002D-15 -0.24484163D-04  0.51391875D-04 -0.18946082D-13 -0.32998922D-03
 -0.15020818D-04  0.20131802D-13  0.40344171D-03 -0.13915481D-03  0.12312419D-12
 -0.10485563D-14 -0.61565176D-04 -0.94055093D-04  0.15018294D-13  0.19909732D-03
  0.38126757D-04 -0.11872625D-13 -0.14401790D-04  0.24403852D-03 -0.44075365D-13
MO    2     MO 0.0        OCC NO =    2.0000250  ORB. ENERGY =    0.000000
 -0.60978786D-01 -0.11367674D+00 -0.19212918D+00 -0.28880599D+00 -0.35474643D+00
 -0.29939347D+00 -0.11257976D+00 -0.98527221D-05 -0.73642994D-04 -0.27522068D-03
 -0.76782285D-03 -0.10286709D-02  0.12146686D-02 -0.46238607D-02 -0.14450351D-02
 -0.62182078D-04 -0.47456959D-12 -0.44493916D-12 -0.31682319D-12  0.29897911D-12
  0.28031192D-12  0.19959879D-12  0.30779803D-02  0.28858022D-02  0.20548631D-02
 -0.92206193D-13  0.11156398D-12 -0.43991370D-03 -0.25899698D-13 -0.56562637D-13
 -0.95161765D-03 -0.15944262D-15  0.19722668D-14  0.76787504D-05  0.25858368D-03
 -0.99462476D-04 -0.15912120D-03 -0.66220256D-14 -0.10313261D-12  0.79354507D-13
  0.10086573D-03  0.15420082D-03 -0.25506655D-03  0.43550857D-14  0.43112238D-13
  0.39522027D-13  0.17550307D-04  0.61638581D-04 -0.79188888D-04  0.60812817D-16
 -0.70608194D-14  0.46788391D-13  0.10445221D-13 -0.16744599D-13 -0.37503646D-04
  0.45566048D-14 -0.18281232D-13 -0.97376847D-04 -0.35892267D-13  0.68515028D-13
  0.20988778D-03  0.54259063D-14 -0.26376065D-14  0.67727618D-14  0.49753995D-04
 -0.70482179D-14  0.11195736D-13  0.22661193D-04  0.14961037D-13 -0.31514021D-13
 -0.17192318D-03 -0.38903958D-14 -0.12510137D+00 -0.23388961D+00 -0.40423077D+00
 -0.65382661D+00 -0.98823705D+00 -0.13610070D+01 -0.15908515D+01 -0.13749214D+01
 -0.64168298D+00 -0.86933964D-01  0.63584753D-03 -0.15594972D-02 -0.20047179D-01
 -0.73129228D-01 -0.24673620D+00 -0.54194341D+00 -0.70004307D+00  0.11250288D+00
  0.94376541D+00  0.51792629D+00 -0.13174104D-04 -0.15006124D-03 -0.31158122D-03
 -0.85676922D-03  0.11108997D-03  0.38739202D-02  0.96621723D-02 -0.79982063D-02
  0.28793310D-01  0.16329941D-02  0.82440839D-04  0.10827773D-08  0.14205423D-08
  0.15580274D-08  0.12818980D-08  0.67574376D-09  0.17581582D-09 -0.89100831D-09
 -0.11689522D-08 -0.12820876D-08 -0.10548631D-08 -0.55606383D-09 -0.14467735D-09
  0.63447735D+01  0.83239820D+01  0.91296068D+01  0.75115654D+01  0.39596702D+01
  0.10302317D+01  0.64144393D-14  0.23025035D-12  0.36529794D-12  0.43378010D-12
  0.65642363D-13 -0.47773282D-12 -0.85306666D-14 -0.30621366D-12 -0.48581565D-12
 -0.57689118D-12 -0.87298841D-13  0.63534461D-12  0.59331487D-04  0.21297412D-02
  0.33788877D-02  0.40123256D-02  0.60717061D-03 -0.44188739D-02  0.81614306D-11
 -0.61493887D-11  0.46897306D-01  0.13679039D-13 -0.13696638D-13 -0.81466717D-03
 -0.16133405D-14 -0.95677625D-16 -0.65543459D-05 -0.26672377D-03 -0.15253150D-03
  0.41925527D-03  0.10077172D-14  0.57073196D-13 -0.49507815D-13  0.14843263D-03
 -0.37015097D-03  0.22171835D-03 -0.14650825D-14 -0.18461090D-13  0.31714037D-13
 -0.15347401D-04 -0.27848144D-04  0.43195544D-04  0.97346963D-16 -0.55758253D-14
  0.15169001D-13  0.97824022D-14 -0.63704429D-15 -0.90545675D-04 -0.30536194D-14
 -0.70506465D-14  0.22145066D-03 -0.26293587D-13  0.89617794D-14  0.50186363D-04
 -0.73637350D-15  0.35485412D-15 -0.94148253D-15 -0.23008614D-04  0.24331411D-14
  0.33001204D-15  0.33486859D-04 -0.34977035D-14  0.24944356D-14  0.35538982D-04
 -0.63063131D-15  0.66858474D-02  0.12462431D-01  0.21126597D-01  0.31988525D-01
  0.39992702D-01  0.34400896D-01  0.13193484D-01  0.15452067D-05  0.20455643D-04
  0.74298617D-04  0.22040545D-03  0.25397276D-03 -0.30848775D-03  0.52606821D-03
 -0.39493926D-03 -0.25327663D-03  0.66671711D-12  0.65203477D-12  0.43082694D-12
  0.10018310D-03  0.97976887D-04  0.64737471D-04 -0.97329098D-03 -0.95185732D-03
 -0.62893238D-03  0.15825599D-12 -0.94264693D-04 -0.39588023D-03  0.40332524D-13
 -0.70969247D-06 -0.93128193D-04 -0.60235051D-15 -0.52116378D-05 -0.60452094D-04
  0.38787046D-04 -0.10711453D-03  0.68327480D-04 -0.64338812D-13 -0.22025187D-13
 -0.32849612D-04 -0.21388996D-04  0.70903413D-05  0.14298655D-04  0.11391374D-13
 -0.11870349D-13  0.88518790D-04 -0.45262554D-04  0.99127937D-05  0.35349760D-04
  0.23781962D-14  0.10747289D-13 -0.27119483D-04  0.70802908D-15 -0.79972957D-04
 -0.11204906D-03 -0.20299907D-13  0.10649184D-03  0.17719250D-04  0.18175819D-13
  0.13342703D-03  0.31842792D-03 -0.75324420D-13 -0.49612587D-15  0.15454807D-04
  0.46747079D-04  0.94862125D-14 -0.96401395D-04 -0.76842651D-04 -0.79978349D-14
  0.50036973D-04 -0.63398588D-04  0.22235115D-13  0.66858474D-02  0.12462431D-01
  0.21126597D-01  0.31988525D-01  0.39992702D-01  0.34400895D-01  0.13193484D-01
  0.15452067D-05  0.20455643D-04  0.74298617D-04  0.22040545D-03  0.25397276D-03
 -0.30848775D-03  0.52606821D-03 -0.39493926D-03 -0.25327663D-03  0.53042159D-12
  0.51874073D-12  0.34275393D-12 -0.10018310D-03 -0.97976886D-04 -0.64737471D-04
 -0.97329098D-03 -0.95185732D-03 -0.62893238D-03  0.12711863D-12  0.94264693D-04
 -0.39588023D-03  0.27432199D-13  0.70969247D-06 -0.93128193D-04 -0.64410438D-15
  0.52116377D-05 -0.60452094D-04  0.38787046D-04 -0.10711453D-03  0.68327480D-04
  0.43677001D-13 -0.10245417D-13  0.32849612D-04 -0.21388996D-04  0.70903413D-05
  0.14298655D-04 -0.86248883D-14 -0.12899072D-13 -0.88518790D-04 -0.45262554D-04
  0.99127937D-05  0.35349760D-04  0.22050929D-14  0.79846843D-14  0.27119483D-04
  0.39951918D-14  0.79972957D-04 -0.11204906D-03 -0.18359688D-13 -0.10649184D-03
  0.17719250D-04  0.63741130D-14 -0.13342703D-03  0.31842792D-03  0.50147846D-13
  0.17936281D-15 -0.15454807D-04  0.46747080D-04  0.63235400D-14  0.96401395D-04
 -0.76842651D-04 -0.68616284D-14 -0.50036973D-04 -0.63398588D-04 -0.14520444D-13
MO    3     MO 0.0        OCC NO =    2.0000103  ORB. ENERGY =    0.000000
  0.19531474D+00  0.36410602D+00  0.61538878D+00  0.92504411D+00  0.11362510D+01
  0.95895577D+00  0.36059241D+00  0.26834779D-04  0.20057334D-03  0.74958838D-03
  0.20912349D-02  0.28016782D-02 -0.33082595D-02  0.15566792D-01  0.34553824D-03
  0.13125244D-03 -0.27583101D-13 -0.25860911D-13 -0.18414509D-13 -0.75860855D-13
 -0.71124374D-13 -0.50644791D-13 -0.73601823D-02 -0.69006388D-02 -0.49136659D-02
 -0.69736889D-14 -0.95375739D-13  0.58915870D-03 -0.11126710D-14  0.40085097D-13
  0.50605374D-03 -0.59409243D-16 -0.12975106D-14  0.64632102D-05 -0.65305673D-03
  0.52332736D-03  0.12972938D-03 -0.74122788D-15 -0.79293907D-14  0.84124258D-13
  0.20801059D-03 -0.23423909D-03  0.26228501D-04  0.44410543D-14  0.87097924D-14
  0.97068057D-13 -0.92185825D-05 -0.36101263D-04  0.45319845D-04  0.31943800D-16
 -0.21001543D-15 -0.10382974D-13  0.11389743D-14 -0.77362198D-15 -0.45244481D-05
 -0.21519405D-14  0.92417107D-13  0.24312231D-03 -0.12649825D-14 -0.90096242D-13
 -0.22954896D-03 -0.14224978D-14 -0.25377716D-15  0.69428792D-14 -0.14843793D-03
 -0.19101900D-14 -0.12101538D-14  0.66991751D-05  0.26715215D-14 -0.19618484D-13
  0.43861462D-03 -0.19982099D-14 -0.10177281D+00 -0.19027452D+00 -0.32885093D+00
 -0.53190283D+00 -0.80395332D+00 -0.11072102D+01 -0.12941939D+01 -0.11185298D+01
 -0.52202371D+00 -0.70722758D-01  0.51727643D-03 -0.12829237D-02 -0.16491856D-01
 -0.60159919D-01 -0.20297807D+00 -0.44583093D+00 -0.57589195D+00  0.92550737D-01
  0.77639068D+00  0.42607319D+00 -0.57318508D-05 -0.65289344D-04 -0.13556421D-03
 -0.37276716D-03  0.48333543D-04  0.16854833D-02  0.42038631D-02 -0.34798970D-02
  0.25580431D-01 -0.17381354D-02 -0.18900600D-03  0.43484916D-10  0.57049737D-10
  0.62571215D-10  0.51481711D-10  0.27138231D-10  0.70608572D-11  0.23221955D-09
  0.30465884D-09  0.33414482D-09  0.27492429D-09  0.14492445D-09  0.37706617D-10
 -0.49970703D+01 -0.65558721D+01 -0.71903728D+01 -0.59160222D+01 -0.31185905D+01
 -0.81139859D+00  0.32173144D-15  0.11548753D-13  0.18322386D-13  0.21757271D-13
  0.32924486D-14 -0.23961824D-13  0.22216892D-14  0.79748936D-13  0.12652369D-12
  0.15024300D-12  0.22735725D-13 -0.16546635D-12 -0.40850990D-04 -0.14663721D-02
 -0.23264361D-02 -0.27625715D-02 -0.41804988D-03  0.30424887D-02  0.33159805D-12
  0.16002748D-11 -0.39260522D-01  0.27838446D-15 -0.82065482D-14  0.42619045D-03
 -0.28372623D-16  0.38141478D-15  0.60407622D-05  0.27812338D-03  0.20672221D-03
 -0.48484558D-03  0.45919103D-15  0.59448786D-14  0.25320948D-13 -0.16704044D-04
 -0.29243133D-03  0.30913537D-03 -0.42090332D-15  0.29016543D-15 -0.19749948D-13
  0.87537296D-05  0.92690979D-05 -0.18022828D-04  0.10595271D-16 -0.29530088D-15
 -0.65083242D-15  0.11210412D-14  0.39468540D-15  0.11110373D-03  0.88170112D-15
  0.40469991D-14 -0.26779082D-03 -0.42448246D-14 -0.52310553D-14 -0.65520371D-04
  0.68257786D-15  0.55027892D-16  0.14214736D-14  0.27495746D-04  0.28343557D-15
  0.14057937D-15 -0.56667464D-04 -0.44851925D-15 -0.44050001D-14 -0.25819774D-04
 -0.30066955D-15 -0.49082175D-01 -0.91489259D-01 -0.15509468D+00 -0.23483431D+00
 -0.29359462D+00 -0.25254402D+00 -0.96856066D-01 -0.78148290D-05 -0.10345370D-03
 -0.37576267D-03 -0.11146929D-02 -0.12844584D-02  0.15601661D-02 -0.42079693D-02
  0.10745340D-02  0.13797338D-03 -0.80971105D-13 -0.79187972D-13 -0.52322841D-13
 -0.43901882D-02 -0.42935081D-02 -0.28369023D-02 -0.10592109D-02 -0.10358852D-02
 -0.68445312D-03 -0.19494577D-13 -0.45594797D-03  0.24080089D-03  0.30813557D-14
 -0.40610858D-04  0.21767038D-03 -0.42111120D-16 -0.25096240D-05  0.27558617D-04
 -0.15638341D-03  0.17223640D-03 -0.15852987D-04  0.23201913D-14 -0.23486182D-13
  0.41892074D-03  0.10216555D-03 -0.28624373D-04 -0.73541177D-04 -0.35622733D-15
 -0.11883298D-14 -0.26969750D-03  0.77344090D-04 -0.26553365D-04 -0.50790726D-04
  0.24749115D-14  0.38835319D-14  0.84098063D-04  0.25033325D-14  0.10929030D-03
  0.23301618D-03 -0.53718408D-14 -0.32097303D-03 -0.21609225D-03 -0.21381567D-14
 -0.68978528D-05 -0.48295629D-03 -0.60598528D-13 -0.13075830D-14 -0.21463551D-04
 -0.70598202D-04  0.15782491D-14  0.29943721D-03  0.26421651D-03  0.23444999D-14
 -0.23504655D-03 -0.52421907D-04  0.13307224D-13 -0.49082175D-01 -0.91489259D-01
 -0.15509468D+00 -0.23483432D+00 -0.29359462D+00 -0.25254402D+00 -0.96856067D-01
 -0.78148291D-05 -0.10345370D-03 -0.37576268D-03 -0.11146929D-02 -0.12844584D-02
  0.15601661D-02 -0.42079693D-02  0.10745340D-02  0.13797338D-03  0.30143086D-13
  0.29479280D-13  0.19478206D-13  0.43901882D-02  0.42935081D-02  0.28369024D-02
 -0.10592109D-02 -0.10358852D-02 -0.68445312D-03  0.67121683D-14  0.45594797D-03
  0.24080089D-03  0.12456941D-14  0.40610859D-04  0.21767038D-03  0.15447620D-16
  0.25096240D-05  0.27558617D-04 -0.15638341D-03  0.17223640D-03 -0.15852987D-04
  0.40677639D-14 -0.11319240D-14 -0.41892074D-03  0.10216555D-03 -0.28624373D-04
 -0.73541178D-04 -0.12021728D-14 -0.42791110D-15  0.26969750D-03  0.77344090D-04
 -0.26553365D-04 -0.50790726D-04  0.93050230D-15  0.13885158D-14 -0.84098063D-04
 -0.14368323D-14 -0.10929030D-03  0.23301618D-03  0.76874198D-14  0.32097304D-03
 -0.21609225D-03 -0.33769229D-14  0.68978528D-05 -0.48295629D-03  0.23510417D-13
 -0.36656513D-15  0.21463551D-04 -0.70598202D-04 -0.20230446D-14 -0.29943721D-03
  0.26421651D-03  0.31227400D-14  0.23504655D-03 -0.52421907D-04 -0.33888706D-14
MO    4     MO 0.0        OCC NO =    2.0000090  ORB. ENERGY =    0.000000
  0.32709832D-10  0.60977717D-10  0.10306065D-09  0.15491938D-09  0.19029071D-09
  0.16059864D-09  0.60389284D-10  0.31890659D-14  0.23836292D-13  0.89081665D-13
  0.24852398D-12  0.33295361D-12 -0.39315613D-12  0.26688999D-11  0.24557012D-12
  0.49386675D-13 -0.40596363D-02 -0.38061670D-02 -0.27102177D-02  0.57409606D-12
  0.53825155D-12  0.38326717D-12 -0.44756265D-12 -0.41961843D-12 -0.29879332D-12
 -0.79209825D-03  0.48482514D-12  0.17301042D-12 -0.11965058D-03 -0.12649467D-12
  0.16622193D-12  0.19844350D-05  0.72781105D-14  0.33137704D-14 -0.99011819D-13
  0.15953602D-13  0.83058216D-13  0.23997948D-14 -0.10202618D-02 -0.15404442D-12
  0.13610593D-13 -0.40520837D-13  0.26910244D-13 -0.72631708D-15  0.47426396D-03
 -0.35281836D-12 -0.26226252D-14 -0.44028045D-14  0.70254297D-14  0.31840058D-15
 -0.26909969D-04  0.63960875D-13  0.10493323D-03 -0.21118193D-13  0.58162136D-13
  0.41970238D-04 -0.34669261D-12 -0.85955875D-13 -0.35676991D-03  0.41004719D-12
 -0.88530535D-13  0.72688812D-14 -0.31507664D-04 -0.63381576D-14 -0.75951638D-14
 -0.71587409D-04  0.78418765D-14 -0.29307749D-13  0.16611040D-03  0.11172596D-13
  0.52093240D-13 -0.41355989D-15  0.42004149D-10  0.78530987D-10  0.13572489D-09
  0.21952941D-09  0.33181136D-09  0.45697294D-09  0.53414572D-09  0.46164485D-09
  0.21545205D-09  0.29189026D-10 -0.21349274D-12  0.27453215D-12  0.35290832D-11
  0.12873588D-10  0.43435167D-10  0.95403117D-10  0.12323481D-09 -0.19804882D-10
 -0.16613942D-09 -0.91175169D-10  0.17651103D-14  0.20105703D-13  0.41746687D-13
  0.11479279D-12 -0.14884203D-13 -0.51904071D-12 -0.12945700D-11  0.10716263D-11
 -0.52419423D-11 -0.21618760D-12 -0.70423128D-13  0.97274762D+01  0.12761896D+02
  0.13997037D+02  0.11516341D+02  0.60707601D+01  0.15794976D+01 -0.18616578D-08
 -0.24423891D-08 -0.26787723D-08 -0.22040131D-08 -0.11618304D-08 -0.30228642D-09
  0.84939479D-10  0.11143577D-09  0.12222092D-09  0.10055969D-09  0.53009351D-10
  0.13792036D-10  0.57708703D-04  0.20714903D-02  0.32864713D-02  0.39025839D-02
  0.59056380D-03 -0.42980127D-02 -0.17716387D-13 -0.63594090D-12 -0.10089362D-11
 -0.11980808D-11 -0.18130120D-12  0.13194761D-11 -0.34065157D-14 -0.12227903D-12
 -0.19399875D-12 -0.23036756D-12 -0.34860684D-13  0.25370953D-12  0.73339680D-01
 -0.12861621D-10  0.98460513D-12  0.17911470D-04  0.40666815D-13  0.13125026D-12
 -0.17710554D-04 -0.10829550D-14  0.29172984D-14  0.28180816D-13 -0.48611079D-14
 -0.23319708D-13  0.14241552D-15  0.58286077D-03 -0.16411415D-12  0.41011075D-13
  0.13242519D-12 -0.17343626D-12 -0.16376294D-14 -0.22749806D-03  0.93077237D-13
  0.35209603D-14  0.39691742D-14 -0.74901345D-14 -0.24677218D-16 -0.19613616D-04
  0.14527258D-13  0.83947990D-04 -0.57811603D-14  0.35301877D-13 -0.30454055D-04
 -0.24977594D-13 -0.64672526D-13 -0.22138992D-03  0.42321075D-13 -0.41233106D-13
  0.36918164D-15  0.90450267D-05 -0.68562203D-14 -0.15276630D-14  0.28085955D-04
 -0.16721174D-15 -0.21866186D-14 -0.55221035D-04  0.20735873D-13  0.67696076D-14
 -0.96288836D-17 -0.31610996D-09 -0.58922951D-09 -0.99887530D-09 -0.15124323D-08
 -0.18908735D-08 -0.16264903D-08 -0.62379402D-09 -0.29471639D-13 -0.39014932D-12
 -0.14170933D-11 -0.42037806D-11 -0.48440080D-11  0.58837693D-11 -0.29200733D-10
  0.26306541D-12 -0.16494945D-12  0.63267781D-02  0.61874508D-02  0.40883104D-02
 -0.76369912D-11 -0.74688106D-11 -0.49349590D-11 -0.54029922D-11 -0.52840084D-11
 -0.34913678D-11  0.14859210D-02  0.17608795D-14 -0.79513826D-14  0.34327985D-03
 -0.15025013D-12 -0.17544765D-12 -0.65137399D-06 -0.27608063D-13 -0.15153658D-15
  0.10731422D-12 -0.14489333D-12  0.37579115D-13 -0.36744538D-03 -0.15391177D-03
 -0.10634566D-12 -0.84009933D-13  0.17043136D-12 -0.86421425D-13  0.10050937D-03
 -0.54495949D-04  0.31699640D-12  0.30381534D-13 -0.50175747D-14 -0.25363959D-13
  0.12940310D-04  0.79141407D-04 -0.61709157D-13  0.11794327D-04  0.13138727D-12
  0.25396518D-13 -0.13449136D-03 -0.44504470D-12 -0.22552007D-12  0.99108383D-04
  0.50882905D-13  0.14933051D-12 -0.60931534D-03 -0.61258599D-05 -0.80945164D-14
 -0.23933123D-13  0.77791916D-04  0.11745121D-12  0.95284078D-13 -0.59414336D-04
 -0.93167657D-13 -0.23484708D-13  0.22201782D-03  0.17150261D-09  0.31968116D-09
  0.54193078D-09  0.82055650D-09  0.10258764D-08  0.88243763D-09  0.33843382D-09
  0.15349352D-13  0.20319668D-12  0.73804732D-12  0.21894035D-11  0.25228453D-11
 -0.30643714D-11  0.15951436D-10  0.91139192D-14  0.22821130D-12  0.63267781D-02
  0.61874508D-02  0.40883104D-02 -0.29465099D-11 -0.28816223D-11 -0.19040097D-11
  0.15107285D-11  0.14774595D-11  0.97621993D-12  0.14859210D-02  0.35460445D-12
 -0.27268887D-12  0.34327985D-03 -0.20053577D-14 -0.36639946D-14 -0.65137399D-06
 -0.30972351D-13  0.55387307D-14 -0.22767248D-13  0.65743808D-13 -0.42976560D-13
  0.36744538D-03 -0.15391177D-03 -0.26960373D-12  0.66742879D-13 -0.15336671D-12
  0.86623833D-13 -0.10050937D-03 -0.54495949D-04  0.35832696D-12  0.51843490D-14
 -0.95829484D-14  0.43985993D-14 -0.12940310D-04  0.79141407D-04  0.24279240D-13
  0.11794327D-04  0.18764284D-12 -0.10810583D-13 -0.13449136D-03 -0.45913751D-12
  0.96535729D-14  0.99108383D-04 -0.10379103D-12  0.22778177D-13  0.60931534D-03