 f2cs-wavefunction
GAUSSIAN            188 MOL ORBITALS    330 PRIMITIVES        4 NUCLEI
  C    1    (CENTRE  1)   0.00000000  0.00000000 -1.00221436  CHARGE =  6.0
  S    2    (CENTRE  2)   0.00000000  0.00000000  2.03811688  CHARGE = 16.0
  F    3    (CENTRE  3)   0.00000000 -1.99407870 -2.44821201  CHARGE =  9.0
  F    4    (CENTRE  4)   0.00000000  1.99407870 -2.44821201  CHARGE =  9.0
CENTRE ASSIGNMENTS    1  1  1  1  1  1  1  1  1  1  1  1  1  1  1  1  1  1  1  1
CENTRE ASSIGNMENTS    1  1  1  1  1  1  1  1  1  1  1  1  1  1  1  1  1  1  1  1
CENTRE ASSIGNMENTS    1  1  1  1  1  1  1  1  1  1  1  1  1  1  1  1  1  1  1  1
CENTRE ASSIGNMENTS    1  1  1  1  1  1  1  1  1  1  1  1  2  2  2  2  2  2  2  2
CENTRE ASSIGNMENTS    2  2  2  2  2  2  2  2  2  2  2  2  2  2  2  2  2  2  2  2
CENTRE ASSIGNMENTS    2  2  2  2  2  2  2  2  2  2  2  2  2  2  2  2  2  2  2  2
CENTRE ASSIGNMENTS    2  2  2  2  2  2  2  2  2  2  2  2  2  2  2  2  2  2  2  2
CENTRE ASSIGNMENTS    2  2  2  2  2  2  2  2  2  2  2  2  2  2  2  2  2  2  2  2
CENTRE ASSIGNMENTS    2  2  2  2  2  2  2  2  2  2  2  2  2  2  2  2  2  2  2  2
CENTRE ASSIGNMENTS    2  2  2  2  2  2  3  3  3  3  3  3  3  3  3  3  3  3  3  3
CENTRE ASSIGNMENTS    3  3  3  3  3  3  3  3  3  3  3  3  3  3  3  3  3  3  3  3
CENTRE ASSIGNMENTS    3  3  3  3  3  3  3  3  3  3  3  3  3  3  3  3  3  3  3  3
CENTRE ASSIGNMENTS    3  3  3  3  3  3  3  3  3  3  3  3  3  3  3  3  3  3  4  4
CENTRE ASSIGNMENTS    4  4  4  4  4  4  4  4  4  4  4  4  4  4  4  4  4  4  4  4
CENTRE ASSIGNMENTS    4  4  4  4  4  4  4  4  4  4  4  4  4  4  4  4  4  4  4  4
CENTRE ASSIGNMENTS    4  4  4  4  4  4  4  4  4  4  4  4  4  4  4  4  4  4  4  4
CENTRE ASSIGNMENTS    4  4  4  4  4  4  4  4  4  4
TYPE ASSIGNMENTS      1  1  1  1  1  1  1  1  1  1  1  1  1  1  1  1  2  2  2  3
TYPE ASSIGNMENTS      3  3  4  4  4  2  3  4  2  3  4  2  3  4  5  6  7  8  9 10
TYPE ASSIGNMENTS      5  6  7  8  9 10  5  6  7  8  9 10 11 12 13 17 14 15 18 19
TYPE ASSIGNMENTS     16 20 11 12 13 17 14 15 18 19 16 20  1  1  1  1  1  1  1  1
TYPE ASSIGNMENTS      1  1  1  1  1  1  1  1  1  1  1  1  1  1  1  1  1  1  1  1
TYPE ASSIGNMENTS      1  1  1  2  2  2  2  2  2  3  3  3  3  3  3  4  4  4  4  4
TYPE ASSIGNMENTS      4  2  2  2  2  2  2  3  3  3  3  3  3  4  4  4  4  4  4  2
TYPE ASSIGNMENTS      3  4  2  3  4  2  3  4  5  6  7  8  9 10  5  6  7  8  9 10
TYPE ASSIGNMENTS      5  6  7  8  9 10 11 12 13 17 14 15 18 19 16 20 11 12 13 17
TYPE ASSIGNMENTS     14 15 18 19 16 20  1  1  1  1  1  1  1  1  1  1  1  1  1  1
TYPE ASSIGNMENTS      1  1  2  2  2  3  3  3  4  4  4  2  3  4  2  3  4  2  3  4
TYPE ASSIGNMENTS      5  6  7  8  9 10  5  6  7  8  9 10  5  6  7  8  9 10 11 12
TYPE ASSIGNMENTS     13 17 14 15 18 19 16 20 11 12 13 17 14 15 18 19 16 20  1  1
TYPE ASSIGNMENTS      1  1  1  1  1  1  1  1  1  1  1  1  1  1  2  2  2  3  3  3
TYPE ASSIGNMENTS      4  4  4  2  3  4  2  3  4  2  3  4  5  6  7  8  9 10  5  6
TYPE ASSIGNMENTS      7  8  9 10  5  6  7  8  9 10 11 12 13 17 14 15 18 19 16 20
TYPE ASSIGNMENTS     11 12 13 17 14 15 18 19 16 20
EXPONENTS  0.8236000D+04 0.1235000D+04 0.2808000D+03 0.7927000D+02 0.2559000D+02
EXPONENTS  0.8997000D+01 0.3319000D+01 0.2808000D+03 0.7927000D+02 0.2559000D+02
EXPONENTS  0.8997000D+01 0.3319000D+01 0.3643000D+00 0.9059000D+00 0.1285000D+00
EXPONENTS  0.4402000D-01 0.1871000D+02 0.4133000D+01 0.1200000D+01 0.1871000D+02
EXPONENTS  0.4133000D+01 0.1200000D+01 0.1871000D+02 0.4133000D+01 0.1200000D+01
EXPONENTS  0.3827000D+00 0.3827000D+00 0.3827000D+00 0.1209000D+00 0.1209000D+00
EXPONENTS  0.1209000D+00 0.3569000D-01 0.3569000D-01 0.3569000D-01 0.1097000D+01
EXPONENTS  0.1097000D+01 0.1097000D+01 0.1097000D+01 0.1097000D+01 0.1097000D+01
EXPONENTS  0.3180000D+00 0.3180000D+00 0.3180000D+00 0.3180000D+00 0.3180000D+00
EXPONENTS  0.3180000D+00 0.1000000D+00 0.1000000D+00 0.1000000D+00 0.1000000D+00
EXPONENTS  0.1000000D+00 0.1000000D+00 0.7610000D+00 0.7610000D+00 0.7610000D+00
EXPONENTS  0.7610000D+00 0.7610000D+00 0.7610000D+00 0.7610000D+00 0.7610000D+00
EXPONENTS  0.7610000D+00 0.7610000D+00 0.2680000D+00 0.2680000D+00 0.2680000D+00
EXPONENTS  0.2680000D+00 0.2680000D+00 0.2680000D+00 0.2680000D+00 0.2680000D+00
EXPONENTS  0.2680000D+00 0.2680000D+00 0.3741000D+06 0.5605000D+05 0.1276000D+05
EXPONENTS  0.3615000D+04 0.1183000D+04 0.4288000D+03 0.1678000D+03 0.6947000D+02
EXPONENTS  0.2984000D+02 0.1272000D+02 0.5244000D+01 0.3615000D+04 0.1183000D+04
EXPONENTS  0.4288000D+03 0.1678000D+03 0.6947000D+02 0.2984000D+02 0.1272000D+02
EXPONENTS  0.5244000D+01 0.2219000D+01 0.1183000D+04 0.1678000D+03 0.6947000D+02
EXPONENTS  0.2984000D+02 0.1272000D+02 0.5244000D+01 0.2219000D+01 0.3490000D+00
EXPONENTS  0.7767000D+00 0.1322000D+00 0.4970000D-01 0.5744000D+03 0.1358000D+03
EXPONENTS  0.4319000D+02 0.1587000D+02 0.6208000D+01 0.2483000D+01 0.5744000D+03
EXPONENTS  0.1358000D+03 0.4319000D+02 0.1587000D+02 0.6208000D+01 0.2483000D+01
EXPONENTS  0.5744000D+03 0.1358000D+03 0.4319000D+02 0.1587000D+02 0.6208000D+01
EXPONENTS  0.2483000D+01 0.1358000D+03 0.4319000D+02 0.1587000D+02 0.6208000D+01
EXPONENTS  0.2483000D+01 0.3229000D+00 0.1358000D+03 0.4319000D+02 0.1587000D+02
EXPONENTS  0.6208000D+01 0.2483000D+01 0.3229000D+00 0.1358000D+03 0.4319000D+02
EXPONENTS  0.1587000D+02 0.6208000D+01 0.2483000D+01 0.3229000D+00 0.8688000D+00
EXPONENTS  0.8688000D+00 0.8688000D+00 0.1098000D+00 0.1098000D+00 0.1098000D+00
EXPONENTS  0.3510000D-01 0.3510000D-01 0.3510000D-01 0.2690000D+00 0.2690000D+00
EXPONENTS  0.2690000D+00 0.2690000D+00 0.2690000D+00 0.2690000D+00 0.8190000D+00
EXPONENTS  0.8190000D+00 0.8190000D+00 0.8190000D+00 0.8190000D+00 0.8190000D+00
EXPONENTS  0.1010000D+00 0.1010000D+00 0.1010000D+00 0.1010000D+00 0.1010000D+00
EXPONENTS  0.1010000D+00 0.5570000D+00 0.5570000D+00 0.5570000D+00 0.5570000D+00
EXPONENTS  0.5570000D+00 0.5570000D+00 0.5570000D+00 0.5570000D+00 0.5570000D+00
EXPONENTS  0.5570000D+00 0.2180000D+00 0.2180000D+00 0.2180000D+00 0.2180000D+00
EXPONENTS  0.2180000D+00 0.2180000D+00 0.2180000D+00 0.2180000D+00 0.2180000D+00
EXPONENTS  0.2180000D+00 0.1950000D+05 0.2923000D+04 0.6645000D+03 0.1875000D+03
EXPONENTS  0.6062000D+02 0.2142000D+02 0.7950000D+01 0.6645000D+03 0.1875000D+03
EXPONENTS  0.6062000D+02 0.2142000D+02 0.7950000D+01 0.8815000D+00 0.2257000D+01
EXPONENTS  0.3041000D+00 0.9158000D-01 0.4388000D+02 0.9926000D+01 0.2930000D+01
EXPONENTS  0.4388000D+02 0.9926000D+01 0.2930000D+01 0.4388000D+02 0.9926000D+01
EXPONENTS  0.2930000D+01 0.9132000D+00 0.9132000D+00 0.9132000D+00 0.2672000D+00
EXPONENTS  0.2672000D+00 0.2672000D+00 0.7361000D-01 0.7361000D-01 0.7361000D-01
EXPONENTS  0.3107000D+01 0.3107000D+01 0.3107000D+01 0.3107000D+01 0.3107000D+01
EXPONENTS  0.3107000D+01 0.8550000D+00 0.8550000D+00 0.8550000D+00 0.8550000D+00
EXPONENTS  0.8550000D+00 0.8550000D+00 0.2920000D+00 0.2920000D+00 0.2920000D+00
EXPONENTS  0.2920000D+00 0.2920000D+00 0.2920000D+00 0.1917000D+01 0.1917000D+01
EXPONENTS  0.1917000D+01 0.1917000D+01 0.1917000D+01 0.1917000D+01 0.1917000D+01
EXPONENTS  0.1917000D+01 0.1917000D+01 0.1917000D+01 0.7240000D+00 0.7240000D+00
EXPONENTS  0.7240000D+00 0.7240000D+00 0.7240000D+00 0.7240000D+00 0.7240000D+00
EXPONENTS  0.7240000D+00 0.7240000D+00 0.7240000D+00 0.1950000D+05 0.2923000D+04
EXPONENTS  0.6645000D+03 0.1875000D+03 0.6062000D+02 0.2142000D+02 0.7950000D+01
EXPONENTS  0.6645000D+03 0.1875000D+03 0.6062000D+02 0.2142000D+02 0.7950000D+01
EXPONENTS  0.8815000D+00 0.2257000D+01 0.3041000D+00 0.9158000D-01 0.4388000D+02
EXPONENTS  0.9926000D+01 0.2930000D+01 0.4388000D+02 0.9926000D+01 0.2930000D+01
EXPONENTS  0.4388000D+02 0.9926000D+01 0.2930000D+01 0.9132000D+00 0.9132000D+00
EXPONENTS  0.9132000D+00 0.2672000D+00 0.2672000D+00 0.2672000D+00 0.7361000D-01
EXPONENTS  0.7361000D-01 0.7361000D-01 0.3107000D+01 0.3107000D+01 0.3107000D+01
EXPONENTS  0.3107000D+01 0.3107000D+01 0.3107000D+01 0.8550000D+00 0.8550000D+00
EXPONENTS  0.8550000D+00 0.8550000D+00 0.8550000D+00 0.8550000D+00 0.2920000D+00
EXPONENTS  0.2920000D+00 0.2920000D+00 0.2920000D+00 0.2920000D+00 0.2920000D+00
EXPONENTS  0.1917000D+01 0.1917000D+01 0.1917000D+01 0.1917000D+01 0.1917000D+01
EXPONENTS  0.1917000D+01 0.1917000D+01 0.1917000D+01 0.1917000D+01 0.1917000D+01
EXPONENTS  0.7240000D+00 0.7240000D+00 0.7240000D+00 0.7240000D+00 0.7240000D+00
EXPONENTS  0.7240000D+00 0.7240000D+00 0.7240000D+00 0.7240000D+00 0.7240000D+00
MO    1     MO 0.0        OCC NO =    2.0000305  ORB. ENERGY =    0.000000
 -0.24402704D-10 -0.45491556D-10 -0.76886927D-10 -0.11557539D-09 -0.14196367D-09
 -0.11981233D-09 -0.45052564D-10 -0.37398824D-14 -0.27953304D-13 -0.10446788D-12
 -0.29144912D-12 -0.39046147D-12  0.46106219D-12 -0.19144227D-11 -0.22052960D-12
 -0.12020957D-13 -0.14720040D-12 -0.13800973D-12 -0.98271148D-13 -0.29450016D-02
 -0.27611262D-02 -0.19660864D-02  0.11118630D-11  0.10424422D-11  0.74228097D-12
 -0.35318354D-13 -0.15438674D-02 -0.14468320D-12 -0.16482782D-13  0.61502395D-03
 -0.11044940D-12 -0.63853038D-16 -0.13217271D-04  0.84319052D-15  0.60230662D-13
 -0.54392461D-13 -0.58382008D-14 -0.30789326D-14 -0.34008632D-13 -0.97673580D-03
 -0.81139193D-14  0.67843955D-13 -0.59730036D-13  0.13366022D-13  0.10748035D-13
  0.36336250D-03  0.31218367D-14  0.85944136D-14 -0.11716250D-13  0.16103964D-15
 -0.40284296D-14 -0.22106645D-03  0.24470225D-14  0.24235080D-03  0.14289663D-13
  0.32356788D-14  0.34932130D-03 -0.18652737D-13 -0.10576746D-13 -0.10763737D-02
 -0.24216252D-13 -0.10771509D-13  0.23876959D-15 -0.13954054D-03  0.25512042D-13
 -0.21826032D-14 -0.12865730D-03 -0.50626007D-14  0.14662945D-14  0.54727892D-03
 -0.71473525D-13 -0.69039969D-14  0.41557502D-10  0.77695936D-10  0.13428167D-09
  0.21719507D-09  0.32828308D-09  0.45211376D-09  0.52846594D-09  0.45673599D-09
  0.21316107D-09  0.28878647D-10 -0.21122259D-12  0.44314090D-13  0.56965317D-12
  0.20780129D-11  0.70111639D-11  0.15399662D-10  0.19892163D-10 -0.31968398D-11
 -0.26817686D-10 -0.14717200D-10 -0.30433361D-15 -0.34665490D-14 -0.71978054D-14
 -0.19792137D-13  0.25662778D-14  0.89491029D-13  0.22320484D-12 -0.18476573D-12
 -0.11165993D-11  0.35915376D-12  0.17940894D-13  0.42058729D-09  0.55178661D-09
  0.60519049D-09  0.49793251D-09  0.26248171D-09  0.68292802D-10  0.97656384D+01
  0.12811962D+02  0.14051950D+02  0.11561521D+02  0.60945765D+01  0.15856942D+01
  0.12154844D-08  0.15946464D-08  0.17489820D-08  0.14390097D-08  0.75856407D-09
  0.19736410D-09  0.23652242D-14  0.84901217D-13  0.13469791D-12  0.15994963D-12
  0.24204596D-13 -0.17615651D-12  0.94558561D-04  0.33942392D-02  0.53850456D-02
  0.63945765D-02  0.96766797D-03 -0.70425061D-02  0.10517889D-13  0.37754625D-12
  0.59898659D-12  0.71127820D-12  0.10763514D-12 -0.78334837D-12  0.31555952D-11
  0.67547606D-01  0.93759816D-11  0.93230810D-14 -0.39346813D-03 -0.12152563D-12
 -0.50892379D-15 -0.77631361D-05 -0.59314713D-15 -0.62612137D-13 -0.47969233D-13
  0.11058137D-12  0.11108793D-14  0.15903924D-13  0.95842159D-03  0.22895149D-13
  0.20947019D-13 -0.43842168D-13  0.36923707D-15 -0.10350067D-13 -0.58916135D-03
 -0.31044702D-14 -0.35513109D-14  0.66557811D-14  0.95005215D-16 -0.36064855D-14
 -0.40255575D-04  0.33357305D-14  0.35475856D-04 -0.22666243D-13 -0.18309798D-14
  0.10956853D-03  0.52916736D-13 -0.81762115D-14 -0.21599610D-03  0.15081994D-13
 -0.28385084D-14 -0.20545214D-15  0.34926492D-04 -0.69923735D-14  0.60685665D-15
  0.16599119D-04  0.12136003D-13  0.94997726D-17 -0.12137859D-03  0.88411175D-14
 -0.98253677D-15  0.50695369D-02  0.94496255D-02  0.16019221D-01  0.24255266D-01
  0.30324425D-01  0.26084443D-01  0.10003945D-01 -0.61256152D-06 -0.81091676D-05
 -0.29453972D-04 -0.87374653D-04 -0.10068164D-03  0.12229285D-03  0.58378285D-03
  0.93782993D-04  0.84885550D-03  0.45763262D-12  0.44755470D-12  0.29571832D-12
 -0.12982166D-02 -0.12696275D-02 -0.83889658D-03 -0.38260737D-02 -0.37418165D-02
 -0.24723764D-02  0.98601154D-13 -0.38429570D-03 -0.10608991D-02  0.33432773D-13
 -0.13598485D-03 -0.75423613D-03 -0.38536149D-15  0.91936251D-04  0.10786958D-04
  0.24246797D-04  0.27531734D-04 -0.51778532D-04 -0.68471770D-14 -0.18622725D-13
  0.25361659D-03 -0.55008865D-04 -0.13466126D-03  0.18967013D-03  0.14268260D-13
 -0.95466339D-15 -0.14158895D-03  0.10811499D-03 -0.19279152D-04 -0.88835839D-04
  0.79570956D-14  0.75040307D-14 -0.28128147D-03  0.49921879D-14 -0.30012119D-04
 -0.58143952D-04 -0.22547306D-13 -0.33248066D-03  0.25140201D-04  0.75707421D-14
  0.42251702D-03  0.14929165D-03 -0.59928064D-13 -0.33413707D-14 -0.64903636D-04
  0.96377525D-04  0.13582768D-13  0.20018587D-03 -0.46013320D-04 -0.35586553D-14
 -0.54749659D-05 -0.24311925D-03  0.18830544D-13 -0.50695369D-02 -0.94496254D-02
 -0.16019220D-01 -0.24255266D-01 -0.30324425D-01 -0.26084443D-01 -0.10003945D-01
  0.61256153D-06  0.81091676D-05  0.29453972D-04  0.87374654D-04  0.10068164D-03
 -0.12229285D-03 -0.58378284D-03 -0.93782993D-04 -0.84885550D-03  0.35146083D-12
  0.34372101D-12  0.22711101D-12 -0.12982166D-02 -0.12696275D-02 -0.83889658D-03
  0.38260737D-02  0.37418165D-02  0.24723764D-02  0.81168781D-13 -0.38429570D-03
  0.10608991D-02  0.10439866D-13 -0.13598485D-03  0.75423613D-03 -0.43416755D-15
  0.91936251D-04 -0.10786958D-04 -0.24246797D-04 -0.27531735D-04  0.51778532D-04
 -0.18491152D-13  0.16315000D-14  0.25361659D-03  0.55008865D-04  0.13466126D-03
 -0.18967013D-03 -0.44602343D-14 -0.14788565D-13 -0.14158895D-03 -0.10811499D-03
  0.19279152D-04  0.88835839D-04  0.39537308D-14  0.64562549D-15 -0.28128147D-03
 -0.11762457D-14 -0.30012119D-04  0.58143951D-04  0.12999214D-13 -0.33248066D-03
 -0.25140201D-04 -0.94704774D-14  0.42251702D-03 -0.14929165D-03 -0.29415736D-13
  0.67706199D-15 -0.64903636D-04 -0.96377525D-04  0.11812496D-14  0.20018587D-03
  0.46013320D-04 -0.32124355D-14 -0.54749659D-05  0.24311925D-03  0.12197525D-13
MO    2     MO 0.0        OCC NO =    2.0000245  ORB. ENERGY =    0.000000
 -0.57753883D-01 -0.10766487D+00 -0.18196830D+00 -0.27353230D+00 -0.33598544D+00
 -0.28355986D+00 -0.10662591D+00 -0.90836370D-05 -0.67894559D-04 -0.25373747D-03
 -0.70788803D-03 -0.94837479D-03  0.11198538D-02 -0.43808034D-02 -0.13254365D-02
 -0.50941067D-04  0.43397369D-12  0.40687792D-12  0.28972132D-12  0.25279306D-12
  0.23700956D-12  0.16876493D-12  0.28230672D-02  0.26468050D-02  0.18846828D-02
  0.71395916D-13  0.13768622D-12 -0.40062838D-03  0.12641305D-14 -0.76222038D-13
 -0.92435981D-03 -0.70234714D-15  0.17131454D-14  0.79874512D-05  0.26106533D-03
 -0.10981731D-03 -0.15124802D-03  0.17300037D-14  0.12074626D-12 -0.10422316D-13
  0.10523835D-03  0.15534441D-03 -0.26058276D-03  0.21393729D-14 -0.50561777D-13
 -0.57797584D-13  0.16700034D-04  0.62157319D-04 -0.78857352D-04  0.26392145D-15
  0.14153637D-14  0.26290270D-13 -0.11236230D-13 -0.12683601D-13 -0.35213429D-04
 -0.82821975D-14 -0.76136079D-13 -0.10374181D-03  0.41990886D-13  0.11418688D-12
  0.20938209D-03 -0.31316295D-14  0.51516980D-14  0.21949141D-14  0.44216939D-04
  0.66534617D-14  0.88097183D-14  0.29381521D-04 -0.22108556D-13 -0.15394461D-13
 -0.16203234D-03 -0.82522393D-15 -0.12871498D+00 -0.24064561D+00 -0.41590714D+00
 -0.67271266D+00 -0.10167827D+01 -0.14003203D+01 -0.16368039D+01 -0.14146366D+01
 -0.66021826D+00 -0.89445087D-01  0.65421425D-03 -0.16048105D-02 -0.20629678D-01
 -0.75254099D-01 -0.25390546D+00 -0.55769033D+00 -0.72038379D+00  0.11577180D+00
  0.97118783D+00  0.53297535D+00 -0.13326921D-04 -0.15180191D-03 -0.31519549D-03
 -0.86670754D-03  0.11237859D-03  0.39188568D-02  0.97742512D-02 -0.80909836D-02
  0.29667674D-01  0.14949492D-02  0.67916560D-04 -0.11074595D-08 -0.14529238D-08
 -0.15935430D-08 -0.13111192D-08 -0.69114748D-09 -0.17982357D-09 -0.72877657D-09
 -0.95611342D-09 -0.10486495D-08 -0.86279721D-09 -0.45481763D-09 -0.11833499D-09
  0.61280688D+01  0.80396777D+01  0.88177865D+01  0.72550091D+01  0.38244283D+01
  0.99504430D+00 -0.64868431D-14 -0.23284933D-12 -0.36942129D-12 -0.43867645D-12
 -0.66383310D-13  0.48312529D-12 -0.69738725D-14 -0.25033155D-12 -0.39715728D-12
 -0.47161209D-12 -0.71367340D-13  0.51939813D-12  0.56441057D-04  0.20259874D-02
  0.32142797D-02  0.38168586D-02  0.57759131D-03 -0.42036013D-02 -0.83460377D-11
 -0.50189555D-11  0.45299226D-01  0.49919659D-14  0.20850526D-13 -0.77335112D-03
  0.23805291D-14  0.59221413D-16 -0.61717995D-05 -0.25161390D-03 -0.13964073D-03
  0.39125462D-03  0.64775860D-17 -0.69929827D-13 -0.63761406D-13  0.15389408D-03
 -0.37315934D-03  0.21926525D-03  0.66197876D-15  0.38061640D-13  0.45158176D-13
 -0.14153801D-04 -0.26905550D-04  0.41059351D-04 -0.57434638D-16 -0.70354216D-16
  0.46162887D-14 -0.91512058D-14 -0.10096888D-14 -0.86761594D-04  0.47363352D-14
 -0.79890433D-14  0.21389932D-03  0.22717282D-13  0.11018110D-13  0.46385459D-04
 -0.11671479D-14 -0.15941747D-14 -0.25913899D-14 -0.21455364D-04 -0.35533297D-14
 -0.79714649D-15  0.30621689D-04  0.83358539D-14  0.85713162D-14  0.33744402D-04
  0.27907030D-15  0.65904013D-02  0.12284519D-01  0.20824997D-01  0.31531862D-01
  0.39421772D-01  0.33909794D-01  0.13005136D-01  0.15523611D-05  0.20550354D-04
  0.74642624D-04  0.22142594D-03  0.25514867D-03 -0.30991606D-03  0.51594330D-03
 -0.38151499D-03 -0.25472967D-03 -0.82823830D-12 -0.80999897D-12 -0.53520056D-12
  0.16604688D-03  0.16239022D-03  0.10729809D-03 -0.88302476D-03 -0.86357893D-03
 -0.57060311D-03 -0.19903318D-12 -0.74913473D-04 -0.36847760D-03 -0.33628799D-13
  0.10962368D-04 -0.71843803D-04  0.73521743D-15 -0.44155651D-05 -0.59734173D-04
  0.34332948D-04 -0.10306400D-03  0.68731055D-04  0.31475389D-13 -0.29316579D-14
 -0.20560870D-04 -0.23330894D-04  0.12477684D-04  0.10853210D-04 -0.13374464D-13
  0.35426027D-14  0.96782029D-04 -0.46737782D-04  0.11044264D-04  0.35693518D-04
  0.39173818D-14 -0.50247407D-14 -0.17776877D-04  0.74275596D-14 -0.78526943D-04
 -0.10390441D-03  0.42400091D-14  0.11650432D-03  0.24776169D-04 -0.26522688D-13
  0.11907651D-03  0.28693705D-03  0.32407480D-13 -0.22190517D-14  0.16770047D-04
  0.42072373D-04 -0.15233218D-14 -0.99079039D-04 -0.75931253D-04  0.81804770D-14
  0.48768899D-04 -0.50285867D-04 -0.14929325D-13  0.65904014D-02  0.12284520D-01
  0.20824997D-01  0.31531862D-01  0.39421773D-01  0.33909794D-01  0.13005136D-01
  0.15523611D-05  0.20550354D-04  0.74642624D-04  0.22142594D-03  0.25514867D-03
 -0.30991606D-03  0.51594331D-03 -0.38151499D-03 -0.25472967D-03 -0.80078759D-12
 -0.78315277D-12 -0.51746215D-12 -0.16604688D-03 -0.16239023D-03 -0.10729809D-03
 -0.88302476D-03 -0.86357892D-03 -0.57060311D-03 -0.19271236D-12  0.74913473D-04
 -0.36847760D-03 -0.35627082D-13 -0.10962368D-04 -0.71843803D-04  0.42909174D-15
  0.44155651D-05 -0.59734173D-04  0.34332948D-04 -0.10306400D-03  0.68731055D-04
 -0.40244851D-13  0.28064081D-13  0.20560870D-04 -0.23330894D-04  0.12477684D-04
  0.10853210D-04  0.15556219D-13  0.87143433D-15 -0.96782029D-04 -0.46737782D-04
  0.11044264D-04  0.35693518D-04 -0.24387971D-14 -0.56815792D-14  0.17776877D-04
  0.58020180D-14  0.78526943D-04 -0.10390441D-03 -0.46670856D-14 -0.11650432D-03
  0.24776169D-04 -0.12738969D-13 -0.11907651D-03  0.28693705D-03 -0.55905849D-13
 -0.17984055D-14 -0.16770047D-04  0.42072373D-04 -0.46719302D-14  0.99079039D-04
 -0.75931253D-04  0.10067147D-13 -0.48768899D-04 -0.50285867D-04  0.20947163D-13
MO    3     MO 0.0        OCC NO =    2.0000098  ORB. ENERGY =    0.000000
  0.20180290D+00  0.37620126D+00  0.63583138D+00  0.95577315D+00  0.11739961D+01
  0.99081132D+00  0.37257093D+00  0.26973761D-04  0.20161215D-03  0.75347064D-03
  0.21020658D-02  0.28161886D-02 -0.33253936D-02  0.16116690D-01  0.35376594D-03
  0.13561121D-03 -0.78345070D-11 -0.73453483D-11 -0.52303256D-11 -0.44743975D-12
 -0.41950321D-12 -0.29871128D-12 -0.73139769D-02 -0.68573182D-02 -0.48828191D-02
 -0.15730705D-11  0.22391446D-13  0.60599690D-03 -0.24340116D-12  0.85702891D-13
  0.56498976D-03  0.39989079D-14  0.93994065D-15  0.65779156D-05 -0.71190283D-03
  0.58308356D-03  0.12881927D-03  0.18327166D-14 -0.19785352D-11 -0.46631182D-12
  0.20462020D-03 -0.25607911D-03  0.51458910D-04 -0.47772778D-14  0.89278083D-12
 -0.23945036D-12 -0.92562136D-05 -0.40639774D-04  0.49895988D-04 -0.58988750D-15
 -0.55067778D-13 -0.22871680D-13  0.19906935D-12  0.57163226D-13 -0.88008047D-05
  0.90445752D-13 -0.18397170D-12  0.27498174D-03 -0.68765380D-12  0.12482017D-13
 -0.24857932D-03  0.21475689D-14 -0.62279240D-13 -0.58820470D-13 -0.14763602D-03
 -0.14499278D-12 -0.30039834D-13 -0.64171111D-05  0.33183050D-12  0.20650124D-12
  0.44932516D-03  0.21360386D-14 -0.96886138D-01 -0.18113839D+00 -0.31306098D+00
 -0.50636324D+00 -0.76535109D+00 -0.10540469D+01 -0.12320525D+01 -0.10648231D+01
 -0.49695847D+00 -0.67326968D-01  0.49243914D-03 -0.12212093D-02 -0.15698522D-01
 -0.57265953D-01 -0.19321391D+00 -0.42438444D+00 -0.54818894D+00  0.88098626D-01
  0.73904276D+00  0.40557713D+00 -0.52782242D-05 -0.60122254D-04 -0.12483547D-03
 -0.34326585D-03  0.44508359D-04  0.15520918D-02  0.38711635D-02 -0.32044931D-02
  0.24372069D-01 -0.17809956D-02 -0.19637884D-03  0.19420741D-07  0.25478907D-07
  0.27944847D-07  0.22992179D-07  0.12120169D-07  0.31534400D-08  0.13444228D-08
  0.17638063D-08  0.19345137D-08  0.15916596D-08  0.83903246D-09  0.21830046D-09
 -0.50657692D+01 -0.66460011D+01 -0.72892249D+01 -0.59973547D+01 -0.31614644D+01
 -0.82255356D+00  0.11401081D-12  0.40924901D-11  0.64928382D-11  0.77100462D-11
  0.11667332D-11 -0.84912657D-11  0.13843565D-13  0.49692349D-12  0.78838157D-12
  0.93617893D-12  0.14166855D-12 -0.10310371D-11 -0.40976651D-04 -0.14708827D-02
 -0.23335923D-02 -0.27710693D-02 -0.41933583D-03  0.30518476D-02  0.14623658D-09
  0.93505785D-11 -0.39819263D-01  0.32613892D-13 -0.65461723D-13  0.44319308D-03
 -0.35645908D-13 -0.20029327D-14  0.65625284D-05  0.27920820D-03  0.20297826D-03
 -0.48218646D-03 -0.58393950D-15  0.11342981D-11  0.16542745D-12 -0.44436869D-04
 -0.29752165D-03  0.34195852D-03  0.79346659D-15 -0.56180389D-12 -0.69746540D-13
  0.83844235D-05  0.10118697D-04 -0.18503120D-04  0.21422791D-15 -0.39715843D-13
 -0.42895181D-14  0.16427439D-12  0.92744279D-14  0.11500951D-03 -0.64311160D-13
  0.12597675D-13 -0.27940837D-03 -0.42851200D-12 -0.40420959D-13 -0.65620163D-04
  0.23702415D-14  0.17565890D-13  0.47087728D-14  0.26822984D-04  0.55312925D-13
  0.43227006D-14 -0.55368337D-04 -0.10801059D-12 -0.18449019D-13 -0.25100614D-04
 -0.30221525D-15 -0.54540945D-01 -0.10166442D+00 -0.17234383D+00 -0.26095187D+00
 -0.32624732D+00 -0.28063119D+00 -0.10762810D+00 -0.85973147D-05 -0.11381235D-03
 -0.41338716D-03 -0.12263052D-02 -0.14130691D-02  0.17163829D-02 -0.46887043D-02
  0.11171129D-02  0.15166120D-03  0.12799880D-10  0.12518003D-10  0.82711736D-11
 -0.48949007D-02 -0.47871060D-02 -0.31630433D-02 -0.13262384D-02 -0.12970322D-02
 -0.85700400D-03  0.30144544D-11 -0.53423339D-03  0.20068496D-03  0.68781641D-12
 -0.68796214D-04  0.17430438D-03 -0.18677845D-14 -0.30718618D-05  0.29517453D-04
 -0.14944450D-03  0.17168710D-03 -0.22242605D-04 -0.71550599D-12 -0.28809786D-12
  0.40547277D-03  0.11654514D-03 -0.44670657D-04 -0.71874480D-04  0.20255762D-12
 -0.11759179D-12 -0.31181181D-03  0.88063296D-04 -0.29508628D-04 -0.58554668D-04
  0.17875974D-13  0.15738714D-12  0.63843900D-04  0.30382127D-14  0.11524767D-03
  0.22477095D-03 -0.21735395D-12 -0.37590028D-03 -0.23910551D-03  0.20823931D-12
  0.30157283D-04 -0.43520735D-03 -0.11617791D-11 -0.40423263D-14 -0.27082397D-04
 -0.64114129D-04  0.13704864D-12  0.32929695D-03  0.27784525D-03 -0.12492166D-12
 -0.24804976D-03 -0.85502863D-04  0.41970057D-12 -0.54540945D-01 -0.10166441D+00
 -0.17234383D+00 -0.26095187D+00 -0.32624731D+00 -0.28063119D+00 -0.10762810D+00
 -0.85973147D-05 -0.11381235D-03 -0.41338716D-03 -0.12263052D-02 -0.14130691D-02
  0.17163829D-02 -0.46887042D-02  0.11171129D-02  0.15166120D-03  0.12781040D-10
  0.12499578D-10  0.82589996D-11  0.48949007D-02  0.47871060D-02  0.31630433D-02
 -0.13262384D-02 -0.12970322D-02 -0.85700400D-03  0.30058750D-11  0.53423339D-03
  0.20068496D-03  0.69417292D-12  0.68796214D-04  0.17430438D-03 -0.12183344D-14
  0.30718618D-05  0.29517453D-04 -0.14944450D-03  0.17168710D-03 -0.22242605D-04
  0.73560275D-12 -0.29705123D-12 -0.40547277D-03  0.11654514D-03 -0.44670657D-04
 -0.71874480D-04 -0.20458116D-12 -0.11802571D-12  0.31181181D-03  0.88063296D-04
 -0.29508628D-04 -0.58554668D-04 -0.21353193D-13  0.16056392D-12 -0.63843900D-04
  0.29684007D-14 -0.11524767D-03  0.22477095D-03 -0.22265959D-12  0.37590028D-03
 -0.23910551D-03  0.21375439D-12 -0.30157282D-04 -0.43520735D-03  0.12011244D-11
 -0.54425888D-14  0.27082397D-04 -0.64114129D-04  0.14072481D-12 -0.32929695D-03
  0.27784525D-03 -0.12439705D-12  0.24804976D-03 -0.85502863D-04 -0.42921163D-12
MO    4     MO 0.0        OCC NO =    2.0000089  ORB. ENERGY =    0.000000
 -0.38600727D-09 -0.71959531D-09 -0.12162141D-08 -0.18281966D-08 -0.22456121D-08
 -0.18952174D-08 -0.71265124D-09 -0.52926050D-13 -0.39558944D-12 -0.14784080D-11
 -0.41245283D-11 -0.55257307D-11  0.65248577D-11 -0.30748110D-10 -0.46600745D-12
 -0.13677441D-12 -0.39123163D-02 -0.36680452D-02 -0.26118667D-02  0.86695668D-13
  0.81282699D-13  0.57878124D-13  0.14795358D-10  0.13871589D-10  0.98773974D-11
 -0.78796270D-03  0.35135250D-12 -0.11455811D-11 -0.12420654D-03 -0.77076076D-13
 -0.11158335D-11  0.20409460D-05  0.64048774D-14 -0.13085913D-14  0.13924950D-11
 -0.11546460D-11 -0.23784906D-12 -0.42235297D-14 -0.99361534D-03 -0.50231849D-12
 -0.39833644D-12  0.52354480D-12 -0.12520836D-12  0.24262164D-14  0.45025227D-03
 -0.42394566D-12  0.16658459D-13  0.93596083D-13 -0.11025454D-12  0.57770520D-15
 -0.28188631D-04  0.29822295D-13  0.99669749D-04  0.31050944D-13  0.66227010D-13
  0.44808612D-04 -0.39497131D-12 -0.62644517D-12 -0.34381786D-03  0.30181847D-12
  0.42776414D-12  0.13431534D-13 -0.30925573D-04 -0.39262835D-13  0.30235808D-12
 -0.73379997D-04 -0.12099243D-13 -0.72980574D-14  0.16615672D-03  0.12988775D-12
 -0.89977618D-12 -0.24726828D-14  0.14998611D-09  0.28041414D-09  0.48463898D-09
  0.78388357D-09  0.11848138D-08  0.16317339D-08  0.19072982D-08  0.16484161D-08
  0.76932437D-09  0.10422657D-09 -0.76232816D-12  0.23404858D-11  0.30086709D-10
  0.10975199D-09  0.37030050D-09  0.81334605D-09  0.10506213D-08 -0.16884377D-09
 -0.14163986D-08 -0.77730127D-09  0.92818667D-14  0.10572623D-12  0.21952577D-12
  0.60364012D-12 -0.78268874D-13 -0.27293857D-11 -0.68075214D-11  0.56351676D-11
 -0.46947439D-10  0.35605787D-11  0.21577268D-12  0.97276881D+01  0.12762174D+02
  0.13997342D+02  0.11516592D+02  0.60708923D+01  0.15795320D+01 -0.33229297D-09
 -0.43594948D-09 -0.47814223D-09 -0.39340102D-09 -0.20737865D-09 -0.53956024D-10
  0.11497799D-07  0.15084458D-07  0.16544386D-07  0.13612223D-07  0.71755898D-08
  0.18669535D-08  0.57110755D-04  0.20500266D-02  0.32524186D-02  0.38621473D-02
  0.58444469D-03 -0.42534789D-02 -0.28788871D-14 -0.10333947D-12 -0.16395066D-12
 -0.19468638D-12 -0.29461180D-13  0.21441295D-12  0.90615463D-13  0.32526992D-11
  0.51604889D-11  0.61279222D-11  0.92731615D-12 -0.67488332D-11  0.73251673D-01
 -0.22620169D-11  0.90044618D-10  0.18319853D-04 -0.64041740D-14 -0.83902433D-12
 -0.17831156D-04 -0.26429893D-14 -0.58120219D-14 -0.57721850D-12 -0.42890161D-12
  0.10061201D-11 -0.10527789D-15  0.56825203D-03 -0.23255172D-13  0.14955671D-12
  0.62546740D-12 -0.77502411D-12  0.10982883D-14 -0.28195677D-03  0.20499824D-13
 -0.11949593D-13 -0.18604730D-13  0.30554324D-13 -0.63665233D-17 -0.20487418D-04
  0.46191399D-14  0.82567283D-04 -0.96612505D-16 -0.21685879D-12 -0.31573944D-04
 -0.10723185D-13  0.55173891D-12 -0.21612791D-03  0.11013023D-13  0.98837449D-13
  0.61294469D-15  0.87187633D-05 -0.25124695D-14 -0.56706694D-13  0.27669589D-04
  0.21159804D-14  0.11016421D-12 -0.53825879D-04  0.54214280D-14  0.59955868D-13
 -0.20030987D-15 -0.26352014D-09 -0.49120200D-09 -0.83269682D-09 -0.12608156D-08
 -0.15762972D-08 -0.13558983D-08 -0.52001616D-09 -0.17366846D-13 -0.22990452D-12
 -0.83505504D-12 -0.24771751D-11 -0.28544439D-11  0.34671473D-11 -0.25100515D-10
 -0.20721929D-11 -0.44775175D-12  0.64496093D-02  0.63075770D-02  0.41676828D-02
  0.32430210D-12  0.31716037D-12  0.20956126D-12 -0.43055708D-11 -0.42107542D-11
 -0.27822233D-11  0.15175308D-02  0.98516848D-12 -0.61903102D-12  0.34987730D-03
 -0.47018313D-13 -0.74958708D-12 -0.90957850D-06 -0.12363713D-13 -0.75511959D-13
  0.43966331D-12 -0.52736798D-12  0.87704673D-13 -0.36435321D-03 -0.14017223D-03
 -0.96641273D-12 -0.34456377D-12  0.27918255D-12  0.65381218D-13  0.10393692D-03
 -0.59588044D-04  0.10167979D-11 -0.13411657D-12  0.65162739D-13  0.68953836D-13
  0.10978484D-04  0.81119788D-04 -0.25586585D-12  0.43106989D-05 -0.64486174D-13
 -0.44701414D-12 -0.11589066D-03  0.13854591D-12  0.25598650D-12  0.10295856D-03
  0.54912612D-13  0.10850559D-11 -0.60158110D-03 -0.30935575D-05  0.31984179D-13
  0.12129075D-12  0.71572588D-04 -0.49889111D-12 -0.48845769D-12 -0.62291916D-04
  0.40293857D-12  0.12458544D-12  0.21604707D-03  0.37945011D-09  0.70729566D-09
  0.11990237D-08  0.18154841D-08  0.22697549D-08  0.19523963D-08  0.74878599D-09
  0.41528824D-13  0.54976387D-12  0.19968424D-11  0.59235953D-11  0.68257472D-11
 -0.82908866D-11  0.34490179D-10 -0.24335285D-11 -0.28203970D-12  0.64496093D-02
  0.63075770D-02  0.41676828D-02 -0.15313836D-10 -0.14976598D-10 -0.98956712D-11
  0.64280644D-11  0.62865066D-11  0.41537607D-11  0.15175308D-02 -0.69862788D-12
 -0.53038890D-12  0.34987730D-03 -0.16996360D-12 -0.18654344D-12 -0.90957850D-06
 -0.26610152D-13 -0.70710730D-13  0.24044859D-12 -0.25677489D-12  0.16326298D-13
  0.36435321D-03 -0.14017223D-03  0.53918182D-12 -0.11973841D-12 -0.10266146D-12
  0.22239987D-12 -0.10393692D-03 -0.59588044D-04 -0.18496448D-12 -0.20825532D-12
  0.49710647D-13  0.15854467D-12 -0.10978484D-04  0.81119788D-04  0.96774658D-13
  0.43106989D-05  0.47261152D-12 -0.48914435D-12 -0.11589066D-03 -0.14596377D-11
  0.57227312D-12  0.10295856D-03  0.41803109D-13  0.89515993D-12  0.60158110D-03