 Entering Gaussian System, Link 0=/home/bruns/programas/chemistry/gaussian/g09/g09
 Input=GAUSSIAN.com
 Output=GAUSSIAN.log
 Initial command:
 /home/bruns/programas/chemistry/gaussian/g09/l1.exe /home/bruns/programas/chemistry/gaussian/work/Gau-35730.inp -scrdir=/home/bruns/programas/chemistry/gaussian/work/
 Entering Link 1 = /home/bruns/programas/chemistry/gaussian/g09/l1.exe PID=     35732.
  
 Copyright (c) 1988,1990,1992,1993,1995,1998,2003,2009,2010,
            Gaussian, Inc.  All Rights Reserved.
  
 This is part of the Gaussian(R) 09 program.  It is based on
 the Gaussian(R) 03 system (copyright 2003, Gaussian, Inc.),
 the Gaussian(R) 98 system (copyright 1998, Gaussian, Inc.),
 the Gaussian(R) 94 system (copyright 1995, Gaussian, Inc.),
 the Gaussian 92(TM) system (copyright 1992, Gaussian, Inc.),
 the Gaussian 90(TM) system (copyright 1990, Gaussian, Inc.),
 the Gaussian 88(TM) system (copyright 1988, Gaussian, Inc.),
 the Gaussian 86(TM) system (copyright 1986, Carnegie Mellon
 University), and the Gaussian 82(TM) system (copyright 1983,
 Carnegie Mellon University). Gaussian is a federally registered
 trademark of Gaussian, Inc.
  
 This software contains proprietary and confidential information,
 including trade secrets, belonging to Gaussian, Inc.
  
 This software is provided under written license and may be
 used, copied, transmitted, or stored only in accord with that
 written license.
  
 The following legend is applicable only to US Government
 contracts under FAR:
  
                    RESTRICTED RIGHTS LEGEND
  
 Use, reproduction and disclosure by the US Government is
 subject to restrictions as set forth in subparagraphs (a)
 and (c) of the Commercial Computer Software - Restricted
 Rights clause in FAR 52.227-19.
  
 Gaussian, Inc.
 340 Quinnipiac St., Bldg. 40, Wallingford CT 06492
  
  
 ---------------------------------------------------------------
 Warning -- This program may not be used in any manner that
 competes with the business of Gaussian, Inc. or will provide
 assistance to any competitor of Gaussian, Inc.  The licensee
 of this program is prohibited from giving any competitor of
 Gaussian, Inc. access to this program.  By using this program,
 the user acknowledges that Gaussian, Inc. is engaged in the
 business of creating and licensing software in the field of
 computational chemistry and represents and warrants to the
 licensee that it is not a competitor of Gaussian, Inc. and that
 it will not use this program in any manner prohibited above.
 ---------------------------------------------------------------
  

 Cite this work as:
 Gaussian 09, Revision B.01,
 M. J. Frisch, G. W. Trucks, H. B. Schlegel, G. E. Scuseria, 
 M. A. Robb, J. R. Cheeseman, G. Scalmani, V. Barone, B. Mennucci, 
 G. A. Petersson, H. Nakatsuji, M. Caricato, X. Li, H. P. Hratchian, 
 A. F. Izmaylov, J. Bloino, G. Zheng, J. L. Sonnenberg, M. Hada, 
 M. Ehara, K. Toyota, R. Fukuda, J. Hasegawa, M. Ishida, T. Nakajima, 
 Y. Honda, O. Kitao, H. Nakai, T. Vreven, J. A. Montgomery, Jr., 
 J. E. Peralta, F. Ogliaro, M. Bearpark, J. J. Heyd, E. Brothers, 
 K. N. Kudin, V. N. Staroverov, T. Keith, R. Kobayashi, J. Normand, 
 K. Raghavachari, A. Rendell, J. C. Burant, S. S. Iyengar, J. Tomasi, 
 M. Cossi, N. Rega, J. M. Millam, M. Klene, J. E. Knox, J. B. Cross, 
 V. Bakken, C. Adamo, J. Jaramillo, R. Gomperts, R. E. Stratmann, 
 O. Yazyev, A. J. Austin, R. Cammi, C. Pomelli, J. W. Ochterski, 
 R. L. Martin, K. Morokuma, V. G. Zakrzewski, G. A. Voth, 
 P. Salvador, J. J. Dannenberg, S. Dapprich, A. D. Daniels, 
 O. Farkas, J. B. Foresman, J. V. Ortiz, J. Cioslowski, 
 and D. J. Fox, Gaussian, Inc., Wallingford CT, 2010.
 
 ******************************************
 Gaussian 09:  EM64L-G09RevB.01 12-Aug-2010
                27-Nov-2021 
 ******************************************
 %nproc=8
 Will use up to    8 processors via shared memory.
 %mem=8GB
 -----------------------------------------------------
 # qcisd/aug-cc-pvtz nosymm density=current output=wfn
 -----------------------------------------------------
 1/30=1,38=1/1;
 2/12=2,15=1,17=6,18=5,40=1/2;
 3/5=16,6=1,7=10,11=9,16=1,25=1,30=1,71=1/1,2,3;
 4//1;
 5/5=2,38=5/2;
 8/6=4,9=120000,10=1/1,4;
 9/5=8,15=1/13;
 11/28=-7,31=1,32=3,42=3/11;
 10/5=6,13=10,31=1/2;
 6/7=2,8=2,9=2,10=2,22=-1,31=1/1;
 99/5=1,6=1100,9=1/99;
 -----------------
 f2cs-wavefunction
 -----------------
 Symbolic Z-matrix:
 Charge =  0 Multiplicity = 1
 C                     0.        0.       -0.52035 
 S                     0.        0.        1.07852 
 F                    -0.01     -1.05522  -1.29554 
 F                     0.        1.05522  -1.29554 
 
                          Input orientation:                          
 ---------------------------------------------------------------------
 Center     Atomic      Atomic             Coordinates (Angstroms)
 Number     Number       Type             X           Y           Z
 ---------------------------------------------------------------------
      1          6           0        0.000000    0.000000   -0.520349
      2         16           0        0.000000    0.000000    1.078525
      3          9           0       -0.010000   -1.055221   -1.295538
      4          9           0        0.000000    1.055221   -1.295538
 ---------------------------------------------------------------------
                    Distance matrix (angstroms):
                    1          2          3          4
     1  C    0.000000
     2  S    1.598874   0.000000
     3  F    1.309393   2.598031   0.000000
     4  F    1.309355   2.598012   2.110466   0.000000
 Symmetry turned off by external request.
 Stoichiometry    CF2S
 Framework group  C1[X(CF2S)]
 Deg. of freedom     6
 Full point group                 C1      NOp   1
 Rotational constants (GHZ):     11.9446194      5.1130607      3.5804203
 Standard basis: Aug-CC-pVTZ (5D, 7F)
 Integral buffers will be    131072 words long.
 Raffenetti 1 integral format.
 Two-electron integral symmetry is turned off.
   188 basis functions,   330 primitive gaussians,   224 cartesian basis functions
    20 alpha electrons       20 beta electrons
       nuclear repulsion energy       154.3917765627 Hartrees.
 NAtoms=    4 NActive=    4 NUniq=    4 SFac= 1.00D+00 NAtFMM=   50 NAOKFM=F Big=F
 One-electron integrals computed using PRISM.
 NBasis=   188 RedAO= T  NBF=   188
 NBsUse=   188 1.00D-06 NBFU=   188
 Harris functional with IExCor=  205 diagonalized for initial guess.
 ExpMin= 3.51D-02 ExpMax= 3.74D+05 ExpMxC= 1.18D+03 IAcc=3 IRadAn=         0 AccDes= 0.00D+00
 HarFok:  IExCor=  205 AccDes= 0.00D+00 IRadAn=         0 IDoV= 1
 ScaDFX=  1.000000  1.000000  1.000000  1.000000
 FoFCou: FMM=F IPFlag=           0 FMFlag=      100000 FMFlg1=           0
         NFxFlg=           0 DoJE=T BraDBF=F KetDBF=T FulRan=T
         Omega=  0.000000  0.000000  1.000000  0.000000  0.000000 ICntrl=     500 IOpCl=  0
         NMat0=    1 NMatS0=    1 NMatT0=    0 NMatD0=    1 NMtDS0=    0 NMtDT0=    0
         I1Cent=           4 NGrid=           0.
 Symmetry not used in FoFCou.
 Requested convergence on RMS density matrix=1.00D-08 within 128 cycles.
 Requested convergence on MAX density matrix=1.00D-06.
 Requested convergence on             energy=1.00D-06.
 No special actions if energy rises.
 Keep R1 ints in memory in canonical form, NReq=323399632.
 SCF Done:  E(RHF) =  -634.356864515     A.U. after   12 cycles
             Convg  =    0.7680D-08             -V/T =  2.0005
 ExpMin= 3.51D-02 ExpMax= 3.74D+05 ExpMxC= 1.18D+03 IAcc=3 IRadAn=         5 AccDes= 0.00D+00
 HarFok:  IExCor=  205 AccDes= 0.00D+00 IRadAn=         5 IDoV=-2
 ScaDFX=  1.000000  1.000000  1.000000  1.000000
 DSYEVD returned Info=          93 IAlg= 4 N=    46 NDim=    46 NE2=    21472498 trying DSYEV.
 Range of M.O.s used for correlation:     9   188
 NBasis=   188 NAE=    20 NBE=    20 NFC=     8 NFV=     0
 NROrb=    180 NOA=    12 NOB=    12 NVA=   168 NVB=   168

 **** Warning!!: The largest alpha MO coefficient is  0.26860367D+02

 Semi-Direct transformation.
 ModeAB=           2 MOrb=            12 LenV=    1072746531
 LASXX=     33405819 LTotXX=    33405819 LenRXX=    33405819
 LTotAB=    33954012 MaxLAS=    54432000 LenRXY=    54432000
 NonZer=    66811638 LenScr=   100987392 LnRSAI=           0
 LnScr1=           0 LExtra=           0 Total=    188825211
 MaxDsk=          -1 SrtSym=           F ITran=            4
 JobTyp=0 Pass  1:  I=   1 to  12.
 (rs|ai) integrals will be sorted in core.
 Spin components of T(2) and E(2):
     alpha-alpha T2 =       0.3014372613D-01 E2=     -0.1104085656D+00
     alpha-beta  T2 =       0.1598248790D+00 E2=     -0.6187207655D+00
     beta-beta   T2 =       0.3014372613D-01 E2=     -0.1104085656D+00
 ANorm=    0.1104586951D+01
 E2 =    -0.8395378966D+00 EUMP2 =    -0.63519640241145D+03
 R2 and R3 integrals will be kept in memory, NReq=   640760400.
 Iterations=  50 Convergence= 0.100D-07
 Iteration Nr.   1
 **********************
 DD1Dir will call FoFMem   1 times, MxPair=       156
 NAB=    78 NAA=     0 NBB=     0.
 MP4(R+Q)=  0.19353126D-01
 E3=       -0.33848848D-02        EUMP3=      -0.63519978730D+03
 E4(DQ)=    0.24271352D-02        UMP4(DQ)=   -0.63519736016D+03
 E4(SDQ)=  -0.84307114D-02        UMP4(SDQ)=  -0.63520821801D+03
 DE(Corr)= -0.82356966     E(Corr)=     -635.18043417    
 NORM(A)=   0.11038532D+01
 Iteration Nr.   2
 **********************
 DD1Dir will call FoFMem   1 times, MxPair=       156
 NAB=    78 NAA=     0 NBB=     0.
 DE(Corr)= -0.84925437     E(CORR)=     -635.20611888     Delta=-2.57D-02
 NORM(A)=   0.11127847D+01
 Iteration Nr.   3
 **********************
 DD1Dir will call FoFMem   1 times, MxPair=       156
 NAB=    78 NAA=     0 NBB=     0.
 DE(Corr)= -0.84758012     E(CORR)=     -635.20444463     Delta= 1.67D-03
 NORM(A)=   0.11156268D+01
 Iteration Nr.   4
 **********************
 DD1Dir will call FoFMem   1 times, MxPair=       156
 NAB=    78 NAA=     0 NBB=     0.
 DE(Corr)= -0.85011135     E(CORR)=     -635.20697586     Delta=-2.53D-03
 NORM(A)=   0.11167379D+01
 Iteration Nr.   5
 **********************
 DD1Dir will call FoFMem   1 times, MxPair=       156
 NAB=    78 NAA=     0 NBB=     0.
 DE(Corr)= -0.85041258     E(CORR)=     -635.20727710     Delta=-3.01D-04
 NORM(A)=   0.11170639D+01
 Iteration Nr.   6
 **********************
 DD1Dir will call FoFMem   1 times, MxPair=       156
 NAB=    78 NAA=     0 NBB=     0.
 DE(Corr)= -0.85045207     E(CORR)=     -635.20731658     Delta=-3.95D-05
 NORM(A)=   0.11171124D+01
 Iteration Nr.   7
 **********************
 DD1Dir will call FoFMem   1 times, MxPair=       156
 NAB=    78 NAA=     0 NBB=     0.
 DE(Corr)= -0.85045637     E(CORR)=     -635.20732088     Delta=-4.30D-06
 NORM(A)=   0.11171122D+01
 Iteration Nr.   8
 **********************
 DD1Dir will call FoFMem   1 times, MxPair=       156
 NAB=    78 NAA=     0 NBB=     0.
 DE(Corr)= -0.85045499     E(CORR)=     -635.20731950     Delta= 1.38D-06
 NORM(A)=   0.11171174D+01
 Iteration Nr.   9
 **********************
 DD1Dir will call FoFMem   1 times, MxPair=       156
 NAB=    78 NAA=     0 NBB=     0.
 DE(Corr)= -0.85045467     E(CORR)=     -635.20731919     Delta= 3.12D-07
 NORM(A)=   0.11171175D+01
 Iteration Nr.  10
 **********************
 DD1Dir will call FoFMem   1 times, MxPair=       156
 NAB=    78 NAA=     0 NBB=     0.
 DE(Corr)= -0.85045477     E(CORR)=     -635.20731928     Delta=-9.60D-08
 NORM(A)=   0.11171190D+01
 Iteration Nr.  11
 **********************
 DD1Dir will call FoFMem   1 times, MxPair=       156
 NAB=    78 NAA=     0 NBB=     0.
 DE(Corr)= -0.85045550     E(CORR)=     -635.20732002     Delta=-7.33D-07
 NORM(A)=   0.11171204D+01
 Iteration Nr.  12
 **********************
 DD1Dir will call FoFMem   1 times, MxPair=       156
 NAB=    78 NAA=     0 NBB=     0.
 DE(Corr)= -0.85045574     E(CORR)=     -635.20732025     Delta=-2.38D-07
 NORM(A)=   0.11171211D+01
 Iteration Nr.  13
 **********************
 DD1Dir will call FoFMem   1 times, MxPair=       156
 NAB=    78 NAA=     0 NBB=     0.
 DE(Corr)= -0.85045600     E(CORR)=     -635.20732052     Delta=-2.64D-07
 NORM(A)=   0.11171216D+01
 Iteration Nr.  14
 **********************
 DD1Dir will call FoFMem   1 times, MxPair=       156
 NAB=    78 NAA=     0 NBB=     0.
 DE(Corr)= -0.85045606     E(CORR)=     -635.20732058     Delta=-5.94D-08
 NORM(A)=   0.11171217D+01
 Iteration Nr.  15
 **********************
 DD1Dir will call FoFMem   1 times, MxPair=       156
 NAB=    78 NAA=     0 NBB=     0.
 DE(Corr)= -0.85045610     E(CORR)=     -635.20732062     Delta=-3.92D-08
 NORM(A)=   0.11171218D+01
 Iteration Nr.  16
 **********************
 DD1Dir will call FoFMem   1 times, MxPair=       156
 NAB=    78 NAA=     0 NBB=     0.
 DE(Corr)= -0.85045611     E(CORR)=     -635.20732063     Delta=-1.08D-08
 NORM(A)=   0.11171218D+01
 Iteration Nr.  17
 **********************
 DD1Dir will call FoFMem   1 times, MxPair=       156
 NAB=    78 NAA=     0 NBB=     0.
 DE(Corr)= -0.85045611     E(CORR)=     -635.20732062     Delta= 4.13D-09
 NORM(A)=   0.11171218D+01
 Iteration Nr.  18
 **********************
 DD1Dir will call FoFMem   1 times, MxPair=       156
 NAB=    78 NAA=     0 NBB=     0.
 DE(Corr)= -0.85045611     E(CORR)=     -635.20732063     Delta=-3.70D-09
 NORM(A)=   0.11171218D+01
 Iteration Nr.  19
 **********************
 DD1Dir will call FoFMem   1 times, MxPair=       156
 NAB=    78 NAA=     0 NBB=     0.
 DE(Corr)= -0.85045611     E(CORR)=     -635.20732062     Delta= 2.87D-09
 NORM(A)=   0.11171218D+01
 Largest amplitude= 8.45D-02

 Z-AMPLITUDE ITERATIONS

 Iteration Nr.   1
 **********************
 DD1Dir will call FoFMem   1 times, MxPair=       156
 NAB=    78 NAA=     0 NBB=     0.
 DE(Z)  -0.82655239D+00          E(Z)=    -0.63518341690D+03
 NORM(A)=   0.11171017D+01
 Iteration Nr.   2
 **********************
 DD1Dir will call FoFMem   1 times, MxPair=       156
 NAB=    78 NAA=     0 NBB=     0.
 DE(Z)  -0.82655235D+00          E(Z)=    -0.63518341687D+03
 NORM(A)=   0.11170184D+01
 Iteration Nr.   3
 **********************
 DD1Dir will call FoFMem   1 times, MxPair=       156
 NAB=    78 NAA=     0 NBB=     0.
 DE(Z)  -0.82655075D+00          E(Z)=    -0.63518341527D+03
 NORM(A)=   0.11170495D+01
 Iteration Nr.   4
 **********************
 DD1Dir will call FoFMem   1 times, MxPair=       156
 NAB=    78 NAA=     0 NBB=     0.
 DE(Z)  -0.82655146D+00          E(Z)=    -0.63518341597D+03
 NORM(A)=   0.11164746D+01
 Iteration Nr.   5
 **********************
 DD1Dir will call FoFMem   1 times, MxPair=       156
 NAB=    78 NAA=     0 NBB=     0.
 DE(Z)  -0.82654123D+00          E(Z)=    -0.63518340575D+03
 NORM(A)=   0.11088845D+01
 Iteration Nr.   6
 **********************
 DD1Dir will call FoFMem   1 times, MxPair=       156
 NAB=    78 NAA=     0 NBB=     0.
 DE(Z)  -0.82641316D+00          E(Z)=    -0.63518327768D+03
 NORM(A)=   0.11088836D+01
 Iteration Nr.   7
 **********************
 DD1Dir will call FoFMem   1 times, MxPair=       156
 NAB=    78 NAA=     0 NBB=     0.
 DE(Z)  -0.82641081D+00          E(Z)=    -0.63518327533D+03
 NORM(A)=   0.11088797D+01
 Iteration Nr.   8
 **********************
 DD1Dir will call FoFMem   1 times, MxPair=       156
 NAB=    78 NAA=     0 NBB=     0.
 DE(Z)  -0.82641166D+00          E(Z)=    -0.63518327617D+03
 NORM(A)=   0.11088794D+01
 Iteration Nr.   9
 **********************
 DD1Dir will call FoFMem   1 times, MxPair=       156
 NAB=    78 NAA=     0 NBB=     0.
 DE(Z)  -0.82641193D+00          E(Z)=    -0.63518327644D+03
 NORM(A)=   0.11088797D+01
 Iteration Nr.  10
 **********************
 DD1Dir will call FoFMem   1 times, MxPair=       156
 NAB=    78 NAA=     0 NBB=     0.
 DE(Z)  -0.82641155D+00          E(Z)=    -0.63518327607D+03
 NORM(A)=   0.11088798D+01
 Iteration Nr.  11
 **********************
 DD1Dir will call FoFMem   1 times, MxPair=       156
 NAB=    78 NAA=     0 NBB=     0.
 DE(Z)  -0.82641179D+00          E(Z)=    -0.63518327631D+03
 NORM(A)=   0.11088799D+01
 Iteration Nr.  12
 **********************
 DD1Dir will call FoFMem   1 times, MxPair=       156
 NAB=    78 NAA=     0 NBB=     0.
 DE(Z)  -0.82641178D+00          E(Z)=    -0.63518327630D+03
 NORM(A)=   0.11088799D+01
 Iteration Nr.  13
 **********************
 DD1Dir will call FoFMem   1 times, MxPair=       156
 NAB=    78 NAA=     0 NBB=     0.
 DE(Z)  -0.82641180D+00          E(Z)=    -0.63518327631D+03
 NORM(A)=   0.11088799D+01
 Iteration Nr.  14
 **********************
 DD1Dir will call FoFMem   1 times, MxPair=       156
 NAB=    78 NAA=     0 NBB=     0.
 DE(Z)  -0.82641180D+00          E(Z)=    -0.63518327631D+03
 NORM(A)=   0.11088799D+01
 Discarding MO integrals.
          Differentiating once with respect to electric field.
                with respect to dipole field.
          Electric field/nuclear overlap derivatives assumed to be zero.
          Keep R1 ints in memory in canonical form, NReq=319473719.
          There are     1 degrees of freedom in the 1st order CPHF.  IDoFFX=0.
 LinEq1:  Iter=  0 NonCon=     1 RMS=2.85D-03 Max=7.71D-02
 AX will form     1 AO Fock derivatives at one time.
 LinEq1:  Iter=  1 NonCon=     1 RMS=8.84D-04 Max=1.07D-02
 LinEq1:  Iter=  2 NonCon=     1 RMS=4.03D-04 Max=1.29D-02
 LinEq1:  Iter=  3 NonCon=     1 RMS=1.09D-04 Max=2.39D-03
 LinEq1:  Iter=  4 NonCon=     1 RMS=2.69D-05 Max=6.35D-04
 LinEq1:  Iter=  5 NonCon=     1 RMS=6.77D-06 Max=1.03D-04
 LinEq1:  Iter=  6 NonCon=     1 RMS=2.67D-06 Max=5.69D-05
 LinEq1:  Iter=  7 NonCon=     1 RMS=8.32D-07 Max=1.52D-05
 LinEq1:  Iter=  8 NonCon=     1 RMS=1.67D-07 Max=2.33D-06
 LinEq1:  Iter=  9 NonCon=     1 RMS=3.13D-08 Max=3.73D-07
 LinEq1:  Iter= 10 NonCon=     1 RMS=6.22D-09 Max=6.74D-08
 LinEq1:  Iter= 11 NonCon=     1 RMS=9.89D-10 Max=1.58D-08
 LinEq1:  Iter= 12 NonCon=     1 RMS=1.48D-10 Max=1.97D-09
 LinEq1:  Iter= 13 NonCon=     0 RMS=3.59D-11 Max=4.29D-10
 Linear equations converged to 1.000D-10 1.000D-09 after    13 iterations.
 End of Minotr Frequency-dependent properties file   721 does not exist.
 End of Minotr Frequency-dependent properties file   722 does not exist.

 **********************************************************************

            Population analysis using the QCI/CC density.

 **********************************************************************

     Natural Orbital Coefficients:
                           1         2         3         4         5
     Eigenvalues --     2.00003   2.00002   2.00001   2.00001   2.00000
   1 1   C  1S          0.00000  -0.17768   0.59431   0.01901   0.48275
   2        2S          0.00000   0.00325  -0.00925  -0.00026  -0.00495
   3        3S          0.00000  -0.00680   0.02393   0.00077   0.02018
   4        4S          0.00000  -0.00905   0.00229   0.00017  -0.00205
   5        5S          0.00000  -0.00083   0.00195   0.00008   0.00044
   6        6PX        -0.00001   0.00000   0.00004  -0.00182   0.00000
   7        6PY        -0.00139   0.00000   0.00000   0.00001   0.00000
   8        6PZ         0.00000   0.00135  -0.00335  -0.00008  -0.00038
   9        7PX        -0.00002   0.00000   0.00005  -0.00184   0.00000
  10        7PY        -0.00364   0.00000   0.00000   0.00001   0.00000
  11        7PZ         0.00000  -0.00098   0.00139   0.00005   0.00160
  12        8PX         0.00003  -0.00002   0.00004  -0.00120   0.00000
  13        8PY         0.00601   0.00000   0.00000   0.00001   0.00000
  14        8PZ         0.00000  -0.00923   0.00527   0.00031  -0.00110
  15        9PX         0.00000   0.00000   0.00000   0.00009   0.00000
  16        9PY        -0.00061   0.00000   0.00000   0.00000   0.00000
  17        9PZ         0.00000   0.00035   0.00029   0.00001   0.00054
  18       10D 0        0.00000  -0.00008   0.00007   0.00000   0.00019
  19       10D+1        0.00000   0.00000   0.00001  -0.00030   0.00000
  20       10D-1       -0.00030   0.00000   0.00000   0.00000   0.00000
  21       10D+2        0.00000   0.00011  -0.00037  -0.00001  -0.00019
  22       10D-2        0.00000   0.00000   0.00000   0.00000   0.00000
  23       11D 0        0.00000  -0.00116   0.00018   0.00000  -0.00032
  24       11D+1        0.00000   0.00000  -0.00004   0.00120  -0.00001
  25       11D-1        0.00104   0.00000   0.00000  -0.00001   0.00000
  26       11D+2        0.00000  -0.00013   0.00118   0.00003   0.00082
  27       11D-2        0.00000   0.00000  -0.00001   0.00000  -0.00001
  28       12D 0        0.00000  -0.00270   0.00163   0.00008  -0.00137
  29       12D+1       -0.00002   0.00000   0.00002  -0.00054   0.00000
  30       12D-1       -0.00446   0.00000   0.00000   0.00000   0.00000
  31       12D+2        0.00000  -0.00088   0.00057   0.00003  -0.00054
  32       12D-2       -0.00002   0.00001  -0.00001   0.00000   0.00001
  33       13F 0        0.00000  -0.00005  -0.00001   0.00000   0.00041
  34       13F+1        0.00000   0.00000   0.00000  -0.00018   0.00000
  35       13F-1       -0.00055   0.00000   0.00000   0.00000   0.00000
  36       13F+2        0.00000  -0.00010   0.00016   0.00001   0.00002
  37       13F-2        0.00000   0.00000   0.00000   0.00000   0.00000
  38       13F+3        0.00000   0.00000   0.00000   0.00002   0.00000
  39       13F-3        0.00005   0.00000   0.00000   0.00000   0.00000
  40       14F 0        0.00000   0.00062  -0.00195  -0.00004  -0.00025
  41       14F+1        0.00001   0.00000  -0.00002   0.00089  -0.00001
  42       14F-1        0.00290   0.00000   0.00000   0.00000   0.00000
  43       14F+2        0.00000   0.00066  -0.00151  -0.00005  -0.00089
  44       14F-2        0.00000  -0.00001   0.00001   0.00000   0.00001
  45       14F+3        0.00000   0.00000   0.00000   0.00017  -0.00001
  46       14F-3        0.00003   0.00000   0.00000   0.00000   0.00000
  47 2   S  1S          0.00000  -0.21706  -0.16977  -0.00358   0.07188
  48        2S         -0.00001   0.74221   0.58695   0.01238  -0.24952
  49        3S          0.00000  -0.02144  -0.00890  -0.00017   0.00218
  50        4S          0.00000   0.04959   0.04234   0.00090  -0.01822
  51        5S          0.00000   0.01001  -0.01126  -0.00046   0.00417
  52        6S          0.00000   0.00100  -0.00257  -0.00013  -0.00081
  53        7PX         0.00463   0.00210  -0.02532   0.97234  -0.00350
  54        7PY         0.97646   0.00001   0.00012  -0.00461   0.00002
  55        7PZ        -0.00001   0.62351  -0.50339  -0.01205   0.43823
  56        8PX        -0.00010  -0.00003   0.00033  -0.01225   0.00004
  57        8PY        -0.02022   0.00000   0.00000   0.00006   0.00000
  58        8PZ         0.00000  -0.01235   0.00873   0.00024  -0.00447
  59        9PX         0.00027   0.00012  -0.00159   0.06128  -0.00023
  60        9PY         0.05654   0.00000   0.00001  -0.00029   0.00000
  61        9PZ         0.00000   0.03855  -0.03309  -0.00081   0.02891
  62       10PX        -0.00002   0.00000   0.00000   0.00020  -0.00001
  63       10PY        -0.00421   0.00000   0.00000   0.00000   0.00000
  64       10PZ         0.00000  -0.00881   0.00483   0.00020  -0.00069
  65       11PX         0.00000   0.00000   0.00002  -0.00082   0.00000
  66       11PY        -0.00033   0.00000   0.00000   0.00000   0.00000
  67       11PZ         0.00000  -0.00029   0.00029   0.00002  -0.00003
  68       12D 0        0.00000   0.00245  -0.00292  -0.00008   0.00107
  69       12D+1        0.00002   0.00000  -0.00005   0.00201  -0.00001
  70       12D-1        0.00336   0.00000   0.00000  -0.00001   0.00000
  71       12D+2        0.00000  -0.00039   0.00026   0.00001   0.00029
  72       12D-2        0.00000   0.00000   0.00000   0.00000   0.00000
  73       13D 0        0.00000   0.00019   0.00028   0.00000  -0.00069
  74       13D+1        0.00000   0.00000   0.00000  -0.00013   0.00000
  75       13D-1       -0.00028   0.00000   0.00000   0.00000   0.00000
  76       13D+2        0.00000   0.00026   0.00013   0.00000  -0.00008
  77       13D-2        0.00000   0.00000   0.00000   0.00000   0.00000
  78       14D 0        0.00000   0.00141  -0.00061  -0.00003   0.00010
  79       14D+1        0.00000   0.00000   0.00001  -0.00039   0.00000
  80       14D-1       -0.00081   0.00000   0.00000   0.00000   0.00000
  81       14D+2        0.00000   0.00024  -0.00002   0.00000   0.00014
  82       14D-2        0.00001   0.00000   0.00000   0.00000   0.00000
  83       15F 0        0.00000  -0.00022   0.00029   0.00001   0.00033
  84       15F+1        0.00000   0.00000   0.00001  -0.00023   0.00000
  85       15F-1       -0.00022   0.00000   0.00000   0.00000   0.00000
  86       15F+2        0.00000   0.00011  -0.00014   0.00000   0.00003
  87       15F-2        0.00000   0.00000   0.00000   0.00000   0.00000
  88       15F+3        0.00000   0.00000   0.00000   0.00009   0.00000
  89       15F-3        0.00006   0.00000   0.00000   0.00000   0.00000
  90       16F 0        0.00000  -0.00046   0.00057   0.00001  -0.00046
  91       16F+1        0.00000   0.00000   0.00001  -0.00047   0.00000
  92       16F-1       -0.00103   0.00000   0.00000   0.00000   0.00000
  93       16F+2        0.00000  -0.00001  -0.00017   0.00000  -0.00026
  94       16F-2        0.00000   0.00000   0.00000   0.00000   0.00000
  95       16F+3        0.00000   0.00000   0.00000  -0.00013   0.00000
  96       16F-3       -0.00012   0.00000   0.00000   0.00000   0.00000
  97 3   F  1S          0.00831   0.01088  -0.08475  -0.00280  -0.48455
  98        2S          0.00019  -0.00044   0.00235   0.00007   0.00838
  99        3S          0.00045   0.00040  -0.00338  -0.00011  -0.02060
 100        4S          0.00030  -0.00133   0.00375   0.00010   0.00181
 101        5S          0.00719  -0.00214   0.00122   0.00007  -0.00032
 102        6PX         0.00000   0.00000  -0.00003   0.00095  -0.00002
 103        6PY        -0.00019   0.00002  -0.00069  -0.00003  -0.00171
 104        6PZ        -0.00058  -0.00014  -0.00018  -0.00001  -0.00143
 105        7PX        -0.00001   0.00000  -0.00004   0.00118  -0.00001
 106        7PY        -0.00031  -0.00007  -0.00039  -0.00002  -0.00093
 107        7PZ        -0.00085  -0.00030   0.00017   0.00000  -0.00085
 108        8PX         0.00000   0.00000  -0.00003   0.00127  -0.00001
 109        8PY        -0.00054   0.00002  -0.00020  -0.00002  -0.00111
 110        8PZ        -0.00273  -0.00030   0.00072  -0.00001  -0.00141
 111        9PX         0.00001   0.00000   0.00000  -0.00001   0.00000
 112        9PY         0.00169  -0.00009  -0.00005   0.00000   0.00007
 113        9PZ         0.00021  -0.00110   0.00052   0.00002  -0.00068
 114       10D 0        0.00000   0.00001   0.00000   0.00000   0.00001
 115       10D+1        0.00000   0.00000   0.00000  -0.00001   0.00000
 116       10D-1        0.00001   0.00000   0.00002   0.00000   0.00002
 117       10D+2        0.00000   0.00001  -0.00002   0.00000   0.00002
 118       10D-2        0.00000   0.00000   0.00000  -0.00002   0.00000
 119       11D 0        0.00015   0.00001  -0.00006   0.00000  -0.00003
 120       11D+1        0.00000   0.00000   0.00000  -0.00003   0.00000
 121       11D-1       -0.00007   0.00004  -0.00013  -0.00001  -0.00010
 122       11D+2        0.00004  -0.00001   0.00007   0.00000  -0.00001
 123       11D-2        0.00000   0.00000   0.00000   0.00005   0.00000
 124       12D 0       -0.00046   0.00019  -0.00029  -0.00001  -0.00005
 125       12D+1       -0.00001   0.00000   0.00000   0.00024  -0.00001
 126       12D-1       -0.00084  -0.00007   0.00022  -0.00001  -0.00052
 127       12D+2        0.00040  -0.00017   0.00033   0.00001   0.00020
 128       12D-2        0.00000   0.00000   0.00000   0.00004   0.00000
 129       13F 0       -0.00001  -0.00002   0.00004   0.00000  -0.00001
 130       13F+1        0.00000   0.00000   0.00000   0.00001   0.00000
 131       13F-1        0.00003   0.00001   0.00000   0.00000   0.00002
 132       13F+2       -0.00001  -0.00001   0.00001   0.00000  -0.00004
 133       13F-2        0.00000   0.00000   0.00000  -0.00002   0.00000
 134       13F+3        0.00000   0.00000   0.00000   0.00001   0.00000
 135       13F-3       -0.00002   0.00001  -0.00002   0.00000   0.00001
 136       14F 0        0.00013   0.00006  -0.00009   0.00000   0.00014
 137       14F+1        0.00000   0.00000   0.00000  -0.00003   0.00000
 138       14F-1       -0.00001   0.00003  -0.00014  -0.00001  -0.00019
 139       14F+2        0.00007  -0.00001   0.00012   0.00001   0.00030
 140       14F-2        0.00000   0.00000   0.00000   0.00008  -0.00001
 141       14F+3        0.00000   0.00000   0.00001  -0.00004   0.00000
 142       14F-3        0.00012  -0.00005   0.00015   0.00000   0.00000
 143 4   F  1S         -0.00831   0.01088  -0.08476  -0.00280  -0.48454
 144        2S         -0.00019  -0.00044   0.00235   0.00007   0.00838
 145        3S         -0.00045   0.00040  -0.00338  -0.00011  -0.02059
 146        4S         -0.00030  -0.00133   0.00375   0.00010   0.00181
 147        5S         -0.00719  -0.00214   0.00122   0.00007  -0.00032
 148        6PX         0.00000   0.00000  -0.00003   0.00095   0.00000
 149        6PY        -0.00019  -0.00002   0.00069   0.00002   0.00171
 150        6PZ         0.00058  -0.00014  -0.00018  -0.00001  -0.00143
 151        7PX         0.00000   0.00000  -0.00003   0.00118   0.00000
 152        7PY        -0.00031   0.00007   0.00039   0.00001   0.00093
 153        7PZ         0.00085  -0.00030   0.00017   0.00000  -0.00085
 154        8PX         0.00000   0.00000  -0.00002   0.00127   0.00000
 155        8PY        -0.00054  -0.00002   0.00020   0.00000   0.00111
 156        8PZ         0.00273  -0.00030   0.00072  -0.00001  -0.00141
 157        9PX         0.00000   0.00000   0.00000  -0.00001   0.00000
 158        9PY         0.00169   0.00009   0.00005   0.00000  -0.00007
 159        9PZ        -0.00021  -0.00110   0.00052   0.00002  -0.00068
 160       10D 0        0.00000   0.00001   0.00000   0.00000   0.00001
 161       10D+1        0.00000   0.00000   0.00000  -0.00001   0.00000
 162       10D-1        0.00001   0.00000  -0.00002   0.00000  -0.00002
 163       10D+2        0.00000   0.00001  -0.00002   0.00000   0.00002
 164       10D-2        0.00000   0.00000   0.00000   0.00002   0.00000
 165       11D 0       -0.00015   0.00001  -0.00006   0.00000  -0.00003
 166       11D+1        0.00000   0.00000   0.00000  -0.00003   0.00000
 167       11D-1       -0.00007  -0.00004   0.00013   0.00001   0.00010
 168       11D+2       -0.00004  -0.00001   0.00007   0.00000  -0.00001
 169       11D-2        0.00000   0.00000   0.00000  -0.00005   0.00000
 170       12D 0        0.00046   0.00019  -0.00029  -0.00001  -0.00005
 171       12D+1        0.00000   0.00000   0.00000   0.00024   0.00000
 172       12D-1       -0.00084   0.00007  -0.00022   0.00000   0.00052
 173       12D+2       -0.00040  -0.00017   0.00033   0.00001   0.00020
 174       12D-2        0.00000   0.00000   0.00000  -0.00004   0.00000
 175       13F 0        0.00001  -0.00002   0.00004   0.00000  -0.00001
 176       13F+1        0.00000   0.00000   0.00000   0.00001   0.00000
 177       13F-1        0.00003  -0.00001   0.00000   0.00000  -0.00002
 178       13F+2        0.00001  -0.00001   0.00001   0.00000  -0.00004
 179       13F-2        0.00000   0.00000   0.00000   0.00002   0.00000
 180       13F+3        0.00000   0.00000   0.00000   0.00001   0.00000
 181       13F-3       -0.00002  -0.00001   0.00002   0.00000  -0.00001
 182       14F 0       -0.00013   0.00006  -0.00009   0.00000   0.00014
 183       14F+1        0.00000   0.00000   0.00000  -0.00003   0.00000
 184       14F-1       -0.00001  -0.00003   0.00014   0.00001   0.00019
 185       14F+2       -0.00007  -0.00001   0.00012   0.00001   0.00030
 186       14F-2        0.00000   0.00000   0.00000  -0.00008   0.00000
 187       14F+3        0.00000   0.00000   0.00000  -0.00004   0.00000
 188       14F-3        0.00012   0.00005  -0.00015   0.00000   0.00000
                           6         7         8         9        10
     Eigenvalues --     2.00000   2.00000   2.00000   1.98612   1.98546
   1 1   C  1S         -0.00003   0.58705   0.00016  -0.04808   0.00000
   2        2S          0.00000  -0.00556  -0.00003   0.09894  -0.00001
   3        3S          0.00000   0.02379   0.00002   0.02060   0.00000
   4        4S          0.00000  -0.00203  -0.00004   0.01128   0.00000
   5        5S          0.00000   0.00065  -0.00007   0.00489   0.00000
   6        6PX         0.00000   0.00000   0.00000  -0.00019   0.00016
   7        6PY        -0.00002   0.00000   0.00000   0.00001   0.03331
   8        6PZ         0.00000  -0.00095   0.00001  -0.02072   0.00000
   9        7PX         0.00000   0.00000   0.00000  -0.00022   0.00013
  10        7PY         0.00072   0.00000   0.00000   0.00001   0.02711
  11        7PZ         0.00000   0.00018  -0.00013  -0.02473   0.00000
  12        8PX         0.00000   0.00001   0.00000   0.00016  -0.00008
  13        8PY        -0.00059   0.00000   0.00000   0.00000  -0.01793
  14        8PZ         0.00000   0.00218   0.00003   0.03657   0.00000
  15        9PX         0.00000   0.00000   0.00000  -0.00003   0.00001
  16        9PY         0.00033   0.00000   0.00000   0.00000   0.00139
  17        9PZ         0.00000   0.00028  -0.00003   0.00128   0.00000
  18       10D 0        0.00000   0.00023  -0.00001   0.00308   0.00000
  19       10D+1        0.00000   0.00000   0.00000   0.00007  -0.00005
  20       10D-1       -0.00020   0.00000   0.00000   0.00000  -0.01045
  21       10D+2        0.00000  -0.00051   0.00000  -0.00842   0.00000
  22       10D-2        0.00000   0.00000   0.00000   0.00008  -0.00007
  23       11D 0        0.00000  -0.00049  -0.00008   0.00233   0.00000
  24       11D+1       -0.00001   0.00000   0.00000   0.00010  -0.00005
  25       11D-1       -0.00124   0.00000   0.00000   0.00000  -0.01070
  26       11D+2        0.00000   0.00000  -0.00003  -0.01134   0.00000
  27       11D-2       -0.00001   0.00000   0.00000   0.00011  -0.00008
  28       12D 0        0.00000  -0.00014  -0.00002   0.00686   0.00000
  29       12D+1        0.00000   0.00000   0.00000  -0.00001   0.00006
  30       12D-1        0.00064   0.00000   0.00000   0.00000   0.01329
  31       12D+2        0.00000   0.00026   0.00000   0.00846   0.00000
  32       12D-2        0.00000   0.00000   0.00000  -0.00008   0.00008
  33       13F 0        0.00000   0.00061   0.00001   0.00274   0.00000
  34       13F+1        0.00000   0.00000   0.00000  -0.00002   0.00001
  35       13F-1        0.00017   0.00000   0.00000   0.00000   0.00181
  36       13F+2        0.00000   0.00060   0.00001   0.00521   0.00000
  37       13F-2        0.00000  -0.00001   0.00000  -0.00005   0.00003
  38       13F+3        0.00000   0.00000   0.00000   0.00004  -0.00003
  39       13F-3       -0.00021   0.00000   0.00000   0.00000  -0.00214
  40       14F 0        0.00000   0.00053   0.00003   0.00420   0.00000
  41       14F+1        0.00001   0.00000   0.00000   0.00005   0.00002
  42       14F-1        0.00106   0.00000   0.00000   0.00000   0.00422
  43       14F+2        0.00000  -0.00025   0.00001   0.00234   0.00000
  44       14F-2        0.00001   0.00000   0.00000  -0.00002   0.00006
  45       14F+3        0.00000   0.00000   0.00000   0.00001   0.00000
  46       14F-3        0.00013   0.00000   0.00000   0.00000   0.00034
  47 2   S  1S          0.00000   0.04651   0.99640   0.00292   0.00000
  48        2S          0.00001  -0.16292   0.01318  -0.01167   0.00000
  49        3S          0.00000   0.00050   0.00031   0.02249   0.00000
  50        4S          0.00000  -0.01214  -0.00003   0.00241   0.00000
  51        5S          0.00000   0.00117  -0.00005  -0.01837   0.00000
  52        6S          0.00000  -0.00093   0.00005  -0.01149   0.00000
  53        7PX         0.00006  -0.00235   0.00000  -0.00001  -0.00002
  54        7PY         0.01182   0.00001   0.00000   0.00000  -0.00434
  55        7PZ        -0.00002   0.33445   0.00171   0.00758   0.00000
  56        8PX         0.00000   0.00002   0.00000  -0.00003   0.00008
  57        8PY        -0.00034   0.00000   0.00000   0.00000   0.01613
  58        8PZ         0.00000  -0.00288  -0.00018  -0.01279   0.00000
  59        9PX         0.00000  -0.00015   0.00000   0.00001   0.00003
  60        9PY         0.00073   0.00000   0.00000   0.00000   0.00663
  61        9PZ         0.00000   0.02235   0.00019  -0.00742   0.00000
  62       10PX         0.00000  -0.00001   0.00000  -0.00005   0.00002
  63       10PY        -0.00048   0.00000   0.00000   0.00000   0.00416
  64       10PZ         0.00000  -0.00018   0.00003   0.00652   0.00000
  65       11PX         0.00000   0.00000   0.00000   0.00002   0.00000
  66       11PY        -0.00018   0.00000   0.00000   0.00000  -0.00054
  67       11PZ         0.00000   0.00007   0.00000   0.00188   0.00000
  68       12D 0        0.00000   0.00101   0.00008   0.00139   0.00000
  69       12D+1        0.00000   0.00000   0.00000   0.00004   0.00000
  70       12D-1        0.00012   0.00000   0.00000   0.00000   0.00009
  71       12D+2        0.00000   0.00009  -0.00001  -0.00020   0.00000
  72       12D-2        0.00000   0.00000   0.00000   0.00000  -0.00002
  73       13D 0        0.00000  -0.00067   0.00001   0.00257   0.00000
  74       13D+1        0.00000   0.00000   0.00000   0.00000   0.00000
  75       13D-1       -0.00001   0.00000   0.00000   0.00000  -0.00034
  76       13D+2        0.00000  -0.00005   0.00001  -0.00001   0.00000
  77       13D-2        0.00000   0.00000   0.00000   0.00000   0.00000
  78       14D 0        0.00000   0.00026  -0.00003  -0.00158   0.00000
  79       14D+1        0.00000   0.00000   0.00000   0.00003   0.00001
  80       14D-1        0.00013   0.00000   0.00000   0.00000   0.00196
  81       14D+2        0.00000  -0.00008   0.00000  -0.00270   0.00000
  82       14D-2        0.00000   0.00000   0.00000   0.00003  -0.00003
  83       15F 0        0.00000   0.00035  -0.00002  -0.00045   0.00000
  84       15F+1        0.00000   0.00000   0.00000   0.00000   0.00000
  85       15F-1        0.00000   0.00000   0.00000   0.00000   0.00021
  86       15F+2        0.00000   0.00009   0.00000   0.00001   0.00000
  87       15F-2        0.00000   0.00000   0.00000   0.00000   0.00000
  88       15F+3        0.00000   0.00000   0.00000   0.00000   0.00000
  89       15F-3       -0.00001   0.00000   0.00000   0.00000   0.00000
  90       16F 0        0.00000  -0.00050  -0.00001   0.00034   0.00000
  91       16F+1        0.00000   0.00000   0.00000  -0.00002   0.00000
  92       16F-1       -0.00002   0.00000   0.00000   0.00000  -0.00019
  93       16F+2        0.00000  -0.00009   0.00000   0.00088   0.00000
  94       16F-2        0.00000   0.00000   0.00000  -0.00001   0.00002
  95       16F+3        0.00000   0.00000   0.00000   0.00000   0.00000
  96       16F-3        0.00003   0.00000   0.00000   0.00000   0.00023
  97 3   F  1S         -0.69210   0.48671   0.00014  -0.14651   0.15006
  98        2S          0.01116  -0.00688  -0.00001   0.37460  -0.38403
  99        3S         -0.02981   0.02132   0.00001   0.11417  -0.11770
 100        4S          0.00069   0.00123  -0.00003   0.23442  -0.25376
 101        5S         -0.00067   0.00032   0.00004   0.01848  -0.03170
 102        6PX        -0.00001   0.00000   0.00000  -0.00015   0.00028
 103        6PY        -0.00143   0.00045   0.00000  -0.00576   0.03767
 104        6PZ        -0.00109   0.00001   0.00000  -0.02186   0.00808
 105        7PX         0.00000  -0.00001   0.00000  -0.00014   0.00029
 106        7PY         0.00014  -0.00073  -0.00001  -0.00268   0.04114
 107        7PZ        -0.00012  -0.00097  -0.00001  -0.02386   0.00614
 108        8PX        -0.00002   0.00000   0.00000  -0.00022   0.00021
 109        8PY        -0.00067   0.00059   0.00000  -0.01350   0.03418
 110        8PZ        -0.00152  -0.00063  -0.00004  -0.02907   0.00462
 111        9PX         0.00000   0.00000   0.00000   0.00000   0.00000
 112        9PY        -0.00040   0.00008   0.00001  -0.00170  -0.00111
 113        9PZ        -0.00005  -0.00014   0.00001  -0.00056   0.00042
 114       10D 0        0.00000   0.00001   0.00000  -0.00013  -0.00014
 115       10D+1        0.00000   0.00000   0.00000   0.00001   0.00000
 116       10D-1       -0.00001   0.00005   0.00000   0.00065  -0.00041
 117       10D+2        0.00001  -0.00001   0.00000  -0.00065   0.00009
 118       10D-2        0.00000   0.00000   0.00000   0.00001   0.00000
 119       11D 0       -0.00007  -0.00007   0.00000  -0.00077  -0.00094
 120       11D+1        0.00000  -0.00001   0.00000   0.00003  -0.00004
 121       11D-1        0.00024  -0.00052  -0.00001   0.00359  -0.00384
 122       11D+2       -0.00017   0.00021   0.00000  -0.00336   0.00194
 123       11D-2        0.00000  -0.00001   0.00000   0.00006  -0.00004
 124       12D 0       -0.00031  -0.00012   0.00000  -0.00141  -0.00124
 125       12D+1       -0.00001   0.00000   0.00000  -0.00004  -0.00001
 126       12D-1       -0.00038  -0.00029  -0.00002  -0.00528   0.00000
 127       12D+2        0.00017  -0.00013  -0.00001   0.00184  -0.00126
 128       12D-2       -0.00001   0.00000   0.00000  -0.00005   0.00001
 129       13F 0        0.00000  -0.00002   0.00000  -0.00034   0.00011
 130       13F+1        0.00000   0.00000   0.00000   0.00000   0.00000
 131       13F-1        0.00001  -0.00001   0.00000   0.00014  -0.00028
 132       13F+2       -0.00001   0.00001   0.00000  -0.00054   0.00031
 133       13F-2        0.00000   0.00000   0.00000   0.00001  -0.00001
 134       13F+3        0.00000   0.00000   0.00000  -0.00001   0.00000
 135       13F-3       -0.00006   0.00002   0.00000  -0.00042   0.00003
 136       14F 0       -0.00004   0.00020   0.00001  -0.00035   0.00035
 137       14F+1        0.00000   0.00000   0.00000   0.00000  -0.00001
 138       14F-1       -0.00003  -0.00020   0.00000  -0.00018  -0.00086
 139       14F+2        0.00000   0.00027   0.00000  -0.00075   0.00096
 140       14F-2        0.00000  -0.00001   0.00000   0.00001  -0.00002
 141       14F+3        0.00000   0.00000   0.00000  -0.00002   0.00001
 142       14F-3        0.00012   0.00004   0.00000  -0.00047   0.00062
 143 4   F  1S          0.69206   0.48677   0.00014  -0.14655  -0.15002
 144        2S         -0.01116  -0.00689  -0.00001   0.37470   0.38393
 145        3S          0.02981   0.02132   0.00001   0.11420   0.11767
 146        4S         -0.00069   0.00123  -0.00003   0.23448   0.25370
 147        5S          0.00067   0.00032   0.00004   0.01849   0.03169
 148        6PX         0.00000   0.00000   0.00000  -0.00010   0.00008
 149        6PY        -0.00143  -0.00045   0.00000   0.00577   0.03767
 150        6PZ         0.00109   0.00001   0.00000  -0.02186  -0.00808
 151        7PX         0.00000  -0.00001   0.00000  -0.00012   0.00010
 152        7PY         0.00014   0.00073   0.00001   0.00269   0.04114
 153        7PZ         0.00012  -0.00097  -0.00001  -0.02387  -0.00613
 154        8PX         0.00001   0.00000   0.00000  -0.00009   0.00011
 155        8PY        -0.00067  -0.00059   0.00000   0.01351   0.03417
 156        8PZ         0.00152  -0.00063  -0.00004  -0.02907  -0.00461
 157        9PX         0.00000   0.00000   0.00000   0.00002  -0.00001
 158        9PY        -0.00040  -0.00008  -0.00001   0.00170  -0.00111
 159        9PZ         0.00005  -0.00014   0.00001  -0.00056  -0.00042
 160       10D 0        0.00000   0.00001   0.00000  -0.00013   0.00014
 161       10D+1        0.00000   0.00000   0.00000   0.00000   0.00000
 162       10D-1       -0.00001  -0.00005   0.00000  -0.00065  -0.00041
 163       10D+2       -0.00001  -0.00001   0.00000  -0.00065  -0.00009
 164       10D-2        0.00000   0.00000   0.00000   0.00000   0.00000
 165       11D 0        0.00007  -0.00007   0.00000  -0.00077   0.00094
 166       11D+1        0.00000   0.00000   0.00000  -0.00001   0.00000
 167       11D-1        0.00024   0.00052   0.00001  -0.00359  -0.00384
 168       11D+2        0.00017   0.00021   0.00000  -0.00336  -0.00194
 169       11D-2        0.00000   0.00000   0.00000   0.00001   0.00000
 170       12D 0        0.00031  -0.00012   0.00000  -0.00141   0.00124
 171       12D+1        0.00000   0.00000   0.00000   0.00001   0.00001
 172       12D-1       -0.00038   0.00029   0.00002   0.00528   0.00000
 173       12D+2       -0.00017  -0.00013  -0.00001   0.00184   0.00126
 174       12D-2        0.00000   0.00000   0.00000   0.00001  -0.00002
 175       13F 0        0.00000  -0.00002   0.00000  -0.00034  -0.00011
 176       13F+1        0.00000   0.00000   0.00000   0.00000   0.00000
 177       13F-1        0.00001   0.00001   0.00000  -0.00014  -0.00028
 178       13F+2        0.00001   0.00001   0.00000  -0.00054  -0.00031
 179       13F-2        0.00000   0.00000   0.00000   0.00000   0.00000
 180       13F+3        0.00000   0.00000   0.00000   0.00000   0.00000
 181       13F-3       -0.00006  -0.00002   0.00000   0.00042   0.00003
 182       14F 0        0.00004   0.00020   0.00001  -0.00035  -0.00035
 183       14F+1        0.00000   0.00000   0.00000   0.00000   0.00000
 184       14F-1       -0.00003   0.00020   0.00000   0.00018  -0.00086
 185       14F+2        0.00000   0.00027   0.00000  -0.00075  -0.00096
 186       14F-2        0.00000   0.00000   0.00000   0.00000   0.00000
 187       14F+3        0.00000   0.00000   0.00000   0.00000   0.00000
 188       14F-3        0.00012  -0.00004   0.00000   0.00047   0.00062
                          11        12        13        14        15
     Eigenvalues --     1.97415   1.97117   1.97006   1.96730   1.96693
   1 1   C  1S         -0.05547  -0.10227   0.00000   0.00000  -0.00001
   2        2S          0.15000   0.27582   0.00000   0.00000   0.00005
   3        3S          0.03539   0.06787   0.00000   0.00000  -0.00001
   4        4S          0.01895   0.14477   0.00000   0.00000   0.00123
   5        5S         -0.02048   0.04370   0.00000   0.00000   0.00040
   6        6PX         0.00011  -0.00053  -0.00025  -0.00004   0.10236
   7        6PY         0.00000   0.00001  -0.05183   0.00024  -0.00048
   8        6PZ         0.09085   0.00965   0.00000   0.00000   0.00031
   9        7PX         0.00016  -0.00074  -0.00036  -0.00004   0.12543
  10        7PY         0.00001   0.00001  -0.07640   0.00024  -0.00059
  11        7PZ         0.11661  -0.00377   0.00000   0.00000   0.00019
  12        8PX         0.00013  -0.00015   0.00027   0.00000   0.00521
  13        8PY         0.00000   0.00000   0.05617   0.00007  -0.00002
  14        8PZ        -0.05426   0.03683   0.00000   0.00000   0.00081
  15        9PX        -0.00001   0.00002   0.00000   0.00000  -0.00078
  16        9PY         0.00000   0.00000  -0.00044  -0.00013   0.00000
  17        9PZ        -0.00741   0.01369   0.00000   0.00000   0.00007
  18       10D 0       -0.00827   0.01912   0.00000   0.00000   0.00019
  19       10D+1       -0.00008   0.00011  -0.00004   0.00001  -0.01502
  20       10D-1        0.00000   0.00000  -0.00909   0.00004   0.00007
  21       10D+2       -0.00986   0.00281   0.00000  -0.00019  -0.00004
  22       10D-2        0.00009  -0.00003   0.00001  -0.02020  -0.00001
  23       11D 0       -0.01821   0.03204   0.00000   0.00000   0.00031
  24       11D+1       -0.00012   0.00020  -0.00003   0.00001  -0.02486
  25       11D-1        0.00000   0.00000  -0.00675  -0.00001   0.00012
  26       11D+2       -0.01788   0.00205   0.00000  -0.00031  -0.00009
  27       11D-2        0.00017  -0.00002   0.00008  -0.03258  -0.00001
  28       12D 0       -0.00465  -0.00376   0.00000   0.00000   0.00020
  29       12D+1        0.00026  -0.00017   0.00005   0.00000  -0.00233
  30       12D-1        0.00000   0.00000   0.01132  -0.00065   0.00001
  31       12D+2        0.00056  -0.00018   0.00000   0.00008   0.00012
  32       12D-2       -0.00001   0.00000  -0.00015   0.00882   0.00000
  33       13F 0        0.00838   0.00171   0.00000   0.00000  -0.00004
  34       13F+1        0.00005  -0.00006   0.00004   0.00000   0.00415
  35       13F-1        0.00000   0.00000   0.00929  -0.00003  -0.00002
  36       13F+2        0.00157   0.00282   0.00000   0.00008   0.00007
  37       13F-2       -0.00001  -0.00003   0.00004   0.00875   0.00000
  38       13F+3        0.00003   0.00003   0.00007   0.00000  -0.00781
  39       13F-3        0.00000   0.00000   0.00520   0.00008   0.00011
  40       14F 0        0.00656   0.00139   0.00000   0.00000   0.00008
  41       14F+1        0.00007  -0.00006   0.00009   0.00000  -0.00151
  42       14F-1        0.00000   0.00000   0.01954  -0.00020   0.00001
  43       14F+2        0.00689   0.00240   0.00000   0.00009   0.00004
  44       14F-2       -0.00007  -0.00002   0.00002   0.00946   0.00000
  45       14F+3        0.00001   0.00000   0.00000   0.00000  -0.00063
  46       14F-3        0.00000   0.00000   0.00021  -0.00001   0.00001
  47 2   S  1S          0.03175   0.04386   0.00000   0.00000   0.00030
  48        2S         -0.12375  -0.16827  -0.00001   0.00000  -0.00116
  49        3S          0.24980   0.35461   0.00001   0.00000   0.00244
  50        4S          0.03193   0.04485   0.00000   0.00000   0.00030
  51        5S          0.17449   0.15551   0.00001   0.00000   0.00057
  52        6S          0.02762  -0.05493   0.00000   0.00000  -0.00055
  53        7PX         0.00002   0.00003   0.00002   0.00000   0.01252
  54        7PY         0.00000   0.00000   0.00322  -0.00002  -0.00006
  55        7PZ         0.02895   0.03487   0.00000   0.00000   0.00015
  56        8PX        -0.00011  -0.00010  -0.00009   0.00001  -0.03135
  57        8PY         0.00000   0.00000  -0.01962   0.00016   0.00015
  58        8PZ        -0.03338  -0.04125   0.00000   0.00000  -0.00010
  59        9PX        -0.00003  -0.00005  -0.00001   0.00000  -0.01416
  60        9PY         0.00000   0.00000  -0.00149   0.00002   0.00007
  61        9PZ        -0.01840  -0.02386   0.00000   0.00000  -0.00009
  62       10PX        -0.00028   0.00011  -0.00011   0.00001  -0.02722
  63       10PY         0.00000   0.00000  -0.02355   0.00060   0.00013
  64       10PZ        -0.01472   0.03259   0.00000   0.00000   0.00040
  65       11PX        -0.00002   0.00001   0.00002   0.00000  -0.00411
  66       11PY         0.00000   0.00000   0.00445   0.00008   0.00002
  67       11PZ        -0.00070   0.00949   0.00000   0.00000   0.00010
  68       12D 0        0.00551   0.00946   0.00000   0.00000   0.00005
  69       12D+1        0.00004   0.00002   0.00009   0.00000  -0.00823
  70       12D-1        0.00000   0.00000   0.02005  -0.00014   0.00004
  71       12D+2       -0.00240   0.00192   0.00000  -0.00004  -0.00001
  72       12D-2        0.00002  -0.00002   0.00000  -0.00419   0.00000
  73       13D 0        0.01658   0.01837   0.00000   0.00000   0.00007
  74       13D+1        0.00002   0.00002   0.00004   0.00000  -0.00468
  75       13D-1        0.00000   0.00000   0.00792  -0.00003   0.00002
  76       13D+2       -0.00082   0.00161   0.00000  -0.00001   0.00001
  77       13D-2        0.00001  -0.00002   0.00001  -0.00128   0.00000
  78       14D 0       -0.00203  -0.01044   0.00000   0.00000  -0.00010
  79       14D+1        0.00010  -0.00003   0.00006   0.00000  -0.00275
  80       14D-1        0.00000   0.00000   0.01341  -0.00022   0.00001
  81       14D+2       -0.00075  -0.00064   0.00000  -0.00004  -0.00005
  82       14D-2        0.00001   0.00001   0.00003  -0.00474   0.00000
  83       15F 0       -0.00516  -0.00699   0.00000   0.00000  -0.00005
  84       15F+1       -0.00002   0.00000  -0.00002   0.00000   0.00183
  85       15F-1        0.00000   0.00000  -0.00513   0.00003  -0.00001
  86       15F+2        0.00073  -0.00062   0.00000   0.00001   0.00000
  87       15F-2       -0.00001   0.00001   0.00000   0.00135   0.00000
  88       15F+3        0.00000   0.00000   0.00000   0.00000  -0.00035
  89       15F-3        0.00000   0.00000   0.00027   0.00000   0.00001
  90       16F 0        0.00681   0.00093   0.00000   0.00000  -0.00002
  91       16F+1        0.00001  -0.00001  -0.00001   0.00000   0.00201
  92       16F-1        0.00000   0.00000  -0.00191   0.00002  -0.00001
  93       16F+2       -0.00042  -0.00051   0.00000   0.00003   0.00004
  94       16F-2        0.00000   0.00000   0.00000   0.00332   0.00000
  95       16F+3        0.00000   0.00000  -0.00001   0.00000   0.00032
  96       16F-3        0.00000   0.00000  -0.00038   0.00000   0.00000
  97 3   F  1S          0.00000   0.02747   0.01573   0.00005   0.00004
  98        2S         -0.00162  -0.07746  -0.04107  -0.00014  -0.00008
  99        3S         -0.00022  -0.02629  -0.01375  -0.00004  -0.00001
 100        4S         -0.01471  -0.10139  -0.03927   0.00008   0.00002
 101        5S         -0.01583  -0.01896   0.00664   0.00073   0.00015
 102        6PX         0.00011   0.00004  -0.00026   0.27583   0.25168
 103        6PY        -0.10899   0.15560  -0.15422  -0.00241  -0.00178
 104        6PZ         0.18032  -0.06666   0.23041  -0.00121  -0.00209
 105        7PX         0.00012   0.00003  -0.00032   0.33577   0.30705
 106        7PY        -0.13306   0.18650  -0.18729  -0.00293  -0.00217
 107        7PZ         0.21721  -0.08239   0.27830  -0.00146  -0.00255
 108        8PX         0.00003  -0.00020  -0.00029   0.23480   0.21160
 109        8PY        -0.09027   0.10257  -0.14816  -0.00209  -0.00142
 110        8PZ         0.14768  -0.07680   0.18742  -0.00090  -0.00182
 111        9PX         0.00002  -0.00008  -0.00008   0.02734   0.01713
 112        9PY        -0.01250   0.00564  -0.01249   0.00000  -0.00011
 113        9PZ         0.01046  -0.01442   0.02327  -0.00011  -0.00010
 114       10D 0        0.00240  -0.00123   0.00231  -0.00001  -0.00002
 115       10D+1        0.00002   0.00000   0.00002   0.00174   0.00186
 116       10D-1        0.00144   0.00158   0.00119  -0.00003  -0.00004
 117       10D+2        0.00132  -0.00237   0.00075   0.00004   0.00005
 118       10D-2       -0.00001   0.00003  -0.00001   0.00212   0.00300
 119       11D 0        0.00854  -0.00511   0.00856  -0.00005  -0.00007
 120       11D+1        0.00007  -0.00002   0.00007   0.00715   0.00784
 121       11D-1        0.00383   0.00346   0.00420  -0.00012  -0.00017
 122       11D+2        0.00496  -0.00741   0.00347   0.00018   0.00022
 123       11D-2       -0.00005   0.00007  -0.00004   0.00958   0.01219
 124       12D 0        0.00564  -0.00324   0.00715   0.00001  -0.00007
 125       12D+1        0.00004  -0.00006   0.00000   0.00470   0.00429
 126       12D-1        0.00348  -0.00290  -0.00187  -0.00004  -0.00013
 127       12D+2       -0.00017  -0.00022   0.00887   0.00016   0.00012
 128       12D-2        0.00000  -0.00002  -0.00008   0.00569   0.00794
 129       13F 0        0.00039  -0.00080   0.00061   0.00000   0.00000
 130       13F+1        0.00002  -0.00001   0.00002   0.00028   0.00029
 131       13F-1        0.00168  -0.00044   0.00173  -0.00001  -0.00002
 132       13F+2        0.00000  -0.00100  -0.00001   0.00003   0.00004
 133       13F-2        0.00001   0.00001   0.00001   0.00150   0.00166
 134       13F+3        0.00002  -0.00002   0.00001  -0.00085  -0.00151
 135       13F-3        0.00075  -0.00088   0.00031   0.00003   0.00004
 136       14F 0        0.00191  -0.00113   0.00067  -0.00001   0.00001
 137       14F+1        0.00003  -0.00002   0.00002   0.00071   0.00030
 138       14F-1        0.00223  -0.00157   0.00293  -0.00002  -0.00004
 139       14F+2        0.00030  -0.00092  -0.00022   0.00006   0.00007
 140       14F-2        0.00001  -0.00001   0.00001   0.00268   0.00295
 141       14F+3        0.00001  -0.00003   0.00003  -0.00256  -0.00210
 142       14F-3        0.00040  -0.00127   0.00153   0.00007   0.00006
 143 4   F  1S          0.00000   0.02747  -0.01573  -0.00005   0.00004
 144        2S         -0.00162  -0.07746   0.04107   0.00014  -0.00008
 145        3S         -0.00022  -0.02629   0.01375   0.00004  -0.00001
 146        4S         -0.01471  -0.10140   0.03927  -0.00008   0.00002
 147        5S         -0.01583  -0.01896  -0.00664  -0.00073   0.00014
 148        6PX         0.00114  -0.00143  -0.00120  -0.27600   0.25151
 149        6PY         0.10899  -0.15560  -0.15422   0.00021  -0.00061
 150        6PZ         0.18033  -0.06664  -0.23041   0.00121  -0.00209
 151        7PX         0.00138  -0.00174  -0.00146  -0.33598   0.30685
 152        7PY         0.13306  -0.18650  -0.18728   0.00025  -0.00074
 153        7PZ         0.21722  -0.08237  -0.27829   0.00146  -0.00255
 154        8PX         0.00089  -0.00118  -0.00111  -0.23494   0.21145
 155        8PY         0.09027  -0.10256  -0.14815   0.00013  -0.00059
 156        8PZ         0.14768  -0.07679  -0.18741   0.00090  -0.00182
 157        9PX         0.00014  -0.00014  -0.00004  -0.02735   0.01711
 158        9PY         0.01250  -0.00564  -0.01249   0.00026  -0.00005
 159        9PZ         0.01045  -0.01442  -0.02327   0.00011  -0.00010
 160       10D 0        0.00240  -0.00123  -0.00231   0.00001  -0.00002
 161       10D+1        0.00001  -0.00001  -0.00001  -0.00174   0.00186
 162       10D-1       -0.00144  -0.00158   0.00119  -0.00001   0.00002
 163       10D+2        0.00132  -0.00237  -0.00075   0.00000   0.00000
 164       10D-2       -0.00001   0.00002   0.00001   0.00213  -0.00299
 165       11D 0        0.00854  -0.00511  -0.00856   0.00005  -0.00007
 166       11D+1        0.00003  -0.00005  -0.00003  -0.00715   0.00784
 167       11D-1       -0.00383  -0.00346   0.00420  -0.00005   0.00009
 168       11D+2        0.00497  -0.00741  -0.00348   0.00001  -0.00002
 169       11D-2       -0.00004   0.00007   0.00002   0.00959  -0.01218
 170       12D 0        0.00564  -0.00324  -0.00715  -0.00001  -0.00007
 171       12D+1        0.00001  -0.00004  -0.00002  -0.00470   0.00429
 172       12D-1       -0.00348   0.00291  -0.00187   0.00000   0.00009
 173       12D+2       -0.00017  -0.00022  -0.00886  -0.00006  -0.00003
 174       12D-2        0.00001   0.00002   0.00009   0.00570  -0.00794
 175       13F 0        0.00039  -0.00080  -0.00061   0.00000   0.00000
 176       13F+1        0.00000   0.00000   0.00000  -0.00028   0.00029
 177       13F-1       -0.00168   0.00044   0.00173  -0.00001   0.00002
 178       13F+2        0.00000  -0.00100   0.00001   0.00000   0.00001
 179       13F-2       -0.00001   0.00001   0.00001   0.00150  -0.00166
 180       13F+3       -0.00001   0.00001   0.00000   0.00085  -0.00151
 181       13F-3       -0.00075   0.00088   0.00031   0.00000   0.00000
 182       14F 0        0.00191  -0.00113  -0.00067   0.00001   0.00001
 183       14F+1        0.00001  -0.00001   0.00001  -0.00071   0.00030
 184       14F-1       -0.00223   0.00157   0.00293  -0.00002   0.00004
 185       14F+2        0.00030  -0.00092   0.00022  -0.00001   0.00001
 186       14F-2       -0.00002   0.00002   0.00001   0.00269  -0.00295
 187       14F+3        0.00000   0.00001   0.00001   0.00256  -0.00210
 188       14F-3       -0.00040   0.00127   0.00153   0.00000   0.00000
                          16        17        18        19        20
     Eigenvalues --     1.96289   1.95899   1.94248   1.93934   1.91706
   1 1   C  1S         -0.08197   0.00002   0.07740   0.00000  -0.00051
   2        2S          0.21471  -0.00006  -0.23046  -0.00001   0.00148
   3        3S          0.05602  -0.00001  -0.05925   0.00000   0.00039
   4        4S          0.09603  -0.00003  -0.16599  -0.00001   0.00158
   5        5S         -0.02007   0.00000  -0.02282   0.00000   0.00002
   6        6PX        -0.00012   0.00091  -0.00006   0.00016   0.18188
   7        6PY         0.00005   0.19220   0.00000   0.03391  -0.00086
   8        6PZ        -0.13684   0.00002  -0.18047  -0.00001  -0.00009
   9        7PX        -0.00017   0.00111  -0.00003   0.00023   0.25479
  10        7PY         0.00005   0.23365  -0.00001   0.04834  -0.00121
  11        7PZ        -0.17111   0.00003  -0.22300  -0.00001  -0.00017
  12        8PX        -0.00003   0.00027   0.00011   0.00023   0.13720
  13        8PY         0.00001   0.05675  -0.00001   0.04958  -0.00065
  14        8PZ        -0.01454   0.00000  -0.06784   0.00000   0.00036
  15        9PX        -0.00001   0.00000   0.00002  -0.00002   0.02111
  16        9PY         0.00000  -0.00002   0.00000  -0.00356  -0.00010
  17        9PZ        -0.00551   0.00000  -0.00566   0.00000  -0.00017
  18       10D 0       -0.00723   0.00000  -0.01003   0.00000  -0.00003
  19       10D+1       -0.00001  -0.00013   0.00007   0.00010   0.01559
  20       10D-1       -0.00001  -0.02651   0.00000   0.02080  -0.00007
  21       10D+2       -0.01484   0.00000  -0.00771   0.00000   0.00004
  22       10D-2        0.00014  -0.00012   0.00007   0.00006   0.00000
  23       11D 0       -0.01874   0.00001  -0.01803   0.00000  -0.00011
  24       11D+1        0.00000  -0.00027   0.00017   0.00024   0.04767
  25       11D-1       -0.00001  -0.05783   0.00000   0.05102  -0.00023
  26       11D+2       -0.03588   0.00001  -0.01945   0.00000   0.00011
  27       11D-2        0.00034  -0.00030   0.00018   0.00018   0.00000
  28       12D 0        0.00253   0.00000  -0.00600   0.00000   0.00016
  29       12D+1       -0.00002  -0.00002  -0.00001  -0.00011   0.01867
  30       12D-1        0.00000  -0.00381   0.00000  -0.02358  -0.00009
  31       12D+2        0.00430   0.00000  -0.00247   0.00000   0.00016
  32       12D-2       -0.00004  -0.00001   0.00002  -0.00004   0.00000
  33       13F 0        0.00209   0.00000  -0.00395   0.00000   0.00001
  34       13F+1        0.00001   0.00004   0.00001   0.00003   0.00670
  35       13F-1        0.00000   0.00781   0.00000   0.00703  -0.00003
  36       13F+2        0.00539   0.00000   0.00175   0.00000  -0.00001
  37       13F-2       -0.00005   0.00004  -0.00002  -0.00001   0.00000
  38       13F+3        0.00001  -0.00004   0.00001   0.00003   0.00043
  39       13F-3        0.00000  -0.00254   0.00000   0.00205  -0.00001
  40       14F 0        0.01004   0.00000   0.00131   0.00000   0.00004
  41       14F+1        0.00009   0.00009   0.00008   0.00000   0.00053
  42       14F-1        0.00000   0.01879   0.00000  -0.00020   0.00000
  43       14F+2        0.01082   0.00000   0.00039   0.00000  -0.00005
  44       14F-2       -0.00010   0.00022   0.00000  -0.00006   0.00000
  45       14F+3        0.00010  -0.00003   0.00008   0.00001   0.00397
  46       14F-3        0.00000  -0.00214   0.00000   0.00044  -0.00006
  47 2   S  1S         -0.03641   0.00001   0.02961   0.00000  -0.00010
  48        2S          0.13888  -0.00003  -0.11364   0.00000   0.00038
  49        3S         -0.30052   0.00007   0.26150   0.00001  -0.00088
  50        4S         -0.04135   0.00001   0.03772   0.00000  -0.00014
  51        5S         -0.18840   0.00004   0.32663   0.00001  -0.00145
  52        6S          0.01543   0.00000   0.05491   0.00000  -0.00003
  53        7PX         0.00016  -0.00007  -0.00048  -0.00102  -0.18867
  54        7PY         0.00000  -0.01421   0.00001  -0.21583   0.00089
  55        7PZ        -0.00948   0.00000  -0.17382  -0.00001   0.00018
  56        8PX        -0.00046   0.00014   0.00111   0.00247   0.43250
  57        8PY         0.00001   0.02866  -0.00003   0.52213  -0.00205
  58        8PZ         0.00588   0.00001   0.35954   0.00002  -0.00021
  59        9PX        -0.00016   0.00007   0.00050   0.00104   0.17760
  60        9PY         0.00000   0.01457  -0.00001   0.21973  -0.00084
  61        9PZ         0.00483   0.00000   0.16460   0.00001  -0.00012
  62       10PX        -0.00028   0.00002   0.00077   0.00175   0.23794
  63       10PY         0.00000   0.00411  -0.00002   0.36962  -0.00113
  64       10PZ         0.00193   0.00000   0.09583   0.00000   0.00032
  65       11PX        -0.00001   0.00000   0.00005   0.00013   0.00060
  66       11PY         0.00000   0.00056   0.00000   0.02711   0.00000
  67       11PZ        -0.00298   0.00000  -0.00447   0.00000   0.00007
  68       12D 0       -0.00047   0.00000  -0.02725   0.00000   0.00008
  69       12D+1        0.00006  -0.00002  -0.00001  -0.00006  -0.03390
  70       12D-1        0.00000  -0.00519   0.00000  -0.01320   0.00016
  71       12D+2       -0.00150   0.00000  -0.00083   0.00000   0.00000
  72       12D-2        0.00001  -0.00005   0.00001   0.00001   0.00000
  73       13D 0       -0.00632   0.00000  -0.04845   0.00000   0.00008
  74       13D+1        0.00002  -0.00004  -0.00005  -0.00007  -0.03415
  75       13D-1        0.00000  -0.00874   0.00000  -0.01489   0.00016
  76       13D+2       -0.00098   0.00000  -0.00095   0.00000   0.00000
  77       13D-2        0.00001   0.00000   0.00001   0.00001   0.00000
  78       14D 0        0.00138   0.00000   0.00514   0.00000  -0.00004
  79       14D+1        0.00000   0.00001  -0.00005  -0.00008  -0.00473
  80       14D-1        0.00000   0.00192   0.00000  -0.01769   0.00002
  81       14D+2       -0.00081   0.00000  -0.00194   0.00000  -0.00002
  82       14D-2        0.00001   0.00000   0.00002   0.00004   0.00000
  83       15F 0        0.00396   0.00000   0.01571   0.00000  -0.00001
  84       15F+1       -0.00001   0.00001   0.00000   0.00004   0.01205
  85       15F-1        0.00000   0.00316   0.00000   0.00818  -0.00006
  86       15F+2        0.00019   0.00000   0.00214   0.00000  -0.00002
  87       15F-2        0.00000   0.00001  -0.00002  -0.00002   0.00000
  88       15F+3        0.00000   0.00000   0.00001   0.00004   0.00241
  89       15F-3        0.00000   0.00010   0.00000   0.00263  -0.00003
  90       16F 0       -0.00186   0.00000  -0.00538   0.00000   0.00000
  91       16F+1        0.00000   0.00000  -0.00001   0.00001  -0.00064
  92       16F-1        0.00000  -0.00062   0.00000   0.00226   0.00000
  93       16F+2        0.00069   0.00000   0.00080   0.00000  -0.00001
  94       16F-2       -0.00001   0.00003  -0.00001  -0.00003   0.00000
  95       16F+3       -0.00002   0.00002   0.00000   0.00003   0.00187
  96       16F-3        0.00000   0.00141   0.00000   0.00237  -0.00003
  97 3   F  1S          0.00649   0.00871  -0.01341  -0.01568   0.00005
  98        2S         -0.02523  -0.01359   0.03720   0.04278  -0.00012
  99        3S         -0.01175   0.00000   0.01076   0.01343  -0.00004
 100        4S         -0.09911   0.07910   0.02017   0.03692  -0.00010
 101        5S         -0.02140   0.03562  -0.00556   0.05503   0.00025
 102        6PX         0.00263  -0.00238   0.00034   0.00032  -0.05358
 103        6PY         0.11701  -0.21808   0.02795   0.01974   0.00031
 104        6PZ         0.16369  -0.10599   0.06385   0.05264   0.00013
 105        7PX         0.00320  -0.00289   0.00044   0.00041  -0.06482
 106        7PY         0.14145  -0.26462   0.03562   0.02618   0.00037
 107        7PZ         0.19807  -0.12911   0.07923   0.06524   0.00016
 108        8PX         0.00183  -0.00168   0.00021   0.00031  -0.06086
 109        8PY         0.05878  -0.14270   0.01569   0.00869   0.00034
 110        8PZ         0.10718  -0.06540   0.05309   0.05278   0.00016
 111        9PX         0.00008  -0.00006  -0.00003   0.00017  -0.02567
 112        9PY        -0.00463  -0.00864   0.00006   0.01486   0.00014
 113        9PZ         0.00826   0.00437   0.01082   0.01795   0.00023
 114       10D 0       -0.00001  -0.00037  -0.00067  -0.00038  -0.00001
 115       10D+1        0.00005  -0.00005   0.00001   0.00000   0.00108
 116       10D-1        0.00422  -0.00483   0.00051   0.00043  -0.00001
 117       10D+2       -0.00283   0.00291  -0.00098  -0.00022   0.00002
 118       10D-2        0.00007  -0.00007   0.00002   0.00000   0.00111
 119       11D 0       -0.00022  -0.00212  -0.00221  -0.00227  -0.00003
 120       11D+1        0.00017  -0.00018   0.00003   0.00001   0.00387
 121       11D-1        0.01412  -0.01661   0.00307   0.00205  -0.00004
 122       11D+2       -0.00927   0.00954  -0.00354  -0.00205   0.00005
 123       11D-2        0.00024  -0.00022   0.00007   0.00004   0.00304
 124       12D 0       -0.00171  -0.00491  -0.00339  -0.00046  -0.00003
 125       12D+1        0.00004  -0.00009   0.00001   0.00000   0.00214
 126       12D-1       -0.00003  -0.00379  -0.00250  -0.00173  -0.00003
 127       12D+2       -0.00180   0.00106  -0.00011   0.00230   0.00006
 128       12D-2        0.00005  -0.00006  -0.00001  -0.00002   0.00376
 129       13F 0       -0.00112   0.00119  -0.00036  -0.00027   0.00000
 130       13F+1        0.00001  -0.00001   0.00000   0.00000   0.00024
 131       13F-1        0.00107  -0.00118  -0.00007   0.00010   0.00000
 132       13F+2       -0.00193   0.00225  -0.00049  -0.00028   0.00001
 133       13F-2        0.00005  -0.00005   0.00001   0.00000   0.00054
 134       13F+3       -0.00004   0.00003  -0.00002   0.00000  -0.00036
 135       13F-3       -0.00106   0.00095  -0.00055  -0.00010   0.00001
 136       14F 0       -0.00157   0.00121  -0.00133  -0.00092   0.00000
 137       14F+1        0.00002  -0.00003   0.00001  -0.00001   0.00051
 138       14F-1        0.00094  -0.00315   0.00000  -0.00067  -0.00001
 139       14F+2       -0.00311   0.00341  -0.00135  -0.00031   0.00001
 140       14F-2        0.00007  -0.00008   0.00003   0.00001   0.00056
 141       14F+3       -0.00005   0.00005   0.00000  -0.00002  -0.00019
 142       14F-3       -0.00156   0.00179  -0.00026  -0.00053   0.00000
 143 4   F  1S          0.00649  -0.00871  -0.01341   0.01568   0.00005
 144        2S         -0.02523   0.01361   0.03721  -0.04277  -0.00012
 145        3S         -0.01175   0.00001   0.01076  -0.01343  -0.00004
 146        4S         -0.09916  -0.07905   0.02018  -0.03692  -0.00010
 147        5S         -0.02141  -0.03561  -0.00555  -0.05503   0.00025
 148        6PX         0.00152   0.00031   0.00008  -0.00014  -0.05358
 149        6PY        -0.11714  -0.21803  -0.02794   0.01974   0.00020
 150        6PZ         0.16375   0.10591   0.06385  -0.05263   0.00013
 151        7PX         0.00186   0.00038   0.00010  -0.00016  -0.06482
 152        7PY        -0.14160  -0.26456  -0.03561   0.02617   0.00024
 153        7PZ         0.19813   0.12902   0.07923  -0.06523   0.00016
 154        8PX         0.00127   0.00032   0.00006  -0.00023  -0.06087
 155        8PY        -0.05886  -0.14267  -0.01568   0.00869   0.00023
 156        8PZ         0.10721   0.06535   0.05309  -0.05277   0.00016
 157        9PX         0.00013  -0.00002  -0.00004  -0.00003  -0.02567
 158        9PY         0.00462  -0.00864  -0.00006   0.01486   0.00010
 159        9PZ         0.00825  -0.00437   0.01082  -0.01795   0.00023
 160       10D 0        0.00000   0.00037  -0.00067   0.00038  -0.00001
 161       10D+1        0.00001   0.00000   0.00000   0.00000   0.00108
 162       10D-1       -0.00422  -0.00483  -0.00051   0.00043   0.00000
 163       10D+2       -0.00283  -0.00291  -0.00098   0.00022   0.00000
 164       10D-2       -0.00002  -0.00001   0.00000   0.00000  -0.00112
 165       11D 0       -0.00022   0.00212  -0.00221   0.00227  -0.00003
 166       11D+1        0.00003   0.00003   0.00001   0.00001   0.00387
 167       11D-1       -0.01413  -0.01661  -0.00307   0.00205   0.00001
 168       11D+2       -0.00928  -0.00953  -0.00354   0.00205  -0.00001
 169       11D-2       -0.00006  -0.00004   0.00000   0.00000  -0.00304
 170       12D 0       -0.00171   0.00492  -0.00339   0.00046  -0.00003
 171       12D+1        0.00004   0.00005   0.00003  -0.00001   0.00214
 172       12D-1        0.00003  -0.00379   0.00250  -0.00173   0.00001
 173       12D+2       -0.00181  -0.00106  -0.00010  -0.00230  -0.00001
 174       12D-2       -0.00001  -0.00004   0.00001   0.00003  -0.00376
 175       13F 0       -0.00112  -0.00119  -0.00036   0.00027   0.00000
 176       13F+1        0.00000   0.00000   0.00000   0.00000   0.00024
 177       13F-1       -0.00107  -0.00118   0.00007   0.00010   0.00000
 178       13F+2       -0.00193  -0.00225  -0.00049   0.00028   0.00000
 179       13F-2       -0.00001   0.00000   0.00000   0.00000  -0.00054
 180       13F+3       -0.00001  -0.00001   0.00000   0.00000  -0.00036
 181       13F-3        0.00106   0.00095   0.00055  -0.00010   0.00000
 182       14F 0       -0.00157  -0.00121  -0.00133   0.00092   0.00000
 183       14F+1        0.00001   0.00000   0.00001   0.00000   0.00051
 184       14F-1       -0.00094  -0.00315   0.00000  -0.00067   0.00001
 185       14F+2       -0.00311  -0.00341  -0.00135   0.00031   0.00000
 186       14F-2       -0.00001  -0.00002   0.00000   0.00000  -0.00056
 187       14F+3       -0.00001   0.00000   0.00001   0.00000  -0.00019
 188       14F-3        0.00156   0.00179   0.00026  -0.00053   0.00001
                          21        22        23        24        25
     Eigenvalues --     0.07402   0.04119   0.03931   0.03212   0.01913
   1 1   C  1S         -0.00073   0.17639  -0.00008   0.03546   0.03244
   2        2S          0.00244  -0.60106   0.00029  -0.09677  -0.09439
   3        3S          0.00088  -0.21362   0.00011   0.00949  -0.04061
   4        4S          0.00255  -0.64334   0.00034   0.04193   0.08162
   5        5S          0.00044  -0.12235   0.00007   0.02916   0.09780
   6        6PX         0.31817   0.00139   0.00144   0.00122   0.00030
   7        6PY        -0.00151   0.00015   0.30445  -0.00004  -0.00001
   8        6PZ        -0.00093  -0.04732   0.00007   0.37169   0.05457
   9        7PX         0.44548   0.00235   0.00278   0.00210   0.00051
  10        7PY        -0.00211   0.00028   0.58611  -0.00008  -0.00001
  11        7PZ        -0.00149  -0.04875   0.00009   0.66857   0.05767
  12        8PX         0.15480   0.00082   0.00050   0.00097   0.00036
  13        8PY        -0.00073   0.00005   0.10564  -0.00002  -0.00001
  14        8PZ         0.00111  -0.21625   0.00013   0.27459   0.30434
  15        9PX         0.00799   0.00006   0.00007  -0.00005   0.00007
  16        9PY        -0.00004   0.00001   0.01571   0.00000   0.00000
  17        9PZ         0.00005  -0.00776   0.00000  -0.00500   0.03365
  18       10D 0       -0.00015  -0.00135   0.00000   0.00948   0.05681
  19       10D+1        0.01627   0.00009   0.00014   0.00005   0.00030
  20       10D-1       -0.00008   0.00001   0.03016  -0.00001   0.00000
  21       10D+2        0.00015  -0.00934   0.00001   0.00339   0.04695
  22       10D-2        0.00000   0.00009   0.00006  -0.00003  -0.00044
  23       11D 0       -0.00065  -0.04390   0.00004   0.07386   0.15441
  24       11D+1        0.07198   0.00017  -0.00030  -0.00026   0.00045
  25       11D-1       -0.00034  -0.00003  -0.06263   0.00001   0.00000
  26       11D+2       -0.00009   0.02865  -0.00001   0.06703   0.14330
  27       11D-2        0.00000  -0.00027  -0.00064  -0.00064  -0.00136
  28       12D 0        0.00014  -0.05324   0.00003   0.02370   0.01601
  29       12D+1        0.02797   0.00009  -0.00014   0.00037  -0.00064
  30       12D-1       -0.00013  -0.00001  -0.03008   0.00001   0.00001
  31       12D+2        0.00003   0.00702   0.00000   0.02064   0.02383
  32       12D-2        0.00000  -0.00007   0.00023  -0.00020  -0.00023
  33       13F 0       -0.00007  -0.00776   0.00000   0.01366  -0.00185
  34       13F+1        0.01186   0.00018   0.00016   0.00020  -0.00009
  35       13F-1       -0.00006   0.00001   0.03328  -0.00001   0.00000
  36       13F+2        0.00012  -0.02215   0.00001  -0.02137   0.01244
  37       13F-2        0.00000   0.00021   0.00017   0.00020  -0.00012
  38       13F+3       -0.00129  -0.00014  -0.00017  -0.00009  -0.00009
  39       13F-3        0.00002   0.00000  -0.01167   0.00000   0.00000
  40       14F 0        0.00019  -0.02551   0.00001  -0.00934  -0.02518
  41       14F+1        0.02837   0.00005   0.00055   0.00002  -0.00039
  42       14F-1       -0.00013   0.00006   0.11577  -0.00002   0.00001
  43       14F+2        0.00013  -0.01531   0.00001  -0.04157  -0.02690
  44       14F-2        0.00000   0.00015   0.00083   0.00039   0.00025
  45       14F+3        0.00935  -0.00016   0.00040  -0.00030  -0.00025
  46       14F-3       -0.00013   0.00002   0.02814   0.00000   0.00001
  47 2   S  1S         -0.00005   0.02069  -0.00001  -0.01271   0.01055
  48        2S          0.00016  -0.05610   0.00003   0.02876  -0.05259
  49        3S         -0.00037   0.21713  -0.00013  -0.14141   0.09123
  50        4S         -0.00001   0.00873   0.00000   0.02717   0.08159
  51        5S         -0.00134   0.51798  -0.00032  -0.52423  -0.38415
  52        6S         -0.00055   0.15625  -0.00010  -0.12903  -0.17830
  53        7PX         0.18326   0.00045   0.00049   0.00015   0.00015
  54        7PY        -0.00087   0.00005   0.10433  -0.00001   0.00000
  55        7PZ        -0.00073   0.18221  -0.00010  -0.09400   0.03038
  56        8PX        -0.48797  -0.00102  -0.00139  -0.00047  -0.00015
  57        8PY         0.00231  -0.00014  -0.29340   0.00004   0.00000
  58        8PZ         0.00176  -0.60372   0.00036   0.47534   0.02640
  59        9PX        -0.20100  -0.00063  -0.00067  -0.00012  -0.00025
  60        9PY         0.00095  -0.00007  -0.14136   0.00002   0.00000
  61        9PZ         0.00070  -0.19838   0.00011   0.08851  -0.04460
  62       10PX        -0.12688  -0.00028   0.00018  -0.00075   0.00052
  63       10PY         0.00060   0.00002   0.03876  -0.00001  -0.00001
  64       10PZ         0.00089  -0.31826   0.00020   0.35189   0.19683
  65       11PX        -0.00355  -0.00009  -0.00001   0.00003   0.00003
  66       11PY         0.00002   0.00000  -0.00208   0.00000   0.00000
  67       11PZ         0.00009  -0.02196   0.00001   0.02372   0.02217
  68       12D 0        0.00001  -0.07393   0.00004   0.05095   0.11390
  69       12D+1       -0.05890  -0.00067  -0.00089  -0.00041  -0.00048
  70       12D-1        0.00028  -0.00008  -0.18689   0.00003   0.00001
  71       12D+2        0.00012  -0.04545   0.00003   0.02523   0.40639
  72       12D-2        0.00000   0.00043  -0.00008  -0.00024  -0.00385
  73       13D 0       -0.00009  -0.09821   0.00007   0.13911   0.10918
  74       13D+1       -0.07005  -0.00054  -0.00074  -0.00045  -0.00031
  75       13D-1        0.00033  -0.00007  -0.15682   0.00003   0.00000
  76       13D+2        0.00009  -0.03189   0.00002   0.01432   0.28887
  77       13D-2        0.00000   0.00030   0.00010  -0.00014  -0.00274
  78       14D 0       -0.00005   0.03912  -0.00003  -0.06997  -0.03286
  79       14D+1        0.01260   0.00009  -0.00016   0.00024  -0.00013
  80       14D-1       -0.00006  -0.00002  -0.03364   0.00001   0.00000
  81       14D+2        0.00000  -0.00865   0.00000   0.00353   0.02620
  82       14D-2        0.00000   0.00008  -0.00005  -0.00003  -0.00025
  83       15F 0        0.00001   0.01810  -0.00001  -0.02282  -0.02379
  84       15F+1        0.01921   0.00009   0.00015   0.00015   0.00016
  85       15F-1       -0.00009   0.00001   0.03164  -0.00001   0.00000
  86       15F+2        0.00000   0.00275   0.00000  -0.00279  -0.03410
  87       15F-2        0.00000  -0.00003   0.00004   0.00003   0.00032
  88       15F+3       -0.00369   0.00000  -0.00002   0.00004   0.00002
  89       15F-3        0.00005   0.00000  -0.00162   0.00000   0.00000
  90       16F 0       -0.00011   0.00631   0.00000   0.02722  -0.01165
  91       16F+1       -0.00605  -0.00004   0.00004   0.00000  -0.00005
  92       16F-1        0.00003   0.00000   0.00796   0.00000   0.00000
  93       16F+2        0.00001   0.00479   0.00000  -0.00664  -0.02364
[...]
  93       16F+2       -0.00021   0.00002   0.04815  -0.00302  -0.00002
  94       16F-2       -0.00542   0.00017  -0.00046   0.00003  -0.00226
  95       16F+3       -0.00021  -0.00103  -0.00186  -0.04404   0.00005
  96       16F-3       -0.01494  -0.07226   0.00005   0.00063   0.00321
  97 3   F  1S         -0.04076   0.00331  -0.04753   0.00006  -0.08979
  98        2S         -0.16443  -0.02723  -0.20629   0.00017  -0.42110
  99        3S          0.05464  -0.04703   0.05002  -0.00031   0.05306
 100        4S          1.69687   0.58450   0.87072   0.02557   3.26590
 101        5S          6.56075   0.63079   7.17404  -0.09015  17.25321
 102        6PX         0.00007  -0.00010   0.00047   0.01988   0.00020
 103        6PY         0.00237   0.01170   0.00526  -0.00029   0.01268
 104        6PZ        -0.02218   0.00623   0.00262  -0.00007   0.00533
 105        7PX         0.00024   0.00021  -0.00198  -0.07501  -0.00084
 106        7PY         0.03929  -0.06989  -0.04518   0.00203  -0.05152
 107        7PZ         0.15584  -0.04820  -0.02321   0.00046  -0.01532
 108        8PX         0.00015   0.00588   0.00270   0.07730   0.02225
 109        8PY         0.68672   0.91938   0.33947   0.00999   2.55701
 110        8PZ        -1.76238   1.19395   0.05519   0.02959   0.80196
 111        9PX         0.00386  -0.00910   0.00410  -1.15602   0.03691
 112        9PY        -0.06027  -1.68807   0.74015   0.00132   4.93060
 113        9PZ        -1.83913   0.20583   4.77512  -0.07020   1.68151
 114       10D 0       -0.01825  -0.00686   0.00107   0.00004  -0.00277
 115       10D+1       -0.00080  -0.00006  -0.00001  -0.01468  -0.00020
 116       10D-1       -0.00816  -0.00697   0.02651  -0.00016   0.00013
 117       10D+2        0.04925   0.01882   0.00540  -0.00023  -0.00323
 118       10D-2       -0.00043  -0.00029  -0.00011  -0.00446   0.00006
 119       11D 0        0.05071   0.01718   0.00124  -0.00024   0.00772
 120       11D+1        0.00253   0.00038   0.00008   0.05487   0.00090
 121       11D-1        0.03193   0.04689  -0.09254   0.00103   0.03323
 122       11D+2       -0.18189  -0.06591  -0.01241   0.00050  -0.01927
 123       11D-2        0.00165   0.00107   0.00018   0.01696   0.00032
 124       12D 0       -0.81417   0.15779  -0.11322   0.00694  -0.44680
 125       12D+1       -0.01345   0.00463  -0.00273  -0.18155  -0.00047
 126       12D-1       -0.33954   0.36808   0.12224   0.01177   0.43318
 127       12D+2        0.35437  -0.11364  -0.01375  -0.00128  -0.50702
 128       12D-2       -0.00337   0.00209  -0.00360  -0.09698   0.00884
 129       13F 0        0.00772   0.01729   0.00432   0.00030   0.00998
 130       13F+1        0.00059  -0.00035   0.00016  -0.00959   0.00060
 131       13F-1        0.00015  -0.01690   0.02680  -0.00063   0.00966
 132       13F+2        0.02945   0.01656  -0.02209   0.00051   0.00325
 133       13F-2       -0.00016  -0.00044   0.00067   0.00887   0.00009
 134       13F+3       -0.00026   0.00058  -0.00025  -0.00030  -0.00014
 135       13F-3       -0.01929   0.01987   0.00866  -0.00036  -0.00494
 136       14F 0       -0.04830  -0.04966  -0.00713  -0.00101  -0.06524
 137       14F+1       -0.00208   0.00102  -0.00021   0.01511  -0.00151
 138       14F-1       -0.05072   0.06077  -0.05365   0.00187  -0.02643
 139       14F+2       -0.04654  -0.07189   0.03883  -0.00144  -0.05466
 140       14F-2       -0.00040   0.00166  -0.00125  -0.01018   0.00045
 141       14F+3        0.00073  -0.00163   0.00074   0.00023  -0.00064
 142       14F-3        0.05395  -0.05935  -0.02196   0.00099  -0.02250
 143 4   F  1S          0.04016  -0.00334  -0.04752   0.00007   0.08979
 144        2S          0.16182   0.02714  -0.20629   0.00017   0.42109
 145        3S         -0.05406   0.04706   0.04999  -0.00031  -0.05307
 146        4S         -1.67849  -0.58383   0.87107   0.02556  -3.26560
 147        5S         -6.55265  -0.62544   7.17420  -0.09017 -17.25201
 148        6PX        -0.00005   0.00021   0.00042   0.01988  -0.00008
 149        6PY         0.00240   0.01169  -0.00527   0.00011   0.01267
 150        6PZ         0.02222  -0.00622   0.00263  -0.00007  -0.00533
 151        7PX         0.00013  -0.00087  -0.00155  -0.07503   0.00036
 152        7PY         0.03903  -0.06985   0.04524  -0.00132  -0.05150
 153        7PZ        -0.15602   0.04818  -0.02325   0.00046   0.01530
 154        8PX         0.00642   0.00283  -0.00052   0.07718   0.00199
 155        8PY         0.67951   0.91916  -0.34006  -0.01071   2.55675
 156        8PZ         1.77554  -1.19391   0.05594   0.02959  -0.80161
 157        9PX        -0.00441  -0.00689  -0.00291  -1.15598   0.00982
 158        9PY        -0.06360  -1.68868  -0.73884   0.00963   4.93045
 159        9PZ         1.84133  -0.20273   4.77557  -0.07021  -1.68150
 160       10D 0        0.01830   0.00686   0.00106   0.00004   0.00277
 161       10D+1        0.00072   0.00000  -0.00026  -0.01468   0.00020
 162       10D-1       -0.00825  -0.00699  -0.02650   0.00030   0.00013
 163       10D+2       -0.04932  -0.01882   0.00541  -0.00015   0.00322
 164       10D-2        0.00051   0.00007   0.00001   0.00447   0.00000
 165       11D 0       -0.05089  -0.01717   0.00124  -0.00024  -0.00772
 166       11D+1       -0.00223   0.00006   0.00096   0.05486  -0.00059
 167       11D-1        0.03205   0.04696   0.09250  -0.00155   0.03323
 168       11D+2        0.18201   0.06592  -0.01245   0.00018   0.01927
 169       11D-2       -0.00180  -0.00018   0.00005  -0.01697  -0.00004
 170       12D 0        0.81615  -0.15788  -0.11313   0.00694   0.44684
 171       12D+1        0.01025  -0.00114  -0.00388  -0.18166   0.00458
 172       12D-1       -0.34513   0.36804  -0.12242  -0.01005   0.43307
 173       12D+2       -0.35490   0.11369  -0.01378   0.00057   0.50704
 174       12D-2        0.00331  -0.00006   0.00386   0.09698  -0.00077
 175       13F 0       -0.00755  -0.01729   0.00433   0.00030  -0.00998
 176       13F+1       -0.00059   0.00019  -0.00009  -0.00958  -0.00050
 177       13F-1        0.00020  -0.01692  -0.02679   0.00072   0.00966
 178       13F+2       -0.02945  -0.01658  -0.02209   0.00034  -0.00325
 179       13F-2        0.00040  -0.00012  -0.00025  -0.00888   0.00015
 180       13F+3       -0.00029  -0.00002  -0.00050  -0.00029  -0.00001
 181       13F-3       -0.01916   0.01987  -0.00866   0.00037  -0.00494
 182       14F 0        0.04779   0.04966  -0.00717  -0.00101   0.06523
 183       14F+1        0.00159  -0.00044   0.00030   0.01509   0.00126
 184       14F-1       -0.05104   0.06081   0.05362  -0.00201  -0.02645
 185       14F+2        0.04623   0.07194   0.03880  -0.00125   0.05465
 186       14F-2       -0.00129   0.00029   0.00051   0.01020  -0.00059
 187       14F+3        0.00079  -0.00005   0.00136   0.00020   0.00000
 188       14F-3        0.05368  -0.05937   0.02197  -0.00100  -0.02251
                         186       187       188
     Eigenvalues --     0.00000   0.00000   0.00000
   1 1   C  1S         -0.07337  -0.06778   0.00550
   2        2S         -0.35536  -0.36899  -0.01487
   3        3S          0.23873   0.15750  -0.01419
   4        4S        -13.08234 -14.89619 -13.55688
   5        5S         -4.59080  -9.48746 -21.60214
   6        6PX        -0.00015  -0.00019   0.00013
   7        6PY         0.00001   0.00000   0.00000
   8        6PZ        -0.01314   0.00207  -0.00976
   9        7PX         0.00391   0.00581   0.00232
  10        7PY        -0.00023  -0.00017  -0.00004
  11        7PZ         0.74172   0.39649   0.27752
  12        8PX         0.00052   0.02851   0.01033
  13        8PY        -0.00088  -0.00080   0.00005
  14        8PZ         1.90276  -2.55162  -7.36873
  15        9PX         0.01478  -0.00779   0.00637
  16        9PY        -0.00008   0.00006  -0.00007
  17        9PZ         3.82258  -3.31039  -4.20469
  18       10D 0        0.01839   0.01323   0.01200
  19       10D+1        0.00007  -0.00020  -0.00034
  20       10D-1        0.00001   0.00000   0.00001
  21       10D+2       -0.03295   0.01416   0.03525
  22       10D-2        0.00031  -0.00013  -0.00033
  23       11D 0        0.04464  -0.63299  -0.23427
  24       11D+1       -0.00348  -0.00293  -0.00018
  25       11D-1        0.00014   0.00014  -0.00001
  26       11D+2        1.16005   0.57124   0.10570
  27       11D-2       -0.01099  -0.00541  -0.00100
  28       12D 0       -0.94375  -1.55043  -1.53006
  29       12D+1       -0.02267   0.00442  -0.00051
  30       12D-1        0.00040   0.00053   0.00004
  31       12D+2        0.71705   0.86421   0.31107
  32       12D-2       -0.00679  -0.00819  -0.00295
  33       13F 0       -0.05574  -0.02767  -0.00822
  34       13F+1       -0.00004   0.00004   0.00002
  35       13F-1        0.00000   0.00000   0.00000
  36       13F+2       -0.06533  -0.04253  -0.01377
  37       13F-2        0.00062   0.00040   0.00013
  38       13F+3       -0.00025  -0.00018  -0.00009
  39       13F-3        0.00001   0.00000   0.00000
  40       14F 0       -0.67932  -0.30936  -0.12804
  41       14F+1       -0.00475   0.00138   0.00033
  42       14F-1        0.00001  -0.00005   0.00005
  43       14F+2       -0.40953  -0.08505   0.02841
  44       14F-2        0.00388   0.00081  -0.00027
  45       14F+3       -0.00091  -0.00131  -0.00006
  46       14F-3        0.00002   0.00001   0.00001
  47 2   S  1S          0.00858  -0.00215  -0.00686
  48        2S          0.13155  -0.02203  -0.07990
  49        3S          0.37580  -0.09147  -0.28268
  50        4S         -0.03741  -0.10763  -0.09544
  51        5S          2.49262   7.58364   7.22876
  52        6S          0.37830   5.86008  23.36999
  53        7PX         0.00008   0.00006   0.00003
  54        7PY         0.00000   0.00000   0.00000
  55        7PZ        -0.02629  -0.04835   0.00020
  56        8PX         0.00200   0.00035   0.00021
  57        8PY         0.00001   0.00004  -0.00002
  58        8PZ        -0.63152  -1.17559  -0.12388
  59        9PX        -0.00023  -0.00025  -0.00010
  60        9PY         0.00000  -0.00001   0.00000
  61        9PZ         0.03885   0.12811  -0.02091
  62       10PX         0.02174  -0.01175  -0.00393
  63       10PY        -0.00019  -0.00030  -0.00006
  64       10PZ        -1.51817  -4.15958  -9.49218
  65       11PX        -0.00763   0.00830  -0.00227
  66       11PY        -0.00003  -0.00013   0.00005
  67       11PZ        -1.53554   1.59979  -4.97297
  68       12D 0        0.09546   1.04251   0.43742
  69       12D+1       -0.00453   0.00181   0.00058
  70       12D-1        0.00000  -0.00002   0.00003
  71       12D+2        0.09867  -0.05230  -0.01771
  72       12D-2       -0.00094   0.00050   0.00017
  73       13D 0        0.05324  -0.08455  -0.02040
  74       13D+1        0.00011  -0.00015  -0.00003
  75       13D-1        0.00000   0.00000   0.00000
  76       13D+2       -0.01953   0.00668   0.00148
  77       13D-2        0.00019  -0.00006  -0.00001
  78       14D 0        0.72875  -0.38908   2.70564
  79       14D+1       -0.00770   0.00380   0.00223
  80       14D-1        0.00008   0.00015   0.00001
  81       14D+2       -0.28172   0.02848  -0.05416
  82       14D-2        0.00267  -0.00027   0.00051
  83       15F 0       -0.01205  -0.06104   0.03561
  84       15F+1        0.00033   0.00021  -0.00004
  85       15F-1       -0.00001   0.00000   0.00000
  86       15F+2       -0.01893   0.01534   0.00156
  87       15F-2        0.00018  -0.00015  -0.00001
  88       15F+3        0.00008   0.00018   0.00013
  89       15F-3        0.00000   0.00000   0.00000
  90       16F 0       -0.05836  -0.03896  -0.31192
  91       16F+1        0.00221  -0.00141  -0.00053
  92       16F-1        0.00000   0.00000  -0.00001
  93       16F+2        0.04522  -0.00802   0.01934
  94       16F-2       -0.00043   0.00008  -0.00018
  95       16F+3       -0.00022  -0.00048  -0.00038
  96       16F-3        0.00001   0.00001   0.00001
  97 3   F  1S         -0.02411  -0.03335   0.00301
  98        2S         -0.13921  -0.17365   0.00307
  99        3S         -0.01850   0.00067  -0.01557
 100        4S          2.48511   1.46872   0.13206
 101        5S          5.78938   5.76797   1.88496
 102        6PX         0.00001   0.00007   0.00002
 103        6PY         0.00136   0.01101   0.00239
 104        6PZ         0.01042   0.00305   0.00179
 105        7PX         0.00002  -0.00047  -0.00014
 106        7PY         0.00684  -0.06201  -0.01802
 107        7PZ        -0.02987  -0.02998  -0.02388
 108        8PX         0.01924   0.01250   0.00338
 109        8PY         1.39017   1.38885   0.40719
 110        8PZ         1.63370   1.02575   0.49098
 111        9PX         0.00403   0.01230  -0.00161
 112        9PY         1.05330   0.68142  -0.03133
 113        9PZ        -0.90947   1.35977  -0.22067
 114       10D 0       -0.01958   0.00919  -0.00096
 115       10D+1       -0.00006  -0.00007  -0.00003
 116       10D-1       -0.01243  -0.00389   0.00023
 117       10D+2        0.00114  -0.00217   0.00820
 118       10D-2       -0.00013   0.00006  -0.00018
 119       11D 0        0.07414  -0.04025  -0.00309
 120       11D+1        0.00067   0.00035   0.00012
 121       11D-1        0.08368   0.02661   0.00311
 122       11D+2       -0.01770  -0.00804  -0.02850
 123       11D-2        0.00087   0.00007   0.00063
 124       12D 0        0.01908   0.14018   0.03690
 125       12D+1        0.00614   0.00370   0.00200
 126       12D-1        0.41113   0.38421   0.23470
 127       12D+2       -0.06829  -0.25896  -0.06734
 128       12D-2        0.00405   0.00503   0.00075
 129       13F 0        0.00484   0.00702   0.00742
 130       13F+1       -0.00018  -0.00009  -0.00012
 131       13F-1       -0.01594  -0.00239  -0.00663
 132       13F+2        0.00754   0.00405   0.01451
 133       13F-2       -0.00031  -0.00013  -0.00028
 134       13F+3       -0.00030  -0.00008   0.00017
 135       13F-3       -0.02178  -0.00094   0.00739
 136       14F 0       -0.03058  -0.02750  -0.02968
 137       14F+1        0.00074   0.00036   0.00028
 138       14F-1        0.07393   0.01691   0.01624
 139       14F+2       -0.04760  -0.04375  -0.04769
 140       14F-2        0.00155   0.00098   0.00091
 141       14F+3        0.00032  -0.00040  -0.00059
 142       14F-3        0.04655  -0.01760  -0.02326
 143 4   F  1S         -0.02413  -0.03337   0.00300
 144        2S         -0.13928  -0.17373   0.00305
 145        3S         -0.01850   0.00068  -0.01556
 146        4S          2.48579   1.46937   0.13209
 147        5S          5.79216   5.77092   1.88492
 148        6PX         0.00000  -0.00003   0.00000
 149        6PY        -0.00137  -0.01101  -0.00239
 150        6PZ         0.01042   0.00305   0.00179
 151        7PX        -0.00005   0.00012   0.00003
 152        7PY        -0.00684   0.06201   0.01802
 153        7PZ        -0.02987  -0.02998  -0.02388
 154        8PX         0.00607  -0.00066  -0.00048
 155        8PY        -1.39059  -1.38929  -0.40718
 156        8PZ         1.63408   1.02597   0.49108
 157        9PX        -0.00595   0.00584  -0.00131
 158        9PY        -1.05396  -0.68222   0.03142
 159        9PZ        -0.90916   1.36000  -0.22074
 160       10D 0       -0.01958   0.00919  -0.00096
 161       10D+1        0.00006  -0.00003  -0.00003
 162       10D-1        0.01243   0.00389  -0.00023
 163       10D+2        0.00114  -0.00217   0.00820
 164       10D-2        0.00011  -0.00002   0.00002
 165       11D 0        0.07414  -0.04024  -0.00309
 166       11D+1       -0.00012   0.00010   0.00009
 167       11D-1       -0.08370  -0.02663  -0.00311
 168       11D+2       -0.01772  -0.00805  -0.02851
 169       11D-2       -0.00053   0.00008  -0.00009
 170       12D 0        0.01912   0.14013   0.03695
 171       12D+1        0.00224   0.00006  -0.00023
 172       12D-1       -0.41127  -0.38429  -0.23473
 173       12D+2       -0.06838  -0.25906  -0.06733
 174       12D-2       -0.00276  -0.00012   0.00053
 175       13F 0        0.00484   0.00702   0.00742
 176       13F+1       -0.00003  -0.00007  -0.00006
 177       13F-1        0.01594   0.00239   0.00663
 178       13F+2        0.00754   0.00406   0.01452
 179       13F-2        0.00017   0.00006   0.00001
 180       13F+3        0.00032  -0.00006  -0.00004
 181       13F-3        0.02178   0.00094  -0.00739
 182       14F 0       -0.03058  -0.02750  -0.02968
 183       14F+1        0.00004   0.00020   0.00012
 184       14F-1       -0.07395  -0.01691  -0.01625
 185       14F+2       -0.04763  -0.04377  -0.04770
 186       14F-2       -0.00065  -0.00015  -0.00001
 187       14F+3       -0.00101   0.00010   0.00008
 188       14F-3       -0.04654   0.01760   0.02326
          Condensed to atoms (all electrons):
              1          2          3          4
     1  C    5.194505   0.242987   0.110519   0.110522
     2  S    0.242987  15.949574  -0.066541  -0.066548
     3  F    0.110519  -0.066541   9.178425  -0.081386
     4  F    0.110522  -0.066548  -0.081386   9.178390
 Mulliken atomic charges:
              1
     1  C    0.341467
     2  S   -0.059472
     3  F   -0.141017
     4  F   -0.140979
 Sum of Mulliken atomic charges =   0.00000
 Mulliken charges with hydrogens summed into heavy atoms:
              1
     1  C    0.341467
     2  S   -0.059472
     3  F   -0.141017
     4  F   -0.140979
 Sum of Mulliken charges with hydrogens summed into heavy atoms =   0.00000
 Electronic spatial extent (au):  <R**2>=            315.2035
 Charge=              0.0000 electrons
 Dipole moment (field-independent basis, Debye):
    X=              0.0019    Y=              0.0001    Z=             -0.2241  Tot=              0.2241
 Quadrupole moment (field-independent basis, Debye-Ang):
   XX=            -27.2810   YY=            -30.1544   ZZ=            -27.9399
   XY=             -0.0136   XZ=             -0.0148   YZ=             -0.0002
 Traceless Quadrupole moment (field-independent basis, Debye-Ang):
   XX=              1.1774   YY=             -1.6959   ZZ=              0.5185
   XY=             -0.0136   XZ=             -0.0148   YZ=             -0.0002
 Octapole moment (field-independent basis, Debye-Ang**2):
  XXX=              0.1306  YYY=              0.0004  ZZZ=              8.7848  XYY=              0.0468
  XXY=              0.0001  XXZ=              0.7525  XZZ=              0.0484  YZZ=              0.0003
  YYZ=              0.8025  XYZ=              0.0002
 Hexadecapole moment (field-independent basis, Debye-Ang**3):
 XXXX=            -28.1354 YYYY=            -96.1676 ZZZZ=           -215.0428 XXXY=             -0.1612
 XXXZ=             -0.1955 YYYX=             -0.1612 YYYZ=             -0.0005 ZZZX=             -0.2205
 ZZZY=             -0.0005 XXYY=            -20.7182 XXZZ=            -40.5195 YYZZ=            -55.6372
 XXYZ=             -0.0001 YYXZ=             -0.0641 ZZXY=             -0.0716
 N-N= 1.543917765627D+02 E-N=-1.820104074739D+03  KE= 6.349952623627D+02
 1\1\GINC-TRAPISTA\SP\RQCISD-FC\Aug-CC-pVTZ\C1F2S1\BRUNS\27-Nov-2021\0\
 \# qcisd/aug-cc-pvtz nosymm density=current output=wfn\\f2cs-wavefunct
 ion\\0,1\C,0,0.,0.,-0.520349\S,0,0.,0.,1.078525\F,0,-0.01,-1.055221,-1
 .295538\F,0,0.,1.055221,-1.295538\\Version=EM64L-G09RevB.01\HF=-634.35
 68645\MP2=-635.1964024\MP3=-635.1997873\MP4D=-635.2167133\MP4DQ=-635.1
 973602\MP4SDQ=-635.208218\QCISD=-635.2073206\RMSD=7.680e-09\Dipole=0.0
 007314,0.0000571,-0.0881691\Quadrupole=0.8753688,-1.2608808,0.385512,-
 0.010123,-0.0109755,-0.0001145\PG=C01 [X(C1F2S1)]\\@

 Writing a WFN file to GAUSSIAN.wfn.


 YOU SHOULDN'T LET PEOPLE DRIVE YOU CRAZY
 WHEN YOU KNOW IT'S WITHIN WALKING DISTANCE.
 Job cpu time:  0 days  2 hours  0 minutes 36.3 seconds.
 File lengths (MBytes):  RWF=  17813 Int=      0 D2E=      0 Chk=      3 Scr=      1
 Normal termination of Gaussian 09 at Sat Nov 27 06:39:15 2021.
