 f2cs-wavefunction
GAUSSIAN            188 MOL ORBITALS    330 PRIMITIVES        4 NUCLEI
  C    1    (CENTRE  1)   0.00000000  0.00000000 -0.98331710  CHARGE =  6.0
  S    2    (CENTRE  2)   0.00000000  0.00000000  2.03811688  CHARGE = 16.0
  F    3    (CENTRE  3)   0.00000000 -1.99407870 -2.44821201  CHARGE =  9.0
  F    4    (CENTRE  4)   0.00000000  2.01297596 -2.44821201  CHARGE =  9.0
CENTRE ASSIGNMENTS    1  1  1  1  1  1  1  1  1  1  1  1  1  1  1  1  1  1  1  1
CENTRE ASSIGNMENTS    1  1  1  1  1  1  1  1  1  1  1  1  1  1  1  1  1  1  1  1
CENTRE ASSIGNMENTS    1  1  1  1  1  1  1  1  1  1  1  1  1  1  1  1  1  1  1  1
CENTRE ASSIGNMENTS    1  1  1  1  1  1  1  1  1  1  1  1  2  2  2  2  2  2  2  2
CENTRE ASSIGNMENTS    2  2  2  2  2  2  2  2  2  2  2  2  2  2  2  2  2  2  2  2
CENTRE ASSIGNMENTS    2  2  2  2  2  2  2  2  2  2  2  2  2  2  2  2  2  2  2  2
CENTRE ASSIGNMENTS    2  2  2  2  2  2  2  2  2  2  2  2  2  2  2  2  2  2  2  2
CENTRE ASSIGNMENTS    2  2  2  2  2  2  2  2  2  2  2  2  2  2  2  2  2  2  2  2
CENTRE ASSIGNMENTS    2  2  2  2  2  2  2  2  2  2  2  2  2  2  2  2  2  2  2  2
CENTRE ASSIGNMENTS    2  2  2  2  2  2  3  3  3  3  3  3  3  3  3  3  3  3  3  3
CENTRE ASSIGNMENTS    3  3  3  3  3  3  3  3  3  3  3  3  3  3  3  3  3  3  3  3
CENTRE ASSIGNMENTS    3  3  3  3  3  3  3  3  3  3  3  3  3  3  3  3  3  3  3  3
CENTRE ASSIGNMENTS    3  3  3  3  3  3  3  3  3  3  3  3  3  3  3  3  3  3  4  4
CENTRE ASSIGNMENTS    4  4  4  4  4  4  4  4  4  4  4  4  4  4  4  4  4  4  4  4
CENTRE ASSIGNMENTS    4  4  4  4  4  4  4  4  4  4  4  4  4  4  4  4  4  4  4  4
CENTRE ASSIGNMENTS    4  4  4  4  4  4  4  4  4  4  4  4  4  4  4  4  4  4  4  4
CENTRE ASSIGNMENTS    4  4  4  4  4  4  4  4  4  4
TYPE ASSIGNMENTS      1  1  1  1  1  1  1  1  1  1  1  1  1  1  1  1  2  2  2  3
TYPE ASSIGNMENTS      3  3  4  4  4  2  3  4  2  3  4  2  3  4  5  6  7  8  9 10
TYPE ASSIGNMENTS      5  6  7  8  9 10  5  6  7  8  9 10 11 12 13 17 14 15 18 19
TYPE ASSIGNMENTS     16 20 11 12 13 17 14 15 18 19 16 20  1  1  1  1  1  1  1  1
TYPE ASSIGNMENTS      1  1  1  1  1  1  1  1  1  1  1  1  1  1  1  1  1  1  1  1
TYPE ASSIGNMENTS      1  1  1  2  2  2  2  2  2  3  3  3  3  3  3  4  4  4  4  4
TYPE ASSIGNMENTS      4  2  2  2  2  2  2  3  3  3  3  3  3  4  4  4  4  4  4  2
TYPE ASSIGNMENTS      3  4  2  3  4  2  3  4  5  6  7  8  9 10  5  6  7  8  9 10
TYPE ASSIGNMENTS      5  6  7  8  9 10 11 12 13 17 14 15 18 19 16 20 11 12 13 17
TYPE ASSIGNMENTS     14 15 18 19 16 20  1  1  1  1  1  1  1  1  1  1  1  1  1  1
TYPE ASSIGNMENTS      1  1  2  2  2  3  3  3  4  4  4  2  3  4  2  3  4  2  3  4
TYPE ASSIGNMENTS      5  6  7  8  9 10  5  6  7  8  9 10  5  6  7  8  9 10 11 12
TYPE ASSIGNMENTS     13 17 14 15 18 19 16 20 11 12 13 17 14 15 18 19 16 20  1  1
TYPE ASSIGNMENTS      1  1  1  1  1  1  1  1  1  1  1  1  1  1  2  2  2  3  3  3
TYPE ASSIGNMENTS      4  4  4  2  3  4  2  3  4  2  3  4  5  6  7  8  9 10  5  6
TYPE ASSIGNMENTS      7  8  9 10  5  6  7  8  9 10 11 12 13 17 14 15 18 19 16 20
TYPE ASSIGNMENTS     11 12 13 17 14 15 18 19 16 20
EXPONENTS  0.8236000D+04 0.1235000D+04 0.2808000D+03 0.7927000D+02 0.2559000D+02
EXPONENTS  0.8997000D+01 0.3319000D+01 0.2808000D+03 0.7927000D+02 0.2559000D+02
EXPONENTS  0.8997000D+01 0.3319000D+01 0.3643000D+00 0.9059000D+00 0.1285000D+00
EXPONENTS  0.4402000D-01 0.1871000D+02 0.4133000D+01 0.1200000D+01 0.1871000D+02
EXPONENTS  0.4133000D+01 0.1200000D+01 0.1871000D+02 0.4133000D+01 0.1200000D+01
EXPONENTS  0.3827000D+00 0.3827000D+00 0.3827000D+00 0.1209000D+00 0.1209000D+00
EXPONENTS  0.1209000D+00 0.3569000D-01 0.3569000D-01 0.3569000D-01 0.1097000D+01
EXPONENTS  0.1097000D+01 0.1097000D+01 0.1097000D+01 0.1097000D+01 0.1097000D+01
EXPONENTS  0.3180000D+00 0.3180000D+00 0.3180000D+00 0.3180000D+00 0.3180000D+00
EXPONENTS  0.3180000D+00 0.1000000D+00 0.1000000D+00 0.1000000D+00 0.1000000D+00
EXPONENTS  0.1000000D+00 0.1000000D+00 0.7610000D+00 0.7610000D+00 0.7610000D+00
EXPONENTS  0.7610000D+00 0.7610000D+00 0.7610000D+00 0.7610000D+00 0.7610000D+00
EXPONENTS  0.7610000D+00 0.7610000D+00 0.2680000D+00 0.2680000D+00 0.2680000D+00
EXPONENTS  0.2680000D+00 0.2680000D+00 0.2680000D+00 0.2680000D+00 0.2680000D+00
EXPONENTS  0.2680000D+00 0.2680000D+00 0.3741000D+06 0.5605000D+05 0.1276000D+05
EXPONENTS  0.3615000D+04 0.1183000D+04 0.4288000D+03 0.1678000D+03 0.6947000D+02
EXPONENTS  0.2984000D+02 0.1272000D+02 0.5244000D+01 0.3615000D+04 0.1183000D+04
EXPONENTS  0.4288000D+03 0.1678000D+03 0.6947000D+02 0.2984000D+02 0.1272000D+02
EXPONENTS  0.5244000D+01 0.2219000D+01 0.1183000D+04 0.1678000D+03 0.6947000D+02
EXPONENTS  0.2984000D+02 0.1272000D+02 0.5244000D+01 0.2219000D+01 0.3490000D+00
EXPONENTS  0.7767000D+00 0.1322000D+00 0.4970000D-01 0.5744000D+03 0.1358000D+03
EXPONENTS  0.4319000D+02 0.1587000D+02 0.6208000D+01 0.2483000D+01 0.5744000D+03
EXPONENTS  0.1358000D+03 0.4319000D+02 0.1587000D+02 0.6208000D+01 0.2483000D+01
EXPONENTS  0.5744000D+03 0.1358000D+03 0.4319000D+02 0.1587000D+02 0.6208000D+01
EXPONENTS  0.2483000D+01 0.1358000D+03 0.4319000D+02 0.1587000D+02 0.6208000D+01
EXPONENTS  0.2483000D+01 0.3229000D+00 0.1358000D+03 0.4319000D+02 0.1587000D+02
EXPONENTS  0.6208000D+01 0.2483000D+01 0.3229000D+00 0.1358000D+03 0.4319000D+02
EXPONENTS  0.1587000D+02 0.6208000D+01 0.2483000D+01 0.3229000D+00 0.8688000D+00
EXPONENTS  0.8688000D+00 0.8688000D+00 0.1098000D+00 0.1098000D+00 0.1098000D+00
EXPONENTS  0.3510000D-01 0.3510000D-01 0.3510000D-01 0.2690000D+00 0.2690000D+00
EXPONENTS  0.2690000D+00 0.2690000D+00 0.2690000D+00 0.2690000D+00 0.8190000D+00
EXPONENTS  0.8190000D+00 0.8190000D+00 0.8190000D+00 0.8190000D+00 0.8190000D+00
EXPONENTS  0.1010000D+00 0.1010000D+00 0.1010000D+00 0.1010000D+00 0.1010000D+00
EXPONENTS  0.1010000D+00 0.5570000D+00 0.5570000D+00 0.5570000D+00 0.5570000D+00
EXPONENTS  0.5570000D+00 0.5570000D+00 0.5570000D+00 0.5570000D+00 0.5570000D+00
EXPONENTS  0.5570000D+00 0.2180000D+00 0.2180000D+00 0.2180000D+00 0.2180000D+00
EXPONENTS  0.2180000D+00 0.2180000D+00 0.2180000D+00 0.2180000D+00 0.2180000D+00
EXPONENTS  0.2180000D+00 0.1950000D+05 0.2923000D+04 0.6645000D+03 0.1875000D+03
EXPONENTS  0.6062000D+02 0.2142000D+02 0.7950000D+01 0.6645000D+03 0.1875000D+03
EXPONENTS  0.6062000D+02 0.2142000D+02 0.7950000D+01 0.8815000D+00 0.2257000D+01
EXPONENTS  0.3041000D+00 0.9158000D-01 0.4388000D+02 0.9926000D+01 0.2930000D+01
EXPONENTS  0.4388000D+02 0.9926000D+01 0.2930000D+01 0.4388000D+02 0.9926000D+01
EXPONENTS  0.2930000D+01 0.9132000D+00 0.9132000D+00 0.9132000D+00 0.2672000D+00
EXPONENTS  0.2672000D+00 0.2672000D+00 0.7361000D-01 0.7361000D-01 0.7361000D-01
EXPONENTS  0.3107000D+01 0.3107000D+01 0.3107000D+01 0.3107000D+01 0.3107000D+01
EXPONENTS  0.3107000D+01 0.8550000D+00 0.8550000D+00 0.8550000D+00 0.8550000D+00
EXPONENTS  0.8550000D+00 0.8550000D+00 0.2920000D+00 0.2920000D+00 0.2920000D+00
EXPONENTS  0.2920000D+00 0.2920000D+00 0.2920000D+00 0.1917000D+01 0.1917000D+01
EXPONENTS  0.1917000D+01 0.1917000D+01 0.1917000D+01 0.1917000D+01 0.1917000D+01
EXPONENTS  0.1917000D+01 0.1917000D+01 0.1917000D+01 0.7240000D+00 0.7240000D+00
EXPONENTS  0.7240000D+00 0.7240000D+00 0.7240000D+00 0.7240000D+00 0.7240000D+00
EXPONENTS  0.7240000D+00 0.7240000D+00 0.7240000D+00 0.1950000D+05 0.2923000D+04
EXPONENTS  0.6645000D+03 0.1875000D+03 0.6062000D+02 0.2142000D+02 0.7950000D+01
EXPONENTS  0.6645000D+03 0.1875000D+03 0.6062000D+02 0.2142000D+02 0.7950000D+01
EXPONENTS  0.8815000D+00 0.2257000D+01 0.3041000D+00 0.9158000D-01 0.4388000D+02
EXPONENTS  0.9926000D+01 0.2930000D+01 0.4388000D+02 0.9926000D+01 0.2930000D+01
EXPONENTS  0.4388000D+02 0.9926000D+01 0.2930000D+01 0.9132000D+00 0.9132000D+00
EXPONENTS  0.9132000D+00 0.2672000D+00 0.2672000D+00 0.2672000D+00 0.7361000D-01
EXPONENTS  0.7361000D-01 0.7361000D-01 0.3107000D+01 0.3107000D+01 0.3107000D+01
EXPONENTS  0.3107000D+01 0.3107000D+01 0.3107000D+01 0.8550000D+00 0.8550000D+00
EXPONENTS  0.8550000D+00 0.8550000D+00 0.8550000D+00 0.8550000D+00 0.2920000D+00
EXPONENTS  0.2920000D+00 0.2920000D+00 0.2920000D+00 0.2920000D+00 0.2920000D+00
EXPONENTS  0.1917000D+01 0.1917000D+01 0.1917000D+01 0.1917000D+01 0.1917000D+01
EXPONENTS  0.1917000D+01 0.1917000D+01 0.1917000D+01 0.1917000D+01 0.1917000D+01
EXPONENTS  0.7240000D+00 0.7240000D+00 0.7240000D+00 0.7240000D+00 0.7240000D+00
EXPONENTS  0.7240000D+00 0.7240000D+00 0.7240000D+00 0.7240000D+00 0.7240000D+00
MO    1     MO 0.0        OCC NO =    2.0000304  ORB. ENERGY =    0.000000
 -0.21514054D-03 -0.40106531D-03 -0.67785501D-03 -0.10189425D-02 -0.12515884D-02
 -0.10562964D-02 -0.39719504D-03 -0.87621539D-07 -0.65491672D-06 -0.24475733D-05
 -0.68283484D-05 -0.91481043D-05  0.10802205D-04 -0.11913738D-04 -0.13791474D-04
  0.43727632D-06  0.14696574D-12  0.13778973D-12  0.98114493D-13 -0.30603669D-02
 -0.28692885D-02 -0.20431044D-02  0.30493621D-04  0.28589708D-04  0.20357575D-04
  0.31908955D-13 -0.15575312D-02 -0.97670713D-05 -0.45639749D-14  0.60564330D-03
  0.53167340D-05 -0.44612665D-15 -0.13468427D-04  0.79891445D-07 -0.66936724D-06
 -0.39319478D-05  0.46013150D-05  0.37275947D-14  0.35715285D-13 -0.10260201D-02
  0.12438345D-05  0.16721561D-05 -0.29159906D-05  0.63660183D-15 -0.19651554D-13
  0.39847892D-03 -0.50225651D-07  0.39842525D-06 -0.34819960D-06  0.28147306D-15
 -0.14586107D-14 -0.22401580D-03 -0.58450577D-14  0.23800157D-03 -0.27555436D-05
 -0.64617366D-15  0.35883701D-03  0.30738046D-05  0.18181347D-13 -0.10728417D-02
  0.51928263D-05 -0.65120686D-15  0.16784639D-14 -0.13526352D-03  0.60660795D-06
  0.26456615D-14 -0.12843719D-03 -0.72993003D-06 -0.76810531D-14  0.53422775D-03
 -0.10898938D-05 -0.10137556D-14 -0.45096909D-03 -0.84313213D-03 -0.14571829D-02
 -0.23569333D-02 -0.35624258D-02 -0.49061979D-02 -0.57347480D-02 -0.49563570D-02
 -0.23131576D-02 -0.31338210D-03  0.22921218D-05 -0.56148278D-05 -0.72178046D-04
 -0.26329514D-03 -0.88835126D-03 -0.19512180D-02 -0.25204414D-02  0.40505638D-03
  0.33979416D-02  0.18647465D-02 -0.48998590D-07 -0.55812440D-06 -0.11588674D-05
 -0.31865912D-05  0.41317814D-06  0.14408314D-04  0.35936623D-04 -0.29747816D-04
  0.98579681D-04  0.67632823D-06 -0.10757356D-05 -0.34094790D-09 -0.44730426D-09
 -0.49059596D-09 -0.40364758D-09 -0.21278005D-09 -0.55361367D-10  0.97653241D+01
  0.12811550D+02  0.14051497D+02  0.11561149D+02  0.60943803D+01  0.15856431D+01
  0.31839775D-01  0.41771974D-01  0.45814815D-01  0.37695050D-01  0.19870687D-01
  0.51699790D-02 -0.19872132D-14 -0.71332273D-13 -0.11317044D-12 -0.13438643D-12
 -0.20336208D-13  0.14800311D-12  0.94620730D-04  0.33964708D-02  0.53885861D-02
  0.63987807D-02  0.96830418D-03 -0.70471363D-02  0.35806544D-06  0.12852985D-04
  0.20391583D-04  0.24214379D-04  0.36642738D-05 -0.26667898D-04 -0.25660027D-11
  0.67595245D-01  0.23243244D-03  0.68177105D-14 -0.37982852D-03 -0.24284458D-05
  0.94290473D-15 -0.71350556D-05  0.46468708D-07 -0.21613913D-05 -0.15605175D-05
  0.37219088D-05  0.86030441D-15 -0.22916043D-13  0.95700433D-03 -0.26237863D-06
 -0.13986948D-05  0.16610735D-05 -0.18288049D-14  0.79612887D-14 -0.55335599D-03
 -0.84376196D-07 -0.90287094D-07  0.17466329D-06 -0.13023705D-15 -0.17703288D-14
 -0.41841260D-04 -0.24016540D-14  0.34846286D-04 -0.10007534D-05  0.24266697D-14
  0.11026952D-03  0.19482293D-05  0.47782923D-14 -0.21480837D-03  0.10540309D-05
 -0.18867382D-14 -0.71031456D-15  0.34605090D-04 -0.38666608D-06 -0.13497818D-14
  0.16193567D-04  0.57046240D-06  0.34807254D-14 -0.12000884D-03  0.58953584D-06
 -0.14711192D-16  0.51040839D-02  0.95140211D-02  0.16128385D-01  0.24420557D-01
  0.30531075D-01  0.26262199D-01  0.10072119D-01 -0.63310501D-06 -0.83811249D-05
 -0.30441771D-04 -0.90304939D-04 -0.10405820D-03  0.12639419D-03  0.58989043D-03
  0.86120415D-04  0.84528749D-03 -0.18275535D-12 -0.17873074D-12 -0.11809496D-12
 -0.12509190D-02 -0.12233715D-02 -0.80833325D-03 -0.39378109D-02 -0.38510930D-02
 -0.25445800D-02 -0.45226737D-13 -0.37702734D-03 -0.10900805D-02 -0.85865000D-14
 -0.14815882D-03 -0.74458059D-03  0.52539847D-16  0.91528458D-04  0.11172371D-04
  0.25306374D-04  0.26590852D-04 -0.51897226D-04  0.14992201D-13  0.31437042D-13
  0.26477178D-03 -0.55794418D-04 -0.13178631D-03  0.18758073D-03 -0.36178236D-14
 -0.33981146D-14 -0.14820447D-03  0.10963959D-03 -0.22561928D-04 -0.87077664D-04
  0.25381315D-15 -0.14096296D-14 -0.27781350D-03 -0.30064685D-14 -0.26594514D-04
 -0.56589122D-04 -0.39793091D-14 -0.33181750D-03  0.21246592D-04  0.12998715D-13
  0.41160104D-03  0.14852077D-03  0.39713111D-13  0.87893164D-15 -0.63384095D-04
  0.95665461D-04 -0.27654455D-14  0.19869110D-03 -0.43249403D-04  0.12865059D-15
 -0.85388163D-05 -0.24374698D-03 -0.87820218D-14 -0.49689997D-02 -0.92622240D-02
 -0.15701533D-01 -0.23774245D-01 -0.29723042D-01 -0.25567146D-01 -0.98055509D-02
  0.68760231D-06  0.91025671D-05  0.33062180D-04  0.98078334D-04  0.11301547D-03
 -0.13727412D-03 -0.58134099D-03 -0.88945645D-04 -0.83869453D-03 -0.12064289D-12
 -0.11798612D-12 -0.77958415D-13 -0.13814687D-02 -0.13510462D-02 -0.89269333D-03
  0.39066248D-02  0.38205938D-02  0.25244278D-02 -0.29425418D-13 -0.40167883D-03
  0.10765918D-02 -0.89787484D-14 -0.15008543D-03  0.73321082D-03 -0.14909148D-15
  0.91294667D-04 -0.11087888D-04 -0.23910985D-04 -0.27293924D-04  0.51204909D-04
 -0.25222077D-13  0.22778644D-13  0.26703965D-03  0.55444206D-04  0.12699643D-03
 -0.18244064D-03  0.38103080D-14 -0.66160081D-15 -0.14439681D-03 -0.10832496D-03
  0.22848835D-04  0.85476120D-04  0.62571565D-15 -0.19735968D-14 -0.27757390D-03
 -0.34009200D-14 -0.23283890D-04  0.62518829D-04  0.14138009D-13 -0.33635343D-03
 -0.20180816D-04 -0.39352485D-14  0.40620510D-03 -0.16737567D-03 -0.25679540D-13
  0.90535166D-15 -0.62880072D-04 -0.95877714D-04 -0.41886476D-14  0.19935787D-03
  0.41034433D-04  0.14725926D-14 -0.10717658D-04  0.24659871D-03  0.12591446D-13
MO    2     MO 0.0        OCC NO =    2.0000247  ORB. ENERGY =    0.000000
 -0.59333485D-01 -0.11060957D+00 -0.18694524D+00 -0.28101356D+00 -0.34517483D+00
 -0.29131538D+00 -0.10954219D+00 -0.94599613D-05 -0.70707350D-04 -0.26424951D-03
 -0.73721499D-03 -0.98766483D-03  0.11662480D-02 -0.44964897D-02 -0.13879381D-02
 -0.56550483D-04  0.12704369D-12  0.11911153D-12  0.84814506D-13  0.20220523D-04
  0.18958025D-04  0.13499243D-04  0.29369558D-02  0.27535827D-02  0.19607149D-02
  0.38005660D-13  0.76330364D-05 -0.42014865D-03  0.14615434D-13 -0.37844974D-05
 -0.93754464D-03  0.21024727D-15  0.12384391D-07  0.77096118D-05  0.25685491D-03
 -0.10183658D-03 -0.15501833D-03 -0.56437440D-14  0.12734084D-13 -0.48555433D-05
  0.10328510D-03  0.15447325D-03 -0.25775835D-03  0.85282636D-14 -0.83272262D-14
 -0.13099772D-05  0.16976389D-04  0.61791450D-04 -0.78767839D-04  0.11070718D-14
  0.26936007D-14  0.10907222D-05 -0.30114266D-14 -0.54698431D-06 -0.35575002D-04
  0.24829389D-14 -0.32964050D-05 -0.10076669D-03  0.65513409D-14  0.49373579D-05
  0.20749169D-03 -0.54169137D-14 -0.94915998D-15 -0.24471786D-07  0.46542902D-04
  0.85389450D-15  0.59590998D-06  0.26737678D-04  0.19935854D-14 -0.52249462D-06
 -0.16636638D-03 -0.32464105D-14 -0.12699013D+00 -0.23742083D+00 -0.41033376D+00
 -0.66369795D+00 -0.10031572D+01 -0.13815552D+01 -0.16148698D+01 -0.13956797D+01
 -0.65137098D+00 -0.88246475D-01  0.64544743D-03 -0.15831654D-02 -0.20351431D-01
 -0.74239096D-01 -0.25048087D+00 -0.55016838D+00 -0.71066749D+00  0.11421031D+00
  0.95808876D+00  0.52578676D+00 -0.13253194D-04 -0.15096212D-03 -0.31345177D-03
 -0.86191276D-03  0.11175689D-03  0.38971770D-02  0.97201783D-02 -0.80462228D-02
  0.29249210D-01  0.15603292D-02  0.75520955D-04 -0.23802147D-09 -0.31227063D-09
 -0.34249330D-09 -0.28179317D-09 -0.14854534D-09 -0.38648703D-10 -0.40833149D-01
 -0.53570770D-01 -0.58755540D-01 -0.48342289D-01 -0.25483306D-01 -0.66302769D-02
  0.62331900D+01  0.81775908D+01  0.89690473D+01  0.73794619D+01  0.38900327D+01
  0.10121133D+01 -0.13169806D-14 -0.47273850D-13 -0.75001149D-13 -0.89061563D-13
 -0.13477362D-13  0.98085715D-13 -0.34404487D-06 -0.12349708D-04 -0.19593121D-04
 -0.23266230D-04 -0.35207939D-05  0.25623678D-04  0.57844023D-04  0.20763477D-02
  0.32941777D-02  0.39117350D-02  0.59194861D-03 -0.43080910D-02 -0.17843837D-11
 -0.28774337D-03  0.46069206D-01 -0.75615388D-14  0.89431747D-06 -0.79316495D-03
  0.21742265D-15  0.40928991D-07 -0.63436640D-05 -0.25916083D-03 -0.14556263D-03
  0.40472347D-03 -0.82199554D-16 -0.61956185D-14 -0.26281701D-05  0.15304533D-03
 -0.37261997D-03  0.21957464D-03  0.99183183D-15  0.32006778D-14  0.18687901D-05
 -0.14691699D-04 -0.27381005D-04  0.42072704D-04 -0.27823954D-15  0.25216268D-14
  0.21150029D-06 -0.15565638D-14  0.83792839D-07 -0.88504187D-04  0.14603031D-14
 -0.39714444D-06  0.21791068D-03  0.32093884D-14  0.14576593D-06  0.47601882D-04
 -0.27609116D-14  0.25735022D-15 -0.10033822D-06 -0.22195137D-04 -0.27727763D-15
 -0.36694124D-07  0.31956625D-04 -0.49477304D-15  0.33770879D-06  0.34628786D-04
  0.37314683D-15  0.65988389D-02  0.12300247D-01  0.20851659D-01  0.31572232D-01
  0.39472244D-01  0.33953208D-01  0.13021786D-01  0.15472963D-05  0.20483306D-04
  0.74399095D-04  0.22070351D-03  0.25431622D-03 -0.30890493D-03  0.51752912D-03
 -0.38685209D-03 -0.25754316D-03  0.20746086D-12  0.20289219D-12  0.13405945D-12
  0.12641711D-03  0.12363317D-03  0.81689665D-04 -0.90542003D-03 -0.88548101D-03
 -0.58507474D-03  0.45816338D-13 -0.86334498D-04 -0.37586642D-03  0.57818324D-14
  0.79139042D-05 -0.79686542D-04  0.68928523D-15 -0.50917748D-05 -0.60059568D-04
  0.36678607D-04 -0.10581512D-03  0.69136509D-04  0.23246849D-13  0.96705227D-14
 -0.28236970D-04 -0.22172067D-04  0.10310603D-04  0.11861464D-04  0.38820302D-14
  0.58543839D-14  0.94088153D-04 -0.46584286D-04  0.11575185D-04  0.35009100D-04
  0.32818203D-15  0.13301930D-14 -0.20874805D-04 -0.41056483D-14 -0.80088789D-04
 -0.10709949D-03  0.21051784D-13  0.11350176D-03  0.20098821D-04 -0.87348389D-14
  0.12676460D-03  0.30119966D-03 -0.13637198D-13  0.16683493D-15  0.16897043D-04
  0.43621205D-04 -0.47123910D-14 -0.99164414D-04 -0.76020925D-04  0.42118863D-14
  0.48473285D-04 -0.54842689D-04  0.80443175D-14  0.65682349D-02  0.12243201D-01
  0.20754953D-01  0.31425806D-01  0.39289180D-01  0.33795740D-01  0.12961394D-01
  0.15119629D-05  0.20015558D-04  0.72700149D-04  0.21566362D-03  0.24850876D-03
 -0.30185091D-03  0.51873776D-03 -0.38627790D-03 -0.24776555D-03 -0.93467661D-13
 -0.91409331D-13 -0.60398010D-13 -0.91797578D-04 -0.89776027D-04 -0.59318817D-04
 -0.95631920D-03 -0.93525929D-03 -0.61796536D-03 -0.15947273D-13  0.98800950D-04
 -0.38956710D-03 -0.18422730D-13  0.26928794D-05 -0.82170574D-04 -0.84300890D-15
  0.47955400D-05 -0.59220774D-04  0.38232545D-04 -0.10503334D-03  0.66800795D-04
 -0.10841326D-13 -0.16342305D-13  0.30881693D-04 -0.21168693D-04  0.91092372D-05
  0.12059456D-04  0.15171489D-14  0.50945406D-14 -0.89079888D-04 -0.45099108D-04
  0.91625631D-05  0.35936545D-04  0.82053766D-14 -0.57891194D-14  0.22786033D-04
 -0.14822325D-13  0.77770185D-04 -0.11006921D-03  0.49618442D-13 -0.10867199D-03
  0.17612226D-04 -0.51514676D-14 -0.12463856D-03  0.31259539D-03 -0.23157625D-13
  0.42367454D-14 -0.16297599D-04  0.44286301D-04 -0.14142888D-13  0.97900973D-04
 -0.75172331D-04  0.14326521D-14 -0.49008176D-04 -0.57686573D-04  0.13889252D-13
MO    3     MO 0.0        OCC NO =    2.0000101  ORB. ENERGY =    0.000000
  0.19876307D+00  0.37053440D+00  0.62625363D+00  0.94137600D+00  0.11563118D+01
  0.97588638D+00  0.36695876D+00  0.26960028D-04  0.20150951D-03  0.75308704D-03
  0.21009956D-02  0.28147548D-02 -0.33237006D-02  0.15843712D-01  0.36366096D-03
  0.13485390D-03 -0.51877022D-11 -0.48638005D-11 -0.34633157D-11 -0.17778512D-04
 -0.16668485D-04 -0.11868954D-04 -0.73328216D-02 -0.68749864D-02 -0.48953998D-02
 -0.10188954D-11 -0.35974254D-05  0.59993688D-03 -0.16016562D-12  0.20075269D-05
  0.54254998D-03  0.27845137D-14 -0.47978595D-07  0.66010889D-05 -0.67244066D-03
  0.54489503D-03  0.12754563D-03  0.58795706D-15 -0.13100355D-11  0.28933364D-04
  0.20482438D-03 -0.24605982D-03  0.41235435D-04  0.70827065D-14  0.60071170D-12
 -0.24695159D-05 -0.93419122D-05 -0.38492877D-04  0.47834789D-04  0.12426562D-15
 -0.36535102D-13 -0.94530583D-06  0.13065810D-12 -0.48629442D-07 -0.87462206D-05
  0.57553180D-13  0.54615971D-05  0.25755149D-03 -0.44952747D-12 -0.53157088D-05
 -0.23131283D-03 -0.12564118D-13 -0.40755423D-13  0.11725548D-05 -0.14705217D-03
 -0.93779445D-13 -0.35708122D-06 -0.11904296D-05  0.21604571D-12 -0.31605830D-05
  0.44234694D-03 -0.13035190D-14 -0.99261120D-01 -0.18557866D+00 -0.32073509D+00
 -0.51877578D+00 -0.78411223D+00 -0.10798849D+01 -0.12622539D+01 -0.10909252D+01
 -0.50914047D+00 -0.68977362D-01  0.50451036D-03 -0.12511514D-02 -0.16083426D-01
 -0.58670025D-01 -0.19795121D+00 -0.43478968D+00 -0.56162967D+00  0.90258667D-01
  0.75716293D+00  0.41552125D+00 -0.55047796D-05 -0.62702862D-04 -0.13019374D-03
 -0.35799973D-03  0.46418777D-04  0.16187118D-02  0.40373242D-02 -0.33420385D-02
  0.24956231D-01 -0.17718383D-02 -0.19525661D-03  0.12714708D-07  0.16680973D-07
  0.18295418D-07  0.15052919D-07  0.79350428D-08  0.20645489D-08  0.53376243D-02
  0.70026596D-02  0.76804020D-02  0.63192034D-02  0.33311247D-02  0.86669600D-03
 -0.50340209D+01 -0.66043492D+01 -0.72435417D+01 -0.59597679D+01 -0.31416508D+01
 -0.81739844D+00  0.74820680D-13  0.26857355D-11  0.42609867D-11  0.50597910D-11
  0.76567975D-12 -0.55724737D-11 -0.18253906D-07 -0.65523548D-06 -0.10395475D-05
 -0.12344308D-05 -0.18680191D-06  0.13595093D-05 -0.41021211D-04 -0.14724822D-02
 -0.23361300D-02 -0.27740827D-02 -0.41979183D-03  0.30551663D-02  0.95842294D-10
  0.37804215D-04 -0.39552900D-01  0.29421588D-13  0.13471951D-05  0.43874997D-03
 -0.23301843D-13  0.18045129D-07  0.64152206D-05  0.27899162D-03  0.20529175D-03
 -0.48428337D-03  0.20657449D-15  0.74864477D-12 -0.27762401D-05 -0.27702196D-04
 -0.29397328D-03  0.32167547D-03 -0.36868675D-14 -0.33414421D-12 -0.28455699D-05
  0.86945209D-05  0.98058030D-05 -0.18500324D-04  0.52484412D-16 -0.26947004D-13
 -0.26618346D-06  0.10952218D-12 -0.63828140D-06  0.11345088D-03 -0.41746404D-13
 -0.17326263D-06 -0.27488866D-03 -0.28682014D-12  0.20881068D-05 -0.65463988D-04
  0.51832035D-15  0.11344326D-13 -0.89643764D-07  0.27154548D-04  0.36248529D-13
 -0.98119604D-07 -0.55957519D-04 -0.70281507D-13  0.36705089D-06 -0.25506126D-04
 -0.53953272D-16 -0.51804368D-01 -0.96563430D-01 -0.16369653D+00 -0.24785868D+00
 -0.30987794D+00 -0.26655060D+00 -0.10222789D+00 -0.82099391D-05 -0.10868422D-03
 -0.39476087D-03 -0.11710507D-02 -0.13493994D-02  0.16390465D-02 -0.44474642D-02
  0.10944206D-02  0.14783693D-03  0.82957096D-11  0.81130228D-11  0.53606172D-11
 -0.46558838D-02 -0.45533527D-02 -0.30085926D-02 -0.12046519D-02 -0.11781233D-02
 -0.77843585D-03  0.19501592D-11 -0.49647501D-03  0.21881251D-03  0.45269146D-12
 -0.60538263D-04  0.19783034D-03 -0.13906154D-14 -0.25759894D-05  0.28772326D-04
 -0.15305973D-03  0.17702855D-03 -0.23968822D-04 -0.48737423D-12 -0.15649536D-12
  0.41305275D-03  0.10901865D-03 -0.38073022D-04 -0.70945627D-04  0.13283642D-12
 -0.72521257D-13 -0.29241211D-03  0.83289163D-04 -0.30275202D-04 -0.53013961D-04
  0.16417757D-13  0.10491116D-12  0.73924095D-04  0.85672113D-14  0.11447751D-03
  0.22872748D-03 -0.16996082D-12 -0.34859222D-03 -0.22565276D-03  0.14425919D-12
  0.51596837D-05 -0.46052967D-03 -0.78988238D-12 -0.56247683D-14 -0.25960428D-04
 -0.66724172D-04  0.97083726D-13  0.31616853D-03  0.27095915D-03 -0.80209421D-13
 -0.23828725D-03 -0.70786635D-04  0.28852279D-12 -0.51321619D-01 -0.95663587D-01
 -0.16217109D+00 -0.24554897D+00 -0.30699029D+00 -0.26406670D+00 -0.10127526D+00
 -0.80939057D-05 -0.10714816D-03 -0.38918160D-03 -0.11544999D-02 -0.13303279D-02
  0.16158814D-02 -0.44095830D-02  0.10934836D-02  0.14412126D-03  0.83899358D-11
  0.82051739D-11  0.54215053D-11  0.45598519D-02  0.44594356D-02  0.29465377D-02
 -0.11211046D-02 -0.10964158D-02 -0.72444830D-03  0.19656467D-11  0.46687886D-03
  0.23683306D-03  0.44645132D-12  0.35373602D-04  0.19355218D-03 -0.13100125D-14
  0.25675604D-05  0.28532410D-04 -0.15901384D-03  0.17758544D-03 -0.18571601D-04
  0.45281784D-12 -0.16809323D-12 -0.42525254D-03  0.10311516D-03 -0.32977174D-04
 -0.70137991D-04 -0.12700603D-12 -0.74975947D-13  0.27427595D-03  0.80434369D-04
 -0.23879429D-04 -0.56554940D-04 -0.12567158D-13  0.10039707D-12 -0.76060472D-04
  0.56632854D-14 -0.10812584D-03  0.23616076D-03 -0.15557420D-12  0.33640848D-03
 -0.21607886D-03  0.13858434D-12 -0.12030951D-04 -0.49240341D-03  0.74325878D-12
 -0.34874729D-14  0.24555991D-04 -0.67912711D-04  0.91200850D-13 -0.31220533D-03
  0.26624223D-03 -0.80738432D-13  0.23853736D-03 -0.62504094D-04 -0.27485249D-12
MO    4     MO 0.0        OCC NO =    2.0000089  ORB. ENERGY =    0.000000
 -0.31196808D-09 -0.58157136D-09 -0.98293483D-09 -0.14775344D-08 -0.18148863D-08
 -0.15317000D-08 -0.57595921D-09 -0.39383888D-13 -0.29437016D-12 -0.11001285D-11
 -0.30691872D-11 -0.41118647D-11  0.48553456D-11 -0.24742371D-10 -0.85187123D-12
 -0.31113224D-12 -0.39811072D-02 -0.37325411D-02 -0.26577916D-02 -0.54042269D-13
 -0.50668062D-13 -0.36078679D-13  0.10465834D-10  0.98123845D-11  0.69870023D-11
 -0.78397813D-03 -0.69480977D-13 -0.69422833D-12 -0.12080555D-03 -0.11003255D-14
 -0.10540881D-11  0.20048010D-05  0.10083854D-15 -0.15331414D-13  0.12649459D-11
 -0.98630581D-12 -0.27864012D-12 -0.10179322D-05 -0.10023609D-02 -0.13469383D-12
 -0.20794174D-12  0.25138704D-12 -0.43445296D-13  0.39353079D-05  0.46172552D-03
  0.18710848D-13  0.14125052D-13  0.68383704D-13 -0.82508755D-13  0.72567172D-07
 -0.27103232D-04 -0.15503533D-14  0.10136127D-03  0.90068712D-14 -0.14513170D-12
  0.43242695D-04 -0.20151283D-13 -0.57597422D-12 -0.34732650D-03 -0.68693303D-14
  0.10113693D-11 -0.50202073D-05 -0.31241482D-04 -0.86751571D-14  0.16038961D-12
 -0.72115472D-04 -0.47825444D-14  0.31421554D-13  0.16583992D-03  0.30808016D-13
 -0.51259039D-12 -0.12254409D-05  0.18987529D-09  0.35499098D-09  0.61352992D-09
  0.99235936D-09  0.14999180D-08  0.20656976D-08  0.24145489D-08  0.20868164D-08
  0.97392810D-09  0.13194589D-09 -0.96507122D-12  0.15803275D-11  0.20314951D-10
  0.74106020D-10  0.25003188D-09  0.54918219D-09  0.70939359D-09 -0.11400559D-09
 -0.95637136D-09 -0.52484427D-09  0.70811264D-14  0.80658431D-13  0.16747598D-12
  0.46051641D-12 -0.59711241D-13 -0.20822455D-11 -0.51934509D-11  0.42990635D-11
 -0.31581706D-10  0.27950527D-11  0.43683003D-12  0.97274285D+01  0.12761833D+02
  0.13996969D+02  0.11516284D+02  0.60707303D+01  0.15794898D+01  0.34288086D-09
  0.44984019D-09  0.49337734D-09  0.40593601D-09  0.21398638D-09  0.55675232D-10
  0.63782230D-08  0.83678658D-08  0.91777378D-08  0.75511662D-08  0.39805455D-08
  0.10356631D-08  0.57277743D-04  0.20560207D-02  0.32619284D-02  0.38734400D-02
  0.58615356D-03 -0.42659158D-02  0.33381348D-14  0.11982446D-12  0.19010450D-12
  0.22574327D-12  0.34160906D-13 -0.24861667D-12  0.55893571D-13  0.20063350D-11
  0.31831008D-11  0.37798346D-11  0.57198860D-12 -0.41628258D-11  0.73316943D-01
  0.23862320D-11  0.49915131D-10  0.19386042D-04 -0.18950082D-13 -0.75338539D-12
 -0.17750411D-04 -0.66811200D-15 -0.17152670D-13 -0.36764033D-12 -0.27717499D-12
  0.64481532D-12  0.29502854D-06  0.57464941D-03  0.40659713D-13 -0.30849501D-13
  0.29734110D-12 -0.26649160D-12 -0.50549040D-06 -0.25519328D-03 -0.17938242D-13
 -0.13601850D-13 -0.19731462D-13  0.33333312D-13  0.17087644D-07 -0.19918060D-04
 -0.31231946D-15  0.83568845D-04  0.21749312D-14 -0.18776215D-12 -0.31625953D-04
  0.54659951D-14  0.40034006D-12 -0.21908058D-03 -0.11990789D-13  0.16294638D-12
 -0.25950019D-06  0.88451836D-05  0.13755089D-14 -0.33043879D-13  0.27888219D-04
  0.87828157D-15  0.65971786D-13 -0.54423770D-04 -0.50048082D-14  0.33159850D-13
 -0.10986414D-06 -0.20599454D-09 -0.38397418D-09 -0.65092177D-09 -0.98558359D-09
 -0.12321966D-08 -0.10599100D-08 -0.40649830D-09 -0.13447117D-13 -0.17801465D-12
 -0.64658161D-12 -0.19180722D-11 -0.22101907D-11  0.26846059D-11 -0.19650447D-10
 -0.14707309D-11 -0.23303877D-12  0.63796932D-02  0.62392006D-02  0.41225036D-02
  0.26310315D-12  0.25730913D-12  0.17001502D-12 -0.19512699D-11 -0.19082994D-11
 -0.12608941D-11  0.14998235D-02  0.75430817D-12 -0.37954716D-13  0.34731110D-03
 -0.14380239D-12 -0.30564867D-12 -0.73214018D-06 -0.15788006D-15 -0.49693123D-13
  0.33442977D-12 -0.35104463D-12  0.16614867D-13 -0.36608804D-03 -0.14809994D-03
 -0.86116940D-12 -0.28156434D-12  0.15543535D-12  0.12612899D-12  0.10200031D-03
 -0.55621142D-04  0.90468819D-12 -0.86468551D-13  0.21410045D-14  0.84327546D-13
  0.12703203D-04  0.80268375D-04 -0.10731978D-12  0.77344056D-05 -0.14179427D-12
 -0.27596634D-12 -0.12509801D-03  0.27603360D-12  0.24588297D-13  0.10189479D-03
  0.14934919D-12  0.80331073D-12 -0.60780075D-03 -0.45904381D-05  0.12413725D-13
  0.53628498D-13  0.74616530D-04 -0.44106207D-12 -0.35724300D-12 -0.60845216D-04
  0.40382090D-12  0.19635751D-12  0.22045648D-03 -0.15124808D-09 -0.28192668D-09
 -0.47792853D-09 -0.72364842D-09 -0.90471991D-09 -0.77822136D-09 -0.29846464D-09
 -0.83839968D-14 -0.11098842D-12 -0.40313013D-12 -0.11958779D-11 -0.13780078D-11
  0.16737957D-11 -0.14557071D-10 -0.14120524D-11 -0.22684002D-12  0.63523374D-02
  0.62124472D-02  0.41048265D-02 -0.16682851D-11 -0.16315463D-11 -0.10780317D-11
 -0.97037163D-12 -0.94900226D-12 -0.62704592D-12  0.14907943D-02 -0.77432948D-12
 -0.48073146D-14  0.34063280D-03  0.83442563D-13 -0.18114226D-12 -0.71941320D-06
 -0.13852428D-14 -0.47948892D-13  0.34632462D-12 -0.35174692D-12  0.54223038D-14
  0.35732326D-03 -0.14172427D-03  0.89980332D-12 -0.26142502D-12  0.14073899D-12
  0.12068603D-12 -0.98041213D-04 -0.56903576D-04 -0.84871375D-12 -0.10157922D-12
  0.47174943D-14  0.96861727D-13 -0.10569503D-04  0.77412674D-04  0.61985317D-13
  0.61032569D-05  0.15818012D-12 -0.26494611D-12 -0.12192683D-03 -0.37537820D-12
  0.42016615D-13  0.10361706D-03 -0.99162161D-13  0.75282173D-12  0.59441699D-03