 f2cs-wavefunction
GAUSSIAN            188 MOL ORBITALS    330 PRIMITIVES        4 NUCLEI
  C    1    (CENTRE  1)   0.00000000  0.00000000 -0.98331710  CHARGE =  6.0
  S    2    (CENTRE  2)   0.00000000  0.00000000  2.03811688  CHARGE = 16.0
  F    3    (CENTRE  3)   0.00000000 -1.99407870 -2.44821201  CHARGE =  9.0
  F    4    (CENTRE  4)   0.00000000  1.99407870 -2.46710928  CHARGE =  9.0
CENTRE ASSIGNMENTS    1  1  1  1  1  1  1  1  1  1  1  1  1  1  1  1  1  1  1  1
CENTRE ASSIGNMENTS    1  1  1  1  1  1  1  1  1  1  1  1  1  1  1  1  1  1  1  1
CENTRE ASSIGNMENTS    1  1  1  1  1  1  1  1  1  1  1  1  1  1  1  1  1  1  1  1
CENTRE ASSIGNMENTS    1  1  1  1  1  1  1  1  1  1  1  1  2  2  2  2  2  2  2  2
CENTRE ASSIGNMENTS    2  2  2  2  2  2  2  2  2  2  2  2  2  2  2  2  2  2  2  2
CENTRE ASSIGNMENTS    2  2  2  2  2  2  2  2  2  2  2  2  2  2  2  2  2  2  2  2
CENTRE ASSIGNMENTS    2  2  2  2  2  2  2  2  2  2  2  2  2  2  2  2  2  2  2  2
CENTRE ASSIGNMENTS    2  2  2  2  2  2  2  2  2  2  2  2  2  2  2  2  2  2  2  2
CENTRE ASSIGNMENTS    2  2  2  2  2  2  2  2  2  2  2  2  2  2  2  2  2  2  2  2
CENTRE ASSIGNMENTS    2  2  2  2  2  2  3  3  3  3  3  3  3  3  3  3  3  3  3  3
CENTRE ASSIGNMENTS    3  3  3  3  3  3  3  3  3  3  3  3  3  3  3  3  3  3  3  3
CENTRE ASSIGNMENTS    3  3  3  3  3  3  3  3  3  3  3  3  3  3  3  3  3  3  3  3
CENTRE ASSIGNMENTS    3  3  3  3  3  3  3  3  3  3  3  3  3  3  3  3  3  3  4  4
CENTRE ASSIGNMENTS    4  4  4  4  4  4  4  4  4  4  4  4  4  4  4  4  4  4  4  4
CENTRE ASSIGNMENTS    4  4  4  4  4  4  4  4  4  4  4  4  4  4  4  4  4  4  4  4
CENTRE ASSIGNMENTS    4  4  4  4  4  4  4  4  4  4  4  4  4  4  4  4  4  4  4  4
CENTRE ASSIGNMENTS    4  4  4  4  4  4  4  4  4  4
TYPE ASSIGNMENTS      1  1  1  1  1  1  1  1  1  1  1  1  1  1  1  1  2  2  2  3
TYPE ASSIGNMENTS      3  3  4  4  4  2  3  4  2  3  4  2  3  4  5  6  7  8  9 10
TYPE ASSIGNMENTS      5  6  7  8  9 10  5  6  7  8  9 10 11 12 13 17 14 15 18 19
TYPE ASSIGNMENTS     16 20 11 12 13 17 14 15 18 19 16 20  1  1  1  1  1  1  1  1
TYPE ASSIGNMENTS      1  1  1  1  1  1  1  1  1  1  1  1  1  1  1  1  1  1  1  1
TYPE ASSIGNMENTS      1  1  1  2  2  2  2  2  2  3  3  3  3  3  3  4  4  4  4  4
TYPE ASSIGNMENTS      4  2  2  2  2  2  2  3  3  3  3  3  3  4  4  4  4  4  4  2
TYPE ASSIGNMENTS      3  4  2  3  4  2  3  4  5  6  7  8  9 10  5  6  7  8  9 10
TYPE ASSIGNMENTS      5  6  7  8  9 10 11 12 13 17 14 15 18 19 16 20 11 12 13 17
TYPE ASSIGNMENTS     14 15 18 19 16 20  1  1  1  1  1  1  1  1  1  1  1  1  1  1
TYPE ASSIGNMENTS      1  1  2  2  2  3  3  3  4  4  4  2  3  4  2  3  4  2  3  4
TYPE ASSIGNMENTS      5  6  7  8  9 10  5  6  7  8  9 10  5  6  7  8  9 10 11 12
TYPE ASSIGNMENTS     13 17 14 15 18 19 16 20 11 12 13 17 14 15 18 19 16 20  1  1
TYPE ASSIGNMENTS      1  1  1  1  1  1  1  1  1  1  1  1  1  1  2  2  2  3  3  3
TYPE ASSIGNMENTS      4  4  4  2  3  4  2  3  4  2  3  4  5  6  7  8  9 10  5  6
TYPE ASSIGNMENTS      7  8  9 10  5  6  7  8  9 10 11 12 13 17 14 15 18 19 16 20
TYPE ASSIGNMENTS     11 12 13 17 14 15 18 19 16 20
EXPONENTS  0.8236000D+04 0.1235000D+04 0.2808000D+03 0.7927000D+02 0.2559000D+02
EXPONENTS  0.8997000D+01 0.3319000D+01 0.2808000D+03 0.7927000D+02 0.2559000D+02
EXPONENTS  0.8997000D+01 0.3319000D+01 0.3643000D+00 0.9059000D+00 0.1285000D+00
EXPONENTS  0.4402000D-01 0.1871000D+02 0.4133000D+01 0.1200000D+01 0.1871000D+02
EXPONENTS  0.4133000D+01 0.1200000D+01 0.1871000D+02 0.4133000D+01 0.1200000D+01
EXPONENTS  0.3827000D+00 0.3827000D+00 0.3827000D+00 0.1209000D+00 0.1209000D+00
EXPONENTS  0.1209000D+00 0.3569000D-01 0.3569000D-01 0.3569000D-01 0.1097000D+01
EXPONENTS  0.1097000D+01 0.1097000D+01 0.1097000D+01 0.1097000D+01 0.1097000D+01
EXPONENTS  0.3180000D+00 0.3180000D+00 0.3180000D+00 0.3180000D+00 0.3180000D+00
EXPONENTS  0.3180000D+00 0.1000000D+00 0.1000000D+00 0.1000000D+00 0.1000000D+00
EXPONENTS  0.1000000D+00 0.1000000D+00 0.7610000D+00 0.7610000D+00 0.7610000D+00
EXPONENTS  0.7610000D+00 0.7610000D+00 0.7610000D+00 0.7610000D+00 0.7610000D+00
EXPONENTS  0.7610000D+00 0.7610000D+00 0.2680000D+00 0.2680000D+00 0.2680000D+00
EXPONENTS  0.2680000D+00 0.2680000D+00 0.2680000D+00 0.2680000D+00 0.2680000D+00
EXPONENTS  0.2680000D+00 0.2680000D+00 0.3741000D+06 0.5605000D+05 0.1276000D+05
EXPONENTS  0.3615000D+04 0.1183000D+04 0.4288000D+03 0.1678000D+03 0.6947000D+02
EXPONENTS  0.2984000D+02 0.1272000D+02 0.5244000D+01 0.3615000D+04 0.1183000D+04
EXPONENTS  0.4288000D+03 0.1678000D+03 0.6947000D+02 0.2984000D+02 0.1272000D+02
EXPONENTS  0.5244000D+01 0.2219000D+01 0.1183000D+04 0.1678000D+03 0.6947000D+02
EXPONENTS  0.2984000D+02 0.1272000D+02 0.5244000D+01 0.2219000D+01 0.3490000D+00
EXPONENTS  0.7767000D+00 0.1322000D+00 0.4970000D-01 0.5744000D+03 0.1358000D+03
EXPONENTS  0.4319000D+02 0.1587000D+02 0.6208000D+01 0.2483000D+01 0.5744000D+03
EXPONENTS  0.1358000D+03 0.4319000D+02 0.1587000D+02 0.6208000D+01 0.2483000D+01
EXPONENTS  0.5744000D+03 0.1358000D+03 0.4319000D+02 0.1587000D+02 0.6208000D+01
EXPONENTS  0.2483000D+01 0.1358000D+03 0.4319000D+02 0.1587000D+02 0.6208000D+01
EXPONENTS  0.2483000D+01 0.3229000D+00 0.1358000D+03 0.4319000D+02 0.1587000D+02
EXPONENTS  0.6208000D+01 0.2483000D+01 0.3229000D+00 0.1358000D+03 0.4319000D+02
EXPONENTS  0.1587000D+02 0.6208000D+01 0.2483000D+01 0.3229000D+00 0.8688000D+00
EXPONENTS  0.8688000D+00 0.8688000D+00 0.1098000D+00 0.1098000D+00 0.1098000D+00
EXPONENTS  0.3510000D-01 0.3510000D-01 0.3510000D-01 0.2690000D+00 0.2690000D+00
EXPONENTS  0.2690000D+00 0.2690000D+00 0.2690000D+00 0.2690000D+00 0.8190000D+00
EXPONENTS  0.8190000D+00 0.8190000D+00 0.8190000D+00 0.8190000D+00 0.8190000D+00
EXPONENTS  0.1010000D+00 0.1010000D+00 0.1010000D+00 0.1010000D+00 0.1010000D+00
EXPONENTS  0.1010000D+00 0.5570000D+00 0.5570000D+00 0.5570000D+00 0.5570000D+00
EXPONENTS  0.5570000D+00 0.5570000D+00 0.5570000D+00 0.5570000D+00 0.5570000D+00
EXPONENTS  0.5570000D+00 0.2180000D+00 0.2180000D+00 0.2180000D+00 0.2180000D+00
EXPONENTS  0.2180000D+00 0.2180000D+00 0.2180000D+00 0.2180000D+00 0.2180000D+00
EXPONENTS  0.2180000D+00 0.1950000D+05 0.2923000D+04 0.6645000D+03 0.1875000D+03
EXPONENTS  0.6062000D+02 0.2142000D+02 0.7950000D+01 0.6645000D+03 0.1875000D+03
EXPONENTS  0.6062000D+02 0.2142000D+02 0.7950000D+01 0.8815000D+00 0.2257000D+01
EXPONENTS  0.3041000D+00 0.9158000D-01 0.4388000D+02 0.9926000D+01 0.2930000D+01
EXPONENTS  0.4388000D+02 0.9926000D+01 0.2930000D+01 0.4388000D+02 0.9926000D+01
EXPONENTS  0.2930000D+01 0.9132000D+00 0.9132000D+00 0.9132000D+00 0.2672000D+00
EXPONENTS  0.2672000D+00 0.2672000D+00 0.7361000D-01 0.7361000D-01 0.7361000D-01
EXPONENTS  0.3107000D+01 0.3107000D+01 0.3107000D+01 0.3107000D+01 0.3107000D+01
EXPONENTS  0.3107000D+01 0.8550000D+00 0.8550000D+00 0.8550000D+00 0.8550000D+00
EXPONENTS  0.8550000D+00 0.8550000D+00 0.2920000D+00 0.2920000D+00 0.2920000D+00
EXPONENTS  0.2920000D+00 0.2920000D+00 0.2920000D+00 0.1917000D+01 0.1917000D+01
EXPONENTS  0.1917000D+01 0.1917000D+01 0.1917000D+01 0.1917000D+01 0.1917000D+01
EXPONENTS  0.1917000D+01 0.1917000D+01 0.1917000D+01 0.7240000D+00 0.7240000D+00
EXPONENTS  0.7240000D+00 0.7240000D+00 0.7240000D+00 0.7240000D+00 0.7240000D+00
EXPONENTS  0.7240000D+00 0.7240000D+00 0.7240000D+00 0.1950000D+05 0.2923000D+04
EXPONENTS  0.6645000D+03 0.1875000D+03 0.6062000D+02 0.2142000D+02 0.7950000D+01
EXPONENTS  0.6645000D+03 0.1875000D+03 0.6062000D+02 0.2142000D+02 0.7950000D+01
EXPONENTS  0.8815000D+00 0.2257000D+01 0.3041000D+00 0.9158000D-01 0.4388000D+02
EXPONENTS  0.9926000D+01 0.2930000D+01 0.4388000D+02 0.9926000D+01 0.2930000D+01
EXPONENTS  0.4388000D+02 0.9926000D+01 0.2930000D+01 0.9132000D+00 0.9132000D+00
EXPONENTS  0.9132000D+00 0.2672000D+00 0.2672000D+00 0.2672000D+00 0.7361000D-01
EXPONENTS  0.7361000D-01 0.7361000D-01 0.3107000D+01 0.3107000D+01 0.3107000D+01
EXPONENTS  0.3107000D+01 0.3107000D+01 0.3107000D+01 0.8550000D+00 0.8550000D+00
EXPONENTS  0.8550000D+00 0.8550000D+00 0.8550000D+00 0.8550000D+00 0.2920000D+00
EXPONENTS  0.2920000D+00 0.2920000D+00 0.2920000D+00 0.2920000D+00 0.2920000D+00
EXPONENTS  0.1917000D+01 0.1917000D+01 0.1917000D+01 0.1917000D+01 0.1917000D+01
EXPONENTS  0.1917000D+01 0.1917000D+01 0.1917000D+01 0.1917000D+01 0.1917000D+01
EXPONENTS  0.7240000D+00 0.7240000D+00 0.7240000D+00 0.7240000D+00 0.7240000D+00
EXPONENTS  0.7240000D+00 0.7240000D+00 0.7240000D+00 0.7240000D+00 0.7240000D+00
MO    1     MO 0.0        OCC NO =    2.0000304  ORB. ENERGY =    0.000000
 -0.56132754D-03 -0.10464276D-02 -0.17686052D-02 -0.26585435D-02 -0.32655446D-02
 -0.27560044D-02 -0.10363296D-02 -0.16147497D-06 -0.12069254D-05 -0.45105557D-05
 -0.12583748D-04 -0.16858753D-04  0.19907044D-04 -0.38022517D-04 -0.14028325D-04
  0.11527570D-05 -0.44943951D-14 -0.42137811D-14 -0.30004632D-14 -0.30660768D-02
 -0.28746418D-02 -0.20469162D-02  0.65463347D-04  0.61376049D-04  0.43703403D-04
  0.40507984D-14 -0.15602083D-02  0.38585980D-05  0.10143984D-14  0.60531851D-03
 -0.17124194D-05  0.33164390D-15 -0.13597774D-04  0.21316896D-06  0.10292372D-05
 -0.57424711D-05  0.47132339D-05 -0.50759447D-14 -0.51295038D-14 -0.10235572D-02
  0.52728055D-06  0.41188016D-05 -0.46460821D-05  0.55979041D-14 -0.13442340D-14
  0.40048022D-03 -0.16185663D-06 -0.32645886D-06  0.48831550D-06  0.12846935D-15
 -0.10203165D-14 -0.22710964D-03 -0.73181378D-16  0.23973490D-03  0.10985410D-05
 -0.11595538D-15  0.36041694D-03 -0.28146974D-05  0.33549952D-15 -0.10796217D-02
 -0.48092566D-06 -0.12031712D-14 -0.33606194D-15 -0.13537704D-03  0.56360235D-06
 -0.24657568D-15 -0.12841888D-03 -0.38384086D-06  0.12547615D-14  0.53455001D-03
 -0.13069662D-05 -0.24454006D-14 -0.64007172D-03 -0.11966786D-02 -0.20682162D-02
 -0.33452545D-02 -0.50562402D-02 -0.69634897D-02 -0.81394715D-02 -0.70346816D-02
 -0.32831225D-02 -0.44479106D-03  0.32532659D-05 -0.79357535D-05 -0.10201331D-03
 -0.37212990D-03 -0.12555571D-02 -0.27577667D-02 -0.35622824D-02  0.57248908D-03
  0.48025029D-02  0.26355517D-02 -0.79303726D-07 -0.90331874D-06 -0.18756153D-05
 -0.51574658D-05  0.66872467D-06  0.23319712D-04  0.58163065D-04 -0.48146542D-04
  0.14250114D-03  0.53832722D-05 -0.12289914D-05  0.25492477D-11  0.33444680D-11
  0.36681576D-11  0.30180496D-11  0.15909441D-11  0.41393374D-12  0.97649536D+01
  0.12811064D+02  0.14050964D+02  0.11560710D+02  0.60941491D+01  0.15855830D+01
  0.74792742D-01  0.98123824D-01  0.10762060D+00  0.88546986D-01  0.46676937D-01
  0.12144461D-01  0.72285076D-16  0.25947184D-14  0.41165858D-14  0.48883194D-14
  0.73973156D-15 -0.53836277D-14  0.94550339D-04  0.33939441D-02  0.53845774D-02
  0.63940205D-02  0.96758383D-03 -0.70418938D-02  0.71438688D-06  0.25643368D-04
  0.40683846D-04  0.48310819D-04  0.73107003D-05 -0.53205906D-04  0.15897655D-13
  0.67606407D-01  0.53764185D-03  0.11152615D-14 -0.37337377D-03 -0.71045386D-05
 -0.14498991D-15 -0.69296186D-05 -0.33979568D-07 -0.31739598D-05 -0.25428930D-05
  0.57168528D-05  0.40557804D-15  0.93645484D-15  0.95606381D-03  0.10308425D-05
 -0.97404658D-06 -0.56795917D-07  0.93947864D-15  0.18594478D-14 -0.54799636D-03
 -0.26825273D-06 -0.20150214D-06  0.46975487D-06  0.72365861D-17 -0.31494627D-15
 -0.42909602D-04  0.36943770D-15  0.34869149D-04 -0.69064423D-06  0.29489640D-15
  0.10995173D-03  0.15202332D-05 -0.14032095D-14 -0.21455917D-03  0.55169952D-06
 -0.90007897D-15 -0.69604864D-16  0.34494584D-04 -0.51860881D-06  0.15921224D-15
  0.16139654D-04  0.81305135D-06  0.49602351D-16 -0.11962341D-03  0.74277509D-06
 -0.16265778D-15  0.51462095D-02  0.95925434D-02  0.16261498D-01  0.24622107D-01
  0.30783057D-01  0.26478949D-01  0.10155247D-01 -0.63438764D-06 -0.83981046D-05
 -0.30503444D-04 -0.90487891D-04 -0.10426902D-03  0.12665025D-03  0.59392158D-03
  0.81301648D-04  0.85379884D-03  0.38740413D-13  0.37887278D-13  0.25033726D-13
 -0.12743851D-02 -0.12463208D-02 -0.82349685D-03 -0.39529846D-02 -0.38659326D-02
 -0.25543851D-02  0.93172438D-14 -0.38438086D-03 -0.10961169D-02  0.22541335D-14
 -0.15075543D-03 -0.74660223D-03 -0.70956038D-15  0.92192521D-04  0.11159629D-04
  0.26508805D-04  0.25691882D-04 -0.52200687D-04 -0.52100059D-14  0.28655005D-15
  0.26306718D-03 -0.55798924D-04 -0.13239582D-03  0.18819474D-03  0.52589827D-14
  0.18954501D-14 -0.14816573D-03  0.10985610D-03 -0.22150702D-04 -0.87705393D-04
 -0.58985511D-15  0.14356974D-14 -0.27866266D-03 -0.30649697D-14 -0.28593964D-04
 -0.55027811D-04  0.83772242D-14 -0.32780822D-03  0.19120001D-04  0.81768502D-15
  0.41359011D-03  0.14596343D-03 -0.27968781D-14  0.36500813D-15 -0.62646190D-04
  0.95487072D-04 -0.17531431D-14  0.19734358D-03 -0.42648863D-04  0.65811875D-15
 -0.94050138D-05 -0.24381235D-03  0.45727011D-14 -0.48953856D-02 -0.91250072D-02
 -0.15468920D-01 -0.23422037D-01 -0.29282705D-01 -0.25188377D-01 -0.96602848D-02
  0.71301556D-06  0.94389909D-05  0.34284132D-04  0.10170323D-03  0.11719243D-03
 -0.14234767D-03 -0.57644377D-03 -0.10041775D-03 -0.85105888D-03  0.87765043D-13
  0.85832295D-13  0.56713026D-13 -0.13255580D-02 -0.12963668D-02 -0.85656436D-03
  0.39146604D-02  0.38284524D-02  0.25296204D-02  0.21901902D-13 -0.38799534D-03
  0.10870556D-02 -0.24424422D-14 -0.14800639D-03  0.72940273D-03 -0.87077182D-15
  0.91777826D-04 -0.12413100D-04 -0.21058665D-04 -0.28711046D-04  0.49769711D-04
 -0.50539972D-14  0.12072977D-13  0.26555340D-03  0.50784880D-04  0.12794712D-03
 -0.17873200D-03 -0.39199826D-14 -0.12252385D-14 -0.15580032D-03 -0.11036752D-03
  0.22169244D-04  0.88198279D-04  0.45299192D-14 -0.14191477D-14 -0.27196500D-03
 -0.10303746D-13 -0.19107568D-04  0.55029258D-04  0.25329891D-13 -0.33191007D-03
 -0.26044942D-04  0.55813470D-14  0.38923278D-03 -0.13904283D-03 -0.11487170D-13
  0.14161130D-14 -0.62993072D-04 -0.94320875D-04 -0.53965436D-14  0.20107028D-03
  0.39703280D-04  0.11482046D-14 -0.12091064D-04  0.24325935D-03  0.55061471D-14
MO    2     MO 0.0        OCC NO =    2.0000247  ORB. ENERGY =    0.000000
 -0.59256786D-01 -0.11046659D+00 -0.18670358D+00 -0.28065031D+00 -0.34472864D+00
 -0.29093881D+00 -0.10940059D+00 -0.94460145D-05 -0.70603106D-04 -0.26385993D-03
 -0.73612811D-03 -0.98620872D-03  0.11645286D-02 -0.44912055D-02 -0.13865083D-02
 -0.56035843D-04  0.57724070D-12  0.54119985D-12  0.38536653D-12  0.36615578D-04
  0.34329432D-04  0.24444601D-04  0.29257118D-02  0.27430408D-02  0.19532084D-02
  0.10955952D-12  0.11147815D-04 -0.42069032D-03  0.11621173D-13 -0.35757584D-05
 -0.93702711D-03 -0.80795349D-15  0.11497122D-06  0.78920077D-05  0.25721973D-03
 -0.10091632D-03 -0.15630341D-03  0.66773153D-14  0.15231673D-12  0.25264495D-05
  0.10356182D-03  0.15406799D-03 -0.25762980D-03 -0.12778239D-13 -0.68871430D-13
  0.89052090D-06  0.17173524D-04  0.61717252D-04 -0.78890776D-04 -0.94199983D-15
  0.27613309D-14  0.17065544D-05 -0.15784171D-13 -0.14355077D-05 -0.35942578D-04
 -0.70806670D-14 -0.32689983D-05 -0.99658419D-04  0.54433182D-13  0.75755216D-05
  0.20748615D-03  0.98589117D-14  0.53987414D-14  0.19599734D-05  0.46334894D-04
  0.10194735D-13  0.49517125D-06  0.26063559D-04 -0.26390959D-13 -0.63750914D-05
 -0.16506824D-03  0.54340615D-14 -0.12708133D+00 -0.23759135D+00 -0.41062848D+00
 -0.66417464D+00 -0.10038777D+01 -0.13825475D+01 -0.16160297D+01 -0.13966821D+01
 -0.65183881D+00 -0.88309856D-01  0.64591101D-03 -0.15843056D-02 -0.20366090D-01
 -0.74292568D-01 -0.25066128D+00 -0.55056465D+00 -0.71117935D+00  0.11429257D+00
  0.95877884D+00  0.52616546D+00 -0.13260788D-04 -0.15104862D-03 -0.31363138D-03
 -0.86240665D-03  0.11182093D-03  0.38994101D-02  0.97257481D-02 -0.80508334D-02
  0.29269513D-01  0.15593980D-02  0.73881058D-04 -0.14527755D-08 -0.19059589D-08
 -0.20904244D-08 -0.17199382D-08 -0.90665365D-09 -0.23589423D-09 -0.78121526D-01
 -0.10249100D+00 -0.11241044D+00 -0.92487927D-01 -0.48754377D-01 -0.12684972D-01
  0.62273734D+01  0.81699598D+01  0.89606777D+01  0.73725757D+01  0.38864027D+01
  0.10111689D+01 -0.85345308D-14 -0.30635237D-12 -0.48603571D-12 -0.57715250D-12
 -0.87338386D-13  0.63563241D-12 -0.71579511D-06 -0.25693917D-04 -0.40764044D-04
 -0.48406052D-04 -0.73251115D-05  0.53310789D-04  0.57800974D-04  0.20748024D-02
  0.32917261D-02  0.39088238D-02  0.59150806D-03 -0.43048848D-02 -0.10951024D-10
 -0.55468944D-03  0.46027578D-01  0.12103928D-14  0.14026628D-05 -0.79195125D-03
  0.29894966D-14  0.12309227D-07 -0.62822923D-05 -0.25842554D-03 -0.14562615D-03
  0.40405169D-03 -0.93541619D-15 -0.87599240D-13 -0.78438548D-05  0.15130346D-03
 -0.37155204D-03  0.22024859D-03 -0.13232949D-14  0.38707662D-13 -0.34726019D-06
 -0.14698330D-04 -0.27327559D-04  0.42025889D-04  0.20129021D-15  0.15650027D-14
  0.48504603D-06 -0.12089886D-13 -0.34133422D-06 -0.88394474D-04  0.48581841D-14
 -0.73822970D-06  0.21697471D-03  0.31411475D-13  0.17622324D-05  0.48208717D-04
  0.12890732D-14 -0.15610546D-14 -0.27113861D-06 -0.22155850D-04 -0.43436510D-14
 -0.11343787D-06  0.31894430D-04  0.90268149D-14  0.92685370D-06  0.34573122D-04
 -0.10605801D-15  0.65703716D-02  0.12247184D-01  0.20761705D-01  0.31436029D-01
  0.39301961D-01  0.33806734D-01  0.12965610D-01  0.15449666D-05  0.20452465D-04
  0.74287074D-04  0.22037121D-03  0.25393331D-03 -0.30843982D-03  0.51425041D-03
 -0.38765470D-03 -0.25969347D-03 -0.11209704D-11 -0.10962846D-11 -0.72436159D-12
  0.13391728D-03  0.13096817D-03  0.86536211D-04 -0.88193944D-03 -0.86251751D-03
 -0.56990179D-03 -0.25876508D-12 -0.82946835D-04 -0.37028856D-03 -0.65049608D-13
  0.18867436D-05 -0.72664815D-04 -0.22327300D-15 -0.56150998D-05 -0.59977245D-04
  0.36797187D-04 -0.10466302D-03  0.67865832D-04  0.50094601D-13  0.32354724D-13
 -0.27917244D-04 -0.22109400D-04  0.10582218D-04  0.11527181D-04 -0.18466178D-13
  0.28495336D-14  0.92926601D-04 -0.46432679D-04  0.89292765D-05  0.37503403D-04
 -0.63742921D-14 -0.14245041D-13 -0.19838776D-04 -0.25977897D-14 -0.77476406D-04
 -0.10786045D-03  0.21639636D-13  0.11280066D-03  0.22289876D-04 -0.13846267D-13
  0.11962856D-03  0.30129148D-03  0.11873475D-12  0.20146228D-14  0.16022389D-04
  0.43892092D-04 -0.13775128D-13 -0.98696283D-04 -0.76367103D-04  0.77312600D-14
  0.50629117D-04 -0.55309174D-04 -0.45610464D-13  0.65743452D-02  0.12254591D-01
  0.20774262D-01  0.31455041D-01  0.39325730D-01  0.33827180D-01  0.12973451D-01
  0.15028332D-05  0.19894698D-04  0.72261161D-04  0.21436137D-03  0.24700819D-03
 -0.30002823D-03  0.51993267D-03 -0.38009869D-03 -0.24452786D-03 -0.92642591D-12
 -0.90602431D-12 -0.59864857D-12 -0.94627441D-04 -0.92543571D-04 -0.61147450D-04
 -0.97346115D-03 -0.95202375D-03 -0.62904234D-03 -0.21955690D-12  0.92554796D-04
 -0.39656663D-03 -0.38894545D-13 -0.80088893D-05 -0.92922566D-04  0.10825572D-14
  0.39899112D-05 -0.59833857D-04  0.36037880D-04 -0.10730842D-03  0.71270544D-04
 -0.54734599D-13  0.30101710D-13  0.32358255D-04 -0.20106291D-04  0.10055870D-04
  0.10050420D-04  0.13735397D-13  0.40413290D-14 -0.86290915D-04 -0.44985865D-04
  0.11846352D-04  0.33139513D-04 -0.54891847D-14 -0.54947004D-14  0.23151585D-04
  0.64112710D-14  0.78713986D-04 -0.10986739D-03 -0.61168646D-14 -0.10569759D-03
  0.29426851D-04 -0.13116949D-13 -0.13044437D-03  0.30017532D-03 -0.35963185D-13
 -0.29341668D-14 -0.15842368D-04  0.45230800D-04 -0.28334640D-14  0.95002258D-04
 -0.79129449D-04  0.11635964D-13 -0.47475154D-04 -0.56562951D-04  0.16339487D-13
MO    3     MO 0.0        OCC NO =    2.0000101  ORB. ENERGY =    0.000000
  0.19911723D+00  0.37119464D+00  0.62736951D+00  0.94305339D+00  0.11583722D+01
  0.97762525D+00  0.36761262D+00  0.26988428D-04  0.20172178D-03  0.75388033D-03
  0.21032087D-02  0.28177199D-02 -0.33272018D-02  0.15876615D-01  0.35148814D-03
  0.13258404D-03 -0.35681014D-11 -0.33453219D-11 -0.23820685D-11 -0.30411250D-04
 -0.28512480D-04 -0.20302584D-04 -0.73239462D-02 -0.68666651D-02 -0.48894746D-02
 -0.71858505D-12 -0.62246213D-05  0.60116720D-03 -0.11939695D-12  0.10952035D-06
  0.53184040D-03  0.11141413D-14 -0.27277533D-07  0.65000810D-05 -0.67672848D-03
  0.54243294D-03  0.13429554D-03 -0.63120532D-14 -0.88888378D-12  0.15027410D-04
  0.20645373D-03 -0.24439631D-03  0.37942575D-04  0.83646048D-14  0.41296348D-12
 -0.32171718D-05 -0.92933720D-05 -0.38130831D-04  0.47424203D-04 -0.37941839D-15
 -0.26023377D-13 -0.11841311D-05  0.92421013D-13 -0.56125630D-06 -0.73536595D-05
  0.37437825D-13  0.46120733D-05  0.25614033D-03 -0.31470087D-12 -0.29283044D-05
 -0.23407935D-03  0.32760114D-15 -0.26634311D-13 -0.20607082D-05 -0.14788467D-03
 -0.65856268D-13  0.30831294D-06  0.10831027D-05  0.14575920D-12  0.58738118D-05
  0.44257091D-03 -0.38884328D-14 -0.99102251D-01 -0.18528164D+00 -0.32022175D+00
 -0.51794548D+00 -0.78285725D+00 -0.10781565D+01 -0.12602337D+01 -0.10891792D+01
 -0.50832559D+00 -0.68866963D-01  0.50370289D-03 -0.12491838D-02 -0.16058131D-01
 -0.58577755D-01 -0.19763990D+00 -0.43410589D+00 -0.56074641D+00  0.90116718D-01
  0.75597215D+00  0.41486777D+00 -0.54869851D-05 -0.62500171D-04 -0.12977289D-03
 -0.35684248D-03  0.46268725D-04  0.16134792D-02  0.40242733D-02 -0.33312352D-02
  0.24917846D-01 -0.17551441D-02 -0.19123772D-03  0.86989403D-08  0.11412515D-07
  0.12517059D-07  0.10298659D-07  0.54288675D-08  0.14124892D-08  0.27554778D-01
  0.36150302D-01  0.39649058D-01  0.32622050D-01  0.17196490D-01  0.44742032D-02
 -0.50317856D+01 -0.66014166D+01 -0.72403253D+01 -0.59571216D+01 -0.31402558D+01
 -0.81703549D+00  0.51237742D-13  0.18392111D-11  0.29179545D-11  0.34649814D-11
  0.52434302D-12 -0.38160703D-11  0.24596422D-06  0.88290408D-05  0.14007495D-04
  0.16633470D-04  0.25170825D-05 -0.18318854D-04 -0.40913026D-04 -0.14685989D-02
 -0.23299690D-02 -0.27667667D-02 -0.41868472D-03  0.30471090D-02  0.65544621D-10
  0.20708988D-03 -0.39537764D-01  0.23147978D-13  0.84116056D-06  0.43385648D-03
 -0.15402542D-13  0.18074095D-07  0.62156454D-05  0.27855909D-03  0.20511344D-03
 -0.48367253D-03  0.76764439D-15  0.50864987D-12  0.48993056D-05 -0.30146944D-04
 -0.29442022D-03  0.32456716D-03  0.77683257D-15 -0.22408404D-12 -0.34567070D-05
  0.86108271D-05  0.96643834D-05 -0.18275211D-04  0.21330869D-15 -0.19986285D-13
 -0.31766929D-06  0.74031919D-13  0.24988367D-06  0.11343664D-03 -0.27161396D-13
 -0.19638121D-07 -0.27367422D-03 -0.19493436D-12 -0.73001290D-06 -0.66635692D-04
  0.81277204D-15  0.74712577D-14  0.16802763D-06  0.27213510D-04  0.24489884D-13
  0.13950244D-06 -0.56129572D-04 -0.46903657D-13 -0.64358532D-06 -0.25510957D-04
 -0.81728533D-15 -0.51841341D-01 -0.96632349D-01 -0.16381336D+00 -0.24803558D+00
 -0.31009911D+00 -0.26674084D+00 -0.10230085D+00 -0.82173750D-05 -0.10878266D-03
 -0.39511841D-03 -0.11721113D-02 -0.13506216D-02  0.16405310D-02 -0.44501617D-02
  0.10959146D-02  0.14593631D-03  0.55630365D-11  0.54405282D-11  0.35947870D-11
 -0.46536275D-02 -0.45511461D-02 -0.30071346D-02 -0.12289778D-02 -0.12019134D-02
 -0.79415500D-03  0.13067546D-11 -0.49815188D-03  0.21347717D-03  0.31476366D-12
 -0.49735631D-04  0.18791507D-03 -0.24045694D-15 -0.26235669D-05  0.28255087D-04
 -0.15450099D-03  0.17249209D-03 -0.17991100D-04 -0.32593743D-12 -0.14200304D-12
  0.41280944D-03  0.11008670D-03 -0.36880515D-04 -0.73206182D-04  0.89307540D-13
 -0.52521292D-13 -0.29137891D-03  0.82914847D-04 -0.25580098D-04 -0.57334749D-04
  0.17643386D-13  0.76275882D-13  0.72601725D-04  0.16766576D-13  0.11002458D-03
  0.23129385D-03 -0.14576900D-12 -0.34862663D-03 -0.23119068D-03  0.95469269D-13
  0.18552880D-04 -0.46269088D-03 -0.58823223D-12 -0.74942557D-14 -0.23708327D-04
 -0.68002489D-04  0.75462146D-13  0.31560870D-03  0.27290373D-03 -0.52979379D-13
 -0.24448372D-03 -0.68896268D-04  0.20807919D-12 -0.51362468D-01 -0.95739730D-01
 -0.16230017D+00 -0.24574441D+00 -0.30723464D+00 -0.26427688D+00 -0.10135587D+00
 -0.80986291D-05 -0.10721069D-03 -0.38940872D-03 -0.11551736D-02 -0.13311043D-02
  0.16168244D-02 -0.44133180D-02  0.10865207D-02  0.14138335D-03  0.56444526D-11
  0.55201514D-11  0.36473974D-11  0.45562631D-02  0.44559258D-02  0.29442186D-02
 -0.12137911D-02 -0.11870612D-02 -0.78434151D-03  0.13231497D-11  0.47760461D-03
  0.22707165D-03  0.30693421D-12  0.57257190D-04  0.21338211D-03  0.24454828D-15
  0.29501904D-05  0.28455193D-04 -0.15634736D-03  0.17702063D-03 -0.20673269D-04
  0.33160316D-12 -0.11053948D-12 -0.42466759D-03  0.10294039D-03 -0.35817829D-04
 -0.67122558D-04 -0.91898130D-13 -0.53029131D-13  0.27306925D-03  0.80410066D-04
 -0.30869046D-04 -0.49541021D-04 -0.10486102D-13  0.72918569D-13 -0.77344657D-04
  0.13092451D-13 -0.11159154D-03  0.23682791D-03 -0.12370719D-12  0.33613311D-03
 -0.23967443D-03  0.84429837D-13 -0.13584782D-05 -0.47080930D-03  0.54079551D-12
 -0.60512289D-14  0.23733103D-04 -0.69635371D-04  0.67984481D-13 -0.30951173D-03
  0.27511015D-03 -0.49830794D-13  0.23831242D-03 -0.66204037D-04 -0.19931675D-12
MO    4     MO 0.0        OCC NO =    2.0000090  ORB. ENERGY =    0.000000
 -0.22520190D-09 -0.41982171D-09 -0.70955589D-09 -0.10665948D-08 -0.13101207D-08
 -0.11056957D-08 -0.41577045D-09 -0.28828543D-13 -0.21547550D-12 -0.80528114D-12
 -0.22466090D-11 -0.30098367D-11  0.35540559D-11 -0.17992676D-10  0.30206484D-12
  0.22423516D-13 -0.39841184D-02 -0.37353643D-02 -0.26598019D-02  0.73408974D-13
  0.68825579D-13  0.49007912D-13  0.73991953D-11  0.69372159D-11  0.49397110D-11
 -0.78679742D-03 -0.16669574D-12 -0.54477726D-12 -0.12089805D-03  0.21519274D-13
 -0.43092697D-12  0.19697102D-05 -0.31191504D-14  0.25863641D-14  0.90752277D-12
 -0.64884128D-12 -0.25868149D-12 -0.33944606D-05 -0.10043502D-02  0.29027940D-12
 -0.24848318D-12  0.24486632D-12  0.36168630D-14  0.29569394D-05  0.46152937D-03
  0.21948855D-12  0.69114010D-15  0.40109083D-13 -0.40800223D-13 -0.58550177D-07
 -0.27507134D-04 -0.91870497D-14  0.10266528D-03 -0.23289437D-13 -0.80039110D-13
  0.42878948D-04  0.21986636D-12 -0.30888999D-12 -0.35087478D-03 -0.14999805D-12
  0.54900732D-12 -0.69131280D-06 -0.31423858D-04  0.20303015D-13  0.14462802D-12
 -0.72097700D-04  0.10758428D-13  0.77862163D-14  0.16636927D-03 -0.71667472D-13
 -0.44167029D-12 -0.11397333D-05  0.10040093D-09  0.18770965D-09  0.32441807D-09
  0.52473286D-09  0.79311616D-09  0.10922852D-08  0.12767483D-08  0.11034522D-08
  0.51498691D-09  0.69769426D-10 -0.51030363D-12  0.82434734D-12  0.10596902D-10
  0.38655976D-10  0.13042430D-09  0.28647029D-09  0.37004148D-09 -0.59468814D-10
 -0.49887267D-09 -0.27377489D-09  0.29989521D-14  0.34159929D-13  0.70928326D-13
  0.19503488D-12 -0.25288512D-13 -0.88185892D-12 -0.21994962D-11  0.18207111D-11
 -0.16769479D-10  0.12204617D-11 -0.11147372D-13  0.97275409D+01  0.12761980D+02
  0.13997131D+02  0.11516417D+02  0.60708004D+01  0.15795081D+01 -0.89356501D-10
 -0.11723065D-09 -0.12857665D-09 -0.10578899D-09 -0.55765942D-10 -0.14509249D-10
  0.48666088D-08  0.63847140D-08  0.70026494D-08  0.57615690D-08  0.30371716D-08
  0.79021492D-09  0.57352041D-04  0.20586877D-02  0.32661597D-02  0.38784644D-02
  0.58691389D-03 -0.42714493D-02 -0.77270421D-15 -0.27736705D-13 -0.44004978D-13
 -0.52254562D-13 -0.79074925D-14  0.57549249D-13  0.40499241D-13  0.14537458D-11
  0.23064042D-11  0.27387842D-11  0.41445024D-12 -0.30162911D-11  0.73298186D-01
 -0.65614466D-12  0.37614529D-10  0.18890030D-04  0.81672322D-14 -0.28084315D-12
 -0.17723008D-04  0.16124492D-14  0.22331931D-14 -0.24685821D-12 -0.15948453D-12
  0.40634274D-12  0.12254337D-06  0.57502297D-03 -0.40964763D-14 -0.60652385D-14
  0.12893876D-12 -0.12287352D-12  0.87340501D-06 -0.25391844D-03  0.87499913D-14
 -0.90659970D-16 -0.49156254D-14  0.50062853D-14  0.44719687D-07 -0.20045064D-04
 -0.20622089D-15  0.83339859D-04 -0.15346772D-15 -0.12666860D-12 -0.31138108D-04
  0.21327035D-14  0.27824367D-12 -0.21888147D-03 -0.16723003D-14  0.10176213D-12
 -0.90768918D-07  0.88574105D-05  0.91895796D-15 -0.19843945D-13  0.27826653D-04
 -0.14385089D-14  0.44459347D-13 -0.54398885D-04 -0.13183650D-14  0.15072488D-13
 -0.19315089D-06  0.14747239D-09  0.27488879D-09  0.46599773D-09  0.70558359D-09
  0.88213489D-09  0.75879419D-09  0.29101390D-09  0.17401987D-13  0.23036972D-12
  0.83674474D-12  0.24821875D-11  0.28602197D-11 -0.34741629D-11  0.13235341D-10
 -0.13395293D-11 -0.18845580D-12  0.63875101D-02  0.62468454D-02  0.41275549D-02
  0.71740573D-11  0.70160713D-11  0.46358150D-11  0.36455278D-11  0.35652466D-11
  0.23557091D-11  0.15021597D-02  0.47559699D-12  0.38402472D-13  0.34689198D-03
  0.33750719D-13 -0.95287159D-13 -0.80543827D-06  0.79808010D-14 -0.29264729D-13
  0.13439606D-12 -0.10949442D-12 -0.24901635D-13 -0.36509988D-03 -0.14778859D-03
 -0.43481138D-12 -0.91631728D-13 -0.35576898D-13  0.12720863D-12  0.10213644D-03
 -0.55844254D-04  0.25951841D-12 -0.96488114D-13  0.27380137D-13  0.69107977D-13
  0.12617579D-04  0.80374864D-04 -0.37383801D-13  0.82444065D-05 -0.25454073D-12
 -0.20605255D-12 -0.12617264D-03  0.69444183D-12  0.23255123D-12  0.10143942D-03
  0.69180369D-13  0.38560643D-12 -0.60819196D-03 -0.47557701D-05  0.48949595D-13
  0.51699704D-13  0.75075873D-04 -0.42733978D-12 -0.28960138D-12 -0.60808563D-04
  0.28049100D-12  0.13450226D-12  0.22062532D-03 -0.23250834D-09 -0.43339595D-09
 -0.73470269D-09 -0.11124392D-08 -0.13907941D-08 -0.11963323D-08 -0.45881918D-09
 -0.17616563D-13 -0.23321031D-12 -0.84706226D-12 -0.25127942D-11 -0.28954878D-11
  0.35170012D-11 -0.21924079D-10 -0.11144530D-11 -0.20827306D-12  0.63577538D-02
  0.62177444D-02  0.41083266D-02  0.15120028D-11  0.14787057D-11  0.97704340D-12
 -0.30375085D-11 -0.29706169D-11 -0.19628122D-11  0.14934144D-02 -0.61354623D-12
 -0.11456919D-12  0.34053030D-03  0.13163631D-12 -0.42604745D-12 -0.74511742D-06
  0.60552153D-14 -0.30042262D-13  0.24920459D-12 -0.27851486D-12  0.29310266D-13
  0.36117884D-03 -0.14948524D-03  0.68191338D-12 -0.22313305D-12  0.17231144D-12
  0.50821609D-13 -0.10192578D-03 -0.53492868D-04 -0.73070311D-12 -0.47794766D-13
  0.19245379D-13  0.28549387D-13 -0.96270682D-05  0.79172803D-04  0.13257060D-12
  0.74675603D-05 -0.19255084D-13 -0.21199303D-12 -0.11822946D-03  0.11805315D-12
  0.90652513D-13  0.95826776D-04 -0.60287894D-13  0.54532658D-12  0.60350605D-03