 f2cs-wavefunction
GAUSSIAN            188 MOL ORBITALS    330 PRIMITIVES        4 NUCLEI
  C    1    (CENTRE  1)   0.00000000  0.00000000 -0.98331710  CHARGE =  6.0
  S    2    (CENTRE  2)   0.00000000  0.00000000  2.03811688  CHARGE = 16.0
  F    3    (CENTRE  3)   0.00000000 -1.99407870 -2.44821201  CHARGE =  9.0
  F    4    (CENTRE  4)   0.00000000  1.97518144 -2.44821201  CHARGE =  9.0
CENTRE ASSIGNMENTS    1  1  1  1  1  1  1  1  1  1  1  1  1  1  1  1  1  1  1  1
CENTRE ASSIGNMENTS    1  1  1  1  1  1  1  1  1  1  1  1  1  1  1  1  1  1  1  1
CENTRE ASSIGNMENTS    1  1  1  1  1  1  1  1  1  1  1  1  1  1  1  1  1  1  1  1
CENTRE ASSIGNMENTS    1  1  1  1  1  1  1  1  1  1  1  1  2  2  2  2  2  2  2  2
CENTRE ASSIGNMENTS    2  2  2  2  2  2  2  2  2  2  2  2  2  2  2  2  2  2  2  2
CENTRE ASSIGNMENTS    2  2  2  2  2  2  2  2  2  2  2  2  2  2  2  2  2  2  2  2
CENTRE ASSIGNMENTS    2  2  2  2  2  2  2  2  2  2  2  2  2  2  2  2  2  2  2  2
CENTRE ASSIGNMENTS    2  2  2  2  2  2  2  2  2  2  2  2  2  2  2  2  2  2  2  2
CENTRE ASSIGNMENTS    2  2  2  2  2  2  2  2  2  2  2  2  2  2  2  2  2  2  2  2
CENTRE ASSIGNMENTS    2  2  2  2  2  2  3  3  3  3  3  3  3  3  3  3  3  3  3  3
CENTRE ASSIGNMENTS    3  3  3  3  3  3  3  3  3  3  3  3  3  3  3  3  3  3  3  3
CENTRE ASSIGNMENTS    3  3  3  3  3  3  3  3  3  3  3  3  3  3  3  3  3  3  3  3
CENTRE ASSIGNMENTS    3  3  3  3  3  3  3  3  3  3  3  3  3  3  3  3  3  3  4  4
CENTRE ASSIGNMENTS    4  4  4  4  4  4  4  4  4  4  4  4  4  4  4  4  4  4  4  4
CENTRE ASSIGNMENTS    4  4  4  4  4  4  4  4  4  4  4  4  4  4  4  4  4  4  4  4
CENTRE ASSIGNMENTS    4  4  4  4  4  4  4  4  4  4  4  4  4  4  4  4  4  4  4  4
CENTRE ASSIGNMENTS    4  4  4  4  4  4  4  4  4  4
TYPE ASSIGNMENTS      1  1  1  1  1  1  1  1  1  1  1  1  1  1  1  1  2  2  2  3
TYPE ASSIGNMENTS      3  3  4  4  4  2  3  4  2  3  4  2  3  4  5  6  7  8  9 10
TYPE ASSIGNMENTS      5  6  7  8  9 10  5  6  7  8  9 10 11 12 13 17 14 15 18 19
TYPE ASSIGNMENTS     16 20 11 12 13 17 14 15 18 19 16 20  1  1  1  1  1  1  1  1
TYPE ASSIGNMENTS      1  1  1  1  1  1  1  1  1  1  1  1  1  1  1  1  1  1  1  1
TYPE ASSIGNMENTS      1  1  1  2  2  2  2  2  2  3  3  3  3  3  3  4  4  4  4  4
TYPE ASSIGNMENTS      4  2  2  2  2  2  2  3  3  3  3  3  3  4  4  4  4  4  4  2
TYPE ASSIGNMENTS      3  4  2  3  4  2  3  4  5  6  7  8  9 10  5  6  7  8  9 10
TYPE ASSIGNMENTS      5  6  7  8  9 10 11 12 13 17 14 15 18 19 16 20 11 12 13 17
TYPE ASSIGNMENTS     14 15 18 19 16 20  1  1  1  1  1  1  1  1  1  1  1  1  1  1
TYPE ASSIGNMENTS      1  1  2  2  2  3  3  3  4  4  4  2  3  4  2  3  4  2  3  4
TYPE ASSIGNMENTS      5  6  7  8  9 10  5  6  7  8  9 10  5  6  7  8  9 10 11 12
TYPE ASSIGNMENTS     13 17 14 15 18 19 16 20 11 12 13 17 14 15 18 19 16 20  1  1
TYPE ASSIGNMENTS      1  1  1  1  1  1  1  1  1  1  1  1  1  1  2  2  2  3  3  3
TYPE ASSIGNMENTS      4  4  4  2  3  4  2  3  4  2  3  4  5  6  7  8  9 10  5  6
TYPE ASSIGNMENTS      7  8  9 10  5  6  7  8  9 10 11 12 13 17 14 15 18 19 16 20
TYPE ASSIGNMENTS     11 12 13 17 14 15 18 19 16 20
EXPONENTS  0.8236000D+04 0.1235000D+04 0.2808000D+03 0.7927000D+02 0.2559000D+02
EXPONENTS  0.8997000D+01 0.3319000D+01 0.2808000D+03 0.7927000D+02 0.2559000D+02
EXPONENTS  0.8997000D+01 0.3319000D+01 0.3643000D+00 0.9059000D+00 0.1285000D+00
EXPONENTS  0.4402000D-01 0.1871000D+02 0.4133000D+01 0.1200000D+01 0.1871000D+02
EXPONENTS  0.4133000D+01 0.1200000D+01 0.1871000D+02 0.4133000D+01 0.1200000D+01
EXPONENTS  0.3827000D+00 0.3827000D+00 0.3827000D+00 0.1209000D+00 0.1209000D+00
EXPONENTS  0.1209000D+00 0.3569000D-01 0.3569000D-01 0.3569000D-01 0.1097000D+01
EXPONENTS  0.1097000D+01 0.1097000D+01 0.1097000D+01 0.1097000D+01 0.1097000D+01
EXPONENTS  0.3180000D+00 0.3180000D+00 0.3180000D+00 0.3180000D+00 0.3180000D+00
EXPONENTS  0.3180000D+00 0.1000000D+00 0.1000000D+00 0.1000000D+00 0.1000000D+00
EXPONENTS  0.1000000D+00 0.1000000D+00 0.7610000D+00 0.7610000D+00 0.7610000D+00
EXPONENTS  0.7610000D+00 0.7610000D+00 0.7610000D+00 0.7610000D+00 0.7610000D+00
EXPONENTS  0.7610000D+00 0.7610000D+00 0.2680000D+00 0.2680000D+00 0.2680000D+00
EXPONENTS  0.2680000D+00 0.2680000D+00 0.2680000D+00 0.2680000D+00 0.2680000D+00
EXPONENTS  0.2680000D+00 0.2680000D+00 0.3741000D+06 0.5605000D+05 0.1276000D+05
EXPONENTS  0.3615000D+04 0.1183000D+04 0.4288000D+03 0.1678000D+03 0.6947000D+02
EXPONENTS  0.2984000D+02 0.1272000D+02 0.5244000D+01 0.3615000D+04 0.1183000D+04
EXPONENTS  0.4288000D+03 0.1678000D+03 0.6947000D+02 0.2984000D+02 0.1272000D+02
EXPONENTS  0.5244000D+01 0.2219000D+01 0.1183000D+04 0.1678000D+03 0.6947000D+02
EXPONENTS  0.2984000D+02 0.1272000D+02 0.5244000D+01 0.2219000D+01 0.3490000D+00
EXPONENTS  0.7767000D+00 0.1322000D+00 0.4970000D-01 0.5744000D+03 0.1358000D+03
EXPONENTS  0.4319000D+02 0.1587000D+02 0.6208000D+01 0.2483000D+01 0.5744000D+03
EXPONENTS  0.1358000D+03 0.4319000D+02 0.1587000D+02 0.6208000D+01 0.2483000D+01
EXPONENTS  0.5744000D+03 0.1358000D+03 0.4319000D+02 0.1587000D+02 0.6208000D+01
EXPONENTS  0.2483000D+01 0.1358000D+03 0.4319000D+02 0.1587000D+02 0.6208000D+01
EXPONENTS  0.2483000D+01 0.3229000D+00 0.1358000D+03 0.4319000D+02 0.1587000D+02
EXPONENTS  0.6208000D+01 0.2483000D+01 0.3229000D+00 0.1358000D+03 0.4319000D+02
EXPONENTS  0.1587000D+02 0.6208000D+01 0.2483000D+01 0.3229000D+00 0.8688000D+00
EXPONENTS  0.8688000D+00 0.8688000D+00 0.1098000D+00 0.1098000D+00 0.1098000D+00
EXPONENTS  0.3510000D-01 0.3510000D-01 0.3510000D-01 0.2690000D+00 0.2690000D+00
EXPONENTS  0.2690000D+00 0.2690000D+00 0.2690000D+00 0.2690000D+00 0.8190000D+00
EXPONENTS  0.8190000D+00 0.8190000D+00 0.8190000D+00 0.8190000D+00 0.8190000D+00
EXPONENTS  0.1010000D+00 0.1010000D+00 0.1010000D+00 0.1010000D+00 0.1010000D+00
EXPONENTS  0.1010000D+00 0.5570000D+00 0.5570000D+00 0.5570000D+00 0.5570000D+00
EXPONENTS  0.5570000D+00 0.5570000D+00 0.5570000D+00 0.5570000D+00 0.5570000D+00
EXPONENTS  0.5570000D+00 0.2180000D+00 0.2180000D+00 0.2180000D+00 0.2180000D+00
EXPONENTS  0.2180000D+00 0.2180000D+00 0.2180000D+00 0.2180000D+00 0.2180000D+00
EXPONENTS  0.2180000D+00 0.1950000D+05 0.2923000D+04 0.6645000D+03 0.1875000D+03
EXPONENTS  0.6062000D+02 0.2142000D+02 0.7950000D+01 0.6645000D+03 0.1875000D+03
EXPONENTS  0.6062000D+02 0.2142000D+02 0.7950000D+01 0.8815000D+00 0.2257000D+01
EXPONENTS  0.3041000D+00 0.9158000D-01 0.4388000D+02 0.9926000D+01 0.2930000D+01
EXPONENTS  0.4388000D+02 0.9926000D+01 0.2930000D+01 0.4388000D+02 0.9926000D+01
EXPONENTS  0.2930000D+01 0.9132000D+00 0.9132000D+00 0.9132000D+00 0.2672000D+00
EXPONENTS  0.2672000D+00 0.2672000D+00 0.7361000D-01 0.7361000D-01 0.7361000D-01
EXPONENTS  0.3107000D+01 0.3107000D+01 0.3107000D+01 0.3107000D+01 0.3107000D+01
EXPONENTS  0.3107000D+01 0.8550000D+00 0.8550000D+00 0.8550000D+00 0.8550000D+00
EXPONENTS  0.8550000D+00 0.8550000D+00 0.2920000D+00 0.2920000D+00 0.2920000D+00
EXPONENTS  0.2920000D+00 0.2920000D+00 0.2920000D+00 0.1917000D+01 0.1917000D+01
EXPONENTS  0.1917000D+01 0.1917000D+01 0.1917000D+01 0.1917000D+01 0.1917000D+01
EXPONENTS  0.1917000D+01 0.1917000D+01 0.1917000D+01 0.7240000D+00 0.7240000D+00
EXPONENTS  0.7240000D+00 0.7240000D+00 0.7240000D+00 0.7240000D+00 0.7240000D+00
EXPONENTS  0.7240000D+00 0.7240000D+00 0.7240000D+00 0.1950000D+05 0.2923000D+04
EXPONENTS  0.6645000D+03 0.1875000D+03 0.6062000D+02 0.2142000D+02 0.7950000D+01
EXPONENTS  0.6645000D+03 0.1875000D+03 0.6062000D+02 0.2142000D+02 0.7950000D+01
EXPONENTS  0.8815000D+00 0.2257000D+01 0.3041000D+00 0.9158000D-01 0.4388000D+02
EXPONENTS  0.9926000D+01 0.2930000D+01 0.4388000D+02 0.9926000D+01 0.2930000D+01
EXPONENTS  0.4388000D+02 0.9926000D+01 0.2930000D+01 0.9132000D+00 0.9132000D+00
EXPONENTS  0.9132000D+00 0.2672000D+00 0.2672000D+00 0.2672000D+00 0.7361000D-01
EXPONENTS  0.7361000D-01 0.7361000D-01 0.3107000D+01 0.3107000D+01 0.3107000D+01
EXPONENTS  0.3107000D+01 0.3107000D+01 0.3107000D+01 0.8550000D+00 0.8550000D+00
EXPONENTS  0.8550000D+00 0.8550000D+00 0.8550000D+00 0.8550000D+00 0.2920000D+00
EXPONENTS  0.2920000D+00 0.2920000D+00 0.2920000D+00 0.2920000D+00 0.2920000D+00
EXPONENTS  0.1917000D+01 0.1917000D+01 0.1917000D+01 0.1917000D+01 0.1917000D+01
EXPONENTS  0.1917000D+01 0.1917000D+01 0.1917000D+01 0.1917000D+01 0.1917000D+01
EXPONENTS  0.7240000D+00 0.7240000D+00 0.7240000D+00 0.7240000D+00 0.7240000D+00
EXPONENTS  0.7240000D+00 0.7240000D+00 0.7240000D+00 0.7240000D+00 0.7240000D+00
MO    1     MO 0.0        OCC NO =    2.0000305  ORB. ENERGY =    0.000000
  0.20505032D-03  0.38225510D-03  0.64606320D-03  0.97115348D-03  0.11928881D-02
  0.10067555D-02  0.37856635D-03  0.85536315D-07  0.63933096D-06  0.23893258D-05
  0.66658468D-05  0.89303970D-05 -0.10545134D-04  0.11057553D-04  0.14116538D-04
 -0.39323290D-06 -0.13295752D-12 -0.12465613D-12 -0.88762589D-13 -0.30330699D-02
 -0.28436958D-02 -0.20248808D-02 -0.29552352D-04 -0.27707208D-04 -0.19729183D-04
 -0.29387200D-13 -0.15690361D-02  0.98229087D-05  0.25462602D-14  0.61537587D-03
 -0.53384331D-05  0.29113115D-15 -0.13643599D-04 -0.76266796D-07  0.63788358D-06
  0.41363653D-05 -0.47742489D-05 -0.62800256D-14 -0.36449935D-13 -0.10133813D-02
 -0.12852469D-05 -0.16921475D-05  0.29773944D-05  0.19196112D-14  0.21040533D-13
  0.39598013D-03  0.51252023D-07 -0.40801816D-06  0.35676614D-06 -0.50115304D-16
  0.94612771D-15 -0.22776868D-03  0.60053646D-14  0.24353993D-03  0.28748719D-05
 -0.16937218D-14  0.35939818D-03 -0.31190063D-05 -0.16322372D-13 -0.10900180D-02
 -0.55056095D-05  0.20364984D-14 -0.16299565D-14 -0.13907709D-03 -0.59612186D-06
 -0.23491362D-14 -0.12910710D-03  0.68783413D-06  0.72390057D-14  0.54633836D-03
  0.11005314D-05 -0.32578429D-14  0.43690997D-03  0.81684720D-03  0.14117548D-02
  0.22834551D-02  0.34513660D-02  0.47532456D-02  0.55559653D-02  0.48018409D-02
  0.22410441D-02  0.30361231D-03 -0.22206641D-05  0.54404930D-05  0.69936989D-04
  0.25512008D-03  0.86076884D-03  0.18906346D-02  0.24421842D-02 -0.39247978D-03
 -0.32924389D-02 -0.18068480D-02  0.47233131D-07  0.53801472D-06  0.11171125D-05
  0.30717757D-05 -0.39829099D-06 -0.13889171D-04 -0.34641798D-04  0.28675978D-04
 -0.95346195D-04 -0.79024314D-06  0.10297390D-05  0.32576014D-09  0.42737878D-09
  0.46874203D-09  0.38566682D-09  0.20330162D-09  0.52895257D-10  0.97652890D+01
  0.12811504D+02  0.14051447D+02  0.11561107D+02  0.60943584D+01  0.15856374D+01
 -0.30611072D-01 -0.40159985D-01 -0.44046812D-01 -0.36240390D-01 -0.19103873D-01
 -0.49704684D-02  0.19200600D-14  0.68921766D-13  0.10934611D-12  0.12984515D-12
  0.19648994D-13 -0.14300170D-12  0.94863364D-04  0.34051803D-02  0.54024040D-02
  0.64151890D-02  0.97078718D-03 -0.70652072D-02 -0.34932132D-06 -0.12539109D-04
 -0.19893611D-04 -0.23623053D-04 -0.35747905D-05  0.26016656D-04  0.24493923D-11
  0.67610659D-01 -0.22369203D-03 -0.58432176D-14 -0.37919254D-03  0.23852092D-05
 -0.78948382D-15 -0.70778342D-05 -0.46135447D-07  0.21488604D-05  0.15349712D-05
 -0.36838316D-05  0.13771753D-14  0.23343503D-13  0.96648646D-03  0.30707695D-06
  0.13953169D-05 -0.17023938D-05 -0.19088614D-14 -0.10863328D-13 -0.55749485D-03
  0.82375612D-07  0.90839355D-07 -0.17321497D-06 -0.18231143D-17  0.11630791D-14
 -0.42199713D-04  0.23813406D-14  0.35165802D-04  0.10056493D-05 -0.75756942D-15
  0.10944219D-03 -0.19607664D-05 -0.63864522D-14 -0.21493959D-03 -0.10561816D-05
 -0.10930582D-14  0.73846149D-15  0.34924895D-04  0.38297451D-06  0.11903855D-14
  0.16561783D-04 -0.56810399D-06 -0.34057700D-14 -0.12133647D-03 -0.58081953D-06
 -0.79235867D-15  0.50440366D-02  0.94020928D-02  0.15938642D-01  0.24133259D-01
  0.30171890D-01  0.25953236D-01  0.99536245D-02 -0.67324029D-06 -0.89124409D-05
 -0.32371607D-04 -0.96029762D-04 -0.11065490D-03  0.13440686D-03  0.58585145D-03
  0.88356292D-04  0.86145987D-03  0.23796418D-12  0.23272377D-12  0.15377044D-12
 -0.13532805D-02 -0.13234788D-02 -0.87447840D-03 -0.38725131D-02 -0.37872332D-02
 -0.25023851D-02  0.57382266D-13 -0.40026894D-03 -0.10763498D-02  0.14888716D-13
 -0.14809095D-03 -0.75056277D-03  0.10782012D-15  0.92921500D-04  0.11620777D-04
  0.22931694D-04  0.28146702D-04 -0.51078396D-04 -0.23507867D-13 -0.77182120D-14
  0.26192817D-03 -0.53008074D-04 -0.13358333D-03  0.18659140D-03  0.37338140D-14
  0.14791491D-14 -0.15015894D-03  0.11079077D-03 -0.20332782D-04 -0.90457992D-04
  0.29701766D-14  0.28142738D-14 -0.28027948D-03 -0.61196746D-15 -0.27865436D-04
 -0.52636233D-04 -0.10380938D-13 -0.33065786D-03  0.19044532D-04  0.12216840D-13
  0.41425417D-03  0.13886417D-03 -0.22233968D-13 -0.11194377D-14 -0.63174121D-04
  0.94807349D-04  0.61229886D-14  0.20068670D-03 -0.40935634D-04 -0.27646755D-14
 -0.11164338D-04 -0.24348641D-03  0.13275896D-13 -0.51743559D-02 -0.96450083D-02
 -0.16350438D-01 -0.24756774D-01 -0.30951420D-01 -0.26623772D-01 -0.10210789D-01
  0.62005809D-06  0.82084081D-05  0.29814432D-04  0.88443950D-04  0.10191379D-03
 -0.12378948D-03 -0.59406916D-03 -0.85806956D-04 -0.86824692D-03  0.16881941D-12
  0.16510169D-12  0.10908967D-12 -0.12241513D-02 -0.11971932D-02 -0.79103619D-03
  0.39014716D-02  0.38155540D-02  0.25210979D-02  0.40792402D-13 -0.37595515D-03
  0.10894402D-02  0.81379555D-14 -0.14609317D-03  0.76178529D-03  0.20909877D-15
  0.93144052D-04 -0.11724758D-04 -0.24334722D-04 -0.27379926D-04  0.51714648D-04
  0.12873789D-13 -0.14134248D-13  0.25908147D-03  0.53354717D-04  0.13842294D-03
 -0.19177766D-03 -0.40774304D-14 -0.23055008D-14 -0.15389975D-03 -0.11211654D-03
  0.20025042D-04  0.92091493D-04  0.44373640D-15  0.25572703D-14 -0.28021370D-03
  0.43282079D-16 -0.31044550D-04  0.46420176D-04  0.80621229D-14 -0.32589452D-03
 -0.20212870D-04 -0.81919692D-14  0.41902817D-03 -0.11904766D-03  0.30331883D-13
 -0.15577295D-14 -0.63700942D-04 -0.94527332D-04  0.39495928D-14  0.19993422D-03
  0.43201458D-04  0.72359563D-15 -0.88313910D-05  0.24038054D-03 -0.14505886D-13
MO    2     MO 0.0        OCC NO =    2.0000247  ORB. ENERGY =    0.000000
 -0.59333495D-01 -0.11060959D+00 -0.18694527D+00 -0.28101361D+00 -0.34517489D+00
 -0.29131543D+00 -0.10954221D+00 -0.94582237D-05 -0.70694362D-04 -0.26420097D-03
 -0.73707958D-03 -0.98748342D-03  0.11660338D-02 -0.45029151D-02 -0.13810358D-02
 -0.56487130D-04  0.16618267D-12  0.15580682D-12  0.11094374D-12 -0.19646124D-04
 -0.18419490D-04 -0.13115774D-04  0.29564045D-02  0.27718171D-02  0.19736989D-02
  0.30777845D-13 -0.74355518D-05 -0.42017887D-03 -0.27229645D-14  0.37299278D-05
 -0.93912452D-03 -0.42921776D-15 -0.95302959D-08  0.79718370D-05  0.26283040D-03
 -0.10763081D-03 -0.15519959D-03 -0.68981803D-14  0.44822307D-13  0.51859605D-05
  0.10312511D-03  0.15552439D-03 -0.25864949D-03  0.94725619D-14 -0.22559504D-13
  0.13242451D-05  0.17280128D-04  0.62073808D-04 -0.79353935D-04  0.10980073D-15
 -0.10930965D-14 -0.10734998D-05 -0.50527955D-14  0.54456127D-06 -0.36520196D-04
 -0.12010488D-14  0.32773747D-05 -0.10135567D-03  0.16359435D-13 -0.49110585D-05
  0.21091626D-03 -0.59888111D-14  0.18267214D-14  0.63284143D-07  0.47314691D-04
  0.27111475D-14 -0.57943983D-06  0.25532901D-04 -0.81913117D-14  0.38958740D-06
 -0.16747697D-03 -0.45675488D-14 -0.12692082D+00 -0.23729126D+00 -0.41010983D+00
 -0.66333575D+00 -0.10026098D+01 -0.13808013D+01 -0.16139885D+01 -0.13949180D+01
 -0.65101550D+00 -0.88198316D-01  0.64509519D-03 -0.15823389D-02 -0.20340807D-01
 -0.74200342D-01 -0.25035011D+00 -0.54988118D+00 -0.71029650D+00  0.11415069D+00
  0.95758862D+00  0.52551229D+00 -0.13255423D-04 -0.15098751D-03 -0.31350449D-03
 -0.86205774D-03  0.11177569D-03  0.38978325D-02  0.97218133D-02 -0.80475762D-02
  0.29234647D-01  0.15667318D-02  0.74715865D-04 -0.35433069D-09 -0.46486172D-09
 -0.50985270D-09 -0.41949144D-09 -0.22113204D-09 -0.57534396D-10  0.39397396D-01
  0.51687143D-01  0.56689609D-01  0.46642503D-01  0.24587275D-01  0.63971466D-02
  0.62374969D+01  0.81832412D+01  0.89752446D+01  0.73845609D+01  0.38927206D+01
  0.10128127D+01 -0.21766977D-14 -0.78133939D-13 -0.12396145D-12 -0.14720042D-12
 -0.22275304D-13  0.16211549D-12  0.33077740D-06  0.11873463D-04  0.18837547D-04
  0.22369010D-04  0.33850208D-05 -0.24635547D-04  0.57890179D-04  0.20780045D-02
  0.32968062D-02  0.39148563D-02  0.59242094D-03 -0.43115286D-02 -0.26665626D-11
  0.27764278D-03  0.46112266D-01  0.64152576D-14 -0.84347084D-06 -0.79462028D-03
  0.95842420D-15 -0.40784950D-07 -0.63845383D-05 -0.25906432D-03 -0.14642763D-03
  0.40549195D-03  0.11477546D-14 -0.26105476D-13  0.24739199D-05  0.15009092D-03
 -0.37047657D-03  0.22038565D-03  0.10870851D-14  0.88017830D-14 -0.18784628D-05
 -0.14790467D-04 -0.27377706D-04  0.42168174D-04 -0.33958430D-16 -0.13254194D-14
 -0.20718630D-06 -0.29724826D-14 -0.92856767D-07 -0.88808061D-04  0.11362821D-14
  0.37404197D-06  0.21751156D-03  0.77811657D-14 -0.95471666D-07  0.48912621D-04
 -0.15050462D-15 -0.76313512D-15  0.95020822D-07 -0.22256965D-04 -0.14834836D-14
  0.35503005D-07  0.32125005D-04  0.37728889D-14 -0.32056547D-06  0.34645890D-04
 -0.52905997D-15  0.66782743D-02  0.12448315D-01  0.21102667D-01  0.31952291D-01
  0.39947402D-01  0.34361929D-01  0.13178539D-01  0.15519038D-05  0.20544301D-04
  0.74620638D-04  0.22136072D-03  0.25507352D-03 -0.30982478D-03  0.52451374D-03
 -0.38991369D-03 -0.25078431D-03 -0.18751514D-12 -0.18338572D-12 -0.12117070D-12
  0.14029308D-03  0.13720356D-03  0.90656195D-04 -0.94743827D-03 -0.92657393D-03
 -0.61222657D-03 -0.43392810D-13 -0.83001151D-04 -0.38798054D-03 -0.46585742D-14
  0.24371500D-05 -0.84767537D-04  0.60261147D-16 -0.45483648D-05 -0.60181658D-04
  0.36378179D-04 -0.10456388D-03  0.68185706D-04  0.24297715D-14  0.37932424D-13
 -0.24691217D-04 -0.22557139D-04  0.93804482D-05  0.13176691D-04 -0.22130172D-14
 -0.86220275D-15  0.91190913D-04 -0.45527144D-04  0.93940847D-05  0.36133059D-04
  0.41493980D-14  0.78290670D-15 -0.23704473D-04 -0.18915872D-15 -0.78447878D-04
 -0.10885363D-03  0.37696990D-14  0.11001686D-03  0.22686476D-04 -0.32022228D-14
  0.12532677D-03  0.30387440D-03  0.10988409D-13 -0.13369097D-14  0.15422247D-04
  0.45134362D-04 -0.40026139D-16 -0.96655678D-04 -0.76905555D-04  0.40507553D-14
  0.50388937D-04 -0.58497530D-04  0.87055674D-15  0.67102621D-02  0.12507940D-01
  0.21203745D-01  0.32105337D-01  0.40138743D-01  0.34526517D-01  0.13241662D-01
  0.15864980D-05  0.21002262D-04  0.76284038D-04  0.22629516D-03  0.26075947D-03
 -0.31673121D-03  0.52353412D-03 -0.39012268D-03 -0.26048052D-03 -0.22653491D-12
 -0.22154619D-12 -0.14638494D-12 -0.17527041D-03 -0.17141064D-03 -0.11325825D-03
 -0.89719392D-03 -0.87743606D-03 -0.57975910D-03 -0.51319703D-13  0.70290773D-04
 -0.37435756D-03 -0.18942289D-13 -0.13439645D-04 -0.82564454D-04 -0.49922936D-16
  0.48116724D-05 -0.61033896D-04  0.34760373D-04 -0.10541305D-03  0.70652680D-04
 -0.26180753D-13  0.71421517D-14  0.21938730D-04 -0.23527286D-04  0.10501459D-04
  0.13025827D-04  0.52432244D-14 -0.32812735D-14 -0.96122720D-04 -0.47001940D-04
  0.11869147D-04  0.35132793D-04  0.45313286D-14 -0.38038494D-14  0.21827960D-04
 -0.14450440D-14  0.80660597D-04 -0.10568472D-03  0.76189144D-14 -0.11533949D-03
  0.25795844D-04 -0.32837824D-14 -0.12664231D-03  0.29125831D-03 -0.55946327D-13
  0.11854856D-14 -0.15977379D-04  0.44495898D-04 -0.56293858D-14  0.97816540D-04
 -0.77766636D-04  0.20729288D-14 -0.49884402D-04 -0.55721056D-04  0.19360663D-13
MO    3     MO 0.0        OCC NO =    2.0000101  ORB. ENERGY =    0.000000
  0.19837546D+00  0.36981182D+00  0.62503236D+00  0.93954021D+00  0.11540569D+01
  0.97398329D+00  0.36624315D+00  0.26853969D-04  0.20071678D-03  0.75012443D-03
  0.20927303D-02  0.28036817D-02 -0.33106253D-02  0.15840665D-01  0.33789036D-03
  0.13210004D-03  0.16180316D-11  0.15170075D-11  0.10801997D-11  0.17713393D-04
  0.16607432D-04  0.11825481D-04 -0.73411991D-02 -0.68828408D-02 -0.49009927D-02
  0.32631662D-12  0.35809619D-05  0.59543597D-03  0.42296012D-13 -0.20130616D-05
  0.52967438D-03 -0.11111032D-14  0.47787192D-07  0.64258449D-05 -0.69194315D-03
  0.56073695D-03  0.13120620D-03 -0.10341891D-13  0.40603141D-12 -0.29649622D-04
  0.20766919D-03 -0.24481148D-03  0.37142292D-04  0.10825600D-13 -0.19017832D-12
  0.22952993D-05 -0.91443247D-05 -0.38283744D-04  0.47428068D-04  0.46425231D-15
  0.92439131D-14  0.96543603D-06 -0.44163828D-13 -0.77495063D-07 -0.59242423D-05
 -0.13122519D-13 -0.55281266D-05  0.26243385D-03  0.14561400D-12  0.57606118D-05
 -0.24466112D-03  0.23681931D-14  0.12917699D-13 -0.12342147D-05 -0.14913028D-03
  0.28786685D-13  0.35586170D-06  0.15234050D-05 -0.67539781D-13  0.33467825D-05
  0.44586743D-03 -0.63434340D-14 -0.99368656D-01 -0.18577971D+00 -0.32108256D+00
 -0.51933781D+00 -0.78496172D+00 -0.10810548D+01 -0.12636214D+01 -0.10921071D+01
 -0.50969206D+00 -0.69052090D-01  0.50505693D-03 -0.12526197D-02 -0.16102301D-01
 -0.58738879D-01 -0.19818352D+00 -0.43529994D+00 -0.56228879D+00  0.90364592D-01
  0.75805152D+00  0.41600890D+00 -0.54966486D-05 -0.62610245D-04 -0.13000144D-03
 -0.35747094D-03  0.46350212D-04  0.16163208D-02  0.40313607D-02 -0.33371020D-02
  0.24989901D-01 -0.17505676D-02 -0.19027273D-03 -0.38891966D-08 -0.51024048D-08
 -0.55962338D-08 -0.46044126D-08 -0.24271845D-08 -0.63150776D-09 -0.49789373D-02
 -0.65320826D-02 -0.71642809D-02 -0.58945545D-02 -0.31072740D-02 -0.80845424D-03
 -0.50373748D+01 -0.66087492D+01 -0.72483676D+01 -0.59637385D+01 -0.31437439D+01
 -0.81794302D+00 -0.23032629D-13 -0.82677076D-12 -0.13116925D-11 -0.15575946D-11
 -0.23570512D-12  0.17154177D-11  0.22639706D-07  0.81266654D-06  0.12893158D-05
  0.15310230D-05  0.23168414D-06 -0.16861537D-05 -0.40870417D-04 -0.14670694D-02
 -0.23275424D-02 -0.27638852D-02 -0.41824868D-03  0.30439356D-02 -0.29290156D-10
 -0.35086526D-04 -0.39593483D-01  0.44989928D-16 -0.13882487D-05  0.43163920D-03
  0.73792719D-14 -0.18371125D-07  0.61941385D-05  0.27876222D-03  0.20466672D-03
 -0.48342894D-03  0.12857563D-14 -0.23363510D-12  0.29011193D-05 -0.34106373D-04
 -0.29659385D-03  0.33070023D-03 -0.25214842D-14  0.10093775D-12  0.28842098D-05
  0.84663279D-05  0.96176270D-05 -0.18083955D-04 -0.24339484D-16  0.59123945D-14
  0.27114273D-06 -0.32817149D-13  0.65804118D-06  0.11278056D-03  0.12684712D-13
  0.18752587D-06 -0.27265305D-03  0.85766735D-13 -0.21616494D-05 -0.65688638D-04
 -0.51865205D-16 -0.40118380D-14  0.92559837D-07  0.27228792D-04 -0.11479950D-13
  0.99608314D-07 -0.56193256D-04  0.23515464D-13 -0.37728783D-06 -0.25493119D-04
 -0.62921109D-15 -0.51718193D-01 -0.96402800D-01 -0.16342422D+00 -0.24744638D+00
 -0.30936247D+00 -0.26610720D+00 -0.10205784D+00 -0.81938800D-05 -0.10847163D-03
 -0.39398869D-03 -0.11687600D-02 -0.13467599D-02  0.16358405D-02 -0.44399450D-02
  0.10983993D-02  0.14203233D-03 -0.23582243D-11 -0.23062919D-11 -0.15238645D-11
 -0.46203775D-02 -0.45186283D-02 -0.29856487D-02 -0.11784065D-02 -0.11524558D-02
 -0.76147629D-03 -0.55746004D-12 -0.49155039D-03  0.22428813D-03 -0.12436007D-12
 -0.48109240D-04  0.19500465D-03  0.58570378D-15 -0.29814918D-05  0.28376617D-04
 -0.15343757D-03  0.16787486D-03 -0.14437294D-04  0.13045343D-12  0.81201442D-13
  0.41152254D-03  0.10953331D-03 -0.34997697D-04 -0.74535618D-04 -0.37336557D-13
  0.20504670D-13 -0.28820839D-03  0.82135180D-04 -0.25714274D-04 -0.56420906D-04
 -0.48593786D-15 -0.28017207D-13  0.74218791D-04 -0.20882774D-14  0.11013619D-03
  0.23005197D-03  0.50998560D-13 -0.34819282D-03 -0.22958750D-03 -0.44733728D-13
  0.17784245D-04 -0.46056840D-03  0.22433309D-12  0.18015551D-14 -0.22650236D-04
 -0.68270544D-04 -0.29756380D-13  0.31299939D-03  0.27152991D-03  0.24351715D-13
 -0.24504869D-03 -0.66718284D-04 -0.81451924D-13 -0.52199763D-01 -0.97300448D-01
 -0.16494594D+00 -0.24975046D+00 -0.31224308D+00 -0.26858504D+00 -0.10300814D+00
 -0.83082993D-05 -0.10998633D-03 -0.39949035D-03 -0.11850806D-02 -0.13655660D-02
  0.16586833D-02 -0.44778677D-02  0.10985001D-02  0.14577068D-03 -0.25844027D-11
 -0.25274894D-11 -0.16700191D-11  0.47180075D-02  0.46141083D-02  0.30487364D-02
 -0.12646557D-02 -0.12368057D-02 -0.81720980D-03 -0.60606763D-12  0.52221150D-03
  0.20530464D-03 -0.14909212D-12  0.74329566D-04  0.19957949D-03  0.52070458D-16
  0.29968979D-05  0.28611258D-04 -0.14725605D-03  0.16759716D-03 -0.20341103D-04
 -0.15077742D-12  0.60896403D-13 -0.39918120D-03  0.11538190D-03 -0.40027587D-04
 -0.75354314D-04  0.41325695D-13  0.18107676D-13  0.30645002D-03  0.85015510D-04
 -0.32302785D-04 -0.52712725D-04  0.10710369D-13 -0.34617566D-13 -0.71987403D-04
 -0.52508180D-14 -0.11621038D-03  0.22185630D-03  0.62723983D-13  0.36213974D-03
 -0.24080048D-03 -0.46971529D-13 -0.13508598D-04 -0.42476842D-03 -0.28259129D-12
  0.37271769D-14  0.24004833D-04 -0.67036319D-04 -0.35427128D-13 -0.31683954D-03
  0.27619772D-03  0.24245598D-13  0.24482504D-03 -0.75088761D-04  0.10265080D-12
MO    4     MO 0.0        OCC NO =    2.0000091  ORB. ENERGY =    0.000000
  0.90486499D-10  0.16868506D-09  0.28510074D-09  0.42855959D-09  0.52640869D-09
  0.44427036D-09  0.16705726D-09  0.11779538D-13  0.88044749D-13  0.32904333D-12
  0.91797965D-12  0.12298396D-11 -0.14522113D-11  0.73107166D-11  0.30521409D-12
  0.10837662D-12 -0.39901758D-02 -0.37410435D-02 -0.26638458D-02  0.98075310D-13
  0.91951837D-13  0.65475186D-13 -0.27631273D-11 -0.25906075D-11 -0.18446669D-11
 -0.79664685D-03  0.93812535D-13  0.42616462D-12 -0.12315011D-03 -0.43464297D-13
  0.15685975D-12  0.20208431D-05  0.12462210D-14  0.83401912D-14 -0.23090058D-12
  0.16100458D-12  0.69896000D-13  0.93943602D-06 -0.10112661D-02 -0.43427482D-13
  0.10064904D-12 -0.13217818D-12  0.31529144D-13 -0.40477556D-05  0.46297049D-03
 -0.37714642D-13 -0.51198727D-14 -0.26693936D-14  0.77892664D-14 -0.74907931D-07
 -0.28043868D-04  0.20501913D-13  0.10344912D-03 -0.48070394D-14  0.17547459D-13
  0.43542807D-04 -0.50309696D-13 -0.46284444D-13 -0.35389018D-03  0.64730814D-13
 -0.63579324D-14  0.51787173D-05 -0.31234369D-04  0.57240983D-14 -0.64282766D-13
 -0.72915632D-04  0.61577740D-14 -0.91653757D-14  0.16661874D-03 -0.23330069D-13
  0.20201367D-12  0.12527088D-05 -0.67006900D-10 -0.12527615D-09 -0.21651442D-09
 -0.35020315D-09 -0.52932034D-09 -0.72898370D-09 -0.85209318D-09 -0.73643654D-09
 -0.34369877D-09 -0.46563642D-10  0.34057318D-12 -0.47383410D-12 -0.60910897D-11
 -0.22219420D-10 -0.74967772D-10 -0.16466286D-09 -0.21269951D-09  0.34182621D-10
  0.28675156D-09  0.15736556D-09 -0.24152667D-14 -0.27511390D-13 -0.57123562D-13
 -0.15707529D-12  0.20366615D-13  0.71022292D-12  0.17714088D-11 -0.14663465D-11
  0.94143213D-11 -0.63033469D-12 -0.14835606D-12  0.97277344D+01  0.12762234D+02
  0.13997409D+02  0.11516646D+02  0.60709212D+01  0.15795395D+01 -0.31899285D-09
 -0.41850048D-09 -0.45900446D-09 -0.37765504D-09 -0.19907826D-09 -0.51796420D-10
 -0.11632936D-08 -0.15261750D-08 -0.16738837D-08 -0.13772211D-08 -0.72599263D-09
 -0.18888963D-09  0.57538500D-04  0.20653808D-02  0.32767784D-02  0.38910738D-02
  0.58882203D-03 -0.42853364D-02 -0.35007513D-14 -0.12566168D-12 -0.19936540D-12
 -0.23674030D-12 -0.35825047D-13  0.26072798D-12 -0.11818157D-13 -0.42422022D-12
 -0.67303601D-12 -0.79920962D-12 -0.12094148D-12  0.88018943D-12  0.73274283D-01
 -0.22279157D-11 -0.93213593D-11  0.16975674D-04 -0.19409721D-14  0.19416789D-12
 -0.17786693D-04 -0.38654188D-15  0.50094904D-14  0.11071805D-12  0.71028431D-13
 -0.18174648D-12 -0.30293342D-06  0.57653535D-03 -0.41580776D-13  0.26817239D-13
 -0.70331735D-13  0.43514496D-13  0.52967157D-06 -0.25484807D-03  0.12882114D-13
  0.71739761D-14  0.41183911D-14 -0.11292367D-13 -0.16639330D-07 -0.20223733D-04
  0.45911202D-14  0.83021099D-04 -0.20949630D-14  0.62148781D-13 -0.30394924D-04
 -0.51468047D-14 -0.13151463D-12 -0.21866837D-03  0.11431694D-13 -0.54931713D-13
  0.26053783D-06  0.89103926D-05 -0.14495263D-14  0.99245502D-14  0.27871593D-04
 -0.45253700D-15 -0.26024589D-13 -0.54602771D-04  0.48011159D-14 -0.37490621D-14
  0.11155935D-06 -0.16021358D-09 -0.29863838D-09 -0.50625859D-09 -0.76654397D-09
 -0.95834880D-09 -0.82435182D-09 -0.31615666D-09 -0.16161754D-13 -0.21395136D-12
 -0.77711026D-12 -0.23052830D-11 -0.26563730D-11  0.32265606D-11 -0.14680347D-10
  0.44359480D-12 -0.61917341D-13  0.63972885D-02  0.62564084D-02  0.41338735D-02
 -0.57128857D-11 -0.55870774D-11 -0.36916183D-11 -0.31755377D-11 -0.31056065D-11
 -0.20520055D-11  0.15038130D-02 -0.37620699D-12  0.77965576D-14  0.34584050D-03
 -0.14836240D-12  0.94633514D-14 -0.84277827D-06 -0.96497292D-14 -0.15490531D-14
  0.11989323D-14 -0.16552565D-13  0.15353632D-13 -0.36612091D-03 -0.14586513D-03
  0.93194868D-13  0.64961779D-14  0.28142411D-13 -0.34638589D-13  0.10262024D-03
 -0.58512122D-04  0.31643084D-13  0.36565444D-13 -0.22763336D-13 -0.13802109D-13
  0.11162514D-04  0.80092495D-04  0.84139286D-14  0.83726613D-05  0.37739202D-13
  0.10663734D-12 -0.12519985D-03 -0.17785438D-12 -0.24412449D-12  0.10008187D-03
  0.64636774D-13 -0.75787526D-13 -0.60321968D-03 -0.46431590D-05 -0.55248068D-15
 -0.27545570D-13  0.74793300D-04  0.12073137D-12  0.14819276D-12 -0.60863823D-04
 -0.11907392D-12 -0.65556051D-13  0.21770600D-03 -0.10192076D-09 -0.18998047D-09
 -0.32205921D-09 -0.48764121D-09 -0.60965891D-09 -0.52441599D-09 -0.20112482D-09
 -0.10880919D-13 -0.14404300D-12 -0.52319037D-12 -0.15520344D-11 -0.17884061D-11
  0.21722856D-11 -0.92821313D-11  0.45375794D-12  0.74159488D-13  0.64240132D-02
  0.62825446D-02  0.41511429D-02  0.44372281D-11  0.43395122D-11  0.28672992D-11
 -0.26892556D-11 -0.26300333D-11 -0.17377742D-11  0.15128734D-02  0.39549052D-12
 -0.93316655D-13  0.35269527D-03  0.12679680D-12 -0.33480803D-13 -0.85728983D-06
 -0.62782411D-14  0.15219933D-16 -0.60408482D-15 -0.10106205D-13  0.10710290D-13
  0.37510755D-03 -0.15256734D-03 -0.17012441D-12  0.23437709D-13 -0.38585122D-14
 -0.19579197D-13 -0.10675726D-03 -0.57091896D-04  0.80407126D-13  0.45488911D-13
 -0.23195761D-13 -0.22293149D-13 -0.13342686D-04  0.83039326D-04  0.10339760D-13
  0.10029400D-04 -0.54553143D-14  0.99499533D-13 -0.12822270D-03  0.11298065D-12
 -0.23464849D-12  0.98134494D-04 -0.96614708D-13 -0.63850104D-13  0.61663816D-03