 f2cs-wavefunction
GAUSSIAN            188 MOL ORBITALS    330 PRIMITIVES        4 NUCLEI
  C    1    (CENTRE  1)   0.00000000  0.00000000 -0.98331710  CHARGE =  6.0
  S    2    (CENTRE  2)   0.00000000  0.00000000  2.03811688  CHARGE = 16.0
  F    3    (CENTRE  3)  -0.01889726 -1.99407870 -2.44821201  CHARGE =  9.0
  F    4    (CENTRE  4)   0.00000000  1.99407870 -2.44821201  CHARGE =  9.0
CENTRE ASSIGNMENTS    1  1  1  1  1  1  1  1  1  1  1  1  1  1  1  1  1  1  1  1
CENTRE ASSIGNMENTS    1  1  1  1  1  1  1  1  1  1  1  1  1  1  1  1  1  1  1  1
CENTRE ASSIGNMENTS    1  1  1  1  1  1  1  1  1  1  1  1  1  1  1  1  1  1  1  1
CENTRE ASSIGNMENTS    1  1  1  1  1  1  1  1  1  1  1  1  2  2  2  2  2  2  2  2
CENTRE ASSIGNMENTS    2  2  2  2  2  2  2  2  2  2  2  2  2  2  2  2  2  2  2  2
CENTRE ASSIGNMENTS    2  2  2  2  2  2  2  2  2  2  2  2  2  2  2  2  2  2  2  2
CENTRE ASSIGNMENTS    2  2  2  2  2  2  2  2  2  2  2  2  2  2  2  2  2  2  2  2
CENTRE ASSIGNMENTS    2  2  2  2  2  2  2  2  2  2  2  2  2  2  2  2  2  2  2  2
CENTRE ASSIGNMENTS    2  2  2  2  2  2  2  2  2  2  2  2  2  2  2  2  2  2  2  2
CENTRE ASSIGNMENTS    2  2  2  2  2  2  3  3  3  3  3  3  3  3  3  3  3  3  3  3
CENTRE ASSIGNMENTS    3  3  3  3  3  3  3  3  3  3  3  3  3  3  3  3  3  3  3  3
CENTRE ASSIGNMENTS    3  3  3  3  3  3  3  3  3  3  3  3  3  3  3  3  3  3  3  3
CENTRE ASSIGNMENTS    3  3  3  3  3  3  3  3  3  3  3  3  3  3  3  3  3  3  4  4
CENTRE ASSIGNMENTS    4  4  4  4  4  4  4  4  4  4  4  4  4  4  4  4  4  4  4  4
CENTRE ASSIGNMENTS    4  4  4  4  4  4  4  4  4  4  4  4  4  4  4  4  4  4  4  4
CENTRE ASSIGNMENTS    4  4  4  4  4  4  4  4  4  4  4  4  4  4  4  4  4  4  4  4
CENTRE ASSIGNMENTS    4  4  4  4  4  4  4  4  4  4
TYPE ASSIGNMENTS      1  1  1  1  1  1  1  1  1  1  1  1  1  1  1  1  2  2  2  3
TYPE ASSIGNMENTS      3  3  4  4  4  2  3  4  2  3  4  2  3  4  5  6  7  8  9 10
TYPE ASSIGNMENTS      5  6  7  8  9 10  5  6  7  8  9 10 11 12 13 17 14 15 18 19
TYPE ASSIGNMENTS     16 20 11 12 13 17 14 15 18 19 16 20  1  1  1  1  1  1  1  1
TYPE ASSIGNMENTS      1  1  1  1  1  1  1  1  1  1  1  1  1  1  1  1  1  1  1  1
TYPE ASSIGNMENTS      1  1  1  2  2  2  2  2  2  3  3  3  3  3  3  4  4  4  4  4
TYPE ASSIGNMENTS      4  2  2  2  2  2  2  3  3  3  3  3  3  4  4  4  4  4  4  2
TYPE ASSIGNMENTS      3  4  2  3  4  2  3  4  5  6  7  8  9 10  5  6  7  8  9 10
TYPE ASSIGNMENTS      5  6  7  8  9 10 11 12 13 17 14 15 18 19 16 20 11 12 13 17
TYPE ASSIGNMENTS     14 15 18 19 16 20  1  1  1  1  1  1  1  1  1  1  1  1  1  1
TYPE ASSIGNMENTS      1  1  2  2  2  3  3  3  4  4  4  2  3  4  2  3  4  2  3  4
TYPE ASSIGNMENTS      5  6  7  8  9 10  5  6  7  8  9 10  5  6  7  8  9 10 11 12
TYPE ASSIGNMENTS     13 17 14 15 18 19 16 20 11 12 13 17 14 15 18 19 16 20  1  1
TYPE ASSIGNMENTS      1  1  1  1  1  1  1  1  1  1  1  1  1  1  2  2  2  3  3  3
TYPE ASSIGNMENTS      4  4  4  2  3  4  2  3  4  2  3  4  5  6  7  8  9 10  5  6
TYPE ASSIGNMENTS      7  8  9 10  5  6  7  8  9 10 11 12 13 17 14 15 18 19 16 20
TYPE ASSIGNMENTS     11 12 13 17 14 15 18 19 16 20
EXPONENTS  0.8236000D+04 0.1235000D+04 0.2808000D+03 0.7927000D+02 0.2559000D+02
EXPONENTS  0.8997000D+01 0.3319000D+01 0.2808000D+03 0.7927000D+02 0.2559000D+02
EXPONENTS  0.8997000D+01 0.3319000D+01 0.3643000D+00 0.9059000D+00 0.1285000D+00
EXPONENTS  0.4402000D-01 0.1871000D+02 0.4133000D+01 0.1200000D+01 0.1871000D+02
EXPONENTS  0.4133000D+01 0.1200000D+01 0.1871000D+02 0.4133000D+01 0.1200000D+01
EXPONENTS  0.3827000D+00 0.3827000D+00 0.3827000D+00 0.1209000D+00 0.1209000D+00
EXPONENTS  0.1209000D+00 0.3569000D-01 0.3569000D-01 0.3569000D-01 0.1097000D+01
EXPONENTS  0.1097000D+01 0.1097000D+01 0.1097000D+01 0.1097000D+01 0.1097000D+01
EXPONENTS  0.3180000D+00 0.3180000D+00 0.3180000D+00 0.3180000D+00 0.3180000D+00
EXPONENTS  0.3180000D+00 0.1000000D+00 0.1000000D+00 0.1000000D+00 0.1000000D+00
EXPONENTS  0.1000000D+00 0.1000000D+00 0.7610000D+00 0.7610000D+00 0.7610000D+00
EXPONENTS  0.7610000D+00 0.7610000D+00 0.7610000D+00 0.7610000D+00 0.7610000D+00
EXPONENTS  0.7610000D+00 0.7610000D+00 0.2680000D+00 0.2680000D+00 0.2680000D+00
EXPONENTS  0.2680000D+00 0.2680000D+00 0.2680000D+00 0.2680000D+00 0.2680000D+00
EXPONENTS  0.2680000D+00 0.2680000D+00 0.3741000D+06 0.5605000D+05 0.1276000D+05
EXPONENTS  0.3615000D+04 0.1183000D+04 0.4288000D+03 0.1678000D+03 0.6947000D+02
EXPONENTS  0.2984000D+02 0.1272000D+02 0.5244000D+01 0.3615000D+04 0.1183000D+04
EXPONENTS  0.4288000D+03 0.1678000D+03 0.6947000D+02 0.2984000D+02 0.1272000D+02
EXPONENTS  0.5244000D+01 0.2219000D+01 0.1183000D+04 0.1678000D+03 0.6947000D+02
EXPONENTS  0.2984000D+02 0.1272000D+02 0.5244000D+01 0.2219000D+01 0.3490000D+00
EXPONENTS  0.7767000D+00 0.1322000D+00 0.4970000D-01 0.5744000D+03 0.1358000D+03
EXPONENTS  0.4319000D+02 0.1587000D+02 0.6208000D+01 0.2483000D+01 0.5744000D+03
EXPONENTS  0.1358000D+03 0.4319000D+02 0.1587000D+02 0.6208000D+01 0.2483000D+01
EXPONENTS  0.5744000D+03 0.1358000D+03 0.4319000D+02 0.1587000D+02 0.6208000D+01
EXPONENTS  0.2483000D+01 0.1358000D+03 0.4319000D+02 0.1587000D+02 0.6208000D+01
EXPONENTS  0.2483000D+01 0.3229000D+00 0.1358000D+03 0.4319000D+02 0.1587000D+02
EXPONENTS  0.6208000D+01 0.2483000D+01 0.3229000D+00 0.1358000D+03 0.4319000D+02
EXPONENTS  0.1587000D+02 0.6208000D+01 0.2483000D+01 0.3229000D+00 0.8688000D+00
EXPONENTS  0.8688000D+00 0.8688000D+00 0.1098000D+00 0.1098000D+00 0.1098000D+00
EXPONENTS  0.3510000D-01 0.3510000D-01 0.3510000D-01 0.2690000D+00 0.2690000D+00
EXPONENTS  0.2690000D+00 0.2690000D+00 0.2690000D+00 0.2690000D+00 0.8190000D+00
EXPONENTS  0.8190000D+00 0.8190000D+00 0.8190000D+00 0.8190000D+00 0.8190000D+00
EXPONENTS  0.1010000D+00 0.1010000D+00 0.1010000D+00 0.1010000D+00 0.1010000D+00
EXPONENTS  0.1010000D+00 0.5570000D+00 0.5570000D+00 0.5570000D+00 0.5570000D+00
EXPONENTS  0.5570000D+00 0.5570000D+00 0.5570000D+00 0.5570000D+00 0.5570000D+00
EXPONENTS  0.5570000D+00 0.2180000D+00 0.2180000D+00 0.2180000D+00 0.2180000D+00
EXPONENTS  0.2180000D+00 0.2180000D+00 0.2180000D+00 0.2180000D+00 0.2180000D+00
EXPONENTS  0.2180000D+00 0.1950000D+05 0.2923000D+04 0.6645000D+03 0.1875000D+03
EXPONENTS  0.6062000D+02 0.2142000D+02 0.7950000D+01 0.6645000D+03 0.1875000D+03
EXPONENTS  0.6062000D+02 0.2142000D+02 0.7950000D+01 0.8815000D+00 0.2257000D+01
EXPONENTS  0.3041000D+00 0.9158000D-01 0.4388000D+02 0.9926000D+01 0.2930000D+01
EXPONENTS  0.4388000D+02 0.9926000D+01 0.2930000D+01 0.4388000D+02 0.9926000D+01
EXPONENTS  0.2930000D+01 0.9132000D+00 0.9132000D+00 0.9132000D+00 0.2672000D+00
EXPONENTS  0.2672000D+00 0.2672000D+00 0.7361000D-01 0.7361000D-01 0.7361000D-01
EXPONENTS  0.3107000D+01 0.3107000D+01 0.3107000D+01 0.3107000D+01 0.3107000D+01
EXPONENTS  0.3107000D+01 0.8550000D+00 0.8550000D+00 0.8550000D+00 0.8550000D+00
EXPONENTS  0.8550000D+00 0.8550000D+00 0.2920000D+00 0.2920000D+00 0.2920000D+00
EXPONENTS  0.2920000D+00 0.2920000D+00 0.2920000D+00 0.1917000D+01 0.1917000D+01
EXPONENTS  0.1917000D+01 0.1917000D+01 0.1917000D+01 0.1917000D+01 0.1917000D+01
EXPONENTS  0.1917000D+01 0.1917000D+01 0.1917000D+01 0.7240000D+00 0.7240000D+00
EXPONENTS  0.7240000D+00 0.7240000D+00 0.7240000D+00 0.7240000D+00 0.7240000D+00
EXPONENTS  0.7240000D+00 0.7240000D+00 0.7240000D+00 0.1950000D+05 0.2923000D+04
EXPONENTS  0.6645000D+03 0.1875000D+03 0.6062000D+02 0.2142000D+02 0.7950000D+01
EXPONENTS  0.6645000D+03 0.1875000D+03 0.6062000D+02 0.2142000D+02 0.7950000D+01
EXPONENTS  0.8815000D+00 0.2257000D+01 0.3041000D+00 0.9158000D-01 0.4388000D+02
EXPONENTS  0.9926000D+01 0.2930000D+01 0.4388000D+02 0.9926000D+01 0.2930000D+01
EXPONENTS  0.4388000D+02 0.9926000D+01 0.2930000D+01 0.9132000D+00 0.9132000D+00
EXPONENTS  0.9132000D+00 0.2672000D+00 0.2672000D+00 0.2672000D+00 0.7361000D-01
EXPONENTS  0.7361000D-01 0.7361000D-01 0.3107000D+01 0.3107000D+01 0.3107000D+01
EXPONENTS  0.3107000D+01 0.3107000D+01 0.3107000D+01 0.8550000D+00 0.8550000D+00
EXPONENTS  0.8550000D+00 0.8550000D+00 0.8550000D+00 0.8550000D+00 0.2920000D+00
EXPONENTS  0.2920000D+00 0.2920000D+00 0.2920000D+00 0.2920000D+00 0.2920000D+00
EXPONENTS  0.1917000D+01 0.1917000D+01 0.1917000D+01 0.1917000D+01 0.1917000D+01
EXPONENTS  0.1917000D+01 0.1917000D+01 0.1917000D+01 0.1917000D+01 0.1917000D+01
EXPONENTS  0.7240000D+00 0.7240000D+00 0.7240000D+00 0.7240000D+00 0.7240000D+00
EXPONENTS  0.7240000D+00 0.7240000D+00 0.7240000D+00 0.7240000D+00 0.7240000D+00
MO    1     MO 0.0        OCC NO =    2.0000305  ORB. ENERGY =    0.000000
  0.99530322D-06  0.18554457D-05  0.31359560D-05  0.47139268D-05  0.57902148D-05
  0.48867370D-05  0.18375407D-05  0.41024475D-09  0.30663253D-08  0.11459558D-07
  0.31970382D-07  0.42831498D-07 -0.50576013D-07  0.54402194D-07  0.66104374D-07
 -0.19692807D-08 -0.14436750D-04 -0.13535371D-04 -0.96379906D-05 -0.30467531D-02
 -0.28565247D-02 -0.20340158D-02 -0.14225802D-06 -0.13337593D-06 -0.94971609D-07
 -0.74073078D-05 -0.15633215D-02  0.46421792D-07  0.28927234D-05  0.61049848D-03
 -0.25255718D-07 -0.64225674D-07 -0.13554287D-04 -0.37003780D-09  0.36389365D-08
  0.18569519D-07 -0.22208455D-07  0.11440109D-06 -0.48319486D-05 -0.10197400D-02
  0.30030334D-08 -0.16961605D-07  0.13958572D-07  0.18984587D-05  0.18826574D-05
  0.39734578D-03 -0.45298055D-08  0.28606733D-08  0.16691323D-08 -0.10067569D-05
 -0.10702152D-05 -0.22587199D-03  0.17016898D-05  0.24075067D-03  0.13339140D-07
  0.18621466D-07  0.35912176D-03 -0.47783759D-07 -0.51236910D-05 -0.10813738D-02
  0.77663384D-08 -0.69875685D-05 -0.61017556D-06 -0.13714723D-03 -0.28497256D-08
 -0.72919288D-06 -0.12877267D-03  0.95851385D-08  0.25597195D-05  0.54021436D-03
 -0.10359616D-08  0.13133052D-05  0.21029807D-05  0.39317343D-05  0.67952055D-05
  0.10990965D-04  0.16612476D-04  0.22878818D-04  0.26742553D-04  0.23112722D-04
  0.10786828D-04  0.14613785D-05 -0.10688733D-07  0.26185337D-07  0.33660987D-06
  0.12279044D-05  0.41429191D-05  0.90997093D-05  0.11754342D-04 -0.18890228D-05
 -0.15846656D-04 -0.86964406D-05  0.22793729D-09  0.25963474D-08  0.53909532D-08
  0.14823752D-07 -0.19220697D-08 -0.67026257D-07 -0.16717413D-06  0.13838432D-06
 -0.45931749D-06 -0.34574441D-08  0.49903159D-08  0.46270555D-01  0.60704337D-01
  0.66579520D-01  0.54779624D-01  0.28876703D-01  0.75131749D-02  0.97652838D+01
  0.12811497D+02  0.14051440D+02  0.11561101D+02  0.60943552D+01  0.15856366D+01
 -0.14793832D-03 -0.19408666D-03 -0.21287106D-03 -0.17514390D-03 -0.92325904D-04
 -0.24021464D-04  0.44891512D-06  0.16114091D-04  0.25565410D-04  0.30358140D-04
  0.45939868D-05 -0.33434175D-04  0.94742275D-04  0.34008338D-02  0.53955080D-02
  0.64070003D-02  0.96954801D-03 -0.70561888D-02 -0.16757242D-08 -0.60151178D-07
 -0.95431352D-07 -0.11332180D-06 -0.17148576D-07  0.12480412D-06  0.32031909D-03
  0.67602524D-01 -0.10805009D-05 -0.17984926D-05 -0.37955879D-03  0.11399804D-07
 -0.33677559D-07 -0.71076360D-05 -0.21945768D-09  0.68321168D-08  0.10712934D-07
 -0.17545051D-07 -0.71309059D-06  0.45569339D-05  0.96172356D-03  0.81689647D-08
 -0.20158005D-09 -0.79673847D-08  0.14396674D-05 -0.26317231D-05 -0.55543866D-03
  0.18135495D-08 -0.98951068D-09 -0.82403885D-09  0.29935680D-06 -0.19905571D-06
 -0.42011727D-04  0.52055257D-06  0.35006733D-04  0.47537313D-08 -0.54347845D-06
  0.10985495D-03 -0.21706551D-08 -0.10181793D-05 -0.21487515D-03 -0.12090539D-07
  0.14961890D-05  0.77605497D-07  0.34764944D-04  0.18235516D-08  0.33896918D-06
  0.16379491D-04 -0.35616551D-08 -0.57178567D-06 -0.12067432D-03 -0.19089996D-08
 -0.18236427D-06  0.50723543D-02  0.94548771D-02  0.16028123D-01  0.24268746D-01
  0.30341278D-01  0.26098940D-01  0.10009505D-01 -0.65378292D-06 -0.86548616D-05
 -0.31436032D-04 -0.93254397D-04 -0.10745686D-03  0.13052236D-03  0.58776116D-03
  0.87214689D-04  0.85324347D-03 -0.27633426D-04 -0.27024887D-04 -0.17856486D-04
 -0.13029652D-02 -0.12742715D-02 -0.84196508D-03 -0.39045970D-02 -0.38186106D-02
 -0.25231175D-02 -0.90208434D-05 -0.38876500D-03 -0.10830938D-02 -0.10411711D-05
 -0.14824719D-03 -0.74741555D-03  0.60202607D-06  0.92210082D-04  0.11396034D-04
  0.24131129D-04  0.27360901D-04 -0.51492030D-04  0.27827519D-05  0.65754335D-06
  0.26333539D-03 -0.54421824D-04 -0.13263904D-03  0.18706087D-03 -0.27239600D-05
  0.58803086D-06 -0.14916575D-03  0.11021393D-03 -0.21485443D-04 -0.88728489D-04
 -0.10079225D-05 -0.37863732D-05 -0.27899377D-03 -0.20820021D-05 -0.27183624D-04
 -0.54646397D-04  0.11404835D-05 -0.33129559D-03  0.20234200D-04  0.51055227D-05
  0.41284646D-03  0.14370499D-03  0.68300488D-05  0.13703506D-05 -0.63279506D-04
  0.95234920D-04 -0.38568437D-05  0.19966673D-03 -0.42134156D-04 -0.25420810D-06
 -0.98282151D-05 -0.24357060D-03 -0.49909739D-05 -0.50729832D-02 -0.94560494D-02
 -0.16030110D-01 -0.24271755D-01 -0.30345040D-01 -0.26102176D-01 -0.10010746D-01
  0.65352776D-06  0.86514838D-05  0.31423763D-04  0.93218002D-04  0.10741492D-03
 -0.13047142D-03 -0.58780090D-03 -0.87201955D-04 -0.85327517D-03  0.15286641D-04
  0.14950001D-04  0.98780977D-05 -0.13025533D-02 -0.12738687D-02 -0.84169890D-03
  0.39047396D-02  0.38187500D-02  0.25232096D-02  0.53368310D-05 -0.38871700D-03
  0.10831568D-02 -0.36378963D-06 -0.14824110D-03  0.74746908D-03  0.27183113D-06
  0.92212728D-04 -0.11396481D-04 -0.24111683D-04 -0.27383496D-04  0.51495180D-04
  0.27208910D-05  0.18377403D-05  0.26331770D-03  0.54404689D-04  0.13268065D-03
 -0.18708533D-03 -0.12410503D-05 -0.20015891D-05 -0.14917137D-03 -0.11021791D-03
  0.21481758D-04  0.88736153D-04  0.14883071D-05  0.11424402D-05 -0.27901755D-03
 -0.10575692D-05 -0.27214290D-04  0.54617624D-04  0.43660221D-05 -0.33125757D-03
 -0.20185862D-04 -0.11933144D-05  0.41290043D-03 -0.14366701D-03  0.44892334D-05
  0.52207010D-06 -0.63292040D-04 -0.95233754D-04 -0.17273361D-05  0.19969562D-03
  0.42115569D-04  0.16112577D-06 -0.98194967D-05  0.24358569D-03 -0.11726195D-05
MO    2     MO 0.0        OCC NO =    2.0000247  ORB. ENERGY =    0.000000
 -0.59334274D-01 -0.11061104D+00 -0.18694773D+00 -0.28101730D+00 -0.34517942D+00
 -0.29131926D+00 -0.10954365D+00 -0.94595986D-05 -0.70704639D-04 -0.26423938D-03
 -0.73718672D-03 -0.98762696D-03  0.11662033D-02 -0.44996515D-02 -0.13845990D-02
 -0.56526844D-04 -0.71657063D-05 -0.67183052D-05 -0.47838335D-05 -0.60485872D-07
 -0.56709350D-07 -0.40380435D-07  0.29468339D-02  0.27628441D-02  0.19673096D-02
 -0.13063396D-05 -0.29511573D-07 -0.42011983D-03 -0.15469174D-05  0.25132075D-07
 -0.93826629D-03  0.12617806D-07 -0.11173361D-09  0.78383290D-05  0.25975822D-03
 -0.10468790D-03 -0.15507032D-03 -0.34534891D-05 -0.51926621D-05  0.48399809D-07
  0.10321384D-03  0.15494381D-03 -0.25815765D-03  0.49024532D-06  0.53487267D-06
  0.37043485D-08  0.17127170D-04  0.61926061D-04 -0.79053231D-04  0.42451989D-06
 -0.17147023D-06 -0.43148247D-08 -0.11277214D-06 -0.32315015D-08 -0.36042924D-04
  0.12272744D-05  0.28808690D-07 -0.10105260D-03 -0.88895801D-06 -0.19114185D-07
  0.20918137D-03  0.29398219D-05 -0.46849391D-07 -0.19054174D-08  0.46924371D-04
  0.44601057D-06  0.21083600D-08  0.26125797D-04 -0.30546240D-06  0.36078921D-08
 -0.16689891D-03 -0.18292458D-05 -0.12695403D+00 -0.23735334D+00 -0.41021712D+00
 -0.66350929D+00 -0.10028721D+01 -0.13811625D+01 -0.16144108D+01 -0.13952830D+01
 -0.65118582D+00 -0.88221390D-01  0.64526395D-03 -0.15827337D-02 -0.20345883D-01
 -0.74218856D-01 -0.25041258D+00 -0.55001839D+00 -0.71047373D+00  0.11417917D+00
  0.95782756D+00  0.52564341D+00 -0.13254220D-04 -0.15097381D-03 -0.31347605D-03
 -0.86197952D-03  0.11176554D-03  0.38974789D-02  0.97209313D-02 -0.80468461D-02
  0.29241563D-01  0.15634243D-02  0.75120685D-04  0.21035402D-01  0.27597251D-01
  0.30268212D-01  0.24903773D-01  0.13127853D-01  0.34156205D-02  0.90375489D-04
  0.11856750D-03  0.13004289D-03  0.10699537D-03  0.56401877D-04  0.14674707D-04
  0.62355311D+01  0.81806622D+01  0.89724160D+01  0.73822336D+01  0.38914938D+01
  0.10124935D+01  0.16053039D-06  0.57623397D-05  0.91420964D-05  0.10855959D-04
  0.16427927D-05 -0.11955938D-04  0.83788139D-09  0.30076281D-07  0.47716774D-07
  0.56662205D-07  0.85744852D-08 -0.62403496D-07  0.57868397D-04  0.20772226D-02
  0.32955658D-02  0.39133833D-02  0.59219804D-03 -0.43099064D-02  0.14620099D-03
  0.64652954D-06  0.46091980D-01 -0.38522921D-06 -0.22902887D-08 -0.79388209D-03
 -0.81859966D-07  0.19434667D-09 -0.63635864D-05 -0.25911687D-03 -0.14599918D-03
  0.40511605D-03  0.10719910D-05  0.73821777D-06  0.85873838D-08  0.15159210D-03
 -0.37155092D-03  0.21995882D-03 -0.49577004D-05 -0.18116405D-05 -0.28780860D-09
 -0.14740587D-04 -0.27378864D-04  0.42119452D-04 -0.11976354D-06 -0.93212373D-07
 -0.55031441D-09  0.23653597D-06 -0.89947226D-09 -0.88655085D-04  0.10151537D-06
 -0.57337260D-09  0.21771072D-03 -0.81112327D-06  0.32717894D-08  0.48254535D-04
 -0.16059021D-05 -0.12850395D-07  0.59860382D-09 -0.22227141D-04 -0.28674480D-07
  0.81879180D-10  0.32041089D-04  0.67225666D-07 -0.18776906D-08  0.34640332D-04
  0.24627274D-07  0.66388935D-02  0.12374909D-01  0.20978227D-01  0.31763873D-01
  0.39711838D-01  0.34159302D-01  0.13100827D-01  0.15495059D-05  0.20512556D-04
  0.74505336D-04  0.22101868D-03  0.25467938D-03 -0.30934605D-03  0.52106650D-03
 -0.38824368D-03 -0.25405777D-03  0.12992871D-04  0.12706744D-04  0.83958828D-05
  0.13347587D-03  0.13053648D-03  0.86250973D-04 -0.92723539D-03 -0.90681596D-03
 -0.59917164D-03  0.17051127D-05 -0.84619603D-04 -0.38207660D-03 -0.67385462D-06
  0.52237541D-05 -0.82285799D-04 -0.15913699D-06 -0.48122645D-05 -0.60111414D-04
  0.36526293D-04 -0.10518011D-03  0.68653822D-04 -0.19822370D-05 -0.76802553D-06
 -0.26471745D-04 -0.22375589D-04  0.98400595D-05  0.12535530D-04 -0.25474218D-06
  0.64069726D-06  0.92651394D-04 -0.46045622D-04  0.10487462D-04  0.35558160D-04
  0.11984345D-05 -0.90589723D-06 -0.22306108D-04  0.19955395D-05 -0.79205902D-04
 -0.10799622D-03 -0.82897214D-05  0.11156871D-03  0.21387001D-04  0.23031027D-05
  0.12604899D-03  0.30260165D-03  0.82513162D-05 -0.12413043D-05  0.16135004D-04
  0.44384642D-04  0.39095573D-05 -0.97836897D-04 -0.76459446D-04 -0.18564431D-06
  0.49431884D-04 -0.56694481D-04 -0.76268988D-06  0.66390418D-02  0.12375185D-01
  0.20978696D-01  0.31764583D-01  0.39712725D-01  0.34160065D-01  0.13101120D-01
  0.15496715D-05  0.20514750D-04  0.74513303D-04  0.22104231D-03  0.25470662D-03
 -0.30937912D-03  0.52106131D-03 -0.38824555D-03 -0.25410391D-03  0.11728245D-04
  0.11469967D-04  0.75786923D-05 -0.13375787D-03 -0.13081227D-03 -0.86433199D-04
 -0.92699582D-03 -0.90658167D-03 -0.59901684D-03  0.25071058D-05  0.84540003D-04
 -0.38201188D-03 -0.72339771D-06 -0.52683167D-05 -0.82274695D-04 -0.11352398D-06
  0.48148827D-05 -0.60115420D-04  0.36524816D-04 -0.10519002D-03  0.68665200D-04
 -0.70346639D-06 -0.51703359D-06  0.26464971D-04 -0.22374962D-04  0.98402566D-05
  0.12534705D-04  0.86511407D-06 -0.23744523D-06 -0.92676858D-04 -0.46058915D-04
  0.10505321D-04  0.35553594D-04 -0.12685190D-06 -0.69449440D-06  0.22304722D-04
  0.93746423D-06  0.79274519D-04 -0.10798168D-03 -0.39211601D-05 -0.11175017D-03
  0.21347298D-04  0.11087674D-05 -0.12607339D-03  0.30259773D-03 -0.29199762D-05
 -0.31377687D-06 -0.16163828D-04  0.44381555D-04  0.15955179D-05  0.97916919D-04
 -0.76454494D-04 -0.65418723D-06 -0.49425435D-04 -0.56690171D-04  0.11369454D-05
MO    3     MO 0.0        OCC NO =    2.0000101  ORB. ENERGY =    0.000000
  0.19846896D+00  0.36998613D+00  0.62532696D+00  0.93998305D+00  0.11546008D+01
  0.97444236D+00  0.36641577D+00  0.26896274D-04  0.20103298D-03  0.75130616D-03
  0.20960272D-02  0.28080986D-02 -0.33158408D-02  0.15833745D-01  0.35041545D-03
  0.13339419D-03  0.94951591D-04  0.89023152D-04  0.63389788D-04 -0.36585643D-06
 -0.34301366D-06 -0.24424616D-06 -0.73344661D-02 -0.68765282D-02 -0.48964977D-02
  0.20931210D-04 -0.82178478D-07  0.59730368D-03  0.41079756D-05 -0.28982273D-07
  0.53551659D-03 -0.26151835D-07  0.35078672D-09  0.65096411D-05 -0.68155298D-03
  0.55250865D-03  0.12904433D-03  0.11693897D-04  0.34626690D-04 -0.30278395D-06
  0.20613867D-03 -0.24526807D-03  0.39129399D-04 -0.42774600D-05 -0.13824318D-04
  0.76793218D-07 -0.92368895D-05 -0.38354770D-04  0.47591659D-04 -0.27590872D-06
  0.86806262D-06  0.41327228D-09 -0.18014879D-05  0.19571595D-07 -0.73812566D-05
 -0.41430516D-05 -0.39680996D-07  0.25984125D-03  0.95475151D-05 -0.19033789D-07
 -0.23769748D-03 -0.47151017D-05  0.87734093D-06 -0.14355506D-07 -0.14804087D-03
  0.18264177D-05  0.65247884D-08  0.23463883D-06 -0.44584404D-05  0.36541730D-07
  0.44388797D-03  0.42043166D-05 -0.99296310D-01 -0.18564445D+00 -0.32084879D+00
 -0.51895970D+00 -0.78439022D+00 -0.10802677D+01 -0.12627014D+01 -0.10913120D+01
 -0.50932097D+00 -0.69001816D-01  0.50468922D-03 -0.12516495D-02 -0.16089828D-01
 -0.58693381D-01 -0.19803001D+00 -0.43496277D+00 -0.56185325D+00  0.90294598D-01
  0.75746435D+00  0.41568667D+00 -0.55001170D-05 -0.62649752D-04 -0.13008347D-03
 -0.35769650D-03  0.46379459D-04  0.16173407D-02  0.40339045D-02 -0.33392077D-02
  0.24968154D-01 -0.17600128D-02 -0.19260472D-03 -0.25320693D+00 -0.33219309D+00
 -0.36434393D+00 -0.29977121D+00 -0.15802234D+00 -0.41114440D-01  0.11753354D-02
  0.15419732D-02  0.16912109D-02  0.13914774D-02  0.73350775D-03  0.19084492D-03
 -0.50342186D+01 -0.66046085D+01 -0.72438261D+01 -0.59600019D+01 -0.31417741D+01
 -0.81743053D+00 -0.15356624D-05 -0.55123572D-04 -0.87454929D-04 -0.10385005D-03
 -0.15715249D-04  0.11437264D-03  0.73733373D-08  0.26467059D-06  0.41990653D-06
  0.49862613D-06  0.75455276D-07 -0.54914936D-06 -0.40931279D-04 -0.14692541D-02
 -0.23310085D-02 -0.27680010D-02 -0.41887152D-03  0.30484684D-02 -0.18984225D-02
  0.88226561D-05 -0.39561036D-01 -0.36242073D-06 -0.47651699D-08  0.43488363D-03
  0.46038668D-06 -0.22677383D-08  0.62985076D-05  0.27875997D-03  0.20492372D-03
 -0.48368369D-03 -0.69971442D-06 -0.14936473D-04  0.84224951D-07 -0.30890541D-04
 -0.29522615D-03  0.32611669D-03 -0.25051304D-05  0.15496535D-05  0.62201587D-08
  0.85745109D-05  0.97032794D-05 -0.18277790D-04  0.10692170D-07  0.62855941D-06
 -0.17046709D-08 -0.24967065D-05  0.31915891D-09  0.11304860D-03  0.58037562D-06
  0.41846465D-07 -0.27360831D-03  0.69097439D-05 -0.42803941D-07 -0.65537502D-04
  0.19718721D-05 -0.18255251D-06  0.38655855D-08  0.27188070D-04 -0.72465866D-06
 -0.38040411D-08 -0.56061067D-04  0.12723162D-05 -0.77927153D-08 -0.25503143D-04
  0.28959075D-06 -0.51732675D-01 -0.96429795D-01 -0.16346999D+00 -0.24751567D+00
 -0.30944910D+00 -0.26618172D+00 -0.10208642D+00 -0.81974703D-05 -0.10851916D-03
 -0.39416132D-03 -0.11692721D-02 -0.13473500D-02  0.16365572D-02 -0.44412370D-02
  0.10956660D-02  0.14475058D-03 -0.22332772D-03 -0.21840963D-03 -0.14431248D-03
 -0.46345281D-02 -0.45324673D-02 -0.29947928D-02 -0.11890527D-02 -0.11628675D-02
 -0.76835574D-03 -0.45518490D-04 -0.49350690D-03  0.22175323D-03 -0.70191680D-05
 -0.54373517D-04  0.19659067D-03  0.41428317D-07 -0.27815637D-05  0.28548949D-04
 -0.15312640D-03  0.17239566D-03 -0.19269264D-04  0.13916381D-04  0.55174778D-05
  0.41203115D-03  0.10920974D-03 -0.36514614D-04 -0.72695128D-04 -0.40160346D-05
 -0.23214248D-06 -0.29012708D-03  0.82659610D-04 -0.28018861D-04 -0.54640749D-04
 -0.15461721D-05 -0.41528939D-06  0.74163864D-04 -0.46908020D-05  0.11215207D-03
  0.22934466D-03  0.16509454D-04 -0.34782422D-03 -0.22721871D-03 -0.24370478D-05
  0.11368020D-04 -0.46081526D-03  0.33320104D-05  0.34819457D-05 -0.24265786D-04
 -0.67486941D-04 -0.10057621D-04  0.31425666D-03  0.27097456D-03 -0.38821640D-06
 -0.24145930D-03 -0.68513742D-04 -0.91609406D-05 -0.51734958D-01 -0.96434051D-01
 -0.16347720D+00 -0.24752659D+00 -0.30946276D+00 -0.26619346D+00 -0.10209092D+00
 -0.81980160D-05 -0.10852638D-03 -0.39418756D-03 -0.11693500D-02 -0.13474397D-02
  0.16366662D-02 -0.44414165D-02  0.10956685D-02  0.14476823D-03 -0.17940334D-03
 -0.17545255D-03 -0.11592892D-03  0.46368949D-02  0.45347820D-02  0.29963222D-02
 -0.11894546D-02 -0.11632606D-02 -0.76861548D-03 -0.40840893D-04  0.49405877D-03
  0.22166565D-03 -0.65039533D-05  0.54559253D-04  0.19661166D-03  0.67780924D-07
  0.27811013D-05  0.28550073D-04 -0.15320024D-03  0.17249626D-03 -0.19296028D-04
 -0.77459751D-05  0.16129399D-05 -0.41200659D-03  0.10926254D-03 -0.36563563D-04
 -0.72698980D-04  0.12542248D-05  0.25172812D-05  0.29020238D-03  0.82677905D-04
 -0.28054326D-04 -0.54623578D-04 -0.55146103D-06 -0.11182410D-05 -0.74146272D-04
 -0.13932370D-05 -0.11229165D-03  0.22930764D-03  0.67247989D-05  0.34819274D-03
 -0.22732042D-03 -0.25450877D-05 -0.11317775D-04 -0.46060250D-03 -0.77598138D-05
  0.50301354D-06  0.24336139D-04 -0.67481206D-04 -0.34092686D-05 -0.31445941D-03
  0.27105311D-03  0.19002279D-05  0.24145099D-03 -0.68609493D-04  0.27261463D-05
MO    4     MO 0.0        OCC NO =    2.0000090  ORB. ENERGY =    0.000000
  0.63495447D-02  0.11836830D-01  0.20005856D-01  0.30072533D-01  0.36938721D-01
  0.31174977D-01  0.11722605D-01  0.76703870D-06  0.57331390D-05  0.21426050D-04
  0.59775342D-04  0.80082479D-04 -0.94562475D-04  0.50870733D-03  0.26236117D-04
  0.58071347D-05 -0.39844286D-02 -0.37356551D-02 -0.26600090D-02  0.18881781D-04
  0.17702870D-04  0.12605498D-04 -0.18207687D-03 -0.17070864D-03 -0.12155472D-03
 -0.78989567D-03  0.37437661D-05  0.21463194D-04 -0.12185703D-03  0.57700903D-06
  0.31287713D-04  0.20121915D-05 -0.95307944D-08  0.23690060D-06 -0.24631178D-04
  0.15159708D-04  0.94714703D-05  0.38170119D-06 -0.10061661D-02  0.47629317D-05
  0.45158618D-05 -0.54369831D-05  0.92112131D-06 -0.11323124D-06  0.46210689D-03
 -0.21893565D-05 -0.50163659D-06 -0.17899559D-05  0.22915925D-05 -0.12557735D-07
 -0.27553496D-04  0.13064183D-06  0.10237777D-03 -0.20505122D-06  0.19934848D-05
  0.43258202D-04 -0.10461022D-05  0.69893026D-05 -0.35039151D-03  0.16612559D-05
 -0.12969757D-04 -0.16497579D-06 -0.31233734D-04  0.34339825D-06 -0.30136783D-05
 -0.72494296D-04 -0.24291829D-06 -0.23760085D-05  0.16619550D-03 -0.78727646D-06
  0.11417043D-04  0.13658499D-06 -0.20918649D-02 -0.39109520D-02 -0.67592876D-02
 -0.10932869D-01 -0.16524666D-01 -0.22757886D-01 -0.26601197D-01 -0.22990554D-01
 -0.10729811D-01 -0.14536540D-02  0.10632234D-04 -0.26407648D-04 -0.33946766D-03
 -0.12383292D-02 -0.41780921D-02 -0.91769649D-02 -0.11854136D-01  0.19050604D-02
  0.15981193D-01  0.87702725D-02 -0.10676414D-06 -0.12161100D-05 -0.25250827D-05
 -0.69433361D-05  0.90028326D-06  0.31394604D-04  0.78303128D-04 -0.64818195D-04
  0.53226046D-03 -0.71878416D-04 -0.94410887D-05  0.97240593D+01  0.12757413D+02
  0.13992121D+02  0.11512296D+02  0.60686276D+01  0.15789428D+01 -0.46076165D-01
 -0.60449309D-01 -0.66299809D-01 -0.54549486D-01 -0.28755387D-01 -0.74816108D-02
 -0.12047057D+00 -0.15805053D+00 -0.17334723D+00 -0.14262488D+00 -0.75183725D-01
 -0.19561391D-01  0.57384912D-04  0.20598676D-02  0.32680316D-02  0.38806873D-02
  0.58725028D-03 -0.42738975D-02 -0.27190709D-06 -0.97602766D-05 -0.15484923D-04
 -0.18387872D-04 -0.27825696D-05  0.20251020D-04 -0.11059604D-05 -0.39699145D-04
 -0.62983689D-04 -0.74791199D-04 -0.11317880D-04  0.82369408D-04  0.73269752D-01
 -0.34717883D-03 -0.96294177D-03  0.18188829D-04 -0.86240569D-07  0.18251343D-04
 -0.17761147D-04  0.84156542D-07  0.35511342D-06  0.75889145D-05  0.50340493D-05
 -0.12622964D-04 -0.25629281D-07  0.57540418D-03 -0.27262620D-05  0.10950882D-05
 -0.58885498D-05  0.47934616D-05 -0.63724878D-07 -0.25505558D-03  0.12089387D-05
  0.34153425D-06  0.44423842D-06 -0.78577267D-06  0.89325466D-09 -0.20057733D-04
  0.95044885D-07  0.83263844D-04  0.14700877D-06  0.41253541D-05 -0.31003677D-04
 -0.14774580D-05 -0.99901045D-05 -0.21878785D-03  0.10364317D-05 -0.23859578D-05
  0.73295588D-07  0.88762643D-05 -0.13205533D-06  0.43459662D-06  0.27869810D-04
  0.13795071D-06 -0.10338075D-05 -0.54498603D-04  0.25821528D-06 -0.26998234D-06
  0.77635824D-08 -0.17085136D-02 -0.31846723D-02 -0.53987290D-02 -0.81744059D-02
 -0.10219808D-01 -0.87908674D-02 -0.33714868D-02 -0.25492965D-06 -0.33747912D-05
 -0.12257856D-04 -0.36362698D-04 -0.41900665D-04  0.50894599D-04 -0.14723530D-03
  0.30609535D-04  0.79949532D-05  0.63841872D-02  0.62435956D-02  0.41254076D-02
 -0.18253288D-03 -0.17851317D-03 -0.11795120D-03 -0.88681634D-04 -0.86728701D-04
 -0.57305320D-04  0.15009678D-02 -0.27183662D-04 -0.50526138D-05  0.34647228D-03
 -0.41135854D-05 -0.33147910D-05 -0.78340439D-06  0.74129195D-07  0.13501180D-05
 -0.59930347D-05  0.64677345D-05 -0.47469975D-06 -0.36575766D-03 -0.14680660D-03
  0.18509935D-04  0.33207250D-05 -0.23348822D-05 -0.98584280D-06  0.10216913D-03
 -0.57111348D-04 -0.11015608D-04  0.31010323D-05 -0.38180674D-06 -0.27192256D-05
  0.11882854D-04  0.80156937D-04 -0.23224128D-05  0.79236335D-05  0.21651329D-05
  0.56005873D-05 -0.12476360D-03 -0.10513016D-04 -0.15548865D-04  0.10099270D-03
  0.40176169D-05 -0.12528968D-05 -0.60535841D-03 -0.45064880D-05 -0.50394329D-06
 -0.81506514D-06  0.74414568D-04  0.10475762D-04  0.11434923D-04 -0.60895104D-04
 -0.89639319D-05 -0.89897272D-05  0.21873836D-03 -0.17085971D-02 -0.31848279D-02
 -0.53989928D-02 -0.81748052D-02 -0.10220307D-01 -0.87912968D-02 -0.33716515D-02
 -0.25494742D-06 -0.33750264D-05 -0.12258710D-04 -0.36365233D-04 -0.41903585D-04
  0.50898146D-04 -0.14724205D-03  0.30609300D-04  0.79953838D-05  0.63857583D-02
  0.62451322D-02  0.41264229D-02  0.12203938D-03  0.11935185D-03  0.78860815D-04
 -0.88696049D-04 -0.86742799D-04 -0.57314635D-04  0.15012008D-02  0.12962960D-04
 -0.50562484D-05  0.34652776D-03  0.83341257D-06 -0.33153368D-05 -0.78413614D-06
 -0.66656837D-07  0.13501823D-05 -0.25250069D-05  0.30002001D-05 -0.47519318D-06
  0.36597016D-03 -0.14700639D-03 -0.17115866D-04  0.23529928D-05 -0.13669226D-05
 -0.98607021D-06 -0.10227712D-03 -0.56997996D-04  0.11559384D-04  0.29885515D-05
 -0.26958275D-06 -0.27189687D-05 -0.11956944D-04  0.80189091D-04  0.15633250D-05
  0.80187649D-05 -0.98236852D-06  0.55995882D-05 -0.12499768D-03  0.79215723D-05
 -0.98128034D-05  0.10094139D-03 -0.49744668D-05 -0.69859611D-05  0.60558413D-03