 Entering Gaussian System, Link 0=/home/bruns/programas/chemistry/gaussian/g09/g09
 Input=GAUSSIAN.com
 Output=GAUSSIAN.log
 Initial command:
 /home/bruns/programas/chemistry/gaussian/g09/l1.exe /home/bruns/programas/chemistry/gaussian/work/Gau-34218.inp -scrdir=/home/bruns/programas/chemistry/gaussian/work/
 Entering Link 1 = /home/bruns/programas/chemistry/gaussian/g09/l1.exe PID=     34220.
  
 Copyright (c) 1988,1990,1992,1993,1995,1998,2003,2009,2010,
            Gaussian, Inc.  All Rights Reserved.
  
 This is part of the Gaussian(R) 09 program.  It is based on
 the Gaussian(R) 03 system (copyright 2003, Gaussian, Inc.),
 the Gaussian(R) 98 system (copyright 1998, Gaussian, Inc.),
 the Gaussian(R) 94 system (copyright 1995, Gaussian, Inc.),
 the Gaussian 92(TM) system (copyright 1992, Gaussian, Inc.),
 the Gaussian 90(TM) system (copyright 1990, Gaussian, Inc.),
 the Gaussian 88(TM) system (copyright 1988, Gaussian, Inc.),
 the Gaussian 86(TM) system (copyright 1986, Carnegie Mellon
 University), and the Gaussian 82(TM) system (copyright 1983,
 Carnegie Mellon University). Gaussian is a federally registered
 trademark of Gaussian, Inc.
  
 This software contains proprietary and confidential information,
 including trade secrets, belonging to Gaussian, Inc.
  
 This software is provided under written license and may be
 used, copied, transmitted, or stored only in accord with that
 written license.
  
 The following legend is applicable only to US Government
 contracts under FAR:
  
                    RESTRICTED RIGHTS LEGEND
  
 Use, reproduction and disclosure by the US Government is
 subject to restrictions as set forth in subparagraphs (a)
 and (c) of the Commercial Computer Software - Restricted
 Rights clause in FAR 52.227-19.
  
 Gaussian, Inc.
 340 Quinnipiac St., Bldg. 40, Wallingford CT 06492
  
  
 ---------------------------------------------------------------
 Warning -- This program may not be used in any manner that
 competes with the business of Gaussian, Inc. or will provide
 assistance to any competitor of Gaussian, Inc.  The licensee
 of this program is prohibited from giving any competitor of
 Gaussian, Inc. access to this program.  By using this program,
 the user acknowledges that Gaussian, Inc. is engaged in the
 business of creating and licensing software in the field of
 computational chemistry and represents and warrants to the
 licensee that it is not a competitor of Gaussian, Inc. and that
 it will not use this program in any manner prohibited above.
 ---------------------------------------------------------------
  

 Cite this work as:
 Gaussian 09, Revision B.01,
 M. J. Frisch, G. W. Trucks, H. B. Schlegel, G. E. Scuseria, 
 M. A. Robb, J. R. Cheeseman, G. Scalmani, V. Barone, B. Mennucci, 
 G. A. Petersson, H. Nakatsuji, M. Caricato, X. Li, H. P. Hratchian, 
 A. F. Izmaylov, J. Bloino, G. Zheng, J. L. Sonnenberg, M. Hada, 
 M. Ehara, K. Toyota, R. Fukuda, J. Hasegawa, M. Ishida, T. Nakajima, 
 Y. Honda, O. Kitao, H. Nakai, T. Vreven, J. A. Montgomery, Jr., 
 J. E. Peralta, F. Ogliaro, M. Bearpark, J. J. Heyd, E. Brothers, 
 K. N. Kudin, V. N. Staroverov, T. Keith, R. Kobayashi, J. Normand, 
 K. Raghavachari, A. Rendell, J. C. Burant, S. S. Iyengar, J. Tomasi, 
 M. Cossi, N. Rega, J. M. Millam, M. Klene, J. E. Knox, J. B. Cross, 
 V. Bakken, C. Adamo, J. Jaramillo, R. Gomperts, R. E. Stratmann, 
 O. Yazyev, A. J. Austin, R. Cammi, C. Pomelli, J. W. Ochterski, 
 R. L. Martin, K. Morokuma, V. G. Zakrzewski, G. A. Voth, 
 P. Salvador, J. J. Dannenberg, S. Dapprich, A. D. Daniels, 
 O. Farkas, J. B. Foresman, J. V. Ortiz, J. Cioslowski, 
 and D. J. Fox, Gaussian, Inc., Wallingford CT, 2010.
 
 ******************************************
 Gaussian 09:  EM64L-G09RevB.01 12-Aug-2010
                27-Nov-2021 
 ******************************************
 %nproc=8
 Will use up to    8 processors via shared memory.
 %mem=8GB
 -----------------------------------------------------
 # qcisd/aug-cc-pvtz nosymm density=current output=wfn
 -----------------------------------------------------
 1/30=1,38=1/1;
 2/12=2,15=1,17=6,18=5,40=1/2;
 3/5=16,6=1,7=10,11=9,16=1,25=1,30=1,71=1/1,2,3;
 4//1;
 5/5=2,38=5/2;
 8/6=4,9=120000,10=1/1,4;
 9/5=8,15=1/13;
 11/28=-7,31=1,32=3,42=3/11;
 10/5=6,13=10,31=1/2;
 6/7=2,8=2,9=2,10=2,22=-1,31=1/1;
 99/5=1,6=1100,9=1/99;
 -----------------
 f2cs-wavefunction
 -----------------
 Symbolic Z-matrix:
 Charge =  0 Multiplicity = 1
 C                     0.        0.       -0.52035 
 S                     0.        0.        1.08852 
 F                     0.       -1.05522  -1.29554 
 F                     0.        1.05522  -1.29554 
 
                          Input orientation:                          
 ---------------------------------------------------------------------
 Center     Atomic      Atomic             Coordinates (Angstroms)
 Number     Number       Type             X           Y           Z
 ---------------------------------------------------------------------
      1          6           0        0.000000    0.000000   -0.520349
      2         16           0        0.000000    0.000000    1.088525
      3          9           0        0.000000   -1.055221   -1.295538
      4          9           0        0.000000    1.055221   -1.295538
 ---------------------------------------------------------------------
                    Distance matrix (angstroms):
                    1          2          3          4
     1  C    0.000000
     2  S    1.608874   0.000000
     3  F    1.309355   2.607153   0.000000
     4  F    1.309355   2.607153   2.110442   0.000000
 Symmetry turned off by external request.
 Stoichiometry    CF2S
 Framework group  C2V[C2(CS),SGV(F2)]
 Deg. of freedom     3
 Full point group                 C2V     NOp   4
 Rotational constants (GHZ):     11.9449201      5.0692198      3.5588884
 Standard basis: Aug-CC-pVTZ (5D, 7F)
 Integral buffers will be    131072 words long.
 Raffenetti 1 integral format.
 Two-electron integral symmetry is turned off.
   188 basis functions,   330 primitive gaussians,   224 cartesian basis functions
    20 alpha electrons       20 beta electrons
       nuclear repulsion energy       153.9896946390 Hartrees.
 NAtoms=    4 NActive=    4 NUniq=    4 SFac= 1.00D+00 NAtFMM=   50 NAOKFM=F Big=F
 One-electron integrals computed using PRISM.
 NBasis=   188 RedAO= T  NBF=   188
 NBsUse=   188 1.00D-06 NBFU=   188
 Harris functional with IExCor=  205 diagonalized for initial guess.
 ExpMin= 3.51D-02 ExpMax= 3.74D+05 ExpMxC= 1.18D+03 IAcc=3 IRadAn=         0 AccDes= 0.00D+00
 HarFok:  IExCor=  205 AccDes= 0.00D+00 IRadAn=         0 IDoV= 1
 ScaDFX=  1.000000  1.000000  1.000000  1.000000
 FoFCou: FMM=F IPFlag=           0 FMFlag=      100000 FMFlg1=           0
         NFxFlg=           0 DoJE=T BraDBF=F KetDBF=T FulRan=T
         Omega=  0.000000  0.000000  1.000000  0.000000  0.000000 ICntrl=     500 IOpCl=  0
         NMat0=    1 NMatS0=    1 NMatT0=    0 NMatD0=    1 NMtDS0=    0 NMtDT0=    0
         I1Cent=           4 NGrid=           0.
 Symmetry not used in FoFCou.
 Requested convergence on RMS density matrix=1.00D-08 within 128 cycles.
 Requested convergence on MAX density matrix=1.00D-06.
 Requested convergence on             energy=1.00D-06.
 No special actions if energy rises.
 Keep R1 ints in memory in canonical form, NReq=323399632.
 SCF Done:  E(RHF) =  -634.356516236     A.U. after   12 cycles
             Convg  =    0.8503D-08             -V/T =  2.0006
 ExpMin= 3.51D-02 ExpMax= 3.74D+05 ExpMxC= 1.18D+03 IAcc=3 IRadAn=         5 AccDes= 0.00D+00
 HarFok:  IExCor=  205 AccDes= 0.00D+00 IRadAn=         5 IDoV=-2
 ScaDFX=  1.000000  1.000000  1.000000  1.000000
 Range of M.O.s used for correlation:     9   188
 NBasis=   188 NAE=    20 NBE=    20 NFC=     8 NFV=     0
 NROrb=    180 NOA=    12 NOB=    12 NVA=   168 NVB=   168

 **** Warning!!: The largest alpha MO coefficient is  0.27887648D+02

 Semi-Direct transformation.
 ModeAB=           2 MOrb=            12 LenV=    1072746587
 LASXX=     33405819 LTotXX=    33405819 LenRXX=    33405819
 LTotAB=    33954012 MaxLAS=    54432000 LenRXY=    54432000
 NonZer=    66811638 LenScr=   100987392 LnRSAI=           0
 LnScr1=           0 LExtra=           0 Total=    188825211
 MaxDsk=          -1 SrtSym=           F ITran=            4
 JobTyp=0 Pass  1:  I=   1 to  12.
 (rs|ai) integrals will be sorted in core.
 Spin components of T(2) and E(2):
     alpha-alpha T2 =       0.3021173400D-01 E2=     -0.1104177896D+00
     alpha-beta  T2 =       0.1602679364D+00 E2=     -0.6189440798D+00
     beta-beta   T2 =       0.3021173400D-01 E2=     -0.1104177896D+00
 ANorm=    0.1104849041D+01
 E2 =    -0.8397796589D+00 EUMP2 =    -0.63519629589517D+03
 R2 and R3 integrals will be kept in memory, NReq=   640760400.
 Iterations=  50 Convergence= 0.100D-07
 Iteration Nr.   1
 **********************
 DD1Dir will call FoFMem   1 times, MxPair=       156
 NAB=    78 NAA=     0 NBB=     0.
 MP4(R+Q)=  0.19421208D-01
 E3=       -0.33062266D-02        EUMP3=      -0.63519960212D+03
 E4(DQ)=    0.24355399D-02        UMP4(DQ)=   -0.63519716658D+03
 E4(SDQ)=  -0.85248199D-02        UMP4(SDQ)=  -0.63520812694D+03
 DE(Corr)= -0.82366468     E(Corr)=     -635.18018091    
 NORM(A)=   0.11041083D+01
 Iteration Nr.   2
 **********************
 DD1Dir will call FoFMem   1 times, MxPair=       156
 NAB=    78 NAA=     0 NBB=     0.
 DE(Corr)= -0.84951654     E(CORR)=     -635.20603278     Delta=-2.59D-02
 NORM(A)=   0.11131273D+01
 Iteration Nr.   3
 **********************
 DD1Dir will call FoFMem   1 times, MxPair=       156
 NAB=    78 NAA=     0 NBB=     0.
 DE(Corr)= -0.84780655     E(CORR)=     -635.20432279     Delta= 1.71D-03
 NORM(A)=   0.11160391D+01
 Iteration Nr.   4
 **********************
 DD1Dir will call FoFMem   1 times, MxPair=       156
 NAB=    78 NAA=     0 NBB=     0.
 DE(Corr)= -0.85037520     E(CORR)=     -635.20689144     Delta=-2.57D-03
 NORM(A)=   0.11171956D+01
 Iteration Nr.   5
 **********************
 DD1Dir will call FoFMem   1 times, MxPair=       156
 NAB=    78 NAA=     0 NBB=     0.
 DE(Corr)= -0.85068440     E(CORR)=     -635.20720063     Delta=-3.09D-04
 NORM(A)=   0.11175410D+01
 Iteration Nr.   6
 **********************
 DD1Dir will call FoFMem   1 times, MxPair=       156
 NAB=    78 NAA=     0 NBB=     0.
 DE(Corr)= -0.85072560     E(CORR)=     -635.20724184     Delta=-4.12D-05
 NORM(A)=   0.11175925D+01
 Iteration Nr.   7
 **********************
 DD1Dir will call FoFMem   1 times, MxPair=       156
 NAB=    78 NAA=     0 NBB=     0.
 DE(Corr)= -0.85073007     E(CORR)=     -635.20724630     Delta=-4.46D-06
 NORM(A)=   0.11175939D+01
 Iteration Nr.   8
 **********************
 DD1Dir will call FoFMem   1 times, MxPair=       156
 NAB=    78 NAA=     0 NBB=     0.
 DE(Corr)= -0.85072817     E(CORR)=     -635.20724441     Delta= 1.90D-06
 NORM(A)=   0.11175999D+01
 Iteration Nr.   9
 **********************
 DD1Dir will call FoFMem   1 times, MxPair=       156
 NAB=    78 NAA=     0 NBB=     0.
 DE(Corr)= -0.85072823     E(CORR)=     -635.20724447     Delta=-6.30D-08
 NORM(A)=   0.11176004D+01
 Iteration Nr.  10
 **********************
 DD1Dir will call FoFMem   1 times, MxPair=       156
 NAB=    78 NAA=     0 NBB=     0.
 DE(Corr)= -0.85072809     E(CORR)=     -635.20724432     Delta= 1.47D-07
 NORM(A)=   0.11176022D+01
 Iteration Nr.  11
 **********************
 DD1Dir will call FoFMem   1 times, MxPair=       156
 NAB=    78 NAA=     0 NBB=     0.
 DE(Corr)= -0.85072912     E(CORR)=     -635.20724535     Delta=-1.03D-06
 NORM(A)=   0.11176038D+01
 Iteration Nr.  12
 **********************
 DD1Dir will call FoFMem   1 times, MxPair=       156
 NAB=    78 NAA=     0 NBB=     0.
 DE(Corr)= -0.85072933     E(CORR)=     -635.20724556     Delta=-2.08D-07
 NORM(A)=   0.11176046D+01
 Iteration Nr.  13
 **********************
 DD1Dir will call FoFMem   1 times, MxPair=       156
 NAB=    78 NAA=     0 NBB=     0.
 DE(Corr)= -0.85072966     E(CORR)=     -635.20724590     Delta=-3.38D-07
 NORM(A)=   0.11176051D+01
 Iteration Nr.  14
 **********************
 DD1Dir will call FoFMem   1 times, MxPair=       156
 NAB=    78 NAA=     0 NBB=     0.
 DE(Corr)= -0.85072972     E(CORR)=     -635.20724596     Delta=-5.90D-08
 NORM(A)=   0.11176053D+01
 Iteration Nr.  15
 **********************
 DD1Dir will call FoFMem   1 times, MxPair=       156
 NAB=    78 NAA=     0 NBB=     0.
 DE(Corr)= -0.85072977     E(CORR)=     -635.20724600     Delta=-4.40D-08
 NORM(A)=   0.11176054D+01
 Iteration Nr.  16
 **********************
 DD1Dir will call FoFMem   1 times, MxPair=       156
 NAB=    78 NAA=     0 NBB=     0.
 DE(Corr)= -0.85072978     E(CORR)=     -635.20724602     Delta=-1.44D-08
 NORM(A)=   0.11176054D+01
 Iteration Nr.  17
 **********************
 DD1Dir will call FoFMem   1 times, MxPair=       156
 NAB=    78 NAA=     0 NBB=     0.
 DE(Corr)= -0.85072978     E(CORR)=     -635.20724601     Delta= 4.14D-09
 NORM(A)=   0.11176054D+01
 Iteration Nr.  18
 **********************
 DD1Dir will call FoFMem   1 times, MxPair=       156
 NAB=    78 NAA=     0 NBB=     0.
 DE(Corr)= -0.85072978     E(CORR)=     -635.20724602     Delta=-2.81D-09
 NORM(A)=   0.11176054D+01
 Iteration Nr.  19
 **********************
 DD1Dir will call FoFMem   1 times, MxPair=       156
 NAB=    78 NAA=     0 NBB=     0.
 DE(Corr)= -0.85072977     E(CORR)=     -635.20724601     Delta= 4.63D-09
 NORM(A)=   0.11176054D+01
 Largest amplitude= 8.69D-02

 Z-AMPLITUDE ITERATIONS

 Iteration Nr.   1
 **********************
 DD1Dir will call FoFMem   1 times, MxPair=       156
 NAB=    78 NAA=     0 NBB=     0.
 DE(Z)  -0.82669970D+00          E(Z)=    -0.63518321594D+03
 NORM(A)=   0.11176142D+01
 Iteration Nr.   2
 **********************
 DD1Dir will call FoFMem   1 times, MxPair=       156
 NAB=    78 NAA=     0 NBB=     0.
 DE(Z)  -0.82669971D+00          E(Z)=    -0.63518321594D+03
 NORM(A)=   0.11176234D+01
 Iteration Nr.   3
 **********************
 DD1Dir will call FoFMem   1 times, MxPair=       156
 NAB=    78 NAA=     0 NBB=     0.
 DE(Z)  -0.82669997D+00          E(Z)=    -0.63518321621D+03
 NORM(A)=   0.11175778D+01
 Iteration Nr.   4
 **********************
 DD1Dir will call FoFMem   1 times, MxPair=       156
 NAB=    78 NAA=     0 NBB=     0.
 DE(Z)  -0.82669938D+00          E(Z)=    -0.63518321561D+03
 NORM(A)=   0.11176156D+01
 Iteration Nr.   5
 **********************
 DD1Dir will call FoFMem   1 times, MxPair=       156
 NAB=    78 NAA=     0 NBB=     0.
 DE(Z)  -0.82669987D+00          E(Z)=    -0.63518321610D+03
 NORM(A)=   0.11092452D+01
 Iteration Nr.   6
 **********************
 DD1Dir will call FoFMem   1 times, MxPair=       156
 NAB=    78 NAA=     0 NBB=     0.
 DE(Z)  -0.82658280D+00          E(Z)=    -0.63518309904D+03
 NORM(A)=   0.11092633D+01
 Iteration Nr.   7
 **********************
 DD1Dir will call FoFMem   1 times, MxPair=       156
 NAB=    78 NAA=     0 NBB=     0.
 DE(Z)  -0.82656221D+00          E(Z)=    -0.63518307845D+03
 NORM(A)=   0.11092606D+01
 Iteration Nr.   8
 **********************
 DD1Dir will call FoFMem   1 times, MxPair=       156
 NAB=    78 NAA=     0 NBB=     0.
 DE(Z)  -0.82656560D+00          E(Z)=    -0.63518308184D+03
 NORM(A)=   0.11092605D+01
 Iteration Nr.   9
 **********************
 DD1Dir will call FoFMem   1 times, MxPair=       156
 NAB=    78 NAA=     0 NBB=     0.
 DE(Z)  -0.82656591D+00          E(Z)=    -0.63518308214D+03
 NORM(A)=   0.11092609D+01
 Iteration Nr.  10
 **********************
 DD1Dir will call FoFMem   1 times, MxPair=       156
 NAB=    78 NAA=     0 NBB=     0.
 DE(Z)  -0.82656563D+00          E(Z)=    -0.63518308187D+03
 NORM(A)=   0.11092608D+01
 Iteration Nr.  11
 **********************
 DD1Dir will call FoFMem   1 times, MxPair=       156
 NAB=    78 NAA=     0 NBB=     0.
 DE(Z)  -0.82656578D+00          E(Z)=    -0.63518308201D+03
 NORM(A)=   0.11092608D+01
 Iteration Nr.  12
 **********************
 DD1Dir will call FoFMem   1 times, MxPair=       156
 NAB=    78 NAA=     0 NBB=     0.
 DE(Z)  -0.82656576D+00          E(Z)=    -0.63518308200D+03
 NORM(A)=   0.11092607D+01
 Iteration Nr.  13
 **********************
 DD1Dir will call FoFMem   1 times, MxPair=       156
 NAB=    78 NAA=     0 NBB=     0.
 DE(Z)  -0.82656577D+00          E(Z)=    -0.63518308200D+03
 NORM(A)=   0.11092607D+01
 Iteration Nr.  14
 **********************
 DD1Dir will call FoFMem   1 times, MxPair=       156
 NAB=    78 NAA=     0 NBB=     0.
 DE(Z)  -0.82656577D+00          E(Z)=    -0.63518308201D+03
 NORM(A)=   0.11092607D+01
 Discarding MO integrals.
          Differentiating once with respect to electric field.
                with respect to dipole field.
          Electric field/nuclear overlap derivatives assumed to be zero.
          Keep R1 ints in memory in canonical form, NReq=319473719.
          There are     1 degrees of freedom in the 1st order CPHF.  IDoFFX=0.
 LinEq1:  Iter=  0 NonCon=     1 RMS=2.87D-03 Max=7.82D-02
 AX will form     1 AO Fock derivatives at one time.
 LinEq1:  Iter=  1 NonCon=     1 RMS=8.91D-04 Max=1.25D-02
 LinEq1:  Iter=  2 NonCon=     1 RMS=4.11D-04 Max=1.36D-02
 LinEq1:  Iter=  3 NonCon=     1 RMS=1.12D-04 Max=2.48D-03
 LinEq1:  Iter=  4 NonCon=     1 RMS=2.86D-05 Max=6.88D-04
 LinEq1:  Iter=  5 NonCon=     1 RMS=7.21D-06 Max=9.83D-05
 LinEq1:  Iter=  6 NonCon=     1 RMS=2.91D-06 Max=6.07D-05
 LinEq1:  Iter=  7 NonCon=     1 RMS=8.78D-07 Max=1.59D-05
 LinEq1:  Iter=  8 NonCon=     1 RMS=1.72D-07 Max=2.35D-06
 LinEq1:  Iter=  9 NonCon=     1 RMS=3.20D-08 Max=3.81D-07
 LinEq1:  Iter= 10 NonCon=     1 RMS=6.36D-09 Max=7.60D-08
 LinEq1:  Iter= 11 NonCon=     1 RMS=1.01D-09 Max=1.66D-08
 LinEq1:  Iter= 12 NonCon=     1 RMS=1.45D-10 Max=2.01D-09
 LinEq1:  Iter= 13 NonCon=     0 RMS=2.66D-11 Max=2.99D-10
 Linear equations converged to 1.000D-10 1.000D-09 after    13 iterations.
 End of Minotr Frequency-dependent properties file   721 does not exist.
 End of Minotr Frequency-dependent properties file   722 does not exist.

 **********************************************************************

            Population analysis using the QCI/CC density.

 **********************************************************************

     Natural Orbital Coefficients:
                           1         2         3         4         5
     Eigenvalues --     2.00003   2.00002   2.00001   2.00001   2.00000
   1 1   C  1S          0.00000  -0.17250   0.60761   0.00000   0.47070
   2        2S          0.00000   0.00312  -0.00933   0.00000  -0.00484
   3        3S          0.00000  -0.00659   0.02446   0.00000   0.01968
   4        4S          0.00000  -0.00869   0.00232   0.00000  -0.00227
   5        5S          0.00000  -0.00073   0.00195   0.00000   0.00035
   6        6PX         0.00000   0.00000   0.00000  -0.00179   0.00000
   7        6PY        -0.00136   0.00000   0.00000   0.00000   0.00000
   8        6PZ         0.00000   0.00127  -0.00333   0.00000  -0.00034
   9        7PX         0.00000   0.00000   0.00000  -0.00182   0.00000
  10        7PY        -0.00359   0.00000   0.00000   0.00000   0.00000
  11        7PZ         0.00000  -0.00094   0.00143   0.00000   0.00149
  12        8PX         0.00000   0.00000   0.00000  -0.00120   0.00000
  13        8PY         0.00595   0.00000   0.00000   0.00000   0.00000
  14        8PZ         0.00000  -0.00907   0.00547   0.00000  -0.00138
  15        9PX         0.00000   0.00000   0.00000   0.00009   0.00000
  16        9PY        -0.00060   0.00000   0.00000   0.00000   0.00000
  17        9PZ         0.00000   0.00037   0.00030   0.00000   0.00053
  18       10D 0        0.00000  -0.00008   0.00007   0.00000   0.00018
  19       10D+1        0.00000   0.00000   0.00000  -0.00029   0.00000
  20       10D-1       -0.00029   0.00000   0.00000   0.00000   0.00000
  21       10D+2        0.00000   0.00011  -0.00038   0.00000  -0.00018
  22       10D-2        0.00000   0.00000   0.00000   0.00000   0.00000
  23       11D 0        0.00000  -0.00117   0.00022   0.00000  -0.00039
  24       11D+1        0.00000   0.00000   0.00000   0.00117   0.00000
  25       11D-1        0.00097   0.00000   0.00000   0.00000   0.00000
  26       11D+2        0.00000  -0.00012   0.00120   0.00000   0.00080
  27       11D-2        0.00000   0.00000   0.00000   0.00000   0.00000
  28       12D 0        0.00000  -0.00268   0.00169   0.00000  -0.00145
  29       12D+1        0.00000   0.00000   0.00000  -0.00055   0.00000
  30       12D-1       -0.00441   0.00000   0.00000   0.00000   0.00000
  31       12D+2        0.00000  -0.00089   0.00061   0.00000  -0.00056
  32       12D-2        0.00000   0.00000   0.00000   0.00000   0.00000
  33       13F 0        0.00000  -0.00004  -0.00001   0.00000   0.00040
  34       13F+1        0.00000   0.00000   0.00000  -0.00018   0.00000
  35       13F-1       -0.00055   0.00000   0.00000   0.00000   0.00000
  36       13F+2        0.00000  -0.00010   0.00016   0.00000   0.00001
  37       13F-2        0.00000   0.00000   0.00000   0.00000   0.00000
  38       13F+3        0.00000   0.00000   0.00000   0.00002   0.00000
  39       13F-3        0.00004   0.00000   0.00000   0.00000   0.00000
  40       14F 0        0.00000   0.00057  -0.00193   0.00000  -0.00023
  41       14F+1        0.00000   0.00000   0.00000   0.00089   0.00000
  42       14F-1        0.00288   0.00000   0.00000   0.00000   0.00000
  43       14F+2        0.00000   0.00064  -0.00153   0.00000  -0.00086
  44       14F-2        0.00000   0.00000   0.00000   0.00000   0.00000
  45       14F+3        0.00000   0.00000   0.00000   0.00017   0.00000
  46       14F-3        0.00003   0.00000   0.00000   0.00000   0.00000
  47 2   S  1S          0.00000  -0.22049  -0.16492   0.00000   0.07272
  48        2S          0.00000   0.75396   0.57013   0.00000  -0.25240
  49        3S          0.00000  -0.02157  -0.00849   0.00000   0.00223
  50        4S          0.00000   0.05040   0.04114   0.00000  -0.01845
  51        5S          0.00000   0.00952  -0.01132   0.00000   0.00457
  52        6S          0.00000   0.00087  -0.00258   0.00000  -0.00069
  53        7PX         0.00000   0.00000   0.00000   0.97269   0.00000
  54        7PY         0.97648   0.00000   0.00000   0.00000   0.00000
  55        7PZ         0.00000   0.61126  -0.50561   0.00000   0.44731
  56        8PX         0.00000   0.00000   0.00000  -0.01216   0.00000
  57        8PY        -0.02010   0.00000   0.00000   0.00000   0.00000
  58        8PZ         0.00000  -0.01202   0.00873   0.00000  -0.00468
  59        9PX         0.00000   0.00000   0.00000   0.06127   0.00000
  60        9PY         0.05650   0.00000   0.00000   0.00000   0.00000
  61        9PZ         0.00000   0.03779  -0.03324   0.00000   0.02951
  62       10PX         0.00000   0.00000   0.00000   0.00022   0.00000
  63       10PY        -0.00423   0.00000   0.00000   0.00000   0.00000
  64       10PZ         0.00000  -0.00854   0.00489   0.00000  -0.00087
  65       11PX         0.00000   0.00000   0.00000  -0.00082   0.00000
  66       11PY        -0.00034   0.00000   0.00000   0.00000   0.00000
  67       11PZ         0.00000  -0.00028   0.00029   0.00000  -0.00004
  68       12D 0        0.00000   0.00235  -0.00291   0.00000   0.00114
  69       12D+1        0.00000   0.00000   0.00000   0.00198   0.00000
  70       12D-1        0.00331   0.00000   0.00000   0.00000   0.00000
  71       12D+2        0.00000  -0.00039   0.00026   0.00000   0.00028
  72       12D-2        0.00000   0.00000   0.00000   0.00000   0.00000
  73       13D 0        0.00000   0.00019   0.00029   0.00000  -0.00068
  74       13D+1        0.00000   0.00000   0.00000  -0.00014   0.00000
  75       13D-1       -0.00029   0.00000   0.00000   0.00000   0.00000
  76       13D+2        0.00000   0.00026   0.00013   0.00000  -0.00008
  77       13D-2        0.00000   0.00000   0.00000   0.00000   0.00000
  78       14D 0        0.00000   0.00137  -0.00062   0.00000   0.00012
  79       14D+1        0.00000   0.00000   0.00000  -0.00040   0.00000
  80       14D-1       -0.00081   0.00000   0.00000   0.00000   0.00000
  81       14D+2        0.00000   0.00025  -0.00003   0.00000   0.00014
  82       14D-2        0.00000   0.00000   0.00000   0.00000   0.00000
  83       15F 0        0.00000  -0.00022   0.00029   0.00000   0.00031
  84       15F+1        0.00000   0.00000   0.00000  -0.00022   0.00000
  85       15F-1       -0.00022   0.00000   0.00000   0.00000   0.00000
  86       15F+2        0.00000   0.00011  -0.00014   0.00000   0.00004
  87       15F-2        0.00000   0.00000   0.00000   0.00000   0.00000
  88       15F+3        0.00000   0.00000   0.00000   0.00009   0.00000
  89       15F-3        0.00006   0.00000   0.00000   0.00000   0.00000
  90       16F 0        0.00000  -0.00045   0.00056   0.00000  -0.00047
  91       16F+1        0.00000   0.00000   0.00000  -0.00046   0.00000
  92       16F-1       -0.00102   0.00000   0.00000   0.00000   0.00000
  93       16F+2        0.00000  -0.00002  -0.00016   0.00000  -0.00026
  94       16F-2        0.00000   0.00000   0.00000   0.00000   0.00000
  95       16F+3        0.00000   0.00000   0.00000  -0.00012   0.00000
  96       16F-3       -0.00012   0.00000   0.00000   0.00000   0.00000
  97 3   F  1S          0.00814   0.01059  -0.08883   0.00000  -0.48550
  98        2S          0.00019  -0.00043   0.00244   0.00000   0.00838
  99        3S          0.00044   0.00039  -0.00355   0.00000  -0.02064
 100        4S          0.00035  -0.00128   0.00379   0.00000   0.00173
 101        5S          0.00714  -0.00211   0.00126   0.00000  -0.00038
 102        6PX         0.00000   0.00000   0.00000   0.00095   0.00000
 103        6PY        -0.00019   0.00002  -0.00072   0.00000  -0.00170
 104        6PZ        -0.00058  -0.00013  -0.00021   0.00000  -0.00143
 105        7PX         0.00000   0.00000   0.00000   0.00119   0.00000
 106        7PY        -0.00030  -0.00006  -0.00041   0.00000  -0.00092
 107        7PZ        -0.00085  -0.00029   0.00016   0.00000  -0.00085
 108        8PX         0.00000   0.00000   0.00000   0.00126   0.00000
 109        8PY        -0.00051   0.00004  -0.00024   0.00000  -0.00111
 110        8PZ        -0.00269  -0.00027   0.00067   0.00000  -0.00142
 111        9PX         0.00000   0.00000   0.00000  -0.00002   0.00000
 112        9PY         0.00167  -0.00008  -0.00006   0.00000   0.00007
 113        9PZ         0.00021  -0.00109   0.00053   0.00000  -0.00070
 114       10D 0        0.00000   0.00001   0.00000   0.00000   0.00001
 115       10D+1        0.00000   0.00000   0.00000  -0.00001   0.00000
 116       10D-1        0.00001   0.00000   0.00002   0.00000   0.00002
 117       10D+2        0.00000   0.00001  -0.00002   0.00000   0.00002
 118       10D-2        0.00000   0.00000   0.00000  -0.00002   0.00000
 119       11D 0        0.00015   0.00001  -0.00005   0.00000  -0.00003
 120       11D+1        0.00000   0.00000   0.00000  -0.00003   0.00000
 121       11D-1       -0.00007   0.00004  -0.00014   0.00000  -0.00010
 122       11D+2        0.00004  -0.00002   0.00007   0.00000  -0.00001
 123       11D-2        0.00000   0.00000   0.00000   0.00005   0.00000
 124       12D 0       -0.00046   0.00018  -0.00029   0.00000  -0.00004
 125       12D+1        0.00000   0.00000   0.00000   0.00024   0.00000
 126       12D-1       -0.00083  -0.00005   0.00020   0.00000  -0.00052
 127       12D+2        0.00039  -0.00017   0.00035   0.00000   0.00019
 128       12D-2        0.00000   0.00000   0.00000   0.00003   0.00000
 129       13F 0       -0.00001  -0.00002   0.00004   0.00000  -0.00001
 130       13F+1        0.00000   0.00000   0.00000   0.00001   0.00000
 131       13F-1        0.00003   0.00001   0.00000   0.00000   0.00002
 132       13F+2        0.00000  -0.00001   0.00001   0.00000  -0.00004
 133       13F-2        0.00000   0.00000   0.00000  -0.00002   0.00000
 134       13F+3        0.00000   0.00000   0.00000   0.00001   0.00000
 135       13F-3       -0.00002   0.00001  -0.00002   0.00000   0.00001
 136       14F 0        0.00013   0.00006  -0.00009   0.00000   0.00014
 137       14F+1        0.00000   0.00000   0.00000  -0.00003   0.00000
 138       14F-1        0.00000   0.00003  -0.00014   0.00000  -0.00019
 139       14F+2        0.00007  -0.00001   0.00013   0.00000   0.00030
 140       14F-2        0.00000   0.00000   0.00000   0.00008   0.00000
 141       14F+3        0.00000   0.00000   0.00000  -0.00003   0.00000
 142       14F-3        0.00012  -0.00005   0.00016   0.00000   0.00000
 143 4   F  1S         -0.00814   0.01059  -0.08883   0.00000  -0.48550
 144        2S         -0.00019  -0.00043   0.00244   0.00000   0.00838
 145        3S         -0.00044   0.00039  -0.00355   0.00000  -0.02064
 146        4S         -0.00035  -0.00128   0.00379   0.00000   0.00173
 147        5S         -0.00714  -0.00211   0.00126   0.00000  -0.00038
 148        6PX         0.00000   0.00000   0.00000   0.00095   0.00000
 149        6PY        -0.00019  -0.00002   0.00072   0.00000   0.00170
 150        6PZ         0.00058  -0.00013  -0.00021   0.00000  -0.00143
 151        7PX         0.00000   0.00000   0.00000   0.00119   0.00000
 152        7PY        -0.00030   0.00006   0.00041   0.00000   0.00092
 153        7PZ         0.00085  -0.00029   0.00016   0.00000  -0.00085
 154        8PX         0.00000   0.00000   0.00000   0.00126   0.00000
 155        8PY        -0.00051  -0.00004   0.00024   0.00000   0.00111
 156        8PZ         0.00269  -0.00027   0.00067   0.00000  -0.00142
 157        9PX         0.00000   0.00000   0.00000  -0.00002   0.00000
 158        9PY         0.00167   0.00008   0.00006   0.00000  -0.00007
 159        9PZ        -0.00021  -0.00109   0.00053   0.00000  -0.00070
 160       10D 0        0.00000   0.00001   0.00000   0.00000   0.00001
 161       10D+1        0.00000   0.00000   0.00000  -0.00001   0.00000
 162       10D-1        0.00001   0.00000  -0.00002   0.00000  -0.00002
 163       10D+2        0.00000   0.00001  -0.00002   0.00000   0.00002
 164       10D-2        0.00000   0.00000   0.00000   0.00002   0.00000
 165       11D 0       -0.00015   0.00001  -0.00005   0.00000  -0.00003
 166       11D+1        0.00000   0.00000   0.00000  -0.00003   0.00000
 167       11D-1       -0.00007  -0.00004   0.00014   0.00000   0.00010
 168       11D+2       -0.00004  -0.00002   0.00007   0.00000  -0.00001
 169       11D-2        0.00000   0.00000   0.00000  -0.00005   0.00000
 170       12D 0        0.00046   0.00018  -0.00029   0.00000  -0.00004
 171       12D+1        0.00000   0.00000   0.00000   0.00024   0.00000
 172       12D-1       -0.00083   0.00005  -0.00020   0.00000   0.00052
 173       12D+2       -0.00039  -0.00017   0.00035   0.00000   0.00019
 174       12D-2        0.00000   0.00000   0.00000  -0.00003   0.00000
 175       13F 0        0.00001  -0.00002   0.00004   0.00000  -0.00001
 176       13F+1        0.00000   0.00000   0.00000   0.00001   0.00000
 177       13F-1        0.00003  -0.00001   0.00000   0.00000  -0.00002
 178       13F+2        0.00000  -0.00001   0.00001   0.00000  -0.00004
 179       13F-2        0.00000   0.00000   0.00000   0.00002   0.00000
 180       13F+3        0.00000   0.00000   0.00000   0.00001   0.00000
 181       13F-3       -0.00002  -0.00001   0.00002   0.00000  -0.00001
 182       14F 0       -0.00013   0.00006  -0.00009   0.00000   0.00014
 183       14F+1        0.00000   0.00000   0.00000  -0.00003   0.00000
 184       14F-1        0.00000  -0.00003   0.00014   0.00000   0.00019
 185       14F+2       -0.00007  -0.00001   0.00013   0.00000   0.00030
 186       14F-2        0.00000   0.00000   0.00000  -0.00008   0.00000
 187       14F+3        0.00000   0.00000   0.00000  -0.00003   0.00000
 188       14F-3        0.00012   0.00005  -0.00016   0.00000   0.00000
                           6         7         8         9        10
     Eigenvalues --     2.00000   2.00000   2.00000   1.98612   1.98546
   1 1   C  1S          0.00000   0.58507   0.00016  -0.04793   0.00000
   2        2S          0.00000  -0.00555  -0.00003   0.09853   0.00000
   3        3S          0.00000   0.02370   0.00002   0.02054   0.00000
   4        4S          0.00000  -0.00222  -0.00005   0.01046   0.00000
   5        5S          0.00000   0.00059  -0.00008   0.00468   0.00000
   6        6PX         0.00000   0.00000   0.00000   0.00000   0.00000
   7        6PY        -0.00002   0.00000   0.00000   0.00000   0.03325
   8        6PZ         0.00000  -0.00094   0.00001  -0.02092   0.00000
   9        7PX         0.00000   0.00000   0.00000   0.00000   0.00000
  10        7PY         0.00073   0.00000   0.00000   0.00000   0.02701
  11        7PZ         0.00000   0.00009  -0.00013  -0.02513   0.00000
  12        8PX         0.00000   0.00000   0.00000   0.00000   0.00000
  13        8PY        -0.00060   0.00000   0.00000   0.00000  -0.01813
  14        8PZ         0.00000   0.00201   0.00003   0.03655   0.00000
  15        9PX         0.00000   0.00000   0.00000   0.00000   0.00000
  16        9PY         0.00033   0.00000   0.00000   0.00000   0.00140
  17        9PZ         0.00000   0.00027  -0.00003   0.00124   0.00000
  18       10D 0        0.00000   0.00022  -0.00001   0.00304   0.00000
  19       10D+1        0.00000   0.00000   0.00000   0.00000   0.00000
  20       10D-1       -0.00020   0.00000   0.00000   0.00000  -0.01046
  21       10D+2        0.00000  -0.00051   0.00000  -0.00843   0.00000
  22       10D-2        0.00000   0.00000   0.00000   0.00000   0.00000
  23       11D 0        0.00000  -0.00056  -0.00008   0.00219   0.00000
  24       11D+1        0.00000   0.00000   0.00000   0.00000   0.00000
  25       11D-1       -0.00125   0.00000   0.00000   0.00000  -0.01076
  26       11D+2        0.00000  -0.00001  -0.00003  -0.01137   0.00000
  27       11D-2        0.00000   0.00000   0.00000   0.00000   0.00000
  28       12D 0        0.00000  -0.00019  -0.00002   0.00689   0.00000
  29       12D+1        0.00000   0.00000   0.00000   0.00000   0.00000
  30       12D-1        0.00064   0.00000   0.00000   0.00000   0.01328
  31       12D+2        0.00000   0.00025   0.00000   0.00847   0.00000
  32       12D-2        0.00000   0.00000   0.00000   0.00000   0.00000
  33       13F 0        0.00000   0.00061   0.00001   0.00272   0.00000
  34       13F+1        0.00000   0.00000   0.00000   0.00000   0.00000
  35       13F-1        0.00017   0.00000   0.00000   0.00000   0.00179
  36       13F+2        0.00000   0.00060   0.00001   0.00522   0.00000
  37       13F-2        0.00000   0.00000   0.00000   0.00000   0.00000
  38       13F+3        0.00000   0.00000   0.00000   0.00000   0.00000
  39       13F-3       -0.00021   0.00000   0.00000   0.00000  -0.00214
  40       14F 0        0.00000   0.00053   0.00003   0.00420   0.00000
  41       14F+1        0.00000   0.00000   0.00000   0.00000   0.00000
  42       14F-1        0.00105   0.00000   0.00000   0.00000   0.00415
  43       14F+2        0.00000  -0.00024   0.00001   0.00231   0.00000
  44       14F-2        0.00000   0.00000   0.00000   0.00000   0.00000
  45       14F+3        0.00000   0.00000   0.00000   0.00000   0.00000
  46       14F-3        0.00013   0.00000   0.00000   0.00000   0.00033
  47 2   S  1S          0.00000   0.04708   0.99638   0.00285   0.00000
  48        2S          0.00000  -0.16490   0.01325  -0.01137   0.00000
  49        3S          0.00000   0.00055   0.00031   0.02197   0.00000
  50        4S          0.00000  -0.01230  -0.00002   0.00233   0.00000
  51        5S          0.00000   0.00144  -0.00004  -0.01799   0.00000
  52        6S          0.00000  -0.00086   0.00005  -0.01116   0.00000
  53        7PX         0.00000   0.00000   0.00000   0.00000   0.00000
  54        7PY         0.01158   0.00000   0.00000   0.00000  -0.00430
  55        7PZ         0.00000   0.34162   0.00170   0.00746   0.00000
  56        8PX         0.00000   0.00000   0.00000   0.00000   0.00000
  57        8PY        -0.00033   0.00000   0.00000   0.00000   0.01604
  58        8PZ         0.00000  -0.00303  -0.00018  -0.01278   0.00000
  59        9PX         0.00000   0.00000   0.00000   0.00000   0.00000
  60        9PY         0.00072   0.00000   0.00000   0.00000   0.00656
  61        9PZ         0.00000   0.02283   0.00019  -0.00730   0.00000
  62       10PX         0.00000   0.00000   0.00000   0.00000   0.00000
  63       10PY        -0.00048   0.00000   0.00000   0.00000   0.00419
  64       10PZ         0.00000  -0.00029   0.00002   0.00616   0.00000
  65       11PX         0.00000   0.00000   0.00000   0.00000   0.00000
  66       11PY        -0.00018   0.00000   0.00000   0.00000  -0.00055
  67       11PZ         0.00000   0.00006   0.00000   0.00183   0.00000
  68       12D 0        0.00000   0.00107   0.00008   0.00150   0.00000
  69       12D+1        0.00000   0.00000   0.00000   0.00000   0.00000
  70       12D-1        0.00012   0.00000   0.00000   0.00000   0.00002
  71       12D+2        0.00000   0.00009  -0.00001  -0.00018   0.00000
  72       12D-2        0.00000   0.00000   0.00000   0.00000   0.00000
  73       13D 0        0.00000  -0.00066   0.00001   0.00250   0.00000
  74       13D+1        0.00000   0.00000   0.00000   0.00000   0.00000
  75       13D-1       -0.00001   0.00000   0.00000   0.00000  -0.00032
  76       13D+2        0.00000  -0.00005   0.00001  -0.00001   0.00000
  77       13D-2        0.00000   0.00000   0.00000   0.00000   0.00000
  78       14D 0        0.00000   0.00027  -0.00003  -0.00148   0.00000
  79       14D+1        0.00000   0.00000   0.00000   0.00000   0.00000
  80       14D-1        0.00013   0.00000   0.00000   0.00000   0.00194
  81       14D+2        0.00000  -0.00007   0.00000  -0.00269   0.00000
  82       14D-2        0.00000   0.00000   0.00000   0.00000   0.00000
  83       15F 0        0.00000   0.00034  -0.00002  -0.00045   0.00000
  84       15F+1        0.00000   0.00000   0.00000   0.00000   0.00000
  85       15F-1        0.00000   0.00000   0.00000   0.00000   0.00021
  86       15F+2        0.00000   0.00008   0.00000  -0.00001   0.00000
  87       15F-2        0.00000   0.00000   0.00000   0.00000   0.00000
  88       15F+3        0.00000   0.00000   0.00000   0.00000   0.00000
  89       15F-3       -0.00001   0.00000   0.00000   0.00000   0.00000
  90       16F 0        0.00000  -0.00052  -0.00001   0.00026   0.00000
  91       16F+1        0.00000   0.00000   0.00000   0.00000   0.00000
  92       16F-1       -0.00002   0.00000   0.00000   0.00000  -0.00015
  93       16F+2        0.00000  -0.00008   0.00000   0.00089   0.00000
  94       16F-2        0.00000   0.00000   0.00000   0.00000   0.00000
  95       16F+3        0.00000   0.00000   0.00000   0.00000   0.00000
  96       16F-3        0.00003   0.00000   0.00000   0.00000   0.00023
  97 3   F  1S         -0.69209   0.48507   0.00015  -0.14655   0.15005
  98        2S          0.01117  -0.00687  -0.00001   0.37476  -0.38404
  99        3S         -0.02981   0.02124   0.00001   0.11422  -0.11771
 100        4S          0.00070   0.00120  -0.00003   0.23451  -0.25377
 101        5S         -0.00067   0.00029   0.00004   0.01851  -0.03171
 102        6PX         0.00000   0.00000   0.00000   0.00000   0.00000
 103        6PY        -0.00144   0.00045   0.00000  -0.00577   0.03769
 104        6PZ        -0.00110   0.00001   0.00000  -0.02192   0.00810
 105        7PX         0.00000   0.00000   0.00000   0.00000   0.00000
 106        7PY         0.00014  -0.00074  -0.00001  -0.00269   0.04116
 107        7PZ        -0.00012  -0.00098  -0.00001  -0.02394   0.00617
 108        8PX         0.00000   0.00000   0.00000   0.00000   0.00000
 109        8PY        -0.00067   0.00059   0.00001  -0.01348   0.03413
 110        8PZ        -0.00152  -0.00065  -0.00004  -0.02916   0.00466
 111        9PX         0.00000   0.00000   0.00000   0.00000   0.00000
 112        9PY        -0.00040   0.00008   0.00001  -0.00169  -0.00113
 113        9PZ        -0.00005  -0.00015   0.00001  -0.00054   0.00041
 114       10D 0        0.00000   0.00001   0.00000  -0.00013  -0.00014
 115       10D+1        0.00000   0.00000   0.00000   0.00000   0.00000
 116       10D-1       -0.00001   0.00005   0.00000   0.00064  -0.00041
 117       10D+2        0.00001  -0.00001   0.00000  -0.00065   0.00009
 118       10D-2        0.00000   0.00000   0.00000   0.00000   0.00000
 119       11D 0       -0.00007  -0.00007   0.00000  -0.00077  -0.00093
 120       11D+1        0.00000   0.00000   0.00000   0.00000   0.00000
 121       11D-1        0.00024  -0.00052  -0.00001   0.00359  -0.00384
 122       11D+2       -0.00017   0.00021   0.00000  -0.00336   0.00194
 123       11D-2        0.00000   0.00000   0.00000   0.00000   0.00000
 124       12D 0       -0.00030  -0.00013   0.00000  -0.00144  -0.00121
 125       12D+1        0.00000   0.00000   0.00000   0.00000   0.00000
 126       12D-1       -0.00038  -0.00029  -0.00002  -0.00531   0.00001
 127       12D+2        0.00017  -0.00013  -0.00001   0.00184  -0.00125
 128       12D-2        0.00000   0.00000   0.00000   0.00000   0.00000
 129       13F 0        0.00000  -0.00002   0.00000  -0.00034   0.00011
 130       13F+1        0.00000   0.00000   0.00000   0.00000   0.00000
 131       13F-1        0.00001  -0.00001   0.00000   0.00014  -0.00028
 132       13F+2       -0.00001   0.00001   0.00000  -0.00054   0.00031
 133       13F-2        0.00000   0.00000   0.00000   0.00000   0.00000
 134       13F+3        0.00000   0.00000   0.00000   0.00000   0.00000
 135       13F-3       -0.00006   0.00002   0.00000  -0.00042   0.00003
 136       14F 0       -0.00004   0.00020   0.00001  -0.00035   0.00035
 137       14F+1        0.00000   0.00000   0.00000   0.00000   0.00000
 138       14F-1       -0.00003  -0.00020   0.00000  -0.00018  -0.00085
 139       14F+2        0.00000   0.00027   0.00000  -0.00075   0.00096
 140       14F-2        0.00000   0.00000   0.00000   0.00000   0.00000
 141       14F+3        0.00000   0.00000   0.00000   0.00000   0.00000
 142       14F-3        0.00012   0.00004   0.00000  -0.00047   0.00062
 143 4   F  1S          0.69209   0.48507   0.00015  -0.14655  -0.15005
 144        2S         -0.01117  -0.00687  -0.00001   0.37476   0.38404
 145        3S          0.02981   0.02124   0.00001   0.11422   0.11771
 146        4S         -0.00070   0.00120  -0.00003   0.23451   0.25377
 147        5S          0.00067   0.00029   0.00004   0.01851   0.03171
 148        6PX         0.00000   0.00000   0.00000   0.00000   0.00000
 149        6PY        -0.00144  -0.00045   0.00000   0.00577   0.03769
 150        6PZ         0.00110   0.00001   0.00000  -0.02192  -0.00810
 151        7PX         0.00000   0.00000   0.00000   0.00000   0.00000
 152        7PY         0.00014   0.00074   0.00001   0.00269   0.04116
 153        7PZ         0.00012  -0.00098  -0.00001  -0.02394  -0.00617
 154        8PX         0.00000   0.00000   0.00000   0.00000   0.00000
 155        8PY        -0.00067  -0.00059  -0.00001   0.01348   0.03413
 156        8PZ         0.00152  -0.00065  -0.00004  -0.02916  -0.00466
 157        9PX         0.00000   0.00000   0.00000   0.00000   0.00000
 158        9PY        -0.00040  -0.00008  -0.00001   0.00169  -0.00113
 159        9PZ         0.00005  -0.00015   0.00001  -0.00054  -0.00041
 160       10D 0        0.00000   0.00001   0.00000  -0.00013   0.00014
 161       10D+1        0.00000   0.00000   0.00000   0.00000   0.00000
 162       10D-1       -0.00001  -0.00005   0.00000  -0.00064  -0.00041
 163       10D+2       -0.00001  -0.00001   0.00000  -0.00065  -0.00009
 164       10D-2        0.00000   0.00000   0.00000   0.00000   0.00000
 165       11D 0        0.00007  -0.00007   0.00000  -0.00077   0.00093
 166       11D+1        0.00000   0.00000   0.00000   0.00000   0.00000
 167       11D-1        0.00024   0.00052   0.00001  -0.00359  -0.00384
 168       11D+2        0.00017   0.00021   0.00000  -0.00336  -0.00194
 169       11D-2        0.00000   0.00000   0.00000   0.00000   0.00000
 170       12D 0        0.00030  -0.00013   0.00000  -0.00144   0.00121
 171       12D+1        0.00000   0.00000   0.00000   0.00000   0.00000
 172       12D-1       -0.00038   0.00029   0.00002   0.00531   0.00001
 173       12D+2       -0.00017  -0.00013  -0.00001   0.00184   0.00125
 174       12D-2        0.00000   0.00000   0.00000   0.00000   0.00000
 175       13F 0        0.00000  -0.00002   0.00000  -0.00034  -0.00011
 176       13F+1        0.00000   0.00000   0.00000   0.00000   0.00000
 177       13F-1        0.00001   0.00001   0.00000  -0.00014  -0.00028
 178       13F+2        0.00001   0.00001   0.00000  -0.00054  -0.00031
 179       13F-2        0.00000   0.00000   0.00000   0.00000   0.00000
 180       13F+3        0.00000   0.00000   0.00000   0.00000   0.00000
 181       13F-3       -0.00006  -0.00002   0.00000   0.00042   0.00003
 182       14F 0        0.00004   0.00020   0.00001  -0.00035  -0.00035
 183       14F+1        0.00000   0.00000   0.00000   0.00000   0.00000
 184       14F-1       -0.00003   0.00020   0.00000   0.00018  -0.00085
 185       14F+2        0.00000   0.00027   0.00000  -0.00075  -0.00096
 186       14F-2        0.00000   0.00000   0.00000   0.00000   0.00000
 187       14F+3        0.00000   0.00000   0.00000   0.00000   0.00000
 188       14F-3        0.00012  -0.00004   0.00000   0.00047   0.00062
                          11        12        13        14        15
     Eigenvalues --     1.97408   1.97107   1.97005   1.96726   1.96689
   1 1   C  1S         -0.05278  -0.10349   0.00000   0.00000   0.00000
   2        2S          0.14271   0.27909   0.00000   0.00000   0.00000
   3        3S          0.03361   0.06869   0.00000   0.00000   0.00000
   4        4S          0.01623   0.14500   0.00000   0.00000   0.00000
   5        5S         -0.02154   0.04271   0.00000   0.00000   0.00000
   6        6PX         0.00000   0.00000   0.00000   0.00000   0.10218
   7        6PY         0.00000   0.00000  -0.05153   0.00000   0.00000
   8        6PZ         0.08967   0.00983   0.00000   0.00000   0.00000
   9        7PX         0.00000   0.00000   0.00000   0.00000   0.12510
  10        7PY         0.00000   0.00000  -0.07608   0.00000   0.00000
  11        7PZ         0.11583  -0.00255   0.00000   0.00000   0.00000
  12        8PX         0.00000   0.00000   0.00000   0.00000   0.00496
  13        8PY         0.00000   0.00000   0.05616   0.00000   0.00000
  14        8PZ        -0.05439   0.03496   0.00000   0.00000   0.00000
  15        9PX         0.00000   0.00000   0.00000   0.00000  -0.00080
  16        9PY         0.00000   0.00000  -0.00046   0.00000   0.00000
  17        9PZ        -0.00771   0.01344   0.00000   0.00000   0.00000
  18       10D 0       -0.00890   0.01872   0.00000   0.00000   0.00000
  19       10D+1        0.00000   0.00000   0.00000   0.00000  -0.01510
  20       10D-1        0.00000   0.00000  -0.00909   0.00000   0.00000
  21       10D+2       -0.00998   0.00246   0.00000   0.00000   0.00000
  22       10D-2        0.00000   0.00000   0.00000  -0.02021   0.00000
  23       11D 0       -0.01903   0.03157   0.00000   0.00000   0.00000
  24       11D+1        0.00000   0.00000   0.00000   0.00000  -0.02506
  25       11D-1        0.00000   0.00000  -0.00705   0.00000   0.00000
  26       11D+2       -0.01804   0.00138   0.00000   0.00000   0.00000
  27       11D-2        0.00000   0.00000   0.00000  -0.03259   0.00000
  28       12D 0       -0.00417  -0.00381   0.00000   0.00000   0.00000
  29       12D+1        0.00000   0.00000   0.00000   0.00000  -0.00233
  30       12D-1        0.00000   0.00000   0.01086   0.00000   0.00000
  31       12D+2        0.00069  -0.00026   0.00000   0.00000   0.00000
  32       12D-2        0.00000   0.00000   0.00000   0.00883   0.00000
  33       13F 0        0.00830   0.00190   0.00000   0.00000   0.00000
  34       13F+1        0.00000   0.00000   0.00000   0.00000   0.00411
  35       13F-1        0.00000   0.00000   0.00931   0.00000   0.00000
  36       13F+2        0.00152   0.00287   0.00000   0.00000   0.00000
  37       13F-2        0.00000   0.00000   0.00000   0.00878   0.00000
  38       13F+3        0.00000   0.00000   0.00000   0.00000  -0.00782
  39       13F-3        0.00000   0.00000   0.00519   0.00000   0.00000
  40       14F 0        0.00653   0.00158   0.00000   0.00000   0.00000
  41       14F+1        0.00000   0.00000   0.00000   0.00000  -0.00154
  42       14F-1        0.00000   0.00000   0.01932   0.00000   0.00000
  43       14F+2        0.00688   0.00266   0.00000   0.00000   0.00000
  44       14F-2        0.00000   0.00000   0.00000   0.00941   0.00000
  45       14F+3        0.00000   0.00000   0.00000   0.00000  -0.00062
  46       14F-3        0.00000   0.00000   0.00012   0.00000   0.00000
  47 2   S  1S          0.03062   0.04455   0.00000   0.00000   0.00000
  48        2S         -0.11935  -0.17091   0.00000   0.00000   0.00000
  49        3S          0.24097   0.36043   0.00000   0.00000   0.00000
  50        4S          0.03084   0.04570   0.00000   0.00000   0.00000
  51        5S          0.17042   0.16138   0.00000   0.00000   0.00000
  52        6S          0.02922  -0.05341   0.00000   0.00000   0.00000
  53        7PX         0.00000   0.00000   0.00000   0.00000   0.01305
  54        7PY         0.00000   0.00000   0.00308   0.00000   0.00000
  55        7PZ         0.02735   0.03465   0.00000   0.00000   0.00000
  56        8PX         0.00000   0.00000   0.00000   0.00000  -0.03250
  57        8PY         0.00000   0.00000  -0.01901   0.00000   0.00000
  58        8PZ        -0.03144  -0.04078   0.00000   0.00000   0.00000
  59        9PX         0.00000   0.00000   0.00000   0.00000  -0.01470
  60        9PY         0.00000   0.00000  -0.00134   0.00000   0.00000
  61        9PZ        -0.01716  -0.02345   0.00000   0.00000   0.00000
  62       10PX         0.00000   0.00000   0.00000   0.00000  -0.02774
  63       10PY         0.00000   0.00000  -0.02314   0.00000   0.00000
  64       10PZ        -0.01579   0.03180   0.00000   0.00000   0.00000
  65       11PX         0.00000   0.00000   0.00000   0.00000  -0.00416
  66       11PY         0.00000   0.00000   0.00441   0.00000   0.00000
  67       11PZ        -0.00106   0.00941   0.00000   0.00000   0.00000
  68       12D 0        0.00545   0.00942   0.00000   0.00000   0.00000
  69       12D+1        0.00000   0.00000   0.00000   0.00000  -0.00817
  70       12D-1        0.00000   0.00000   0.01984   0.00000   0.00000
  71       12D+2       -0.00243   0.00182   0.00000   0.00000   0.00000
  72       12D-2        0.00000   0.00000   0.00000  -0.00409   0.00000
  73       13D 0        0.01576   0.01825   0.00000   0.00000   0.00000
  74       13D+1        0.00000   0.00000   0.00000   0.00000  -0.00447
  75       13D-1        0.00000   0.00000   0.00767   0.00000   0.00000
  76       13D+2       -0.00083   0.00156   0.00000   0.00000   0.00000
  77       13D-2        0.00000   0.00000   0.00000  -0.00123   0.00000
  78       14D 0       -0.00143  -0.01036   0.00000   0.00000   0.00000
  79       14D+1        0.00000   0.00000   0.00000   0.00000  -0.00272
  80       14D-1        0.00000   0.00000   0.01331   0.00000   0.00000
  81       14D+2       -0.00076  -0.00064   0.00000   0.00000   0.00000
  82       14D-2        0.00000   0.00000   0.00000  -0.00471   0.00000
  83       15F 0       -0.00485  -0.00693   0.00000   0.00000   0.00000
  84       15F+1        0.00000   0.00000   0.00000   0.00000   0.00178
  85       15F-1        0.00000   0.00000  -0.00504   0.00000   0.00000
  86       15F+2        0.00074  -0.00059   0.00000   0.00000   0.00000
  87       15F-2        0.00000   0.00000   0.00000   0.00130   0.00000
  88       15F+3        0.00000   0.00000   0.00000   0.00000  -0.00036
  89       15F-3        0.00000   0.00000   0.00027   0.00000   0.00000
  90       16F 0        0.00659   0.00101   0.00000   0.00000   0.00000
  91       16F+1        0.00000   0.00000   0.00000   0.00000   0.00209
  92       16F-1        0.00000   0.00000  -0.00203   0.00000   0.00000
  93       16F+2       -0.00036  -0.00053   0.00000   0.00000   0.00000
  94       16F-2        0.00000   0.00000   0.00000   0.00333   0.00000
  95       16F+3        0.00000   0.00000   0.00000   0.00000   0.00032
  96       16F-3        0.00000   0.00000  -0.00036   0.00000   0.00000
  97 3   F  1S         -0.00084   0.02731   0.01572   0.00000   0.00000
  98        2S          0.00069  -0.07715  -0.04103   0.00000   0.00000
  99        3S          0.00054  -0.02622  -0.01373   0.00000   0.00000
 100        4S         -0.01214  -0.10187  -0.03902   0.00000   0.00000
 101        5S         -0.01527  -0.01951   0.00725   0.00000   0.00000
 102        6PX         0.00000   0.00000   0.00000   0.27595   0.25168
 103        6PY        -0.11264   0.15356  -0.15465   0.00000   0.00000
 104        6PZ         0.18237  -0.06097   0.23025   0.00000   0.00000
 105        7PX         0.00000   0.00000   0.00000   0.33593   0.30706
 106        7PY        -0.13741   0.18403  -0.18780   0.00000   0.00000
 107        7PZ         0.21975  -0.07550   0.27812   0.00000   0.00000
 108        8PX         0.00000   0.00000   0.00000   0.23484   0.21155
 109        8PY        -0.09271   0.10070  -0.14847   0.00000   0.00000
 110        8PZ         0.14979  -0.07205   0.18738   0.00000   0.00000
 111        9PX         0.00000   0.00000   0.00000   0.02728   0.01710
 112        9PY        -0.01265   0.00528  -0.01232   0.00000   0.00000
 113        9PZ         0.01088  -0.01406   0.02318   0.00000   0.00000
 114       10D 0        0.00243  -0.00117   0.00231   0.00000   0.00000
 115       10D+1        0.00000   0.00000   0.00000   0.00174   0.00186
 116       10D-1        0.00141   0.00164   0.00119   0.00000   0.00000
 117       10D+2        0.00137  -0.00235   0.00075   0.00000   0.00000
 118       10D-2        0.00000   0.00000   0.00000   0.00213   0.00300
 119       11D 0        0.00867  -0.00491   0.00856   0.00000   0.00000
 120       11D+1        0.00000   0.00000   0.00000   0.00715   0.00784
 121       11D-1        0.00380   0.00366   0.00418   0.00000   0.00000
 122       11D+2        0.00513  -0.00736   0.00350   0.00000   0.00000
 123       11D-2        0.00000   0.00000   0.00000   0.00959   0.01219
 124       12D 0        0.00569  -0.00308   0.00720   0.00000   0.00000
 125       12D+1        0.00000   0.00000   0.00000   0.00469   0.00428
 126       12D-1        0.00358  -0.00270  -0.00184   0.00000   0.00000
 127       12D+2       -0.00015  -0.00027   0.00892   0.00000   0.00000
 128       12D-2        0.00000   0.00000   0.00000   0.00573   0.00795
 129       13F 0        0.00041  -0.00080   0.00061   0.00000   0.00000
 130       13F+1        0.00000   0.00000   0.00000   0.00028   0.00029
 131       13F-1        0.00169  -0.00040   0.00173   0.00000   0.00000
 132       13F+2        0.00002  -0.00101  -0.00001   0.00000   0.00000
 133       13F-2        0.00000   0.00000   0.00000   0.00150   0.00166
 134       13F+3        0.00000   0.00000   0.00000  -0.00085  -0.00151
 135       13F-3        0.00077  -0.00086   0.00031   0.00000   0.00000
 136       14F 0        0.00192  -0.00112   0.00068   0.00000   0.00000
 137       14F+1        0.00000   0.00000   0.00000   0.00071   0.00030
 138       14F-1        0.00227  -0.00149   0.00294   0.00000   0.00000
 139       14F+2        0.00030  -0.00096  -0.00020   0.00000   0.00000
 140       14F-2        0.00000   0.00000   0.00000   0.00269   0.00295
 141       14F+3        0.00000   0.00000   0.00000  -0.00257  -0.00211
 142       14F-3        0.00044  -0.00128   0.00154   0.00000   0.00000
 143 4   F  1S         -0.00084   0.02731  -0.01572   0.00000   0.00000
 144        2S          0.00069  -0.07715   0.04103   0.00000   0.00000
 145        3S          0.00054  -0.02622   0.01373   0.00000   0.00000
 146        4S         -0.01214  -0.10187   0.03902   0.00000   0.00000
 147        5S         -0.01527  -0.01951  -0.00725   0.00000   0.00000
 148        6PX         0.00000   0.00000   0.00000  -0.27595   0.25168
 149        6PY         0.11264  -0.15356  -0.15465   0.00000   0.00000
 150        6PZ         0.18237  -0.06097  -0.23025   0.00000   0.00000
 151        7PX         0.00000   0.00000   0.00000  -0.33593   0.30706
 152        7PY         0.13741  -0.18403  -0.18780   0.00000   0.00000
 153        7PZ         0.21975  -0.07550  -0.27812   0.00000   0.00000
 154        8PX         0.00000   0.00000   0.00000  -0.23484   0.21155
 155        8PY         0.09271  -0.10070  -0.14847   0.00000   0.00000
 156        8PZ         0.14979  -0.07205  -0.18738   0.00000   0.00000
 157        9PX         0.00000   0.00000   0.00000  -0.02728   0.01710
 158        9PY         0.01265  -0.00528  -0.01232   0.00000   0.00000
 159        9PZ         0.01088  -0.01406  -0.02318   0.00000   0.00000
 160       10D 0        0.00243  -0.00117  -0.00231   0.00000   0.00000
 161       10D+1        0.00000   0.00000   0.00000  -0.00174   0.00186
 162       10D-1       -0.00141  -0.00164   0.00119   0.00000   0.00000
 163       10D+2        0.00137  -0.00235  -0.00075   0.00000   0.00000
 164       10D-2        0.00000   0.00000   0.00000   0.00213  -0.00300
 165       11D 0        0.00867  -0.00491  -0.00856   0.00000   0.00000
 166       11D+1        0.00000   0.00000   0.00000  -0.00715   0.00784
 167       11D-1       -0.00380  -0.00366   0.00418   0.00000   0.00000
 168       11D+2        0.00513  -0.00736  -0.00350   0.00000   0.00000
 169       11D-2        0.00000   0.00000   0.00000   0.00959  -0.01219
 170       12D 0        0.00569  -0.00308  -0.00720   0.00000   0.00000
 171       12D+1        0.00000   0.00000   0.00000  -0.00469   0.00428
 172       12D-1       -0.00358   0.00270  -0.00184   0.00000   0.00000
 173       12D+2       -0.00015  -0.00027  -0.00892   0.00000   0.00000
 174       12D-2        0.00000   0.00000   0.00000   0.00573  -0.00795
 175       13F 0        0.00041  -0.00080  -0.00061   0.00000   0.00000
 176       13F+1        0.00000   0.00000   0.00000  -0.00028   0.00029
 177       13F-1       -0.00169   0.00040   0.00173   0.00000   0.00000
 178       13F+2        0.00002  -0.00101   0.00001   0.00000   0.00000
 179       13F-2        0.00000   0.00000   0.00000   0.00150  -0.00166
 180       13F+3        0.00000   0.00000   0.00000   0.00085  -0.00151
 181       13F-3       -0.00077   0.00086   0.00031   0.00000   0.00000
 182       14F 0        0.00192  -0.00112  -0.00068   0.00000   0.00000
 183       14F+1        0.00000   0.00000   0.00000  -0.00071   0.00030
 184       14F-1       -0.00227   0.00149   0.00294   0.00000   0.00000
 185       14F+2        0.00030  -0.00096   0.00020   0.00000   0.00000
 186       14F-2        0.00000   0.00000   0.00000   0.00269  -0.00295
 187       14F+3        0.00000   0.00000   0.00000   0.00257  -0.00211
 188       14F-3       -0.00044   0.00128   0.00154   0.00000   0.00000
                          16        17        18        19        20
     Eigenvalues --     1.96285   1.95896   1.94213   1.93930   1.91634
   1 1   C  1S         -0.08185   0.00000   0.07779   0.00000   0.00000
   2        2S          0.21447   0.00000  -0.23153   0.00000   0.00000
   3        3S          0.05611   0.00000  -0.05942   0.00000   0.00000
   4        4S          0.09405   0.00000  -0.16830   0.00000   0.00000
   5        5S         -0.02059   0.00000  -0.02338   0.00000   0.00000
   6        6PX         0.00000   0.00000   0.00000   0.00000   0.18127
   7        6PY         0.00000   0.19227   0.00000   0.03342   0.00000
   8        6PZ        -0.13597   0.00000  -0.18090   0.00000   0.00000
   9        7PX         0.00000   0.00000   0.00000   0.00000   0.25403
  10        7PY         0.00000   0.23348   0.00000   0.04763   0.00000
  11        7PZ        -0.17080   0.00000  -0.22510   0.00000   0.00000
  12        8PX         0.00000   0.00000   0.00000   0.00000   0.13732
  13        8PY         0.00000   0.05641   0.00000   0.04986   0.00000
  14        8PZ        -0.01489   0.00000  -0.06818   0.00000   0.00000
  15        9PX         0.00000   0.00000   0.00000   0.00000   0.02109
  16        9PY         0.00000  -0.00007   0.00000  -0.00342   0.00000
  17        9PZ        -0.00562   0.00000  -0.00580   0.00000   0.00000
  18       10D 0       -0.00722   0.00000  -0.00994   0.00000   0.00000
  19       10D+1        0.00000   0.00000   0.00000   0.00000   0.01525
  20       10D-1        0.00000  -0.02663   0.00000   0.02040   0.00000
  21       10D+2       -0.01482   0.00000  -0.00781   0.00000   0.00000
  22       10D-2        0.00000   0.00000   0.00000   0.00000   0.00000
  23       11D 0       -0.01909   0.00000  -0.01864   0.00000   0.00000
  24       11D+1        0.00000   0.00000   0.00000   0.00000   0.04742
  25       11D-1        0.00000  -0.05801   0.00000   0.05071   0.00000
  26       11D+2       -0.03584   0.00000  -0.01971   0.00000   0.00000
  27       11D-2        0.00000   0.00000   0.00000   0.00000   0.00000
  28       12D 0        0.00247   0.00000  -0.00618   0.00000   0.00000
  29       12D+1        0.00000   0.00000   0.00000   0.00000   0.01861
  30       12D-1        0.00000  -0.00400   0.00000  -0.02304   0.00000
  31       12D+2        0.00438   0.00000  -0.00237   0.00000   0.00000
  32       12D-2        0.00000   0.00000   0.00000   0.00000   0.00000
  33       13F 0        0.00208   0.00000  -0.00396   0.00000   0.00000
  34       13F+1        0.00000   0.00000   0.00000   0.00000   0.00659
  35       13F-1        0.00000   0.00769   0.00000   0.00690   0.00000
  36       13F+2        0.00539   0.00000   0.00179   0.00000   0.00000
  37       13F-2        0.00000   0.00000   0.00000   0.00000   0.00000
  38       13F+3        0.00000   0.00000   0.00000   0.00000   0.00042
  39       13F-3        0.00000  -0.00255   0.00000   0.00203   0.00000
  40       14F 0        0.00998   0.00000   0.00146   0.00000   0.00000
  41       14F+1        0.00000   0.00000   0.00000   0.00000   0.00070
  42       14F-1        0.00000   0.01884   0.00000   0.00012   0.00000
  43       14F+2        0.01074   0.00000   0.00034   0.00000   0.00000
  44       14F-2        0.00000   0.00000   0.00000   0.00000   0.00000
  45       14F+3        0.00000   0.00000   0.00000   0.00000   0.00401
  46       14F-3        0.00000  -0.00212   0.00000   0.00046   0.00000
  47 2   S  1S         -0.03678   0.00000   0.02942   0.00000   0.00000
  48        2S          0.14027   0.00000  -0.11304   0.00000   0.00000
  49        3S         -0.30355   0.00000   0.25964   0.00000   0.00000
  50        4S         -0.04185   0.00000   0.03761   0.00000   0.00000
  51        5S         -0.18956   0.00000   0.32375   0.00000   0.00000
  52        6S          0.01592   0.00000   0.05502   0.00000   0.00000
  53        7PX         0.00000   0.00000   0.00000   0.00000  -0.18886
  54        7PY         0.00000  -0.01380   0.00000  -0.21589   0.00000
  55        7PZ        -0.00940   0.00000  -0.17310   0.00000   0.00000
  56        8PX         0.00000   0.00000   0.00000   0.00000   0.43314
  57        8PY         0.00000   0.02789   0.00000   0.52223   0.00000
  58        8PZ         0.00556   0.00000   0.35824   0.00000   0.00000
  59        9PX         0.00000   0.00000   0.00000   0.00000   0.17776
  60        9PY         0.00000   0.01416   0.00000   0.21983   0.00000
  61        9PZ         0.00470   0.00000   0.16364   0.00000   0.00000
  62       10PX         0.00000   0.00000   0.00000   0.00000   0.23992
  63       10PY         0.00000   0.00424   0.00000   0.36960   0.00000
  64       10PZ         0.00137   0.00000   0.09584   0.00000   0.00000
  65       11PX         0.00000   0.00000   0.00000   0.00000   0.00098
  66       11PY         0.00000   0.00060   0.00000   0.02720   0.00000
  67       11PZ        -0.00308   0.00000  -0.00450   0.00000   0.00000
  68       12D 0       -0.00033   0.00000  -0.02722   0.00000   0.00000
  69       12D+1        0.00000   0.00000   0.00000   0.00000  -0.03375
  70       12D-1        0.00000  -0.00512   0.00000  -0.01301   0.00000
  71       12D+2       -0.00148   0.00000  -0.00082   0.00000   0.00000
  72       12D-2        0.00000   0.00000   0.00000   0.00000   0.00000
  73       13D 0       -0.00616   0.00000  -0.04801   0.00000   0.00000
  74       13D+1        0.00000   0.00000   0.00000   0.00000  -0.03354
  75       13D-1        0.00000  -0.00850   0.00000  -0.01460   0.00000
  76       13D+2       -0.00097   0.00000  -0.00094   0.00000   0.00000
  77       13D-2        0.00000   0.00000   0.00000   0.00000   0.00000
  78       14D 0        0.00149   0.00000   0.00501   0.00000   0.00000
  79       14D+1        0.00000   0.00000   0.00000   0.00000  -0.00503
  80       14D-1        0.00000   0.00176   0.00000  -0.01756   0.00000
  81       14D+2       -0.00083   0.00000  -0.00199   0.00000   0.00000
  82       14D-2        0.00000   0.00000   0.00000   0.00000   0.00000
  83       15F 0        0.00384   0.00000   0.01558   0.00000   0.00000
  84       15F+1        0.00000   0.00000   0.00000   0.00000   0.01192
  85       15F-1        0.00000   0.00309   0.00000   0.00812   0.00000
  86       15F+2        0.00017   0.00000   0.00213   0.00000   0.00000
  87       15F-2        0.00000   0.00000   0.00000   0.00000   0.00000
  88       15F+3        0.00000   0.00000   0.00000   0.00000   0.00241
  89       15F-3        0.00000   0.00009   0.00000   0.00262   0.00000
  90       16F 0       -0.00186   0.00000  -0.00526   0.00000   0.00000
  91       16F+1        0.00000   0.00000   0.00000   0.00000  -0.00036
  92       16F-1        0.00000  -0.00055   0.00000   0.00237   0.00000
  93       16F+2        0.00072   0.00000   0.00082   0.00000   0.00000
  94       16F-2        0.00000   0.00000   0.00000   0.00000   0.00000
  95       16F+3        0.00000   0.00000   0.00000   0.00000   0.00187
  96       16F-3        0.00000   0.00139   0.00000   0.00236   0.00000
  97 3   F  1S          0.00644   0.00874  -0.01354  -0.01549   0.00000
  98        2S         -0.02509  -0.01365   0.03762   0.04226   0.00000
  99        3S         -0.01169  -0.00001   0.01089   0.01328   0.00000
 100        4S         -0.09873   0.07907   0.02046   0.03645   0.00000
 101        5S         -0.02117   0.03561  -0.00541   0.05414   0.00000
 102        6PX         0.00000   0.00000   0.00000   0.00000  -0.05270
 103        6PY         0.11638  -0.21784   0.02796   0.01925   0.00000
 104        6PZ         0.16348  -0.10650   0.06434   0.05187   0.00000
 105        7PX         0.00000   0.00000   0.00000   0.00000  -0.06374
 106        7PY         0.14067  -0.26435   0.03564   0.02554   0.00000
 107        7PZ         0.19781  -0.12974   0.07985   0.06427   0.00000
 108        8PX         0.00000   0.00000   0.00000   0.00000  -0.06005
 109        8PY         0.05830  -0.14237   0.01556   0.00831   0.00000
 110        8PZ         0.10691  -0.06590   0.05318   0.05182   0.00000
 111        9PX         0.00000   0.00000   0.00000   0.00000  -0.02561
 112        9PY        -0.00465  -0.00856   0.00005   0.01460   0.00000
 113        9PZ         0.00824   0.00430   0.01087   0.01768   0.00000
 114       10D 0        0.00000  -0.00037  -0.00068  -0.00038   0.00000
 115       10D+1        0.00000   0.00000   0.00000   0.00000   0.00109
 116       10D-1        0.00421  -0.00484   0.00051   0.00042   0.00000
 117       10D+2       -0.00282   0.00291  -0.00098  -0.00021   0.00000
 118       10D-2        0.00000   0.00000   0.00000   0.00000   0.00112
 119       11D 0       -0.00020  -0.00213  -0.00222  -0.00224   0.00000
 120       11D+1        0.00000   0.00000   0.00000   0.00000   0.00388
 121       11D-1        0.01407  -0.01663   0.00306   0.00202   0.00000
 122       11D+2       -0.00922   0.00955  -0.00354  -0.00201   0.00000
 123       11D-2        0.00000   0.00000   0.00000   0.00000   0.00308
 124       12D 0       -0.00174  -0.00495  -0.00350  -0.00050   0.00000
 125       12D+1        0.00000   0.00000   0.00000   0.00000   0.00222
 126       12D-1       -0.00012  -0.00380  -0.00276  -0.00178   0.00000
 127       12D+2       -0.00177   0.00106  -0.00007   0.00229   0.00000
 128       12D-2        0.00000   0.00000   0.00000   0.00000   0.00379
 129       13F 0       -0.00112   0.00119  -0.00036  -0.00027   0.00000
 130       13F+1        0.00000   0.00000   0.00000   0.00000   0.00024
 131       13F-1        0.00108  -0.00118  -0.00006   0.00010   0.00000
 132       13F+2       -0.00193   0.00225  -0.00050  -0.00028   0.00000
 133       13F-2        0.00000   0.00000   0.00000   0.00000   0.00054
 134       13F+3        0.00000   0.00000   0.00000   0.00000  -0.00037
 135       13F-3       -0.00106   0.00094  -0.00056  -0.00009   0.00000
 136       14F 0       -0.00155   0.00122  -0.00132  -0.00091   0.00000
 137       14F+1        0.00000   0.00000   0.00000   0.00000   0.00051
 138       14F-1        0.00094  -0.00315  -0.00002  -0.00066   0.00000
 139       14F+2       -0.00308   0.00341  -0.00131  -0.00031   0.00000
 140       14F-2        0.00000   0.00000   0.00000   0.00000   0.00058
 141       14F+3        0.00000   0.00000   0.00000   0.00000  -0.00020
 142       14F-3       -0.00154   0.00180  -0.00025  -0.00052   0.00000
 143 4   F  1S          0.00644  -0.00874  -0.01354   0.01549   0.00000
 144        2S         -0.02509   0.01365   0.03762  -0.04226   0.00000
 145        3S         -0.01169   0.00001   0.01089  -0.01328   0.00000
 146        4S         -0.09873  -0.07907   0.02046  -0.03645   0.00000
 147        5S         -0.02117  -0.03561  -0.00541  -0.05414   0.00000
 148        6PX         0.00000   0.00000   0.00000   0.00000  -0.05270
 149        6PY        -0.11638  -0.21784  -0.02796   0.01925   0.00000
 150        6PZ         0.16348   0.10650   0.06434  -0.05187   0.00000
 151        7PX         0.00000   0.00000   0.00000   0.00000  -0.06374
 152        7PY        -0.14067  -0.26435  -0.03564   0.02554   0.00000
 153        7PZ         0.19781   0.12974   0.07985  -0.06427   0.00000
 154        8PX         0.00000   0.00000   0.00000   0.00000  -0.06005
 155        8PY        -0.05830  -0.14237  -0.01556   0.00831   0.00000
 156        8PZ         0.10691   0.06590   0.05318  -0.05182   0.00000
 157        9PX         0.00000   0.00000   0.00000   0.00000  -0.02561
 158        9PY         0.00465  -0.00856  -0.00005   0.01460   0.00000
 159        9PZ         0.00824  -0.00430   0.01087  -0.01768   0.00000
 160       10D 0        0.00000   0.00037  -0.00068   0.00038   0.00000
 161       10D+1        0.00000   0.00000   0.00000   0.00000   0.00109
 162       10D-1       -0.00421  -0.00484  -0.00051   0.00042   0.00000
 163       10D+2       -0.00282  -0.00291  -0.00098   0.00021   0.00000
 164       10D-2        0.00000   0.00000   0.00000   0.00000  -0.00112
 165       11D 0       -0.00020   0.00213  -0.00222   0.00224   0.00000
 166       11D+1        0.00000   0.00000   0.00000   0.00000   0.00388
 167       11D-1       -0.01407  -0.01663  -0.00306   0.00202   0.00000
 168       11D+2       -0.00922  -0.00955  -0.00354   0.00201   0.00000
 169       11D-2        0.00000   0.00000   0.00000   0.00000  -0.00308
 170       12D 0       -0.00174   0.00495  -0.00350   0.00050   0.00000
 171       12D+1        0.00000   0.00000   0.00000   0.00000   0.00222
 172       12D-1        0.00012  -0.00380   0.00276  -0.00178   0.00000
 173       12D+2       -0.00177  -0.00106  -0.00007  -0.00229   0.00000
 174       12D-2        0.00000   0.00000   0.00000   0.00000  -0.00379
 175       13F 0       -0.00112  -0.00119  -0.00036   0.00027   0.00000
 176       13F+1        0.00000   0.00000   0.00000   0.00000   0.00024
 177       13F-1       -0.00108  -0.00118   0.00006   0.00010   0.00000
 178       13F+2       -0.00193  -0.00225  -0.00050   0.00028   0.00000
 179       13F-2        0.00000   0.00000   0.00000   0.00000  -0.00054
 180       13F+3        0.00000   0.00000   0.00000   0.00000  -0.00037
 181       13F-3        0.00106   0.00094   0.00056  -0.00009   0.00000
 182       14F 0       -0.00155  -0.00122  -0.00132   0.00091   0.00000
 183       14F+1        0.00000   0.00000   0.00000   0.00000   0.00051
 184       14F-1       -0.00094  -0.00315   0.00002  -0.00066   0.00000
 185       14F+2       -0.00308  -0.00341  -0.00131   0.00031   0.00000
 186       14F-2        0.00000   0.00000   0.00000   0.00000  -0.00058
 187       14F+3        0.00000   0.00000   0.00000   0.00000  -0.00020
 188       14F-3        0.00154   0.00180   0.00025  -0.00052   0.00000
                          21        22        23        24        25
     Eigenvalues --     0.07467   0.04163   0.03926   0.03223   0.01911
   1 1   C  1S          0.00000   0.17540   0.00000   0.03979   0.03232
   2        2S          0.00000  -0.59717   0.00000  -0.11312  -0.09419
   3        3S          0.00000  -0.21276   0.00000   0.00282  -0.04093
   4        4S          0.00000  -0.64094   0.00000   0.01863   0.08173
   5        5S          0.00000  -0.12338   0.00000   0.02441   0.09697
   6        6PX         0.31869   0.00000   0.00000   0.00000   0.00000
   7        6PY         0.00000   0.00000   0.30466   0.00000   0.00000
   8        6PZ         0.00000  -0.05629   0.00000   0.37029   0.05438
   9        7PX         0.44533   0.00000   0.00000   0.00000   0.00000
  10        7PY         0.00000   0.00000   0.58616   0.00000   0.00000
  11        7PZ         0.00000  -0.06393   0.00000   0.66464   0.06009
  12        8PX         0.15393   0.00000   0.00000   0.00000   0.00000
  13        8PY         0.00000   0.00000   0.10557   0.00000   0.00000
  14        8PZ         0.00000  -0.22170   0.00000   0.26636   0.30085
  15        9PX         0.00805   0.00000   0.00000   0.00000   0.00000
  16        9PY         0.00000   0.00000   0.01571   0.00000   0.00000
  17        9PZ         0.00000  -0.00808   0.00000  -0.00510   0.03341
  18       10D 0        0.00000  -0.00128   0.00000   0.00873   0.05631
  19       10D+1        0.01613   0.00000   0.00000   0.00000   0.00000
  20       10D-1        0.00000   0.00000   0.02955   0.00000   0.00000
  21       10D+2        0.00000  -0.00948   0.00000   0.00325   0.04667
  22       10D-2        0.00000   0.00000   0.00000   0.00000   0.00000
  23       11D 0        0.00000  -0.04562   0.00000   0.07217   0.15447
  24       11D+1        0.07090   0.00000   0.00000   0.00000   0.00000
  25       11D-1        0.00000   0.00000  -0.06312   0.00000   0.00000
  26       11D+2        0.00000   0.02666   0.00000   0.06781   0.14275
  27       11D-2        0.00000   0.00000   0.00000   0.00000   0.00000
  28       12D 0        0.00000  -0.05420   0.00000   0.02282   0.01561
  29       12D+1        0.02745   0.00000   0.00000   0.00000   0.00000
  30       12D-1        0.00000   0.00000  -0.02971   0.00000   0.00000
  31       12D+2        0.00000   0.00649   0.00000   0.02087   0.02324
  32       12D-2        0.00000   0.00000   0.00000   0.00000   0.00000
  33       13F 0        0.00000  -0.00794   0.00000   0.01327  -0.00180
  34       13F+1        0.01166   0.00000   0.00000   0.00000   0.00000
  35       13F-1        0.00000   0.00000   0.03299   0.00000   0.00000
  36       13F+2        0.00000  -0.02153   0.00000  -0.02178   0.01209
  37       13F-2        0.00000   0.00000   0.00000   0.00000   0.00000
  38       13F+3       -0.00126   0.00000   0.00000   0.00000   0.00000
  39       13F-3        0.00000   0.00000  -0.01173   0.00000   0.00000
  40       14F 0        0.00000  -0.02550   0.00000  -0.00956  -0.02452
  41       14F+1        0.02786   0.00000   0.00000   0.00000   0.00000
  42       14F-1        0.00000   0.00000   0.11628   0.00000   0.00000
  43       14F+2        0.00000  -0.01449   0.00000  -0.04150  -0.02612
  44       14F-2        0.00000   0.00000   0.00000   0.00000   0.00000
  45       14F+3        0.00944   0.00000   0.00000   0.00000   0.00000
  46       14F-3        0.00000   0.00000   0.02844   0.00000   0.00000
  47 2   S  1S          0.00000   0.02084   0.00000  -0.01226   0.01030
  48        2S          0.00000  -0.05677   0.00000   0.02839  -0.05158
  49        3S          0.00000   0.21760   0.00000  -0.13489   0.08909
  50        4S          0.00000   0.00754   0.00000   0.02645   0.08092
  51        5S          0.00000   0.52399   0.00000  -0.49980  -0.37954
  52        6S          0.00000   0.15883   0.00000  -0.12123  -0.17687
  53        7PX         0.18293   0.00000   0.00000   0.00000   0.00000
  54        7PY         0.00000   0.00000   0.10440   0.00000   0.00000
  55        7PZ         0.00000   0.18544   0.00000  -0.09093   0.02938
  56        8PX        -0.48488   0.00000   0.00000   0.00000   0.00000
  57        8PY         0.00000   0.00000  -0.29164   0.00000   0.00000
  58        8PZ         0.00000  -0.61500   0.00000   0.45772   0.02852
  59        9PX        -0.20071   0.00000   0.00000   0.00000   0.00000
  60        9PY         0.00000   0.00000  -0.14168   0.00000   0.00000
  61        9PZ         0.00000  -0.20076   0.00000   0.08495  -0.04330
  62       10PX        -0.12400   0.00000   0.00000   0.00000   0.00000
  63       10PY         0.00000   0.00000   0.04110   0.00000   0.00000
  64       10PZ         0.00000  -0.32510   0.00000   0.33739   0.19634
  65       11PX        -0.00344   0.00000   0.00000   0.00000   0.00000
  66       11PY         0.00000   0.00000  -0.00176   0.00000   0.00000
  67       11PZ         0.00000  -0.02235   0.00000   0.02237   0.02220
  68       12D 0        0.00000  -0.07188   0.00000   0.04872   0.11436
  69       12D+1       -0.05948   0.00000   0.00000   0.00000   0.00000
  70       12D-1        0.00000   0.00000  -0.18643   0.00000   0.00000
  71       12D+2        0.00000  -0.04478   0.00000   0.02315   0.40987
  72       12D-2        0.00000   0.00000   0.00000   0.00000   0.00000
  73       13D 0        0.00000  -0.09855   0.00000   0.13429   0.10976
  74       13D+1       -0.06894   0.00000   0.00000   0.00000   0.00000
  75       13D-1        0.00000   0.00000  -0.15545   0.00000   0.00000
  76       13D+2        0.00000  -0.03138   0.00000   0.01306   0.29120
  77       13D-2        0.00000   0.00000   0.00000   0.00000   0.00000
  78       14D 0        0.00000   0.04044   0.00000  -0.06717  -0.03300
  79       14D+1        0.01168   0.00000   0.00000   0.00000   0.00000
  80       14D-1        0.00000   0.00000  -0.03400   0.00000   0.00000
  81       14D+2        0.00000  -0.00863   0.00000   0.00314   0.02700
  82       14D-2        0.00000   0.00000   0.00000   0.00000   0.00000
  83       15F 0        0.00000   0.01815   0.00000  -0.02185  -0.02355
  84       15F+1        0.01906   0.00000   0.00000   0.00000   0.00000
  85       15F-1        0.00000   0.00000   0.03128   0.00000   0.00000
  86       15F+2        0.00000   0.00260   0.00000  -0.00261  -0.03382
  87       15F-2        0.00000   0.00000   0.00000   0.00000   0.00000
  88       15F+3       -0.00380   0.00000   0.00000   0.00000   0.00000
  89       15F-3        0.00000   0.00000  -0.00168   0.00000   0.00000
  90       16F 0        0.00000   0.00565   0.00000   0.02678  -0.01149
  91       16F+1       -0.00544   0.00000   0.00000   0.00000   0.00000
  92       16F-1        0.00000   0.00000   0.00818   0.00000   0.00000
  93       16F+2        0.00000   0.00472   0.00000  -0.00625  -0.02418
  94       16F-2        0.00000   0.00000   0.00000   0.00000   0.00000
[...]
  92       16F-1        0.66792  -0.19020   0.00000   0.00000  -0.00899
  93       16F+2        0.00000   0.00000   0.04797   0.00000   0.00000
  94       16F-2        0.00000   0.00000   0.00000   0.00000   0.00000
  95       16F+3        0.00000   0.00000   0.00000  -0.04403   0.00000
  96       16F-3       -0.01442  -0.07194   0.00000   0.00000   0.00314
  97 3   F  1S         -0.04187   0.00479  -0.04743   0.00000  -0.08991
  98        2S         -0.16951  -0.02057  -0.20559   0.00000  -0.42201
  99        3S          0.05546  -0.04816   0.05021   0.00000   0.05269
 100        4S          1.71322   0.54637   0.85591   0.00000   3.28035
 101        5S          6.60720   0.45889   7.09233   0.00000  17.23548
 102        6PX         0.00000   0.00000   0.00000   0.02000   0.00000
 103        6PY         0.00249   0.01159   0.00509   0.00000   0.01267
 104        6PZ        -0.02220   0.00626   0.00255   0.00000   0.00544
 105        7PX         0.00000   0.00000   0.00000  -0.07577   0.00000
 106        7PY         0.03842  -0.06947  -0.04454   0.00000  -0.05153
 107        7PZ         0.15586  -0.04858  -0.02293   0.00000  -0.01572
 108        8PX         0.00000   0.00000   0.00000   0.08392   0.00000
 109        8PY         0.68946   0.89391   0.33076   0.00000   2.57341
 110        8PZ        -1.74097   1.17802   0.04099   0.00000   0.81956
 111        9PX         0.00000   0.00000   0.00000  -1.16806   0.00000
 112        9PY        -0.03538  -1.73927   0.72926   0.00000   4.92220
 113        9PZ        -1.84006   0.19913   4.75872   0.00000   1.68765
 114       10D 0       -0.01869  -0.00675   0.00108   0.00000  -0.00274
 115       10D+1        0.00000   0.00000   0.00000  -0.01428   0.00000
 116       10D-1       -0.00822  -0.00703   0.02656   0.00000   0.00007
 117       10D+2        0.04913   0.01882   0.00545   0.00000  -0.00330
 118       10D-2        0.00000   0.00000   0.00000  -0.00438   0.00000
 119       11D 0        0.05257   0.01675   0.00100   0.00000   0.00757
 120       11D+1        0.00000   0.00000   0.00000   0.05352   0.00000
 121       11D-1        0.03236   0.04651  -0.09303   0.00000   0.03386
 122       11D+2       -0.18143  -0.06547  -0.01259   0.00000  -0.01921
 123       11D-2        0.00000   0.00000   0.00000   0.01683   0.00000
 124       12D 0       -0.81203   0.16066  -0.11593   0.00000  -0.44712
 125       12D+1        0.00000   0.00000   0.00000  -0.17851   0.00000
 126       12D-1       -0.33399   0.35988   0.11696   0.00000   0.43800
 127       12D+2        0.35414  -0.10983  -0.01418   0.00000  -0.51272
 128       12D-2        0.00000   0.00000   0.00000  -0.09393   0.00000
 129       13F 0        0.00791   0.01717   0.00428   0.00000   0.01028
 130       13F+1        0.00000   0.00000   0.00000  -0.00900   0.00000
 131       13F-1       -0.00029  -0.01681   0.02717   0.00000   0.00980
 132       13F+2        0.02924   0.01661  -0.02242   0.00000   0.00316
 133       13F-2        0.00000   0.00000   0.00000   0.00895   0.00000
 134       13F+3        0.00000   0.00000   0.00000   0.00007   0.00000
 135       13F-3       -0.01945   0.02010   0.00890   0.00000  -0.00466
 136       14F 0       -0.04869  -0.04877  -0.00677   0.00000  -0.06630
 137       14F+1        0.00000   0.00000   0.00000   0.01388   0.00000
 138       14F-1       -0.04910   0.06044  -0.05502   0.00000  -0.02685
 139       14F+2       -0.04626  -0.07141   0.03988   0.00000  -0.05490
 140       14F-2        0.00000   0.00000   0.00000  -0.01031   0.00000
 141       14F+3        0.00000   0.00000   0.00000  -0.00084   0.00000
 142       14F-3        0.05423  -0.05949  -0.02261   0.00000  -0.02346
 143 4   F  1S          0.04187  -0.00479  -0.04743   0.00000   0.08991
 144        2S          0.16951   0.02057  -0.20559   0.00000   0.42201
 145        3S         -0.05546   0.04816   0.05021   0.00000  -0.05269
 146        4S         -1.71322  -0.54637   0.85591   0.00000  -3.28035
 147        5S         -6.60720  -0.45889   7.09233   0.00000 -17.23548
 148        6PX         0.00000   0.00000   0.00000   0.02000   0.00000
 149        6PY         0.00249   0.01159  -0.00509   0.00000   0.01267
 150        6PZ         0.02220  -0.00626   0.00255   0.00000  -0.00544
 151        7PX         0.00000   0.00000   0.00000  -0.07577   0.00000
 152        7PY         0.03842  -0.06947   0.04454   0.00000  -0.05153
 153        7PZ        -0.15586   0.04858  -0.02293   0.00000   0.01572
 154        8PX         0.00000   0.00000   0.00000   0.08392   0.00000
 155        8PY         0.68946   0.89391  -0.33076   0.00000   2.57341
 156        8PZ         1.74097  -1.17802   0.04099   0.00000  -0.81956
 157        9PX         0.00000   0.00000   0.00000  -1.16806   0.00000
 158        9PY        -0.03538  -1.73927  -0.72926   0.00000   4.92220
 159        9PZ         1.84006  -0.19913   4.75872   0.00000  -1.68765
 160       10D 0        0.01869   0.00675   0.00108   0.00000   0.00274
 161       10D+1        0.00000   0.00000   0.00000  -0.01428   0.00000
 162       10D-1       -0.00822  -0.00703  -0.02656   0.00000   0.00007
 163       10D+2       -0.04913  -0.01882   0.00545   0.00000   0.00330
 164       10D-2        0.00000   0.00000   0.00000   0.00438   0.00000
 165       11D 0       -0.05257  -0.01675   0.00100   0.00000  -0.00757
 166       11D+1        0.00000   0.00000   0.00000   0.05352   0.00000
 167       11D-1        0.03236   0.04651   0.09303   0.00000   0.03386
 168       11D+2        0.18143   0.06547  -0.01259   0.00000   0.01921
 169       11D-2        0.00000   0.00000   0.00000  -0.01683   0.00000
 170       12D 0        0.81203  -0.16066  -0.11593   0.00000   0.44712
 171       12D+1        0.00000   0.00000   0.00000  -0.17851   0.00000
 172       12D-1       -0.33399   0.35988  -0.11696   0.00000   0.43800
 173       12D+2       -0.35414   0.10983  -0.01418   0.00000   0.51272
 174       12D-2        0.00000   0.00000   0.00000   0.09393   0.00000
 175       13F 0       -0.00791  -0.01717   0.00428   0.00000  -0.01028
 176       13F+1        0.00000   0.00000   0.00000  -0.00900   0.00000
 177       13F-1       -0.00029  -0.01681  -0.02717   0.00000   0.00980
 178       13F+2       -0.02924  -0.01661  -0.02242   0.00000  -0.00316
 179       13F-2        0.00000   0.00000   0.00000  -0.00895   0.00000
 180       13F+3        0.00000   0.00000   0.00000   0.00007   0.00000
 181       13F-3       -0.01945   0.02010  -0.00890   0.00000  -0.00466
 182       14F 0        0.04869   0.04877  -0.00677   0.00000   0.06630
 183       14F+1        0.00000   0.00000   0.00000   0.01388   0.00000
 184       14F-1       -0.04910   0.06044   0.05502   0.00000  -0.02685
 185       14F+2        0.04626   0.07141   0.03988   0.00000   0.05490
 186       14F-2        0.00000   0.00000   0.00000   0.01031   0.00000
 187       14F+3        0.00000   0.00000   0.00000  -0.00084   0.00000
 188       14F-3        0.05423  -0.05949   0.02261   0.00000  -0.02346
                         186       187       188
     Eigenvalues --     0.00000   0.00000   0.00000
   1 1   C  1S         -0.07138  -0.07061   0.00562
   2        2S         -0.34498  -0.38242  -0.01458
   3        3S          0.22751   0.17015  -0.01468
   4        4S        -12.05701 -15.60267 -13.27738
   5        5S         -4.01300  -9.76216 -21.43818
   6        6PX         0.00000   0.00000   0.00000
   7        6PY         0.00000   0.00000   0.00000
   8        6PZ        -0.01371   0.00069  -0.00995
   9        7PX         0.00000   0.00000   0.00000
  10        7PY         0.00000   0.00000   0.00000
  11        7PZ         0.72254   0.46204   0.27879
  12        8PX         0.00000   0.00000   0.00000
  13        8PY         0.00000   0.00000   0.00000
  14        8PZ         2.12017  -2.38650  -7.25616
  15        9PX         0.00000   0.00000   0.00000
  16        9PY         0.00000   0.00000   0.00000
  17        9PZ         3.98631  -3.12747  -4.19884
  18       10D 0        0.01695   0.01479   0.01134
  19       10D+1        0.00000   0.00000   0.00000
  20       10D-1        0.00000   0.00000   0.00000
  21       10D+2       -0.03294   0.01217   0.03556
  22       10D-2        0.00000   0.00000   0.00000
  23       11D 0        0.09450  -0.61693  -0.22999
  24       11D+1        0.00000   0.00000   0.00000
  25       11D-1        0.00000   0.00000   0.00000
  26       11D+2        1.12161   0.64641   0.10156
  27       11D-2        0.00000   0.00000   0.00000
  28       12D 0       -0.82264  -1.57770  -1.51941
  29       12D+1        0.00000   0.00000   0.00000
  30       12D-1        0.00000   0.00000   0.00000
  31       12D+2        0.67311   0.91374   0.31607
  32       12D-2        0.00000   0.00000   0.00000
  33       13F 0       -0.05375  -0.03059  -0.00857
  34       13F+1        0.00000   0.00000   0.00000
  35       13F-1        0.00000   0.00000   0.00000
  36       13F+2       -0.06330  -0.04718  -0.01353
  37       13F-2        0.00000   0.00000   0.00000
  38       13F+3        0.00000   0.00000   0.00000
  39       13F-3        0.00000   0.00000   0.00000
  40       14F 0       -0.65135  -0.35552  -0.12330
  41       14F+1        0.00000   0.00000   0.00000
  42       14F-1        0.00000   0.00000   0.00000
  43       14F+2       -0.39804  -0.10898   0.02902
  44       14F-2        0.00000   0.00000   0.00000
  45       14F+3        0.00000   0.00000   0.00000
  46       14F-3        0.00000   0.00000   0.00000
  47 2   S  1S          0.00840  -0.00198  -0.00681
  48        2S          0.12888  -0.01913  -0.07881
  49        3S          0.36821  -0.08355  -0.28021
  50        4S         -0.03363  -0.10862  -0.09700
  51        5S          1.92815   7.57444   6.97885
  52        6S         -0.02816   5.90595  23.14627
  53        7PX         0.00000   0.00000   0.00000
  54        7PY         0.00000   0.00000   0.00000
  55        7PZ        -0.02317  -0.04881   0.00074
  56        8PX         0.00000   0.00000   0.00000
  57        8PY         0.00000   0.00000   0.00000
  58        8PZ        -0.54945  -1.18713  -0.10826
  59        9PX         0.00000   0.00000   0.00000
  60        9PY         0.00000   0.00000   0.00000
  61        9PZ         0.03270   0.12847  -0.02124
  62       10PX         0.00000   0.00000   0.00000
  63       10PY         0.00000   0.00000   0.00000
  64       10PZ        -1.20476  -4.22508  -9.36155
  65       11PX         0.00000   0.00000   0.00000
  66       11PY         0.00000   0.00000   0.00000
  67       11PZ        -1.58901   1.49084  -4.96502
  68       12D 0        0.03611   1.04752   0.43317
  69       12D+1        0.00000   0.00000   0.00000
  70       12D-1        0.00000   0.00000   0.00000
  71       12D+2        0.09851  -0.04821  -0.01796
  72       12D-2        0.00000   0.00000   0.00000
  73       13D 0        0.05631  -0.08396  -0.02038
  74       13D+1        0.00000   0.00000   0.00000
  75       13D-1        0.00000   0.00000   0.00000
  76       13D+2       -0.01951   0.00607   0.00164
  77       13D-2        0.00000   0.00000   0.00000
  78       14D 0        0.72903  -0.34297   2.69156
  79       14D+1        0.00000   0.00000   0.00000
  80       14D-1        0.00000   0.00000   0.00000
  81       14D+2       -0.28023   0.01470  -0.05351
  82       14D-2        0.00000   0.00000   0.00000
  83       15F 0       -0.00839  -0.06004   0.03572
  84       15F+1        0.00000   0.00000   0.00000
  85       15F-1        0.00000   0.00000   0.00000
  86       15F+2       -0.01988   0.01455   0.00155
  87       15F-2        0.00000   0.00000   0.00000
  88       15F+3        0.00000   0.00000   0.00000
  89       15F-3        0.00000   0.00000   0.00000
  90       16F 0       -0.05589  -0.04589  -0.31448
  91       16F+1        0.00000   0.00000   0.00000
  92       16F-1        0.00000   0.00000   0.00000
  93       16F+2        0.04717  -0.00542   0.01947
  94       16F-2        0.00000   0.00000   0.00000
  95       16F+3        0.00000   0.00000   0.00000
  96       16F-3        0.00000   0.00000   0.00000
  97 3   F  1S         -0.02182  -0.03535   0.00316
  98        2S         -0.12780  -0.18428   0.00373
  99        3S         -0.01911   0.00024  -0.01570
 100        4S          2.38085   1.62583   0.12427
 101        5S          5.48242   6.13011   1.90856
 102        6PX         0.00000   0.00000   0.00000
 103        6PY         0.00072   0.01104   0.00242
 104        6PZ         0.01026   0.00358   0.00176
 105        7PX         0.00000   0.00000   0.00000
 106        7PY         0.01002  -0.06112  -0.01829
 107        7PZ        -0.02864  -0.03144  -0.02376
 108        8PX         0.00000   0.00000   0.00000
 109        8PY         1.30551   1.47168   0.40425
 110        8PZ         1.57193   1.13274   0.48501
 111        9PX         0.00000   0.00000   0.00000
 112        9PY         1.01103   0.74791  -0.02780
 113        9PZ        -0.96493   1.34234  -0.20745
 114       10D 0       -0.02009   0.00840  -0.00092
 115       10D+1        0.00000   0.00000   0.00000
 116       10D-1       -0.01218  -0.00450   0.00018
 117       10D+2        0.00144  -0.00230   0.00819
 118       10D-2        0.00000   0.00000   0.00000
 119       11D 0        0.07643  -0.03696  -0.00313
 120       11D+1        0.00000   0.00000   0.00000
 121       11D-1        0.08203   0.03138   0.00329
 122       11D+2       -0.01777  -0.00865  -0.02844
 123       11D-2        0.00000   0.00000   0.00000
 124       12D 0        0.01250   0.14673   0.03680
 125       12D+1        0.00000   0.00000   0.00000
 126       12D-1        0.38909   0.41484   0.23198
 127       12D+2       -0.05323  -0.26269  -0.06734
 128       12D-2        0.00000   0.00000   0.00000
 129       13F 0        0.00427   0.00744   0.00747
 130       13F+1        0.00000   0.00000   0.00000
 131       13F-1       -0.01585  -0.00339  -0.00668
 132       13F+2        0.00731   0.00446   0.01448
 133       13F-2        0.00000   0.00000   0.00000
 134       13F+3        0.00000   0.00000   0.00000
 135       13F-3       -0.02150  -0.00238   0.00750
 136       14F 0       -0.02856  -0.02977  -0.02967
 137       14F+1        0.00000   0.00000   0.00000
 138       14F-1        0.07329   0.02189   0.01639
 139       14F+2       -0.04529  -0.04691  -0.04758
 140       14F-2        0.00000   0.00000   0.00000
 141       14F+3        0.00000   0.00000   0.00000
 142       14F-3        0.04698  -0.01445  -0.02351
 143 4   F  1S         -0.02182  -0.03535   0.00316
 144        2S         -0.12780  -0.18428   0.00373
 145        3S         -0.01911   0.00024  -0.01570
 146        4S          2.38085   1.62583   0.12427
 147        5S          5.48242   6.13011   1.90856
 148        6PX         0.00000   0.00000   0.00000
 149        6PY        -0.00072  -0.01104  -0.00242
 150        6PZ         0.01026   0.00358   0.00176
 151        7PX         0.00000   0.00000   0.00000
 152        7PY        -0.01002   0.06112   0.01829
 153        7PZ        -0.02864  -0.03144  -0.02376
 154        8PX         0.00000   0.00000   0.00000
 155        8PY        -1.30551  -1.47168  -0.40425
 156        8PZ         1.57193   1.13274   0.48501
 157        9PX         0.00000   0.00000   0.00000
 158        9PY        -1.01103  -0.74791   0.02780
 159        9PZ        -0.96493   1.34234  -0.20745
 160       10D 0       -0.02009   0.00840  -0.00092
 161       10D+1        0.00000   0.00000   0.00000
 162       10D-1        0.01218   0.00450  -0.00018
 163       10D+2        0.00144  -0.00230   0.00819
 164       10D-2        0.00000   0.00000   0.00000
 165       11D 0        0.07643  -0.03696  -0.00313
 166       11D+1        0.00000   0.00000   0.00000
 167       11D-1       -0.08203  -0.03138  -0.00329
 168       11D+2       -0.01777  -0.00865  -0.02844
 169       11D-2        0.00000   0.00000   0.00000
 170       12D 0        0.01250   0.14673   0.03680
 171       12D+1        0.00000   0.00000   0.00000
 172       12D-1       -0.38909  -0.41484  -0.23198
 173       12D+2       -0.05323  -0.26269  -0.06734
 174       12D-2        0.00000   0.00000   0.00000
 175       13F 0        0.00427   0.00744   0.00747
 176       13F+1        0.00000   0.00000   0.00000
 177       13F-1        0.01585   0.00339   0.00668
 178       13F+2        0.00731   0.00446   0.01448
 179       13F-2        0.00000   0.00000   0.00000
 180       13F+3        0.00000   0.00000   0.00000
 181       13F-3        0.02150   0.00238  -0.00750
 182       14F 0       -0.02856  -0.02977  -0.02967
 183       14F+1        0.00000   0.00000   0.00000
 184       14F-1       -0.07329  -0.02189  -0.01639
 185       14F+2       -0.04529  -0.04691  -0.04758
 186       14F-2        0.00000   0.00000   0.00000
 187       14F+3        0.00000   0.00000   0.00000
 188       14F-3       -0.04698   0.01445   0.02351
          Condensed to atoms (all electrons):
              1          2          3          4
     1  C    5.189627   0.245573   0.110881   0.110881
     2  S    0.245573  15.945077  -0.064614  -0.064614
     3  F    0.110881  -0.064614   9.175301  -0.080761
     4  F    0.110881  -0.064614  -0.080761   9.175301
 Mulliken atomic charges:
              1
     1  C    0.343037
     2  S   -0.061423
     3  F   -0.140807
     4  F   -0.140807
 Sum of Mulliken atomic charges =   0.00000
 Mulliken charges with hydrogens summed into heavy atoms:
              1
     1  C    0.343037
     2  S   -0.061423
     3  F   -0.140807
     4  F   -0.140807
 Sum of Mulliken charges with hydrogens summed into heavy atoms =   0.00000
 Electronic spatial extent (au):  <R**2>=            316.4714
 Charge=              0.0000 electrons
 Dipole moment (field-independent basis, Debye):
    X=              0.0000    Y=              0.0000    Z=             -0.2579  Tot=              0.2579
 Quadrupole moment (field-independent basis, Debye-Ang):
   XX=            -27.3214   YY=            -30.1690   ZZ=            -27.9291
   XY=              0.0000   XZ=              0.0000   YZ=              0.0000
 Traceless Quadrupole moment (field-independent basis, Debye-Ang):
   XX=              1.1517   YY=             -1.6959   ZZ=              0.5441
   XY=              0.0000   XZ=              0.0000   YZ=              0.0000
 Octapole moment (field-independent basis, Debye-Ang**2):
  XXX=              0.0000  YYY=              0.0000  ZZZ=              8.3780  XYY=              0.0000
  XXY=              0.0000  XXZ=              0.5842  XZZ=              0.0000  YZZ=              0.0000
  YYZ=              0.6058  XYZ=              0.0000
 Hexadecapole moment (field-independent basis, Debye-Ang**3):
 XXXX=            -28.2578 YYYY=            -96.2029 ZZZZ=           -216.4463 XXXY=              0.0000
 XXXZ=              0.0000 YYYX=              0.0000 YYYZ=              0.0000 ZZZX=              0.0000
 ZZZY=              0.0000 XXYY=            -20.7464 XXZZ=            -40.8323 YYZZ=            -55.9367
 XXYZ=              0.0000 YYXZ=              0.0000 ZZXY=              0.0000
 N-N= 1.539896946390D+02 E-N=-1.819259593536D+03  KE= 6.349646604482D+02
 1\1\GINC-TRAPISTA\SP\RQCISD-FC\Aug-CC-pVTZ\C1F2S1\BRUNS\27-Nov-2021\0\
 \# qcisd/aug-cc-pvtz nosymm density=current output=wfn\\f2cs-wavefunct
 ion\\0,1\C,0,0.,0.,-0.520349\S,0,0.,0.,1.088525\F,0,0.,-1.055221,-1.29
 5538\F,0,0.,1.055221,-1.295538\\Version=EM64L-G09RevB.01\HF=-634.35651
 62\MP2=-635.1962959\MP3=-635.1996021\MP4D=-635.2165878\MP4DQ=-635.1971
 666\MP4SDQ=-635.2081269\QCISD=-635.207246\RMSD=8.503e-09\Dipole=0.,0.,
 -0.1014496\Quadrupole=0.8562916,-1.2608299,0.4045383,0.,0.,0.\PG=C02V 
 [C2(C1S1),SGV(F2)]\\@

 Writing a WFN file to GAUSSIAN.wfn.


 CONFIDENCE: THAT QUIET ASSURED FEELING YOU HAVE
 JUST BEFORE YOU FALL FLAT ON YOUR FACE.
 Job cpu time:  0 days  2 hours  5 minutes 46.4 seconds.
 File lengths (MBytes):  RWF=  17813 Int=      0 D2E=      0 Chk=      3 Scr=      1
 Normal termination of Gaussian 09 at Sat Nov 27 05:40:56 2021.
