 Entering Gaussian System, Link 0=/home/bruns/programas/chemistry/gaussian/g09/g09
 Input=GAUSSIAN.com
 Output=GAUSSIAN.log
 Initial command:
 /home/bruns/programas/chemistry/gaussian/g09/l1.exe /home/bruns/programas/chemistry/gaussian/work/Gau-34733.inp -scrdir=/home/bruns/programas/chemistry/gaussian/work/
 Entering Link 1 = /home/bruns/programas/chemistry/gaussian/g09/l1.exe PID=     34735.
  
 Copyright (c) 1988,1990,1992,1993,1995,1998,2003,2009,2010,
            Gaussian, Inc.  All Rights Reserved.
  
 This is part of the Gaussian(R) 09 program.  It is based on
 the Gaussian(R) 03 system (copyright 2003, Gaussian, Inc.),
 the Gaussian(R) 98 system (copyright 1998, Gaussian, Inc.),
 the Gaussian(R) 94 system (copyright 1995, Gaussian, Inc.),
 the Gaussian 92(TM) system (copyright 1992, Gaussian, Inc.),
 the Gaussian 90(TM) system (copyright 1990, Gaussian, Inc.),
 the Gaussian 88(TM) system (copyright 1988, Gaussian, Inc.),
 the Gaussian 86(TM) system (copyright 1986, Carnegie Mellon
 University), and the Gaussian 82(TM) system (copyright 1983,
 Carnegie Mellon University). Gaussian is a federally registered
 trademark of Gaussian, Inc.
  
 This software contains proprietary and confidential information,
 including trade secrets, belonging to Gaussian, Inc.
  
 This software is provided under written license and may be
 used, copied, transmitted, or stored only in accord with that
 written license.
  
 The following legend is applicable only to US Government
 contracts under FAR:
  
                    RESTRICTED RIGHTS LEGEND
  
 Use, reproduction and disclosure by the US Government is
 subject to restrictions as set forth in subparagraphs (a)
 and (c) of the Commercial Computer Software - Restricted
 Rights clause in FAR 52.227-19.
  
 Gaussian, Inc.
 340 Quinnipiac St., Bldg. 40, Wallingford CT 06492
  
  
 ---------------------------------------------------------------
 Warning -- This program may not be used in any manner that
 competes with the business of Gaussian, Inc. or will provide
 assistance to any competitor of Gaussian, Inc.  The licensee
 of this program is prohibited from giving any competitor of
 Gaussian, Inc. access to this program.  By using this program,
 the user acknowledges that Gaussian, Inc. is engaged in the
 business of creating and licensing software in the field of
 computational chemistry and represents and warrants to the
 licensee that it is not a competitor of Gaussian, Inc. and that
 it will not use this program in any manner prohibited above.
 ---------------------------------------------------------------
  

 Cite this work as:
 Gaussian 09, Revision B.01,
 M. J. Frisch, G. W. Trucks, H. B. Schlegel, G. E. Scuseria, 
 M. A. Robb, J. R. Cheeseman, G. Scalmani, V. Barone, B. Mennucci, 
 G. A. Petersson, H. Nakatsuji, M. Caricato, X. Li, H. P. Hratchian, 
 A. F. Izmaylov, J. Bloino, G. Zheng, J. L. Sonnenberg, M. Hada, 
 M. Ehara, K. Toyota, R. Fukuda, J. Hasegawa, M. Ishida, T. Nakajima, 
 Y. Honda, O. Kitao, H. Nakai, T. Vreven, J. A. Montgomery, Jr., 
 J. E. Peralta, F. Ogliaro, M. Bearpark, J. J. Heyd, E. Brothers, 
 K. N. Kudin, V. N. Staroverov, T. Keith, R. Kobayashi, J. Normand, 
 K. Raghavachari, A. Rendell, J. C. Burant, S. S. Iyengar, J. Tomasi, 
 M. Cossi, N. Rega, J. M. Millam, M. Klene, J. E. Knox, J. B. Cross, 
 V. Bakken, C. Adamo, J. Jaramillo, R. Gomperts, R. E. Stratmann, 
 O. Yazyev, A. J. Austin, R. Cammi, C. Pomelli, J. W. Ochterski, 
 R. L. Martin, K. Morokuma, V. G. Zakrzewski, G. A. Voth, 
 P. Salvador, J. J. Dannenberg, S. Dapprich, A. D. Daniels, 
 O. Farkas, J. B. Foresman, J. V. Ortiz, J. Cioslowski, 
 and D. J. Fox, Gaussian, Inc., Wallingford CT, 2010.
 
 ******************************************
 Gaussian 09:  EM64L-G09RevB.01 12-Aug-2010
                27-Nov-2021 
 ******************************************
 %nproc=8
 Will use up to    8 processors via shared memory.
 %mem=8GB
 -----------------------------------------------------
 # qcisd/aug-cc-pvtz nosymm density=current output=wfn
 -----------------------------------------------------
 1/30=1,38=1/1;
 2/12=2,15=1,17=6,18=5,40=1/2;
 3/5=16,6=1,7=10,11=9,16=1,25=1,30=1,71=1/1,2,3;
 4//1;
 5/5=2,38=5/2;
 8/6=4,9=120000,10=1/1,4;
 9/5=8,15=1/13;
 11/28=-7,31=1,32=3,42=3/11;
 10/5=6,13=10,31=1/2;
 6/7=2,8=2,9=2,10=2,22=-1,31=1/1;
 99/5=1,6=1100,9=1/99;
 -----------------
 f2cs-wavefunction
 -----------------
 Symbolic Z-matrix:
 Charge =  0 Multiplicity = 1
 C                     0.        0.       -0.52035 
 S                     0.        0.        1.06852 
 F                     0.       -1.05522  -1.29554 
 F                     0.        1.05522  -1.29554 
 
                          Input orientation:                          
 ---------------------------------------------------------------------
 Center     Atomic      Atomic             Coordinates (Angstroms)
 Number     Number       Type             X           Y           Z
 ---------------------------------------------------------------------
      1          6           0        0.000000    0.000000   -0.520349
      2         16           0        0.000000    0.000000    1.068525
      3          9           0        0.000000   -1.055221   -1.295538
      4          9           0        0.000000    1.055221   -1.295538
 ---------------------------------------------------------------------
                    Distance matrix (angstroms):
                    1          2          3          4
     1  C    0.000000
     2  S    1.588874   0.000000
     3  F    1.309355   2.588877   0.000000
     4  F    1.309355   2.588877   2.110442   0.000000
 Symmetry turned off by external request.
 Stoichiometry    CF2S
 Framework group  C2V[C2(CS),SGV(F2)]
 Deg. of freedom     3
 Full point group                 C2V     NOp   4
 Rotational constants (GHZ):     11.9449201      5.1575149      3.6021832
 Standard basis: Aug-CC-pVTZ (5D, 7F)
 Integral buffers will be    131072 words long.
 Raffenetti 1 integral format.
 Two-electron integral symmetry is turned off.
   188 basis functions,   330 primitive gaussians,   224 cartesian basis functions
    20 alpha electrons       20 beta electrons
       nuclear repulsion energy       154.7998158969 Hartrees.
 NAtoms=    4 NActive=    4 NUniq=    4 SFac= 1.00D+00 NAtFMM=   50 NAOKFM=F Big=F
 One-electron integrals computed using PRISM.
 NBasis=   188 RedAO= T  NBF=   188
 NBsUse=   188 1.00D-06 NBFU=   188
 Harris functional with IExCor=  205 diagonalized for initial guess.
 ExpMin= 3.51D-02 ExpMax= 3.74D+05 ExpMxC= 1.18D+03 IAcc=3 IRadAn=         0 AccDes= 0.00D+00
 HarFok:  IExCor=  205 AccDes= 0.00D+00 IRadAn=         0 IDoV= 1
 ScaDFX=  1.000000  1.000000  1.000000  1.000000
 FoFCou: FMM=F IPFlag=           0 FMFlag=      100000 FMFlg1=           0
         NFxFlg=           0 DoJE=T BraDBF=F KetDBF=T FulRan=T
         Omega=  0.000000  0.000000  1.000000  0.000000  0.000000 ICntrl=     500 IOpCl=  0
         NMat0=    1 NMatS0=    1 NMatT0=    0 NMatD0=    1 NMtDS0=    0 NMtDT0=    0
         I1Cent=           4 NGrid=           0.
 Symmetry not used in FoFCou.
 Requested convergence on RMS density matrix=1.00D-08 within 128 cycles.
 Requested convergence on MAX density matrix=1.00D-06.
 Requested convergence on             energy=1.00D-06.
 No special actions if energy rises.
 Keep R1 ints in memory in canonical form, NReq=323399632.
 SCF Done:  E(RHF) =  -634.357061246     A.U. after   12 cycles
             Convg  =    0.7040D-08             -V/T =  2.0005
 ExpMin= 3.51D-02 ExpMax= 3.74D+05 ExpMxC= 1.18D+03 IAcc=3 IRadAn=         5 AccDes= 0.00D+00
 HarFok:  IExCor=  205 AccDes= 0.00D+00 IRadAn=         5 IDoV=-2
 ScaDFX=  1.000000  1.000000  1.000000  1.000000
 Range of M.O.s used for correlation:     9   188
 NBasis=   188 NAE=    20 NBE=    20 NFC=     8 NFV=     0
 NROrb=    180 NOA=    12 NOB=    12 NVA=   168 NVB=   168

 **** Warning!!: The largest alpha MO coefficient is  0.26886350D+02

 Semi-Direct transformation.
 ModeAB=           2 MOrb=            12 LenV=    1072746433
 LASXX=     33405819 LTotXX=    33405819 LenRXX=    33405819
 LTotAB=    33954012 MaxLAS=    54432000 LenRXY=    54432000
 NonZer=    66811638 LenScr=   100987392 LnRSAI=           0
 LnScr1=           0 LExtra=           0 Total=    188825211
 MaxDsk=          -1 SrtSym=           F ITran=            4
 JobTyp=0 Pass  1:  I=   1 to  12.
 (rs|ai) integrals will be sorted in core.
 Spin components of T(2) and E(2):
     alpha-alpha T2 =       0.3007483109D-01 E2=     -0.1103981489D+00
     alpha-beta  T2 =       0.1593746355D+00 E2=     -0.6184890615D+00
     beta-beta   T2 =       0.3007483109D-01 E2=     -0.1103981489D+00
 ANorm=    0.1104320740D+01
 E2 =    -0.8392853593D+00 EUMP2 =    -0.63519634660582D+03
 R2 and R3 integrals will be kept in memory, NReq=   640760400.
 Iterations=  50 Convergence= 0.100D-07
 Iteration Nr.   1
 **********************
 DD1Dir will call FoFMem   1 times, MxPair=       156
 NAB=    78 NAA=     0 NBB=     0.
 MP4(R+Q)=  0.19283857D-01
 E3=       -0.34655895D-02        EUMP3=      -0.63519981220D+03
 E4(DQ)=    0.24184462D-02        UMP4(DQ)=   -0.63519739375D+03
 E4(SDQ)=  -0.83387423D-02        UMP4(SDQ)=  -0.63520815094D+03
 DE(Corr)= -0.82346709     E(Corr)=     -635.18052834    
 NORM(A)=   0.11035967D+01
 Iteration Nr.   2
 **********************
 DD1Dir will call FoFMem   1 times, MxPair=       156
 NAB=    78 NAA=     0 NBB=     0.
 DE(Corr)= -0.84898599     E(CORR)=     -635.20604724     Delta=-2.55D-02
 NORM(A)=   0.11124423D+01
 Iteration Nr.   3
 **********************
 DD1Dir will call FoFMem   1 times, MxPair=       156
 NAB=    78 NAA=     0 NBB=     0.
 DE(Corr)= -0.84734694     E(CORR)=     -635.20440818     Delta= 1.64D-03
 NORM(A)=   0.11152187D+01
 Iteration Nr.   4
 **********************
 DD1Dir will call FoFMem   1 times, MxPair=       156
 NAB=    78 NAA=     0 NBB=     0.
 DE(Corr)= -0.84984211     E(CORR)=     -635.20690335     Delta=-2.50D-03
 NORM(A)=   0.11162882D+01
 Iteration Nr.   5
 **********************
 DD1Dir will call FoFMem   1 times, MxPair=       156
 NAB=    78 NAA=     0 NBB=     0.
 DE(Corr)= -0.85013599     E(CORR)=     -635.20719723     Delta=-2.94D-04
 NORM(A)=   0.11165971D+01
 Iteration Nr.   6
 **********************
 DD1Dir will call FoFMem   1 times, MxPair=       156
 NAB=    78 NAA=     0 NBB=     0.
 DE(Corr)= -0.85017398     E(CORR)=     -635.20723523     Delta=-3.80D-05
 NORM(A)=   0.11166431D+01
 Iteration Nr.   7
 **********************
 DD1Dir will call FoFMem   1 times, MxPair=       156
 NAB=    78 NAA=     0 NBB=     0.
 DE(Corr)= -0.85017816     E(CORR)=     -635.20723941     Delta=-4.18D-06
 NORM(A)=   0.11166416D+01
 Iteration Nr.   8
 **********************
 DD1Dir will call FoFMem   1 times, MxPair=       156
 NAB=    78 NAA=     0 NBB=     0.
 DE(Corr)= -0.85017719     E(CORR)=     -635.20723844     Delta= 9.68D-07
 NORM(A)=   0.11166462D+01
 Iteration Nr.   9
 **********************
 DD1Dir will call FoFMem   1 times, MxPair=       156
 NAB=    78 NAA=     0 NBB=     0.
 DE(Corr)= -0.85017663     E(CORR)=     -635.20723787     Delta= 5.66D-07
 NORM(A)=   0.11166460D+01
 Iteration Nr.  10
 **********************
 DD1Dir will call FoFMem   1 times, MxPair=       156
 NAB=    78 NAA=     0 NBB=     0.
 DE(Corr)= -0.85017693     E(CORR)=     -635.20723817     Delta=-2.98D-07
 NORM(A)=   0.11166472D+01
 Iteration Nr.  11
 **********************
 DD1Dir will call FoFMem   1 times, MxPair=       156
 NAB=    78 NAA=     0 NBB=     0.
 DE(Corr)= -0.85017739     E(CORR)=     -635.20723864     Delta=-4.63D-07
 NORM(A)=   0.11166484D+01
 Iteration Nr.  12
 **********************
 DD1Dir will call FoFMem   1 times, MxPair=       156
 NAB=    78 NAA=     0 NBB=     0.
 DE(Corr)= -0.85017766     E(CORR)=     -635.20723891     Delta=-2.71D-07
 NORM(A)=   0.11166490D+01
 Iteration Nr.  13
 **********************
 DD1Dir will call FoFMem   1 times, MxPair=       156
 NAB=    78 NAA=     0 NBB=     0.
 DE(Corr)= -0.85017784     E(CORR)=     -635.20723909     Delta=-1.83D-07
 NORM(A)=   0.11166493D+01
 Iteration Nr.  14
 **********************
 DD1Dir will call FoFMem   1 times, MxPair=       156
 NAB=    78 NAA=     0 NBB=     0.
 DE(Corr)= -0.85017791     E(CORR)=     -635.20723915     Delta=-6.24D-08
 NORM(A)=   0.11166495D+01
 Iteration Nr.  15
 **********************
 DD1Dir will call FoFMem   1 times, MxPair=       156
 NAB=    78 NAA=     0 NBB=     0.
 DE(Corr)= -0.85017794     E(CORR)=     -635.20723918     Delta=-3.26D-08
 NORM(A)=   0.11166495D+01
 Iteration Nr.  16
 **********************
 DD1Dir will call FoFMem   1 times, MxPair=       156
 NAB=    78 NAA=     0 NBB=     0.
 DE(Corr)= -0.85017795     E(CORR)=     -635.20723919     Delta=-7.34D-09
 NORM(A)=   0.11166495D+01
 Iteration Nr.  17
 **********************
 DD1Dir will call FoFMem   1 times, MxPair=       156
 NAB=    78 NAA=     0 NBB=     0.
 DE(Corr)= -0.85017795     E(CORR)=     -635.20723919     Delta=-1.00D-09
 NORM(A)=   0.11166495D+01
 Iteration Nr.  18
 **********************
 DD1Dir will call FoFMem   1 times, MxPair=       156
 NAB=    78 NAA=     0 NBB=     0.
 DE(Corr)= -0.85017795     E(CORR)=     -635.20723919     Delta= 5.86D-11
 NORM(A)=   0.11166495D+01
 Largest amplitude= 8.34D-02

 Z-AMPLITUDE ITERATIONS

 Iteration Nr.   1
 **********************
 DD1Dir will call FoFMem   1 times, MxPair=       156
 NAB=    78 NAA=     0 NBB=     0.
 DE(Z)  -0.82639816D+00          E(Z)=    -0.63518345941D+03
 NORM(A)=   0.11166603D+01
 Iteration Nr.   2
 **********************
 DD1Dir will call FoFMem   1 times, MxPair=       156
 NAB=    78 NAA=     0 NBB=     0.
 DE(Z)  -0.82639820D+00          E(Z)=    -0.63518345945D+03
 NORM(A)=   0.11166462D+01
 Iteration Nr.   3
 **********************
 DD1Dir will call FoFMem   1 times, MxPair=       156
 NAB=    78 NAA=     0 NBB=     0.
 DE(Z)  -0.82639811D+00          E(Z)=    -0.63518345935D+03
 NORM(A)=   0.11166412D+01
 Iteration Nr.   4
 **********************
 DD1Dir will call FoFMem   1 times, MxPair=       156
 NAB=    78 NAA=     0 NBB=     0.
 DE(Z)  -0.82639804D+00          E(Z)=    -0.63518345929D+03
 NORM(A)=   0.11166534D+01
 Iteration Nr.   5
 **********************
 DD1Dir will call FoFMem   1 times, MxPair=       156
 NAB=    78 NAA=     0 NBB=     0.
 DE(Z)  -0.82639823D+00          E(Z)=    -0.63518345948D+03
 NORM(A)=   0.11085074D+01
 Iteration Nr.   6
 **********************
 DD1Dir will call FoFMem   1 times, MxPair=       156
 NAB=    78 NAA=     0 NBB=     0.
 DE(Z)  -0.82624655D+00          E(Z)=    -0.63518330779D+03
 NORM(A)=   0.11085074D+01
 Iteration Nr.   7
 **********************
 DD1Dir will call FoFMem   1 times, MxPair=       156
 NAB=    78 NAA=     0 NBB=     0.
 DE(Z)  -0.82625079D+00          E(Z)=    -0.63518331204D+03
 NORM(A)=   0.11085069D+01
 Iteration Nr.   8
 **********************
 DD1Dir will call FoFMem   1 times, MxPair=       156
 NAB=    78 NAA=     0 NBB=     0.
 DE(Z)  -0.82625088D+00          E(Z)=    -0.63518331213D+03
 NORM(A)=   0.11085066D+01
 Iteration Nr.   9
 **********************
 DD1Dir will call FoFMem   1 times, MxPair=       156
 NAB=    78 NAA=     0 NBB=     0.
 DE(Z)  -0.82625089D+00          E(Z)=    -0.63518331213D+03
 NORM(A)=   0.11085066D+01
 Iteration Nr.  10
 **********************
 DD1Dir will call FoFMem   1 times, MxPair=       156
 NAB=    78 NAA=     0 NBB=     0.
 DE(Z)  -0.82625097D+00          E(Z)=    -0.63518331222D+03
 NORM(A)=   0.11085067D+01
 Iteration Nr.  11
 **********************
 DD1Dir will call FoFMem   1 times, MxPair=       156
 NAB=    78 NAA=     0 NBB=     0.
 DE(Z)  -0.82625095D+00          E(Z)=    -0.63518331219D+03
 NORM(A)=   0.11085068D+01
 Iteration Nr.  12
 **********************
 DD1Dir will call FoFMem   1 times, MxPair=       156
 NAB=    78 NAA=     0 NBB=     0.
 DE(Z)  -0.82625096D+00          E(Z)=    -0.63518331220D+03
 NORM(A)=   0.11085068D+01
 Iteration Nr.  13
 **********************
 DD1Dir will call FoFMem   1 times, MxPair=       156
 NAB=    78 NAA=     0 NBB=     0.
 DE(Z)  -0.82625097D+00          E(Z)=    -0.63518331222D+03
 NORM(A)=   0.11085068D+01
 Iteration Nr.  14
 **********************
 DD1Dir will call FoFMem   1 times, MxPair=       156
 NAB=    78 NAA=     0 NBB=     0.
 DE(Z)  -0.82625097D+00          E(Z)=    -0.63518331222D+03
 NORM(A)=   0.11085068D+01
 Discarding MO integrals.
          Differentiating once with respect to electric field.
                with respect to dipole field.
          Electric field/nuclear overlap derivatives assumed to be zero.
          Keep R1 ints in memory in canonical form, NReq=319473719.
          There are     1 degrees of freedom in the 1st order CPHF.  IDoFFX=0.
 LinEq1:  Iter=  0 NonCon=     1 RMS=2.84D-03 Max=7.67D-02
 AX will form     1 AO Fock derivatives at one time.
 LinEq1:  Iter=  1 NonCon=     1 RMS=8.78D-04 Max=1.21D-02
 LinEq1:  Iter=  2 NonCon=     1 RMS=3.95D-04 Max=1.23D-02
 LinEq1:  Iter=  3 NonCon=     1 RMS=1.05D-04 Max=2.30D-03
 LinEq1:  Iter=  4 NonCon=     1 RMS=2.52D-05 Max=5.81D-04
 LinEq1:  Iter=  5 NonCon=     1 RMS=6.33D-06 Max=1.07D-04
 LinEq1:  Iter=  6 NonCon=     1 RMS=2.43D-06 Max=5.35D-05
 LinEq1:  Iter=  7 NonCon=     1 RMS=7.80D-07 Max=1.44D-05
 LinEq1:  Iter=  8 NonCon=     1 RMS=1.62D-07 Max=2.29D-06
 LinEq1:  Iter=  9 NonCon=     1 RMS=3.05D-08 Max=3.65D-07
 LinEq1:  Iter= 10 NonCon=     1 RMS=6.06D-09 Max=7.16D-08
 LinEq1:  Iter= 11 NonCon=     1 RMS=9.58D-10 Max=1.50D-08
 LinEq1:  Iter= 12 NonCon=     1 RMS=1.36D-10 Max=1.85D-09
 LinEq1:  Iter= 13 NonCon=     0 RMS=2.50D-11 Max=2.82D-10
 Linear equations converged to 1.000D-10 1.000D-09 after    13 iterations.
 End of Minotr Frequency-dependent properties file   721 does not exist.
 End of Minotr Frequency-dependent properties file   722 does not exist.

 **********************************************************************

            Population analysis using the QCI/CC density.

 **********************************************************************

     Natural Orbital Coefficients:
                           1         2         3         4         5
     Eigenvalues --     2.00003   2.00002   2.00001   2.00001   2.00000
   1 1   C  1S          0.00000  -0.18305   0.58156   0.00000   0.49411
   2        2S          0.00000   0.00340  -0.00917   0.00000  -0.00506
   3        3S          0.00000  -0.00701   0.02342   0.00000   0.02065
   4        4S          0.00000  -0.00942   0.00225   0.00000  -0.00183
   5        5S          0.00000  -0.00092   0.00194   0.00000   0.00053
   6        6PX         0.00000   0.00000   0.00000  -0.00186   0.00000
   7        6PY        -0.00142   0.00000   0.00000   0.00000   0.00000
   8        6PZ         0.00000   0.00143  -0.00338   0.00000  -0.00042
   9        7PX         0.00000   0.00000   0.00000  -0.00186   0.00000
  10        7PY        -0.00370   0.00000   0.00000   0.00000   0.00000
  11        7PZ         0.00000  -0.00102   0.00136   0.00000   0.00172
  12        8PX         0.00000   0.00000   0.00000  -0.00120   0.00000
  13        8PY         0.00606   0.00000   0.00000   0.00000   0.00000
  14        8PZ         0.00000  -0.00939   0.00506   0.00000  -0.00081
  15        9PX         0.00000   0.00000   0.00000   0.00009   0.00000
  16        9PY        -0.00062   0.00000   0.00000   0.00000   0.00000
  17        9PZ         0.00000   0.00034   0.00029   0.00000   0.00055
  18       10D 0        0.00000  -0.00008   0.00006   0.00000   0.00021
  19       10D+1        0.00000   0.00000   0.00000  -0.00031   0.00000
  20       10D-1       -0.00031   0.00000   0.00000   0.00000   0.00000
  21       10D+2        0.00000   0.00011  -0.00036   0.00000  -0.00020
  22       10D-2        0.00000   0.00000   0.00000   0.00000   0.00000
  23       11D 0        0.00000  -0.00116   0.00013   0.00000  -0.00025
  24       11D+1        0.00000   0.00000   0.00000   0.00124   0.00000
  25       11D-1        0.00110   0.00000   0.00000   0.00000   0.00000
  26       11D+2        0.00000  -0.00015   0.00116   0.00000   0.00085
  27       11D-2        0.00000   0.00000   0.00000   0.00000   0.00000
  28       12D 0        0.00000  -0.00272   0.00156   0.00000  -0.00129
  29       12D+1        0.00000   0.00000   0.00000  -0.00053   0.00000
  30       12D-1       -0.00450   0.00000   0.00000   0.00000   0.00000
  31       12D+2        0.00000  -0.00088   0.00054   0.00000  -0.00052
  32       12D-2        0.00000   0.00000   0.00000   0.00000   0.00000
  33       13F 0        0.00000  -0.00005  -0.00001   0.00000   0.00041
  34       13F+1        0.00000   0.00000   0.00000  -0.00018   0.00000
  35       13F-1       -0.00056   0.00000   0.00000   0.00000   0.00000
  36       13F+2        0.00000  -0.00010   0.00016   0.00000   0.00002
  37       13F-2        0.00000   0.00000   0.00000   0.00000   0.00000
  38       13F+3        0.00000   0.00000   0.00000   0.00002   0.00000
  39       13F-3        0.00005   0.00000   0.00000   0.00000   0.00000
  40       14F 0        0.00000   0.00067  -0.00196   0.00000  -0.00026
  41       14F+1        0.00000   0.00000   0.00000   0.00089   0.00000
  42       14F-1        0.00292   0.00000   0.00000   0.00000   0.00000
  43       14F+2        0.00000   0.00067  -0.00148   0.00000  -0.00093
  44       14F-2        0.00000   0.00000   0.00000   0.00000   0.00000
  45       14F+3        0.00000   0.00000   0.00000   0.00017   0.00000
  46       14F-3        0.00004   0.00000   0.00000   0.00000   0.00000
  47 2   S  1S          0.00000  -0.21344  -0.17474   0.00000   0.07100
  48        2S          0.00000   0.72977   0.60416   0.00000  -0.24653
  49        3S          0.00000  -0.02128  -0.00932   0.00000   0.00213
  50        4S          0.00000   0.04873   0.04357   0.00000  -0.01798
  51        5S          0.00000   0.01051  -0.01120   0.00000   0.00376
  52        6S          0.00000   0.00113  -0.00256   0.00000  -0.00092
  53        7PX         0.00000   0.00000   0.00000   0.97269   0.00000
  54        7PY         0.97646   0.00000   0.00000   0.00000   0.00000
  55        7PZ         0.00000   0.63599  -0.50031   0.00000   0.42922
  56        8PX         0.00000   0.00000   0.00000  -0.01234   0.00000
  57        8PY        -0.02034   0.00000   0.00000   0.00000   0.00000
  58        8PZ         0.00000  -0.01269   0.00873   0.00000  -0.00425
  59        9PX         0.00000   0.00000   0.00000   0.06134   0.00000
  60        9PY         0.05658   0.00000   0.00000   0.00000   0.00000
  61        9PZ         0.00000   0.03933  -0.03289   0.00000   0.02831
  62       10PX         0.00000   0.00000   0.00000   0.00018   0.00000
  63       10PY        -0.00419   0.00000   0.00000   0.00000   0.00000
  64       10PZ         0.00000  -0.00909   0.00476   0.00000  -0.00050
  65       11PX         0.00000   0.00000   0.00000  -0.00082   0.00000
  66       11PY        -0.00031   0.00000   0.00000   0.00000   0.00000
  67       11PZ         0.00000  -0.00031   0.00029   0.00000  -0.00002
  68       12D 0        0.00000   0.00255  -0.00293   0.00000   0.00099
  69       12D+1        0.00000   0.00000   0.00000   0.00204   0.00000
  70       12D-1        0.00341   0.00000   0.00000   0.00000   0.00000
  71       12D+2        0.00000  -0.00040   0.00025   0.00000   0.00031
  72       12D-2        0.00000   0.00000   0.00000   0.00000   0.00000
  73       13D 0        0.00000   0.00019   0.00027   0.00000  -0.00070
  74       13D+1        0.00000   0.00000   0.00000  -0.00011   0.00000
  75       13D-1       -0.00027   0.00000   0.00000   0.00000   0.00000
  76       13D+2        0.00000   0.00026   0.00014   0.00000  -0.00008
  77       13D-2        0.00000   0.00000   0.00000   0.00000   0.00000
  78       14D 0        0.00000   0.00146  -0.00061   0.00000   0.00008
  79       14D+1        0.00000   0.00000   0.00000  -0.00038   0.00000
  80       14D-1       -0.00081   0.00000   0.00000   0.00000   0.00000
  81       14D+2        0.00000   0.00024  -0.00001   0.00000   0.00014
  82       14D-2        0.00000   0.00000   0.00000   0.00000   0.00000
  83       15F 0        0.00000  -0.00023   0.00028   0.00000   0.00035
  84       15F+1        0.00000   0.00000   0.00000  -0.00023   0.00000
  85       15F-1       -0.00022   0.00000   0.00000   0.00000   0.00000
  86       15F+2        0.00000   0.00011  -0.00013   0.00000   0.00003
  87       15F-2        0.00000   0.00000   0.00000   0.00000   0.00000
  88       15F+3        0.00000   0.00000   0.00000   0.00009   0.00000
  89       15F-3        0.00006   0.00000   0.00000   0.00000   0.00000
  90       16F 0        0.00000  -0.00048   0.00057   0.00000  -0.00045
  91       16F+1        0.00000   0.00000   0.00000  -0.00047   0.00000
  92       16F-1       -0.00104   0.00000   0.00000   0.00000   0.00000
  93       16F+2        0.00000  -0.00001  -0.00017   0.00000  -0.00027
  94       16F-2        0.00000   0.00000   0.00000   0.00000   0.00000
  95       16F+3        0.00000   0.00000   0.00000  -0.00013   0.00000
  96       16F-3       -0.00012   0.00000   0.00000   0.00000   0.00000
  97 3   F  1S          0.00849   0.01117  -0.08092   0.00000  -0.48370
  98        2S          0.00019  -0.00046   0.00227   0.00000   0.00839
  99        3S          0.00045   0.00041  -0.00322   0.00000  -0.02056
 100        4S          0.00025  -0.00138   0.00371   0.00000   0.00188
 101        5S          0.00724  -0.00217   0.00118   0.00000  -0.00027
 102        6PX         0.00000   0.00000   0.00000   0.00094   0.00000
 103        6PY        -0.00019   0.00002  -0.00066   0.00000  -0.00172
 104        6PZ        -0.00058  -0.00014  -0.00015   0.00000  -0.00143
 105        7PX         0.00000   0.00000   0.00000   0.00117   0.00000
 106        7PY        -0.00031  -0.00007  -0.00037   0.00000  -0.00093
 107        7PZ        -0.00085  -0.00031   0.00019   0.00000  -0.00084
 108        8PX         0.00000   0.00000   0.00000   0.00128   0.00000
 109        8PY        -0.00058   0.00000  -0.00016   0.00000  -0.00112
 110        8PZ        -0.00278  -0.00034   0.00077   0.00000  -0.00140
 111        9PX         0.00000   0.00000   0.00000  -0.00001   0.00000
 112        9PY         0.00170  -0.00010  -0.00005   0.00000   0.00007
 113        9PZ         0.00021  -0.00111   0.00051   0.00000  -0.00066
 114       10D 0        0.00000   0.00001   0.00000   0.00000   0.00001
 115       10D+1        0.00000   0.00000   0.00000  -0.00001   0.00000
 116       10D-1        0.00001   0.00000   0.00002   0.00000   0.00002
 117       10D+2        0.00000   0.00001  -0.00002   0.00000   0.00002
 118       10D-2        0.00000   0.00000   0.00000  -0.00002   0.00000
 119       11D 0        0.00015   0.00001  -0.00006   0.00000  -0.00002
 120       11D+1        0.00000   0.00000   0.00000  -0.00003   0.00000
 121       11D-1       -0.00007   0.00004  -0.00013   0.00000  -0.00010
 122       11D+2        0.00004  -0.00001   0.00006   0.00000   0.00000
 123       11D-2        0.00000   0.00000   0.00000   0.00005   0.00000
 124       12D 0       -0.00047   0.00019  -0.00028   0.00000  -0.00005
 125       12D+1        0.00000   0.00000   0.00000   0.00024   0.00000
 126       12D-1       -0.00086  -0.00009   0.00025   0.00000  -0.00052
 127       12D+2        0.00041  -0.00017   0.00032   0.00000   0.00021
 128       12D-2        0.00000   0.00000   0.00000   0.00004   0.00000
 129       13F 0       -0.00001  -0.00002   0.00004   0.00000   0.00000
 130       13F+1        0.00000   0.00000   0.00000   0.00001   0.00000
 131       13F-1        0.00003   0.00001   0.00000   0.00000   0.00002
 132       13F+2       -0.00001  -0.00001   0.00001   0.00000  -0.00004
 133       13F-2        0.00000   0.00000   0.00000  -0.00002   0.00000
 134       13F+3        0.00000   0.00000   0.00000   0.00001   0.00000
 135       13F-3       -0.00001   0.00001  -0.00002   0.00000   0.00001
 136       14F 0        0.00013   0.00006  -0.00010   0.00000   0.00013
 137       14F+1        0.00000   0.00000   0.00000  -0.00004   0.00000
 138       14F-1       -0.00001   0.00003  -0.00013   0.00000  -0.00019
 139       14F+2        0.00007   0.00000   0.00011   0.00000   0.00031
 140       14F-2        0.00000   0.00000   0.00000   0.00008   0.00000
 141       14F+3        0.00000   0.00000   0.00000  -0.00004   0.00000
 142       14F-3        0.00012  -0.00005   0.00014   0.00000   0.00001
 143 4   F  1S         -0.00849   0.01117  -0.08092   0.00000  -0.48370
 144        2S         -0.00019  -0.00046   0.00227   0.00000   0.00839
 145        3S         -0.00045   0.00041  -0.00322   0.00000  -0.02056
 146        4S         -0.00025  -0.00138   0.00371   0.00000   0.00188
 147        5S         -0.00724  -0.00217   0.00118   0.00000  -0.00027
 148        6PX         0.00000   0.00000   0.00000   0.00094   0.00000
 149        6PY        -0.00019  -0.00002   0.00066   0.00000   0.00172
 150        6PZ         0.00058  -0.00014  -0.00015   0.00000  -0.00143
 151        7PX         0.00000   0.00000   0.00000   0.00117   0.00000
 152        7PY        -0.00031   0.00007   0.00037   0.00000   0.00093
 153        7PZ         0.00085  -0.00031   0.00019   0.00000  -0.00084
 154        8PX         0.00000   0.00000   0.00000   0.00128   0.00000
 155        8PY        -0.00058   0.00000   0.00016   0.00000   0.00112
 156        8PZ         0.00278  -0.00034   0.00077   0.00000  -0.00140
 157        9PX         0.00000   0.00000   0.00000  -0.00001   0.00000
 158        9PY         0.00170   0.00010   0.00005   0.00000  -0.00007
 159        9PZ        -0.00021  -0.00111   0.00051   0.00000  -0.00066
 160       10D 0        0.00000   0.00001   0.00000   0.00000   0.00001
 161       10D+1        0.00000   0.00000   0.00000  -0.00001   0.00000
 162       10D-1        0.00001   0.00000  -0.00002   0.00000  -0.00002
 163       10D+2        0.00000   0.00001  -0.00002   0.00000   0.00002
 164       10D-2        0.00000   0.00000   0.00000   0.00002   0.00000
 165       11D 0       -0.00015   0.00001  -0.00006   0.00000  -0.00002
 166       11D+1        0.00000   0.00000   0.00000  -0.00003   0.00000
 167       11D-1       -0.00007  -0.00004   0.00013   0.00000   0.00010
 168       11D+2       -0.00004  -0.00001   0.00006   0.00000   0.00000
 169       11D-2        0.00000   0.00000   0.00000  -0.00005   0.00000
 170       12D 0        0.00047   0.00019  -0.00028   0.00000  -0.00005
 171       12D+1        0.00000   0.00000   0.00000   0.00024   0.00000
 172       12D-1       -0.00086   0.00009  -0.00025   0.00000   0.00052
 173       12D+2       -0.00041  -0.00017   0.00032   0.00000   0.00021
 174       12D-2        0.00000   0.00000   0.00000  -0.00004   0.00000
 175       13F 0        0.00001  -0.00002   0.00004   0.00000   0.00000
 176       13F+1        0.00000   0.00000   0.00000   0.00001   0.00000
 177       13F-1        0.00003  -0.00001   0.00000   0.00000  -0.00002
 178       13F+2        0.00001  -0.00001   0.00001   0.00000  -0.00004
 179       13F-2        0.00000   0.00000   0.00000   0.00002   0.00000
 180       13F+3        0.00000   0.00000   0.00000   0.00001   0.00000
 181       13F-3       -0.00001  -0.00001   0.00002   0.00000  -0.00001
 182       14F 0       -0.00013   0.00006  -0.00010   0.00000   0.00013
 183       14F+1        0.00000   0.00000   0.00000  -0.00004   0.00000
 184       14F-1       -0.00001  -0.00003   0.00013   0.00000   0.00019
 185       14F+2       -0.00007   0.00000   0.00011   0.00000   0.00031
 186       14F-2        0.00000   0.00000   0.00000  -0.00008   0.00000
 187       14F+3        0.00000   0.00000   0.00000  -0.00004   0.00000
 188       14F-3        0.00012   0.00005  -0.00014   0.00000  -0.00001
                           6         7         8         9        10
     Eigenvalues --     2.00000   2.00000   2.00000   1.98612   1.98546
   1 1   C  1S          0.00000   0.58901   0.00015  -0.04824   0.00000
   2        2S          0.00000  -0.00557  -0.00003   0.09938   0.00000
   3        3S          0.00000   0.02388   0.00001   0.02066   0.00000
   4        4S          0.00000  -0.00184  -0.00003   0.01214   0.00000
   5        5S          0.00000   0.00070  -0.00007   0.00510   0.00000
   6        6PX         0.00000   0.00000   0.00000   0.00000   0.00000
   7        6PY        -0.00002   0.00000   0.00000   0.00000   0.03338
   8        6PZ         0.00000  -0.00096   0.00001  -0.02052   0.00000
   9        7PX         0.00000   0.00000   0.00000   0.00000   0.00000
  10        7PY         0.00072   0.00000   0.00000   0.00000   0.02722
  11        7PZ         0.00000   0.00027  -0.00013  -0.02432   0.00000
  12        8PX         0.00000   0.00000   0.00000   0.00000   0.00000
  13        8PY        -0.00058   0.00000   0.00000   0.00000  -0.01774
  14        8PZ         0.00000   0.00234   0.00004   0.03660   0.00000
  15        9PX         0.00000   0.00000   0.00000   0.00000   0.00000
  16        9PY         0.00033   0.00000   0.00000   0.00000   0.00139
  17        9PZ         0.00000   0.00028  -0.00003   0.00132   0.00000
  18       10D 0        0.00000   0.00024  -0.00001   0.00311   0.00000
  19       10D+1        0.00000   0.00000   0.00000   0.00000   0.00000
  20       10D-1       -0.00020   0.00000   0.00000   0.00000  -0.01043
  21       10D+2        0.00000  -0.00051   0.00000  -0.00842   0.00000
  22       10D-2        0.00000   0.00000   0.00000   0.00000   0.00000
  23       11D 0        0.00000  -0.00042  -0.00008   0.00247   0.00000
  24       11D+1        0.00000   0.00000   0.00000   0.00000   0.00000
  25       11D-1       -0.00124   0.00000   0.00000   0.00000  -0.01063
  26       11D+2        0.00000   0.00002  -0.00003  -0.01132   0.00000
  27       11D-2        0.00000   0.00000   0.00000   0.00000   0.00000
  28       12D 0        0.00000  -0.00009  -0.00002   0.00683   0.00000
  29       12D+1        0.00000   0.00000   0.00000   0.00000   0.00000
  30       12D-1        0.00064   0.00000   0.00000   0.00000   0.01329
  31       12D+2        0.00000   0.00028   0.00000   0.00844   0.00000
  32       12D-2        0.00000   0.00000   0.00000   0.00000   0.00000
  33       13F 0        0.00000   0.00062   0.00001   0.00276   0.00000
  34       13F+1        0.00000   0.00000   0.00000   0.00000   0.00000
  35       13F-1        0.00017   0.00000   0.00000   0.00000   0.00182
  36       13F+2        0.00000   0.00060   0.00001   0.00520   0.00000
  37       13F-2        0.00000   0.00000   0.00000   0.00000   0.00000
  38       13F+3        0.00000   0.00000   0.00000   0.00000   0.00000
  39       13F-3       -0.00021   0.00000   0.00000   0.00000  -0.00214
  40       14F 0        0.00000   0.00053   0.00003   0.00420   0.00000
  41       14F+1        0.00000   0.00000   0.00000   0.00000   0.00000
  42       14F-1        0.00107   0.00000   0.00000   0.00000   0.00430
  43       14F+2        0.00000  -0.00026   0.00001   0.00238   0.00000
  44       14F-2        0.00000   0.00000   0.00000   0.00000   0.00000
  45       14F+3        0.00000   0.00000   0.00000   0.00000   0.00000
  46       14F-3        0.00013   0.00000   0.00000   0.00000   0.00034
  47 2   S  1S          0.00000   0.04595   0.99642   0.00299   0.00000
  48        2S          0.00000  -0.16102   0.01312  -0.01198   0.00000
  49        3S          0.00000   0.00046   0.00031   0.02301   0.00000
  50        4S          0.00000  -0.01199  -0.00004   0.00249   0.00000
  51        5S          0.00000   0.00090  -0.00006  -0.01876   0.00000
  52        6S          0.00000  -0.00099   0.00005  -0.01183   0.00000
  53        7PX         0.00000   0.00000   0.00000   0.00000   0.00000
  54        7PY         0.01207   0.00000   0.00000   0.00000  -0.00439
  55        7PZ         0.00000   0.32761   0.00172   0.00770   0.00000
  56        8PX         0.00000   0.00000   0.00000   0.00000   0.00000
  57        8PY        -0.00035   0.00000   0.00000   0.00000   0.01620
  58        8PZ         0.00000  -0.00274  -0.00018  -0.01279   0.00000
  59        9PX         0.00000   0.00000   0.00000   0.00000   0.00000
  60        9PY         0.00075   0.00000   0.00000   0.00000   0.00670
  61        9PZ         0.00000   0.02190   0.00019  -0.00754   0.00000
  62       10PX         0.00000   0.00000   0.00000   0.00000   0.00000
  63       10PY        -0.00048   0.00000   0.00000   0.00000   0.00412
  64       10PZ         0.00000  -0.00008   0.00003   0.00689   0.00000
  65       11PX         0.00000   0.00000   0.00000   0.00000   0.00000
  66       11PY        -0.00018   0.00000   0.00000   0.00000  -0.00053
  67       11PZ         0.00000   0.00008   0.00000   0.00193   0.00000
  68       12D 0        0.00000   0.00096   0.00008   0.00127   0.00000
  69       12D+1        0.00000   0.00000   0.00000   0.00000   0.00000
  70       12D-1        0.00012   0.00000   0.00000   0.00000   0.00016
  71       12D+2        0.00000   0.00010  -0.00001  -0.00021   0.00000
  72       12D-2        0.00000   0.00000   0.00000   0.00000   0.00000
  73       13D 0        0.00000  -0.00068   0.00001   0.00264   0.00000
  74       13D+1        0.00000   0.00000   0.00000   0.00000   0.00000
  75       13D-1       -0.00001   0.00000   0.00000   0.00000  -0.00036
  76       13D+2        0.00000  -0.00005   0.00001  -0.00001   0.00000
  77       13D-2        0.00000   0.00000   0.00000   0.00000   0.00000
  78       14D 0        0.00000   0.00025  -0.00003  -0.00169   0.00000
  79       14D+1        0.00000   0.00000   0.00000   0.00000   0.00000
  80       14D-1        0.00013   0.00000   0.00000   0.00000   0.00198
  81       14D+2        0.00000  -0.00008   0.00000  -0.00271   0.00000
  82       14D-2        0.00000   0.00000   0.00000   0.00000   0.00000
  83       15F 0        0.00000   0.00037  -0.00002  -0.00044   0.00000
  84       15F+1        0.00000   0.00000   0.00000   0.00000   0.00000
  85       15F-1        0.00000   0.00000   0.00000   0.00000   0.00021
  86       15F+2        0.00000   0.00009   0.00000   0.00003   0.00000
  87       15F-2        0.00000   0.00000   0.00000   0.00000   0.00000
  88       15F+3        0.00000   0.00000   0.00000   0.00000   0.00000
  89       15F-3       -0.00001   0.00000   0.00000   0.00000   0.00000
  90       16F 0        0.00000  -0.00049  -0.00001   0.00043   0.00000
  91       16F+1        0.00000   0.00000   0.00000   0.00000   0.00000
  92       16F-1       -0.00002   0.00000   0.00000   0.00000  -0.00023
  93       16F+2        0.00000  -0.00009   0.00000   0.00087   0.00000
  94       16F-2        0.00000   0.00000   0.00000   0.00000   0.00000
  95       16F+3        0.00000   0.00000   0.00000   0.00000   0.00000
  96       16F-3        0.00003   0.00000   0.00000   0.00000   0.00024
  97 3   F  1S         -0.69208   0.48823   0.00014  -0.14651   0.15003
  98        2S          0.01115  -0.00690  -0.00001   0.37454  -0.38391
  99        3S         -0.02982   0.02138   0.00001   0.11414  -0.11766
 100        4S          0.00069   0.00126  -0.00003   0.23439  -0.25369
 101        5S         -0.00066   0.00035   0.00004   0.01846  -0.03169
 102        6PX         0.00000   0.00000   0.00000   0.00000   0.00000
 103        6PY        -0.00143   0.00045   0.00000  -0.00576   0.03766
 104        6PZ        -0.00109   0.00002   0.00000  -0.02180   0.00805
 105        7PX         0.00000   0.00000   0.00000   0.00000   0.00000
 106        7PY         0.00014  -0.00073  -0.00001  -0.00268   0.04112
 107        7PZ        -0.00012  -0.00096  -0.00001  -0.02379   0.00610
 108        8PX         0.00000   0.00000   0.00000   0.00000   0.00000
 109        8PY        -0.00067   0.00059   0.00000  -0.01353   0.03422
 110        8PZ        -0.00153  -0.00061  -0.00004  -0.02897   0.00456
 111        9PX         0.00000   0.00000   0.00000   0.00000   0.00000
 112        9PY        -0.00040   0.00008   0.00001  -0.00171  -0.00108
 113        9PZ        -0.00005  -0.00012   0.00001  -0.00057   0.00043
 114       10D 0        0.00000   0.00001   0.00000  -0.00013  -0.00014
 115       10D+1        0.00000   0.00000   0.00000   0.00000   0.00000
 116       10D-1       -0.00001   0.00005   0.00000   0.00065  -0.00042
 117       10D+2        0.00001  -0.00001   0.00000  -0.00065   0.00009
 118       10D-2        0.00000   0.00000   0.00000   0.00000   0.00000
 119       11D 0       -0.00007  -0.00007   0.00000  -0.00077  -0.00094
 120       11D+1        0.00000   0.00000   0.00000   0.00000   0.00000
 121       11D-1        0.00024  -0.00052  -0.00001   0.00359  -0.00385
 122       11D+2       -0.00017   0.00021   0.00000  -0.00336   0.00194
 123       11D-2        0.00000   0.00000   0.00000   0.00000   0.00000
 124       12D 0       -0.00031  -0.00012   0.00000  -0.00138  -0.00127
 125       12D+1        0.00000   0.00000   0.00000   0.00000   0.00000
 126       12D-1       -0.00038  -0.00028  -0.00002  -0.00526  -0.00001
 127       12D+2        0.00017  -0.00012  -0.00001   0.00184  -0.00128
 128       12D-2        0.00000   0.00000   0.00000   0.00000   0.00000
 129       13F 0        0.00000  -0.00002   0.00000  -0.00034   0.00011
 130       13F+1        0.00000   0.00000   0.00000   0.00000   0.00000
 131       13F-1        0.00001  -0.00001   0.00000   0.00014  -0.00028
 132       13F+2       -0.00001   0.00001   0.00000  -0.00053   0.00031
 133       13F-2        0.00000   0.00000   0.00000   0.00000   0.00000
 134       13F+3        0.00000   0.00000   0.00000   0.00000   0.00000
 135       13F-3       -0.00006   0.00002   0.00000  -0.00042   0.00003
 136       14F 0       -0.00004   0.00019   0.00001  -0.00035   0.00034
 137       14F+1        0.00000   0.00000   0.00000   0.00000   0.00000
 138       14F-1       -0.00003  -0.00020   0.00000  -0.00018  -0.00086
 139       14F+2        0.00000   0.00027   0.00000  -0.00075   0.00096
 140       14F-2        0.00000   0.00000   0.00000   0.00000   0.00000
 141       14F+3        0.00000   0.00000   0.00000   0.00000   0.00000
 142       14F-3        0.00012   0.00004   0.00000  -0.00047   0.00062
 143 4   F  1S          0.69208   0.48823   0.00014  -0.14651  -0.15003
 144        2S         -0.01115  -0.00690  -0.00001   0.37454   0.38391
 145        3S          0.02982   0.02138   0.00001   0.11414   0.11766
 146        4S         -0.00069   0.00126  -0.00003   0.23439   0.25369
 147        5S          0.00066   0.00035   0.00004   0.01846   0.03169
 148        6PX         0.00000   0.00000   0.00000   0.00000   0.00000
 149        6PY        -0.00143  -0.00045   0.00000   0.00576   0.03766
 150        6PZ         0.00109   0.00002   0.00000  -0.02180  -0.00805
 151        7PX         0.00000   0.00000   0.00000   0.00000   0.00000
 152        7PY         0.00014   0.00073   0.00001   0.00268   0.04112
 153        7PZ         0.00012  -0.00096  -0.00001  -0.02379  -0.00610
 154        8PX         0.00000   0.00000   0.00000   0.00000   0.00000
 155        8PY        -0.00067  -0.00059   0.00000   0.01353   0.03422
 156        8PZ         0.00153  -0.00061  -0.00004  -0.02897  -0.00456
 157        9PX         0.00000   0.00000   0.00000   0.00000   0.00000
 158        9PY        -0.00040  -0.00008  -0.00001   0.00171  -0.00108
 159        9PZ         0.00005  -0.00012   0.00001  -0.00057  -0.00043
 160       10D 0        0.00000   0.00001   0.00000  -0.00013   0.00014
 161       10D+1        0.00000   0.00000   0.00000   0.00000   0.00000
 162       10D-1       -0.00001  -0.00005   0.00000  -0.00065  -0.00042
 163       10D+2       -0.00001  -0.00001   0.00000  -0.00065  -0.00009
 164       10D-2        0.00000   0.00000   0.00000   0.00000   0.00000
 165       11D 0        0.00007  -0.00007   0.00000  -0.00077   0.00094
 166       11D+1        0.00000   0.00000   0.00000   0.00000   0.00000
 167       11D-1        0.00024   0.00052   0.00001  -0.00359  -0.00385
 168       11D+2        0.00017   0.00021   0.00000  -0.00336  -0.00194
 169       11D-2        0.00000   0.00000   0.00000   0.00000   0.00000
 170       12D 0        0.00031  -0.00012   0.00000  -0.00138   0.00127
 171       12D+1        0.00000   0.00000   0.00000   0.00000   0.00000
 172       12D-1       -0.00038   0.00028   0.00002   0.00526  -0.00001
 173       12D+2       -0.00017  -0.00012  -0.00001   0.00184   0.00128
 174       12D-2        0.00000   0.00000   0.00000   0.00000   0.00000
 175       13F 0        0.00000  -0.00002   0.00000  -0.00034  -0.00011
 176       13F+1        0.00000   0.00000   0.00000   0.00000   0.00000
 177       13F-1        0.00001   0.00001   0.00000  -0.00014  -0.00028
 178       13F+2        0.00001   0.00001   0.00000  -0.00053  -0.00031
 179       13F-2        0.00000   0.00000   0.00000   0.00000   0.00000
 180       13F+3        0.00000   0.00000   0.00000   0.00000   0.00000
 181       13F-3       -0.00006  -0.00002   0.00000   0.00042   0.00003
 182       14F 0        0.00004   0.00019   0.00001  -0.00035  -0.00034
 183       14F+1        0.00000   0.00000   0.00000   0.00000   0.00000
 184       14F-1       -0.00003   0.00020   0.00000   0.00018  -0.00086
 185       14F+2        0.00000   0.00027   0.00000  -0.00075  -0.00096
 186       14F-2        0.00000   0.00000   0.00000   0.00000   0.00000
 187       14F+3        0.00000   0.00000   0.00000   0.00000   0.00000
 188       14F-3        0.00012  -0.00004   0.00000   0.00047   0.00062
                          11        12        13        14        15
     Eigenvalues --     1.97422   1.97127   1.97008   1.96733   1.96697
   1 1   C  1S         -0.05821  -0.10097   0.00000   0.00000   0.00000
   2        2S          0.15740   0.27232   0.00000   0.00000   0.00000
   3        3S          0.03719   0.06700   0.00000   0.00000   0.00000
   4        4S          0.02170   0.14446   0.00000   0.00000   0.00000
   5        5S         -0.01938   0.04466   0.00000   0.00000   0.00000
   6        6PX         0.00000   0.00000   0.00000   0.00000   0.10255
   7        6PY         0.00000   0.00000  -0.05215   0.00000   0.00000
   8        6PZ         0.09207   0.00934   0.00000   0.00000   0.00000
   9        7PX         0.00000   0.00000   0.00000   0.00000   0.12578
  10        7PY         0.00000   0.00000  -0.07673   0.00000   0.00000
  11        7PZ         0.11734  -0.00518   0.00000   0.00000   0.00000
  12        8PX         0.00000   0.00000   0.00000   0.00000   0.00547
  13        8PY         0.00000   0.00000   0.05618   0.00000   0.00000
  14        8PZ        -0.05408   0.03872   0.00000   0.00000   0.00000
  15        9PX         0.00000   0.00000   0.00000   0.00000  -0.00077
  16        9PY         0.00000   0.00000  -0.00043   0.00000   0.00000
  17        9PZ        -0.00710   0.01394   0.00000   0.00000   0.00000
  18       10D 0       -0.00762   0.01951   0.00000   0.00000   0.00000
  19       10D+1        0.00000   0.00000   0.00000   0.00000  -0.01495
  20       10D-1        0.00000   0.00000  -0.00909   0.00000   0.00000
  21       10D+2       -0.00974   0.00316   0.00000   0.00000   0.00000
  22       10D-2        0.00000   0.00000   0.00000  -0.02020   0.00000
  23       11D 0       -0.01738   0.03248   0.00000   0.00000   0.00000
  24       11D+1        0.00000   0.00000   0.00000   0.00000  -0.02466
  25       11D-1        0.00000   0.00000  -0.00646   0.00000   0.00000
  26       11D+2       -0.01772   0.00271   0.00000   0.00000   0.00000
  27       11D-2        0.00000   0.00000   0.00000  -0.03258   0.00000
  28       12D 0       -0.00513  -0.00368   0.00000   0.00000   0.00000
  29       12D+1        0.00000   0.00000   0.00000   0.00000  -0.00232
  30       12D-1        0.00000   0.00000   0.01180   0.00000   0.00000
  31       12D+2        0.00043  -0.00009   0.00000   0.00000   0.00000
  32       12D-2        0.00000   0.00000   0.00000   0.00882   0.00000
  33       13F 0        0.00845   0.00152   0.00000   0.00000   0.00000
  34       13F+1        0.00000   0.00000   0.00000   0.00000   0.00420
  35       13F-1        0.00000   0.00000   0.00928   0.00000   0.00000
  36       13F+2        0.00163   0.00278   0.00000   0.00000   0.00000
  37       13F-2        0.00000   0.00000   0.00000   0.00873   0.00000
  38       13F+3        0.00000   0.00000   0.00000   0.00000  -0.00781
  39       13F-3        0.00000   0.00000   0.00520   0.00000   0.00000
  40       14F 0        0.00658   0.00119   0.00000   0.00000   0.00000
  41       14F+1        0.00000   0.00000   0.00000   0.00000  -0.00148
  42       14F-1        0.00000   0.00000   0.01976   0.00000   0.00000
  43       14F+2        0.00688   0.00214   0.00000   0.00000   0.00000
  44       14F-2        0.00000   0.00000   0.00000   0.00952   0.00000
  45       14F+3        0.00000   0.00000   0.00000   0.00000  -0.00064
  46       14F-3        0.00000   0.00000   0.00029   0.00000   0.00000
  47 2   S  1S          0.03289   0.04311   0.00000   0.00000   0.00000
  48        2S         -0.12818  -0.16543   0.00000   0.00000   0.00000
  49        3S          0.25867   0.34835   0.00000   0.00000   0.00000
  50        4S          0.03300   0.04396   0.00000   0.00000   0.00000
  51        5S          0.17847   0.14940   0.00000   0.00000   0.00000
  52        6S          0.02595  -0.05640   0.00000   0.00000   0.00000
  53        7PX         0.00000   0.00000   0.00000   0.00000   0.01199
  54        7PY         0.00000   0.00000   0.00337   0.00000   0.00000
  55        7PZ         0.03060   0.03501   0.00000   0.00000   0.00000
  56        8PX         0.00000   0.00000   0.00000   0.00000  -0.03019
  57        8PY         0.00000   0.00000  -0.02024   0.00000   0.00000
  58        8PZ        -0.03539  -0.04165   0.00000   0.00000   0.00000
  59        9PX         0.00000   0.00000   0.00000   0.00000  -0.01361
  60        9PY         0.00000   0.00000  -0.00166   0.00000   0.00000
  61        9PZ        -0.01969  -0.02422   0.00000   0.00000   0.00000
  62       10PX         0.00000   0.00000   0.00000   0.00000  -0.02672
  63       10PY         0.00000   0.00000  -0.02399   0.00000   0.00000
  64       10PZ        -0.01361   0.03334   0.00000   0.00000   0.00000
  65       11PX         0.00000   0.00000   0.00000   0.00000  -0.00407
  66       11PY         0.00000   0.00000   0.00448   0.00000   0.00000
  67       11PZ        -0.00033   0.00956   0.00000   0.00000   0.00000
  68       12D 0        0.00559   0.00951   0.00000   0.00000   0.00000
  69       12D+1        0.00000   0.00000   0.00000   0.00000  -0.00828
  70       12D-1        0.00000   0.00000   0.02025   0.00000   0.00000
  71       12D+2       -0.00236   0.00202   0.00000   0.00000   0.00000
  72       12D-2        0.00000   0.00000   0.00000  -0.00429   0.00000
  73       13D 0        0.01744   0.01845   0.00000   0.00000   0.00000
  74       13D+1        0.00000   0.00000   0.00000   0.00000  -0.00489
  75       13D-1        0.00000   0.00000   0.00819   0.00000   0.00000
  76       13D+2       -0.00082   0.00167   0.00000   0.00000   0.00000
  77       13D-2        0.00000   0.00000   0.00000  -0.00133   0.00000
  78       14D 0       -0.00264  -0.01048   0.00000   0.00000   0.00000
  79       14D+1        0.00000   0.00000   0.00000   0.00000  -0.00277
  80       14D-1        0.00000   0.00000   0.01350   0.00000   0.00000
  81       14D+2       -0.00073  -0.00065   0.00000   0.00000   0.00000
  82       14D-2        0.00000   0.00000   0.00000  -0.00478   0.00000
  83       15F 0       -0.00548  -0.00704   0.00000   0.00000   0.00000
  84       15F+1        0.00000   0.00000   0.00000   0.00000   0.00188
  85       15F-1        0.00000   0.00000  -0.00522   0.00000   0.00000
  86       15F+2        0.00073  -0.00065   0.00000   0.00000   0.00000
  87       15F-2        0.00000   0.00000   0.00000   0.00141   0.00000
  88       15F+3        0.00000   0.00000   0.00000   0.00000  -0.00035
  89       15F-3        0.00000   0.00000   0.00027   0.00000   0.00000
  90       16F 0        0.00703   0.00084   0.00000   0.00000   0.00000
  91       16F+1        0.00000   0.00000   0.00000   0.00000   0.00192
  92       16F-1        0.00000   0.00000  -0.00178   0.00000   0.00000
  93       16F+2       -0.00049  -0.00049   0.00000   0.00000   0.00000
  94       16F-2        0.00000   0.00000   0.00000   0.00330   0.00000
  95       16F+3        0.00000   0.00000   0.00000   0.00000   0.00033
  96       16F-3        0.00000   0.00000  -0.00039   0.00000   0.00000
  97 3   F  1S          0.00086   0.02762   0.01574   0.00000   0.00000
  98        2S         -0.00401  -0.07771  -0.04111   0.00000   0.00000
  99        3S         -0.00101  -0.02635  -0.01377   0.00000   0.00000
 100        4S         -0.01734  -0.10087  -0.03952   0.00000   0.00000
 101        5S         -0.01637  -0.01839   0.00602   0.00000   0.00000
 102        6PX         0.00000   0.00000   0.00000   0.27589   0.25152
 103        6PY        -0.10521   0.15764  -0.15378   0.00000   0.00000
 104        6PZ         0.17809  -0.07235   0.23058   0.00000   0.00000
 105        7PX         0.00000   0.00000   0.00000   0.33584   0.30686
 106        7PY        -0.12854   0.18897  -0.18676   0.00000   0.00000
 107        7PZ         0.21445  -0.08926   0.27848   0.00000   0.00000
 108        8PX         0.00000   0.00000   0.00000   0.23490   0.21153
 109        8PY        -0.08773   0.10443  -0.14783   0.00000   0.00000
 110        8PZ         0.14538  -0.08156   0.18745   0.00000   0.00000
 111        9PX         0.00000   0.00000   0.00000   0.02741   0.01713
 112        9PY        -0.01234   0.00600  -0.01266   0.00000   0.00000
 113        9PZ         0.01001  -0.01478   0.02336   0.00000   0.00000
 114       10D 0        0.00237  -0.00129   0.00231   0.00000   0.00000
 115       10D+1        0.00000   0.00000   0.00000   0.00174   0.00186
 116       10D-1        0.00147   0.00152   0.00120   0.00000   0.00000
 117       10D+2        0.00127  -0.00238   0.00074   0.00000   0.00000
 118       10D-2        0.00000   0.00000   0.00000   0.00212   0.00299
 119       11D 0        0.00841  -0.00532   0.00855   0.00000   0.00000
 120       11D+1        0.00000   0.00000   0.00000   0.00715   0.00784
 121       11D-1        0.00386   0.00325   0.00422   0.00000   0.00000
 122       11D+2        0.00480  -0.00745   0.00345   0.00000   0.00000
 123       11D-2        0.00000   0.00000   0.00000   0.00958   0.01218
 124       12D 0        0.00557  -0.00341   0.00710   0.00000   0.00000
 125       12D+1        0.00000   0.00000   0.00000   0.00470   0.00430
 126       12D-1        0.00336  -0.00311  -0.00190   0.00000   0.00000
 127       12D+2       -0.00018  -0.00016   0.00880   0.00000   0.00000
 128       12D-2        0.00000   0.00000   0.00000   0.00566   0.00793
 129       13F 0        0.00037  -0.00081   0.00061   0.00000   0.00000
 130       13F+1        0.00000   0.00000   0.00000   0.00028   0.00029
 131       13F-1        0.00167  -0.00049   0.00173   0.00000   0.00000
 132       13F+2       -0.00002  -0.00099  -0.00002   0.00000   0.00000
 133       13F-2        0.00000   0.00000   0.00000   0.00150   0.00166
 134       13F+3        0.00000   0.00000   0.00000  -0.00086  -0.00151
 135       13F-3        0.00073  -0.00089   0.00031   0.00000   0.00000
 136       14F 0        0.00189  -0.00115   0.00067   0.00000   0.00000
 137       14F+1        0.00000   0.00000   0.00000   0.00072   0.00031
 138       14F-1        0.00218  -0.00164   0.00293   0.00000   0.00000
 139       14F+2        0.00030  -0.00088  -0.00023   0.00000   0.00000
 140       14F-2        0.00000   0.00000   0.00000   0.00268   0.00295
 141       14F+3        0.00000   0.00000   0.00000  -0.00256  -0.00210
 142       14F-3        0.00037  -0.00126   0.00152   0.00000   0.00000
 143 4   F  1S          0.00086   0.02762  -0.01574   0.00000   0.00000
 144        2S         -0.00401  -0.07771   0.04111   0.00000   0.00000
 145        3S         -0.00101  -0.02635   0.01377   0.00000   0.00000
 146        4S         -0.01734  -0.10087   0.03952   0.00000   0.00000
 147        5S         -0.01637  -0.01839  -0.00602   0.00000   0.00000
 148        6PX         0.00000   0.00000   0.00000  -0.27589   0.25152
 149        6PY         0.10521  -0.15764  -0.15378   0.00000   0.00000
 150        6PZ         0.17809  -0.07235  -0.23058   0.00000   0.00000
 151        7PX         0.00000   0.00000   0.00000  -0.33584   0.30686
 152        7PY         0.12854  -0.18897  -0.18676   0.00000   0.00000
 153        7PZ         0.21445  -0.08926  -0.27848   0.00000   0.00000
 154        8PX         0.00000   0.00000   0.00000  -0.23490   0.21153
 155        8PY         0.08773  -0.10443  -0.14783   0.00000   0.00000
 156        8PZ         0.14538  -0.08156  -0.18745   0.00000   0.00000
 157        9PX         0.00000   0.00000   0.00000  -0.02741   0.01713
 158        9PY         0.01234  -0.00600  -0.01266   0.00000   0.00000
 159        9PZ         0.01001  -0.01478  -0.02336   0.00000   0.00000
 160       10D 0        0.00237  -0.00129  -0.00231   0.00000   0.00000
 161       10D+1        0.00000   0.00000   0.00000  -0.00174   0.00186
 162       10D-1       -0.00147  -0.00152   0.00120   0.00000   0.00000
 163       10D+2        0.00127  -0.00238  -0.00074   0.00000   0.00000
 164       10D-2        0.00000   0.00000   0.00000   0.00212  -0.00299
 165       11D 0        0.00841  -0.00532  -0.00855   0.00000   0.00000
 166       11D+1        0.00000   0.00000   0.00000  -0.00715   0.00784
 167       11D-1       -0.00386  -0.00325   0.00422   0.00000   0.00000
 168       11D+2        0.00480  -0.00745  -0.00345   0.00000   0.00000
 169       11D-2        0.00000   0.00000   0.00000   0.00958  -0.01218
 170       12D 0        0.00557  -0.00341  -0.00710   0.00000   0.00000
 171       12D+1        0.00000   0.00000   0.00000  -0.00470   0.00430
 172       12D-1       -0.00336   0.00311  -0.00190   0.00000   0.00000
 173       12D+2       -0.00018  -0.00016  -0.00880   0.00000   0.00000
 174       12D-2        0.00000   0.00000   0.00000   0.00566  -0.00793
 175       13F 0        0.00037  -0.00081  -0.00061   0.00000   0.00000
 176       13F+1        0.00000   0.00000   0.00000  -0.00028   0.00029
 177       13F-1       -0.00167   0.00049   0.00173   0.00000   0.00000
 178       13F+2       -0.00002  -0.00099   0.00002   0.00000   0.00000
 179       13F-2        0.00000   0.00000   0.00000   0.00150  -0.00166
 180       13F+3        0.00000   0.00000   0.00000   0.00086  -0.00151
 181       13F-3       -0.00073   0.00089   0.00031   0.00000   0.00000
 182       14F 0        0.00189  -0.00115  -0.00067   0.00000   0.00000
 183       14F+1        0.00000   0.00000   0.00000  -0.00072   0.00031
 184       14F-1       -0.00218   0.00164   0.00293   0.00000   0.00000
 185       14F+2        0.00030  -0.00088   0.00023   0.00000   0.00000
 186       14F-2        0.00000   0.00000   0.00000   0.00268  -0.00295
 187       14F+3        0.00000   0.00000   0.00000   0.00256  -0.00210
 188       14F-3       -0.00037   0.00126   0.00152   0.00000   0.00000
                          16        17        18        19        20
     Eigenvalues --     1.96293   1.95902   1.94283   1.93938   1.91777
   1 1   C  1S         -0.08206   0.00000   0.07702   0.00000   0.00000
   2        2S          0.21487   0.00000  -0.22941   0.00000   0.00000
   3        3S          0.05590   0.00000  -0.05909   0.00000   0.00000
   4        4S          0.09804   0.00000  -0.16361   0.00000   0.00000
   5        5S         -0.01952   0.00000  -0.02224   0.00000   0.00000
   6        6PX         0.00000   0.00000   0.00000   0.00000   0.18249
   7        6PY         0.00000   0.19214   0.00000   0.03441   0.00000
   8        6PZ        -0.13772   0.00000  -0.18003   0.00000   0.00000
   9        7PX         0.00000   0.00000   0.00000   0.00000   0.25554
  10        7PY         0.00000   0.23382   0.00000   0.04906   0.00000
  11        7PZ        -0.17138   0.00000  -0.22081   0.00000   0.00000
  12        8PX         0.00000   0.00000   0.00000   0.00000   0.13708
  13        8PY         0.00000   0.05709   0.00000   0.04928   0.00000
  14        8PZ        -0.01419   0.00000  -0.06748   0.00000   0.00000
  15        9PX         0.00000   0.00000   0.00000   0.00000   0.02113
  16        9PY         0.00000   0.00003   0.00000  -0.00370   0.00000
  17        9PZ        -0.00539   0.00000  -0.00551   0.00000   0.00000
  18       10D 0       -0.00724   0.00000  -0.01011   0.00000   0.00000
  19       10D+1        0.00000   0.00000   0.00000   0.00000   0.01595
  20       10D-1        0.00000  -0.02639   0.00000   0.02119   0.00000
  21       10D+2       -0.01486   0.00000  -0.00761   0.00000   0.00000
  22       10D-2        0.00000   0.00000   0.00000   0.00000   0.00000
  23       11D 0       -0.01839   0.00000  -0.01741   0.00000   0.00000
  24       11D+1        0.00000   0.00000   0.00000   0.00000   0.04792
  25       11D-1        0.00000  -0.05766   0.00000   0.05131   0.00000
  26       11D+2       -0.03592   0.00000  -0.01919   0.00000   0.00000
  27       11D-2        0.00000   0.00000   0.00000   0.00000   0.00000
  28       12D 0        0.00259   0.00000  -0.00582   0.00000   0.00000
  29       12D+1        0.00000   0.00000   0.00000   0.00000   0.01873
  30       12D-1        0.00000  -0.00361   0.00000  -0.02413   0.00000
  31       12D+2        0.00422   0.00000  -0.00258   0.00000   0.00000
  32       12D-2        0.00000   0.00000   0.00000   0.00000   0.00000
  33       13F 0        0.00209   0.00000  -0.00393   0.00000   0.00000
  34       13F+1        0.00000   0.00000   0.00000   0.00000   0.00681
  35       13F-1        0.00000   0.00794   0.00000   0.00716   0.00000
  36       13F+2        0.00538   0.00000   0.00170   0.00000   0.00000
  37       13F-2        0.00000   0.00000   0.00000   0.00000   0.00000
  38       13F+3        0.00000   0.00000   0.00000   0.00000   0.00044
  39       13F-3        0.00000  -0.00253   0.00000   0.00207   0.00000
  40       14F 0        0.01009   0.00000   0.00117   0.00000   0.00000
  41       14F+1        0.00000   0.00000   0.00000   0.00000   0.00036
  42       14F-1        0.00000   0.01873   0.00000  -0.00053   0.00000
  43       14F+2        0.01090   0.00000   0.00045   0.00000   0.00000
  44       14F-2        0.00000   0.00000   0.00000   0.00000   0.00000
  45       14F+3        0.00000   0.00000   0.00000   0.00000   0.00393
  46       14F-3        0.00000  -0.00216   0.00000   0.00041   0.00000
  47 2   S  1S         -0.03606   0.00000   0.02980   0.00000   0.00000
  48        2S          0.13753   0.00000  -0.11422   0.00000   0.00000
  49        3S         -0.29759   0.00000   0.26333   0.00000   0.00000
  50        4S         -0.04086   0.00000   0.03784   0.00000   0.00000
  51        5S         -0.18735   0.00000   0.32941   0.00000   0.00000
  52        6S          0.01492   0.00000   0.05475   0.00000   0.00000
  53        7PX         0.00000   0.00000   0.00000   0.00000  -0.18850
  54        7PY         0.00000  -0.01461   0.00000  -0.21577   0.00000
  55        7PZ        -0.00958   0.00000  -0.17454   0.00000   0.00000
  56        8PX         0.00000   0.00000   0.00000   0.00000   0.43188
  57        8PY         0.00000   0.02944   0.00000   0.52205   0.00000
  58        8PZ         0.00623   0.00000   0.36086   0.00000   0.00000
  59        9PX         0.00000   0.00000   0.00000   0.00000   0.17745
  60        9PY         0.00000   0.01499   0.00000   0.21963   0.00000
  61        9PZ         0.00497   0.00000   0.16556   0.00000   0.00000
  62       10PX         0.00000   0.00000   0.00000   0.00000   0.23594
  63       10PY         0.00000   0.00397   0.00000   0.36967   0.00000
  64       10PZ         0.00253   0.00000   0.09588   0.00000   0.00000
  65       11PX         0.00000   0.00000   0.00000   0.00000   0.00022
  66       11PY         0.00000   0.00053   0.00000   0.02703   0.00000
  67       11PZ        -0.00287   0.00000  -0.00444   0.00000   0.00000
  68       12D 0       -0.00063   0.00000  -0.02731   0.00000   0.00000
  69       12D+1        0.00000   0.00000   0.00000   0.00000  -0.03405
  70       12D-1        0.00000  -0.00526   0.00000  -0.01339   0.00000
  71       12D+2       -0.00153   0.00000  -0.00085   0.00000   0.00000
  72       12D-2        0.00000   0.00000   0.00000   0.00000   0.00000
  73       13D 0       -0.00649   0.00000  -0.04889   0.00000   0.00000
  74       13D+1        0.00000   0.00000   0.00000   0.00000  -0.03478
  75       13D-1        0.00000  -0.00899   0.00000  -0.01518   0.00000
  76       13D+2       -0.00100   0.00000  -0.00097   0.00000   0.00000
  77       13D-2        0.00000   0.00000   0.00000   0.00000   0.00000
  78       14D 0        0.00127   0.00000   0.00526   0.00000   0.00000
  79       14D+1        0.00000   0.00000   0.00000   0.00000  -0.00441
  80       14D-1        0.00000   0.00209   0.00000  -0.01783   0.00000
  81       14D+2       -0.00079   0.00000  -0.00189   0.00000   0.00000
  82       14D-2        0.00000   0.00000   0.00000   0.00000   0.00000
  83       15F 0        0.00408   0.00000   0.01585   0.00000   0.00000
  84       15F+1        0.00000   0.00000   0.00000   0.00000   0.01219
  85       15F-1        0.00000   0.00324   0.00000   0.00824   0.00000
  86       15F+2        0.00021   0.00000   0.00216   0.00000   0.00000
  87       15F-2        0.00000   0.00000   0.00000   0.00000   0.00000
  88       15F+3        0.00000   0.00000   0.00000   0.00000   0.00241
  89       15F-3        0.00000   0.00011   0.00000   0.00263   0.00000
  90       16F 0       -0.00185   0.00000  -0.00549   0.00000   0.00000
  91       16F+1        0.00000   0.00000   0.00000   0.00000  -0.00092
  92       16F-1        0.00000  -0.00068   0.00000   0.00215   0.00000
  93       16F+2        0.00066   0.00000   0.00078   0.00000   0.00000
  94       16F-2        0.00000   0.00000   0.00000   0.00000   0.00000
  95       16F+3        0.00000   0.00000   0.00000   0.00000   0.00188
  96       16F-3        0.00000   0.00142   0.00000   0.00239   0.00000
  97 3   F  1S          0.00653   0.00869  -0.01328  -0.01587   0.00000
  98        2S         -0.02537  -0.01355   0.03679   0.04329   0.00000
  99        3S         -0.01181   0.00001   0.01063   0.01359   0.00000
 100        4S         -0.09952   0.07909   0.01990   0.03740   0.00000
 101        5S         -0.02163   0.03563  -0.00569   0.05594   0.00000
 102        6PX         0.00000   0.00000   0.00000   0.00000  -0.05446
 103        6PY         0.11776  -0.21829   0.02792   0.02023   0.00000
 104        6PZ         0.16397  -0.10539   0.06335   0.05341   0.00000
 105        7PX         0.00000   0.00000   0.00000   0.00000  -0.06590
 106        7PY         0.14236  -0.26485   0.03559   0.02681   0.00000
 107        7PZ         0.19840  -0.12838   0.07860   0.06620   0.00000
 108        8PX         0.00000   0.00000   0.00000   0.00000  -0.06168
 109        8PY         0.05935  -0.14301   0.01582   0.00908   0.00000
 110        8PZ         0.10750  -0.06484   0.05301   0.05374   0.00000
 111        9PX         0.00000   0.00000   0.00000   0.00000  -0.02573
 112        9PY        -0.00460  -0.00873   0.00008   0.01512   0.00000
 113        9PZ         0.00828   0.00444   0.01078   0.01822   0.00000
 114       10D 0       -0.00001  -0.00036  -0.00067  -0.00039   0.00000
 115       10D+1        0.00000   0.00000   0.00000   0.00000   0.00108
 116       10D-1        0.00423  -0.00483   0.00050   0.00044   0.00000
 117       10D+2       -0.00285   0.00291  -0.00097  -0.00022   0.00000
 118       10D-2        0.00000   0.00000   0.00000   0.00000   0.00111
 119       11D 0       -0.00025  -0.00212  -0.00220  -0.00231   0.00000
 120       11D+1        0.00000   0.00000   0.00000   0.00000   0.00385
 121       11D-1        0.01417  -0.01659   0.00308   0.00208   0.00000
 122       11D+2       -0.00933   0.00952  -0.00354  -0.00209   0.00000
 123       11D-2        0.00000   0.00000   0.00000   0.00000   0.00300
 124       12D 0       -0.00167  -0.00488  -0.00329  -0.00042   0.00000
 125       12D+1        0.00000   0.00000   0.00000   0.00000   0.00205
 126       12D-1        0.00006  -0.00378  -0.00224  -0.00167   0.00000
 127       12D+2       -0.00184   0.00107  -0.00015   0.00231   0.00000
 128       12D-2        0.00000   0.00000   0.00000   0.00000   0.00373
 129       13F 0       -0.00113   0.00119  -0.00036  -0.00028   0.00000
 130       13F+1        0.00000   0.00000   0.00000   0.00000   0.00024
 131       13F-1        0.00107  -0.00117  -0.00007   0.00010   0.00000
 132       13F+2       -0.00193   0.00225  -0.00048  -0.00029   0.00000
 133       13F-2        0.00000   0.00000   0.00000   0.00000   0.00054
 134       13F+3        0.00000   0.00000   0.00000   0.00000  -0.00036
 135       13F-3       -0.00107   0.00095  -0.00055  -0.00010   0.00000
 136       14F 0       -0.00159   0.00121  -0.00135  -0.00094   0.00000
 137       14F+1        0.00000   0.00000   0.00000   0.00000   0.00051
 138       14F-1        0.00094  -0.00316   0.00002  -0.00068   0.00000
 139       14F+2       -0.00314   0.00340  -0.00139  -0.00032   0.00000
 140       14F-2        0.00000   0.00000   0.00000   0.00000   0.00054
 141       14F+3        0.00000   0.00000   0.00000   0.00000  -0.00018
 142       14F-3       -0.00157   0.00179  -0.00027  -0.00054   0.00000
 143 4   F  1S          0.00653  -0.00869  -0.01328   0.01587   0.00000
 144        2S         -0.02537   0.01355   0.03679  -0.04329   0.00000
 145        3S         -0.01181  -0.00001   0.01063  -0.01359   0.00000
 146        4S         -0.09952  -0.07909   0.01990  -0.03740   0.00000
 147        5S         -0.02163  -0.03563  -0.00569  -0.05594   0.00000
 148        6PX         0.00000   0.00000   0.00000   0.00000  -0.05446
 149        6PY        -0.11776  -0.21829  -0.02792   0.02023   0.00000
 150        6PZ         0.16397   0.10539   0.06335  -0.05341   0.00000
 151        7PX         0.00000   0.00000   0.00000   0.00000  -0.06590
 152        7PY        -0.14236  -0.26485  -0.03559   0.02681   0.00000
 153        7PZ         0.19840   0.12838   0.07860  -0.06620   0.00000
 154        8PX         0.00000   0.00000   0.00000   0.00000  -0.06168
 155        8PY        -0.05935  -0.14301  -0.01582   0.00908   0.00000
 156        8PZ         0.10750   0.06484   0.05301  -0.05374   0.00000
 157        9PX         0.00000   0.00000   0.00000   0.00000  -0.02573
 158        9PY         0.00460  -0.00873  -0.00008   0.01512   0.00000
 159        9PZ         0.00828  -0.00444   0.01078  -0.01822   0.00000
 160       10D 0       -0.00001   0.00036  -0.00067   0.00039   0.00000
 161       10D+1        0.00000   0.00000   0.00000   0.00000   0.00108
 162       10D-1       -0.00423  -0.00483  -0.00050   0.00044   0.00000
 163       10D+2       -0.00285  -0.00291  -0.00097   0.00022   0.00000
 164       10D-2        0.00000   0.00000   0.00000   0.00000  -0.00111
 165       11D 0       -0.00025   0.00212  -0.00220   0.00231   0.00000
 166       11D+1        0.00000   0.00000   0.00000   0.00000   0.00385
 167       11D-1       -0.01417  -0.01659  -0.00308   0.00208   0.00000
 168       11D+2       -0.00933  -0.00952  -0.00354   0.00209   0.00000
 169       11D-2        0.00000   0.00000   0.00000   0.00000  -0.00300
 170       12D 0       -0.00167   0.00488  -0.00329   0.00042   0.00000
 171       12D+1        0.00000   0.00000   0.00000   0.00000   0.00205
 172       12D-1       -0.00006  -0.00378   0.00224  -0.00167   0.00000
 173       12D+2       -0.00184  -0.00107  -0.00015  -0.00231   0.00000
 174       12D-2        0.00000   0.00000   0.00000   0.00000  -0.00373
 175       13F 0       -0.00113  -0.00119  -0.00036   0.00028   0.00000
 176       13F+1        0.00000   0.00000   0.00000   0.00000   0.00024
 177       13F-1       -0.00107  -0.00117   0.00007   0.00010   0.00000
 178       13F+2       -0.00193  -0.00225  -0.00048   0.00029   0.00000
 179       13F-2        0.00000   0.00000   0.00000   0.00000  -0.00054
 180       13F+3        0.00000   0.00000   0.00000   0.00000  -0.00036
 181       13F-3        0.00107   0.00095   0.00055  -0.00010   0.00000
 182       14F 0       -0.00159  -0.00121  -0.00135   0.00094   0.00000
 183       14F+1        0.00000   0.00000   0.00000   0.00000   0.00051
 184       14F-1       -0.00094  -0.00316  -0.00002  -0.00068   0.00000
 185       14F+2       -0.00314  -0.00340  -0.00139   0.00032   0.00000
 186       14F-2        0.00000   0.00000   0.00000   0.00000  -0.00054
 187       14F+3        0.00000   0.00000   0.00000   0.00000  -0.00018
 188       14F-3        0.00157   0.00179   0.00027  -0.00054   0.00000
                          21        22        23        24        25
     Eigenvalues --     0.07337   0.04077   0.03935   0.03200   0.01916
   1 1   C  1S          0.00000   0.17730   0.00000   0.03096   0.03257
   2        2S          0.00000  -0.60457   0.00000  -0.07980  -0.09469
   3        3S          0.00000  -0.21430   0.00000   0.01646  -0.04033
   4        4S          0.00000  -0.64486   0.00000   0.06566   0.08109
   5        5S          0.00000  -0.12110   0.00000   0.03390   0.09849
   6        6PX         0.31769   0.00000   0.00000   0.00000   0.00000
   7        6PY         0.00000   0.00000   0.30426   0.00000   0.00000
   8        6PZ         0.00000  -0.03798   0.00000   0.37294   0.05470
   9        7PX         0.44571   0.00000   0.00000   0.00000   0.00000
  10        7PY         0.00000   0.00000   0.58607   0.00000   0.00000
  11        7PZ         0.00000  -0.03266   0.00000   0.67203   0.05499
  12        8PX         0.15576   0.00000   0.00000   0.00000   0.00000
  13        8PY         0.00000   0.00000   0.10573   0.00000   0.00000
  14        8PZ         0.00000  -0.21022   0.00000   0.28284   0.30767
  15        9PX         0.00795   0.00000   0.00000   0.00000   0.00000
  16        9PY         0.00000   0.00000   0.01572   0.00000   0.00000
  17        9PZ         0.00000  -0.00744   0.00000  -0.00494   0.03387
  18       10D 0        0.00000  -0.00138   0.00000   0.01025   0.05728
  19       10D+1        0.01641   0.00000   0.00000   0.00000   0.00000
  20       10D-1        0.00000   0.00000   0.03078   0.00000   0.00000
  21       10D+2        0.00000  -0.00920   0.00000   0.00353   0.04724
  22       10D-2        0.00000   0.00000   0.00000   0.00000   0.00000
  23       11D 0        0.00000  -0.04200   0.00000   0.07544   0.15423
  24       11D+1        0.07309   0.00000   0.00000   0.00000   0.00000
  25       11D-1        0.00000   0.00000  -0.06216   0.00000   0.00000
  26       11D+2        0.00000   0.03070   0.00000   0.06618   0.14385
  27       11D-2        0.00000   0.00000   0.00000   0.00000   0.00000
  28       12D 0        0.00000  -0.05221   0.00000   0.02455   0.01641
  29       12D+1        0.02850   0.00000   0.00000   0.00000   0.00000
  30       12D-1        0.00000   0.00000  -0.03045   0.00000   0.00000
  31       12D+2        0.00000   0.00755   0.00000   0.02041   0.02446
  32       12D-2        0.00000   0.00000   0.00000   0.00000   0.00000
  33       13F 0        0.00000  -0.00755   0.00000   0.01404  -0.00192
  34       13F+1        0.01207   0.00000   0.00000   0.00000   0.00000
  35       13F-1        0.00000   0.00000   0.03357   0.00000   0.00000
  36       13F+2        0.00000  -0.02278   0.00000  -0.02092   0.01281
  37       13F-2        0.00000   0.00000   0.00000   0.00000   0.00000
  38       13F+3       -0.00132   0.00000   0.00000   0.00000   0.00000
  39       13F-3        0.00000   0.00000  -0.01162   0.00000   0.00000
  40       14F 0        0.00000  -0.02553   0.00000  -0.00910  -0.02587
  41       14F+1        0.02887   0.00000   0.00000   0.00000   0.00000
  42       14F-1        0.00000   0.00000   0.11528   0.00000   0.00000
  43       14F+2        0.00000  -0.01618   0.00000  -0.04165  -0.02769
  44       14F-2        0.00000   0.00000   0.00000   0.00000   0.00000
  45       14F+3        0.00925   0.00000   0.00000   0.00000   0.00000
  46       14F-3        0.00000   0.00000   0.02785   0.00000   0.00000
  47 2   S  1S          0.00000   0.02052   0.00000  -0.01318   0.01079
  48        2S          0.00000  -0.05538   0.00000   0.02910  -0.05360
  49        3S          0.00000   0.21628   0.00000  -0.14813   0.09345
  50        4S          0.00000   0.00999   0.00000   0.02783   0.08222
  51        5S          0.00000   0.51053   0.00000  -0.54903  -0.38831
  52        6S          0.00000   0.15323   0.00000  -0.13685  -0.17951
  53        7PX         0.18356   0.00000   0.00000   0.00000   0.00000
  54        7PY         0.00000   0.00000   0.10424   0.00000   0.00000
  55        7PZ         0.00000   0.17882   0.00000  -0.09708   0.03139
  56        8PX        -0.49109   0.00000   0.00000   0.00000   0.00000
  57        8PY         0.00000   0.00000  -0.29521   0.00000   0.00000
  58        8PZ         0.00000  -0.59141   0.00000   0.49308   0.02401
  59        9PX        -0.20126   0.00000   0.00000   0.00000   0.00000
  60        9PY         0.00000   0.00000  -0.14102   0.00000   0.00000
  61        9PZ         0.00000  -0.19583   0.00000   0.09214  -0.04592
  62       10PX        -0.12987   0.00000   0.00000   0.00000   0.00000
  63       10PY         0.00000   0.00000   0.03639   0.00000   0.00000
  64       10PZ         0.00000  -0.31055   0.00000   0.36643   0.19695
  65       11PX        -0.00367   0.00000   0.00000   0.00000   0.00000
  66       11PY         0.00000   0.00000  -0.00240   0.00000   0.00000
  67       11PZ         0.00000  -0.02150   0.00000   0.02508   0.02211
  68       12D 0        0.00000  -0.07595   0.00000   0.05346   0.11345
  69       12D+1       -0.05829   0.00000   0.00000   0.00000   0.00000
  70       12D-1        0.00000   0.00000  -0.18733   0.00000   0.00000
  71       12D+2        0.00000  -0.04607   0.00000   0.02743   0.40298
  72       12D-2        0.00000   0.00000   0.00000   0.00000   0.00000
  73       13D 0        0.00000  -0.09764   0.00000   0.14412   0.10851
  74       13D+1       -0.07119   0.00000   0.00000   0.00000   0.00000
  75       13D-1        0.00000   0.00000  -0.15822   0.00000   0.00000
  76       13D+2        0.00000  -0.03237   0.00000   0.01566   0.28660
  77       13D-2        0.00000   0.00000   0.00000   0.00000   0.00000
  78       14D 0        0.00000   0.03762   0.00000  -0.07277  -0.03262
  79       14D+1        0.01354   0.00000   0.00000   0.00000   0.00000
  80       14D-1        0.00000   0.00000  -0.03328   0.00000   0.00000
  81       14D+2        0.00000  -0.00866   0.00000   0.00394   0.02538
  82       14D-2        0.00000   0.00000   0.00000   0.00000   0.00000
  83       15F 0        0.00000   0.01802   0.00000  -0.02386  -0.02401
  84       15F+1        0.01935   0.00000   0.00000   0.00000   0.00000
  85       15F-1        0.00000   0.00000   0.03200   0.00000   0.00000
  86       15F+2        0.00000   0.00290   0.00000  -0.00299  -0.03437
  87       15F-2        0.00000   0.00000   0.00000   0.00000   0.00000
  88       15F+3       -0.00357   0.00000   0.00000   0.00000   0.00000
  89       15F-3        0.00000   0.00000  -0.00157   0.00000   0.00000
  90       16F 0        0.00000   0.00702   0.00000   0.02763  -0.01184
  91       16F+1       -0.00666   0.00000   0.00000   0.00000   0.00000
  92       16F-1        0.00000   0.00000   0.00773   0.00000   0.00000
  93       16F+2        0.00000   0.00484   0.00000  -0.00704  -0.02310
  94       16F-2        0.00000   0.00000   0.00000   0.00000   0.00000
  95       16F+3       -0.00299   0.00000   0.00000   0.00000   0.00000
  96       16F-3        0.00000   0.00000  -0.00076   0.00000   0.00000
  97 3   F  1S          0.00000  -0.03591  -0.04094  -0.04400  -0.00544
[...]
  94       16F-2        0.00000   0.00000   0.00000   0.00000   0.00000
  95       16F+3        0.00000   0.00000   0.00000  -0.04406   0.00000
  96       16F-3       -0.01551  -0.07259   0.00000   0.00000   0.00332
  97 3   F  1S         -0.03897   0.00176  -0.04757   0.00000  -0.08966
  98        2S         -0.15639  -0.03427  -0.20675   0.00000  -0.42010
  99        3S          0.05315  -0.04587   0.04976   0.00000   0.05347
 100        4S          1.66154   0.62410   0.88355   0.00000   3.25079
 101        5S          6.50307   0.80924   7.25731   0.00000  17.26988
 102        6PX         0.00000   0.00000   0.00000   0.01977   0.00000
 103        6PY         0.00227   0.01180   0.00545   0.00000   0.01266
 104        6PZ        -0.02219   0.00620   0.00271   0.00000   0.00521
 105        7PX         0.00000   0.00000   0.00000  -0.07431   0.00000
 106        7PY         0.03993  -0.07033  -0.04596   0.00000  -0.05141
 107        7PZ         0.15601  -0.04787  -0.02354   0.00000  -0.01482
 108        8PX         0.00000   0.00000   0.00000   0.07034   0.00000
 109        8PY         0.67690   0.94629   0.34769   0.00000   2.54009
 110        8PZ        -1.79822   1.21222   0.06828   0.00000   0.78235
 111        9PX         0.00000   0.00000   0.00000  -1.14272   0.00000
 112        9PY        -0.09045  -1.63342   0.74925   0.00000   4.93991
 113        9PZ        -1.84074   0.21158   4.79317   0.00000   1.67496
 114       10D 0       -0.01787  -0.00695   0.00104   0.00000  -0.00280
 115       10D+1        0.00000   0.00000   0.00000  -0.01508   0.00000
 116       10D-1       -0.00819  -0.00694   0.02644   0.00000   0.00018
 117       10D+2        0.04946   0.01881   0.00537   0.00000  -0.00316
 118       10D-2        0.00000   0.00000   0.00000  -0.00453   0.00000
 119       11D 0        0.04905   0.01758   0.00149   0.00000   0.00785
 120       11D+1        0.00000   0.00000   0.00000   0.05623   0.00000
 121       11D-1        0.03161   0.04740  -0.09203   0.00000   0.03258
 122       11D+2       -0.18252  -0.06633  -0.01227   0.00000  -0.01931
 123       11D-2        0.00000   0.00000   0.00000   0.01704   0.00000
 124       12D 0       -0.81886   0.15553  -0.11074   0.00000  -0.44694
 125       12D+1        0.00000   0.00000   0.00000  -0.18492   0.00000
 126       12D-1       -0.35108   0.37706   0.12687   0.00000   0.42786
 127       12D+2        0.35519  -0.11799  -0.01322   0.00000  -0.50141
 128       12D-2        0.00000   0.00000   0.00000  -0.09997   0.00000
 129       13F 0        0.00739   0.01740   0.00435   0.00000   0.00967
 130       13F+1        0.00000   0.00000   0.00000  -0.01016   0.00000
 131       13F-1        0.00066  -0.01703   0.02644   0.00000   0.00954
 132       13F+2        0.02965   0.01655  -0.02178   0.00000   0.00334
 133       13F-2        0.00000   0.00000   0.00000   0.00883   0.00000
 134       13F+3        0.00000   0.00000   0.00000  -0.00065   0.00000
 135       13F-3       -0.01899   0.01965   0.00843   0.00000  -0.00522
 136       14F 0       -0.04747  -0.05052  -0.00746   0.00000  -0.06418
 137       14F+1        0.00000   0.00000   0.00000   0.01630   0.00000
 138       14F-1       -0.05274   0.06124  -0.05233   0.00000  -0.02610
 139       14F+2       -0.04647  -0.07250   0.03782   0.00000  -0.05438
 140       14F-2        0.00000   0.00000   0.00000  -0.01012   0.00000
 141       14F+3        0.00000   0.00000   0.00000   0.00126   0.00000
 142       14F-3        0.05341  -0.05929  -0.02133   0.00000  -0.02154
 143 4   F  1S          0.03897  -0.00176  -0.04757   0.00000   0.08966
 144        2S          0.15639   0.03427  -0.20675   0.00000   0.42010
 145        3S         -0.05315   0.04587   0.04976   0.00000  -0.05347
 146        4S         -1.66154  -0.62410   0.88355   0.00000  -3.25079
 147        5S         -6.50307  -0.80924   7.25731   0.00000 -17.26988
 148        6PX         0.00000   0.00000   0.00000   0.01977   0.00000
 149        6PY         0.00227   0.01180  -0.00545   0.00000   0.01266
 150        6PZ         0.02219  -0.00620   0.00271   0.00000  -0.00521
 151        7PX         0.00000   0.00000   0.00000  -0.07431   0.00000
 152        7PY         0.03993  -0.07033   0.04596   0.00000  -0.05141
 153        7PZ        -0.15601   0.04787  -0.02354   0.00000   0.01482
 154        8PX         0.00000   0.00000   0.00000   0.07034   0.00000
 155        8PY         0.67690   0.94629  -0.34769   0.00000   2.54009
 156        8PZ         1.79822  -1.21222   0.06828   0.00000  -0.78235
 157        9PX         0.00000   0.00000   0.00000  -1.14272   0.00000
 158        9PY        -0.09045  -1.63342  -0.74925   0.00000   4.93991
 159        9PZ         1.84074  -0.21158   4.79317   0.00000  -1.67496
 160       10D 0        0.01787   0.00695   0.00104   0.00000   0.00280
 161       10D+1        0.00000   0.00000   0.00000  -0.01508   0.00000
 162       10D-1       -0.00819  -0.00694  -0.02644   0.00000   0.00018
 163       10D+2       -0.04946  -0.01881   0.00537   0.00000   0.00316
 164       10D-2        0.00000   0.00000   0.00000   0.00453   0.00000
 165       11D 0       -0.04905  -0.01758   0.00149   0.00000  -0.00785
 166       11D+1        0.00000   0.00000   0.00000   0.05623   0.00000
 167       11D-1        0.03161   0.04740   0.09203   0.00000   0.03258
 168       11D+2        0.18252   0.06633  -0.01227   0.00000   0.01931
 169       11D-2        0.00000   0.00000   0.00000  -0.01704   0.00000
 170       12D 0        0.81886  -0.15553  -0.11074   0.00000   0.44694
 171       12D+1        0.00000   0.00000   0.00000  -0.18492   0.00000
 172       12D-1       -0.35108   0.37706  -0.12687   0.00000   0.42786
 173       12D+2       -0.35519   0.11799  -0.01322   0.00000   0.50141
 174       12D-2        0.00000   0.00000   0.00000   0.09997   0.00000
 175       13F 0       -0.00739  -0.01740   0.00435   0.00000  -0.00967
 176       13F+1        0.00000   0.00000   0.00000  -0.01016   0.00000
 177       13F-1        0.00066  -0.01703  -0.02644   0.00000   0.00954
 178       13F+2       -0.02965  -0.01655  -0.02178   0.00000  -0.00334
 179       13F-2        0.00000   0.00000   0.00000  -0.00883   0.00000
 180       13F+3        0.00000   0.00000   0.00000  -0.00065   0.00000
 181       13F-3       -0.01899   0.01965  -0.00843   0.00000  -0.00522
 182       14F 0        0.04747   0.05052  -0.00746   0.00000   0.06418
 183       14F+1        0.00000   0.00000   0.00000   0.01630   0.00000
 184       14F-1       -0.05274   0.06124   0.05233   0.00000  -0.02610
 185       14F+2        0.04647   0.07250   0.03782   0.00000   0.05438
 186       14F-2        0.00000   0.00000   0.00000   0.01012   0.00000
 187       14F+3        0.00000   0.00000   0.00000   0.00126   0.00000
 188       14F-3        0.05341  -0.05929   0.02133   0.00000  -0.02154
                         186       187       188
     Eigenvalues --     0.00000   0.00000   0.00000
   1 1   C  1S         -0.07494  -0.06548   0.00538
   2        2S         -0.36349  -0.35821  -0.01514
   3        3S          0.24844   0.14553  -0.01370
   4        4S        -13.98959 -14.21650 -13.83964
   5        5S         -5.09643  -9.21745 -21.76555
   6        6PX         0.00000   0.00000   0.00000
   7        6PY         0.00000   0.00000   0.00000
   8        6PZ        -0.01247   0.00332  -0.00955
   9        7PX         0.00000   0.00000   0.00000
  10        7PY         0.00000   0.00000   0.00000
  11        7PZ         0.75371   0.33443   0.27617
  12        8PX         0.00000   0.00000   0.00000
  13        8PY         0.00000   0.00000   0.00000
  14        8PZ         1.68792  -2.69341  -7.48236
  15        9PX         0.00000   0.00000   0.00000
  16        9PY         0.00000   0.00000   0.00000
  17        9PZ         3.67142  -3.46486  -4.20913
  18       10D 0        0.01964   0.01166   0.01267
  19       10D+1        0.00000   0.00000   0.00000
  20       10D-1        0.00000   0.00000   0.00000
  21       10D+2       -0.03294   0.01601   0.03493
  22       10D-2        0.00000   0.00000   0.00000
  23       11D 0       -0.00320  -0.64543  -0.23847
  24       11D+1        0.00000   0.00000   0.00000
  25       11D-1        0.00000   0.00000   0.00000
  26       11D+2        1.19091   0.50116   0.10985
  27       11D-2        0.00000   0.00000   0.00000
  28       12D 0       -1.05590  -1.52108  -1.54073
  29       12D+1        0.00000   0.00000   0.00000
  30       12D-1        0.00000   0.00000   0.00000
  31       12D+2        0.75283   0.81764   0.30578
  32       12D-2        0.00000   0.00000   0.00000
  33       13F 0       -0.05745  -0.02495  -0.00787
  34       13F+1        0.00000   0.00000   0.00000
  35       13F-1        0.00000   0.00000   0.00000
  36       13F+2       -0.06680  -0.03821  -0.01401
  37       13F-2        0.00000   0.00000   0.00000
  38       13F+3        0.00000   0.00000   0.00000
  39       13F-3        0.00000   0.00000   0.00000
  40       14F 0       -0.70279  -0.26567  -0.13283
  41       14F+1        0.00000   0.00000   0.00000
  42       14F-1        0.00000   0.00000   0.00000
  43       14F+2       -0.41943  -0.06281   0.02775
  44       14F-2        0.00000   0.00000   0.00000
  45       14F+3        0.00000   0.00000   0.00000
  46       14F-3        0.00000   0.00000   0.00000
  47 2   S  1S          0.00879  -0.00230  -0.00691
  48        2S          0.13462  -0.02442  -0.08089
  49        3S          0.38486  -0.09801  -0.28482
  50        4S         -0.04032  -0.10686  -0.09375
  51        5S          3.02449   7.57635   7.48317
  52        6S          0.74617   5.80146  23.59509
  53        7PX         0.00000   0.00000   0.00000
  54        7PY         0.00000   0.00000   0.00000
  55        7PZ        -0.02915  -0.04788  -0.00034
  56        8PX         0.00000   0.00000   0.00000
  57        8PY         0.00000   0.00000   0.00000
  58        8PZ        -0.70745  -1.16317  -0.13941
  59        9PX         0.00000   0.00000   0.00000
  60        9PY         0.00000   0.00000   0.00000
  61        9PZ         0.04421   0.12768  -0.02063
  62       10PX         0.00000   0.00000   0.00000
  63       10PY         0.00000   0.00000   0.00000
  64       10PZ        -1.80499  -4.08765  -9.62348
  65       11PX         0.00000   0.00000   0.00000
  66       11PY         0.00000   0.00000   0.00000
  67       11PZ        -1.48503   1.69643  -4.98166
  68       12D 0        0.14810   1.03539   0.44116
  69       12D+1        0.00000   0.00000   0.00000
  70       12D-1        0.00000   0.00000   0.00000
  71       12D+2        0.09912  -0.05593  -0.01742
  72       12D-2        0.00000   0.00000   0.00000
  73       13D 0        0.05082  -0.08470  -0.02039
  74       13D+1        0.00000   0.00000   0.00000
  75       13D-1        0.00000   0.00000   0.00000
  76       13D+2       -0.01958   0.00720   0.00131
  77       13D-2        0.00000   0.00000   0.00000
  78       14D 0        0.72814  -0.43044   2.71999
  79       14D+1        0.00000   0.00000   0.00000
  80       14D-1        0.00000   0.00000   0.00000
  81       14D+2       -0.28283   0.04066  -0.05487
  82       14D-2        0.00000   0.00000   0.00000
  83       15F 0       -0.01545  -0.06190   0.03552
  84       15F+1        0.00000   0.00000   0.00000
  85       15F-1        0.00000   0.00000   0.00000
  86       15F+2       -0.01806   0.01592   0.00155
  87       15F-2        0.00000   0.00000   0.00000
  88       15F+3        0.00000   0.00000   0.00000
  89       15F-3        0.00000   0.00000   0.00000
  90       16F 0       -0.06001  -0.03255  -0.30931
  91       16F+1        0.00000   0.00000   0.00000
  92       16F-1        0.00000   0.00000   0.00000
  93       16F+2        0.04316  -0.01012   0.01922
  94       16F-2        0.00000   0.00000   0.00000
  95       16F+3        0.00000   0.00000   0.00000
  96       16F-3        0.00000   0.00000   0.00000
  97 3   F  1S         -0.02610  -0.03137   0.00285
  98        2S         -0.14901  -0.16330   0.00239
  99        3S         -0.01789   0.00094  -0.01542
 100        4S          2.57302   1.32156   0.13992
 101        5S          6.04398   5.43034   1.85923
 102        6PX         0.00000   0.00000   0.00000
 103        6PY         0.00195   0.01096   0.00235
 104        6PZ         0.01054   0.00257   0.00182
 105        7PX         0.00000   0.00000   0.00000
 106        7PY         0.00397  -0.06269  -0.01773
 107        7PZ        -0.03083  -0.02865  -0.02399
 108        8PX         0.00000   0.00000   0.00000
 109        8PY         1.46267   1.31039   0.40989
 110        8PZ         1.68366   0.92603   0.49697
 111        9PX         0.00000   0.00000   0.00000
 112        9PY         1.08850   0.61970  -0.03515
 113        9PZ        -0.86278   1.37041  -0.23476
 114       10D 0       -0.01910   0.00983  -0.00101
 115       10D+1        0.00000   0.00000   0.00000
 116       10D-1       -0.01263  -0.00333   0.00028
 117       10D+2        0.00086  -0.00202   0.00820
 118       10D-2        0.00000   0.00000   0.00000
 119       11D 0        0.07196  -0.04295  -0.00304
 120       11D+1        0.00000   0.00000   0.00000
 121       11D-1        0.08495   0.02228   0.00294
 122       11D+2       -0.01760  -0.00757  -0.02856
 123       11D-2        0.00000   0.00000   0.00000
 124       12D 0        0.02429   0.13350   0.03704
 125       12D+1        0.00000   0.00000   0.00000
 126       12D-1        0.42910   0.35518   0.23739
 127       12D+2       -0.08177  -0.25491  -0.06730
 128       12D-2        0.00000   0.00000   0.00000
 129       13F 0        0.00534   0.00660   0.00738
 130       13F+1        0.00000   0.00000   0.00000
 131       13F-1       -0.01596  -0.00149  -0.00658
 132       13F+2        0.00772   0.00368   0.01455
 133       13F-2        0.00000   0.00000   0.00000
 134       13F+3        0.00000   0.00000   0.00000
 135       13F-3       -0.02196   0.00039   0.00727
 136       14F 0       -0.03229  -0.02533  -0.02969
 137       14F+1        0.00000   0.00000   0.00000
 138       14F-1        0.07420   0.01239   0.01611
 139       14F+2       -0.04951  -0.04081  -0.04781
 140       14F-2        0.00000   0.00000   0.00000
 141       14F+3        0.00000   0.00000   0.00000
 142       14F-3        0.04602  -0.02047  -0.02301
 143 4   F  1S         -0.02610  -0.03137   0.00285
 144        2S         -0.14901  -0.16330   0.00239
 145        3S         -0.01789   0.00094  -0.01542
 146        4S          2.57302   1.32156   0.13992
 147        5S          6.04398   5.43034   1.85923
 148        6PX         0.00000   0.00000   0.00000
 149        6PY        -0.00195  -0.01096  -0.00235
 150        6PZ         0.01054   0.00257   0.00182
 151        7PX         0.00000   0.00000   0.00000
 152        7PY        -0.00397   0.06269   0.01773
 153        7PZ        -0.03083  -0.02865  -0.02399
 154        8PX         0.00000   0.00000   0.00000
 155        8PY        -1.46267  -1.31039  -0.40989
 156        8PZ         1.68366   0.92603   0.49697
 157        9PX         0.00000   0.00000   0.00000
 158        9PY        -1.08850  -0.61970   0.03515
 159        9PZ        -0.86278   1.37041  -0.23476
 160       10D 0       -0.01910   0.00983  -0.00101
 161       10D+1        0.00000   0.00000   0.00000
 162       10D-1        0.01263   0.00333  -0.00028
 163       10D+2        0.00086  -0.00202   0.00820
 164       10D-2        0.00000   0.00000   0.00000
 165       11D 0        0.07196  -0.04295  -0.00304
 166       11D+1        0.00000   0.00000   0.00000
 167       11D-1       -0.08495  -0.02228  -0.00294
 168       11D+2       -0.01760  -0.00757  -0.02856
 169       11D-2        0.00000   0.00000   0.00000
 170       12D 0        0.02429   0.13350   0.03704
 171       12D+1        0.00000   0.00000   0.00000
 172       12D-1       -0.42910  -0.35518  -0.23739
 173       12D+2       -0.08177  -0.25491  -0.06730
 174       12D-2        0.00000   0.00000   0.00000
 175       13F 0        0.00534   0.00660   0.00738
 176       13F+1        0.00000   0.00000   0.00000
 177       13F-1        0.01596   0.00149   0.00658
 178       13F+2        0.00772   0.00368   0.01455
 179       13F-2        0.00000   0.00000   0.00000
 180       13F+3        0.00000   0.00000   0.00000
 181       13F-3        0.02196  -0.00039  -0.00727
 182       14F 0       -0.03229  -0.02533  -0.02969
 183       14F+1        0.00000   0.00000   0.00000
 184       14F-1       -0.07420  -0.01239  -0.01611
 185       14F+2       -0.04951  -0.04081  -0.04781
 186       14F-2        0.00000   0.00000   0.00000
 187       14F+3        0.00000   0.00000   0.00000
 188       14F-3       -0.04602   0.02047   0.02301
          Condensed to atoms (all electrons):
              1          2          3          4
     1  C    5.199115   0.240544   0.110149   0.110149
     2  S    0.240544  15.954315  -0.068566  -0.068566
     3  F    0.110149  -0.068566   9.181614  -0.082037
     4  F    0.110149  -0.068566  -0.082037   9.181614
 Mulliken atomic charges:
              1
     1  C    0.340044
     2  S   -0.057726
     3  F   -0.141159
     4  F   -0.141159
 Sum of Mulliken atomic charges =   0.00000
 Mulliken charges with hydrogens summed into heavy atoms:
              1
     1  C    0.340044
     2  S   -0.057726
     3  F   -0.141159
     4  F   -0.141159
 Sum of Mulliken charges with hydrogens summed into heavy atoms =   0.00000
 Electronic spatial extent (au):  <R**2>=            313.9404
 Charge=              0.0000 electrons
 Dipole moment (field-independent basis, Debye):
    X=              0.0000    Y=              0.0000    Z=             -0.1906  Tot=              0.1906
 Quadrupole moment (field-independent basis, Debye-Ang):
   XX=            -27.2402   YY=            -30.1395   ZZ=            -27.9510
   XY=              0.0000   XZ=              0.0000   YZ=              0.0000
 Traceless Quadrupole moment (field-independent basis, Debye-Ang):
   XX=              1.2034   YY=             -1.6959   ZZ=              0.4925
   XY=              0.0000   XZ=              0.0000   YZ=              0.0000
 Octapole moment (field-independent basis, Debye-Ang**2):
  XXX=              0.0000  YYY=              0.0000  ZZZ=              9.1912  XYY=              0.0000
  XXY=              0.0000  XXZ=              0.9197  XZZ=              0.0000  YZZ=              0.0000
  YYZ=              0.9988  XYZ=              0.0000
 Hexadecapole moment (field-independent basis, Debye-Ang**3):
 XXXX=            -28.0070 YYYY=            -96.1321 ZZZZ=           -213.6531 XXXY=              0.0000
 XXXZ=              0.0000 YYYX=              0.0000 YYYZ=              0.0000 ZZZX=              0.0000
 ZZZY=              0.0000 XXYY=            -20.6890 XXZZ=            -40.2096 YYZZ=            -55.3418
 XXYZ=              0.0000 YYXZ=              0.0000 ZZXY=              0.0000
 N-N= 1.547998158969D+02 E-N=-1.820961427834D+03  KE= 6.350271301376D+02
 1\1\GINC-TRAPISTA\SP\RQCISD-FC\Aug-CC-pVTZ\C1F2S1\BRUNS\27-Nov-2021\0\
 \# qcisd/aug-cc-pvtz nosymm density=current output=wfn\\f2cs-wavefunct
 ion\\0,1\C,0,0.,0.,-0.520349\S,0,0.,0.,1.068525\F,0,0.,-1.055221,-1.29
 5538\F,0,0.,1.055221,-1.295538\\Version=EM64L-G09RevB.01\HF=-634.35706
 12\MP2=-635.1963466\MP3=-635.1998122\MP4D=-635.2166776\MP4DQ=-635.1973
 937\MP4SDQ=-635.2081509\QCISD=-635.2072392\RMSD=7.040e-09\Dipole=0.,0.
 ,-0.0749692\Quadrupole=0.8946952,-1.2608712,0.366176,0.,0.,0.\PG=C02V 
 [C2(C1S1),SGV(F2)]\\@

 Writing a WFN file to GAUSSIAN.wfn.


 THE WORLD OF CHEMICAL REACTIONS IS LIKE A STAGE,
 ON WHICH SCENE AFTER SCENE IS CEASELESSLY PLAYED.
 THE ACTORS ON IT ARE THE ELEMENTS.
   -- CLEMENS WINKLER   BER. 30,13(1897)
 (DISCOVERER OF GERMANIUM, FEB 6, 1886)
 Job cpu time:  0 days  1 hours 56 minutes 55.4 seconds.
 File lengths (MBytes):  RWF=  17813 Int=      0 D2E=      0 Chk=      3 Scr=      1
 Normal termination of Gaussian 09 at Sat Nov 27 06:00:10 2021.
