 Entering Gaussian System, Link 0=/home/bruns/programas/chemistry/gaussian/g09/g09
 Input=GAUSSIAN.com
 Output=GAUSSIAN.log
 Initial command:
 /home/bruns/programas/chemistry/gaussian/g09/l1.exe /home/bruns/programas/chemistry/gaussian/work/Gau-29065.inp -scrdir=/home/bruns/programas/chemistry/gaussian/work/
 Entering Link 1 = /home/bruns/programas/chemistry/gaussian/g09/l1.exe PID=     29067.
  
 Copyright (c) 1988,1990,1992,1993,1995,1998,2003,2009,2010,
            Gaussian, Inc.  All Rights Reserved.
  
 This is part of the Gaussian(R) 09 program.  It is based on
 the Gaussian(R) 03 system (copyright 2003, Gaussian, Inc.),
 the Gaussian(R) 98 system (copyright 1998, Gaussian, Inc.),
 the Gaussian(R) 94 system (copyright 1995, Gaussian, Inc.),
 the Gaussian 92(TM) system (copyright 1992, Gaussian, Inc.),
 the Gaussian 90(TM) system (copyright 1990, Gaussian, Inc.),
 the Gaussian 88(TM) system (copyright 1988, Gaussian, Inc.),
 the Gaussian 86(TM) system (copyright 1986, Carnegie Mellon
 University), and the Gaussian 82(TM) system (copyright 1983,
 Carnegie Mellon University). Gaussian is a federally registered
 trademark of Gaussian, Inc.
  
 This software contains proprietary and confidential information,
 including trade secrets, belonging to Gaussian, Inc.
  
 This software is provided under written license and may be
 used, copied, transmitted, or stored only in accord with that
 written license.
  
 The following legend is applicable only to US Government
 contracts under FAR:
  
                    RESTRICTED RIGHTS LEGEND
  
 Use, reproduction and disclosure by the US Government is
 subject to restrictions as set forth in subparagraphs (a)
 and (c) of the Commercial Computer Software - Restricted
 Rights clause in FAR 52.227-19.
  
 Gaussian, Inc.
 340 Quinnipiac St., Bldg. 40, Wallingford CT 06492
  
  
 ---------------------------------------------------------------
 Warning -- This program may not be used in any manner that
 competes with the business of Gaussian, Inc. or will provide
 assistance to any competitor of Gaussian, Inc.  The licensee
 of this program is prohibited from giving any competitor of
 Gaussian, Inc. access to this program.  By using this program,
 the user acknowledges that Gaussian, Inc. is engaged in the
 business of creating and licensing software in the field of
 computational chemistry and represents and warrants to the
 licensee that it is not a competitor of Gaussian, Inc. and that
 it will not use this program in any manner prohibited above.
 ---------------------------------------------------------------
  

 Cite this work as:
 Gaussian 09, Revision B.01,
 M. J. Frisch, G. W. Trucks, H. B. Schlegel, G. E. Scuseria, 
 M. A. Robb, J. R. Cheeseman, G. Scalmani, V. Barone, B. Mennucci, 
 G. A. Petersson, H. Nakatsuji, M. Caricato, X. Li, H. P. Hratchian, 
 A. F. Izmaylov, J. Bloino, G. Zheng, J. L. Sonnenberg, M. Hada, 
 M. Ehara, K. Toyota, R. Fukuda, J. Hasegawa, M. Ishida, T. Nakajima, 
 Y. Honda, O. Kitao, H. Nakai, T. Vreven, J. A. Montgomery, Jr., 
 J. E. Peralta, F. Ogliaro, M. Bearpark, J. J. Heyd, E. Brothers, 
 K. N. Kudin, V. N. Staroverov, T. Keith, R. Kobayashi, J. Normand, 
 K. Raghavachari, A. Rendell, J. C. Burant, S. S. Iyengar, J. Tomasi, 
 M. Cossi, N. Rega, J. M. Millam, M. Klene, J. E. Knox, J. B. Cross, 
 V. Bakken, C. Adamo, J. Jaramillo, R. Gomperts, R. E. Stratmann, 
 O. Yazyev, A. J. Austin, R. Cammi, C. Pomelli, J. W. Ochterski, 
 R. L. Martin, K. Morokuma, V. G. Zakrzewski, G. A. Voth, 
 P. Salvador, J. J. Dannenberg, S. Dapprich, A. D. Daniels, 
 O. Farkas, J. B. Foresman, J. V. Ortiz, J. Cioslowski, 
 and D. J. Fox, Gaussian, Inc., Wallingford CT, 2010.
 
 ******************************************
 Gaussian 09:  EM64L-G09RevB.01 12-Aug-2010
                27-Nov-2021 
 ******************************************
 %nproc=8
 Will use up to    8 processors via shared memory.
 %mem=8GB
 -----------------------------------------------------
 # qcisd/aug-cc-pvtz nosymm density=current output=wfn
 -----------------------------------------------------
 1/30=1,38=1/1;
 2/12=2,15=1,17=6,18=5,40=1/2;
 3/5=16,6=1,7=10,11=9,16=1,25=1,30=1,71=1/1,2,3;
 4//1;
 5/5=2,38=5/2;
 8/6=4,9=120000,10=1/1,4;
 9/5=8,15=1/13;
 11/28=-7,31=1,32=3,42=3/11;
 10/5=6,13=10,31=1/2;
 6/7=2,8=2,9=2,10=2,22=-1,31=1/1;
 99/5=1,6=1100,9=1/99;
 -----------------
 f2cs-wavefunction
 -----------------
 Symbolic Z-matrix:
 Charge =  0 Multiplicity = 1
 C                     0.01      0.       -0.52035 
 S                     0.        0.        1.07852 
 F                     0.       -1.05522  -1.29554 
 F                     0.        1.05522  -1.29554 
 
                          Input orientation:                          
 ---------------------------------------------------------------------
 Center     Atomic      Atomic             Coordinates (Angstroms)
 Number     Number       Type             X           Y           Z
 ---------------------------------------------------------------------
      1          6           0        0.010000    0.000000   -0.520349
      2         16           0        0.000000    0.000000    1.078525
      3          9           0        0.000000   -1.055221   -1.295538
      4          9           0        0.000000    1.055221   -1.295538
 ---------------------------------------------------------------------
                    Distance matrix (angstroms):
                    1          2          3          4
     1  C    0.000000
     2  S    1.598905   0.000000
     3  F    1.309393   2.598012   0.000000
     4  F    1.309393   2.598012   2.110442   0.000000
 Symmetry turned off by external request.
 Stoichiometry    CF2S
 Framework group  CS[SG(CS),X(F2)]
 Deg. of freedom     4
 Full point group                 CS      NOp   2
 Rotational constants (GHZ):     11.9446338      5.1130341      3.5804541
 Standard basis: Aug-CC-pVTZ (5D, 7F)
 Integral buffers will be    131072 words long.
 Raffenetti 1 integral format.
 Two-electron integral symmetry is turned off.
   188 basis functions,   330 primitive gaussians,   224 cartesian basis functions
    20 alpha electrons       20 beta electrons
       nuclear repulsion energy       154.3909639454 Hartrees.
 NAtoms=    4 NActive=    4 NUniq=    4 SFac= 1.00D+00 NAtFMM=   50 NAOKFM=F Big=F
 One-electron integrals computed using PRISM.
 NBasis=   188 RedAO= T  NBF=   188
 NBsUse=   188 1.00D-06 NBFU=   188
 Harris functional with IExCor=  205 diagonalized for initial guess.
 ExpMin= 3.51D-02 ExpMax= 3.74D+05 ExpMxC= 1.18D+03 IAcc=3 IRadAn=         0 AccDes= 0.00D+00
 HarFok:  IExCor=  205 AccDes= 0.00D+00 IRadAn=         0 IDoV= 1
 ScaDFX=  1.000000  1.000000  1.000000  1.000000
 FoFCou: FMM=F IPFlag=           0 FMFlag=      100000 FMFlg1=           0
         NFxFlg=           0 DoJE=T BraDBF=F KetDBF=T FulRan=T
         Omega=  0.000000  0.000000  1.000000  0.000000  0.000000 ICntrl=     500 IOpCl=  0
         NMat0=    1 NMatS0=    1 NMatT0=    0 NMatD0=    1 NMtDS0=    0 NMtDT0=    0
         I1Cent=           4 NGrid=           0.
 Symmetry not used in FoFCou.
 Requested convergence on RMS density matrix=1.00D-08 within 128 cycles.
 Requested convergence on MAX density matrix=1.00D-06.
 Requested convergence on             energy=1.00D-06.
 No special actions if energy rises.
 Keep R1 ints in memory in canonical form, NReq=323399632.
 SCF Done:  E(RHF) =  -634.356833184     A.U. after   12 cycles
             Convg  =    0.7696D-08             -V/T =  2.0005
 ExpMin= 3.51D-02 ExpMax= 3.74D+05 ExpMxC= 1.18D+03 IAcc=3 IRadAn=         5 AccDes= 0.00D+00
 HarFok:  IExCor=  205 AccDes= 0.00D+00 IRadAn=         5 IDoV=-2
 ScaDFX=  1.000000  1.000000  1.000000  1.000000
 DSYEVD returned Info=          93 IAlg= 4 N=    46 NDim=    46 NE2=    21472498 trying DSYEV.
 DSYEVD returned Info=          93 IAlg= 4 N=    46 NDim=    46 NE2=    21472498 trying DSYEV.
 Range of M.O.s used for correlation:     9   188
 NBasis=   188 NAE=    20 NBE=    20 NFC=     8 NFV=     0
 NROrb=    180 NOA=    12 NOB=    12 NVA=   168 NVB=   168

 **** Warning!!: The largest alpha MO coefficient is  0.27197878D+02

 Semi-Direct transformation.
 ModeAB=           2 MOrb=            12 LenV=    1072746531
 LASXX=     33405819 LTotXX=    33405819 LenRXX=    33405819
 LTotAB=    33954012 MaxLAS=    54432000 LenRXY=    54432000
 NonZer=    66811638 LenScr=   100987392 LnRSAI=           0
 LnScr1=           0 LExtra=           0 Total=    188825211
 MaxDsk=          -1 SrtSym=           F ITran=            4
 JobTyp=0 Pass  1:  I=   1 to  12.
 (rs|ai) integrals will be sorted in core.
 Spin components of T(2) and E(2):
     alpha-alpha T2 =       0.3014435287D-01 E2=     -0.1104091345D+00
     alpha-beta  T2 =       0.1598308725D+00 E2=     -0.6187263243D+00
     beta-beta   T2 =       0.3014435287D-01 E2=     -0.1104091345D+00
 ANorm=    0.1104590231D+01
 E2 =    -0.8395445934D+00 EUMP2 =    -0.63519637777695D+03
 R2 and R3 integrals will be kept in memory, NReq=   640760400.
 Iterations=  50 Convergence= 0.100D-07
 Iteration Nr.   1
 **********************
 DD1Dir will call FoFMem   1 times, MxPair=       156
 NAB=    78 NAA=     0 NBB=     0.
 MP4(R+Q)=  0.19354167D-01
 E3=       -0.33839493D-02        EUMP3=      -0.63519976173D+03
 E4(DQ)=    0.24271300D-02        UMP4(DQ)=   -0.63519733460D+03
 E4(SDQ)=  -0.84315806D-02        UMP4(SDQ)=  -0.63520819331D+03
 DE(Corr)= -0.82357438     E(Corr)=     -635.18040756    
 NORM(A)=   0.11038564D+01
 Iteration Nr.   2
 **********************
 DD1Dir will call FoFMem   1 times, MxPair=       156
 NAB=    78 NAA=     0 NBB=     0.
 DE(Corr)= -0.84926086     E(CORR)=     -635.20609405     Delta=-2.57D-02
 NORM(A)=   0.11127891D+01
 Iteration Nr.   3
 **********************
 DD1Dir will call FoFMem   1 times, MxPair=       156
 NAB=    78 NAA=     0 NBB=     0.
 DE(Corr)= -0.84758632     E(CORR)=     -635.20441951     Delta= 1.67D-03
 NORM(A)=   0.11156318D+01
 Iteration Nr.   4
 **********************
 DD1Dir will call FoFMem   1 times, MxPair=       156
 NAB=    78 NAA=     0 NBB=     0.
 DE(Corr)= -0.85011792     E(CORR)=     -635.20695110     Delta=-2.53D-03
 NORM(A)=   0.11167433D+01
 Iteration Nr.   5
 **********************
 DD1Dir will call FoFMem   1 times, MxPair=       156
 NAB=    78 NAA=     0 NBB=     0.
 DE(Corr)= -0.85041922     E(CORR)=     -635.20725240     Delta=-3.01D-04
 NORM(A)=   0.11170694D+01
 Iteration Nr.   6
 **********************
 DD1Dir will call FoFMem   1 times, MxPair=       156
 NAB=    78 NAA=     0 NBB=     0.
 DE(Corr)= -0.85045873     E(CORR)=     -635.20729191     Delta=-3.95D-05
 NORM(A)=   0.11171181D+01
 Iteration Nr.   7
 **********************
 DD1Dir will call FoFMem   1 times, MxPair=       156
 NAB=    78 NAA=     0 NBB=     0.
 DE(Corr)= -0.85046303     E(CORR)=     -635.20729621     Delta=-4.30D-06
 NORM(A)=   0.11171178D+01
 Iteration Nr.   8
 **********************
 DD1Dir will call FoFMem   1 times, MxPair=       156
 NAB=    78 NAA=     0 NBB=     0.
 DE(Corr)= -0.85046164     E(CORR)=     -635.20729482     Delta= 1.39D-06
 NORM(A)=   0.11171230D+01
 Iteration Nr.   9
 **********************
 DD1Dir will call FoFMem   1 times, MxPair=       156
 NAB=    78 NAA=     0 NBB=     0.
 DE(Corr)= -0.85046133     E(CORR)=     -635.20729451     Delta= 3.10D-07
 NORM(A)=   0.11171232D+01
 Iteration Nr.  10
 **********************
 DD1Dir will call FoFMem   1 times, MxPair=       156
 NAB=    78 NAA=     0 NBB=     0.
 DE(Corr)= -0.85046143     E(CORR)=     -635.20729461     Delta=-9.44D-08
 NORM(A)=   0.11171247D+01
 Iteration Nr.  11
 **********************
 DD1Dir will call FoFMem   1 times, MxPair=       156
 NAB=    78 NAA=     0 NBB=     0.
 DE(Corr)= -0.85046216     E(CORR)=     -635.20729534     Delta=-7.35D-07
 NORM(A)=   0.11171261D+01
 Iteration Nr.  12
 **********************
 DD1Dir will call FoFMem   1 times, MxPair=       156
 NAB=    78 NAA=     0 NBB=     0.
 DE(Corr)= -0.85046240     E(CORR)=     -635.20729558     Delta=-2.38D-07
 NORM(A)=   0.11171268D+01
 Iteration Nr.  13
 **********************
 DD1Dir will call FoFMem   1 times, MxPair=       156
 NAB=    78 NAA=     0 NBB=     0.
 DE(Corr)= -0.85046266     E(CORR)=     -635.20729585     Delta=-2.65D-07
 NORM(A)=   0.11171272D+01
 Iteration Nr.  14
 **********************
 DD1Dir will call FoFMem   1 times, MxPair=       156
 NAB=    78 NAA=     0 NBB=     0.
 DE(Corr)= -0.85046272     E(CORR)=     -635.20729591     Delta=-5.94D-08
 NORM(A)=   0.11171274D+01
 Iteration Nr.  15
 **********************
 DD1Dir will call FoFMem   1 times, MxPair=       156
 NAB=    78 NAA=     0 NBB=     0.
 DE(Corr)= -0.85046276     E(CORR)=     -635.20729595     Delta=-3.91D-08
 NORM(A)=   0.11171274D+01
 Iteration Nr.  16
 **********************
 DD1Dir will call FoFMem   1 times, MxPair=       156
 NAB=    78 NAA=     0 NBB=     0.
 DE(Corr)= -0.85046277     E(CORR)=     -635.20729596     Delta=-1.12D-08
 NORM(A)=   0.11171274D+01
 Iteration Nr.  17
 **********************
 DD1Dir will call FoFMem   1 times, MxPair=       156
 NAB=    78 NAA=     0 NBB=     0.
 DE(Corr)= -0.85046277     E(CORR)=     -635.20729596     Delta=-4.91D-10
 NORM(A)=   0.11171274D+01
 Iteration Nr.  18
 **********************
 DD1Dir will call FoFMem   1 times, MxPair=       156
 NAB=    78 NAA=     0 NBB=     0.
 DE(Corr)= -0.85046278     E(CORR)=     -635.20729596     Delta=-1.43D-09
 NORM(A)=   0.11171275D+01
 Iteration Nr.  19
 **********************
 DD1Dir will call FoFMem   1 times, MxPair=       156
 NAB=    78 NAA=     0 NBB=     0.
 DE(Corr)= -0.85046278     E(CORR)=     -635.20729596     Delta=-3.86D-09
 NORM(A)=   0.11171275D+01
 Iteration Nr.  20
 **********************
 DD1Dir will call FoFMem   1 times, MxPair=       156
 NAB=    78 NAA=     0 NBB=     0.
 DE(Corr)= -0.85046278     E(CORR)=     -635.20729597     Delta=-5.66D-09
 NORM(A)=   0.11171275D+01
 Iteration Nr.  21
 **********************
 DD1Dir will call FoFMem   1 times, MxPair=       156
 NAB=    78 NAA=     0 NBB=     0.
 DE(Corr)= -0.85046278     E(CORR)=     -635.20729596     Delta= 6.53D-09
 NORM(A)=   0.11171274D+01
 Largest amplitude= 8.02D-02

 Z-AMPLITUDE ITERATIONS

 Iteration Nr.   1
 **********************
 DD1Dir will call FoFMem   1 times, MxPair=       156
 NAB=    78 NAA=     0 NBB=     0.
 DE(Z)  -0.82655716D+00          E(Z)=    -0.63518339034D+03
 NORM(A)=   0.11171050D+01
 Iteration Nr.   2
 **********************
 DD1Dir will call FoFMem   1 times, MxPair=       156
 NAB=    78 NAA=     0 NBB=     0.
 DE(Z)  -0.82655711D+00          E(Z)=    -0.63518339030D+03
 NORM(A)=   0.11170093D+01
 Iteration Nr.   3
 **********************
 DD1Dir will call FoFMem   1 times, MxPair=       156
 NAB=    78 NAA=     0 NBB=     0.
 DE(Z)  -0.82655529D+00          E(Z)=    -0.63518338848D+03
 NORM(A)=   0.11170411D+01
 Iteration Nr.   4
 **********************
 DD1Dir will call FoFMem   1 times, MxPair=       156
 NAB=    78 NAA=     0 NBB=     0.
 DE(Z)  -0.82655604D+00          E(Z)=    -0.63518338922D+03
 NORM(A)=   0.11164007D+01
 Iteration Nr.   5
 **********************
 DD1Dir will call FoFMem   1 times, MxPair=       156
 NAB=    78 NAA=     0 NBB=     0.
 DE(Z)  -0.82654469D+00          E(Z)=    -0.63518337787D+03
 NORM(A)=   0.11088891D+01
 Iteration Nr.   6
 **********************
 DD1Dir will call FoFMem   1 times, MxPair=       156
 NAB=    78 NAA=     0 NBB=     0.
 DE(Z)  -0.82641815D+00          E(Z)=    -0.63518325133D+03
 NORM(A)=   0.11088879D+01
 Iteration Nr.   7
 **********************
 DD1Dir will call FoFMem   1 times, MxPair=       156
 NAB=    78 NAA=     0 NBB=     0.
 DE(Z)  -0.82641566D+00          E(Z)=    -0.63518324884D+03
 NORM(A)=   0.11088840D+01
 Iteration Nr.   8
 **********************
 DD1Dir will call FoFMem   1 times, MxPair=       156
 NAB=    78 NAA=     0 NBB=     0.
 DE(Z)  -0.82641656D+00          E(Z)=    -0.63518324974D+03
 NORM(A)=   0.11088837D+01
 Iteration Nr.   9
 **********************
 DD1Dir will call FoFMem   1 times, MxPair=       156
 NAB=    78 NAA=     0 NBB=     0.
 DE(Z)  -0.82641680D+00          E(Z)=    -0.63518324999D+03
 NORM(A)=   0.11088840D+01
 Iteration Nr.  10
 **********************
 DD1Dir will call FoFMem   1 times, MxPair=       156
 NAB=    78 NAA=     0 NBB=     0.
 DE(Z)  -0.82641643D+00          E(Z)=    -0.63518324962D+03
 NORM(A)=   0.11088841D+01
 Iteration Nr.  11
 **********************
 DD1Dir will call FoFMem   1 times, MxPair=       156
 NAB=    78 NAA=     0 NBB=     0.
 DE(Z)  -0.82641668D+00          E(Z)=    -0.63518324986D+03
 NORM(A)=   0.11088842D+01
 Iteration Nr.  12
 **********************
 DD1Dir will call FoFMem   1 times, MxPair=       156
 NAB=    78 NAA=     0 NBB=     0.
 DE(Z)  -0.82641666D+00          E(Z)=    -0.63518324985D+03
 NORM(A)=   0.11088843D+01
 Iteration Nr.  13
 **********************
 DD1Dir will call FoFMem   1 times, MxPair=       156
 NAB=    78 NAA=     0 NBB=     0.
 DE(Z)  -0.82641668D+00          E(Z)=    -0.63518324986D+03
 NORM(A)=   0.11088843D+01
 Iteration Nr.  14
 **********************
 DD1Dir will call FoFMem   1 times, MxPair=       156
 NAB=    78 NAA=     0 NBB=     0.
 DE(Z)  -0.82641668D+00          E(Z)=    -0.63518324986D+03
 NORM(A)=   0.11088842D+01
 Discarding MO integrals.
          Differentiating once with respect to electric field.
                with respect to dipole field.
          Electric field/nuclear overlap derivatives assumed to be zero.
          Keep R1 ints in memory in canonical form, NReq=319473719.
          There are     1 degrees of freedom in the 1st order CPHF.  IDoFFX=0.
 LinEq1:  Iter=  0 NonCon=     1 RMS=2.85D-03 Max=7.51D-02
 AX will form     1 AO Fock derivatives at one time.
 LinEq1:  Iter=  1 NonCon=     1 RMS=8.84D-04 Max=1.23D-02
 LinEq1:  Iter=  2 NonCon=     1 RMS=4.03D-04 Max=1.26D-02
 LinEq1:  Iter=  3 NonCon=     1 RMS=1.09D-04 Max=2.39D-03
 LinEq1:  Iter=  4 NonCon=     1 RMS=2.69D-05 Max=6.20D-04
 LinEq1:  Iter=  5 NonCon=     1 RMS=6.78D-06 Max=9.99D-05
 LinEq1:  Iter=  6 NonCon=     1 RMS=2.68D-06 Max=5.54D-05
 LinEq1:  Iter=  7 NonCon=     1 RMS=8.32D-07 Max=1.53D-05
 LinEq1:  Iter=  8 NonCon=     1 RMS=1.67D-07 Max=2.33D-06
 LinEq1:  Iter=  9 NonCon=     1 RMS=3.13D-08 Max=3.72D-07
 LinEq1:  Iter= 10 NonCon=     1 RMS=6.24D-09 Max=7.37D-08
 LinEq1:  Iter= 11 NonCon=     1 RMS=1.02D-09 Max=1.56D-08
 LinEq1:  Iter= 12 NonCon=     1 RMS=1.77D-10 Max=2.24D-09
 LinEq1:  Iter= 13 NonCon=     1 RMS=4.54D-11 Max=1.07D-09
 LinEq1:  Iter= 14 NonCon=     0 RMS=9.98D-12 Max=1.22D-10
 Linear equations converged to 1.000D-10 1.000D-09 after    14 iterations.
 End of Minotr Frequency-dependent properties file   721 does not exist.
 End of Minotr Frequency-dependent properties file   722 does not exist.

 **********************************************************************

            Population analysis using the QCI/CC density.

 **********************************************************************

     Natural Orbital Coefficients:
                           1         2         3         4         5
     Eigenvalues --     2.00003   2.00002   2.00001   2.00001   2.00000
   1 1   C  1S          0.00000  -0.17766   0.59212   0.05602   0.48260
   2        2S          0.00000   0.00325  -0.00922  -0.00078  -0.00495
   3        3S          0.00000  -0.00680   0.02384   0.00226   0.02017
   4        4S          0.00000  -0.00905   0.00227   0.00051  -0.00205
   5        5S          0.00000  -0.00083   0.00194   0.00025   0.00044
   6        6PX         0.00000  -0.00002   0.00015  -0.00182   0.00001
   7        6PY        -0.00139   0.00000   0.00000   0.00000   0.00000
   8        6PZ         0.00000   0.00135  -0.00334  -0.00026  -0.00038
   9        7PX         0.00000   0.00000   0.00013  -0.00184   0.00000
  10        7PY        -0.00364   0.00000   0.00000   0.00000   0.00000
  11        7PZ         0.00000  -0.00098   0.00139   0.00014   0.00160
  12        8PX         0.00000   0.00001   0.00009  -0.00120   0.00000
  13        8PY         0.00601   0.00000   0.00000   0.00000   0.00000
  14        8PZ         0.00000  -0.00923   0.00523   0.00090  -0.00110
  15        9PX         0.00000   0.00000  -0.00001   0.00009   0.00000
  16        9PY        -0.00061   0.00000   0.00000   0.00000   0.00000
  17        9PZ         0.00000   0.00035   0.00029   0.00003   0.00054
  18       10D 0        0.00000  -0.00008   0.00007   0.00001   0.00019
  19       10D+1        0.00000   0.00000   0.00003  -0.00030   0.00000
  20       10D-1       -0.00030   0.00000   0.00000   0.00000   0.00000
  21       10D+2        0.00000   0.00011  -0.00037  -0.00003  -0.00019
  22       10D-2        0.00000   0.00000   0.00000   0.00000   0.00000
  23       11D 0        0.00000  -0.00116   0.00017   0.00003  -0.00032
  24       11D+1        0.00000   0.00002  -0.00010   0.00120  -0.00003
  25       11D-1        0.00104   0.00000   0.00000   0.00000   0.00000
  26       11D+2        0.00000  -0.00013   0.00117   0.00007   0.00082
  27       11D-2        0.00001   0.00000   0.00000   0.00000   0.00000
  28       12D 0        0.00000  -0.00270   0.00161   0.00023  -0.00137
  29       12D+1        0.00000   0.00001   0.00004  -0.00054   0.00001
  30       12D-1       -0.00445   0.00000   0.00000   0.00000   0.00000
  31       12D+2        0.00000  -0.00088   0.00057   0.00008  -0.00054
  32       12D-2       -0.00003   0.00000   0.00000   0.00000   0.00000
  33       13F 0        0.00000  -0.00005  -0.00001   0.00000   0.00041
  34       13F+1        0.00000   0.00000   0.00002  -0.00018   0.00000
  35       13F-1       -0.00055   0.00000   0.00000   0.00000   0.00000
  36       13F+2        0.00000  -0.00010   0.00016   0.00002   0.00001
  37       13F-2        0.00000   0.00000   0.00000   0.00000   0.00000
  38       13F+3        0.00000   0.00000   0.00000   0.00002   0.00000
  39       13F-3        0.00005   0.00000   0.00000   0.00000   0.00000
  40       14F 0        0.00000   0.00062  -0.00194  -0.00010  -0.00025
  41       14F+1        0.00000  -0.00001  -0.00006   0.00089  -0.00002
  42       14F-1        0.00290   0.00000   0.00000   0.00000   0.00000
  43       14F+2        0.00000   0.00065  -0.00150  -0.00015  -0.00089
  44       14F-2       -0.00002   0.00000   0.00000   0.00000   0.00000
  45       14F+3        0.00000  -0.00001   0.00000   0.00017  -0.00002
  46       14F-3        0.00003   0.00000   0.00000   0.00000   0.00000
  47 2   S  1S          0.00000  -0.21706  -0.16949  -0.01051   0.07187
  48        2S          0.00000   0.74219   0.58598   0.03638  -0.24951
  49        3S          0.00000  -0.02143  -0.00888  -0.00051   0.00218
  50        4S          0.00000   0.04959   0.04227   0.00265  -0.01822
  51        5S          0.00000   0.01000  -0.01120  -0.00136   0.00418
  52        6S          0.00000   0.00100  -0.00255  -0.00037  -0.00080
  53        7PX         0.00000   0.00235  -0.07135   0.96993  -0.01314
  54        7PY         0.97647   0.00000   0.00000   0.00000   0.00000
  55        7PZ         0.00000   0.62353  -0.50269  -0.02935   0.43818
  56        8PX         0.00000  -0.00002   0.00091  -0.01222   0.00015
  57        8PY        -0.02022   0.00000   0.00000   0.00000   0.00000
  58        8PZ         0.00000  -0.01235   0.00872   0.00062  -0.00447
  59        9PX         0.00000   0.00012  -0.00447   0.06113  -0.00086
  60        9PY         0.05654   0.00000   0.00000   0.00000   0.00000
  61        9PZ         0.00000   0.03855  -0.03304  -0.00199   0.02891
  62       10PX         0.00000   0.00004  -0.00004   0.00020  -0.00001
  63       10PY        -0.00422   0.00000   0.00000   0.00000   0.00000
  64       10PZ         0.00000  -0.00881   0.00480   0.00060  -0.00069
  65       11PX         0.00000  -0.00001   0.00006  -0.00082   0.00000
  66       11PY        -0.00033   0.00000   0.00000   0.00000   0.00000
  67       11PZ         0.00000  -0.00029   0.00029   0.00004  -0.00003
  68       12D 0        0.00000   0.00245  -0.00292  -0.00020   0.00107
  69       12D+1        0.00000  -0.00002  -0.00012   0.00201  -0.00004
  70       12D-1        0.00336   0.00000   0.00000   0.00000   0.00000
  71       12D+2        0.00000  -0.00039   0.00026   0.00001   0.00029
  72       12D-2       -0.00003   0.00000   0.00000   0.00000   0.00000
  73       13D 0        0.00000   0.00019   0.00028   0.00001  -0.00069
  74       13D+1        0.00000   0.00000   0.00000  -0.00013   0.00001
  75       13D-1       -0.00028   0.00000   0.00000   0.00000   0.00000
  76       13D+2        0.00000   0.00026   0.00013   0.00001  -0.00008
  77       13D-2        0.00000   0.00000   0.00000   0.00000   0.00000
  78       14D 0        0.00000   0.00141  -0.00061  -0.00008   0.00010
  79       14D+1        0.00000  -0.00002   0.00004  -0.00039   0.00001
  80       14D-1       -0.00081   0.00000   0.00000   0.00000   0.00000
  81       14D+2        0.00000   0.00024  -0.00002   0.00000   0.00014
  82       14D-2        0.00002   0.00000   0.00000   0.00000   0.00000
  83       15F 0        0.00000  -0.00022   0.00029   0.00003   0.00033
  84       15F+1        0.00000   0.00000   0.00002  -0.00023   0.00000
  85       15F-1       -0.00022   0.00000   0.00000   0.00000   0.00000
  86       15F+2        0.00000   0.00011  -0.00014  -0.00001   0.00003
  87       15F-2        0.00001   0.00000   0.00000   0.00000   0.00000
  88       15F+3        0.00000   0.00000  -0.00001   0.00009   0.00000
  89       15F-3        0.00006   0.00000   0.00000   0.00000   0.00000
  90       16F 0        0.00000  -0.00046   0.00057   0.00002  -0.00046
  91       16F+1        0.00000   0.00001   0.00002  -0.00047   0.00001
  92       16F-1       -0.00103   0.00000   0.00000   0.00000   0.00000
  93       16F+2        0.00000  -0.00001  -0.00016  -0.00001  -0.00026
  94       16F-2        0.00001   0.00000   0.00000   0.00000   0.00000
  95       16F+3        0.00000   0.00000   0.00001  -0.00013   0.00001
  96       16F-3       -0.00012   0.00000   0.00000   0.00000   0.00000
  97 3   F  1S          0.00831   0.01088  -0.08444  -0.00825  -0.48456
  98        2S          0.00019  -0.00044   0.00234   0.00022   0.00838
  99        3S          0.00045   0.00040  -0.00337  -0.00033  -0.02060
 100        4S          0.00030  -0.00133   0.00374   0.00031   0.00181
 101        5S          0.00719  -0.00214   0.00121   0.00020  -0.00032
 102        6PX        -0.00001   0.00001  -0.00009   0.00094  -0.00003
 103        6PY        -0.00019   0.00002  -0.00068  -0.00007  -0.00171
 104        6PZ        -0.00058  -0.00014  -0.00017  -0.00003  -0.00143
 105        7PX        -0.00001   0.00001  -0.00010   0.00118  -0.00002
 106        7PY        -0.00031  -0.00007  -0.00039  -0.00005  -0.00093
 107        7PZ        -0.00085  -0.00030   0.00017   0.00000  -0.00085
 108        8PX         0.00001  -0.00001  -0.00008   0.00126  -0.00002
 109        8PY        -0.00054   0.00002  -0.00020  -0.00003  -0.00111
 110        8PZ        -0.00273  -0.00030   0.00072  -0.00003  -0.00141
 111        9PX         0.00001   0.00000   0.00000  -0.00001   0.00000
 112        9PY         0.00169  -0.00009  -0.00005   0.00000   0.00007
 113        9PZ         0.00021  -0.00110   0.00052   0.00007  -0.00068
 114       10D 0        0.00000   0.00001   0.00000   0.00000   0.00001
 115       10D+1        0.00000   0.00000   0.00000  -0.00001   0.00000
 116       10D-1        0.00001   0.00000   0.00002   0.00000   0.00002
 117       10D+2        0.00000   0.00001  -0.00002   0.00000   0.00002
 118       10D-2        0.00000   0.00000   0.00000  -0.00002   0.00000
 119       11D 0        0.00015   0.00001  -0.00006   0.00000  -0.00003
 120       11D+1        0.00000   0.00000   0.00000  -0.00003   0.00000
 121       11D-1       -0.00007   0.00004  -0.00013  -0.00002  -0.00010
 122       11D+2        0.00004  -0.00001   0.00007   0.00001  -0.00001
 123       11D-2        0.00000   0.00000   0.00000   0.00005   0.00000
 124       12D 0       -0.00046   0.00019  -0.00028  -0.00004  -0.00005
 125       12D+1       -0.00001  -0.00001   0.00000   0.00024  -0.00002
 126       12D-1       -0.00084  -0.00007   0.00023  -0.00002  -0.00052
 127       12D+2        0.00040  -0.00017   0.00033   0.00003   0.00020
 128       12D-2        0.00001   0.00001  -0.00001   0.00004   0.00001
 129       13F 0       -0.00001  -0.00002   0.00004   0.00000  -0.00001
 130       13F+1        0.00000   0.00000   0.00000   0.00001   0.00000
 131       13F-1        0.00003   0.00001   0.00000   0.00000   0.00002
 132       13F+2       -0.00001  -0.00001   0.00001   0.00000  -0.00004
 133       13F-2        0.00000   0.00000   0.00000  -0.00002   0.00000
 134       13F+3        0.00000   0.00000   0.00000   0.00001   0.00000
 135       13F-3       -0.00002   0.00001  -0.00002   0.00000   0.00001
 136       14F 0        0.00013   0.00006  -0.00009   0.00000   0.00014
 137       14F+1        0.00000   0.00000   0.00000  -0.00003   0.00000
 138       14F-1       -0.00001   0.00003  -0.00014  -0.00001  -0.00019
 139       14F+2        0.00007  -0.00001   0.00012   0.00002   0.00030
 140       14F-2        0.00000   0.00000   0.00000   0.00008  -0.00001
 141       14F+3        0.00000   0.00000   0.00001  -0.00003   0.00000
 142       14F-3        0.00012  -0.00005   0.00015   0.00001   0.00000
 143 4   F  1S         -0.00831   0.01088  -0.08444  -0.00825  -0.48456
 144        2S         -0.00019  -0.00044   0.00234   0.00022   0.00838
 145        3S         -0.00045   0.00040  -0.00337  -0.00033  -0.02060
 146        4S         -0.00030  -0.00133   0.00374   0.00031   0.00181
 147        5S         -0.00719  -0.00214   0.00121   0.00020  -0.00032
 148        6PX         0.00001   0.00001  -0.00009   0.00094  -0.00003
 149        6PY        -0.00019  -0.00002   0.00068   0.00007   0.00171
 150        6PZ         0.00058  -0.00014  -0.00017  -0.00003  -0.00143
 151        7PX         0.00001   0.00001  -0.00010   0.00118  -0.00002
 152        7PY        -0.00031   0.00007   0.00039   0.00005   0.00093
 153        7PZ         0.00085  -0.00030   0.00017   0.00000  -0.00085
 154        8PX        -0.00001  -0.00001  -0.00008   0.00126  -0.00002
 155        8PY        -0.00054  -0.00002   0.00020   0.00003   0.00111
 156        8PZ         0.00273  -0.00030   0.00072  -0.00003  -0.00141
 157        9PX        -0.00001   0.00000   0.00000  -0.00001   0.00000
 158        9PY         0.00169   0.00009   0.00005   0.00000  -0.00007
 159        9PZ        -0.00021  -0.00110   0.00052   0.00007  -0.00068
 160       10D 0        0.00000   0.00001   0.00000   0.00000   0.00001
 161       10D+1        0.00000   0.00000   0.00000  -0.00001   0.00000
 162       10D-1        0.00001   0.00000  -0.00002   0.00000  -0.00002
 163       10D+2        0.00000   0.00001  -0.00002   0.00000   0.00002
 164       10D-2        0.00000   0.00000   0.00000   0.00002   0.00000
 165       11D 0       -0.00015   0.00001  -0.00006   0.00000  -0.00003
 166       11D+1        0.00000   0.00000   0.00000  -0.00003   0.00000
 167       11D-1       -0.00007  -0.00004   0.00013   0.00002   0.00010
 168       11D+2       -0.00004  -0.00001   0.00007   0.00001  -0.00001
 169       11D-2        0.00000   0.00000   0.00000  -0.00005   0.00000
 170       12D 0        0.00046   0.00019  -0.00028  -0.00004  -0.00005
 171       12D+1        0.00001  -0.00001   0.00000   0.00024  -0.00002
 172       12D-1       -0.00084   0.00007  -0.00023   0.00002   0.00052
 173       12D+2       -0.00040  -0.00017   0.00033   0.00003   0.00020
 174       12D-2        0.00001  -0.00001   0.00001  -0.00004  -0.00001
 175       13F 0        0.00001  -0.00002   0.00004   0.00000  -0.00001
 176       13F+1        0.00000   0.00000   0.00000   0.00001   0.00000
 177       13F-1        0.00003  -0.00001   0.00000   0.00000  -0.00002
 178       13F+2        0.00001  -0.00001   0.00001   0.00000  -0.00004
 179       13F-2        0.00000   0.00000   0.00000   0.00002   0.00000
 180       13F+3        0.00000   0.00000   0.00000   0.00001   0.00000
 181       13F-3       -0.00002  -0.00001   0.00002   0.00000  -0.00001
 182       14F 0       -0.00013   0.00006  -0.00009   0.00000   0.00014
 183       14F+1        0.00000   0.00000   0.00000  -0.00003   0.00000
 184       14F-1       -0.00001  -0.00003   0.00014   0.00001   0.00019
 185       14F+2       -0.00007  -0.00001   0.00012   0.00002   0.00030
 186       14F-2        0.00000   0.00000   0.00000  -0.00008   0.00001
 187       14F+3        0.00000   0.00000   0.00001  -0.00003   0.00000
 188       14F-3        0.00012   0.00005  -0.00015  -0.00001   0.00000
                           6         7         8         9        10
     Eigenvalues --     2.00000   2.00000   2.00000   1.98612   1.98546
   1 1   C  1S          0.00000   0.58703   0.00016  -0.04808   0.00000
   2        2S          0.00000  -0.00556  -0.00003   0.09894   0.00000
   3        3S          0.00000   0.02379   0.00002   0.02060   0.00000
   4        4S          0.00000  -0.00203  -0.00004   0.01126   0.00000
   5        5S          0.00000   0.00065  -0.00007   0.00489   0.00000
   6        6PX         0.00000   0.00000   0.00000  -0.00043   0.00000
   7        6PY        -0.00002   0.00000   0.00000   0.00000   0.03331
   8        6PZ         0.00000  -0.00095   0.00001  -0.02072   0.00000
   9        7PX         0.00000  -0.00001   0.00000  -0.00051   0.00000
  10        7PY         0.00072   0.00000   0.00000   0.00000   0.02711
  11        7PZ         0.00000   0.00018  -0.00013  -0.02473   0.00000
  12        8PX         0.00000   0.00002   0.00000   0.00024   0.00000
  13        8PY        -0.00059   0.00000   0.00000   0.00000  -0.01794
  14        8PZ         0.00000   0.00218   0.00003   0.03656   0.00000
  15        9PX         0.00000  -0.00001   0.00000  -0.00010   0.00000
  16        9PY         0.00033   0.00000   0.00000   0.00000   0.00139
  17        9PZ         0.00000   0.00028  -0.00003   0.00128   0.00000
  18       10D 0        0.00000   0.00023  -0.00001   0.00308   0.00000
  19       10D+1        0.00000   0.00001   0.00000   0.00012   0.00000
  20       10D-1       -0.00020   0.00000   0.00000   0.00000  -0.01045
  21       10D+2        0.00000  -0.00051   0.00000  -0.00842   0.00000
  22       10D-2        0.00000   0.00000   0.00000   0.00000  -0.00014
  23       11D 0        0.00000  -0.00049  -0.00008   0.00233   0.00000
  24       11D+1        0.00000  -0.00001   0.00000   0.00021   0.00000
  25       11D-1       -0.00124   0.00000   0.00000   0.00000  -0.01070
  26       11D+2        0.00000   0.00000  -0.00003  -0.01134   0.00000
  27       11D-2       -0.00002   0.00000   0.00000   0.00000  -0.00017
  28       12D 0        0.00000  -0.00014  -0.00002   0.00685   0.00000
  29       12D+1        0.00000   0.00000   0.00000  -0.00005   0.00000
  30       12D-1        0.00064   0.00000   0.00000   0.00000   0.01327
  31       12D+2        0.00000   0.00026   0.00000   0.00845   0.00000
  32       12D-2        0.00001   0.00000   0.00000   0.00000   0.00016
  33       13F 0        0.00000   0.00061   0.00001   0.00274   0.00000
  34       13F+1        0.00000  -0.00001   0.00000  -0.00005   0.00000
  35       13F-1        0.00017   0.00000   0.00000   0.00000   0.00181
  36       13F+2        0.00000   0.00060   0.00001   0.00521   0.00000
  37       13F-2        0.00001   0.00000   0.00000   0.00000   0.00005
  38       13F+3        0.00000   0.00001   0.00000   0.00009   0.00000
  39       13F-3       -0.00021   0.00000   0.00000   0.00000  -0.00214
  40       14F 0        0.00000   0.00053   0.00003   0.00420   0.00000
  41       14F+1        0.00000   0.00000   0.00000   0.00010   0.00000
  42       14F-1        0.00106   0.00000   0.00000   0.00000   0.00422
  43       14F+2        0.00000  -0.00025   0.00001   0.00234   0.00000
  44       14F-2        0.00003   0.00000   0.00000   0.00000   0.00014
  45       14F+3        0.00000  -0.00001   0.00000   0.00003   0.00000
  46       14F-3        0.00013   0.00000   0.00000   0.00000   0.00034
  47 2   S  1S          0.00000   0.04651   0.99640   0.00292   0.00000
  48        2S          0.00000  -0.16292   0.01318  -0.01167   0.00000
  49        3S          0.00000   0.00050   0.00031   0.02248   0.00000
  50        4S          0.00000  -0.01214  -0.00003   0.00241   0.00000
  51        5S          0.00000   0.00118  -0.00005  -0.01835   0.00000
  52        6S          0.00000  -0.00093   0.00005  -0.01149   0.00000
  53        7PX         0.00000  -0.00906  -0.00002  -0.00008   0.00000
  54        7PY         0.01182   0.00000   0.00000   0.00000  -0.00434
  55        7PZ         0.00000   0.33445   0.00171   0.00758   0.00000
  56        8PX         0.00000   0.00008   0.00000   0.00000   0.00000
  57        8PY        -0.00034   0.00000   0.00000   0.00000   0.01613
  58        8PZ         0.00000  -0.00288  -0.00018  -0.01279   0.00000
  59        9PX         0.00000  -0.00060   0.00000   0.00008   0.00000
  60        9PY         0.00073   0.00000   0.00000   0.00000   0.00663
  61        9PZ         0.00000   0.02235   0.00019  -0.00742   0.00000
  62       10PX         0.00000  -0.00003   0.00000  -0.00019   0.00000
  63       10PY        -0.00048   0.00000   0.00000   0.00000   0.00418
  64       10PZ         0.00000  -0.00018   0.00003   0.00651   0.00000
  65       11PX         0.00000   0.00001   0.00000   0.00005   0.00000
  66       11PY        -0.00018   0.00000   0.00000   0.00000  -0.00054
  67       11PZ         0.00000   0.00007   0.00000   0.00188   0.00000
  68       12D 0        0.00000   0.00101   0.00008   0.00139   0.00000
  69       12D+1        0.00000  -0.00002   0.00000   0.00011   0.00000
  70       12D-1        0.00012   0.00000   0.00000   0.00000   0.00009
  71       12D+2        0.00000   0.00009  -0.00001  -0.00020   0.00000
  72       12D-2       -0.00001   0.00000   0.00000   0.00000  -0.00006
  73       13D 0        0.00000  -0.00067   0.00001   0.00257   0.00000
  74       13D+1        0.00000   0.00001   0.00000  -0.00003   0.00000
  75       13D-1       -0.00001   0.00000   0.00000   0.00000  -0.00034
  76       13D+2        0.00000  -0.00005   0.00001  -0.00001   0.00000
  77       13D-2        0.00000   0.00000   0.00000   0.00000   0.00000
  78       14D 0        0.00000   0.00026  -0.00003  -0.00158   0.00000
  79       14D+1        0.00000   0.00001   0.00000   0.00008   0.00000
  80       14D-1        0.00013   0.00000   0.00000   0.00000   0.00195
  81       14D+2        0.00000  -0.00008   0.00000  -0.00270   0.00000
  82       14D-2       -0.00001   0.00000   0.00000   0.00000  -0.00010
  83       15F 0        0.00000   0.00035  -0.00002  -0.00045   0.00000
  84       15F+1        0.00000   0.00000   0.00000   0.00000   0.00000
  85       15F-1        0.00000   0.00000   0.00000   0.00000   0.00021
  86       15F+2        0.00000   0.00009   0.00000   0.00001   0.00000
  87       15F-2        0.00000   0.00000   0.00000   0.00000   0.00001
  88       15F+3        0.00000   0.00000   0.00000   0.00000   0.00000
  89       15F-3       -0.00001   0.00000   0.00000   0.00000   0.00000
  90       16F 0        0.00000  -0.00050  -0.00001   0.00034   0.00000
  91       16F+1        0.00000   0.00001   0.00000  -0.00005   0.00000
  92       16F-1       -0.00002   0.00000   0.00000   0.00000  -0.00019
  93       16F+2        0.00000  -0.00009   0.00000   0.00088   0.00000
  94       16F-2        0.00001   0.00000   0.00000   0.00000   0.00007
  95       16F+3        0.00000   0.00000   0.00000  -0.00002   0.00000
  96       16F-3        0.00003   0.00000   0.00000   0.00000   0.00023
  97 3   F  1S         -0.69208   0.48671   0.00014  -0.14653   0.15004
  98        2S          0.01116  -0.00688  -0.00001   0.37465  -0.38398
  99        3S         -0.02981   0.02132   0.00001   0.11418  -0.11769
 100        4S          0.00069   0.00123  -0.00003   0.23445  -0.25373
 101        5S         -0.00067   0.00032   0.00004   0.01848  -0.03168
 102        6PX        -0.00002   0.00000   0.00000  -0.00023   0.00025
 103        6PY        -0.00143   0.00045   0.00000  -0.00577   0.03767
 104        6PZ        -0.00109   0.00001   0.00000  -0.02186   0.00808
 105        7PX         0.00000  -0.00002   0.00000  -0.00024   0.00025
 106        7PY         0.00014  -0.00073  -0.00001  -0.00268   0.04114
 107        7PZ        -0.00012  -0.00097  -0.00001  -0.02387   0.00614
 108        8PX        -0.00003   0.00000   0.00000  -0.00027   0.00012
 109        8PY        -0.00067   0.00059   0.00000  -0.01350   0.03418
 110        8PZ        -0.00152  -0.00063  -0.00004  -0.02907   0.00461
 111        9PX         0.00000   0.00001   0.00000   0.00002   0.00003
 112        9PY        -0.00040   0.00008   0.00001  -0.00170  -0.00110
 113        9PZ        -0.00005  -0.00014   0.00001  -0.00056   0.00042
 114       10D 0        0.00000   0.00001   0.00000  -0.00013  -0.00014
 115       10D+1        0.00000   0.00000   0.00000   0.00001   0.00000
 116       10D-1       -0.00001   0.00005   0.00000   0.00065  -0.00041
 117       10D+2        0.00001  -0.00001   0.00000  -0.00065   0.00009
 118       10D-2        0.00000   0.00000   0.00000   0.00001   0.00000
 119       11D 0       -0.00007  -0.00007   0.00000  -0.00077  -0.00094
 120       11D+1        0.00000  -0.00001   0.00000   0.00002  -0.00005
 121       11D-1        0.00024  -0.00052  -0.00001   0.00359  -0.00384
 122       11D+2       -0.00017   0.00021   0.00000  -0.00336   0.00194
 123       11D-2        0.00000  -0.00001   0.00000   0.00005  -0.00004
 124       12D 0       -0.00030  -0.00012   0.00000  -0.00141  -0.00124
 125       12D+1       -0.00001   0.00000   0.00000  -0.00002  -0.00001
 126       12D-1       -0.00038  -0.00029  -0.00002  -0.00528   0.00000
 127       12D+2        0.00017  -0.00013  -0.00001   0.00184  -0.00126
 128       12D-2       -0.00001   0.00001   0.00000  -0.00005  -0.00002
 129       13F 0        0.00000  -0.00002   0.00000  -0.00034   0.00011
 130       13F+1        0.00000   0.00000   0.00000   0.00000   0.00000
 131       13F-1        0.00001  -0.00001   0.00000   0.00014  -0.00028
 132       13F+2       -0.00001   0.00001   0.00000  -0.00054   0.00031
 133       13F-2        0.00000   0.00000   0.00000   0.00001   0.00000
 134       13F+3        0.00000   0.00000   0.00000  -0.00001   0.00000
 135       13F-3       -0.00006   0.00002   0.00000  -0.00042   0.00003
 136       14F 0       -0.00004   0.00020   0.00001  -0.00035   0.00035
 137       14F+1        0.00000   0.00000   0.00000   0.00000  -0.00001
 138       14F-1       -0.00003  -0.00020   0.00000  -0.00018  -0.00086
 139       14F+2        0.00000   0.00027   0.00000  -0.00075   0.00096
 140       14F-2        0.00000  -0.00001   0.00000   0.00001  -0.00003
 141       14F+3        0.00000   0.00000   0.00000  -0.00002   0.00001
 142       14F-3        0.00012   0.00004   0.00000  -0.00047   0.00062
 143 4   F  1S          0.69208   0.48671   0.00014  -0.14653  -0.15004
 144        2S         -0.01116  -0.00688  -0.00001   0.37465   0.38398
 145        3S          0.02981   0.02132   0.00001   0.11418   0.11769
 146        4S         -0.00069   0.00123  -0.00003   0.23445   0.25373
 147        5S          0.00067   0.00032   0.00004   0.01848   0.03168
 148        6PX         0.00002   0.00000   0.00000  -0.00023  -0.00025
 149        6PY        -0.00143  -0.00045   0.00000   0.00577   0.03767
 150        6PZ         0.00109   0.00001   0.00000  -0.02186  -0.00808
 151        7PX         0.00000  -0.00002   0.00000  -0.00024  -0.00025
 152        7PY         0.00014   0.00073   0.00001   0.00268   0.04114
 153        7PZ         0.00012  -0.00097  -0.00001  -0.02387  -0.00614
 154        8PX         0.00003   0.00000   0.00000  -0.00027  -0.00012
 155        8PY        -0.00067  -0.00059   0.00000   0.01350   0.03418
 156        8PZ         0.00152  -0.00063  -0.00004  -0.02907  -0.00461
 157        9PX         0.00000   0.00001   0.00000   0.00002  -0.00003
 158        9PY        -0.00040  -0.00008  -0.00001   0.00170  -0.00110
 159        9PZ         0.00005  -0.00014   0.00001  -0.00056  -0.00042
 160       10D 0        0.00000   0.00001   0.00000  -0.00013   0.00014
 161       10D+1        0.00000   0.00000   0.00000   0.00001   0.00000
 162       10D-1       -0.00001  -0.00005   0.00000  -0.00065  -0.00041
 163       10D+2       -0.00001  -0.00001   0.00000  -0.00065  -0.00009
 164       10D-2        0.00000   0.00000   0.00000  -0.00001   0.00000
 165       11D 0        0.00007  -0.00007   0.00000  -0.00077   0.00094
 166       11D+1        0.00000  -0.00001   0.00000   0.00002   0.00005
 167       11D-1        0.00024   0.00052   0.00001  -0.00359  -0.00384
 168       11D+2        0.00017   0.00021   0.00000  -0.00336  -0.00194
 169       11D-2        0.00000   0.00001   0.00000  -0.00005  -0.00004
 170       12D 0        0.00030  -0.00012   0.00000  -0.00141   0.00124
 171       12D+1        0.00001   0.00000   0.00000  -0.00002   0.00001
 172       12D-1       -0.00038   0.00029   0.00002   0.00528   0.00000
 173       12D+2       -0.00017  -0.00013  -0.00001   0.00184   0.00126
 174       12D-2       -0.00001  -0.00001   0.00000   0.00005  -0.00002
 175       13F 0        0.00000  -0.00002   0.00000  -0.00034  -0.00011
 176       13F+1        0.00000   0.00000   0.00000   0.00000   0.00000
 177       13F-1        0.00001   0.00001   0.00000  -0.00014  -0.00028
 178       13F+2        0.00001   0.00001   0.00000  -0.00054  -0.00031
 179       13F-2        0.00000   0.00000   0.00000  -0.00001   0.00000
 180       13F+3        0.00000   0.00000   0.00000  -0.00001   0.00000
 181       13F-3       -0.00006  -0.00002   0.00000   0.00042   0.00003
 182       14F 0        0.00004   0.00020   0.00001  -0.00035  -0.00035
 183       14F+1        0.00000   0.00000   0.00000   0.00000   0.00001
 184       14F-1       -0.00003   0.00020   0.00000   0.00018  -0.00086
 185       14F+2        0.00000   0.00027   0.00000  -0.00075  -0.00096
 186       14F-2        0.00000   0.00001   0.00000  -0.00001  -0.00003
 187       14F+3        0.00000   0.00000   0.00000  -0.00002  -0.00001
 188       14F-3        0.00012  -0.00004   0.00000   0.00047   0.00062
                          11        12        13        14        15
     Eigenvalues --     1.97415   1.97117   1.97006   1.96730   1.96693
   1 1   C  1S         -0.05546  -0.10227   0.00000   0.00000  -0.00003
   2        2S          0.14997   0.27583   0.00000   0.00000   0.00015
   3        3S          0.03538   0.06787   0.00000   0.00000  -0.00003
   4        4S          0.01892   0.14472   0.00000   0.00000   0.00365
   5        5S         -0.02048   0.04367   0.00000   0.00000   0.00120
   6        6PX        -0.00024  -0.00165   0.00000   0.00000   0.10234
   7        6PY         0.00000   0.00000  -0.05183   0.00071   0.00000
   8        6PZ         0.09084   0.00965   0.00000   0.00000   0.00155
   9        7PX        -0.00026  -0.00216   0.00000   0.00000   0.12541
  10        7PY         0.00000   0.00000  -0.07640   0.00070   0.00000
  11        7PZ         0.11660  -0.00376   0.00000   0.00000   0.00134
  12        8PX         0.00072  -0.00066   0.00000   0.00000   0.00519
  13        8PY         0.00000   0.00000   0.05616   0.00019   0.00000
  14        8PZ        -0.05426   0.03679   0.00000   0.00000   0.00245
  15        9PX         0.00001  -0.00003   0.00000   0.00000  -0.00079
  16        9PY         0.00000   0.00000  -0.00044  -0.00040   0.00000
  17        9PZ        -0.00742   0.01369   0.00000   0.00000   0.00019
  18       10D 0       -0.00828   0.01912   0.00000   0.00000   0.00042
  19       10D+1       -0.00020   0.00014   0.00000   0.00000  -0.01502
  20       10D-1        0.00000   0.00000  -0.00909   0.00000   0.00000
  21       10D+2       -0.00986   0.00281   0.00000   0.00000  -0.00001
  22       10D-2        0.00000   0.00000   0.00010  -0.02020   0.00000
  23       11D 0       -0.01821   0.03204   0.00000   0.00000   0.00065
  24       11D+1       -0.00026   0.00026   0.00000   0.00000  -0.02486
  25       11D-1        0.00000   0.00000  -0.00675  -0.00025   0.00000
  26       11D+2       -0.01788   0.00206   0.00000   0.00000  -0.00011
  27       11D-2        0.00000   0.00000   0.00027  -0.03258   0.00000
  28       12D 0       -0.00464  -0.00376   0.00000   0.00000   0.00057
  29       12D+1        0.00084  -0.00046   0.00000   0.00000  -0.00234
  30       12D-1        0.00000   0.00000   0.01132  -0.00189   0.00000
  31       12D+2        0.00056  -0.00018   0.00000   0.00000   0.00037
  32       12D-2        0.00000   0.00000  -0.00051   0.00882   0.00000
  33       13F 0        0.00838   0.00171   0.00000   0.00000  -0.00006
  34       13F+1        0.00003  -0.00017   0.00000   0.00000   0.00415
  35       13F-1        0.00000   0.00000   0.00929  -0.00001   0.00000
  36       13F+2        0.00157   0.00282   0.00000   0.00000   0.00012
  37       13F-2        0.00000   0.00000   0.00005   0.00875   0.00000
  38       13F+3        0.00009   0.00007   0.00000   0.00000  -0.00781
  39       13F-3        0.00000   0.00000   0.00520   0.00018   0.00000
  40       14F 0        0.00655   0.00138   0.00000   0.00000   0.00021
  41       14F+1        0.00018  -0.00017   0.00000   0.00000  -0.00150
  42       14F-1        0.00000   0.00000   0.01950  -0.00050   0.00000
  43       14F+2        0.00688   0.00240   0.00000   0.00000   0.00013
  44       14F-2        0.00000   0.00000  -0.00014   0.00946   0.00000
  45       14F+3       -0.00003  -0.00002   0.00000   0.00000  -0.00063
  46       14F-3        0.00000   0.00000   0.00020  -0.00009   0.00000
  47 2   S  1S          0.03174   0.04386   0.00000   0.00000   0.00089
  48        2S         -0.12372  -0.16828   0.00000   0.00000  -0.00344
  49        3S          0.24976   0.35461   0.00000   0.00000   0.00724
  50        4S          0.03192   0.04486   0.00000   0.00000   0.00090
  51        5S          0.17446   0.15554   0.00000   0.00000   0.00170
  52        6S          0.02762  -0.05489   0.00000   0.00000  -0.00164
  53        7PX        -0.00012  -0.00012   0.00000   0.00000   0.01252
  54        7PY         0.00000   0.00000   0.00322  -0.00007   0.00000
  55        7PZ         0.02895   0.03487   0.00000   0.00000   0.00051
  56        8PX        -0.00011  -0.00004   0.00000   0.00000  -0.03135
  57        8PY         0.00000   0.00000  -0.01960   0.00047   0.00000
  58        8PZ        -0.03338  -0.04126   0.00000   0.00000  -0.00050
  59        9PX         0.00002   0.00001   0.00000   0.00000  -0.01415
  60        9PY         0.00000   0.00000  -0.00149   0.00006   0.00000
  61        9PZ        -0.01840  -0.02386   0.00000   0.00000  -0.00037
  62       10PX        -0.00074   0.00011   0.00000   0.00000  -0.02722
  63       10PY         0.00000   0.00000  -0.02354   0.00178   0.00000
  64       10PZ        -0.01472   0.03256   0.00000   0.00000   0.00103
  65       11PX        -0.00006  -0.00004   0.00000   0.00000  -0.00411
  66       11PY         0.00000   0.00000   0.00444   0.00023   0.00000
  67       11PZ        -0.00070   0.00948   0.00000   0.00000   0.00028
  68       12D 0        0.00551   0.00946   0.00000   0.00000   0.00007
  69       12D+1        0.00005  -0.00003   0.00000   0.00000  -0.00822
  70       12D-1        0.00000   0.00000   0.02003  -0.00045   0.00000
  71       12D+2       -0.00240   0.00192   0.00000   0.00000   0.00002
  72       12D-2        0.00000   0.00000  -0.00013  -0.00418   0.00000
  73       13D 0        0.01658   0.01837   0.00000   0.00000   0.00015
  74       13D+1       -0.00013  -0.00012   0.00000   0.00000  -0.00468
  75       13D-1        0.00000   0.00000   0.00792  -0.00010   0.00000
  76       13D+2       -0.00082   0.00161   0.00000   0.00000   0.00006
  77       13D-2        0.00000   0.00000  -0.00002  -0.00128   0.00000
  78       14D 0       -0.00203  -0.01043   0.00000   0.00000  -0.00031
  79       14D+1        0.00032   0.00003   0.00000   0.00000  -0.00275
  80       14D-1        0.00000   0.00000   0.01341  -0.00068   0.00000
  81       14D+2       -0.00075  -0.00064   0.00000   0.00000  -0.00014
  82       14D-2        0.00000   0.00000   0.00001  -0.00473   0.00000
  83       15F 0       -0.00516  -0.00699   0.00000   0.00000  -0.00011
  84       15F+1        0.00003   0.00010   0.00000   0.00000   0.00183
  85       15F-1        0.00000   0.00000  -0.00513   0.00011   0.00000
  86       15F+2        0.00073  -0.00062   0.00000   0.00000  -0.00002
  87       15F-2        0.00000   0.00000   0.00007   0.00135   0.00000
  88       15F+3        0.00000   0.00000   0.00000   0.00000  -0.00036
  89       15F-3        0.00000   0.00000   0.00027   0.00000   0.00000
  90       16F 0        0.00681   0.00093   0.00000   0.00000  -0.00002
  91       16F+1       -0.00008  -0.00006   0.00000   0.00000   0.00201
  92       16F-1        0.00000   0.00000  -0.00190   0.00010   0.00000
  93       16F+2       -0.00042  -0.00052   0.00000   0.00000   0.00010
  94       16F-2        0.00000   0.00000   0.00002   0.00331   0.00000
  95       16F+3       -0.00001   0.00000   0.00000   0.00000   0.00032
  96       16F-3        0.00000   0.00000  -0.00037  -0.00003   0.00000
  97 3   F  1S         -0.00001   0.02747   0.01573   0.00016   0.00011
  98        2S         -0.00161  -0.07746  -0.04107  -0.00041  -0.00024
  99        3S         -0.00022  -0.02629  -0.01375  -0.00011  -0.00003
 100        4S         -0.01469  -0.10139  -0.03928   0.00024   0.00007
 101        5S         -0.01582  -0.01896   0.00664   0.00216   0.00043
 102        6PX         0.00072  -0.00165  -0.00004   0.27590   0.25155
 103        6PY        -0.10901   0.15560  -0.15423  -0.00326  -0.00173
 104        6PZ         0.18034  -0.06661   0.23041  -0.00186  -0.00464
 105        7PX         0.00086  -0.00203  -0.00005   0.33585   0.30689
 106        7PY        -0.13309   0.18650  -0.18729  -0.00397  -0.00213
 107        7PZ         0.21723  -0.08232   0.27829  -0.00224  -0.00566
 108        8PX         0.00043  -0.00157   0.00004   0.23486   0.21149
 109        8PY        -0.09029   0.10257  -0.14818  -0.00291  -0.00123
 110        8PZ         0.14770  -0.07675   0.18744  -0.00119  -0.00407
 111        9PX         0.00018  -0.00023  -0.00020   0.02735   0.01712
 112        9PY        -0.01251   0.00564  -0.01250   0.00039  -0.00008
 113        9PZ         0.01046  -0.01442   0.02327  -0.00017  -0.00018
 114       10D 0        0.00240  -0.00123   0.00231  -0.00002  -0.00003
 115       10D+1        0.00002  -0.00001   0.00003   0.00174   0.00186
 116       10D-1        0.00144   0.00158   0.00119  -0.00005  -0.00007
 117       10D+2        0.00132  -0.00237   0.00075   0.00006   0.00007
 118       10D-2       -0.00001   0.00000  -0.00001   0.00212   0.00299
 119       11D 0        0.00854  -0.00511   0.00856  -0.00006  -0.00013
 120       11D+1        0.00009  -0.00009   0.00009   0.00715   0.00784
 121       11D-1        0.00383   0.00346   0.00420  -0.00019  -0.00031
 122       11D+2        0.00497  -0.00741   0.00348   0.00021   0.00025
 123       11D-2       -0.00003  -0.00001  -0.00005   0.00958   0.01218
 124       12D 0        0.00564  -0.00324   0.00716   0.00009  -0.00016
 125       12D+1        0.00001  -0.00011   0.00002   0.00470   0.00429
 126       12D-1        0.00348  -0.00290  -0.00187  -0.00003  -0.00028
 127       12D+2       -0.00017  -0.00022   0.00887   0.00030   0.00010
 128       12D-2       -0.00004  -0.00004   0.00002   0.00570   0.00794
 129       13F 0        0.00039  -0.00080   0.00061   0.00000   0.00000
 130       13F+1        0.00002  -0.00001   0.00003   0.00028   0.00029
 131       13F-1        0.00168  -0.00044   0.00173  -0.00002  -0.00003
 132       13F+2        0.00000  -0.00100  -0.00001   0.00004   0.00005
 133       13F-2        0.00001   0.00000   0.00001   0.00150   0.00166
 134       13F+3        0.00001   0.00000   0.00001  -0.00085  -0.00151
 135       13F-3        0.00075  -0.00088   0.00031   0.00003   0.00004
 136       14F 0        0.00191  -0.00113   0.00067  -0.00001   0.00004
 137       14F+1        0.00004  -0.00004   0.00001   0.00071   0.00030
 138       14F-1        0.00223  -0.00157   0.00293  -0.00003  -0.00008
 139       14F+2        0.00030  -0.00092  -0.00022   0.00009   0.00011
 140       14F-2        0.00002  -0.00004   0.00001   0.00268   0.00295
 141       14F+3        0.00000  -0.00003   0.00002  -0.00256  -0.00210
 142       14F-3        0.00040  -0.00127   0.00153   0.00008   0.00007
 143 4   F  1S         -0.00001   0.02747  -0.01573  -0.00016   0.00011
 144        2S         -0.00161  -0.07746   0.04107   0.00041  -0.00024
 145        3S         -0.00022  -0.02629   0.01375   0.00011  -0.00003
 146        4S         -0.01469  -0.10139   0.03928  -0.00024   0.00007
 147        5S         -0.01582  -0.01896  -0.00664  -0.00216   0.00043
 148        6PX         0.00072  -0.00165   0.00004  -0.27590   0.25155
 149        6PY         0.10901  -0.15560  -0.15423  -0.00326   0.00173
 150        6PZ         0.18034  -0.06661  -0.23041   0.00186  -0.00464
 151        7PX         0.00086  -0.00203   0.00005  -0.33585   0.30689
 152        7PY         0.13309  -0.18650  -0.18729  -0.00397   0.00213
 153        7PZ         0.21723  -0.08232  -0.27829   0.00224  -0.00566
 154        8PX         0.00043  -0.00157  -0.00004  -0.23486   0.21149
 155        8PY         0.09029  -0.10257  -0.14818  -0.00291   0.00123
 156        8PZ         0.14770  -0.07675  -0.18744   0.00119  -0.00407
 157        9PX         0.00018  -0.00023   0.00020  -0.02735   0.01712
 158        9PY         0.01251  -0.00564  -0.01250   0.00039   0.00008
 159        9PZ         0.01046  -0.01442  -0.02327   0.00017  -0.00018
 160       10D 0        0.00240  -0.00123  -0.00231   0.00002  -0.00003
 161       10D+1        0.00002  -0.00001  -0.00003  -0.00174   0.00186
 162       10D-1       -0.00144  -0.00158   0.00119  -0.00005   0.00007
 163       10D+2        0.00132  -0.00237  -0.00075  -0.00006   0.00007
 164       10D-2        0.00001   0.00000  -0.00001   0.00212  -0.00299
 165       11D 0        0.00854  -0.00511  -0.00856   0.00006  -0.00013
 166       11D+1        0.00009  -0.00009  -0.00009  -0.00715   0.00784
 167       11D-1       -0.00383  -0.00346   0.00420  -0.00019   0.00031
 168       11D+2        0.00497  -0.00741  -0.00348  -0.00021   0.00025
 169       11D-2        0.00003   0.00001  -0.00005   0.00958  -0.01218
 170       12D 0        0.00564  -0.00324  -0.00716  -0.00009  -0.00016
 171       12D+1        0.00001  -0.00011  -0.00002  -0.00470   0.00429
 172       12D-1       -0.00348   0.00290  -0.00187  -0.00003   0.00028
 173       12D+2       -0.00017  -0.00022  -0.00887  -0.00030   0.00010
 174       12D-2        0.00004   0.00004   0.00002   0.00570  -0.00794
 175       13F 0        0.00039  -0.00080  -0.00061   0.00000   0.00000
 176       13F+1        0.00002  -0.00001  -0.00003  -0.00028   0.00029
 177       13F-1       -0.00168   0.00044   0.00173  -0.00002   0.00003
 178       13F+2        0.00000  -0.00100   0.00001  -0.00004   0.00005
 179       13F-2       -0.00001   0.00000   0.00001   0.00150  -0.00166
 180       13F+3        0.00001   0.00000  -0.00001   0.00085  -0.00151
 181       13F-3       -0.00075   0.00088   0.00031   0.00003  -0.00004
 182       14F 0        0.00191  -0.00113  -0.00067   0.00001   0.00004
 183       14F+1        0.00004  -0.00004  -0.00001  -0.00071   0.00030
 184       14F-1       -0.00223   0.00157   0.00293  -0.00003   0.00008
 185       14F+2        0.00030  -0.00092   0.00022  -0.00009   0.00011
 186       14F-2       -0.00002   0.00004   0.00001   0.00268  -0.00295
 187       14F+3        0.00000  -0.00003  -0.00002   0.00256  -0.00210
 188       14F-3       -0.00040   0.00127   0.00153   0.00008  -0.00007
                          16        17        18        19        20
     Eigenvalues --     1.96289   1.95899   1.94248   1.93934   1.91705
   1 1   C  1S         -0.08197   0.00000   0.07739   0.00000  -0.00152
   2        2S          0.21471   0.00000  -0.23043   0.00000   0.00438
   3        3S          0.05602   0.00000  -0.05924   0.00000   0.00114
   4        4S          0.09606   0.00000  -0.16593   0.00000   0.00470
   5        5S         -0.02005   0.00000  -0.02281   0.00000   0.00005
   6        6PX         0.00050   0.00000   0.00094   0.00000   0.18188
   7        6PY         0.00000   0.19220   0.00000   0.03391   0.00000
   8        6PZ        -0.13683   0.00000  -0.18047   0.00000   0.00088
   9        7PX         0.00055   0.00000   0.00130   0.00000   0.25479
  10        7PY         0.00000   0.23365   0.00000   0.04834   0.00000
  11        7PZ        -0.17111   0.00000  -0.22300   0.00000   0.00109
  12        8PX         0.00000   0.00000   0.00076   0.00000   0.13721
  13        8PY         0.00000   0.05674   0.00000   0.04958   0.00000
  14        8PZ        -0.01451   0.00000  -0.06780   0.00000   0.00192
  15        9PX         0.00000   0.00000   0.00008   0.00000   0.02111
  16        9PY         0.00000  -0.00002   0.00000  -0.00356   0.00000
  17        9PZ        -0.00550   0.00000  -0.00566   0.00000  -0.00036
  18       10D 0       -0.00722   0.00000  -0.01003   0.00000   0.00008
  19       10D+1       -0.00006   0.00000   0.00027   0.00000   0.01559
  20       10D-1        0.00000  -0.02651   0.00000   0.02079   0.00000
  21       10D+2       -0.01484   0.00000  -0.00772   0.00000   0.00002
  22       10D-2        0.00000  -0.00018   0.00000   0.00006   0.00000
  23       11D 0       -0.01875   0.00000  -0.01805   0.00000   0.00019
  24       11D+1       -0.00002   0.00000   0.00058   0.00000   0.04767
  25       11D-1        0.00000  -0.05784   0.00000   0.05102   0.00000
  26       11D+2       -0.03588   0.00000  -0.01946   0.00000   0.00002
  27       11D-2        0.00000  -0.00052   0.00000   0.00023   0.00000
  28       12D 0        0.00253   0.00000  -0.00600   0.00000   0.00068
  29       12D+1       -0.00006   0.00000   0.00002   0.00000   0.01867
  30       12D-1        0.00000  -0.00380   0.00000  -0.02355   0.00000
  31       12D+2        0.00430   0.00000  -0.00247   0.00000   0.00034
  32       12D-2        0.00000  -0.00001   0.00000   0.00003   0.00000
  33       13F 0        0.00209   0.00000  -0.00394   0.00000   0.00013
  34       13F+1        0.00005   0.00000   0.00011   0.00000   0.00670
  35       13F-1        0.00000   0.00781   0.00000   0.00703   0.00000
  36       13F+2        0.00539   0.00000   0.00175   0.00000  -0.00009
  37       13F-2        0.00000   0.00001   0.00000  -0.00009   0.00000
  38       13F+3       -0.00001   0.00000   0.00002   0.00000   0.00043
  39       13F-3        0.00000  -0.00254   0.00000   0.00205   0.00000
  40       14F 0        0.01004   0.00000   0.00132   0.00000   0.00013
  41       14F+1        0.00021   0.00000   0.00022   0.00000   0.00053
  42       14F-1        0.00000   0.01878   0.00000  -0.00020   0.00000
  43       14F+2        0.01082   0.00000   0.00039   0.00000  -0.00012
  44       14F-2        0.00000   0.00046   0.00000  -0.00018   0.00000
  45       14F+3        0.00020   0.00000   0.00023   0.00000   0.00397
  46       14F-3        0.00000  -0.00214   0.00000   0.00043   0.00000
  47 2   S  1S         -0.03641   0.00000   0.02961   0.00000  -0.00030
  48        2S          0.13886   0.00000  -0.11363   0.00000   0.00113
  49        3S         -0.30049   0.00000   0.26148   0.00000  -0.00260
  50        4S         -0.04135   0.00000   0.03772   0.00000  -0.00041
  51        5S         -0.18841   0.00000   0.32658   0.00000  -0.00429
  52        6S          0.01541   0.00000   0.05489   0.00000  -0.00008
  53        7PX         0.00055   0.00000  -0.00033   0.00000  -0.18867
  54        7PY         0.00000  -0.01421   0.00000  -0.21583   0.00000
  55        7PZ        -0.00948   0.00000  -0.17383   0.00000  -0.00065
  56        8PX        -0.00140   0.00000   0.00104   0.00000   0.43248
  57        8PY         0.00000   0.02867   0.00000   0.52214   0.00000
  58        8PZ         0.00586   0.00000   0.35955   0.00000   0.00207
  59        9PX        -0.00051   0.00000   0.00046   0.00000   0.17759
  60        9PY         0.00000   0.01457   0.00000   0.21973   0.00000
  61        9PZ         0.00482   0.00000   0.16460   0.00000   0.00074
  62       10PX        -0.00085   0.00000   0.00168   0.00000   0.23791
  63       10PY         0.00000   0.00411   0.00000   0.36960   0.00000
  64       10PZ         0.00194   0.00000   0.09587   0.00000   0.00245
  65       11PX        -0.00002   0.00000   0.00017   0.00000   0.00060
  66       11PY         0.00000   0.00056   0.00000   0.02711   0.00000
  67       11PZ        -0.00297   0.00000  -0.00447   0.00000   0.00020
  68       12D 0       -0.00046   0.00000  -0.02725   0.00000  -0.00012
  69       12D+1        0.00016   0.00000   0.00025   0.00000  -0.03390
  70       12D-1        0.00000  -0.00520   0.00000  -0.01319   0.00000
  71       12D+2       -0.00151   0.00000  -0.00084   0.00000   0.00022
  72       12D-2        0.00000  -0.00011   0.00000   0.00012   0.00000
  73       13D 0       -0.00632   0.00000  -0.04844   0.00000  -0.00014
  74       13D+1        0.00014   0.00000   0.00038   0.00000  -0.03415
  75       13D-1        0.00000  -0.00874   0.00000  -0.01489   0.00000
  76       13D+2       -0.00098   0.00000  -0.00095   0.00000   0.00022
  77       13D-2        0.00000   0.00007   0.00000   0.00012   0.00000
  78       14D 0        0.00138   0.00000   0.00514   0.00000  -0.00017
  79       14D+1       -0.00003   0.00000  -0.00021   0.00000  -0.00472
  80       14D-1        0.00000   0.00193   0.00000  -0.01768   0.00000
  81       14D+2       -0.00081   0.00000  -0.00194   0.00000  -0.00003
  82       14D-2        0.00000   0.00000   0.00000   0.00022   0.00000
  83       15F 0        0.00395   0.00000   0.01571   0.00000   0.00016
  84       15F+1       -0.00010   0.00000  -0.00023   0.00000   0.01205
  85       15F-1        0.00000   0.00316   0.00000   0.00818   0.00000
  86       15F+2        0.00019   0.00000   0.00214   0.00000  -0.00017
  87       15F-2        0.00000   0.00000   0.00000  -0.00011   0.00000
  88       15F+3       -0.00001   0.00000   0.00000   0.00000   0.00241
  89       15F-3        0.00000   0.00010   0.00000   0.00263   0.00000
  90       16F 0       -0.00186   0.00000  -0.00538   0.00000  -0.00002
  91       16F+1        0.00004   0.00000   0.00007   0.00000  -0.00064
  92       16F-1        0.00000  -0.00061   0.00000   0.00225   0.00000
  93       16F+2        0.00069   0.00000   0.00080   0.00000  -0.00001
  94       16F-2        0.00000   0.00009   0.00000  -0.00011   0.00000
  95       16F+3       -0.00006   0.00000  -0.00002   0.00000   0.00187
  96       16F-3        0.00000   0.00141   0.00000   0.00237   0.00000
  97 3   F  1S          0.00649   0.00871  -0.01341  -0.01568   0.00014
  98        2S         -0.02523  -0.01360   0.03720   0.04277  -0.00037
  99        3S         -0.01175   0.00000   0.01076   0.01343  -0.00011
 100        4S         -0.09913   0.07907   0.02016   0.03691  -0.00031
 101        5S         -0.02140   0.03560  -0.00555   0.05499   0.00074
 102        6PX         0.00514  -0.00332   0.00023   0.00036  -0.05358
 103        6PY         0.11705  -0.21804   0.02795   0.01974   0.00016
 104        6PZ         0.16367  -0.10595   0.06385   0.05263   0.00006
 105        7PX         0.00626  -0.00406   0.00030   0.00044  -0.06481
 106        7PY         0.14149  -0.26457   0.03562   0.02617   0.00019
 107        7PZ         0.19804  -0.12906   0.07923   0.06523   0.00007
 108        8PX         0.00393  -0.00256   0.00007   0.00046  -0.06086
 109        8PY         0.05881  -0.14267   0.01569   0.00869   0.00016
 110        8PZ         0.10715  -0.06536   0.05308   0.05277   0.00008
 111        9PX         0.00026  -0.00008  -0.00017   0.00019  -0.02567
 112        9PY        -0.00462  -0.00865   0.00006   0.01485   0.00006
 113        9PZ         0.00825   0.00437   0.01082   0.01795   0.00052
 114       10D 0       -0.00001  -0.00037  -0.00067  -0.00038  -0.00001
 115       10D+1        0.00007  -0.00006   0.00001   0.00000   0.00108
 116       10D-1        0.00422  -0.00483   0.00051   0.00043  -0.00001
 117       10D+2       -0.00283   0.00291  -0.00098  -0.00022   0.00002
 118       10D-2        0.00010  -0.00008   0.00003   0.00000   0.00111
 119       11D 0       -0.00023  -0.00212  -0.00221  -0.00227  -0.00004
 120       11D+1        0.00024  -0.00023   0.00006   0.00003   0.00387
 121       11D-1        0.01412  -0.01661   0.00307   0.00205  -0.00005
 122       11D+2       -0.00927   0.00953  -0.00354  -0.00205   0.00004
 123       11D-2        0.00036  -0.00028   0.00009   0.00005   0.00304
 124       12D 0       -0.00171  -0.00491  -0.00340  -0.00046  -0.00007
 125       12D+1        0.00011  -0.00015   0.00010   0.00003   0.00214
 126       12D-1       -0.00004  -0.00379  -0.00251  -0.00173  -0.00004
 127       12D+2       -0.00181   0.00106  -0.00011   0.00230   0.00005
 128       12D-2        0.00009  -0.00013  -0.00001   0.00003   0.00376
 129       13F 0       -0.00112   0.00119  -0.00036  -0.00027   0.00000
 130       13F+1        0.00001  -0.00001   0.00000   0.00000   0.00024
 131       13F-1        0.00107  -0.00118  -0.00007   0.00010  -0.00001
 132       13F+2       -0.00193   0.00225  -0.00049  -0.00028   0.00001
 133       13F-2        0.00006  -0.00005   0.00001   0.00000   0.00054
 134       13F+3       -0.00006   0.00004  -0.00002   0.00000  -0.00036
 135       13F-3       -0.00106   0.00094  -0.00055  -0.00010   0.00001
 136       14F 0       -0.00157   0.00121  -0.00133  -0.00092   0.00000
 137       14F+1        0.00004  -0.00004   0.00003  -0.00001   0.00051
 138       14F-1        0.00094  -0.00315   0.00000  -0.00067  -0.00003
 139       14F+2       -0.00311   0.00340  -0.00135  -0.00031   0.00002
 140       14F-2        0.00011  -0.00011   0.00004   0.00002   0.00056
 141       14F+3       -0.00007   0.00006   0.00001  -0.00003  -0.00019
 142       14F-3       -0.00156   0.00179  -0.00026  -0.00053  -0.00002
 143 4   F  1S          0.00649  -0.00871  -0.01341   0.01568   0.00014
 144        2S         -0.02523   0.01360   0.03720  -0.04277  -0.00037
 145        3S         -0.01175   0.00000   0.01076  -0.01343  -0.00011
 146        4S         -0.09913  -0.07907   0.02016  -0.03691  -0.00031
 147        5S         -0.02140  -0.03560  -0.00555  -0.05499   0.00074
 148        6PX         0.00514   0.00332   0.00023  -0.00036  -0.05358
 149        6PY        -0.11705  -0.21804  -0.02795   0.01974  -0.00016
 150        6PZ         0.16367   0.10595   0.06385  -0.05263   0.00006
 151        7PX         0.00626   0.00406   0.00030  -0.00044  -0.06481
 152        7PY        -0.14149  -0.26457  -0.03562   0.02617  -0.00019
 153        7PZ         0.19804   0.12906   0.07923  -0.06523   0.00007
 154        8PX         0.00393   0.00256   0.00007  -0.00046  -0.06086
 155        8PY        -0.05881  -0.14267  -0.01569   0.00869  -0.00016
 156        8PZ         0.10715   0.06536   0.05308  -0.05277   0.00008
 157        9PX         0.00026   0.00008  -0.00017  -0.00019  -0.02567
 158        9PY         0.00462  -0.00865  -0.00006   0.01485  -0.00006
 159        9PZ         0.00825  -0.00437   0.01082  -0.01795   0.00052
 160       10D 0       -0.00001   0.00037  -0.00067   0.00038  -0.00001
 161       10D+1        0.00007   0.00006   0.00001   0.00000   0.00108
 162       10D-1       -0.00422  -0.00483  -0.00051   0.00043   0.00001
 163       10D+2       -0.00283  -0.00291  -0.00098   0.00022   0.00002
 164       10D-2       -0.00010  -0.00008  -0.00003   0.00000  -0.00111
 165       11D 0       -0.00023   0.00212  -0.00221   0.00227  -0.00004
 166       11D+1        0.00024   0.00023   0.00006  -0.00003   0.00387
 167       11D-1       -0.01412  -0.01661  -0.00307   0.00205   0.00005
 168       11D+2       -0.00927  -0.00953  -0.00354   0.00205   0.00004
 169       11D-2       -0.00036  -0.00028  -0.00009   0.00005  -0.00304
 170       12D 0       -0.00171   0.00491  -0.00340   0.00046  -0.00007
 171       12D+1        0.00011   0.00015   0.00010  -0.00003   0.00214
 172       12D-1        0.00004  -0.00379   0.00251  -0.00173   0.00004
 173       12D+2       -0.00181  -0.00106  -0.00011  -0.00230   0.00005
 174       12D-2       -0.00009  -0.00013   0.00001   0.00003  -0.00376
 175       13F 0       -0.00112  -0.00119  -0.00036   0.00027   0.00000
 176       13F+1        0.00001   0.00001   0.00000   0.00000   0.00024
 177       13F-1       -0.00107  -0.00118   0.00007   0.00010   0.00001
 178       13F+2       -0.00193  -0.00225  -0.00049   0.00028   0.00001
 179       13F-2       -0.00006  -0.00005  -0.00001   0.00000  -0.00054
 180       13F+3       -0.00006  -0.00004  -0.00002   0.00000  -0.00036
 181       13F-3        0.00106   0.00094   0.00055  -0.00010  -0.00001
 182       14F 0       -0.00157  -0.00121  -0.00133   0.00092   0.00000
 183       14F+1        0.00004   0.00004   0.00003   0.00001   0.00051
 184       14F-1       -0.00094  -0.00315   0.00000  -0.00067   0.00003
 185       14F+2       -0.00311  -0.00340  -0.00135   0.00031   0.00002
 186       14F-2       -0.00011  -0.00011  -0.00004   0.00002  -0.00056
 187       14F+3       -0.00007  -0.00006   0.00001   0.00003  -0.00019
 188       14F-3        0.00156   0.00179   0.00026  -0.00053   0.00002
                          21        22        23        24        25
     Eigenvalues --     0.07403   0.04119   0.03931   0.03212   0.01913
   1 1   C  1S         -0.00217   0.17638   0.00000   0.03546   0.03243
   2        2S          0.00723  -0.60101   0.00000  -0.09678  -0.09438
   3        3S          0.00260  -0.21360   0.00000   0.00949  -0.04061
   4        4S          0.00756  -0.64324   0.00000   0.04189   0.08162
   5        5S          0.00132  -0.12235   0.00000   0.02917   0.09776
   6        6PX         0.31815   0.00441   0.00000   0.00129   0.00055
   7        6PY         0.00000   0.00000   0.30446   0.00000   0.00000
   8        6PZ        -0.00077  -0.04733   0.00000   0.37169   0.05456
   9        7PX         0.44544   0.00728   0.00000   0.00207   0.00116
  10        7PY         0.00000   0.00000   0.58613   0.00000   0.00000
  11        7PZ        -0.00164  -0.04878   0.00000   0.66857   0.05769
  12        8PX         0.15476   0.00379   0.00000   0.00117  -0.00083
  13        8PY         0.00000   0.00000   0.10561   0.00000   0.00000
  14        8PZ         0.00428  -0.21621   0.00000   0.27443   0.30425
  15        9PX         0.00799   0.00023   0.00000  -0.00013  -0.00001
  16        9PY         0.00000   0.00000   0.01571   0.00000   0.00000
  17        9PZ         0.00020  -0.00778   0.00000  -0.00500   0.03366
  18       10D 0       -0.00026  -0.00135   0.00000   0.00948   0.05681
  19       10D+1        0.01626   0.00023   0.00000   0.00008   0.00056
  20       10D-1        0.00000   0.00000   0.03015   0.00000   0.00000
  21       10D+2        0.00034  -0.00934   0.00000   0.00339   0.04695
  22       10D-2        0.00000   0.00000   0.00000   0.00000   0.00000
  23       11D 0       -0.00115  -0.04389   0.00000   0.07387   0.15444
  24       11D+1        0.07197   0.00116   0.00000  -0.00116   0.00055
  25       11D-1        0.00000   0.00000  -0.06263   0.00000   0.00000
  26       11D+2       -0.00071   0.02864   0.00000   0.06704   0.14332
  27       11D-2        0.00000   0.00000  -0.00151   0.00000   0.00000
  28       12D 0        0.00072  -0.05321   0.00000   0.02368   0.01599
  29       12D+1        0.02794   0.00090   0.00000   0.00098  -0.00191
  30       12D-1        0.00000   0.00000  -0.03005   0.00000   0.00000
  31       12D+2       -0.00008   0.00702   0.00000   0.02063   0.02382
  32       12D-2        0.00000   0.00000   0.00087   0.00000   0.00000
  33       13F 0       -0.00004  -0.00776   0.00000   0.01366  -0.00185
  34       13F+1        0.01185   0.00044   0.00000   0.00016  -0.00013
  35       13F-1        0.00000   0.00000   0.03328   0.00000   0.00000
  36       13F+2        0.00023  -0.02214   0.00000  -0.02137   0.01243
  37       13F-2        0.00000   0.00000   0.00008   0.00000   0.00000
  38       13F+3       -0.00128  -0.00026   0.00000  -0.00011  -0.00037
  39       13F-3        0.00000   0.00000  -0.01167   0.00000   0.00000
  40       14F 0        0.00101  -0.02550   0.00000  -0.00934  -0.02518
  41       14F+1        0.02837   0.00038   0.00000  -0.00020  -0.00103
  42       14F-1        0.00000   0.00000   0.11566   0.00000   0.00000
  43       14F+2        0.00018  -0.01530   0.00000  -0.04156  -0.02689
  44       14F-2        0.00000   0.00000   0.00153   0.00000   0.00000
  45       14F+3        0.00936  -0.00035   0.00000  -0.00058  -0.00055
  46       14F-3        0.00000   0.00000   0.02812   0.00000   0.00000
  47 2   S  1S         -0.00014   0.02069   0.00000  -0.01271   0.01054
  48        2S          0.00047  -0.05610   0.00000   0.02876  -0.05260
  49        3S         -0.00109   0.21711   0.00000  -0.14141   0.09120
  50        4S         -0.00002   0.00873   0.00000   0.02716   0.08158
  51        5S         -0.00396   0.51791   0.00000  -0.52405  -0.38407
  52        6S         -0.00165   0.15624   0.00000  -0.12901  -0.17825
  53        7PX         0.18327   0.00019   0.00000   0.00102   0.00025
  54        7PY         0.00000   0.00000   0.10433   0.00000   0.00000
  55        7PZ        -0.00102   0.18220   0.00000  -0.09400   0.03037
  56        8PX        -0.48800   0.00075   0.00000  -0.00438  -0.00062
  57        8PY         0.00000   0.00000  -0.29332   0.00000   0.00000
  58        8PZ         0.00218  -0.60370   0.00000   0.47529   0.02642
  59        9PX        -0.20100  -0.00063   0.00000  -0.00091  -0.00045
  60        9PY         0.00000   0.00000  -0.14137   0.00000   0.00000
  61        9PZ         0.00082  -0.19838   0.00000   0.08851  -0.04460
  62       10PX        -0.12689   0.00115   0.00000  -0.00442   0.00032
  63       10PY         0.00000   0.00000   0.03876   0.00000   0.00000
  64       10PZ         0.00185  -0.31823   0.00000   0.35179   0.19678
  65       11PX        -0.00354  -0.00013   0.00000  -0.00006  -0.00005
  66       11PY         0.00000   0.00000  -0.00209   0.00000   0.00000
  67       11PZ         0.00023  -0.02195   0.00000   0.02372   0.02216
  68       12D 0       -0.00059  -0.07395   0.00000   0.05092   0.11387
  69       12D+1       -0.05886  -0.00147   0.00000  -0.00161  -0.00012
  70       12D-1        0.00000   0.00000  -0.18692   0.00000   0.00000
  71       12D+2        0.00071  -0.04544   0.00000   0.02524   0.40638
  72       12D-2        0.00000   0.00000   0.00092   0.00000   0.00000
  73       13D 0       -0.00102  -0.09823   0.00000   0.13908   0.10916
  74       13D+1       -0.07001  -0.00073   0.00000  -0.00275  -0.00030
  75       13D-1        0.00000   0.00000  -0.15681   0.00000   0.00000
  76       13D+2        0.00070  -0.03188   0.00000   0.01434   0.28886
  77       13D-2        0.00000   0.00000   0.00127   0.00000   0.00000
  78       14D 0        0.00000   0.03912   0.00000  -0.06996  -0.03285
  79       14D+1        0.01259  -0.00022   0.00000   0.00150   0.00013
  80       14D-1        0.00000   0.00000  -0.03364   0.00000   0.00000
  81       14D+2       -0.00007  -0.00865   0.00000   0.00353   0.02620
  82       14D-2        0.00000   0.00000   0.00006   0.00000   0.00000
  83       15F 0        0.00033   0.01810   0.00000  -0.02281  -0.02377
  84       15F+1        0.01920   0.00003   0.00000   0.00077   0.00049
[...]
  92       16F-1        0.66014  -0.18230   0.00000   0.00000  -0.00436
  93       16F+2        0.00000   0.00000   0.04802  -0.00584   0.00000
  94       16F-2       -0.02275   0.00175   0.00000   0.00000  -0.00663
  95       16F+3        0.00000   0.00000  -0.00585  -0.04377   0.00000
  96       16F-3       -0.01476  -0.07226   0.00000   0.00000   0.00323
  97 3   F  1S         -0.04055   0.00338  -0.04761   0.00017  -0.08979
  98        2S         -0.16349  -0.02691  -0.20667   0.00040  -0.42112
  99        3S          0.05445  -0.04705   0.05006  -0.00090   0.05302
 100        4S          1.68669   0.58329   0.87678   0.07605   3.26433
 101        5S          6.56168   0.61939   7.16772  -0.26317  17.24814
 102        6PX         0.00031  -0.00049   0.00130   0.01983   0.00040
 103        6PY         0.00239   0.01168   0.00523  -0.00059   0.01269
 104        6PZ        -0.02218   0.00620   0.00263  -0.00007   0.00536
 105        7PX        -0.00083   0.00190  -0.00504  -0.07482  -0.00168
 106        7PY         0.03907  -0.06976  -0.04498   0.00492  -0.05164
 107        7PZ         0.15578  -0.04804  -0.02323   0.00087  -0.01551
 108        8PX         0.00170  -0.00295   0.00293   0.07826   0.02505
 109        8PY         0.68052   0.91800   0.34225   0.03080   2.55590
 110        8PZ        -1.76565   1.19126   0.06073   0.08811   0.80525
 111        9PX         0.02377  -0.00456  -0.02744  -1.15549   0.02968
 112        9PY        -0.05916  -1.69215   0.74018  -0.01194   4.92862
 113        9PZ        -1.83920   0.20161   4.76989  -0.21271   1.68273
 114       10D 0       -0.01828  -0.00687   0.00106  -0.00004  -0.00277
 115       10D+1       -0.00175   0.00010  -0.00037  -0.01467  -0.00059
 116       10D-1       -0.00819  -0.00699   0.02652  -0.00070   0.00013
 117       10D+2        0.04929   0.01885   0.00539  -0.00046  -0.00323
 118       10D-2        0.00017  -0.00029  -0.00034  -0.00446   0.00010
 119       11D 0        0.05086   0.01719   0.00123  -0.00010   0.00774
 120       11D+1        0.00539  -0.00012   0.00143   0.05484   0.00200
 121       11D-1        0.03194   0.04692  -0.09249   0.00387   0.03324
 122       11D+2       -0.18193  -0.06600  -0.01244   0.00065  -0.01924
 123       11D-2       -0.00041   0.00103   0.00077   0.01698   0.00021
 124       12D 0       -0.81328   0.15721  -0.11237   0.01852  -0.44532
 125       12D+1       -0.02417   0.00613  -0.00852  -0.18095  -0.00579
 126       12D-1       -0.34170   0.36718   0.12453   0.03174   0.43388
 127       12D+2        0.35553  -0.11315  -0.01387   0.00008  -0.50682
 128       12D-2        0.00203   0.00071  -0.01175  -0.09613   0.00927
 129       13F 0        0.00756   0.01730   0.00437   0.00074   0.00995
 130       13F+1        0.00193  -0.00091  -0.00017  -0.00956   0.00151
 131       13F-1        0.00010  -0.01689   0.02673  -0.00189   0.00960
 132       13F+2        0.02943   0.01658  -0.02205   0.00133   0.00326
 133       13F-2        0.00022  -0.00051   0.00115   0.00881   0.00022
 134       13F+3       -0.00017   0.00076  -0.00094  -0.00025  -0.00022
 135       13F-3       -0.01927   0.01987   0.00862  -0.00116  -0.00493
 136       14F 0       -0.04781  -0.04968  -0.00734  -0.00275  -0.06514
 137       14F+1       -0.00516   0.00222   0.00063   0.01506  -0.00364
 138       14F-1       -0.05057   0.06067  -0.05340   0.00562  -0.02620
 139       14F+2       -0.04635  -0.07185   0.03862  -0.00411  -0.05470
 140       14F-2       -0.00160   0.00184  -0.00223  -0.00999  -0.00011
 141       14F+3        0.00026  -0.00180   0.00281   0.00006  -0.00052
 142       14F-3        0.05393  -0.05931  -0.02188   0.00301  -0.02254
 143 4   F  1S          0.04055  -0.00338  -0.04761   0.00017   0.08979
 144        2S          0.16349   0.02691  -0.20667   0.00040   0.42112
 145        3S         -0.05445   0.04705   0.05006  -0.00090  -0.05302
 146        4S         -1.68669  -0.58329   0.87678   0.07605  -3.26433
 147        5S         -6.56168  -0.61939   7.16772  -0.26317 -17.24814
 148        6PX        -0.00031   0.00049   0.00130   0.01983  -0.00040
 149        6PY         0.00239   0.01168  -0.00523   0.00059   0.01269
 150        6PZ         0.02218  -0.00620   0.00263  -0.00007  -0.00536
 151        7PX         0.00083  -0.00190  -0.00504  -0.07482   0.00168
 152        7PY         0.03907  -0.06976   0.04498  -0.00492  -0.05164
 153        7PZ        -0.15578   0.04804  -0.02323   0.00087   0.01551
 154        8PX        -0.00170   0.00295   0.00293   0.07826  -0.02505
 155        8PY         0.68052   0.91800  -0.34225  -0.03080   2.55590
 156        8PZ         1.76565  -1.19126   0.06073   0.08811  -0.80525
 157        9PX        -0.02377   0.00456  -0.02744  -1.15549  -0.02968
 158        9PY        -0.05916  -1.69215  -0.74018   0.01194   4.92862
 159        9PZ         1.83920  -0.20161   4.76989  -0.21271  -1.68273
 160       10D 0        0.01828   0.00687   0.00106  -0.00004   0.00277
 161       10D+1        0.00175  -0.00010  -0.00037  -0.01467   0.00059
 162       10D-1       -0.00819  -0.00699  -0.02652   0.00070   0.00013
 163       10D+2       -0.04929  -0.01885   0.00539  -0.00046   0.00323
 164       10D-2        0.00017  -0.00029   0.00034   0.00446   0.00010
 165       11D 0       -0.05086  -0.01719   0.00123  -0.00010  -0.00774
 166       11D+1       -0.00539   0.00012   0.00143   0.05484  -0.00200
 167       11D-1        0.03194   0.04692   0.09249  -0.00387   0.03324
 168       11D+2        0.18193   0.06600  -0.01244   0.00065   0.01924
 169       11D-2       -0.00041   0.00103  -0.00077  -0.01698   0.00021
 170       12D 0        0.81328  -0.15721  -0.11237   0.01852   0.44532
 171       12D+1        0.02417  -0.00613  -0.00852  -0.18095   0.00579
 172       12D-1       -0.34170   0.36718  -0.12453  -0.03174   0.43388
 173       12D+2       -0.35553   0.11315  -0.01387   0.00008   0.50682
 174       12D-2        0.00203   0.00071   0.01175   0.09613   0.00927
 175       13F 0       -0.00756  -0.01730   0.00437   0.00074  -0.00995
 176       13F+1       -0.00193   0.00091  -0.00017  -0.00956  -0.00151
 177       13F-1        0.00010  -0.01689  -0.02673   0.00189   0.00960
 178       13F+2       -0.02943  -0.01658  -0.02205   0.00133  -0.00326
 179       13F-2        0.00022  -0.00051  -0.00115  -0.00881   0.00022
 180       13F+3        0.00017  -0.00076  -0.00094  -0.00025   0.00022
 181       13F-3       -0.01927   0.01987  -0.00862   0.00116  -0.00493
 182       14F 0        0.04781   0.04968  -0.00734  -0.00275   0.06514
 183       14F+1        0.00516  -0.00222   0.00063   0.01506   0.00364
 184       14F-1       -0.05057   0.06067   0.05340  -0.00562  -0.02620
 185       14F+2        0.04635   0.07185   0.03862  -0.00411   0.05470
 186       14F-2       -0.00160   0.00184   0.00223   0.00999  -0.00011
 187       14F+3       -0.00026   0.00180   0.00281   0.00006   0.00052
 188       14F-3        0.05393  -0.05931   0.02188  -0.00301  -0.02254
                         186       187       188
     Eigenvalues --     0.00000   0.00000   0.00000
   1 1   C  1S         -0.07373  -0.06749   0.00554
   2        2S         -0.35736  -0.36756  -0.01463
   3        3S          0.23907   0.15656  -0.01418
   4        4S        -13.12320 -14.84112 -13.55888
   5        5S         -4.62358  -9.46863 -21.60251
   6        6PX        -0.00038  -0.00057   0.00044
   7        6PY         0.00000   0.00000   0.00000
   8        6PZ        -0.01315   0.00210  -0.00976
   9        7PX         0.00703   0.01474   0.00514
  10        7PY         0.00000   0.00000   0.00000
  11        7PZ         0.74302   0.39364   0.27740
  12        8PX        -0.01000   0.10064   0.07675
  13        8PY         0.00000   0.00000   0.00000
  14        8PZ         1.89828  -2.55345  -7.37207
  15        9PX         0.01990  -0.00255   0.04522
  16        9PY         0.00000   0.00000   0.00000
  17        9PZ         3.81078  -3.32413  -4.20456
  18       10D 0        0.01838   0.01313   0.01202
  19       10D+1       -0.00019  -0.00064  -0.00091
  20       10D-1        0.00000   0.00000   0.00000
  21       10D+2       -0.03281   0.01431   0.03524
  22       10D-2        0.00000   0.00000   0.00000
  23       11D 0        0.04262  -0.63295  -0.23443
  24       11D+1       -0.00356   0.00175   0.00268
  25       11D-1        0.00000   0.00000   0.00000
  26       11D+2        1.16116   0.56639   0.10560
  27       11D-2        0.00000   0.00000   0.00000
  28       12D 0       -0.94864  -1.54535  -1.53089
  29       12D+1       -0.05252   0.03549   0.01700
  30       12D-1        0.00000   0.00000   0.00000
  31       12D+2        0.71989   0.86163   0.31051
  32       12D-2        0.00000   0.00000   0.00000
  33       13F 0       -0.05581  -0.02746  -0.00822
  34       13F+1        0.00008   0.00013   0.00004
  35       13F-1        0.00000   0.00000   0.00000
  36       13F+2       -0.06548  -0.04225  -0.01376
  37       13F-2        0.00000   0.00000   0.00000
  38       13F+3       -0.00025  -0.00020  -0.00017
  39       13F-3        0.00000   0.00000   0.00000
  40       14F 0       -0.67941  -0.30632  -0.12810
  41       14F+1       -0.00770   0.00803   0.00322
  42       14F-1        0.00000   0.00000   0.00000
  43       14F+2       -0.40931  -0.08354   0.02842
  44       14F-2        0.00000   0.00000   0.00000
  45       14F+3        0.00041  -0.00323  -0.00040
  46       14F-3        0.00000   0.00000   0.00000
  47 2   S  1S          0.00856  -0.00219  -0.00687
  48        2S          0.13126  -0.02251  -0.08004
  49        3S          0.37484  -0.09285  -0.28306
  50        4S         -0.03775  -0.10749  -0.09539
  51        5S          2.51231   7.56784   7.23276
  52        6S          0.39702   5.85593  23.37207
  53        7PX         0.00041   0.00049   0.00008
  54        7PY         0.00000   0.00000   0.00000
  55        7PZ        -0.02641  -0.04822   0.00019
  56        8PX         0.00990   0.00835   0.00139
  57        8PY         0.00000   0.00000   0.00000
  58        8PZ        -0.63431  -1.17240  -0.12411
  59        9PX        -0.00092  -0.00153  -0.00018
  60        9PY         0.00000   0.00000   0.00000
  61        9PZ         0.03926   0.12789  -0.02090
  62       10PX         0.07398  -0.00918   0.04774
  63       10PY         0.00000   0.00000   0.00000
  64       10PZ        -1.52869  -4.15073  -9.49496
  65       11PX        -0.01295   0.01472   0.02436
  66       11PY         0.00000   0.00000   0.00000
  67       11PZ        -1.52952   1.60559  -4.97339
  68       12D 0        0.09871   1.04186   0.43759
  69       12D+1       -0.01386  -0.00617  -0.00312
  70       12D-1        0.00000   0.00000   0.00000
  71       12D+2        0.09852  -0.05266  -0.01768
  72       12D-2        0.00000   0.00000   0.00000
  73       13D 0        0.05285  -0.08477  -0.02040
  74       13D+1       -0.00038   0.00050   0.00014
  75       13D-1        0.00000   0.00000   0.00000
  76       13D+2       -0.01950   0.00676   0.00147
  77       13D-2        0.00000   0.00000   0.00000
  78       14D 0        0.72622  -0.39206   2.70635
  79       14D+1       -0.03247   0.01579  -0.02305
  80       14D-1        0.00000   0.00000   0.00000
  81       14D+2       -0.28131   0.02938  -0.05408
  82       14D-2        0.00000   0.00000   0.00000
  83       15F 0       -0.01221  -0.06095   0.03560
  84       15F+1        0.00097   0.00171  -0.00065
  85       15F-1        0.00000   0.00000   0.00000
  86       15F+2       -0.01889   0.01537   0.00157
  87       15F-2        0.00000   0.00000   0.00000
  88       15F+3        0.00039   0.00042   0.00036
  89       15F-3        0.00000   0.00000   0.00000
  90       16F 0       -0.05841  -0.03886  -0.31200
  91       16F+1        0.00789  -0.00371   0.00339
  92       16F-1        0.00000   0.00000   0.00000
  93       16F+2        0.04512  -0.00812   0.01931
  94       16F-2        0.00000   0.00000   0.00000
  95       16F+3       -0.00101  -0.00137  -0.00128
  96       16F-3        0.00000   0.00000   0.00000
  97 3   F  1S         -0.02422  -0.03325   0.00301
  98        2S         -0.13979  -0.17311   0.00306
  99        3S         -0.01852   0.00073  -0.01556
 100        4S          2.48855   1.45922   0.13194
 101        5S          5.81122   5.74855   1.88316
 102        6PX        -0.00005   0.00005   0.00001
 103        6PY         0.00141   0.01101   0.00239
 104        6PZ         0.01043   0.00301   0.00179
 105        7PX         0.00015  -0.00034  -0.00001
 106        7PY         0.00652  -0.06206  -0.01802
 107        7PZ        -0.03000  -0.02988  -0.02389
 108        8PX         0.02738   0.01106   0.00124
 109        8PY         1.39497   1.38374   0.40706
 110        8PZ         1.63630   1.01919   0.49094
 111        9PX         0.00291   0.01842  -0.00296
 112        9PY         1.05611   0.67792  -0.03155
 113        9PZ        -0.90441   1.36361  -0.22139
 114       10D 0       -0.01955   0.00925  -0.00096
 115       10D+1        0.00022  -0.00026  -0.00003
 116       10D-1       -0.01244  -0.00384   0.00024
 117       10D+2        0.00113  -0.00217   0.00819
 118       10D-2       -0.00028   0.00014  -0.00030
 119       11D 0        0.07399  -0.04050  -0.00310
 120       11D+1       -0.00009   0.00105   0.00017
 121       11D-1        0.08377   0.02628   0.00309
 122       11D+2       -0.01773  -0.00800  -0.02849
 123       11D-2        0.00156  -0.00018   0.00105
 124       12D 0        0.01937   0.13987   0.03692
 125       12D+1        0.01181   0.00240   0.00181
 126       12D-1        0.41224   0.38248   0.23470
 127       12D+2       -0.06936  -0.25874  -0.06734
 128       12D-2        0.00755   0.00520  -0.00114
 129       13F 0        0.00486   0.00699   0.00743
 130       13F+1       -0.00030  -0.00030  -0.00023
 131       13F-1       -0.01594  -0.00232  -0.00663
 132       13F+2        0.00755   0.00402   0.01451
 133       13F-2       -0.00071  -0.00026  -0.00031
 134       13F+3       -0.00003  -0.00024   0.00009
 135       13F-3       -0.02177  -0.00085   0.00739
 136       14F 0       -0.03066  -0.02737  -0.02968
 137       14F+1        0.00115   0.00081   0.00057
 138       14F-1        0.07395   0.01659   0.01624
 139       14F+2       -0.04776  -0.04356  -0.04769
 140       14F-2        0.00290   0.00137   0.00102
 141       14F+3       -0.00066  -0.00011  -0.00039
 142       14F-3        0.04646  -0.01780  -0.02326
 143 4   F  1S         -0.02422  -0.03325   0.00301
 144        2S         -0.13979  -0.17311   0.00306
 145        3S         -0.01852   0.00073  -0.01556
 146        4S          2.48855   1.45922   0.13194
 147        5S          5.81122   5.74855   1.88316
 148        6PX        -0.00005   0.00005   0.00001
 149        6PY        -0.00141  -0.01101  -0.00239
 150        6PZ         0.01043   0.00301   0.00179
 151        7PX         0.00015  -0.00034  -0.00001
 152        7PY        -0.00652   0.06206   0.01802
 153        7PZ        -0.03000  -0.02988  -0.02389
 154        8PX         0.02738   0.01106   0.00124
 155        8PY        -1.39497  -1.38374  -0.40706
 156        8PZ         1.63630   1.01919   0.49094
 157        9PX         0.00291   0.01842  -0.00296
 158        9PY        -1.05611  -0.67792   0.03155
 159        9PZ        -0.90441   1.36361  -0.22139
 160       10D 0       -0.01955   0.00925  -0.00096
 161       10D+1        0.00022  -0.00026  -0.00003
 162       10D-1        0.01244   0.00384  -0.00024
 163       10D+2        0.00113  -0.00217   0.00819
 164       10D-2        0.00028  -0.00014   0.00030
 165       11D 0        0.07399  -0.04050  -0.00310
 166       11D+1       -0.00009   0.00105   0.00017
 167       11D-1       -0.08377  -0.02628  -0.00309
 168       11D+2       -0.01773  -0.00800  -0.02849
 169       11D-2       -0.00156   0.00018  -0.00105
 170       12D 0        0.01937   0.13987   0.03692
 171       12D+1        0.01181   0.00240   0.00181
 172       12D-1       -0.41224  -0.38248  -0.23470
 173       12D+2       -0.06936  -0.25874  -0.06734
 174       12D-2       -0.00755  -0.00520   0.00114
 175       13F 0        0.00486   0.00699   0.00743
 176       13F+1       -0.00030  -0.00030  -0.00023
 177       13F-1        0.01594   0.00232   0.00663
 178       13F+2        0.00755   0.00402   0.01451
 179       13F-2        0.00071   0.00026   0.00031
 180       13F+3       -0.00003  -0.00024   0.00009
 181       13F-3        0.02177   0.00085  -0.00739
 182       14F 0       -0.03066  -0.02737  -0.02968
 183       14F+1        0.00115   0.00081   0.00057
 184       14F-1       -0.07395  -0.01659  -0.01624
 185       14F+2       -0.04776  -0.04356  -0.04769
 186       14F-2       -0.00290  -0.00137  -0.00102
 187       14F+3       -0.00066  -0.00011  -0.00039
 188       14F-3       -0.04646   0.01780   0.02326
          Condensed to atoms (all electrons):
              1          2          3          4
     1  C    5.194405   0.243026   0.110532   0.110532
     2  S    0.243026  15.949408  -0.066521  -0.066521
     3  F    0.110532  -0.066521   9.178430  -0.081385
     4  F    0.110532  -0.066521  -0.081385   9.178430
 Mulliken atomic charges:
              1
     1  C    0.341505
     2  S   -0.059392
     3  F   -0.141057
     4  F   -0.141057
 Sum of Mulliken atomic charges =   0.00000
 Mulliken charges with hydrogens summed into heavy atoms:
              1
     1  C    0.341505
     2  S   -0.059392
     3  F   -0.141057
     4  F   -0.141057
 Sum of Mulliken charges with hydrogens summed into heavy atoms =   0.00000
 Electronic spatial extent (au):  <R**2>=            315.2026
 Charge=              0.0000 electrons
 Dipole moment (field-independent basis, Debye):
    X=              0.0069    Y=              0.0000    Z=             -0.2239  Tot=              0.2240
 Quadrupole moment (field-independent basis, Debye-Ang):
   XX=            -27.2806   YY=            -30.1547   ZZ=            -27.9403
   XY=              0.0000   XZ=             -0.0412   YZ=              0.0000
 Traceless Quadrupole moment (field-independent basis, Debye-Ang):
   XX=              1.1780   YY=             -1.6962   ZZ=              0.5182
   XY=              0.0000   XZ=             -0.0412   YZ=              0.0000
 Octapole moment (field-independent basis, Debye-Ang**2):
  XXX=             -0.1785  YYY=              0.0000  ZZZ=              8.7848  XYY=             -0.0694
  XXY=              0.0000  XXZ=              0.7525  XZZ=             -0.0904  YZZ=              0.0000
  YYZ=              0.8028  XYZ=              0.0000
 Hexadecapole moment (field-independent basis, Debye-Ang**3):
 XXXX=            -28.1352 YYYY=            -96.1688 ZZZZ=           -215.0458 XXXY=              0.0000
 XXXZ=              0.0191 YYYX=              0.0000 YYYZ=              0.0000 ZZZX=             -0.0108
 ZZZY=              0.0000 XXYY=            -20.7182 XXZZ=            -40.5191 YYZZ=            -55.6381
 XXYZ=              0.0000 YYXZ=              0.0335 ZZXY=              0.0000
 N-N= 1.543909639454D+02 E-N=-1.820102478273D+03  KE= 6.349951720697D+02
 1\1\GINC-TRAPISTA\SP\RQCISD-FC\Aug-CC-pVTZ\C1F2S1\BRUNS\27-Nov-2021\0\
 \# qcisd/aug-cc-pvtz nosymm density=current output=wfn\\f2cs-wavefunct
 ion\\0,1\C,0,0.01,0.,-0.520349\S,0,0.,0.,1.078525\F,0,0.,-1.055221,-1.
 295538\F,0,0.,1.055221,-1.295538\\Version=EM64L-G09RevB.01\HF=-634.356
 8332\MP2=-635.1963778\MP3=-635.1997617\MP4D=-635.2166888\MP4DQ=-635.19
 73346\MP4SDQ=-635.2081933\QCISD=-635.207296\RMSD=7.696e-09\Dipole=0.00
 27226,0.,-0.088073\Quadrupole=0.8757895,-1.2610507,0.3852613,0.,-0.030
 6496,0.\PG=CS [SG(C1S1),X(F2)]\\@

 Writing a WFN file to GAUSSIAN.wfn.


 AN AIRPLANE IS A COLLECTION OF SPARE PARTS
 FLYING IN CLOSE FORMATION.
 Job cpu time:  0 days  2 hours  8 minutes 30.8 seconds.
 File lengths (MBytes):  RWF=  17813 Int=      0 D2E=      0 Chk=      3 Scr=      1
 Normal termination of Gaussian 09 at Sat Nov 27 02:09:01 2021.
