 f2cs-wavefunction
GAUSSIAN            188 MOL ORBITALS    330 PRIMITIVES        4 NUCLEI
  C    1    (CENTRE  1)   0.00000000  0.00000000 -0.98331710  CHARGE =  6.0
  S    2    (CENTRE  2)   0.01889726  0.00000000  2.03811688  CHARGE = 16.0
  F    3    (CENTRE  3)   0.00000000 -1.99407870 -2.44821201  CHARGE =  9.0
  F    4    (CENTRE  4)   0.00000000  1.99407870 -2.44821201  CHARGE =  9.0
CENTRE ASSIGNMENTS    1  1  1  1  1  1  1  1  1  1  1  1  1  1  1  1  1  1  1  1
CENTRE ASSIGNMENTS    1  1  1  1  1  1  1  1  1  1  1  1  1  1  1  1  1  1  1  1
CENTRE ASSIGNMENTS    1  1  1  1  1  1  1  1  1  1  1  1  1  1  1  1  1  1  1  1
CENTRE ASSIGNMENTS    1  1  1  1  1  1  1  1  1  1  1  1  2  2  2  2  2  2  2  2
CENTRE ASSIGNMENTS    2  2  2  2  2  2  2  2  2  2  2  2  2  2  2  2  2  2  2  2
CENTRE ASSIGNMENTS    2  2  2  2  2  2  2  2  2  2  2  2  2  2  2  2  2  2  2  2
CENTRE ASSIGNMENTS    2  2  2  2  2  2  2  2  2  2  2  2  2  2  2  2  2  2  2  2
CENTRE ASSIGNMENTS    2  2  2  2  2  2  2  2  2  2  2  2  2  2  2  2  2  2  2  2
CENTRE ASSIGNMENTS    2  2  2  2  2  2  2  2  2  2  2  2  2  2  2  2  2  2  2  2
CENTRE ASSIGNMENTS    2  2  2  2  2  2  3  3  3  3  3  3  3  3  3  3  3  3  3  3
CENTRE ASSIGNMENTS    3  3  3  3  3  3  3  3  3  3  3  3  3  3  3  3  3  3  3  3
CENTRE ASSIGNMENTS    3  3  3  3  3  3  3  3  3  3  3  3  3  3  3  3  3  3  3  3
CENTRE ASSIGNMENTS    3  3  3  3  3  3  3  3  3  3  3  3  3  3  3  3  3  3  4  4
CENTRE ASSIGNMENTS    4  4  4  4  4  4  4  4  4  4  4  4  4  4  4  4  4  4  4  4
CENTRE ASSIGNMENTS    4  4  4  4  4  4  4  4  4  4  4  4  4  4  4  4  4  4  4  4
CENTRE ASSIGNMENTS    4  4  4  4  4  4  4  4  4  4  4  4  4  4  4  4  4  4  4  4
CENTRE ASSIGNMENTS    4  4  4  4  4  4  4  4  4  4
TYPE ASSIGNMENTS      1  1  1  1  1  1  1  1  1  1  1  1  1  1  1  1  2  2  2  3
TYPE ASSIGNMENTS      3  3  4  4  4  2  3  4  2  3  4  2  3  4  5  6  7  8  9 10
TYPE ASSIGNMENTS      5  6  7  8  9 10  5  6  7  8  9 10 11 12 13 17 14 15 18 19
TYPE ASSIGNMENTS     16 20 11 12 13 17 14 15 18 19 16 20  1  1  1  1  1  1  1  1
TYPE ASSIGNMENTS      1  1  1  1  1  1  1  1  1  1  1  1  1  1  1  1  1  1  1  1
TYPE ASSIGNMENTS      1  1  1  2  2  2  2  2  2  3  3  3  3  3  3  4  4  4  4  4
TYPE ASSIGNMENTS      4  2  2  2  2  2  2  3  3  3  3  3  3  4  4  4  4  4  4  2
TYPE ASSIGNMENTS      3  4  2  3  4  2  3  4  5  6  7  8  9 10  5  6  7  8  9 10
TYPE ASSIGNMENTS      5  6  7  8  9 10 11 12 13 17 14 15 18 19 16 20 11 12 13 17
TYPE ASSIGNMENTS     14 15 18 19 16 20  1  1  1  1  1  1  1  1  1  1  1  1  1  1
TYPE ASSIGNMENTS      1  1  2  2  2  3  3  3  4  4  4  2  3  4  2  3  4  2  3  4
TYPE ASSIGNMENTS      5  6  7  8  9 10  5  6  7  8  9 10  5  6  7  8  9 10 11 12
TYPE ASSIGNMENTS     13 17 14 15 18 19 16 20 11 12 13 17 14 15 18 19 16 20  1  1
TYPE ASSIGNMENTS      1  1  1  1  1  1  1  1  1  1  1  1  1  1  2  2  2  3  3  3
TYPE ASSIGNMENTS      4  4  4  2  3  4  2  3  4  2  3  4  5  6  7  8  9 10  5  6
TYPE ASSIGNMENTS      7  8  9 10  5  6  7  8  9 10 11 12 13 17 14 15 18 19 16 20
TYPE ASSIGNMENTS     11 12 13 17 14 15 18 19 16 20
EXPONENTS  0.8236000D+04 0.1235000D+04 0.2808000D+03 0.7927000D+02 0.2559000D+02
EXPONENTS  0.8997000D+01 0.3319000D+01 0.2808000D+03 0.7927000D+02 0.2559000D+02
EXPONENTS  0.8997000D+01 0.3319000D+01 0.3643000D+00 0.9059000D+00 0.1285000D+00
EXPONENTS  0.4402000D-01 0.1871000D+02 0.4133000D+01 0.1200000D+01 0.1871000D+02
EXPONENTS  0.4133000D+01 0.1200000D+01 0.1871000D+02 0.4133000D+01 0.1200000D+01
EXPONENTS  0.3827000D+00 0.3827000D+00 0.3827000D+00 0.1209000D+00 0.1209000D+00
EXPONENTS  0.1209000D+00 0.3569000D-01 0.3569000D-01 0.3569000D-01 0.1097000D+01
EXPONENTS  0.1097000D+01 0.1097000D+01 0.1097000D+01 0.1097000D+01 0.1097000D+01
EXPONENTS  0.3180000D+00 0.3180000D+00 0.3180000D+00 0.3180000D+00 0.3180000D+00
EXPONENTS  0.3180000D+00 0.1000000D+00 0.1000000D+00 0.1000000D+00 0.1000000D+00
EXPONENTS  0.1000000D+00 0.1000000D+00 0.7610000D+00 0.7610000D+00 0.7610000D+00
EXPONENTS  0.7610000D+00 0.7610000D+00 0.7610000D+00 0.7610000D+00 0.7610000D+00
EXPONENTS  0.7610000D+00 0.7610000D+00 0.2680000D+00 0.2680000D+00 0.2680000D+00
EXPONENTS  0.2680000D+00 0.2680000D+00 0.2680000D+00 0.2680000D+00 0.2680000D+00
EXPONENTS  0.2680000D+00 0.2680000D+00 0.3741000D+06 0.5605000D+05 0.1276000D+05
EXPONENTS  0.3615000D+04 0.1183000D+04 0.4288000D+03 0.1678000D+03 0.6947000D+02
EXPONENTS  0.2984000D+02 0.1272000D+02 0.5244000D+01 0.3615000D+04 0.1183000D+04
EXPONENTS  0.4288000D+03 0.1678000D+03 0.6947000D+02 0.2984000D+02 0.1272000D+02
EXPONENTS  0.5244000D+01 0.2219000D+01 0.1183000D+04 0.1678000D+03 0.6947000D+02
EXPONENTS  0.2984000D+02 0.1272000D+02 0.5244000D+01 0.2219000D+01 0.3490000D+00
EXPONENTS  0.7767000D+00 0.1322000D+00 0.4970000D-01 0.5744000D+03 0.1358000D+03
EXPONENTS  0.4319000D+02 0.1587000D+02 0.6208000D+01 0.2483000D+01 0.5744000D+03
EXPONENTS  0.1358000D+03 0.4319000D+02 0.1587000D+02 0.6208000D+01 0.2483000D+01
EXPONENTS  0.5744000D+03 0.1358000D+03 0.4319000D+02 0.1587000D+02 0.6208000D+01
EXPONENTS  0.2483000D+01 0.1358000D+03 0.4319000D+02 0.1587000D+02 0.6208000D+01
EXPONENTS  0.2483000D+01 0.3229000D+00 0.1358000D+03 0.4319000D+02 0.1587000D+02
EXPONENTS  0.6208000D+01 0.2483000D+01 0.3229000D+00 0.1358000D+03 0.4319000D+02
EXPONENTS  0.1587000D+02 0.6208000D+01 0.2483000D+01 0.3229000D+00 0.8688000D+00
EXPONENTS  0.8688000D+00 0.8688000D+00 0.1098000D+00 0.1098000D+00 0.1098000D+00
EXPONENTS  0.3510000D-01 0.3510000D-01 0.3510000D-01 0.2690000D+00 0.2690000D+00
EXPONENTS  0.2690000D+00 0.2690000D+00 0.2690000D+00 0.2690000D+00 0.8190000D+00
EXPONENTS  0.8190000D+00 0.8190000D+00 0.8190000D+00 0.8190000D+00 0.8190000D+00
EXPONENTS  0.1010000D+00 0.1010000D+00 0.1010000D+00 0.1010000D+00 0.1010000D+00
EXPONENTS  0.1010000D+00 0.5570000D+00 0.5570000D+00 0.5570000D+00 0.5570000D+00
EXPONENTS  0.5570000D+00 0.5570000D+00 0.5570000D+00 0.5570000D+00 0.5570000D+00
EXPONENTS  0.5570000D+00 0.2180000D+00 0.2180000D+00 0.2180000D+00 0.2180000D+00
EXPONENTS  0.2180000D+00 0.2180000D+00 0.2180000D+00 0.2180000D+00 0.2180000D+00
EXPONENTS  0.2180000D+00 0.1950000D+05 0.2923000D+04 0.6645000D+03 0.1875000D+03
EXPONENTS  0.6062000D+02 0.2142000D+02 0.7950000D+01 0.6645000D+03 0.1875000D+03
EXPONENTS  0.6062000D+02 0.2142000D+02 0.7950000D+01 0.8815000D+00 0.2257000D+01
EXPONENTS  0.3041000D+00 0.9158000D-01 0.4388000D+02 0.9926000D+01 0.2930000D+01
EXPONENTS  0.4388000D+02 0.9926000D+01 0.2930000D+01 0.4388000D+02 0.9926000D+01
EXPONENTS  0.2930000D+01 0.9132000D+00 0.9132000D+00 0.9132000D+00 0.2672000D+00
EXPONENTS  0.2672000D+00 0.2672000D+00 0.7361000D-01 0.7361000D-01 0.7361000D-01
EXPONENTS  0.3107000D+01 0.3107000D+01 0.3107000D+01 0.3107000D+01 0.3107000D+01
EXPONENTS  0.3107000D+01 0.8550000D+00 0.8550000D+00 0.8550000D+00 0.8550000D+00
EXPONENTS  0.8550000D+00 0.8550000D+00 0.2920000D+00 0.2920000D+00 0.2920000D+00
EXPONENTS  0.2920000D+00 0.2920000D+00 0.2920000D+00 0.1917000D+01 0.1917000D+01
EXPONENTS  0.1917000D+01 0.1917000D+01 0.1917000D+01 0.1917000D+01 0.1917000D+01
EXPONENTS  0.1917000D+01 0.1917000D+01 0.1917000D+01 0.7240000D+00 0.7240000D+00
EXPONENTS  0.7240000D+00 0.7240000D+00 0.7240000D+00 0.7240000D+00 0.7240000D+00
EXPONENTS  0.7240000D+00 0.7240000D+00 0.7240000D+00 0.1950000D+05 0.2923000D+04
EXPONENTS  0.6645000D+03 0.1875000D+03 0.6062000D+02 0.2142000D+02 0.7950000D+01
EXPONENTS  0.6645000D+03 0.1875000D+03 0.6062000D+02 0.2142000D+02 0.7950000D+01
EXPONENTS  0.8815000D+00 0.2257000D+01 0.3041000D+00 0.9158000D-01 0.4388000D+02
EXPONENTS  0.9926000D+01 0.2930000D+01 0.4388000D+02 0.9926000D+01 0.2930000D+01
EXPONENTS  0.4388000D+02 0.9926000D+01 0.2930000D+01 0.9132000D+00 0.9132000D+00
EXPONENTS  0.9132000D+00 0.2672000D+00 0.2672000D+00 0.2672000D+00 0.7361000D-01
EXPONENTS  0.7361000D-01 0.7361000D-01 0.3107000D+01 0.3107000D+01 0.3107000D+01
EXPONENTS  0.3107000D+01 0.3107000D+01 0.3107000D+01 0.8550000D+00 0.8550000D+00
EXPONENTS  0.8550000D+00 0.8550000D+00 0.8550000D+00 0.8550000D+00 0.2920000D+00
EXPONENTS  0.2920000D+00 0.2920000D+00 0.2920000D+00 0.2920000D+00 0.2920000D+00
EXPONENTS  0.1917000D+01 0.1917000D+01 0.1917000D+01 0.1917000D+01 0.1917000D+01
EXPONENTS  0.1917000D+01 0.1917000D+01 0.1917000D+01 0.1917000D+01 0.1917000D+01
EXPONENTS  0.7240000D+00 0.7240000D+00 0.7240000D+00 0.7240000D+00 0.7240000D+00
EXPONENTS  0.7240000D+00 0.7240000D+00 0.7240000D+00 0.7240000D+00 0.7240000D+00
MO    1     MO 0.0        OCC NO =    2.0000305  ORB. ENERGY =    0.000000
  0.70178058D-11  0.13082604D-10  0.22111383D-10  0.33237532D-10  0.40826355D-10
  0.34456003D-10  0.12956357D-10  0.42698320D-15  0.31914349D-14  0.11927121D-13
  0.33274810D-13  0.44579071D-13 -0.52639571D-13  0.62728705D-12 -0.23631581D-12
 -0.12455432D-13 -0.35037671D-13 -0.32850044D-13 -0.23391188D-13 -0.30464935D-02
 -0.28562813D-02 -0.20338424D-02  0.19427882D-12  0.18214874D-12  0.12970076D-12
 -0.71054829D-14 -0.15632868D-02  0.32333553D-13 -0.44764875D-14  0.61051671D-03
 -0.11627775D-12  0.48145180D-16 -0.13553859D-04  0.11394693D-14 -0.26988373D-13
  0.89526052D-15  0.26093112D-13 -0.64877505D-05 -0.50737781D-14 -0.10195899D-02
  0.36503117D-13 -0.13734964D-13 -0.22768153D-13  0.64362216D-06 -0.46217339D-14
  0.39725565D-03  0.28680819D-14  0.81555372D-14 -0.11023619D-13 -0.43646398D-06
 -0.18721915D-14 -0.22587119D-03 -0.14870779D-15  0.24075999D-03  0.20133152D-13
  0.17615767D-14  0.35909575D-03 -0.47098120D-13 -0.13154533D-14 -0.10813757D-02
 -0.13301335D-13 -0.11242981D-04 -0.12733364D-15 -0.13715645D-03 -0.27507490D-14
  0.61886969D-15 -0.12875493D-03 -0.16568550D-14 -0.23686877D-15  0.54022426D-03
  0.99091021D-14  0.70947636D-05  0.11048768D-10  0.20656786D-10  0.35701065D-10
  0.57745002D-10  0.87279637D-10  0.12020213D-09  0.14050165D-09  0.12143103D-09
  0.56672494D-10  0.76778794D-11 -0.56157116D-13 -0.37882204D-13 -0.48697193D-12
 -0.17764036D-11 -0.59935417D-11 -0.13164507D-10 -0.17004952D-10  0.27328405D-11
  0.22925283D-10  0.12581100D-10 -0.56569147D-15 -0.64435775D-14 -0.13379190D-13
 -0.36789374D-13  0.47701648D-14  0.16634479D-12  0.41489033D-12 -0.34344021D-12
  0.59934529D-12  0.26416926D-12  0.19172737D-13  0.86924246D-10  0.11403967D-09
  0.12507683D-09  0.10290945D-09  0.54248012D-10  0.14114312D-10  0.97653940D+01
  0.12811642D+02  0.14051598D+02  0.11561232D+02  0.60944239D+01  0.15856545D+01
  0.72918022D-09  0.95664299D-09  0.10492303D-08  0.86327510D-09  0.45506955D-09
  0.11840054D-09  0.48210489D-15  0.17305459D-13  0.27455545D-13  0.32602618D-13
  0.49336354D-14 -0.35906074D-13  0.94742529D-04  0.34008429D-02  0.53955224D-02
  0.64070174D-02  0.96955061D-03 -0.70562076D-02  0.57623786D-14  0.20684422D-12
  0.32816354D-12  0.38968413D-12  0.58969481D-13 -0.42916883D-12  0.65408192D-12
  0.67603142D-01  0.55926747D-11  0.36898077D-14 -0.37958508D-03 -0.86285358D-13
 -0.11843434D-15 -0.71090470D-05 -0.11256400D-14 -0.23807755D-13 -0.24053070D-13
  0.47860825D-13  0.67063148D-05  0.45577171D-15  0.96169639D-03  0.28589715D-13
  0.16523974D-13 -0.45113689D-13 -0.48705544D-05  0.64359791D-15 -0.55551218D-03
 -0.16380851D-14 -0.29859194D-14  0.46240045D-14 -0.55301208D-06 -0.10455915D-14
 -0.42007771D-04  0.62587724D-16  0.35007094D-04  0.15057703D-14 -0.11137942D-14
  0.10983796D-03  0.81260617D-14  0.92603101D-15 -0.21485924D-03 -0.12643373D-13
 -0.55126088D-05 -0.19294844D-15  0.34765830D-04 -0.31415076D-14 -0.39662069D-16
  0.16374556D-04  0.22780665D-14  0.61850738D-15 -0.12067205D-03  0.71464563D-14
 -0.15375381D-05  0.50725849D-02  0.94553070D-02  0.16028852D-01  0.24269849D-01
  0.30342657D-01  0.26100126D-01  0.10009960D-01 -0.65357420D-06 -0.86520986D-05
 -0.31425996D-04 -0.93224627D-04 -0.10742255D-03  0.13048069D-03  0.58776587D-03
  0.87241910D-04  0.85327429D-03 -0.36129272D-05 -0.35333639D-05 -0.23346429D-05
 -0.13027219D-02 -0.12740336D-02 -0.84180784D-03 -0.39045303D-02 -0.38185454D-02
 -0.25230744D-02  0.18663186D-06 -0.38872330D-03 -0.10831062D-02 -0.43466177D-05
 -0.14820754D-03 -0.74744550D-03 -0.88828612D-07  0.92213330D-04  0.11396951D-04
  0.24120292D-04  0.27373706D-04 -0.51493998D-04 -0.10213226D-05 -0.37347333D-06
  0.26330893D-03 -0.54405109D-04 -0.13266843D-03  0.18707354D-03  0.98953980D-06
  0.17650822D-05 -0.14917372D-03  0.11022282D-03 -0.21478161D-04 -0.88744659D-04
 -0.19780256D-05 -0.99006993D-07 -0.27900081D-03  0.62288689D-06 -0.27196165D-04
 -0.54608107D-04  0.24631276D-05 -0.33129893D-03  0.20171881D-04 -0.43317882D-05
  0.41288742D-03  0.14365244D-03  0.38212811D-05 -0.67470407D-06 -0.63296693D-04
  0.95227151D-04 -0.49094924D-06  0.19971434D-03 -0.42101997D-04  0.25150615D-05
 -0.98242616D-05 -0.24357946D-03  0.36724624D-06 -0.50725849D-02 -0.94553071D-02
 -0.16028852D-01 -0.24269850D-01 -0.30342658D-01 -0.26100127D-01 -0.10009960D-01
  0.65357420D-06  0.86520986D-05  0.31425996D-04  0.93224626D-04  0.10742255D-03
 -0.13048069D-03 -0.58776587D-03 -0.87241910D-04 -0.85327429D-03  0.36129273D-05
  0.35333640D-05  0.23346430D-05 -0.13027219D-02 -0.12740336D-02 -0.84180784D-03
  0.39045303D-02  0.38185453D-02  0.25230744D-02 -0.18663184D-06 -0.38872330D-03
  0.10831062D-02  0.43466177D-05 -0.14820754D-03  0.74744550D-03  0.88828611D-07
  0.92213330D-04 -0.11396951D-04 -0.24120292D-04 -0.27373706D-04  0.51493998D-04
 -0.10213226D-05  0.37347334D-06  0.26330893D-03  0.54405109D-04  0.13266843D-03
 -0.18707354D-03  0.98953980D-06 -0.17650822D-05 -0.14917372D-03 -0.11022282D-03
  0.21478161D-04  0.88744659D-04 -0.19780256D-05  0.99006993D-07 -0.27900081D-03
 -0.62288689D-06 -0.27196165D-04  0.54608107D-04 -0.24631275D-05 -0.33129893D-03
 -0.20171881D-04  0.43317882D-05  0.41288742D-03 -0.14365244D-03  0.38212811D-05
  0.67470407D-06 -0.63296693D-04 -0.95227151D-04  0.49094924D-06  0.19971434D-03
  0.42101997D-04 -0.25150615D-05 -0.98242616D-05  0.24357946D-03  0.36724624D-06
MO    2     MO 0.0        OCC NO =    2.0000247  ORB. ENERGY =    0.000000
 -0.59328995D-01 -0.11060120D+00 -0.18693109D+00 -0.28099230D+00 -0.34514871D+00
 -0.29129333D+00 -0.10953390D+00 -0.94583414D-05 -0.70695242D-04 -0.26420426D-03
 -0.73708875D-03 -0.98749571D-03  0.11660483D-02 -0.44992539D-02 -0.13844068D-02
 -0.56506685D-04  0.25374758D-04  0.23790449D-04  0.16940217D-04  0.19223618D-12
  0.18023364D-12  0.12833709D-12  0.29462886D-02  0.27623328D-02  0.19669455D-02
 -0.13609459D-05  0.74695811D-13 -0.42006050D-03 -0.43678057D-05 -0.55713738D-13
 -0.93821548D-03  0.36795005D-07  0.17603473D-14  0.78394270D-05  0.25978608D-03
 -0.10470868D-03 -0.15507740D-03 -0.71512312D-14 -0.15390412D-06  0.17826191D-13
  0.10320269D-03  0.15494780D-03 -0.25815049D-03  0.32794124D-14 -0.50389359D-05
 -0.36364976D-13  0.17122623D-04  0.61928149D-04 -0.79050773D-04  0.44104840D-15
 -0.10367843D-05  0.21853414D-13 -0.52253691D-06 -0.89909235D-14 -0.36047354D-04
  0.11798671D-06 -0.57334572D-13 -0.10104752D-03  0.14496240D-05  0.84307342D-13
  0.20918958D-03 -0.87643703D-15  0.20890623D-06  0.17110706D-14  0.46911450D-04
 -0.14761948D-05  0.51150332D-14  0.26144052D-04  0.84947615D-06 -0.10248245D-13
 -0.16687840D-03 -0.36749735D-14 -0.12696006D+00 -0.23736461D+00 -0.41023660D+00
 -0.66354079D+00 -0.10029197D+01 -0.13812281D+01 -0.16144874D+01 -0.13953492D+01
 -0.65121674D+00 -0.88225579D-01  0.64529459D-03 -0.15828093D-02 -0.20346854D-01
 -0.74222399D-01 -0.25042454D+00 -0.55004465D+00 -0.71050765D+00  0.11418462D+00
  0.95787328D+00  0.52566850D+00 -0.13254489D-04 -0.15097687D-03 -0.31348240D-03
 -0.86199699D-03  0.11176781D-03  0.38975578D-02  0.97211282D-02 -0.80470092D-02
  0.29243014D-01  0.15632093D-02  0.75092343D-04  0.18599900D-01  0.24402011D-01
  0.26763725D-01  0.22020386D-01  0.11607896D-01  0.30201561D-02 -0.53948262D-09
 -0.70777052D-09 -0.77627109D-09 -0.63869246D-09 -0.33668235D-09 -0.87598415D-10
  0.62351766D+01  0.81801972D+01  0.89719059D+01  0.73818139D+01  0.38912726D+01
  0.10124359D+01  0.20624348D-06  0.74032399D-05  0.11745426D-04  0.13947333D-04
  0.21105990D-05 -0.15360544D-04 -0.51140218D-14 -0.18357104D-12 -0.29124006D-12
 -0.34583863D-12 -0.52334501D-13  0.38088069D-12  0.57863582D-04  0.20770498D-02
  0.32952915D-02  0.39130576D-02  0.59214876D-03 -0.43095477D-02  0.14649454D-03
 -0.37222776D-11  0.46089313D-01 -0.45912328D-05  0.88866654D-14 -0.79380070D-03
  0.39581697D-07 -0.42254628D-15 -0.63631651D-05 -0.25907203D-03 -0.14597637D-03
  0.40504840D-03  0.66934218D-15  0.75918404D-05 -0.44767810D-13  0.15162092D-03
 -0.37156492D-03  0.21994400D-03 -0.32022921D-14  0.26121383D-05  0.27178827D-13
 -0.14735634D-04 -0.27377550D-04  0.42113185D-04 -0.12828709D-16  0.80154399D-06
  0.52694562D-14  0.11321733D-05 -0.14787077D-14 -0.88639963D-04  0.20327981D-06
 -0.55717609D-14  0.21767409D-03 -0.35997996D-05  0.10007884D-13  0.48245802D-04
 -0.17010795D-14  0.21281157D-06 -0.16189801D-14 -0.22221586D-04  0.24444294D-06
 -0.13997463D-15  0.32028234D-04 -0.88287766D-06  0.49969149D-14  0.34636525D-04
 -0.31932224D-15  0.66387384D-02  0.12374620D-01  0.20977737D-01  0.31763131D-01
  0.39710910D-01  0.34158504D-01  0.13100521D-01  0.15495681D-05  0.20513381D-04
  0.74508330D-04  0.22102756D-03  0.25468962D-03 -0.30935848D-03  0.52104239D-03
 -0.38821777D-03 -0.25408283D-03 -0.17784122D-04 -0.17392483D-04 -0.11491949D-04
  0.13371842D-03  0.13077369D-03  0.86407707D-04 -0.92686831D-03 -0.90645696D-03
 -0.59893444D-03 -0.44317745D-05 -0.84542577D-04 -0.38198406D-03  0.16269207D-06
  0.52705482D-05 -0.82257112D-04 -0.24376345D-06 -0.48119561D-05 -0.60113102D-04
  0.36524717D-04 -0.10518605D-03  0.68661338D-04  0.45450201D-06  0.10249204D-05
 -0.26456013D-04 -0.22376432D-04  0.98521157D-05  0.12524316D-04  0.11223075D-05
  0.24099554D-06  0.92664553D-04 -0.46047330D-04  0.10499998D-04  0.35547332D-04
 -0.78214055D-06  0.17965624D-05 -0.22285705D-04 -0.12885017D-05 -0.79241761D-04
 -0.10796009D-03  0.78130133D-05  0.11165179D-03  0.21383107D-04 -0.39475083D-05
  0.12607349D-03  0.30249717D-03 -0.52351629D-05  0.27584186D-06  0.16153304D-04
  0.44369245D-04 -0.30237555D-05 -0.97874625D-04 -0.76455685D-04  0.21962299D-05
  0.49414713D-04 -0.56652050D-04  0.27632411D-05  0.66387385D-02  0.12374620D-01
  0.20977738D-01  0.31763132D-01  0.39710911D-01  0.34158504D-01  0.13100522D-01
  0.15495681D-05  0.20513381D-04  0.74508331D-04  0.22102756D-03  0.25468962D-03
 -0.30935848D-03  0.52104240D-03 -0.38821777D-03 -0.25408283D-03 -0.17784123D-04
 -0.17392484D-04 -0.11491949D-04 -0.13371842D-03 -0.13077369D-03 -0.86407708D-04
 -0.92686831D-03 -0.90645696D-03 -0.59893444D-03 -0.44317746D-05  0.84542577D-04
 -0.38198406D-03  0.16269205D-06 -0.52705483D-05 -0.82257112D-04 -0.24376345D-06
  0.48119561D-05 -0.60113102D-04  0.36524717D-04 -0.10518605D-03  0.68661338D-04
 -0.45450204D-06  0.10249205D-05  0.26456013D-04 -0.22376432D-04  0.98521156D-05
  0.12524316D-04 -0.11223075D-05  0.24099553D-06 -0.92664553D-04 -0.46047330D-04
  0.10499998D-04  0.35547332D-04  0.78214056D-06  0.17965624D-05  0.22285705D-04
 -0.12885017D-05  0.79241761D-04 -0.10796009D-03  0.78130134D-05 -0.11165179D-03
  0.21383107D-04 -0.39475083D-05 -0.12607349D-03  0.30249717D-03  0.52351629D-05
  0.27584186D-06 -0.16153304D-04  0.44369245D-04 -0.30237555D-05  0.97874625D-04
 -0.76455685D-04  0.21962299D-05 -0.49414713D-04 -0.56652050D-04 -0.27632411D-05
MO    3     MO 0.0        OCC NO =    2.0000101  ORB. ENERGY =    0.000000
  0.19848601D+00  0.37001792D+00  0.62538069D+00  0.94006382D+00  0.11547000D+01
  0.97452609D+00  0.36644726D+00  0.26897238D-04  0.20104019D-03  0.75133310D-03
  0.20961024D-02  0.28081993D-02 -0.33159597D-02  0.15835166D-01  0.35042348D-03
  0.13339969D-03 -0.13800306D-03 -0.12938664D-03 -0.92130997D-04 -0.41848787D-13
 -0.39235898D-13 -0.27938297D-13 -0.73337770D-02 -0.68758821D-02 -0.48960377D-02
 -0.16573049D-04  0.58825674D-13  0.59747351D-03 -0.63594028D-06 -0.13566421D-14
  0.53563012D-03  0.66110696D-07  0.12903657D-14  0.65093490D-05 -0.68188452D-03
  0.55263037D-03  0.12925416D-03  0.61318217D-14 -0.23450849D-04 -0.98088880D-13
  0.20622903D-03 -0.24531488D-03  0.39085847D-04  0.78003810D-18  0.11322330D-04
 -0.67120119D-13 -0.92397670D-05 -0.38363724D-04  0.47603491D-04 -0.15590818D-15
 -0.13127145D-06  0.33870435D-14  0.33731018D-05  0.11091167D-13 -0.73132167D-05
  0.25322666D-05 -0.63824546D-13  0.25971656D-03 -0.12651572D-04  0.30551046D-13
 -0.23777691D-03  0.11583204D-15 -0.84971313D-06 -0.27092640D-14 -0.14806228D-03
  0.10040088D-05 -0.38379918D-14  0.25966367D-06  0.15451305D-05  0.11965784D-13
  0.44392717D-03 -0.16907735D-14 -0.99289322D-01 -0.18563139D+00 -0.32082621D+00
 -0.51892318D+00 -0.78433502D+00 -0.10801917D+01 -0.12626126D+01 -0.10912352D+01
 -0.50928513D+00 -0.68996960D-01  0.50465370D-03 -0.12515614D-02 -0.16088696D-01
 -0.58689249D-01 -0.19801607D+00 -0.43493214D+00 -0.56181370D+00  0.90288241D-01
  0.75741102D+00  0.41565740D+00 -0.54994006D-05 -0.62641591D-04 -0.13006652D-03
 -0.35764991D-03  0.46373418D-04  0.16171300D-02  0.40333791D-02 -0.33387728D-02
  0.24966443D-01 -0.17601090D-02 -0.19261441D-03  0.21420410D+00  0.28102360D+00
  0.30822207D+00  0.25359583D+00  0.13368130D+00  0.34781361D-01  0.10677402D-09
  0.14008144D-09  0.15363903D-09  0.12640956D-09  0.66635935D-10  0.17337417D-10
 -0.50358445D+01 -0.66067416D+01 -0.72461657D+01 -0.59619269D+01 -0.31427888D+01
 -0.81769454D+00  0.12340286D-05  0.44296236D-04  0.70277088D-04  0.83451887D-04
  0.12628470D-04 -0.91907639D-04  0.84930317D-15  0.30486273D-13  0.48367237D-13
  0.57434610D-13  0.86913703D-14 -0.63254164D-13 -0.40940607D-04 -0.14695889D-02
 -0.23315396D-02 -0.27686318D-02 -0.41896697D-03  0.30491631D-02  0.15946347D-02
  0.72426822D-12 -0.39573318D-01  0.30718198D-05 -0.98100793D-14  0.43490521D-03
 -0.40733369D-06 -0.82394818D-15  0.63018201D-05  0.27882931D-03  0.20491960D-03
 -0.48374890D-03  0.16110846D-14  0.49545373D-05 -0.12084010D-14 -0.30927332D-04
 -0.29524381D-03  0.32617115D-03  0.41538875D-15  0.29579054D-05 -0.88767699D-14
  0.85691961D-05  0.97047368D-05 -0.18273933D-04 -0.22164155D-16 -0.94573010D-06
  0.59362244D-15  0.71070767D-06 -0.93069408D-15  0.11308352D-03 -0.97337294D-06
 -0.24666813D-16 -0.27371645D-03 -0.11587501D-05  0.28167490D-14 -0.65534119D-04
 -0.15713344D-14 -0.17352096D-06 -0.22577586D-15  0.27191304D-04  0.54366743D-06
  0.19758636D-15 -0.56068735D-04 -0.23104547D-07  0.47974121D-15 -0.25505178D-04
 -0.61685291D-15 -0.51743842D-01 -0.96450610D-01 -0.16350527D+00 -0.24756909D+00
 -0.30951589D+00 -0.26623917D+00 -0.10210845D+00 -0.81991741D-05 -0.10854171D-03
 -0.39424325D-03 -0.11695152D-02 -0.13476300D-02  0.16368974D-02 -0.44422084D-02
  0.10957540D-02  0.14478504D-03  0.18793456D-03  0.18379589D-03  0.12144172D-03
 -0.46366610D-02 -0.45345532D-02 -0.29961710D-02 -0.11911515D-02 -0.11649201D-02
 -0.76971197D-03  0.43283817D-04 -0.49393994D-03  0.22135044D-03  0.77920762D-05
 -0.54526762D-04  0.19649937D-03  0.12559192D-06 -0.27826508D-05  0.28553327D-04
 -0.15318047D-03  0.17245440D-03 -0.19273929D-04 -0.79320789D-05 -0.17840039D-05
  0.41208049D-03  0.10924906D-03 -0.36572382D-04 -0.72676683D-04  0.74277375D-06
 -0.33844300D-05 -0.29024492D-03  0.82688864D-04 -0.28047267D-04 -0.54641597D-04
  0.94638566D-06 -0.97279333D-06  0.74117525D-04  0.15288034D-05  0.11224249D-03
  0.22928769D-03 -0.14149850D-04 -0.34815415D-03 -0.22732356D-03  0.95634402D-05
  0.11426677D-04 -0.46053952D-03 -0.89218668D-06 -0.23727656D-06 -0.24314406D-04
 -0.67459630D-04  0.61025431D-05  0.31445023D-03  0.27105067D-03 -0.53907134D-05
 -0.24150702D-03 -0.68671782D-04 -0.11859758D-05 -0.51743842D-01 -0.96450610D-01
 -0.16350527D+00 -0.24756909D+00 -0.30951589D+00 -0.26623917D+00 -0.10210845D+00
 -0.81991740D-05 -0.10854171D-03 -0.39424325D-03 -0.11695152D-02 -0.13476300D-02
  0.16368974D-02 -0.44422083D-02  0.10957540D-02  0.14478504D-03  0.18793456D-03
  0.18379589D-03  0.12144172D-03  0.46366610D-02  0.45345532D-02  0.29961710D-02
 -0.11911515D-02 -0.11649201D-02 -0.76971197D-03  0.43283817D-04  0.49393994D-03
  0.22135044D-03  0.77920762D-05  0.54526762D-04  0.19649937D-03  0.12559192D-06
  0.27826508D-05  0.28553327D-04 -0.15318047D-03  0.17245440D-03 -0.19273929D-04
  0.79320789D-05 -0.17840039D-05 -0.41208049D-03  0.10924906D-03 -0.36572382D-04
 -0.72676683D-04 -0.74277375D-06 -0.33844300D-05  0.29024492D-03  0.82688864D-04
 -0.28047267D-04 -0.54641597D-04 -0.94638566D-06 -0.97279333D-06 -0.74117525D-04
  0.15288034D-05 -0.11224249D-03  0.22928769D-03 -0.14149850D-04  0.34815415D-03
 -0.22732356D-03  0.95634402D-05 -0.11426677D-04 -0.46053952D-03  0.89218668D-06
 -0.23727656D-06  0.24314406D-04 -0.67459630D-04  0.61025431D-05 -0.31445023D-03
  0.27105067D-03 -0.53907134D-05  0.24150702D-03 -0.68671782D-04  0.11859758D-05
MO    4     MO 0.0        OCC NO =    2.0000090  ORB. ENERGY =    0.000000
 -0.61606633D-02 -0.11484717D-01 -0.19410737D-01 -0.29177958D-01 -0.35839896D-01
 -0.30247608D-01 -0.11373890D-01 -0.74423879D-06 -0.55627239D-05 -0.20789169D-04
 -0.57998545D-04 -0.77702061D-04  0.91751645D-04 -0.49357543D-03 -0.25444500D-04
 -0.56332060D-05 -0.39831349D-02 -0.37344421D-02 -0.26591453D-02  0.60242084D-15
  0.56480783D-15  0.40217682D-15  0.20159151D-03  0.18900486D-03  0.13458272D-03
 -0.79003285D-03  0.15431306D-12 -0.15882221D-04 -0.12205859D-03 -0.15098767D-13
 -0.29586491D-04  0.20107488D-05  0.21027870D-14 -0.24241466D-06  0.17605392D-04
 -0.14712634D-04 -0.28927576D-05 -0.13512539D-14 -0.10065110D-02 -0.20201766D-12
 -0.14927296D-05  0.52769608D-05 -0.37842311D-05 -0.44740283D-14  0.46209237D-03
 -0.18244076D-12  0.31409106D-06  0.17364762D-05 -0.20505673D-05 -0.41417449D-15
 -0.27589428D-04  0.10322480D-13  0.10231334D-03  0.15555272D-13  0.25810646D-06
  0.43342854D-04 -0.15481282D-12 -0.13085754D-04 -0.35028287D-03  0.10814700D-12
  0.12311435D-04 -0.61375968D-15 -0.31210340D-04 -0.21787718D-13  0.18852378D-05
 -0.72569265D-04 -0.62082118D-14  0.49695239D-05  0.16620028D-03  0.71571366D-13
 -0.10625237D-04  0.44710883D-14  0.20298565D-02  0.37950212D-02  0.65589246D-02
  0.10608790D-01  0.16034831D-01  0.22083283D-01  0.25812668D-01  0.22309053D-01
  0.10411751D-01  0.14105638D-02 -0.10317067D-04  0.25624829D-04  0.32940460D-03
  0.12016206D-02  0.40542382D-02  0.89049262D-02  0.11502736D-01 -0.18485875D-02
 -0.15507452D-01 -0.85102896D-02  0.10359773D-06  0.11800426D-05  0.24501938D-05
  0.67374106D-05 -0.87358266D-06 -0.30463502D-04 -0.75980813D-04  0.62895817D-04
 -0.51647956D-03  0.69727150D-04  0.91579702D-05  0.97249096D+01  0.12758528D+02
  0.13993344D+02  0.11513302D+02  0.60691583D+01  0.15790808D+01 -0.49438519D-10
 -0.64860526D-10 -0.71137960D-10 -0.58530170D-10 -0.30853778D-10 -0.80275726D-11
  0.56080201D-01  0.73574034D-01  0.80694792D-01  0.66393244D-01  0.34998743D-01
  0.91060147D-02  0.57391568D-04  0.20601066D-02  0.32684107D-02  0.38811374D-02
  0.58731839D-03 -0.42743932D-02 -0.17702257D-15 -0.63543370D-14 -0.10081315D-13
 -0.11971252D-13 -0.18115660D-14  0.13184238D-13  0.71415256D-06  0.25634957D-04
  0.40670502D-04  0.48294973D-04  0.73083024D-05 -0.53188456D-04  0.73276290D-01
 -0.31739021D-12  0.47612237D-03  0.18078874D-04 -0.83638530D-14 -0.17818678D-04
 -0.17763652D-04 -0.93325439D-15 -0.23335988D-06 -0.37640143D-05 -0.48845289D-05
  0.86485432D-05 -0.15505492D-14  0.57559835D-03  0.65789496D-14 -0.26561355D-05
  0.57151741D-05 -0.30590387D-05  0.26608023D-14 -0.25516189D-03  0.78809795D-14
 -0.45671885D-06 -0.43095166D-06  0.88767051D-06  0.16698305D-15 -0.20045101D-04
  0.19957931D-14  0.83313818D-04  0.14225760D-14 -0.26334231D-05 -0.30997617D-04
 -0.33744870D-14  0.53916806D-05 -0.21894384D-03 -0.89324117D-15  0.25085885D-05
  0.11818427D-14  0.88790997D-05 -0.53844123D-15 -0.80934895D-07  0.27872174D-04
  0.96990095D-15  0.15497872D-06 -0.54509473D-04  0.64542273D-15  0.87825969D-07
  0.44489220D-15  0.16578837D-02  0.30902981D-02  0.52387437D-02  0.79321665D-02
  0.99169552D-02  0.85303598D-02  0.32715766D-02  0.24738109D-06  0.32748624D-05
  0.11894896D-04  0.35285985D-04  0.40659971D-04 -0.49387590D-04  0.14287226D-03
 -0.29700944D-04 -0.77555571D-05  0.63858523D-02  0.62452241D-02  0.41264836D-02
  0.14777139D-03  0.14451719D-03  0.95488618D-04  0.46102750D-04  0.45087483D-04
  0.29791206D-04  0.15011955D-02  0.19477484D-04 -0.44878529D-05  0.34652908D-03
  0.24009991D-05  0.10460573D-05 -0.79270521D-06 -0.68178875D-07 -0.13047726D-05
  0.32131837D-05 -0.45929064D-05  0.13797227D-05 -0.36598924D-03 -0.14693576D-03
 -0.14990777D-04 -0.31101102D-05  0.17961690D-05  0.13139412D-05  0.10230782D-03
 -0.57006548D-04  0.10312627D-04 -0.24526551D-05  0.31651625D-06  0.21361388D-05
  0.11927863D-04  0.80243219D-04  0.18092147D-05  0.80498142D-05 -0.15281816D-05
 -0.60644510D-05 -0.12484310D-03  0.51588752D-05  0.13413589D-04  0.10069366D-03
 -0.57433043D-06  0.47797638D-05 -0.60561810D-03 -0.46221597D-05  0.14700654D-06
  0.11712810D-05  0.74567573D-04 -0.80478913D-05 -0.10762818D-04 -0.60701093D-04
  0.76068717D-05  0.72489745D-05  0.21916035D-03  0.16578840D-02  0.30902986D-02
  0.52387445D-02  0.79321677D-02  0.99169567D-02  0.85303611D-02  0.32715771D-02
  0.24738111D-06  0.32748627D-05  0.11894897D-04  0.35285988D-04  0.40659974D-04
 -0.49387595D-04  0.14287229D-03 -0.29700945D-04 -0.77555571D-05  0.63858523D-02
  0.62452241D-02  0.41264836D-02 -0.14777139D-03 -0.14451720D-03 -0.95488621D-04
  0.46102755D-04  0.45087487D-04  0.29791209D-04  0.15011955D-02 -0.19477484D-04
 -0.44878529D-05  0.34652908D-03 -0.24009991D-05  0.10460576D-05 -0.79270521D-06
  0.68178864D-07 -0.13047726D-05  0.32131836D-05 -0.45929063D-05  0.13797227D-05
  0.36598924D-03 -0.14693576D-03  0.14990777D-04 -0.31101101D-05  0.17961689D-05
  0.13139412D-05 -0.10230782D-03 -0.57006548D-04 -0.10312626D-04 -0.24526551D-05
  0.31651623D-06  0.21361389D-05 -0.11927863D-04  0.80243219D-04 -0.18092148D-05
  0.80498142D-05  0.15281817D-05 -0.60644510D-05 -0.12484310D-03 -0.51588758D-05
  0.13413589D-04  0.10069366D-03  0.57433052D-06  0.47797637D-05  0.60561810D-03