 Entering Gaussian System, Link 0=/home/bruns/programas/chemistry/gaussian/g09/g09
 Input=GAUSSIAN.com
 Output=GAUSSIAN.log
 Initial command:
 /home/bruns/programas/chemistry/gaussian/g09/l1.exe /home/bruns/programas/chemistry/gaussian/work/Gau-33723.inp -scrdir=/home/bruns/programas/chemistry/gaussian/work/
 Entering Link 1 = /home/bruns/programas/chemistry/gaussian/g09/l1.exe PID=     33725.
  
 Copyright (c) 1988,1990,1992,1993,1995,1998,2003,2009,2010,
            Gaussian, Inc.  All Rights Reserved.
  
 This is part of the Gaussian(R) 09 program.  It is based on
 the Gaussian(R) 03 system (copyright 2003, Gaussian, Inc.),
 the Gaussian(R) 98 system (copyright 1998, Gaussian, Inc.),
 the Gaussian(R) 94 system (copyright 1995, Gaussian, Inc.),
 the Gaussian 92(TM) system (copyright 1992, Gaussian, Inc.),
 the Gaussian 90(TM) system (copyright 1990, Gaussian, Inc.),
 the Gaussian 88(TM) system (copyright 1988, Gaussian, Inc.),
 the Gaussian 86(TM) system (copyright 1986, Carnegie Mellon
 University), and the Gaussian 82(TM) system (copyright 1983,
 Carnegie Mellon University). Gaussian is a federally registered
 trademark of Gaussian, Inc.
  
 This software contains proprietary and confidential information,
 including trade secrets, belonging to Gaussian, Inc.
  
 This software is provided under written license and may be
 used, copied, transmitted, or stored only in accord with that
 written license.
  
 The following legend is applicable only to US Government
 contracts under FAR:
  
                    RESTRICTED RIGHTS LEGEND
  
 Use, reproduction and disclosure by the US Government is
 subject to restrictions as set forth in subparagraphs (a)
 and (c) of the Commercial Computer Software - Restricted
 Rights clause in FAR 52.227-19.
  
 Gaussian, Inc.
 340 Quinnipiac St., Bldg. 40, Wallingford CT 06492
  
  
 ---------------------------------------------------------------
 Warning -- This program may not be used in any manner that
 competes with the business of Gaussian, Inc. or will provide
 assistance to any competitor of Gaussian, Inc.  The licensee
 of this program is prohibited from giving any competitor of
 Gaussian, Inc. access to this program.  By using this program,
 the user acknowledges that Gaussian, Inc. is engaged in the
 business of creating and licensing software in the field of
 computational chemistry and represents and warrants to the
 licensee that it is not a competitor of Gaussian, Inc. and that
 it will not use this program in any manner prohibited above.
 ---------------------------------------------------------------
  

 Cite this work as:
 Gaussian 09, Revision B.01,
 M. J. Frisch, G. W. Trucks, H. B. Schlegel, G. E. Scuseria, 
 M. A. Robb, J. R. Cheeseman, G. Scalmani, V. Barone, B. Mennucci, 
 G. A. Petersson, H. Nakatsuji, M. Caricato, X. Li, H. P. Hratchian, 
 A. F. Izmaylov, J. Bloino, G. Zheng, J. L. Sonnenberg, M. Hada, 
 M. Ehara, K. Toyota, R. Fukuda, J. Hasegawa, M. Ishida, T. Nakajima, 
 Y. Honda, O. Kitao, H. Nakai, T. Vreven, J. A. Montgomery, Jr., 
 J. E. Peralta, F. Ogliaro, M. Bearpark, J. J. Heyd, E. Brothers, 
 K. N. Kudin, V. N. Staroverov, T. Keith, R. Kobayashi, J. Normand, 
 K. Raghavachari, A. Rendell, J. C. Burant, S. S. Iyengar, J. Tomasi, 
 M. Cossi, N. Rega, J. M. Millam, M. Klene, J. E. Knox, J. B. Cross, 
 V. Bakken, C. Adamo, J. Jaramillo, R. Gomperts, R. E. Stratmann, 
 O. Yazyev, A. J. Austin, R. Cammi, C. Pomelli, J. W. Ochterski, 
 R. L. Martin, K. Morokuma, V. G. Zakrzewski, G. A. Voth, 
 P. Salvador, J. J. Dannenberg, S. Dapprich, A. D. Daniels, 
 O. Farkas, J. B. Foresman, J. V. Ortiz, J. Cioslowski, 
 and D. J. Fox, Gaussian, Inc., Wallingford CT, 2010.
 
 ******************************************
 Gaussian 09:  EM64L-G09RevB.01 12-Aug-2010
                27-Nov-2021 
 ******************************************
 %nproc=8
 Will use up to    8 processors via shared memory.
 %mem=8GB
 -----------------------------------------------------
 # qcisd/aug-cc-pvtz nosymm density=current output=wfn
 -----------------------------------------------------
 1/30=1,38=1/1;
 2/12=2,15=1,17=6,18=5,40=1/2;
 3/5=16,6=1,7=10,11=9,16=1,25=1,30=1,71=1/1,2,3;
 4//1;
 5/5=2,38=5/2;
 8/6=4,9=120000,10=1/1,4;
 9/5=8,15=1/13;
 11/28=-7,31=1,32=3,42=3/11;
 10/5=6,13=10,31=1/2;
 6/7=2,8=2,9=2,10=2,22=-1,31=1/1;
 99/5=1,6=1100,9=1/99;
 -----------------
 f2cs-wavefunction
 -----------------
 Symbolic Z-matrix:
 Charge =  0 Multiplicity = 1
 C                     0.        0.       -0.52035 
 S                     0.       -0.01      1.07852 
 F                     0.       -1.05522  -1.29554 
 F                     0.        1.05522  -1.29554 
 
                          Input orientation:                          
 ---------------------------------------------------------------------
 Center     Atomic      Atomic             Coordinates (Angstroms)
 Number     Number       Type             X           Y           Z
 ---------------------------------------------------------------------
      1          6           0        0.000000    0.000000   -0.520349
      2         16           0        0.000000   -0.010000    1.078525
      3          9           0        0.000000   -1.055221   -1.295538
      4          9           0        0.000000    1.055221   -1.295538
 ---------------------------------------------------------------------
                    Distance matrix (angstroms):
                    1          2          3          4
     1  C    0.000000
     2  S    1.598905   0.000000
     3  F    1.309355   2.593966   0.000000
     4  F    1.309355   2.602090   2.110442   0.000000
 Symmetry turned off by external request.
 Stoichiometry    CF2S
 Framework group  CS[SG(CF2S)]
 Deg. of freedom     5
 Full point group                 CS      NOp   2
 Rotational constants (GHZ):     11.9452787      5.1129205      3.5804049
 Standard basis: Aug-CC-pVTZ (5D, 7F)
 Integral buffers will be    131072 words long.
 Raffenetti 1 integral format.
 Two-electron integral symmetry is turned off.
   188 basis functions,   330 primitive gaussians,   224 cartesian basis functions
    20 alpha electrons       20 beta electrons
       nuclear repulsion energy       154.3920173853 Hartrees.
 NAtoms=    4 NActive=    4 NUniq=    4 SFac= 1.00D+00 NAtFMM=   50 NAOKFM=F Big=F
 One-electron integrals computed using PRISM.
 NBasis=   188 RedAO= T  NBF=   188
 NBsUse=   188 1.00D-06 NBFU=   188
 Harris functional with IExCor=  205 diagonalized for initial guess.
 ExpMin= 3.51D-02 ExpMax= 3.74D+05 ExpMxC= 1.18D+03 IAcc=3 IRadAn=         0 AccDes= 0.00D+00
 HarFok:  IExCor=  205 AccDes= 0.00D+00 IRadAn=         0 IDoV= 1
 ScaDFX=  1.000000  1.000000  1.000000  1.000000
 FoFCou: FMM=F IPFlag=           0 FMFlag=      100000 FMFlg1=           0
         NFxFlg=           0 DoJE=T BraDBF=F KetDBF=T FulRan=T
         Omega=  0.000000  0.000000  1.000000  0.000000  0.000000 ICntrl=     500 IOpCl=  0
         NMat0=    1 NMatS0=    1 NMatT0=    0 NMatD0=    1 NMtDS0=    0 NMtDT0=    0
         I1Cent=           4 NGrid=           0.
 Symmetry not used in FoFCou.
 Requested convergence on RMS density matrix=1.00D-08 within 128 cycles.
 Requested convergence on MAX density matrix=1.00D-06.
 Requested convergence on             energy=1.00D-06.
 No special actions if energy rises.
 Keep R1 ints in memory in canonical form, NReq=323399632.
 SCF Done:  E(RHF) =  -634.356860859     A.U. after   12 cycles
             Convg  =    0.6744D-08             -V/T =  2.0005
 ExpMin= 3.51D-02 ExpMax= 3.74D+05 ExpMxC= 1.18D+03 IAcc=3 IRadAn=         5 AccDes= 0.00D+00
 HarFok:  IExCor=  205 AccDes= 0.00D+00 IRadAn=         5 IDoV=-2
 ScaDFX=  1.000000  1.000000  1.000000  1.000000
 Range of M.O.s used for correlation:     9   188
 NBasis=   188 NAE=    20 NBE=    20 NFC=     8 NFV=     0
 NROrb=    180 NOA=    12 NOB=    12 NVA=   168 NVB=   168

 **** Warning!!: The largest alpha MO coefficient is  0.26914530D+02

 Semi-Direct transformation.
 ModeAB=           2 MOrb=            12 LenV=    1072746545
 LASXX=     33405819 LTotXX=    33405819 LenRXX=    33405819
 LTotAB=    33954012 MaxLAS=    54432000 LenRXY=    54432000
 NonZer=    66811638 LenScr=   100987392 LnRSAI=           0
 LnScr1=           0 LExtra=           0 Total=    188825211
 MaxDsk=          -1 SrtSym=           F ITran=            4
 JobTyp=0 Pass  1:  I=   1 to  12.
 (rs|ai) integrals will be sorted in core.
 Spin components of T(2) and E(2):
     alpha-alpha T2 =       0.3014364397D-01 E2=     -0.1104083476D+00
     alpha-beta  T2 =       0.1598243397D+00 E2=     -0.6187193905D+00
     beta-beta   T2 =       0.3014364397D-01 E2=     -0.1104083476D+00
 ANorm=    0.1104586632D+01
 E2 =    -0.8395360858D+00 EUMP2 =    -0.63519639694444D+03
 R2 and R3 integrals will be kept in memory, NReq=   640760400.
 Iterations=  50 Convergence= 0.100D-07
 Iteration Nr.   1
 **********************
 DD1Dir will call FoFMem   1 times, MxPair=       156
 NAB=    78 NAA=     0 NBB=     0.
 MP4(R+Q)=  0.19353075D-01
 E3=       -0.33854260D-02        EUMP3=      -0.63519978237D+03
 E4(DQ)=    0.24273052D-02        UMP4(DQ)=   -0.63519735507D+03
 E4(SDQ)=  -0.84305256D-02        UMP4(SDQ)=  -0.63520821290D+03
 DE(Corr)= -0.82356844     E(Corr)=     -635.18042930    
 NORM(A)=   0.11038531D+01
 Iteration Nr.   2
 **********************
 DD1Dir will call FoFMem   1 times, MxPair=       156
 NAB=    78 NAA=     0 NBB=     0.
 DE(Corr)= -0.84925298     E(CORR)=     -635.20611384     Delta=-2.57D-02
 NORM(A)=   0.11127846D+01
 Iteration Nr.   3
 **********************
 DD1Dir will call FoFMem   1 times, MxPair=       156
 NAB=    78 NAA=     0 NBB=     0.
 DE(Corr)= -0.84757877     E(CORR)=     -635.20443963     Delta= 1.67D-03
 NORM(A)=   0.11156268D+01
 Iteration Nr.   4
 **********************
 DD1Dir will call FoFMem   1 times, MxPair=       156
 NAB=    78 NAA=     0 NBB=     0.
 DE(Corr)= -0.85011001     E(CORR)=     -635.20697087     Delta=-2.53D-03
 NORM(A)=   0.11167380D+01
 Iteration Nr.   5
 **********************
 DD1Dir will call FoFMem   1 times, MxPair=       156
 NAB=    78 NAA=     0 NBB=     0.
 DE(Corr)= -0.85041125     E(CORR)=     -635.20727211     Delta=-3.01D-04
 NORM(A)=   0.11170639D+01
 Iteration Nr.   6
 **********************
 DD1Dir will call FoFMem   1 times, MxPair=       156
 NAB=    78 NAA=     0 NBB=     0.
 DE(Corr)= -0.85045075     E(CORR)=     -635.20731160     Delta=-3.95D-05
 NORM(A)=   0.11171125D+01
 Iteration Nr.   7
 **********************
 DD1Dir will call FoFMem   1 times, MxPair=       156
 NAB=    78 NAA=     0 NBB=     0.
 DE(Corr)= -0.85045505     E(CORR)=     -635.20731590     Delta=-4.30D-06
 NORM(A)=   0.11171123D+01
 Iteration Nr.   8
 **********************
 DD1Dir will call FoFMem   1 times, MxPair=       156
 NAB=    78 NAA=     0 NBB=     0.
 DE(Corr)= -0.85045366     E(CORR)=     -635.20731452     Delta= 1.39D-06
 NORM(A)=   0.11171175D+01
 Iteration Nr.   9
 **********************
 DD1Dir will call FoFMem   1 times, MxPair=       156
 NAB=    78 NAA=     0 NBB=     0.
 DE(Corr)= -0.85045335     E(CORR)=     -635.20731421     Delta= 3.10D-07
 NORM(A)=   0.11171176D+01
 Iteration Nr.  10
 **********************
 DD1Dir will call FoFMem   1 times, MxPair=       156
 NAB=    78 NAA=     0 NBB=     0.
 DE(Corr)= -0.85045345     E(CORR)=     -635.20731430     Delta=-9.50D-08
 NORM(A)=   0.11171191D+01
 Iteration Nr.  11
 **********************
 DD1Dir will call FoFMem   1 times, MxPair=       156
 NAB=    78 NAA=     0 NBB=     0.
 DE(Corr)= -0.85045418     E(CORR)=     -635.20731504     Delta=-7.34D-07
 NORM(A)=   0.11171205D+01
 Iteration Nr.  12
 **********************
 DD1Dir will call FoFMem   1 times, MxPair=       156
 NAB=    78 NAA=     0 NBB=     0.
 DE(Corr)= -0.85045442     E(CORR)=     -635.20731528     Delta=-2.37D-07
 NORM(A)=   0.11171212D+01
 Iteration Nr.  13
 **********************
 DD1Dir will call FoFMem   1 times, MxPair=       156
 NAB=    78 NAA=     0 NBB=     0.
 DE(Corr)= -0.85045468     E(CORR)=     -635.20731554     Delta=-2.64D-07
 NORM(A)=   0.11171217D+01
 Iteration Nr.  14
 **********************
 DD1Dir will call FoFMem   1 times, MxPair=       156
 NAB=    78 NAA=     0 NBB=     0.
 DE(Corr)= -0.85045474     E(CORR)=     -635.20731560     Delta=-5.95D-08
 NORM(A)=   0.11171218D+01
 Iteration Nr.  15
 **********************
 DD1Dir will call FoFMem   1 times, MxPair=       156
 NAB=    78 NAA=     0 NBB=     0.
 DE(Corr)= -0.85045478     E(CORR)=     -635.20731564     Delta=-3.92D-08
 NORM(A)=   0.11171219D+01
 Iteration Nr.  16
 **********************
 DD1Dir will call FoFMem   1 times, MxPair=       156
 NAB=    78 NAA=     0 NBB=     0.
 DE(Corr)= -0.85045479     E(CORR)=     -635.20731565     Delta=-1.08D-08
 NORM(A)=   0.11171219D+01
 Iteration Nr.  17
 **********************
 DD1Dir will call FoFMem   1 times, MxPair=       156
 NAB=    78 NAA=     0 NBB=     0.
 DE(Corr)= -0.85045479     E(CORR)=     -635.20731565     Delta= 2.48D-09
 NORM(A)=   0.11171219D+01
 Iteration Nr.  18
 **********************
 DD1Dir will call FoFMem   1 times, MxPair=       156
 NAB=    78 NAA=     0 NBB=     0.
 DE(Corr)= -0.85045479     E(CORR)=     -635.20731565     Delta=-2.45D-09
 NORM(A)=   0.11171219D+01
 Iteration Nr.  19
 **********************
 DD1Dir will call FoFMem   1 times, MxPair=       156
 NAB=    78 NAA=     0 NBB=     0.
 DE(Corr)= -0.85045479     E(CORR)=     -635.20731565     Delta= 1.53D-09
 NORM(A)=   0.11171219D+01
 Largest amplitude= 8.52D-02

 Z-AMPLITUDE ITERATIONS

 Iteration Nr.   1
 **********************
 DD1Dir will call FoFMem   1 times, MxPair=       156
 NAB=    78 NAA=     0 NBB=     0.
 DE(Z)  -0.82655110D+00          E(Z)=    -0.63518341195D+03
 NORM(A)=   0.11171119D+01
 Iteration Nr.   2
 **********************
 DD1Dir will call FoFMem   1 times, MxPair=       156
 NAB=    78 NAA=     0 NBB=     0.
 DE(Z)  -0.82655108D+00          E(Z)=    -0.63518341194D+03
 NORM(A)=   0.11172357D+01
 Iteration Nr.   3
 **********************
 DD1Dir will call FoFMem   1 times, MxPair=       156
 NAB=    78 NAA=     0 NBB=     0.
 DE(Z)  -0.82655289D+00          E(Z)=    -0.63518341375D+03
 NORM(A)=   0.11170949D+01
 Iteration Nr.   4
 **********************
 DD1Dir will call FoFMem   1 times, MxPair=       156
 NAB=    78 NAA=     0 NBB=     0.
 DE(Z)  -0.82655075D+00          E(Z)=    -0.63518341161D+03
 NORM(A)=   0.11170420D+01
 Iteration Nr.   5
 **********************
 DD1Dir will call FoFMem   1 times, MxPair=       156
 NAB=    78 NAA=     0 NBB=     0.
 DE(Z)  -0.82654973D+00          E(Z)=    -0.63518341059D+03
 NORM(A)=   0.11088851D+01
 Iteration Nr.   6
 **********************
 DD1Dir will call FoFMem   1 times, MxPair=       156
 NAB=    78 NAA=     0 NBB=     0.
 DE(Z)  -0.82641169D+00          E(Z)=    -0.63518327255D+03
 NORM(A)=   0.11088820D+01
 Iteration Nr.   7
 **********************
 DD1Dir will call FoFMem   1 times, MxPair=       156
 NAB=    78 NAA=     0 NBB=     0.
 DE(Z)  -0.82640990D+00          E(Z)=    -0.63518327076D+03
 NORM(A)=   0.11088799D+01
 Iteration Nr.   8
 **********************
 DD1Dir will call FoFMem   1 times, MxPair=       156
 NAB=    78 NAA=     0 NBB=     0.
 DE(Z)  -0.82641037D+00          E(Z)=    -0.63518327123D+03
 NORM(A)=   0.11088793D+01
 Iteration Nr.   9
 **********************
 DD1Dir will call FoFMem   1 times, MxPair=       156
 NAB=    78 NAA=     0 NBB=     0.
 DE(Z)  -0.82641047D+00          E(Z)=    -0.63518327133D+03
 NORM(A)=   0.11088797D+01
 Iteration Nr.  10
 **********************
 DD1Dir will call FoFMem   1 times, MxPair=       156
 NAB=    78 NAA=     0 NBB=     0.
 DE(Z)  -0.82641024D+00          E(Z)=    -0.63518327110D+03
 NORM(A)=   0.11088798D+01
 Iteration Nr.  11
 **********************
 DD1Dir will call FoFMem   1 times, MxPair=       156
 NAB=    78 NAA=     0 NBB=     0.
 DE(Z)  -0.82641050D+00          E(Z)=    -0.63518327136D+03
 NORM(A)=   0.11088799D+01
 Iteration Nr.  12
 **********************
 DD1Dir will call FoFMem   1 times, MxPair=       156
 NAB=    78 NAA=     0 NBB=     0.
 DE(Z)  -0.82641049D+00          E(Z)=    -0.63518327135D+03
 NORM(A)=   0.11088799D+01
 Iteration Nr.  13
 **********************
 DD1Dir will call FoFMem   1 times, MxPair=       156
 NAB=    78 NAA=     0 NBB=     0.
 DE(Z)  -0.82641051D+00          E(Z)=    -0.63518327136D+03
 NORM(A)=   0.11088799D+01
 Iteration Nr.  14
 **********************
 DD1Dir will call FoFMem   1 times, MxPair=       156
 NAB=    78 NAA=     0 NBB=     0.
 DE(Z)  -0.82641050D+00          E(Z)=    -0.63518327136D+03
 NORM(A)=   0.11088799D+01
 Iteration Nr.  15
 **********************
 DD1Dir will call FoFMem   1 times, MxPair=       156
 NAB=    78 NAA=     0 NBB=     0.
 DE(Z)  -0.82641050D+00          E(Z)=    -0.63518327136D+03
 NORM(A)=   0.11088799D+01
 Discarding MO integrals.
          Differentiating once with respect to electric field.
                with respect to dipole field.
          Electric field/nuclear overlap derivatives assumed to be zero.
          Keep R1 ints in memory in canonical form, NReq=319473719.
          There are     1 degrees of freedom in the 1st order CPHF.  IDoFFX=0.
 LinEq1:  Iter=  0 NonCon=     1 RMS=2.85D-03 Max=7.75D-02
 AX will form     1 AO Fock derivatives at one time.
 LinEq1:  Iter=  1 NonCon=     1 RMS=8.84D-04 Max=1.07D-02
 LinEq1:  Iter=  2 NonCon=     1 RMS=4.03D-04 Max=1.29D-02
 LinEq1:  Iter=  3 NonCon=     1 RMS=1.09D-04 Max=2.39D-03
 LinEq1:  Iter=  4 NonCon=     1 RMS=2.69D-05 Max=6.37D-04
 LinEq1:  Iter=  5 NonCon=     1 RMS=6.77D-06 Max=1.03D-04
 LinEq1:  Iter=  6 NonCon=     1 RMS=2.67D-06 Max=5.72D-05
 LinEq1:  Iter=  7 NonCon=     1 RMS=8.32D-07 Max=1.52D-05
 LinEq1:  Iter=  8 NonCon=     1 RMS=1.67D-07 Max=2.33D-06
 LinEq1:  Iter=  9 NonCon=     1 RMS=3.13D-08 Max=3.73D-07
 LinEq1:  Iter= 10 NonCon=     1 RMS=6.28D-09 Max=6.75D-08
 LinEq1:  Iter= 11 NonCon=     1 RMS=1.21D-09 Max=1.63D-08
 LinEq1:  Iter= 12 NonCon=     1 RMS=5.15D-10 Max=8.14D-09
 LinEq1:  Iter= 13 NonCon=     1 RMS=1.12D-10 Max=1.46D-09
 LinEq1:  Iter= 14 NonCon=     0 RMS=2.09D-11 Max=2.11D-10
 Linear equations converged to 1.000D-10 1.000D-09 after    14 iterations.
 End of Minotr Frequency-dependent properties file   721 does not exist.
 End of Minotr Frequency-dependent properties file   722 does not exist.

 **********************************************************************

            Population analysis using the QCI/CC density.

 **********************************************************************

     Natural Orbital Coefficients:
                           1         2         3         4         5
     Eigenvalues --     2.00003   2.00002   2.00001   2.00001   2.00000
   1 1   C  1S         -0.00157  -0.17765   0.59464   0.00000   0.48273
   2        2S          0.00004   0.00325  -0.00925   0.00000  -0.00495
   3        3S         -0.00006  -0.00680   0.02394   0.00000   0.02018
   4        4S         -0.00003  -0.00905   0.00229   0.00000  -0.00205
   5        5S          0.00002  -0.00082   0.00195   0.00000   0.00044
   6        6PX         0.00000   0.00000   0.00000  -0.00182   0.00000
   7        6PY        -0.00139   0.00000   0.00001   0.00000   0.00000
   8        6PZ         0.00002   0.00135  -0.00335   0.00000  -0.00038
   9        7PX         0.00000   0.00000   0.00000  -0.00184   0.00000
  10        7PY        -0.00364   0.00002  -0.00002   0.00000   0.00000
  11        7PZ         0.00001  -0.00098   0.00139   0.00000   0.00160
  12        8PX         0.00000   0.00000   0.00000  -0.00120   0.00000
  13        8PY         0.00601   0.00005  -0.00005   0.00000  -0.00003
  14        8PZ        -0.00003  -0.00923   0.00527   0.00000  -0.00109
  15        9PX         0.00000   0.00000   0.00000   0.00009   0.00000
  16        9PY        -0.00061   0.00000   0.00000   0.00000   0.00000
  17        9PZ         0.00001   0.00035   0.00029   0.00000   0.00054
  18       10D 0        0.00000  -0.00008   0.00007   0.00000   0.00019
  19       10D+1        0.00000   0.00000   0.00000  -0.00030   0.00000
  20       10D-1       -0.00030   0.00000   0.00000   0.00000   0.00000
  21       10D+2        0.00000   0.00011  -0.00037   0.00000  -0.00019
  22       10D-2        0.00000   0.00000   0.00000   0.00000   0.00000
  23       11D 0        0.00000  -0.00117   0.00018   0.00000  -0.00032
  24       11D+1        0.00000   0.00000   0.00000   0.00120   0.00000
  25       11D-1        0.00103   0.00002  -0.00001   0.00000   0.00001
  26       11D+2        0.00000  -0.00013   0.00118   0.00000   0.00082
  27       11D-2        0.00000   0.00000   0.00000  -0.00001   0.00000
  28       12D 0       -0.00001  -0.00270   0.00163   0.00000  -0.00137
  29       12D+1        0.00000   0.00000   0.00000  -0.00054   0.00000
  30       12D-1       -0.00446   0.00006  -0.00003   0.00000   0.00002
  31       12D+2       -0.00001  -0.00088   0.00057   0.00000  -0.00054
  32       12D-2        0.00000   0.00000   0.00000   0.00000   0.00000
  33       13F 0        0.00000  -0.00005  -0.00001   0.00000   0.00041
  34       13F+1        0.00000   0.00000   0.00000  -0.00018   0.00000
  35       13F-1       -0.00055   0.00000   0.00000   0.00000  -0.00001
  36       13F+2       -0.00001  -0.00010   0.00016   0.00000   0.00002
  37       13F-2        0.00000   0.00000   0.00000   0.00000   0.00000
  38       13F+3        0.00000   0.00000   0.00000   0.00002   0.00000
  39       13F-3        0.00005   0.00000   0.00000   0.00000   0.00000
  40       14F 0        0.00005   0.00062  -0.00195   0.00000  -0.00025
  41       14F+1        0.00000   0.00000   0.00000   0.00089   0.00000
  42       14F-1        0.00290  -0.00006   0.00010   0.00000  -0.00008
  43       14F+2        0.00003   0.00065  -0.00151   0.00000  -0.00089
  44       14F-2        0.00000   0.00000   0.00000  -0.00001   0.00000
  45       14F+3        0.00000   0.00000   0.00000   0.00017   0.00000
  46       14F-3        0.00003  -0.00002   0.00003   0.00000  -0.00001
  47 2   S  1S         -0.00066  -0.21708  -0.16979   0.00000   0.07188
  48        2S          0.00224   0.74226   0.58701   0.00000  -0.24953
  49        3S         -0.00009  -0.02144  -0.00889   0.00000   0.00218
  50        4S          0.00015   0.04959   0.04235   0.00000  -0.01822
  51        5S          0.00004   0.01000  -0.01127   0.00000   0.00417
  52        6S         -0.00001   0.00100  -0.00257   0.00000  -0.00081
  53        7PX         0.00000   0.00000   0.00000   0.97269   0.00000
  54        7PY         0.97638  -0.01013   0.00629   0.00000  -0.00432
  55        7PZ         0.01284   0.62338  -0.50352   0.00000   0.43825
  56        8PX         0.00000   0.00000   0.00000  -0.01225   0.00000
  57        8PY        -0.02022   0.00021  -0.00013   0.00000   0.00010
  58        8PZ        -0.00025  -0.01235   0.00874   0.00000  -0.00447
  59        9PX         0.00000   0.00000   0.00000   0.06130   0.00000
  60        9PY         0.05654  -0.00061   0.00041   0.00000  -0.00029
  61        9PZ         0.00076   0.03854  -0.03310   0.00000   0.02891
  62       10PX         0.00000   0.00000   0.00000   0.00020   0.00000
  63       10PY        -0.00421   0.00007  -0.00003   0.00000   0.00002
  64       10PZ        -0.00010  -0.00881   0.00483   0.00000  -0.00069
  65       11PX         0.00000   0.00000   0.00000  -0.00082   0.00000
  66       11PY        -0.00033   0.00000   0.00000   0.00000   0.00000
  67       11PZ        -0.00001  -0.00029   0.00029   0.00000  -0.00003
  68       12D 0        0.00006   0.00245  -0.00293   0.00000   0.00107
  69       12D+1        0.00000   0.00000   0.00000   0.00201   0.00000
  70       12D-1        0.00336  -0.00005   0.00006   0.00000  -0.00006
  71       12D+2        0.00002  -0.00040   0.00026   0.00000   0.00029
  72       12D-2        0.00000   0.00000   0.00000  -0.00001   0.00000
  73       13D 0        0.00000   0.00019   0.00028   0.00000  -0.00069
  74       13D+1        0.00000   0.00000   0.00000  -0.00013   0.00000
  75       13D-1       -0.00028   0.00000   0.00000   0.00000   0.00001
  76       13D+2        0.00000   0.00026   0.00013   0.00000  -0.00008
  77       13D-2        0.00000   0.00000   0.00000   0.00000   0.00000
  78       14D 0        0.00001   0.00141  -0.00061   0.00000   0.00010
  79       14D+1        0.00000   0.00000   0.00000  -0.00039   0.00000
  80       14D-1       -0.00081  -0.00001   0.00000   0.00000   0.00000
  81       14D+2       -0.00001   0.00025  -0.00002   0.00000   0.00014
  82       14D-2        0.00000   0.00000   0.00000   0.00000   0.00000
  83       15F 0        0.00000  -0.00022   0.00029   0.00000   0.00033
  84       15F+1        0.00000   0.00000   0.00000  -0.00023   0.00000
  85       15F-1       -0.00022   0.00000  -0.00001   0.00000   0.00000
  86       15F+2        0.00000   0.00011  -0.00014   0.00000   0.00003
  87       15F-2        0.00000   0.00000   0.00000   0.00000   0.00000
  88       15F+3        0.00000   0.00000   0.00000   0.00009   0.00000
  89       15F-3        0.00006   0.00000   0.00000   0.00000   0.00000
  90       16F 0       -0.00002  -0.00046   0.00057   0.00000  -0.00046
  91       16F+1        0.00000   0.00000   0.00000  -0.00047   0.00000
  92       16F-1       -0.00103   0.00001  -0.00002   0.00000   0.00002
  93       16F+2       -0.00001  -0.00001  -0.00017   0.00000  -0.00026
  94       16F-2        0.00000   0.00000   0.00000   0.00000   0.00000
  95       16F+3        0.00000   0.00000   0.00000  -0.00013   0.00000
  96       16F-3       -0.00012   0.00000   0.00000   0.00000   0.00000
  97 3   F  1S          0.00848   0.01085  -0.08495   0.00000  -0.48225
  98        2S          0.00018  -0.00045   0.00236   0.00000   0.00834
  99        3S          0.00045   0.00039  -0.00339   0.00000  -0.02050
 100        4S          0.00026  -0.00135   0.00378   0.00000   0.00178
 101        5S          0.00718  -0.00218   0.00123   0.00000  -0.00035
 102        6PX         0.00000   0.00000   0.00000   0.00095   0.00000
 103        6PY        -0.00019   0.00002  -0.00069   0.00000  -0.00170
 104        6PZ        -0.00058  -0.00013  -0.00018   0.00000  -0.00142
 105        7PX         0.00000   0.00000   0.00000   0.00118   0.00000
 106        7PY        -0.00031  -0.00006  -0.00039   0.00000  -0.00093
 107        7PZ        -0.00085  -0.00029   0.00017   0.00000  -0.00084
 108        8PX         0.00000   0.00000   0.00000   0.00127   0.00000
 109        8PY        -0.00053  -0.00001  -0.00014   0.00000  -0.00115
 110        8PZ        -0.00275  -0.00026   0.00065   0.00000  -0.00135
 111        9PX         0.00000   0.00000   0.00000  -0.00002   0.00000
 112        9PY         0.00169  -0.00010  -0.00005   0.00000   0.00006
 113        9PZ         0.00020  -0.00109   0.00052   0.00000  -0.00068
 114       10D 0        0.00000   0.00001   0.00000   0.00000   0.00001
 115       10D+1        0.00000   0.00000   0.00000  -0.00001   0.00000
 116       10D-1        0.00001   0.00000   0.00002   0.00000   0.00002
 117       10D+2        0.00000   0.00001  -0.00002   0.00000   0.00002
 118       10D-2        0.00000   0.00000   0.00000  -0.00002   0.00000
 119       11D 0        0.00015   0.00001  -0.00006   0.00000  -0.00002
 120       11D+1        0.00000   0.00000   0.00000  -0.00003   0.00000
 121       11D-1       -0.00007   0.00004  -0.00014   0.00000  -0.00010
 122       11D+2        0.00003  -0.00001   0.00007   0.00000   0.00000
 123       11D-2        0.00000   0.00000   0.00000   0.00005   0.00000
 124       12D 0       -0.00047   0.00020  -0.00032   0.00000  -0.00002
 125       12D+1        0.00000   0.00000   0.00000   0.00024   0.00000
 126       12D-1       -0.00085  -0.00006   0.00022   0.00000  -0.00051
 127       12D+2        0.00039  -0.00016   0.00032   0.00000   0.00021
 128       12D-2        0.00000   0.00000   0.00000   0.00004   0.00000
 129       13F 0       -0.00001  -0.00002   0.00004   0.00000   0.00000
 130       13F+1        0.00000   0.00000   0.00000   0.00001   0.00000
 131       13F-1        0.00003   0.00001   0.00000   0.00000   0.00002
 132       13F+2       -0.00001  -0.00001   0.00001   0.00000  -0.00004
 133       13F-2        0.00000   0.00000   0.00000  -0.00002   0.00000
 134       13F+3        0.00000   0.00000   0.00000   0.00001   0.00000
 135       13F-3       -0.00001   0.00001  -0.00002   0.00000   0.00001
 136       14F 0        0.00013   0.00006  -0.00010   0.00000   0.00014
 137       14F+1        0.00000   0.00000   0.00000  -0.00004   0.00000
 138       14F-1       -0.00001   0.00003  -0.00014   0.00000  -0.00019
 139       14F+2        0.00007  -0.00001   0.00012   0.00000   0.00030
 140       14F-2        0.00000   0.00000   0.00000   0.00008   0.00000
 141       14F+3        0.00000   0.00000   0.00000  -0.00003   0.00000
 142       14F-3        0.00012  -0.00005   0.00015   0.00000   0.00000
 143 4   F  1S         -0.00815   0.01090  -0.08468   0.00000  -0.48682
 144        2S         -0.00019  -0.00044   0.00235   0.00000   0.00842
 145        3S         -0.00044   0.00040  -0.00338   0.00000  -0.02069
 146        4S         -0.00034  -0.00131   0.00374   0.00000   0.00184
 147        5S         -0.00720  -0.00210   0.00121   0.00000  -0.00030
 148        6PX         0.00000   0.00000   0.00000   0.00095   0.00000
 149        6PY        -0.00019  -0.00002   0.00069   0.00000   0.00171
 150        6PZ         0.00058  -0.00014  -0.00018   0.00000  -0.00143
 151        7PX         0.00000   0.00000   0.00000   0.00118   0.00000
 152        7PY        -0.00030   0.00007   0.00039   0.00000   0.00093
 153        7PZ         0.00085  -0.00031   0.00018   0.00000  -0.00085
 154        8PX         0.00000   0.00000   0.00000   0.00126   0.00000
 155        8PY        -0.00055  -0.00005   0.00026   0.00000   0.00107
 156        8PZ         0.00270  -0.00034   0.00079   0.00000  -0.00147
 157        9PX         0.00000   0.00000   0.00000  -0.00001   0.00000
 158        9PY         0.00169   0.00008   0.00005   0.00000  -0.00008
 159        9PZ        -0.00021  -0.00111   0.00053   0.00000  -0.00068
 160       10D 0        0.00000   0.00001   0.00000   0.00000   0.00001
 161       10D+1        0.00000   0.00000   0.00000  -0.00001   0.00000
 162       10D-1        0.00001   0.00000  -0.00002   0.00000  -0.00002
 163       10D+2        0.00000   0.00001  -0.00002   0.00000   0.00002
 164       10D-2        0.00000   0.00000   0.00000   0.00002   0.00000
 165       11D 0       -0.00015   0.00001  -0.00005   0.00000  -0.00003
 166       11D+1        0.00000   0.00000   0.00000  -0.00003   0.00000
 167       11D-1       -0.00007  -0.00004   0.00013   0.00000   0.00010
 168       11D+2       -0.00004  -0.00001   0.00007   0.00000  -0.00001
 169       11D-2        0.00000   0.00000   0.00000  -0.00005   0.00000
 170       12D 0        0.00046   0.00017  -0.00025   0.00000  -0.00007
 171       12D+1        0.00000   0.00000   0.00000   0.00024   0.00000
 172       12D-1       -0.00083   0.00007  -0.00023   0.00000   0.00053
 173       12D+2       -0.00041  -0.00018   0.00035   0.00000   0.00019
 174       12D-2        0.00000   0.00000   0.00000  -0.00003   0.00000
 175       13F 0        0.00001  -0.00002   0.00004   0.00000  -0.00001
 176       13F+1        0.00000   0.00000   0.00000   0.00001   0.00000
 177       13F-1        0.00003  -0.00001   0.00000   0.00000  -0.00002
 178       13F+2        0.00000  -0.00001   0.00001   0.00000  -0.00004
 179       13F-2        0.00000   0.00000   0.00000   0.00002   0.00000
 180       13F+3        0.00000   0.00000   0.00000   0.00001   0.00000
 181       13F-3       -0.00002  -0.00001   0.00002   0.00000  -0.00001
 182       14F 0       -0.00013   0.00006  -0.00009   0.00000   0.00014
 183       14F+1        0.00000   0.00000   0.00000  -0.00003   0.00000
 184       14F-1        0.00000  -0.00003   0.00014   0.00000   0.00020
 185       14F+2       -0.00007  -0.00001   0.00013   0.00000   0.00030
 186       14F-2        0.00000   0.00000   0.00000  -0.00008   0.00000
 187       14F+3        0.00000   0.00000   0.00000  -0.00004   0.00000
 188       14F-3        0.00012   0.00005  -0.00015   0.00000   0.00000
                           6         7         8         9        10
     Eigenvalues --     2.00000   2.00000   2.00000   1.98612   1.98546
   1 1   C  1S          0.00148   0.58704   0.00016  -0.04808  -0.00001
   2        2S         -0.00001  -0.00556  -0.00003   0.09895   0.00001
   3        3S          0.00006   0.02379   0.00002   0.02060   0.00000
   4        4S          0.00001  -0.00203  -0.00004   0.01129   0.00018
   5        5S          0.00000   0.00065  -0.00007   0.00489   0.00005
   6        6PX         0.00000   0.00000   0.00000   0.00000   0.00000
   7        6PY        -0.00002   0.00001   0.00000  -0.00010   0.03332
   8        6PZ         0.00000  -0.00095   0.00001  -0.02072  -0.00004
   9        7PX         0.00000   0.00000   0.00000   0.00000   0.00000
  10        7PY         0.00072  -0.00001   0.00000  -0.00015   0.02711
  11        7PZ         0.00000   0.00018  -0.00013  -0.02473  -0.00010
  12        8PX         0.00000   0.00000   0.00000   0.00000   0.00000
  13        8PY        -0.00059  -0.00001   0.00000   0.00011  -0.01794
  14        8PZ         0.00001   0.00218   0.00003   0.03657   0.00024
  15        9PX         0.00000   0.00000   0.00000   0.00000   0.00000
  16        9PY         0.00033   0.00000   0.00000   0.00002   0.00139
  17        9PZ         0.00000   0.00028  -0.00003   0.00128   0.00000
  18       10D 0        0.00000   0.00023  -0.00001   0.00308   0.00001
  19       10D+1        0.00000   0.00000   0.00000   0.00000   0.00000
  20       10D-1       -0.00020   0.00000   0.00000  -0.00001  -0.01045
  21       10D+2        0.00000  -0.00051   0.00000  -0.00842   0.00000
  22       10D-2        0.00000   0.00000   0.00000   0.00000   0.00000
  23       11D 0        0.00000  -0.00049  -0.00008   0.00233   0.00001
  24       11D+1        0.00000   0.00000   0.00000   0.00000   0.00000
  25       11D-1       -0.00124   0.00002   0.00000   0.00006  -0.01070
  26       11D+2        0.00000   0.00000  -0.00003  -0.01134  -0.00001
  27       11D-2        0.00000   0.00000   0.00000   0.00000   0.00000
  28       12D 0        0.00000  -0.00014  -0.00002   0.00686   0.00007
  29       12D+1        0.00000   0.00000   0.00000   0.00000   0.00000
  30       12D-1        0.00064   0.00002   0.00000   0.00027   0.01329
  31       12D+2        0.00000   0.00026   0.00000   0.00846   0.00006
  32       12D-2        0.00000   0.00000   0.00000   0.00000   0.00000
  33       13F 0        0.00000   0.00061   0.00001   0.00274   0.00000
  34       13F+1        0.00000   0.00000   0.00000   0.00000   0.00000
  35       13F-1        0.00017   0.00000   0.00000  -0.00002   0.00181
  36       13F+2        0.00000   0.00060   0.00001   0.00521   0.00001
  37       13F-2        0.00000   0.00000   0.00000   0.00000   0.00000
  38       13F+3        0.00000   0.00000   0.00000   0.00000   0.00000
  39       13F-3       -0.00021   0.00000   0.00000   0.00001  -0.00214
  40       14F 0        0.00000   0.00053   0.00003   0.00420   0.00002
  41       14F+1        0.00000   0.00000   0.00000   0.00000   0.00000
  42       14F-1        0.00106  -0.00003   0.00000   0.00013   0.00423
  43       14F+2        0.00000  -0.00025   0.00001   0.00234   0.00001
  44       14F-2        0.00000   0.00000   0.00000   0.00000   0.00000
  45       14F+3        0.00000   0.00000   0.00000   0.00000   0.00000
  46       14F-3        0.00013  -0.00001   0.00000   0.00001   0.00034
  47 2   S  1S          0.00027   0.04651   0.99640   0.00292  -0.00002
  48        2S         -0.00094  -0.16291   0.01318  -0.01167   0.00007
  49        3S          0.00001   0.00050   0.00031   0.02249  -0.00014
  50        4S         -0.00007  -0.01214  -0.00003   0.00241  -0.00002
  51        5S          0.00000   0.00117  -0.00005  -0.01836  -0.00026
  52        6S         -0.00001  -0.00093   0.00005  -0.01149  -0.00012
  53        7PX         0.00000   0.00000   0.00000   0.00000   0.00000
  54        7PY         0.01181  -0.00327  -0.00001  -0.00004  -0.00434
  55        7PZ         0.00168   0.33445   0.00171   0.00758  -0.00004
  56        8PX         0.00000   0.00000   0.00000   0.00000   0.00000
  57        8PY        -0.00034   0.00003   0.00000  -0.00010   0.01612
  58        8PZ        -0.00002  -0.00288  -0.00018  -0.01279   0.00011
  59        9PX         0.00000   0.00000   0.00000   0.00000   0.00000
  60        9PY         0.00073  -0.00022   0.00000   0.00003   0.00663
  61        9PZ         0.00011   0.02235   0.00019  -0.00742   0.00005
  62       10PX         0.00000   0.00000   0.00000   0.00000   0.00000
  63       10PY        -0.00048  -0.00002   0.00000  -0.00055   0.00416
  64       10PZ         0.00000  -0.00018   0.00003   0.00651   0.00016
  65       11PX         0.00000   0.00000   0.00000   0.00000   0.00000
  66       11PY        -0.00018   0.00000   0.00000  -0.00003  -0.00054
  67       11PZ         0.00000   0.00007   0.00000   0.00188   0.00003
  68       12D 0        0.00001   0.00101   0.00008   0.00139   0.00002
  69       12D+1        0.00000   0.00000   0.00000   0.00000   0.00000
  70       12D-1        0.00012  -0.00002   0.00000   0.00013   0.00009
  71       12D+2        0.00000   0.00009  -0.00001  -0.00019   0.00000
  72       12D-2        0.00000   0.00000   0.00000   0.00000   0.00000
  73       13D 0        0.00000  -0.00067   0.00001   0.00257  -0.00001
  74       13D+1        0.00000   0.00000   0.00000   0.00000   0.00000
  75       13D-1       -0.00001   0.00001   0.00000  -0.00002  -0.00034
  76       13D+2        0.00000  -0.00005   0.00001  -0.00001   0.00001
  77       13D-2        0.00000   0.00000   0.00000   0.00000   0.00000
  78       14D 0        0.00000   0.00026  -0.00003  -0.00158   0.00000
  79       14D+1        0.00000   0.00000   0.00000   0.00000   0.00000
  80       14D-1        0.00013   0.00001   0.00000   0.00021   0.00196
  81       14D+2        0.00000  -0.00008   0.00000  -0.00270   0.00002
  82       14D-2        0.00000   0.00000   0.00000   0.00000   0.00000
  83       15F 0        0.00000   0.00035  -0.00002  -0.00045   0.00000
  84       15F+1        0.00000   0.00000   0.00000   0.00000   0.00000
  85       15F-1        0.00000  -0.00001   0.00000  -0.00002   0.00021
  86       15F+2        0.00000   0.00009   0.00000   0.00001   0.00000
  87       15F-2        0.00000   0.00000   0.00000   0.00000   0.00000
  88       15F+3        0.00000   0.00000   0.00000   0.00000   0.00000
  89       15F-3       -0.00001   0.00000   0.00000   0.00000   0.00000
  90       16F 0        0.00000  -0.00050  -0.00001   0.00034  -0.00002
  91       16F+1        0.00000   0.00000   0.00000   0.00000   0.00000
  92       16F-1       -0.00002   0.00001   0.00000  -0.00005  -0.00019
  93       16F+2        0.00000  -0.00009   0.00000   0.00088   0.00001
  94       16F-2        0.00000   0.00000   0.00000   0.00000   0.00000
  95       16F+3        0.00000   0.00000   0.00000   0.00000   0.00000
  96       16F-3        0.00003   0.00000   0.00000  -0.00001   0.00024
  97 3   F  1S         -0.69365   0.48675   0.00014  -0.14669   0.14987
  98        2S          0.01118  -0.00688  -0.00001   0.37505  -0.38353
  99        3S         -0.02988   0.02132   0.00001   0.11430  -0.11754
 100        4S          0.00069   0.00120  -0.00003   0.23467  -0.25346
 101        5S         -0.00067   0.00029   0.00004   0.01823  -0.03164
 102        6PX         0.00000   0.00000   0.00000   0.00000   0.00000
 103        6PY        -0.00144   0.00045   0.00000  -0.00582   0.03769
 104        6PZ        -0.00110   0.00001   0.00000  -0.02183   0.00796
 105        7PX         0.00000   0.00000   0.00000   0.00000   0.00000
 106        7PY         0.00014  -0.00074  -0.00001  -0.00275   0.04115
 107        7PZ        -0.00012  -0.00097  -0.00001  -0.02383   0.00600
 108        8PX         0.00000   0.00000   0.00000   0.00000   0.00000
 109        8PY        -0.00068   0.00056   0.00000  -0.01354   0.03417
 110        8PZ        -0.00153  -0.00062  -0.00004  -0.02913   0.00449
 111        9PX         0.00000   0.00000   0.00000   0.00000   0.00000
 112        9PY        -0.00040   0.00008   0.00001  -0.00177  -0.00111
 113        9PZ        -0.00005  -0.00014   0.00001  -0.00056   0.00043
 114       10D 0        0.00000   0.00001   0.00000  -0.00013  -0.00014
 115       10D+1        0.00000   0.00000   0.00000   0.00000   0.00000
 116       10D-1       -0.00001   0.00005   0.00000   0.00065  -0.00041
 117       10D+2        0.00001  -0.00001   0.00000  -0.00065   0.00009
 118       10D-2        0.00000   0.00000   0.00000   0.00000   0.00000
 119       11D 0       -0.00007  -0.00007   0.00000  -0.00077  -0.00094
 120       11D+1        0.00000   0.00000   0.00000   0.00000   0.00000
 121       11D-1        0.00024  -0.00052  -0.00001   0.00359  -0.00385
 122       11D+2       -0.00017   0.00022   0.00000  -0.00336   0.00194
 123       11D-2        0.00000   0.00000   0.00000   0.00000   0.00000
 124       12D 0       -0.00031  -0.00011   0.00000  -0.00143  -0.00126
 125       12D+1        0.00000   0.00000   0.00000   0.00000   0.00000
 126       12D-1       -0.00038  -0.00029  -0.00002  -0.00531  -0.00002
 127       12D+2        0.00017  -0.00012  -0.00001   0.00182  -0.00126
 128       12D-2        0.00000   0.00000   0.00000   0.00000   0.00000
 129       13F 0        0.00000  -0.00002   0.00000  -0.00034   0.00011
 130       13F+1        0.00000   0.00000   0.00000   0.00000   0.00000
 131       13F-1        0.00001  -0.00001   0.00000   0.00014  -0.00028
 132       13F+2       -0.00001   0.00001   0.00000  -0.00054   0.00031
 133       13F-2        0.00000   0.00000   0.00000   0.00000   0.00000
 134       13F+3        0.00000   0.00000   0.00000   0.00000   0.00000
 135       13F-3       -0.00006   0.00002   0.00000  -0.00042   0.00003
 136       14F 0       -0.00004   0.00020   0.00001  -0.00035   0.00035
 137       14F+1        0.00000   0.00000   0.00000   0.00000   0.00000
 138       14F-1       -0.00003  -0.00020   0.00000  -0.00018  -0.00086
 139       14F+2        0.00000   0.00027   0.00000  -0.00075   0.00096
 140       14F-2        0.00000   0.00000   0.00000   0.00000   0.00000
 141       14F+3        0.00000   0.00000   0.00000   0.00000   0.00000
 142       14F-3        0.00012   0.00004   0.00000  -0.00047   0.00062
 143 4   F  1S          0.69051   0.48673   0.00015  -0.14637  -0.15021
 144        2S         -0.01114  -0.00689  -0.00001   0.37425   0.38442
 145        3S          0.02975   0.02132   0.00001   0.11407   0.11783
 146        4S         -0.00069   0.00125  -0.00003   0.23422   0.25399
 147        5S          0.00067   0.00035   0.00004   0.01873   0.03175
 148        6PX         0.00000   0.00000   0.00000   0.00000   0.00000
 149        6PY        -0.00143  -0.00045   0.00000   0.00571   0.03766
 150        6PZ         0.00109   0.00001   0.00000  -0.02190  -0.00819
 151        7PX         0.00000   0.00000   0.00000   0.00000   0.00000
 152        7PY         0.00014   0.00073   0.00001   0.00262   0.04113
 153        7PZ         0.00012  -0.00097  -0.00001  -0.02390  -0.00627
 154        8PX         0.00000   0.00000   0.00000   0.00000   0.00000
 155        8PY        -0.00067  -0.00061  -0.00001   0.01346   0.03418
 156        8PZ         0.00152  -0.00065  -0.00004  -0.02901  -0.00473
 157        9PX         0.00000   0.00000   0.00000   0.00000   0.00000
 158        9PY        -0.00040  -0.00009  -0.00001   0.00163  -0.00110
 159        9PZ         0.00005  -0.00014   0.00001  -0.00055  -0.00041
 160       10D 0        0.00000   0.00001   0.00000  -0.00013   0.00014
 161       10D+1        0.00000   0.00000   0.00000   0.00000   0.00000
 162       10D-1       -0.00001  -0.00005   0.00000  -0.00064  -0.00041
 163       10D+2       -0.00001  -0.00001   0.00000  -0.00065  -0.00009
 164       10D-2        0.00000   0.00000   0.00000   0.00000   0.00000
 165       11D 0        0.00007  -0.00007   0.00000  -0.00077   0.00094
 166       11D+1        0.00000   0.00000   0.00000   0.00000   0.00000
 167       11D-1        0.00024   0.00052   0.00001  -0.00359  -0.00384
 168       11D+2        0.00017   0.00021   0.00000  -0.00336  -0.00194
 169       11D-2        0.00000   0.00000   0.00000   0.00000   0.00000
 170       12D 0        0.00030  -0.00013  -0.00001  -0.00138   0.00123
 171       12D+1        0.00000   0.00000   0.00000   0.00000   0.00000
 172       12D-1       -0.00038   0.00029   0.00002   0.00526   0.00002
 173       12D+2       -0.00017  -0.00013  -0.00001   0.00185   0.00126
 174       12D-2        0.00000   0.00000   0.00000   0.00000   0.00000
 175       13F 0        0.00000  -0.00002   0.00000  -0.00034  -0.00012
 176       13F+1        0.00000   0.00000   0.00000   0.00000   0.00000
 177       13F-1        0.00001   0.00001   0.00000  -0.00014  -0.00028
 178       13F+2        0.00001   0.00001   0.00000  -0.00054  -0.00031
 179       13F-2        0.00000   0.00000   0.00000   0.00000   0.00000
 180       13F+3        0.00000   0.00000   0.00000   0.00000   0.00000
 181       13F-3       -0.00006  -0.00002   0.00000   0.00042   0.00003
 182       14F 0        0.00004   0.00020   0.00001  -0.00035  -0.00034
 183       14F+1        0.00000   0.00000   0.00000   0.00000   0.00000
 184       14F-1       -0.00003   0.00020   0.00000   0.00018  -0.00085
 185       14F+2        0.00000   0.00027   0.00000  -0.00075  -0.00096
 186       14F-2        0.00000   0.00000   0.00000   0.00000   0.00000
 187       14F+3        0.00000   0.00000   0.00000   0.00000   0.00000
 188       14F-3        0.00012  -0.00004   0.00000   0.00047   0.00062
                          11        12        13        14        15
     Eigenvalues --     1.97415   1.97117   1.97006   1.96730   1.96693
   1 1   C  1S         -0.05546  -0.10227   0.00072   0.00000   0.00000
   2        2S          0.14997   0.27584  -0.00196   0.00000   0.00000
   3        3S          0.03538   0.06787  -0.00045   0.00000   0.00000
   4        4S          0.01895   0.14477  -0.00166   0.00000   0.00000
   5        5S         -0.02048   0.04369  -0.00048   0.00000   0.00000
   6        6PX         0.00000   0.00000   0.00000  -0.00090   0.10236
   7        6PY        -0.00049  -0.00055  -0.05183   0.00000   0.00000
   8        6PZ         0.09084   0.00964  -0.00062   0.00000   0.00000
   9        7PX         0.00000   0.00000   0.00000  -0.00110   0.12543
  10        7PY        -0.00064  -0.00080  -0.07640   0.00000   0.00000
  11        7PZ         0.11660  -0.00378  -0.00054   0.00000   0.00000
  12        8PX         0.00000   0.00000   0.00000  -0.00028   0.00521
  13        8PY         0.00035   0.00037   0.05616   0.00000   0.00000
  14        8PZ        -0.05425   0.03681  -0.00155   0.00000   0.00000
  15        9PX         0.00000   0.00000   0.00000   0.00002  -0.00078
  16        9PY         0.00000  -0.00005  -0.00045   0.00000   0.00000
  17        9PZ        -0.00741   0.01369  -0.00004   0.00000   0.00000
  18       10D 0       -0.00828   0.01912  -0.00010   0.00000   0.00000
  19       10D+1        0.00000   0.00000   0.00000   0.00014  -0.01502
  20       10D-1       -0.00006  -0.00016  -0.00909   0.00000   0.00000
  21       10D+2       -0.00986   0.00281  -0.00002   0.00000   0.00000
  22       10D-2        0.00000   0.00000   0.00000  -0.02020  -0.00018
  23       11D 0       -0.01821   0.03203  -0.00021   0.00000   0.00000
  24       11D+1        0.00000   0.00000   0.00000   0.00019  -0.02486
  25       11D-1       -0.00014  -0.00002  -0.00676   0.00000   0.00000
  26       11D+2       -0.01789   0.00204   0.00004   0.00000   0.00000
  27       11D-2        0.00000   0.00000   0.00000  -0.03259  -0.00027
  28       12D 0       -0.00464  -0.00376  -0.00030   0.00000   0.00000
  29       12D+1        0.00000   0.00000   0.00000  -0.00019  -0.00233
  30       12D-1        0.00032  -0.00014   0.01132   0.00000   0.00000
  31       12D+2        0.00056  -0.00018  -0.00001   0.00000   0.00000
  32       12D-2        0.00000   0.00000   0.00000   0.00883   0.00008
  33       13F 0        0.00838   0.00171  -0.00005   0.00000   0.00000
  34       13F+1        0.00000   0.00000   0.00000  -0.00004   0.00415
  35       13F-1       -0.00006  -0.00001   0.00929   0.00000   0.00000
  36       13F+2        0.00157   0.00282  -0.00003   0.00000   0.00000
  37       13F-2        0.00000   0.00000   0.00000   0.00876   0.00007
  38       13F+3        0.00000   0.00000   0.00000   0.00007  -0.00782
  39       13F-3        0.00001   0.00003   0.00520   0.00000   0.00000
  40       14F 0        0.00656   0.00139  -0.00002   0.00000   0.00000
  41       14F+1        0.00000   0.00000   0.00000  -0.00003  -0.00151
  42       14F-1       -0.00021   0.00004   0.01953   0.00000   0.00000
  43       14F+2        0.00688   0.00240   0.00007   0.00000   0.00000
  44       14F-2        0.00000   0.00000   0.00000   0.00946   0.00005
  45       14F+3        0.00000   0.00000   0.00000   0.00004  -0.00063
  46       14F-3       -0.00007  -0.00005   0.00021   0.00000   0.00000
  47 2   S  1S          0.03174   0.04386  -0.00038   0.00000   0.00000
  48        2S         -0.12373  -0.16828   0.00152   0.00000   0.00000
  49        3S          0.24976   0.35462  -0.00288   0.00000   0.00000
  50        4S          0.03192   0.04486  -0.00036   0.00000   0.00000
  51        5S          0.17446   0.15554  -0.00008   0.00000   0.00000
  52        6S          0.02762  -0.05492   0.00045   0.00000   0.00000
  53        7PX         0.00000   0.00000   0.00000  -0.00012   0.01252
  54        7PY        -0.00014  -0.00027   0.00323   0.00000   0.00000
  55        7PZ         0.02894   0.03487  -0.00023   0.00000   0.00000
  56        8PX         0.00000   0.00000   0.00000   0.00034  -0.03135
  57        8PY         0.00017   0.00020  -0.01962   0.00000   0.00000
  58        8PZ        -0.03337  -0.04125  -0.00009   0.00000   0.00000
  59        9PX         0.00000   0.00000   0.00000   0.00012  -0.01416
  60        9PY         0.00003   0.00020  -0.00150   0.00000   0.00000
  61        9PZ        -0.01840  -0.02386   0.00012   0.00000   0.00000
  62       10PX         0.00000   0.00000   0.00000   0.00047  -0.02722
  63       10PY         0.00011  -0.00029  -0.02353   0.00000   0.00000
  64       10PZ        -0.01472   0.03258  -0.00065   0.00000   0.00000
  65       11PX         0.00000   0.00000   0.00000   0.00003  -0.00412
  66       11PY         0.00006  -0.00007   0.00445   0.00000   0.00000
  67       11PZ        -0.00070   0.00949  -0.00004   0.00000   0.00000
  68       12D 0        0.00551   0.00946   0.00007   0.00000   0.00000
  69       12D+1        0.00000   0.00000   0.00000  -0.00005  -0.00823
  70       12D-1       -0.00013   0.00005   0.02004   0.00000   0.00000
  71       12D+2       -0.00240   0.00192   0.00013   0.00000   0.00000
  72       12D-2        0.00000   0.00000   0.00000  -0.00419   0.00003
  73       13D 0        0.01658   0.01836  -0.00002   0.00000   0.00000
  74       13D+1        0.00000   0.00000   0.00000  -0.00001  -0.00468
  75       13D-1       -0.00010  -0.00021   0.00792   0.00000   0.00000
  76       13D+2       -0.00082   0.00161   0.00000   0.00000   0.00000
  77       13D-2        0.00000   0.00000   0.00000  -0.00128   0.00000
  78       14D 0       -0.00203  -0.01043   0.00016   0.00000   0.00000
  79       14D+1        0.00000   0.00000   0.00000  -0.00011  -0.00275
  80       14D-1        0.00000   0.00021   0.01340   0.00000   0.00000
  81       14D+2       -0.00074  -0.00064   0.00013   0.00000   0.00000
  82       14D-2        0.00000   0.00000   0.00000  -0.00474  -0.00002
  83       15F 0       -0.00516  -0.00699  -0.00003   0.00000   0.00000
  84       15F+1        0.00000   0.00000   0.00000   0.00003   0.00183
  85       15F-1        0.00006   0.00008  -0.00513   0.00000   0.00000
  86       15F+2        0.00073  -0.00062  -0.00004   0.00000   0.00000
  87       15F-2        0.00000   0.00000   0.00000   0.00135   0.00000
  88       15F+3        0.00000   0.00000   0.00000   0.00001  -0.00035
  89       15F-3        0.00000   0.00000   0.00027   0.00000   0.00000
  90       16F 0        0.00681   0.00093   0.00001   0.00000   0.00000
  91       16F+1        0.00000   0.00000   0.00000   0.00001   0.00201
  92       16F-1        0.00002  -0.00008  -0.00190   0.00000   0.00000
  93       16F+2       -0.00042  -0.00052  -0.00009   0.00000   0.00000
  94       16F-2        0.00000   0.00000   0.00000   0.00332  -0.00003
  95       16F+3        0.00000   0.00000   0.00000   0.00003   0.00032
  96       16F-3       -0.00001   0.00001  -0.00037   0.00000   0.00000
  97 3   F  1S          0.00012   0.02762   0.01558   0.00000   0.00000
  98        2S         -0.00194  -0.07786  -0.04065   0.00000   0.00000
  99        3S         -0.00032  -0.02642  -0.01361   0.00000   0.00000
 100        4S         -0.01503  -0.10186  -0.03875   0.00000   0.00000
 101        5S         -0.01597  -0.01874   0.00638   0.00000   0.00000
 102        6PX         0.00000   0.00000   0.00000   0.27359   0.25410
 103        6PY        -0.10904   0.15467  -0.15467   0.00000   0.00000
 104        6PZ         0.18096  -0.06531   0.23069   0.00000   0.00000
 105        7PX         0.00000   0.00000   0.00000   0.33304   0.31000
 106        7PY        -0.13313   0.18536  -0.18781   0.00000   0.00000
 107        7PZ         0.21798  -0.08076   0.27864   0.00000   0.00000
 108        8PX         0.00000   0.00000   0.00000   0.23298   0.21373
 109        8PY        -0.09053   0.10154  -0.14844   0.00000   0.00000
 110        8PZ         0.14839  -0.07574   0.18791   0.00000   0.00000
 111        9PX         0.00000   0.00000   0.00000   0.02715   0.01739
 112        9PY        -0.01255   0.00562  -0.01259   0.00000   0.00000
 113        9PZ         0.01058  -0.01432   0.02320   0.00000   0.00000
 114       10D 0        0.00240  -0.00122   0.00231   0.00000   0.00000
 115       10D+1        0.00000   0.00000   0.00000   0.00172   0.00187
 116       10D-1        0.00145   0.00159   0.00119   0.00000   0.00000
 117       10D+2        0.00132  -0.00236   0.00076   0.00000   0.00000
 118       10D-2        0.00000   0.00000   0.00000   0.00210   0.00301
 119       11D 0        0.00858  -0.00504   0.00856   0.00000   0.00000
 120       11D+1        0.00000   0.00000   0.00000   0.00707   0.00791
 121       11D-1        0.00387   0.00348   0.00420   0.00000   0.00000
 122       11D+2        0.00497  -0.00738   0.00349   0.00000   0.00000
 123       11D-2        0.00000   0.00000   0.00000   0.00948   0.01228
 124       12D 0        0.00574  -0.00316   0.00719   0.00000   0.00000
 125       12D+1        0.00000   0.00000   0.00000   0.00466   0.00432
 126       12D-1        0.00350  -0.00294  -0.00180   0.00000   0.00000
 127       12D+2       -0.00011  -0.00012   0.00886   0.00000   0.00000
 128       12D-2        0.00000   0.00000   0.00000   0.00564   0.00801
 129       13F 0        0.00039  -0.00080   0.00061   0.00000   0.00000
 130       13F+1        0.00000   0.00000   0.00000   0.00027   0.00029
 131       13F-1        0.00169  -0.00043   0.00173   0.00000   0.00000
 132       13F+2       -0.00001  -0.00100  -0.00001   0.00000   0.00000
 133       13F-2        0.00000   0.00000   0.00000   0.00148   0.00167
 134       13F+3        0.00000   0.00000   0.00000  -0.00084  -0.00152
 135       13F-3        0.00075  -0.00087   0.00031   0.00000   0.00000
 136       14F 0        0.00191  -0.00112   0.00067   0.00000   0.00000
 137       14F+1        0.00000   0.00000   0.00000   0.00071   0.00031
 138       14F-1        0.00225  -0.00154   0.00294   0.00000   0.00000
 139       14F+2        0.00030  -0.00092  -0.00023   0.00000   0.00000
 140       14F-2        0.00000   0.00000   0.00000   0.00265   0.00298
 141       14F+3        0.00000   0.00000   0.00000  -0.00255  -0.00213
 142       14F-3        0.00041  -0.00126   0.00154   0.00000   0.00000
 143 4   F  1S         -0.00012   0.02732  -0.01587   0.00000   0.00000
 144        2S         -0.00128  -0.07706   0.04148   0.00000   0.00000
 145        3S         -0.00011  -0.02616   0.01389   0.00000   0.00000
 146        4S         -0.01437  -0.10094   0.03978   0.00000   0.00000
 147        5S         -0.01568  -0.01919  -0.00692   0.00000   0.00000
 148        6PX         0.00000   0.00000   0.00000  -0.27823   0.24909
 149        6PY         0.10898  -0.15652  -0.15377   0.00000   0.00000
 150        6PZ         0.17971  -0.06794  -0.23012   0.00000   0.00000
 151        7PX         0.00000   0.00000   0.00000  -0.33870   0.30390
 152        7PY         0.13303  -0.18764  -0.18677   0.00000   0.00000
 153        7PZ         0.21648  -0.08392  -0.27794   0.00000   0.00000
 154        8PX         0.00000   0.00000   0.00000  -0.23675   0.20933
 155        8PY         0.09002  -0.10358  -0.14786   0.00000   0.00000
 156        8PZ         0.14698  -0.07781  -0.18691   0.00000   0.00000
 157        9PX         0.00000   0.00000   0.00000  -0.02753   0.01684
 158        9PY         0.01246  -0.00566  -0.01239   0.00000   0.00000
 159        9PZ         0.01034  -0.01453  -0.02334   0.00000   0.00000
 160       10D 0        0.00240  -0.00125  -0.00231   0.00000   0.00000
 161       10D+1        0.00000   0.00000   0.00000  -0.00176   0.00184
 162       10D-1       -0.00143  -0.00158   0.00120   0.00000   0.00000
 163       10D+2        0.00133  -0.00237  -0.00074   0.00000   0.00000
 164       10D-2        0.00000   0.00000   0.00000   0.00215  -0.00298
 165       11D 0        0.00851  -0.00519  -0.00855   0.00000   0.00000
 166       11D+1        0.00000   0.00000   0.00000  -0.00723   0.00778
 167       11D-1       -0.00380  -0.00344   0.00419   0.00000   0.00000
 168       11D+2        0.00496  -0.00744  -0.00346   0.00000   0.00000
 169       11D-2        0.00000   0.00000   0.00000   0.00969  -0.01210
 170       12D 0        0.00553  -0.00332  -0.00710   0.00000   0.00000
 171       12D+1        0.00000   0.00000   0.00000  -0.00473   0.00425
 172       12D-1       -0.00346   0.00287  -0.00194   0.00000   0.00000
 173       12D+2       -0.00023  -0.00032  -0.00887   0.00000   0.00000
 174       12D-2        0.00000   0.00000   0.00000   0.00575  -0.00787
 175       13F 0        0.00039  -0.00081  -0.00061   0.00000   0.00000
 176       13F+1        0.00000   0.00000   0.00000  -0.00028   0.00029
 177       13F-1       -0.00168   0.00045   0.00173   0.00000   0.00000
 178       13F+2        0.00000  -0.00100   0.00001   0.00000   0.00000
 179       13F-2        0.00000   0.00000   0.00000   0.00151  -0.00165
 180       13F+3        0.00000   0.00000   0.00000   0.00087  -0.00150
 181       13F-3       -0.00075   0.00088   0.00031   0.00000   0.00000
 182       14F 0        0.00190  -0.00115  -0.00068   0.00000   0.00000
 183       14F+1        0.00000   0.00000   0.00000  -0.00072   0.00030
 184       14F-1       -0.00220   0.00160   0.00292   0.00000   0.00000
 185       14F+2        0.00030  -0.00092   0.00021   0.00000   0.00000
 186       14F-2        0.00000   0.00000   0.00000   0.00272  -0.00293
 187       14F+3        0.00000   0.00000   0.00000   0.00258  -0.00208
 188       14F-3       -0.00039   0.00128   0.00153   0.00000   0.00000
                          16        17        18        19        20
     Eigenvalues --     1.96289   1.95899   1.94248   1.93934   1.91706
   1 1   C  1S         -0.08196  -0.00022   0.07740  -0.00051   0.00000
   2        2S          0.21469   0.00059  -0.23047   0.00151   0.00000
   3        3S          0.05601   0.00014  -0.05925   0.00035   0.00000
   4        4S          0.09601   0.00049  -0.16599   0.00184   0.00000
   5        5S         -0.02007  -0.00007  -0.02283   0.00071   0.00000
   6        6PX         0.00000   0.00000   0.00000   0.00000   0.18188
   7        6PY        -0.00003   0.19221   0.00038   0.03390   0.00000
   8        6PZ        -0.13684   0.00001  -0.18047   0.00116   0.00000
   9        7PX         0.00000   0.00000   0.00000   0.00000   0.25479
  10        7PY        -0.00002   0.23365   0.00057   0.04834   0.00000
  11        7PZ        -0.17111  -0.00007  -0.22300   0.00141   0.00000
  12        8PX         0.00000   0.00000   0.00000   0.00000   0.13720
  13        8PY        -0.00040   0.05674  -0.00001   0.04958   0.00000
  14        8PZ        -0.01454   0.00005  -0.06785   0.00115   0.00000
  15        9PX         0.00000   0.00000   0.00000   0.00000   0.02111
  16        9PY        -0.00004  -0.00003  -0.00001  -0.00356   0.00000
  17        9PZ        -0.00551  -0.00001  -0.00566   0.00001   0.00000
  18       10D 0       -0.00723  -0.00003  -0.01003   0.00014   0.00000
  19       10D+1        0.00000   0.00000   0.00000   0.00000   0.01559
  20       10D-1        0.00011  -0.02652   0.00024   0.02079   0.00000
  21       10D+2       -0.01484  -0.00004  -0.00772   0.00009   0.00000
  22       10D-2        0.00000   0.00000   0.00000   0.00000  -0.00007
  23       11D 0       -0.01875  -0.00002  -0.01803   0.00029   0.00000
  24       11D+1        0.00000   0.00000   0.00000   0.00000   0.04767
  25       11D-1        0.00006  -0.05784   0.00026   0.05102   0.00000
  26       11D+2       -0.03588  -0.00009  -0.01945   0.00012   0.00000
  27       11D-2        0.00000   0.00000   0.00000   0.00000  -0.00018
  28       12D 0        0.00253   0.00009  -0.00600   0.00016   0.00000
  29       12D+1        0.00000   0.00000   0.00000   0.00000   0.01867
  30       12D-1       -0.00013  -0.00381   0.00012  -0.02358   0.00000
  31       12D+2        0.00430   0.00006  -0.00247  -0.00012   0.00000
  32       12D-2        0.00000   0.00000   0.00000   0.00000  -0.00007
  33       13F 0        0.00209   0.00005  -0.00394   0.00012   0.00000
  34       13F+1        0.00000   0.00000   0.00000   0.00000   0.00670
  35       13F-1       -0.00001   0.00781   0.00011   0.00703   0.00000
  36       13F+2        0.00539   0.00005   0.00175   0.00008   0.00000
  37       13F-2        0.00000   0.00000   0.00000   0.00000  -0.00009
  38       13F+3        0.00000   0.00000   0.00000   0.00000   0.00043
  39       13F-3        0.00000  -0.00254   0.00001   0.00205   0.00000
  40       14F 0        0.01003   0.00005   0.00132   0.00011   0.00000
  41       14F+1        0.00000   0.00000   0.00000   0.00000   0.00053
  42       14F-1        0.00006   0.01879   0.00051  -0.00020   0.00000
  43       14F+2        0.01082   0.00008   0.00040   0.00004   0.00000
  44       14F-2        0.00000   0.00000   0.00000   0.00000   0.00000
  45       14F+3        0.00000   0.00000   0.00000   0.00000   0.00397
  46       14F-3        0.00004  -0.00214   0.00018   0.00043   0.00000
  47 2   S  1S         -0.03642   0.00001   0.02961  -0.00022   0.00000
  48        2S          0.13889  -0.00004  -0.11363   0.00083   0.00000
  49        3S         -0.30055   0.00015   0.26149  -0.00199   0.00000
  50        4S         -0.04135   0.00002   0.03772  -0.00030   0.00000
  51        5S         -0.18842   0.00014   0.32662  -0.00300   0.00000
  52        6S          0.01543   0.00012   0.05491  -0.00060   0.00000
  53        7PX         0.00000   0.00000   0.00000   0.00000  -0.18868
  54        7PY         0.00014  -0.01420  -0.00006  -0.21583   0.00000
  55        7PZ        -0.00949  -0.00026  -0.17382  -0.00068   0.00000
  56        8PX         0.00000   0.00000   0.00000   0.00000   0.43251
  57        8PY        -0.00027   0.02865   0.00038   0.52213   0.00000
  58        8PZ         0.00588   0.00050   0.35954   0.00212   0.00000
  59        9PX         0.00000   0.00000   0.00000   0.00000   0.17760
  60        9PY        -0.00010   0.01457   0.00020   0.21973   0.00000
  61        9PZ         0.00483   0.00024   0.16460   0.00081   0.00000
  62       10PX         0.00000   0.00000   0.00000   0.00000   0.23795
  63       10PY         0.00022   0.00411   0.00149   0.36961   0.00000
  64       10PZ         0.00194   0.00005   0.09584   0.00257   0.00000
  65       11PX         0.00000   0.00000   0.00000   0.00000   0.00060
  66       11PY         0.00010   0.00056   0.00025   0.02711   0.00000
  67       11PZ        -0.00298  -0.00003  -0.00447   0.00028   0.00000
  68       12D 0       -0.00047  -0.00009  -0.02725   0.00004   0.00000
  69       12D+1        0.00000   0.00000   0.00000   0.00000  -0.03390
  70       12D-1        0.00004  -0.00519   0.00048  -0.01320   0.00000
  71       12D+2       -0.00150  -0.00006  -0.00083  -0.00010   0.00000
  72       12D-2        0.00000   0.00000   0.00000   0.00000   0.00020
  73       13D 0       -0.00632  -0.00017  -0.04844   0.00009   0.00000
  74       13D+1        0.00000   0.00000   0.00000   0.00000  -0.03415
  75       13D-1        0.00016  -0.00874   0.00058  -0.01489   0.00000
  76       13D+2       -0.00098  -0.00006  -0.00095  -0.00011   0.00000
  77       13D-2        0.00000   0.00000   0.00000   0.00000   0.00023
  78       14D 0        0.00138   0.00003   0.00514  -0.00021   0.00000
  79       14D+1        0.00000   0.00000   0.00000   0.00000  -0.00473
  80       14D-1       -0.00017   0.00192  -0.00011  -0.01769   0.00000
  81       14D+2       -0.00081  -0.00002  -0.00194  -0.00015   0.00000
  82       14D-2        0.00000   0.00000   0.00000   0.00000   0.00003
  83       15F 0        0.00395   0.00007   0.01571   0.00006   0.00000
  84       15F+1        0.00000   0.00000   0.00000   0.00000   0.01205
  85       15F-1       -0.00009   0.00316  -0.00028   0.00818   0.00000
  86       15F+2        0.00019   0.00003   0.00214   0.00011   0.00000
  87       15F-2        0.00000   0.00000   0.00000   0.00000  -0.00015
  88       15F+3        0.00000   0.00000   0.00000   0.00000   0.00241
  89       15F-3        0.00000   0.00010  -0.00001   0.00263   0.00000
  90       16F 0       -0.00186  -0.00002  -0.00538   0.00006   0.00000
  91       16F+1        0.00000   0.00000   0.00000   0.00000  -0.00064
  92       16F-1        0.00009  -0.00062   0.00007   0.00225   0.00000
  93       16F+2        0.00069   0.00004   0.00080   0.00007   0.00000
  94       16F-2        0.00000   0.00000   0.00000   0.00000  -0.00001
  95       16F+3        0.00000   0.00000   0.00000   0.00000   0.00187
  96       16F-3       -0.00002   0.00141   0.00000   0.00237   0.00000
  97 3   F  1S          0.00643   0.00870  -0.01352  -0.01568   0.00000
  98        2S         -0.02508  -0.01360   0.03752   0.04279   0.00000
  99        3S         -0.01171   0.00000   0.01086   0.01345   0.00000
 100        4S         -0.09906   0.07884   0.02057   0.03693   0.00000
 101        5S         -0.02142   0.03557  -0.00560   0.05523   0.00000
 102        6PX         0.00000   0.00000   0.00000   0.00000  -0.05368
 103        6PY         0.11762  -0.21800   0.02829   0.01951   0.00000
 104        6PZ         0.16360  -0.10547   0.06417   0.05248   0.00000
 105        7PX         0.00000   0.00000   0.00000   0.00000  -0.06493
 106        7PY         0.14220  -0.26454   0.03607   0.02585   0.00000
 107        7PZ         0.19796  -0.12849   0.07963   0.06502   0.00000
 108        8PX         0.00000   0.00000   0.00000   0.00000  -0.06102
 109        8PY         0.05939  -0.14276   0.01637   0.00852   0.00000
 110        8PZ         0.10704  -0.06504   0.05310   0.05260   0.00000
 111        9PX         0.00000   0.00000   0.00000   0.00000  -0.02573
 112        9PY        -0.00456  -0.00869   0.00008   0.01489   0.00000
 113        9PZ         0.00824   0.00440   0.01095   0.01812   0.00000
 114       10D 0       -0.00001  -0.00036  -0.00067  -0.00038   0.00000
 115       10D+1        0.00000   0.00000   0.00000   0.00000   0.00109
 116       10D-1        0.00422  -0.00482   0.00051   0.00043   0.00000
 117       10D+2       -0.00284   0.00291  -0.00098  -0.00021   0.00000
 118       10D-2        0.00000   0.00000   0.00000   0.00000   0.00111
 119       11D 0       -0.00025  -0.00210  -0.00226  -0.00228   0.00000
 120       11D+1        0.00000   0.00000   0.00000   0.00000   0.00388
 121       11D-1        0.01414  -0.01659   0.00308   0.00203   0.00000
 122       11D+2       -0.00929   0.00954  -0.00357  -0.00202   0.00000
 123       11D-2        0.00000   0.00000   0.00000   0.00000   0.00305
 124       12D 0       -0.00176  -0.00490  -0.00359  -0.00049   0.00000
 125       12D+1        0.00000   0.00000   0.00000   0.00000   0.00214
 126       12D-1       -0.00002  -0.00379  -0.00251  -0.00172   0.00000
 127       12D+2       -0.00186   0.00107  -0.00025   0.00228   0.00000
 128       12D-2        0.00000   0.00000   0.00000   0.00000   0.00375
 129       13F 0       -0.00112   0.00119  -0.00036  -0.00027   0.00000
 130       13F+1        0.00000   0.00000   0.00000   0.00000   0.00024
 131       13F-1        0.00107  -0.00117  -0.00007   0.00010   0.00000
 132       13F+2       -0.00193   0.00225  -0.00049  -0.00028   0.00000
 133       13F-2        0.00000   0.00000   0.00000   0.00000   0.00054
 134       13F+3        0.00000   0.00000   0.00000   0.00000  -0.00036
 135       13F-3       -0.00106   0.00095  -0.00056  -0.00009   0.00000
 136       14F 0       -0.00158   0.00122  -0.00135  -0.00092   0.00000
 137       14F+1        0.00000   0.00000   0.00000   0.00000   0.00051
 138       14F-1        0.00093  -0.00315  -0.00003  -0.00067   0.00000
 139       14F+2       -0.00312   0.00341  -0.00137  -0.00031   0.00000
 140       14F-2        0.00000   0.00000   0.00000   0.00000   0.00057
 141       14F+3        0.00000   0.00000   0.00000   0.00000  -0.00020
 142       14F-3       -0.00156   0.00179  -0.00027  -0.00054   0.00000
 143 4   F  1S          0.00654  -0.00872  -0.01330   0.01567   0.00000
 144        2S         -0.02538   0.01360   0.03690  -0.04276   0.00000
 145        3S         -0.01180   0.00000   0.01067  -0.01341   0.00000
 146        4S         -0.09920  -0.07931   0.01978  -0.03691   0.00000
 147        5S         -0.02138  -0.03566  -0.00551  -0.05483   0.00000
 148        6PX         0.00000   0.00000   0.00000   0.00000  -0.05348
 149        6PY        -0.11652  -0.21813  -0.02760   0.01995   0.00000
 150        6PZ         0.16386   0.10645   0.06353  -0.05278   0.00000
 151        7PX         0.00000   0.00000   0.00000   0.00000  -0.06470
 152        7PY        -0.14084  -0.26465  -0.03516   0.02648   0.00000
 153        7PZ         0.19826   0.12965   0.07883  -0.06544   0.00000
 154        8PX         0.00000   0.00000   0.00000   0.00000  -0.06071
 155        8PY        -0.05825  -0.14260  -0.01500   0.00885   0.00000
 156        8PZ         0.10737   0.06571   0.05308  -0.05294   0.00000
 157        9PX         0.00000   0.00000   0.00000   0.00000  -0.02562
 158        9PY         0.00469  -0.00859  -0.00004   0.01483   0.00000
 159        9PZ         0.00828  -0.00433   0.01070  -0.01778   0.00000
 160       10D 0        0.00000   0.00037  -0.00067   0.00038   0.00000
 161       10D+1        0.00000   0.00000   0.00000   0.00000   0.00108
 162       10D-1       -0.00421  -0.00484  -0.00050   0.00043   0.00000
 163       10D+2       -0.00283  -0.00291  -0.00097   0.00022   0.00000
 164       10D-2        0.00000   0.00000   0.00000   0.00000  -0.00112
 165       11D 0       -0.00019   0.00215  -0.00216   0.00227   0.00000
 166       11D+1        0.00000   0.00000   0.00000   0.00000   0.00386
 167       11D-1       -0.01411  -0.01663  -0.00306   0.00207   0.00000
 168       11D+2       -0.00925  -0.00953  -0.00351   0.00208   0.00000
 169       11D-2        0.00000   0.00000   0.00000   0.00000  -0.00303
 170       12D 0       -0.00165   0.00493  -0.00319   0.00043   0.00000
 171       12D+1        0.00000   0.00000   0.00000   0.00000   0.00213
 172       12D-1        0.00005  -0.00379   0.00249  -0.00173   0.00000
 173       12D+2       -0.00175  -0.00105   0.00004  -0.00232   0.00000
 174       12D-2        0.00000   0.00000   0.00000   0.00000  -0.00377
 175       13F 0       -0.00112  -0.00119  -0.00036   0.00027   0.00000
 176       13F+1        0.00000   0.00000   0.00000   0.00000   0.00024
 177       13F-1       -0.00108  -0.00118   0.00007   0.00010   0.00000
 178       13F+2       -0.00193  -0.00225  -0.00049   0.00029   0.00000
 179       13F-2        0.00000   0.00000   0.00000   0.00000  -0.00054
 180       13F+3        0.00000   0.00000   0.00000   0.00000  -0.00036
 181       13F-3        0.00106   0.00095   0.00055  -0.00010   0.00000
 182       14F 0       -0.00156  -0.00120  -0.00131   0.00093   0.00000
 183       14F+1        0.00000   0.00000   0.00000   0.00000   0.00051
 184       14F-1       -0.00095  -0.00316  -0.00003  -0.00066   0.00000
 185       14F+2       -0.00310  -0.00341  -0.00133   0.00032   0.00000
 186       14F-2        0.00000   0.00000   0.00000   0.00000  -0.00055
 187       14F+3        0.00000   0.00000   0.00000   0.00000  -0.00018
 188       14F-3        0.00155   0.00179   0.00024  -0.00052   0.00000
                          21        22        23        24        25
     Eigenvalues --     0.07402   0.04119   0.03930   0.03212   0.01913
   1 1   C  1S          0.00000   0.17631   0.00540  -0.03548   0.03244
   2        2S          0.00000  -0.60077  -0.01853   0.09688  -0.09440
   3        3S          0.00000  -0.21352  -0.00654  -0.00945  -0.04062
   4        4S          0.00000  -0.64316  -0.01633  -0.04179   0.08155
   5        5S          0.00000  -0.12232  -0.00311  -0.02914   0.09776
   6        6PX         0.31818   0.00000   0.00000   0.00000   0.00000
   7        6PY         0.00000  -0.00875   0.30432   0.00209  -0.00145
   8        6PZ         0.00000  -0.04742   0.00085  -0.37168   0.05456
   9        7PX         0.44550   0.00000   0.00000   0.00000   0.00000
  10        7PY         0.00000  -0.01679   0.58586   0.00405  -0.00150
  11        7PZ         0.00000  -0.04893   0.00219  -0.66855   0.05767
  12        8PX         0.15480   0.00000   0.00000   0.00000   0.00000
  13        8PY         0.00000  -0.00111   0.10566   0.00287  -0.00362
  14        8PZ         0.00000  -0.21617  -0.00598  -0.27460   0.30430
  15        9PX         0.00799   0.00000   0.00000   0.00000   0.00000
  16        9PY         0.00000  -0.00026   0.01571  -0.00014   0.00013
  17        9PZ         0.00000  -0.00776  -0.00017   0.00500   0.03364
  18       10D 0        0.00000  -0.00135   0.00006  -0.00948   0.05680
  19       10D+1        0.01627   0.00000   0.00000   0.00000   0.00000
  20       10D-1        0.00000  -0.00091   0.03014   0.00023   0.00016
  21       10D+2        0.00000  -0.00934  -0.00014  -0.00339   0.04695
  22       10D-2       -0.00005   0.00000   0.00000   0.00000   0.00000
  23       11D 0        0.00000  -0.04393   0.00004  -0.07384   0.15440
  24       11D+1        0.07198   0.00000   0.00000   0.00000   0.00000
  25       11D-1        0.00000   0.00267  -0.06258   0.00103   0.00073
  26       11D+2        0.00000   0.02861   0.00147  -0.06704   0.14331
  27       11D-2       -0.00017   0.00000   0.00000   0.00000   0.00000
  28       12D 0        0.00000  -0.05321  -0.00159  -0.02371   0.01600
  29       12D+1        0.02797   0.00000   0.00000   0.00000   0.00000
  30       12D-1        0.00000   0.00212  -0.03002  -0.00107  -0.00031
  31       12D+2        0.00000   0.00703  -0.00013  -0.02065   0.02383
  32       12D-2       -0.00013   0.00000   0.00000   0.00000   0.00000
  33       13F 0        0.00000  -0.00777   0.00008  -0.01366  -0.00185
  34       13F+1        0.01186   0.00000   0.00000   0.00000   0.00000
  35       13F-1        0.00000  -0.00089   0.03327   0.00043  -0.00025
  36       13F+2        0.00000  -0.02214  -0.00051   0.02138   0.01244
  37       13F-2       -0.00011   0.00000   0.00000   0.00000   0.00000
  38       13F+3       -0.00129   0.00000   0.00000   0.00000   0.00000
  39       13F-3        0.00000   0.00038  -0.01167  -0.00007  -0.00015
  40       14F 0        0.00000  -0.02552  -0.00034   0.00935  -0.02519
  41       14F+1        0.02836   0.00000   0.00000   0.00000   0.00000
  42       14F-1        0.00000  -0.00456   0.11567   0.00150  -0.00246
  43       14F+2        0.00000  -0.01532  -0.00007   0.04159  -0.02690
  44       14F-2       -0.00044   0.00000   0.00000   0.00000   0.00000
  45       14F+3        0.00935   0.00000   0.00000   0.00000   0.00000
  46       14F-3        0.00000  -0.00123   0.02811   0.00008  -0.00039
  47 2   S  1S          0.00000   0.02069   0.00057   0.01271   0.01054
  48        2S          0.00000  -0.05608  -0.00155  -0.02875  -0.05259
  49        3S          0.00000   0.21705   0.00616   0.14138   0.09121
  50        4S          0.00000   0.00871   0.00063  -0.02717   0.08157
  51        5S          0.00000   0.51787   0.01318   0.52416  -0.38407
  52        6S          0.00000   0.15620   0.00427   0.12901  -0.17825
  53        7PX         0.18326   0.00000   0.00000   0.00000   0.00000
  54        7PY         0.00000  -0.00445   0.10424  -0.00025  -0.00024
  55        7PZ         0.00000   0.18214   0.00542   0.09398   0.03037
  56        8PX        -0.48797   0.00000   0.00000   0.00000   0.00000
  57        8PY         0.00000   0.01410  -0.29311   0.00108   0.00117
  58        8PZ         0.00000  -0.60353  -0.01738  -0.47524   0.02640
  59        9PX        -0.20100   0.00000   0.00000   0.00000   0.00000
  60        9PY         0.00000   0.00551  -0.14126   0.00007   0.00034
  61        9PZ         0.00000  -0.19829  -0.00625  -0.08848  -0.04459
  62       10PX        -0.12687   0.00000   0.00000   0.00000   0.00000
  63       10PY         0.00000   0.00050   0.03878   0.00306  -0.00190
  64       10PZ         0.00000  -0.31820  -0.00803  -0.35182   0.19678
  65       11PX        -0.00355   0.00000   0.00000   0.00000   0.00000
  66       11PY         0.00000   0.00004  -0.00208   0.00027  -0.00068
  67       11PZ         0.00000  -0.02195  -0.00064  -0.02371   0.02217
  68       12D 0        0.00000  -0.07381  -0.00492  -0.05094   0.11384
  69       12D+1       -0.05890   0.00000   0.00000   0.00000   0.00000
  70       12D-1        0.00000   0.00599  -0.18677   0.00063  -0.00748
  71       12D+2        0.00000  -0.04540  -0.00259  -0.02521   0.40638
  72       12D-2        0.00045   0.00000   0.00000   0.00000   0.00000
  73       13D 0        0.00000  -0.09811  -0.00496  -0.13909   0.10913
  74       13D+1       -0.07005   0.00000   0.00000   0.00000   0.00000
  75       13D-1        0.00000   0.00572  -0.15670   0.00105  -0.00557
  76       13D+2        0.00000  -0.03184  -0.00203  -0.01431   0.28887
  77       13D-2        0.00045   0.00000   0.00000   0.00000   0.00000
  78       14D 0        0.00000   0.03913   0.00058   0.06996  -0.03285
  79       14D+1        0.01260   0.00000   0.00000   0.00000   0.00000
  80       14D-1        0.00000   0.00092  -0.03362  -0.00113   0.00026
  81       14D+2        0.00000  -0.00864  -0.00046  -0.00354   0.02620
  82       14D-2       -0.00008   0.00000   0.00000   0.00000   0.00000
  83       15F 0        0.00000   0.01808   0.00108   0.02281  -0.02377
  84       15F+1        0.01921   0.00000   0.00000   0.00000   0.00000
  85       15F-1        0.00000  -0.00119   0.03162  -0.00052   0.00111
  86       15F+2        0.00000   0.00274   0.00040   0.00279  -0.03409
  87       15F-2       -0.00018   0.00000   0.00000   0.00000   0.00000
  88       15F+3       -0.00369   0.00000   0.00000   0.00000   0.00000
  89       15F-3        0.00000   0.00005  -0.00162  -0.00007   0.00026
  90       16F 0        0.00000   0.00629   0.00040  -0.02722  -0.01165
[...]
  93       16F+2       -0.02483  -0.00076   0.04824   0.00000  -0.00017
  94       16F-2        0.00000   0.00000   0.00000   0.00463   0.00000
  95       16F+3        0.00000   0.00000   0.00000  -0.04405   0.00000
  96       16F-3       -0.01361  -0.07228   0.00046   0.00000   0.00320
  97 3   F  1S         -0.09557   0.00282  -0.04727   0.00000  -0.09034
  98        2S         -0.40205  -0.02907  -0.20358   0.00000  -0.42388
  99        3S          0.10667  -0.04616   0.05146   0.00000   0.05313
 100        4S          3.37269   0.59465   0.83351   0.00000   3.29498
 101        5S          6.86146   0.84328   7.03443   0.00000  17.36008
 102        6PX         0.00000   0.00000   0.00000   0.01981   0.00000
 103        6PY        -0.00026   0.01177   0.00479   0.00000   0.01287
 104        6PZ        -0.01709   0.00627   0.00213   0.00000   0.00537
 105        7PX         0.00000   0.00000   0.00000  -0.07478   0.00000
 106        7PY         0.06143  -0.07059  -0.04247   0.00000  -0.05243
 107        7PZ         0.12723  -0.04813  -0.01998   0.00000  -0.01570
 108        8PX         0.00000   0.00000   0.00000   0.07968   0.00000
 109        8PY         1.34331   0.91075   0.30146   0.00000   2.57931
 110        8PZ        -0.35502   1.17597  -0.00185   0.00000   0.82424
 111        9PX         0.00000   0.00000   0.00000  -1.15163   0.00000
 112        9PY         0.27980  -1.67021   0.73763   0.00000   4.95041
 113        9PZ        -1.53492   0.34173   4.73274   0.00000   1.72986
 114       10D 0       -0.01221  -0.00721   0.00124   0.00000  -0.00245
 115       10D+1        0.00000   0.00000   0.00000  -0.01452   0.00000
 116       10D-1        0.00014  -0.00618   0.02663   0.00000   0.00018
 117       10D+2        0.03874   0.01912   0.00525   0.00000  -0.00340
 118       10D-2        0.00000   0.00000   0.00000  -0.00448   0.00000
 119       11D 0        0.02753   0.01872   0.00072   0.00000   0.00672
 120       11D+1        0.00000   0.00000   0.00000   0.05441   0.00000
 121       11D-1        0.01948   0.04406  -0.09376   0.00000   0.03328
 122       11D+2       -0.15587  -0.06640  -0.01174   0.00000  -0.01889
 123       11D-2        0.00000   0.00000   0.00000   0.01702   0.00000
 124       12D 0       -0.55701   0.14875  -0.11994   0.00000  -0.44097
 125       12D+1        0.00000   0.00000   0.00000  -0.17919   0.00000
 126       12D-1        0.22193   0.36243   0.10894   0.00000   0.44168
 127       12D+2        0.28042  -0.10890  -0.00617   0.00000  -0.50985
 128       12D-2        0.00000   0.00000   0.00000  -0.09495   0.00000
 129       13F 0        0.02230   0.01732   0.00374   0.00000   0.00996
 130       13F+1        0.00000   0.00000   0.00000  -0.00956   0.00000
 131       13F-1       -0.00468  -0.01615   0.02701   0.00000   0.00969
 132       13F+2        0.02741   0.01581  -0.02205   0.00000   0.00306
 133       13F-2        0.00000   0.00000   0.00000   0.00881   0.00000
 134       13F+3        0.00000   0.00000   0.00000  -0.00013   0.00000
 135       13F-3       -0.03056   0.02015   0.00803   0.00000  -0.00517
 136       14F 0       -0.09342  -0.04950  -0.00560   0.00000  -0.06517
 137       14F+1        0.00000   0.00000   0.00000   0.01514   0.00000
 138       14F-1       -0.01596   0.05906  -0.05487   0.00000  -0.02588
 139       14F+2       -0.07197  -0.06981   0.04001   0.00000  -0.05476
 140       14F-2        0.00000   0.00000   0.00000  -0.00979   0.00000
 141       14F+3        0.00000   0.00000   0.00000  -0.00023   0.00000
 142       14F-3        0.07840  -0.05960  -0.01989   0.00000  -0.02210
 143 4   F  1S         -0.02083  -0.00383  -0.04779   0.00000   0.08922
 144        2S         -0.10080   0.02525  -0.20905   0.00000   0.41823
 145        3S          0.00620   0.04787   0.04855   0.00000  -0.05299
 146        4S          0.24860  -0.57181   0.90754   0.00000  -3.23661
 147        5S         -5.28207  -0.40482   7.30759   0.00000 -17.14341
 148        6PX         0.00000   0.00000   0.00000   0.01997   0.00000
 149        6PY         0.00477   0.01159  -0.00574   0.00000   0.01247
 150        6PZ         0.02398  -0.00615   0.00312   0.00000  -0.00529
 151        7PX         0.00000   0.00000   0.00000  -0.07531   0.00000
 152        7PY         0.01059  -0.06907   0.04798   0.00000  -0.05054
 153        7PZ        -0.16117   0.04811  -0.02653   0.00000   0.01489
 154        8PX         0.00000   0.00000   0.00000   0.07442   0.00000
 155        8PY        -0.08037   0.92647  -0.37851   0.00000   2.53483
 156        8PZ         2.92931  -1.21026   0.11338   0.00000  -0.77863
 157        9PX         0.00000   0.00000   0.00000  -1.16041   0.00000
 158        9PY        -0.40712  -1.70777  -0.74091   0.00000   4.90990
 159        9PZ         1.87769  -0.06483   4.81474   0.00000  -1.63286
 160       10D 0        0.02171   0.00650   0.00092   0.00000   0.00309
 161       10D+1        0.00000   0.00000   0.00000  -0.01484   0.00000
 162       10D-1       -0.01527  -0.00779  -0.02635   0.00000   0.00007
 163       10D+2       -0.05277  -0.01853   0.00555   0.00000   0.00305
 164       10D-2        0.00000   0.00000   0.00000   0.00445   0.00000
 165       11D 0       -0.06667  -0.01561   0.00163   0.00000  -0.00872
 166       11D+1        0.00000   0.00000   0.00000   0.05531   0.00000
 167       11D-1        0.03937   0.04978   0.09120   0.00000   0.03320
 168       11D+2        0.18179   0.06543  -0.01310   0.00000   0.01967
 169       11D-2        0.00000   0.00000   0.00000  -0.01691   0.00000
 170       12D 0        0.95436  -0.16694  -0.10599   0.00000   0.45302
 171       12D+1        0.00000   0.00000   0.00000  -0.18423   0.00000
 172       12D-1       -0.85844   0.37355  -0.13581   0.00000   0.42440
 173       12D+2       -0.37948   0.11825  -0.02164   0.00000   0.50439
 174       12D-2        0.00000   0.00000   0.00000   0.09929   0.00000
 175       13F 0        0.00821  -0.01723   0.00489   0.00000  -0.01001
 176       13F+1        0.00000   0.00000   0.00000  -0.00960   0.00000
 177       13F-1        0.00496  -0.01769  -0.02658   0.00000   0.00964
 178       13F+2       -0.02726  -0.01737  -0.02212   0.00000  -0.00344
 179       13F-2        0.00000   0.00000   0.00000  -0.00897   0.00000
 180       13F+3        0.00000   0.00000   0.00000  -0.00045   0.00000
 181       13F-3       -0.00511   0.01958  -0.00928   0.00000  -0.00469
 182       14F 0       -0.00465   0.04974  -0.00866   0.00000   0.06536
 183       14F+1        0.00000   0.00000   0.00000   0.01504   0.00000
 184       14F-1       -0.07817   0.06257   0.05239   0.00000  -0.02705
 185       14F+2        0.01415   0.07406   0.03758   0.00000   0.05455
 186       14F-2        0.00000   0.00000   0.00000   0.01065   0.00000
 187       14F+3        0.00000   0.00000   0.00000   0.00069   0.00000
 188       14F-3        0.02149  -0.05909   0.02404   0.00000  -0.02294
                         186       187       188
     Eigenvalues --     0.00000   0.00000   0.00000
   1 1   C  1S         -0.07331  -0.06786   0.00548
   2        2S         -0.35498  -0.36937  -0.01497
   3        3S          0.23858   0.15773  -0.01418
   4        4S        -13.06680 -14.91045 -13.55679
   5        5S         -4.57972  -9.49379 -21.60174
   6        6PX         0.00000   0.00000   0.00000
   7        6PY         0.00014  -0.00001  -0.00013
   8        6PZ        -0.01314   0.00205  -0.00976
   9        7PX         0.00000   0.00000   0.00000
  10        7PY        -0.00494  -0.00554   0.00021
  11        7PZ         0.74132   0.39744   0.27765
  12        8PX         0.00000   0.00000   0.00000
  13        8PY        -0.01696  -0.03158   0.05763
  14        8PZ         1.90594  -2.55043  -7.36829
  15        9PX         0.00000   0.00000   0.00000
  16        9PY        -0.01171   0.04106   0.03410
  17        9PZ         3.82615  -3.30611  -4.20431
  18       10D 0        0.01838   0.01325   0.01200
  19       10D+1        0.00000   0.00000   0.00000
  20       10D-1        0.00024  -0.00028   0.00009
  21       10D+2       -0.03298   0.01414   0.03525
  22       10D-2        0.00000   0.00000   0.00000
  23       11D 0        0.04539  -0.63288  -0.23417
  24       11D+1        0.00000   0.00000   0.00000
  25       11D-1       -0.00017   0.01758  -0.00010
  26       11D+2        1.15962   0.57254   0.10584
  27       11D-2        0.00000   0.00000   0.00000
  28       12D 0       -0.94179  -1.55166  -1.53008
  29       12D+1        0.00000   0.00000   0.00000
  30       12D-1        0.00288   0.09081  -0.00203
  31       12D+2        0.71637   0.86516   0.31111
  32       12D-2        0.00000   0.00000   0.00000
  33       13F 0       -0.05571  -0.02773  -0.00822
  34       13F+1        0.00000   0.00000   0.00000
  35       13F-1        0.00050  -0.00001  -0.00009
  36       13F+2       -0.06528  -0.04261  -0.01378
  37       13F-2        0.00000   0.00000   0.00000
  38       13F+3        0.00000   0.00000   0.00000
  39       13F-3        0.00006   0.00078   0.00027
  40       14F 0       -0.67911  -0.31009  -0.12808
  41       14F+1        0.00000   0.00000   0.00000
  42       14F-1        0.01019   0.00268   0.00603
  43       14F+2       -0.40950  -0.08544   0.02841
  44       14F-2        0.00000   0.00000   0.00000
  45       14F+3        0.00000   0.00000   0.00000
  46       14F-3        0.00390  -0.00118  -0.00030
  47 2   S  1S          0.00858  -0.00215  -0.00686
  48        2S          0.13161  -0.02194  -0.07987
  49        3S          0.37600  -0.09121  -0.28259
  50        4S         -0.03729  -0.10765  -0.09544
  51        5S          2.48393   7.58775   7.22802
  52        6S          0.37112   5.86193  23.36933
  53        7PX         0.00000   0.00000   0.00000
  54        7PY         0.00025   0.00036  -0.00008
  55        7PZ        -0.02624  -0.04838   0.00020
  56        8PX         0.00000   0.00000   0.00000
  57        8PY         0.00551   0.00891  -0.00137
  58        8PZ        -0.63029  -1.17621  -0.12387
  59        9PX         0.00000   0.00000   0.00000
  60        9PY        -0.00055  -0.00096   0.00027
  61        9PZ         0.03870   0.12814  -0.02092
  62       10PX         0.00000   0.00000   0.00000
  63       10PY         0.01306  -0.02504   0.06880
  64       10PZ        -1.51324  -4.16227  -9.49156
  65       11PX         0.00000   0.00000   0.00000
  66       11PY        -0.00274  -0.02715   0.02896
  67       11PZ        -1.53706   1.59761  -4.97303
  68       12D 0        0.09432   1.04257   0.43735
  69       12D+1        0.00000   0.00000   0.00000
  70       12D-1       -0.00470  -0.01051  -0.00368
  71       12D+2        0.09872  -0.05224  -0.01771
  72       12D-2        0.00000   0.00000   0.00000
  73       13D 0        0.05334  -0.08449  -0.02039
  74       13D+1        0.00000   0.00000   0.00000
  75       13D-1        0.00007   0.00132   0.00031
  76       13D+2       -0.01953   0.00667   0.00148
  77       13D-2        0.00000   0.00000   0.00000
  78       14D 0        0.72906  -0.38785   2.70543
  79       14D+1        0.00000   0.00000   0.00000
  80       14D-1       -0.00425   0.02800  -0.03319
  81       14D+2       -0.28183   0.02842  -0.05431
  82       14D-2        0.00000   0.00000   0.00000
  83       15F 0       -0.01198  -0.06104   0.03560
  84       15F+1        0.00000   0.00000   0.00000
  85       15F-1        0.00045   0.00064  -0.00057
  86       15F+2       -0.01896   0.01532   0.00155
  87       15F-2        0.00000   0.00000   0.00000
  88       15F+3        0.00000   0.00000   0.00000
  89       15F-3       -0.00008   0.00022  -0.00005
  90       16F 0       -0.05830  -0.03907  -0.31187
  91       16F+1        0.00000   0.00000   0.00000
  92       16F-1        0.00079  -0.00102   0.00468
  93       16F+2        0.04525  -0.00800   0.01938
  94       16F-2        0.00000   0.00000   0.00000
  95       16F+3        0.00000   0.00000   0.00000
  96       16F-3       -0.00015  -0.00077  -0.00010
  97 3   F  1S         -0.02400  -0.03256   0.00287
  98        2S         -0.13851  -0.17013   0.00241
  99        3S         -0.01841   0.00000  -0.01546
 100        4S          2.48306   1.44843   0.14171
 101        5S          5.75690   5.61571   1.90263
 102        6PX         0.00000   0.00000   0.00000
 103        6PY         0.00125   0.01092   0.00241
 104        6PZ         0.01040   0.00313   0.00179
 105        7PX         0.00000   0.00000   0.00000
 106        7PY         0.00743  -0.06175  -0.01803
 107        7PZ        -0.02941  -0.03053  -0.02384
 108        8PX         0.00000   0.00000   0.00000
 109        8PY         1.39133   1.37605   0.41130
 110        8PZ         1.62077   1.02113   0.48894
 111        9PX         0.00000   0.00000   0.00000
 112        9PY         1.05639   0.62837  -0.02822
 113        9PZ        -0.91845   1.34556  -0.22695
 114       10D 0       -0.01962   0.00909  -0.00102
 115       10D+1        0.00000   0.00000   0.00000
 116       10D-1       -0.01241  -0.00393   0.00025
 117       10D+2        0.00105  -0.00211   0.00823
 118       10D-2        0.00000   0.00000   0.00000
 119       11D 0        0.07420  -0.04004  -0.00292
 120       11D+1        0.00000   0.00000   0.00000
 121       11D-1        0.08357   0.02663   0.00308
 122       11D+2       -0.01743  -0.00803  -0.02866
 123       11D-2        0.00000   0.00000   0.00000
 124       12D 0        0.01291   0.14122   0.03441
 125       12D+1        0.00000   0.00000   0.00000
 126       12D-1        0.40848   0.38020   0.23377
 127       12D+2       -0.07042  -0.25732  -0.06741
 128       12D-2        0.00000   0.00000   0.00000
 129       13F 0        0.00498   0.00702   0.00735
 130       13F+1        0.00000   0.00000   0.00000
 131       13F-1       -0.01575  -0.00238  -0.00656
 132       13F+2        0.00745   0.00410   0.01455
 133       13F-2        0.00000   0.00000   0.00000
 134       13F+3        0.00000   0.00000   0.00000
 135       13F-3       -0.02180  -0.00062   0.00740
 136       14F 0       -0.03109  -0.02723  -0.02961
 137       14F+1        0.00000   0.00000   0.00000
 138       14F-1        0.07303   0.01683   0.01596
 139       14F+2       -0.04735  -0.04370  -0.04774
 140       14F-2        0.00000   0.00000   0.00000
 141       14F+3        0.00000   0.00000   0.00000
 142       14F-3        0.04654  -0.01814  -0.02325
 143 4   F  1S         -0.02418  -0.03422   0.00314
 144        2S         -0.13965  -0.17761   0.00367
 145        3S         -0.01857   0.00133  -0.01566
 146        4S          2.48540   1.49515   0.12279
 147        5S          5.81266   5.93480   1.86784
 148        6PX         0.00000   0.00000   0.00000
 149        6PY        -0.00145  -0.01110  -0.00236
 150        6PZ         0.01044   0.00299   0.00179
 151        7PX         0.00000   0.00000   0.00000
 152        7PY        -0.00641   0.06223   0.01800
 153        7PZ        -0.03025  -0.02947  -0.02393
 154        8PX         0.00000   0.00000   0.00000
 155        8PY        -1.38647  -1.40502  -0.40324
 156        8PZ         1.64521   1.03419   0.49346
 157        9PX         0.00000   0.00000   0.00000
 158        9PY        -1.04938  -0.73734   0.03430
 159        9PZ        -0.90264   1.37136  -0.21454
 160       10D 0       -0.01957   0.00923  -0.00091
 161       10D+1        0.00000   0.00000   0.00000
 162       10D-1        0.01244   0.00387  -0.00022
 163       10D+2        0.00123  -0.00223   0.00817
 164       10D-2        0.00000   0.00000   0.00000
 165       11D 0        0.07416  -0.04025  -0.00326
 166       11D+1        0.00000   0.00000   0.00000
 167       11D-1       -0.08377  -0.02681  -0.00316
 168       11D+2       -0.01799  -0.00810  -0.02835
 169       11D-2        0.00000   0.00000   0.00000
 170       12D 0        0.02510   0.13909   0.03952
 171       12D+1        0.00000   0.00000   0.00000
 172       12D-1       -0.41318  -0.38923  -0.23577
 173       12D+2       -0.06565  -0.26086  -0.06728
 174       12D-2        0.00000   0.00000   0.00000
 175       13F 0        0.00468   0.00703   0.00749
 176       13F+1        0.00000   0.00000   0.00000
 177       13F-1        0.01614   0.00244   0.00670
 178       13F+2        0.00762   0.00403   0.01448
 179       13F-2        0.00000   0.00000   0.00000
 180       13F+3        0.00000   0.00000   0.00000
 181       13F-3        0.02176   0.00131  -0.00737
 182       14F 0       -0.03001  -0.02784  -0.02974
 183       14F+1        0.00000   0.00000   0.00000
 184       14F-1       -0.07482  -0.01717  -0.01656
 185       14F+2       -0.04779  -0.04395  -0.04768
 186       14F-2        0.00000   0.00000   0.00000
 187       14F+3        0.00000   0.00000   0.00000
 188       14F-3       -0.04660   0.01696   0.02327
          Condensed to atoms (all electrons):
              1          2          3          4
     1  C    5.194510   0.242982   0.110571   0.110492
     2  S    0.242982  15.949613  -0.067180  -0.065930
     3  F    0.110571  -0.067180   9.179251  -0.081392
     4  F    0.110492  -0.065930  -0.081392   9.177541
 Mulliken atomic charges:
              1
     1  C    0.341445
     2  S   -0.059485
     3  F   -0.141250
     4  F   -0.140710
 Sum of Mulliken atomic charges =   0.00000
 Mulliken charges with hydrogens summed into heavy atoms:
              1
     1  C    0.341445
     2  S   -0.059485
     3  F   -0.141250
     4  F   -0.140710
 Sum of Mulliken charges with hydrogens summed into heavy atoms =   0.00000
 Electronic spatial extent (au):  <R**2>=            315.2061
 Charge=              0.0000 electrons
 Dipole moment (field-independent basis, Debye):
    X=              0.0000    Y=              0.0053    Z=             -0.2245  Tot=              0.2245
 Quadrupole moment (field-independent basis, Debye-Ang):
   XX=            -27.2811   YY=            -30.1542   ZZ=            -27.9401
   XY=              0.0000   XZ=              0.0000   YZ=             -0.0297
 Traceless Quadrupole moment (field-independent basis, Debye-Ang):
   XX=              1.1774   YY=             -1.6957   ZZ=              0.5183
   XY=              0.0000   XZ=              0.0000   YZ=             -0.0297
 Octapole moment (field-independent basis, Debye-Ang**2):
  XXX=              0.0000  YYY=              0.4236  ZZZ=              8.7833  XYY=              0.0000
  XXY=              0.1258  XXZ=              0.7521  XZZ=              0.0000  YZZ=              0.0816
  YYZ=              0.8026  XYZ=              0.0000
 Hexadecapole moment (field-independent basis, Debye-Ang**3):
 XXXX=            -28.1330 YYYY=            -96.1753 ZZZZ=           -215.0444 XXXY=              0.0000
 XXXZ=              0.0000 YYYX=              0.0000 YYYZ=              0.4163 ZZZX=              0.0000
 ZZZY=              0.2298 XXYY=            -20.7189 XXZZ=            -40.5193 YYZZ=            -55.6372
 XXYZ=              0.1200 YYXZ=              0.0000 ZZXY=              0.0000
 N-N= 1.543920173853D+02 E-N=-1.820104457368D+03  KE= 6.349952732133D+02
 1\1\GINC-TRAPISTA\SP\RQCISD-FC\Aug-CC-pVTZ\C1F2S1\BRUNS\27-Nov-2021\0\
 \# qcisd/aug-cc-pvtz nosymm density=current output=wfn\\f2cs-wavefunct
 ion\\0,1\C,0,0.,0.,-0.520349\S,0,0.,-0.01,1.078525\F,0,0.,-1.055221,-1
 .295538\F,0,0.,1.055221,-1.295538\\Version=EM64L-G09RevB.01\HF=-634.35
 68609\MP2=-635.1963969\MP3=-635.1997824\MP4D=-635.2167081\MP4DQ=-635.1
 973551\MP4SDQ=-635.2082129\QCISD=-635.2073156\RMSD=6.744e-09\Dipole=0.
 ,0.0020907,-0.0883066\Quadrupole=0.8753343,-1.260711,0.3853767,0.,0.,-
 0.0220456\PG=CS [SG(C1F2S1)]\\@

 Writing a WFN file to GAUSSIAN.wfn.


 You don't have to suffer to be a poet.
 Adolescence is enough suffering for anyone.
                             -- John Ciardi
 Job cpu time:  0 days  2 hours 11 minutes  9.2 seconds.
 File lengths (MBytes):  RWF=  17813 Int=      0 D2E=      0 Chk=      3 Scr=      1
 Normal termination of Gaussian 09 at Sat Nov 27 05:20:40 2021.
