 f2cs-wavefunction
GAUSSIAN            188 MOL ORBITALS    330 PRIMITIVES        4 NUCLEI
  C    1    (CENTRE  1)   0.00000000  0.00000000 -0.98331710  CHARGE =  6.0
  S    2    (CENTRE  2)  -0.01889726  0.00000000  2.03811688  CHARGE = 16.0
  F    3    (CENTRE  3)   0.00000000 -1.99407870 -2.44821201  CHARGE =  9.0
  F    4    (CENTRE  4)   0.00000000  1.99407870 -2.44821201  CHARGE =  9.0
CENTRE ASSIGNMENTS    1  1  1  1  1  1  1  1  1  1  1  1  1  1  1  1  1  1  1  1
CENTRE ASSIGNMENTS    1  1  1  1  1  1  1  1  1  1  1  1  1  1  1  1  1  1  1  1
CENTRE ASSIGNMENTS    1  1  1  1  1  1  1  1  1  1  1  1  1  1  1  1  1  1  1  1
CENTRE ASSIGNMENTS    1  1  1  1  1  1  1  1  1  1  1  1  2  2  2  2  2  2  2  2
CENTRE ASSIGNMENTS    2  2  2  2  2  2  2  2  2  2  2  2  2  2  2  2  2  2  2  2
CENTRE ASSIGNMENTS    2  2  2  2  2  2  2  2  2  2  2  2  2  2  2  2  2  2  2  2
CENTRE ASSIGNMENTS    2  2  2  2  2  2  2  2  2  2  2  2  2  2  2  2  2  2  2  2
CENTRE ASSIGNMENTS    2  2  2  2  2  2  2  2  2  2  2  2  2  2  2  2  2  2  2  2
CENTRE ASSIGNMENTS    2  2  2  2  2  2  2  2  2  2  2  2  2  2  2  2  2  2  2  2
CENTRE ASSIGNMENTS    2  2  2  2  2  2  3  3  3  3  3  3  3  3  3  3  3  3  3  3
CENTRE ASSIGNMENTS    3  3  3  3  3  3  3  3  3  3  3  3  3  3  3  3  3  3  3  3
CENTRE ASSIGNMENTS    3  3  3  3  3  3  3  3  3  3  3  3  3  3  3  3  3  3  3  3
CENTRE ASSIGNMENTS    3  3  3  3  3  3  3  3  3  3  3  3  3  3  3  3  3  3  4  4
CENTRE ASSIGNMENTS    4  4  4  4  4  4  4  4  4  4  4  4  4  4  4  4  4  4  4  4
CENTRE ASSIGNMENTS    4  4  4  4  4  4  4  4  4  4  4  4  4  4  4  4  4  4  4  4
CENTRE ASSIGNMENTS    4  4  4  4  4  4  4  4  4  4  4  4  4  4  4  4  4  4  4  4
CENTRE ASSIGNMENTS    4  4  4  4  4  4  4  4  4  4
TYPE ASSIGNMENTS      1  1  1  1  1  1  1  1  1  1  1  1  1  1  1  1  2  2  2  3
TYPE ASSIGNMENTS      3  3  4  4  4  2  3  4  2  3  4  2  3  4  5  6  7  8  9 10
TYPE ASSIGNMENTS      5  6  7  8  9 10  5  6  7  8  9 10 11 12 13 17 14 15 18 19
TYPE ASSIGNMENTS     16 20 11 12 13 17 14 15 18 19 16 20  1  1  1  1  1  1  1  1
TYPE ASSIGNMENTS      1  1  1  1  1  1  1  1  1  1  1  1  1  1  1  1  1  1  1  1
TYPE ASSIGNMENTS      1  1  1  2  2  2  2  2  2  3  3  3  3  3  3  4  4  4  4  4
TYPE ASSIGNMENTS      4  2  2  2  2  2  2  3  3  3  3  3  3  4  4  4  4  4  4  2
TYPE ASSIGNMENTS      3  4  2  3  4  2  3  4  5  6  7  8  9 10  5  6  7  8  9 10
TYPE ASSIGNMENTS      5  6  7  8  9 10 11 12 13 17 14 15 18 19 16 20 11 12 13 17
TYPE ASSIGNMENTS     14 15 18 19 16 20  1  1  1  1  1  1  1  1  1  1  1  1  1  1
TYPE ASSIGNMENTS      1  1  2  2  2  3  3  3  4  4  4  2  3  4  2  3  4  2  3  4
TYPE ASSIGNMENTS      5  6  7  8  9 10  5  6  7  8  9 10  5  6  7  8  9 10 11 12
TYPE ASSIGNMENTS     13 17 14 15 18 19 16 20 11 12 13 17 14 15 18 19 16 20  1  1
TYPE ASSIGNMENTS      1  1  1  1  1  1  1  1  1  1  1  1  1  1  2  2  2  3  3  3
TYPE ASSIGNMENTS      4  4  4  2  3  4  2  3  4  2  3  4  5  6  7  8  9 10  5  6
TYPE ASSIGNMENTS      7  8  9 10  5  6  7  8  9 10 11 12 13 17 14 15 18 19 16 20
TYPE ASSIGNMENTS     11 12 13 17 14 15 18 19 16 20
EXPONENTS  0.8236000D+04 0.1235000D+04 0.2808000D+03 0.7927000D+02 0.2559000D+02
EXPONENTS  0.8997000D+01 0.3319000D+01 0.2808000D+03 0.7927000D+02 0.2559000D+02
EXPONENTS  0.8997000D+01 0.3319000D+01 0.3643000D+00 0.9059000D+00 0.1285000D+00
EXPONENTS  0.4402000D-01 0.1871000D+02 0.4133000D+01 0.1200000D+01 0.1871000D+02
EXPONENTS  0.4133000D+01 0.1200000D+01 0.1871000D+02 0.4133000D+01 0.1200000D+01
EXPONENTS  0.3827000D+00 0.3827000D+00 0.3827000D+00 0.1209000D+00 0.1209000D+00
EXPONENTS  0.1209000D+00 0.3569000D-01 0.3569000D-01 0.3569000D-01 0.1097000D+01
EXPONENTS  0.1097000D+01 0.1097000D+01 0.1097000D+01 0.1097000D+01 0.1097000D+01
EXPONENTS  0.3180000D+00 0.3180000D+00 0.3180000D+00 0.3180000D+00 0.3180000D+00
EXPONENTS  0.3180000D+00 0.1000000D+00 0.1000000D+00 0.1000000D+00 0.1000000D+00
EXPONENTS  0.1000000D+00 0.1000000D+00 0.7610000D+00 0.7610000D+00 0.7610000D+00
EXPONENTS  0.7610000D+00 0.7610000D+00 0.7610000D+00 0.7610000D+00 0.7610000D+00
EXPONENTS  0.7610000D+00 0.7610000D+00 0.2680000D+00 0.2680000D+00 0.2680000D+00
EXPONENTS  0.2680000D+00 0.2680000D+00 0.2680000D+00 0.2680000D+00 0.2680000D+00
EXPONENTS  0.2680000D+00 0.2680000D+00 0.3741000D+06 0.5605000D+05 0.1276000D+05
EXPONENTS  0.3615000D+04 0.1183000D+04 0.4288000D+03 0.1678000D+03 0.6947000D+02
EXPONENTS  0.2984000D+02 0.1272000D+02 0.5244000D+01 0.3615000D+04 0.1183000D+04
EXPONENTS  0.4288000D+03 0.1678000D+03 0.6947000D+02 0.2984000D+02 0.1272000D+02
EXPONENTS  0.5244000D+01 0.2219000D+01 0.1183000D+04 0.1678000D+03 0.6947000D+02
EXPONENTS  0.2984000D+02 0.1272000D+02 0.5244000D+01 0.2219000D+01 0.3490000D+00
EXPONENTS  0.7767000D+00 0.1322000D+00 0.4970000D-01 0.5744000D+03 0.1358000D+03
EXPONENTS  0.4319000D+02 0.1587000D+02 0.6208000D+01 0.2483000D+01 0.5744000D+03
EXPONENTS  0.1358000D+03 0.4319000D+02 0.1587000D+02 0.6208000D+01 0.2483000D+01
EXPONENTS  0.5744000D+03 0.1358000D+03 0.4319000D+02 0.1587000D+02 0.6208000D+01
EXPONENTS  0.2483000D+01 0.1358000D+03 0.4319000D+02 0.1587000D+02 0.6208000D+01
EXPONENTS  0.2483000D+01 0.3229000D+00 0.1358000D+03 0.4319000D+02 0.1587000D+02
EXPONENTS  0.6208000D+01 0.2483000D+01 0.3229000D+00 0.1358000D+03 0.4319000D+02
EXPONENTS  0.1587000D+02 0.6208000D+01 0.2483000D+01 0.3229000D+00 0.8688000D+00
EXPONENTS  0.8688000D+00 0.8688000D+00 0.1098000D+00 0.1098000D+00 0.1098000D+00
EXPONENTS  0.3510000D-01 0.3510000D-01 0.3510000D-01 0.2690000D+00 0.2690000D+00
EXPONENTS  0.2690000D+00 0.2690000D+00 0.2690000D+00 0.2690000D+00 0.8190000D+00
EXPONENTS  0.8190000D+00 0.8190000D+00 0.8190000D+00 0.8190000D+00 0.8190000D+00
EXPONENTS  0.1010000D+00 0.1010000D+00 0.1010000D+00 0.1010000D+00 0.1010000D+00
EXPONENTS  0.1010000D+00 0.5570000D+00 0.5570000D+00 0.5570000D+00 0.5570000D+00
EXPONENTS  0.5570000D+00 0.5570000D+00 0.5570000D+00 0.5570000D+00 0.5570000D+00
EXPONENTS  0.5570000D+00 0.2180000D+00 0.2180000D+00 0.2180000D+00 0.2180000D+00
EXPONENTS  0.2180000D+00 0.2180000D+00 0.2180000D+00 0.2180000D+00 0.2180000D+00
EXPONENTS  0.2180000D+00 0.1950000D+05 0.2923000D+04 0.6645000D+03 0.1875000D+03
EXPONENTS  0.6062000D+02 0.2142000D+02 0.7950000D+01 0.6645000D+03 0.1875000D+03
EXPONENTS  0.6062000D+02 0.2142000D+02 0.7950000D+01 0.8815000D+00 0.2257000D+01
EXPONENTS  0.3041000D+00 0.9158000D-01 0.4388000D+02 0.9926000D+01 0.2930000D+01
EXPONENTS  0.4388000D+02 0.9926000D+01 0.2930000D+01 0.4388000D+02 0.9926000D+01
EXPONENTS  0.2930000D+01 0.9132000D+00 0.9132000D+00 0.9132000D+00 0.2672000D+00
EXPONENTS  0.2672000D+00 0.2672000D+00 0.7361000D-01 0.7361000D-01 0.7361000D-01
EXPONENTS  0.3107000D+01 0.3107000D+01 0.3107000D+01 0.3107000D+01 0.3107000D+01
EXPONENTS  0.3107000D+01 0.8550000D+00 0.8550000D+00 0.8550000D+00 0.8550000D+00
EXPONENTS  0.8550000D+00 0.8550000D+00 0.2920000D+00 0.2920000D+00 0.2920000D+00
EXPONENTS  0.2920000D+00 0.2920000D+00 0.2920000D+00 0.1917000D+01 0.1917000D+01
EXPONENTS  0.1917000D+01 0.1917000D+01 0.1917000D+01 0.1917000D+01 0.1917000D+01
EXPONENTS  0.1917000D+01 0.1917000D+01 0.1917000D+01 0.7240000D+00 0.7240000D+00
EXPONENTS  0.7240000D+00 0.7240000D+00 0.7240000D+00 0.7240000D+00 0.7240000D+00
EXPONENTS  0.7240000D+00 0.7240000D+00 0.7240000D+00 0.1950000D+05 0.2923000D+04
EXPONENTS  0.6645000D+03 0.1875000D+03 0.6062000D+02 0.2142000D+02 0.7950000D+01
EXPONENTS  0.6645000D+03 0.1875000D+03 0.6062000D+02 0.2142000D+02 0.7950000D+01
EXPONENTS  0.8815000D+00 0.2257000D+01 0.3041000D+00 0.9158000D-01 0.4388000D+02
EXPONENTS  0.9926000D+01 0.2930000D+01 0.4388000D+02 0.9926000D+01 0.2930000D+01
EXPONENTS  0.4388000D+02 0.9926000D+01 0.2930000D+01 0.9132000D+00 0.9132000D+00
EXPONENTS  0.9132000D+00 0.2672000D+00 0.2672000D+00 0.2672000D+00 0.7361000D-01
EXPONENTS  0.7361000D-01 0.7361000D-01 0.3107000D+01 0.3107000D+01 0.3107000D+01
EXPONENTS  0.3107000D+01 0.3107000D+01 0.3107000D+01 0.8550000D+00 0.8550000D+00
EXPONENTS  0.8550000D+00 0.8550000D+00 0.8550000D+00 0.8550000D+00 0.2920000D+00
EXPONENTS  0.2920000D+00 0.2920000D+00 0.2920000D+00 0.2920000D+00 0.2920000D+00
EXPONENTS  0.1917000D+01 0.1917000D+01 0.1917000D+01 0.1917000D+01 0.1917000D+01
EXPONENTS  0.1917000D+01 0.1917000D+01 0.1917000D+01 0.1917000D+01 0.1917000D+01
EXPONENTS  0.7240000D+00 0.7240000D+00 0.7240000D+00 0.7240000D+00 0.7240000D+00
EXPONENTS  0.7240000D+00 0.7240000D+00 0.7240000D+00 0.7240000D+00 0.7240000D+00
MO    1     MO 0.0        OCC NO =    2.0000305  ORB. ENERGY =    0.000000
  0.70150729D-11  0.13077509D-10  0.22102772D-10  0.33224589D-10  0.40810457D-10
  0.34442586D-10  0.12951312D-10  0.35791432D-15  0.26751878D-14  0.99977877D-14
  0.27892271D-13  0.37367953D-13 -0.44124585D-13  0.62953360D-12 -0.22255783D-12
 -0.12032489D-13  0.60089341D-13  0.56337577D-13  0.40115711D-13 -0.30464936D-02
 -0.28562814D-02 -0.20338425D-02  0.19732703D-12  0.18500663D-12  0.13173574D-12
  0.96227709D-14 -0.15632868D-02  0.24034587D-13  0.48355484D-14  0.61051672D-03
 -0.11370130D-12 -0.72489389D-16 -0.13553859D-04  0.99470859D-15 -0.26186929D-13
  0.41425196D-14  0.22044409D-13  0.64877504D-05  0.72462861D-14 -0.10195899D-02
  0.34146045D-13 -0.94386730D-14 -0.24707372D-13 -0.64362217D-06  0.41108085D-14
  0.39725565D-03  0.26430200D-14  0.79190932D-14 -0.10562113D-13  0.43646399D-06
  0.20796420D-14 -0.22587120D-03  0.98328768D-15  0.24075999D-03  0.20444424D-13
 -0.22564155D-14  0.35909576D-03 -0.47056870D-13 -0.69344753D-15 -0.10813757D-02
 -0.14276402D-13  0.11242981D-04  0.28027278D-15 -0.13715645D-03 -0.19531603D-14
 -0.29654173D-15 -0.12875493D-03 -0.21199798D-14 -0.54427661D-15  0.54022427D-03
  0.79794606D-14 -0.70947638D-05  0.11462701D-10  0.21430674D-10  0.37038575D-10
  0.59908368D-10  0.90549494D-10  0.12470540D-09  0.14576543D-09  0.12598034D-09
  0.58795680D-10  0.79655245D-11 -0.58260994D-13 -0.45719898D-13 -0.58772469D-12
 -0.21439352D-11 -0.72335842D-11 -0.15888197D-10 -0.20523216D-10  0.32982555D-11
  0.27668443D-10  0.15184085D-10 -0.62750450D-15 -0.71476663D-14 -0.14841132D-13
 -0.40809344D-13  0.52914001D-14  0.18452127D-12  0.46022535D-12 -0.38096788D-12
  0.74755132D-12  0.25480149D-12  0.18103759D-13 -0.12118805D-09 -0.15899183D-09
 -0.17437962D-09 -0.14347430D-09 -0.75631494D-10 -0.19677892D-10  0.97653940D+01
  0.12811642D+02  0.14051598D+02  0.11561232D+02  0.60944239D+01  0.15856545D+01
  0.73753053D-09  0.96759811D-09  0.10612457D-08  0.87316101D-09  0.46028084D-09
  0.11975642D-09 -0.67178237D-15 -0.24114052D-13 -0.38257548D-13 -0.45429665D-13
 -0.68747057D-14  0.50032820D-13  0.94742528D-04  0.34008428D-02  0.53955224D-02
  0.64070173D-02  0.96955060D-03 -0.70562076D-02  0.58834571D-14  0.21119040D-12
  0.33505887D-12  0.39787213D-12  0.60208541D-13 -0.43818648D-12 -0.91515826D-12
  0.67603142D-01  0.56447682D-11 -0.42675537D-14 -0.37958507D-03 -0.85827428D-13
  0.18005832D-15 -0.71090467D-05 -0.10528787D-14 -0.24693487D-13 -0.24301368D-13
  0.48994855D-13 -0.67063147D-05 -0.26801582D-14  0.96169640D-03  0.29073208D-13
  0.13568511D-13 -0.42641719D-13  0.48705538D-05 -0.71224565D-15 -0.55551219D-03
 -0.15878147D-14 -0.30038079D-14  0.45916226D-14  0.55301209D-06  0.12021528D-14
 -0.42007771D-04 -0.68417555D-15  0.35007094D-04  0.11107240D-14  0.10521340D-14
  0.10983796D-03  0.85187025D-14  0.10003927D-14 -0.21485924D-03 -0.11850874D-13
  0.55126088D-05  0.20398220D-15  0.34765830D-04 -0.33047722D-14 -0.60266715D-16
  0.16374558D-04  0.25431296D-14 -0.55167989D-15 -0.12067205D-03  0.73711871D-14
  0.15375381D-05  0.50725851D-02  0.94553074D-02  0.16028852D-01  0.24269850D-01
  0.30342658D-01  0.26100127D-01  0.10009961D-01 -0.65357435D-06 -0.86521006D-05
 -0.31426004D-04 -0.93224648D-04 -0.10742258D-03  0.13048072D-03  0.58776591D-03
  0.87241918D-04  0.85327430D-03  0.36129270D-05  0.35333637D-05  0.23346428D-05
 -0.13027220D-02 -0.12740337D-02 -0.84180794D-03 -0.39045300D-02 -0.38185451D-02
 -0.25230742D-02 -0.18663190D-06 -0.38872334D-03 -0.10831061D-02  0.43466177D-05
 -0.14820755D-03 -0.74744550D-03  0.88828612D-07  0.92213332D-04  0.11396951D-04
  0.24120287D-04  0.27373704D-04 -0.51493991D-04  0.10213226D-05  0.37347334D-06
  0.26330895D-03 -0.54405111D-04 -0.13266843D-03  0.18707355D-03 -0.98953980D-06
 -0.17650822D-05 -0.14917372D-03  0.11022282D-03 -0.21478161D-04 -0.88744661D-04
  0.19780256D-05  0.99006999D-07 -0.27900082D-03 -0.62288690D-06 -0.27196167D-04
 -0.54608107D-04 -0.24631276D-05 -0.33129893D-03  0.20171878D-04  0.43317883D-05
  0.41288743D-03  0.14365244D-03 -0.38212812D-05  0.67470408D-06 -0.63296693D-04
  0.95227151D-04  0.49094926D-06  0.19971434D-03 -0.42101997D-04 -0.25150615D-05
 -0.98242619D-05 -0.24357946D-03 -0.36724622D-06 -0.50725852D-02 -0.94553074D-02
 -0.16028853D-01 -0.24269851D-01 -0.30342659D-01 -0.26100128D-01 -0.10009961D-01
  0.65357435D-06  0.86521006D-05  0.31426004D-04  0.93224647D-04  0.10742258D-03
 -0.13048072D-03 -0.58776591D-03 -0.87241918D-04 -0.85327430D-03 -0.36129270D-05
 -0.35333637D-05 -0.23346428D-05 -0.13027220D-02 -0.12740337D-02 -0.84180794D-03
  0.39045300D-02  0.38185451D-02  0.25230742D-02  0.18663192D-06 -0.38872334D-03
  0.10831061D-02 -0.43466177D-05 -0.14820755D-03  0.74744550D-03 -0.88828611D-07
  0.92213332D-04 -0.11396951D-04 -0.24120287D-04 -0.27373704D-04  0.51493991D-04
  0.10213226D-05 -0.37347334D-06  0.26330895D-03  0.54405111D-04  0.13266843D-03
 -0.18707355D-03 -0.98953980D-06  0.17650822D-05 -0.14917372D-03 -0.11022282D-03
  0.21478161D-04  0.88744661D-04  0.19780256D-05 -0.99006999D-07 -0.27900082D-03
  0.62288691D-06 -0.27196167D-04  0.54608107D-04  0.24631276D-05 -0.33129893D-03
 -0.20171878D-04 -0.43317883D-05  0.41288743D-03 -0.14365244D-03 -0.38212811D-05
 -0.67470408D-06 -0.63296693D-04 -0.95227151D-04 -0.49094925D-06  0.19971434D-03
  0.42101997D-04  0.25150615D-05 -0.98242619D-05  0.24357946D-03 -0.36724623D-06
MO    2     MO 0.0        OCC NO =    2.0000247  ORB. ENERGY =    0.000000
 -0.59328996D-01 -0.11060120D+00 -0.18693110D+00 -0.28099231D+00 -0.34514872D+00
 -0.29129334D+00 -0.10953390D+00 -0.94583418D-05 -0.70695245D-04 -0.26420427D-03
 -0.73708878D-03 -0.98749575D-03  0.11660483D-02 -0.44992540D-02 -0.13844068D-02
 -0.56506684D-04 -0.25374763D-04 -0.23790453D-04 -0.16940220D-04  0.20206255D-12
  0.18944649D-12  0.13489718D-12  0.29462886D-02  0.27623328D-02  0.19669455D-02
  0.13609448D-05  0.81510055D-13 -0.42006052D-03  0.43678056D-05 -0.33424193D-13
 -0.93821548D-03 -0.36795007D-07  0.73199777D-15  0.78394273D-05  0.25978609D-03
 -0.10470868D-03 -0.15507741D-03  0.71348594D-14  0.15390343D-06  0.67858276D-13
  0.10320269D-03  0.15494780D-03 -0.25815049D-03 -0.28193931D-14  0.50389362D-05
 -0.24123405D-13  0.17122623D-04  0.61928150D-04 -0.79050773D-04 -0.39205655D-15
  0.10367843D-05  0.92095109D-14  0.52253701D-06 -0.13648571D-13 -0.36047360D-04
 -0.11798677D-06 -0.27867491D-13 -0.10104751D-03 -0.14496243D-05  0.68813205D-13
  0.20918959D-03  0.26752767D-15 -0.20890626D-06  0.10084062D-13  0.46911449D-04
  0.14761948D-05  0.57065159D-14  0.26144053D-04 -0.84947602D-06 -0.35958703D-13
 -0.16687840D-03  0.34328542D-14 -0.12696006D+00 -0.23736461D+00 -0.41023660D+00
 -0.66354080D+00 -0.10029197D+01 -0.13812281D+01 -0.16144874D+01 -0.13953492D+01
 -0.65121674D+00 -0.88225579D-01  0.64529459D-03 -0.15828093D-02 -0.20346854D-01
 -0.74222400D-01 -0.25042454D+00 -0.55004465D+00 -0.71050766D+00  0.11418463D+00
  0.95787329D+00  0.52566851D+00 -0.13254489D-04 -0.15097687D-03 -0.31348240D-03
 -0.86199699D-03  0.11176781D-03  0.38975578D-02  0.97211282D-02 -0.80470092D-02
  0.29243014D-01  0.15632093D-02  0.75092343D-04 -0.18599892D-01 -0.24402001D-01
 -0.26763714D-01 -0.22020377D-01 -0.11607891D-01 -0.30201549D-02 -0.57971496D-09
 -0.76055306D-09 -0.83416211D-09 -0.68632346D-09 -0.36179070D-09 -0.94131136D-10
  0.62351766D+01  0.81801971D+01  0.89719058D+01  0.73818138D+01  0.38912725D+01
  0.10124359D+01 -0.20624342D-06 -0.74032378D-05 -0.11745422D-04 -0.13947329D-04
 -0.21105985D-05  0.15360540D-04 -0.56207803D-14 -0.20176146D-12 -0.32009961D-12
 -0.38010846D-12 -0.57520429D-13  0.41862291D-12  0.57863581D-04  0.20770498D-02
  0.32952915D-02  0.39130576D-02  0.59214875D-03 -0.43095477D-02 -0.14649449D-03
 -0.40051173D-11  0.46089312D-01  0.45912326D-05  0.29854561D-13 -0.79380070D-03
 -0.39581710D-07  0.47663828D-15 -0.63631652D-05 -0.25907203D-03 -0.14597637D-03
  0.40504839D-03 -0.36623570D-15 -0.75918398D-05 -0.59994803D-13  0.15162090D-03
 -0.37156492D-03  0.21994402D-03  0.31471125D-14 -0.26121392D-05  0.28098501D-13
 -0.14735635D-04 -0.27377550D-04  0.42113185D-04  0.47642149D-16 -0.80154401D-06
  0.87497114D-15 -0.11321732D-05 -0.27221824D-14 -0.88639965D-04 -0.20327984D-06
 -0.57509325D-14  0.21767409D-03  0.35997995D-05  0.13917480D-13  0.48245807D-04
  0.14602420D-14 -0.21281157D-06 -0.22861164D-14 -0.22221586D-04 -0.24444291D-06
 -0.92149834D-15  0.32028234D-04  0.88287761D-06  0.77798475D-14  0.34636525D-04
  0.22077914D-15  0.66387391D-02  0.12374621D-01  0.20977740D-01  0.31763135D-01
  0.39710914D-01  0.34158508D-01  0.13100523D-01  0.15495680D-05  0.20513379D-04
  0.74508326D-04  0.22102754D-03  0.25468960D-03 -0.30935846D-03  0.52104248D-03
 -0.38821777D-03 -0.25408283D-03  0.17784117D-04  0.17392478D-04  0.11491945D-04
  0.13371836D-03  0.13077364D-03  0.86407672D-04 -0.92686815D-03 -0.90645681D-03
 -0.59893434D-03  0.44317732D-05 -0.84542590D-04 -0.38198403D-03 -0.16269216D-06
  0.52705449D-05 -0.82257107D-04  0.24376345D-06 -0.48119564D-05 -0.60113102D-04
  0.36524711D-04 -0.10518605D-03  0.68661340D-04 -0.45450269D-06 -0.10249209D-05
 -0.26456005D-04 -0.22376434D-04  0.98521171D-05  0.12524316D-04 -0.11223076D-05
 -0.24099569D-06  0.92664564D-04 -0.46047330D-04  0.10499998D-04  0.35547332D-04
  0.78214053D-06 -0.17965624D-05 -0.22285704D-04  0.12885017D-05 -0.79241760D-04
 -0.10796009D-03 -0.78130135D-05  0.11165179D-03  0.21383107D-04  0.39475083D-05
  0.12607349D-03  0.30249717D-03  0.52351622D-05 -0.27584184D-06  0.16153303D-04
  0.44369243D-04  0.30237555D-05 -0.97874626D-04 -0.76455687D-04 -0.21962300D-05
  0.49414717D-04 -0.56652043D-04 -0.27632410D-05  0.66387391D-02  0.12374621D-01
  0.20977740D-01  0.31763135D-01  0.39710915D-01  0.34158508D-01  0.13100523D-01
  0.15495680D-05  0.20513379D-04  0.74508326D-04  0.22102754D-03  0.25468960D-03
 -0.30935846D-03  0.52104248D-03 -0.38821777D-03 -0.25408283D-03  0.17784117D-04
  0.17392478D-04  0.11491946D-04 -0.13371836D-03 -0.13077364D-03 -0.86407672D-04
 -0.92686815D-03 -0.90645681D-03 -0.59893434D-03  0.44317734D-05  0.84542590D-04
 -0.38198403D-03 -0.16269213D-06 -0.52705449D-05 -0.82257107D-04  0.24376345D-06
  0.48119564D-05 -0.60113102D-04  0.36524711D-04 -0.10518605D-03  0.68661340D-04
  0.45450269D-06 -0.10249209D-05  0.26456005D-04 -0.22376434D-04  0.98521171D-05
  0.12524316D-04  0.11223076D-05 -0.24099568D-06 -0.92664564D-04 -0.46047330D-04
  0.10499998D-04  0.35547332D-04 -0.78214054D-06 -0.17965624D-05  0.22285704D-04
  0.12885017D-05  0.79241760D-04 -0.10796009D-03 -0.78130135D-05 -0.11165179D-03
  0.21383107D-04  0.39475083D-05 -0.12607349D-03  0.30249717D-03 -0.52351622D-05
 -0.27584184D-06 -0.16153303D-04  0.44369243D-04  0.30237555D-05  0.97874626D-04
 -0.76455687D-04 -0.21962300D-05 -0.49414717D-04 -0.56652043D-04  0.27632410D-05
MO    3     MO 0.0        OCC NO =    2.0000101  ORB. ENERGY =    0.000000
  0.19848602D+00  0.37001792D+00  0.62538070D+00  0.94006384D+00  0.11547000D+01
  0.97452610D+00  0.36644726D+00  0.26897239D-04  0.20104020D-03  0.75133311D-03
  0.20961024D-02  0.28081993D-02 -0.33159598D-02  0.15835166D-01  0.35042348D-03
  0.13339970D-03  0.13800313D-03  0.12938671D-03  0.92131043D-04 -0.23473699D-13
 -0.22008085D-13 -0.15671068D-13 -0.73337772D-02 -0.68758823D-02 -0.48960378D-02
  0.16573063D-04 -0.23897280D-13  0.59747351D-03  0.63594232D-06 -0.11395321D-14
  0.53563013D-03 -0.66110729D-07 -0.45278444D-15  0.65093493D-05 -0.68188453D-03
  0.55263038D-03  0.12925416D-03 -0.58827608D-14  0.23450867D-04  0.42480447D-13
  0.20622904D-03 -0.24531488D-03  0.39085847D-04  0.20412940D-16 -0.11322338D-04
  0.44538696D-13 -0.92397670D-05 -0.38363724D-04  0.47603491D-04  0.13672528D-15
  0.13127191D-06  0.63083873D-14 -0.33731036D-05 -0.11024146D-15 -0.73132152D-05
 -0.25322675D-05  0.34892520D-13  0.25971655D-03  0.12651578D-04 -0.34561795D-13
 -0.23777691D-03 -0.26877812D-15  0.84971366D-06  0.37754893D-14 -0.14806228D-03
 -0.10040077D-05  0.25563455D-14  0.25966235D-06 -0.15451333D-05 -0.13882813D-13
  0.44392718D-03  0.14315247D-14 -0.99289321D-01 -0.18563139D+00 -0.32082621D+00
 -0.51892317D+00 -0.78433501D+00 -0.10801917D+01 -0.12626126D+01 -0.10912351D+01
 -0.50928512D+00 -0.68996959D-01  0.50465370D-03 -0.12515614D-02 -0.16088695D-01
 -0.58689248D-01 -0.19801607D+00 -0.43493214D+00 -0.56181369D+00  0.90288240D-01
  0.75741102D+00  0.41565740D+00 -0.54994006D-05 -0.62641591D-04 -0.13006652D-03
 -0.35764991D-03  0.46373418D-04  0.16171300D-02  0.40333791D-02 -0.33387728D-02
  0.24966443D-01 -0.17601091D-02 -0.19261441D-03 -0.21420426D+00 -0.28102381D+00
 -0.30822230D+00 -0.25359603D+00 -0.13368141D+00 -0.34781387D-01  0.61781481D-10
  0.81053789D-10  0.88898465D-10  0.73142979D-10  0.38556820D-10  0.10031759D-10
 -0.50358445D+01 -0.66067416D+01 -0.72461656D+01 -0.59619268D+01 -0.31427888D+01
 -0.81769454D+00 -0.12340296D-05 -0.44296271D-04 -0.70277145D-04 -0.83451954D-04
 -0.12628480D-04  0.91907713D-04  0.47416116D-15  0.17020314D-13  0.27003155D-13
  0.32065418D-13  0.48523429D-14 -0.35314442D-13 -0.40940607D-04 -0.14695889D-02
 -0.23315397D-02 -0.27686318D-02 -0.41896697D-03  0.30491631D-02 -0.15946360D-02
  0.40965509D-12 -0.39573317D-01 -0.30718196D-05 -0.14522963D-13  0.43490522D-03
  0.40733399D-06 -0.12730816D-15  0.63018201D-05  0.27882931D-03  0.20491960D-03
 -0.48374891D-03 -0.13474872D-14 -0.49545470D-05  0.43385666D-14 -0.30927343D-04
 -0.29524380D-03  0.32617114D-03 -0.12183960D-14 -0.29578999D-05 -0.60074163D-14
  0.85691963D-05  0.97047370D-05 -0.18273933D-04 -0.12571036D-18  0.94573044D-06
  0.26986580D-14 -0.71070896D-06 -0.46860414D-15  0.11308352D-03  0.97337339D-06
  0.14679190D-14 -0.27371645D-03  0.11587535D-05 -0.62106586D-16 -0.65534126D-04
  0.11689092D-14  0.17352081D-06  0.56500485D-15  0.27191305D-04 -0.54366790D-06
 -0.25798768D-15 -0.56068736D-04  0.23105482D-07 -0.14370269D-14 -0.25505178D-04
  0.60505727D-15 -0.51743844D-01 -0.96450613D-01 -0.16350528D+00 -0.24756910D+00
 -0.30951591D+00 -0.26623918D+00 -0.10210846D+00 -0.81991744D-05 -0.10854172D-03
 -0.39424326D-03 -0.11695152D-02 -0.13476301D-02  0.16368974D-02 -0.44422085D-02
  0.10957540D-02  0.14478504D-03 -0.18793467D-03 -0.18379600D-03 -0.12144179D-03
 -0.46366611D-02 -0.45345533D-02 -0.29961711D-02 -0.11911515D-02 -0.11649202D-02
 -0.76971202D-03 -0.43283844D-04 -0.49393994D-03  0.22135043D-03 -0.77920821D-05
 -0.54526761D-04  0.19649937D-03 -0.12559192D-06 -0.27826505D-05  0.28553327D-04
 -0.15318047D-03  0.17245440D-03 -0.19273932D-04  0.79320851D-05  0.17840064D-05
  0.41208050D-03  0.10924907D-03 -0.36572380D-04 -0.72676686D-04 -0.74277546D-06
  0.33844310D-05 -0.29024492D-03  0.82688865D-04 -0.28047267D-04 -0.54641598D-04
 -0.94638583D-06  0.97279205D-06  0.74117524D-04 -0.15288035D-05  0.11224249D-03
  0.22928769D-03  0.14149853D-04 -0.34815416D-03 -0.22732356D-03 -0.95634420D-05
  0.11426678D-04 -0.46053951D-03  0.89219655D-06  0.23727663D-06 -0.24314405D-04
 -0.67459630D-04 -0.61025444D-05  0.31445024D-03  0.27105068D-03  0.53907145D-05
 -0.24150702D-03 -0.68671787D-04  0.11859722D-05 -0.51743844D-01 -0.96450614D-01
 -0.16350528D+00 -0.24756910D+00 -0.30951591D+00 -0.26623918D+00 -0.10210846D+00
 -0.81991744D-05 -0.10854172D-03 -0.39424326D-03 -0.11695152D-02 -0.13476301D-02
  0.16368974D-02 -0.44422085D-02  0.10957540D-02  0.14478504D-03 -0.18793467D-03
 -0.18379600D-03 -0.12144179D-03  0.46366611D-02  0.45345533D-02  0.29961711D-02
 -0.11911515D-02 -0.11649202D-02 -0.76971202D-03 -0.43283844D-04  0.49393994D-03
  0.22135043D-03 -0.77920821D-05  0.54526761D-04  0.19649937D-03 -0.12559192D-06
  0.27826505D-05  0.28553327D-04 -0.15318047D-03  0.17245440D-03 -0.19273932D-04
 -0.79320851D-05  0.17840064D-05 -0.41208050D-03  0.10924907D-03 -0.36572380D-04
 -0.72676686D-04  0.74277546D-06  0.33844310D-05  0.29024492D-03  0.82688865D-04
 -0.28047267D-04 -0.54641598D-04  0.94638583D-06  0.97279205D-06 -0.74117524D-04
 -0.15288035D-05 -0.11224249D-03  0.22928769D-03  0.14149853D-04  0.34815416D-03
 -0.22732356D-03 -0.95634420D-05 -0.11426678D-04 -0.46053951D-03 -0.89219655D-06
  0.23727663D-06  0.24314405D-04 -0.67459630D-04 -0.61025444D-05 -0.31445024D-03
  0.27105068D-03  0.53907145D-05  0.24150702D-03 -0.68671787D-04 -0.11859722D-05
MO    4     MO 0.0        OCC NO =    2.0000090  ORB. ENERGY =    0.000000
  0.61606663D-02  0.11484723D-01  0.19410747D-01  0.29177973D-01  0.35839913D-01
  0.30247622D-01  0.11373896D-01  0.74423923D-06  0.55627271D-05  0.20789181D-04
  0.57998579D-04  0.77702106D-04 -0.91751698D-04  0.49357567D-03  0.25444508D-04
  0.56332082D-05 -0.39831350D-02 -0.37344422D-02 -0.26591453D-02 -0.19256848D-13
 -0.18054519D-13 -0.12855893D-13 -0.20159164D-03 -0.18900498D-03 -0.13458280D-03
 -0.79003288D-03 -0.13083185D-12  0.15882230D-04 -0.12205860D-03  0.11088983D-13
  0.29586500D-04  0.20107486D-05 -0.14422355D-14  0.24241475D-06 -0.17605402D-04
  0.14712643D-04  0.28927585D-05 -0.81307630D-15 -0.10065110D-02  0.13821370D-12
  0.14927330D-05 -0.52769650D-05  0.37842320D-05 -0.54745446D-14  0.46209235D-03
  0.13711314D-12 -0.31409124D-06 -0.17364769D-05  0.20505682D-05 -0.64092942D-15
 -0.27589429D-04 -0.77240904D-14  0.10231334D-03 -0.84207363D-14 -0.25810762D-06
  0.43342860D-04  0.10979991D-12  0.13085759D-04 -0.35028288D-03 -0.84537697D-13
 -0.12311437D-04 -0.39872666D-15 -0.31210340D-04  0.15401247D-13 -0.18852404D-05
 -0.72569262D-04  0.35738756D-14 -0.49695236D-05  0.16620028D-03 -0.49777617D-13
  0.10625245D-04  0.51135352D-14 -0.20298582D-02 -0.37950243D-02 -0.65589300D-02
 -0.10608799D-01 -0.16034844D-01 -0.22083301D-01 -0.25812689D-01 -0.22309072D-01
 -0.10411760D-01 -0.14105650D-02  0.10317076D-04 -0.25624850D-04 -0.32940486D-03
 -0.12016216D-02 -0.40542415D-02 -0.89049334D-02 -0.11502745D-01  0.18485890D-02
  0.15507464D-01  0.85102965D-02 -0.10359782D-06 -0.11800436D-05 -0.24501959D-05
 -0.67374164D-05  0.87358341D-06  0.30463529D-04  0.75980879D-04 -0.62895871D-04
  0.51647997D-03 -0.69727183D-04 -0.91579734D-05  0.97249096D+01  0.12758528D+02
  0.13993344D+02  0.11513302D+02  0.60691583D+01  0.15790808D+01  0.94751627D-10
  0.12430875D-09  0.13633979D-09  0.11217627D-09  0.59132953D-10  0.15385282D-10
 -0.56080299D-01 -0.73574163D-01 -0.80694933D-01 -0.66393360D-01 -0.34998804D-01
 -0.91060306D-02  0.57391569D-04  0.20601066D-02  0.32684108D-02  0.38811375D-02
  0.58731840D-03 -0.42743933D-02  0.67304536D-15  0.24159388D-13  0.38329475D-13
  0.45515076D-13  0.68876306D-14 -0.50126885D-13 -0.71415332D-06 -0.25634984D-04
 -0.40670545D-04 -0.48295025D-04 -0.73083102D-05  0.53188512D-04  0.73276289D-01
  0.63511244D-12 -0.47612314D-03  0.18078851D-04  0.24544310D-14  0.17818686D-04
 -0.17763652D-04  0.52155578D-15  0.23335999D-06  0.37640195D-05  0.48845327D-05
 -0.86485521D-05 -0.17532693D-14  0.57559835D-03 -0.88902222D-16  0.26561332D-05
 -0.57151795D-05  0.30590463D-05  0.25762776D-14 -0.25516191D-03 -0.10049943D-13
  0.45671901D-06  0.43095186D-06 -0.88767086D-06  0.21096743D-15 -0.20045101D-04
 -0.13794547D-14  0.83313814D-04 -0.11832892D-14  0.26334247D-05 -0.30997612D-04
  0.28924602D-14 -0.53916851D-05 -0.21894383D-03  0.65740725D-15 -0.25085891D-05
  0.15171919D-14  0.88791001D-05  0.59000700D-15  0.80935434D-07  0.27872174D-04
 -0.50559210D-15 -0.15497975D-06 -0.54509474D-04 -0.12644289D-14 -0.87826554D-07
  0.51630709D-15 -0.16578845D-02 -0.30902995D-02 -0.52387462D-02 -0.79321702D-02
 -0.99169599D-02 -0.85303638D-02 -0.32715781D-02 -0.24738121D-06 -0.32748640D-05
 -0.11894902D-04 -0.35286003D-04 -0.40659991D-04  0.49387616D-04 -0.14287233D-03
  0.29700962D-04  0.77555598D-05  0.63858527D-02  0.62452244D-02  0.41264838D-02
 -0.14777146D-03 -0.14451726D-03 -0.95488662D-04 -0.46102757D-04 -0.45087490D-04
 -0.29791211D-04  0.15011956D-02 -0.19477490D-04  0.44878596D-05  0.34652909D-03
 -0.24009997D-05 -0.10460531D-05 -0.79270424D-06  0.68178824D-07  0.13047731D-05
 -0.32131862D-05  0.45929097D-05 -0.13797234D-05 -0.36598924D-03 -0.14693576D-03
  0.14990783D-04  0.31101118D-05 -0.17961695D-05 -0.13139423D-05  0.10230782D-03
 -0.57006550D-04 -0.10312630D-04  0.24526565D-05 -0.31651673D-06 -0.21361397D-05
  0.11927863D-04  0.80243216D-04 -0.18092130D-05  0.80498161D-05  0.15281839D-05
  0.60644551D-05 -0.12484310D-03 -0.51588820D-05 -0.13413593D-04  0.10069366D-03
  0.57433016D-06 -0.47797726D-05 -0.60561808D-03 -0.46221602D-05 -0.14700718D-06
 -0.11712825D-05  0.74567576D-04  0.80478966D-05  0.10762822D-04 -0.60701095D-04
 -0.76068750D-05 -0.72489743D-05  0.21916035D-03 -0.16578847D-02 -0.30902998D-02
 -0.52387467D-02 -0.79321710D-02 -0.99169608D-02 -0.85303647D-02 -0.32715784D-02
 -0.24738123D-06 -0.32748642D-05 -0.11894903D-04 -0.35286005D-04 -0.40659994D-04
  0.49387619D-04 -0.14287235D-03  0.29700963D-04  0.77555597D-05  0.63858527D-02
  0.62452244D-02  0.41264838D-02  0.14777146D-03  0.14451726D-03  0.95488664D-04
 -0.46102760D-04 -0.45087493D-04 -0.29791213D-04  0.15011956D-02  0.19477490D-04
  0.44878596D-05  0.34652909D-03  0.24009997D-05 -0.10460533D-05 -0.79270424D-06
 -0.68178817D-07  0.13047731D-05 -0.32131862D-05  0.45929096D-05 -0.13797234D-05
  0.36598924D-03 -0.14693576D-03 -0.14990782D-04  0.31101118D-05 -0.17961694D-05
 -0.13139424D-05 -0.10230782D-03 -0.57006550D-04  0.10312630D-04  0.24526565D-05
 -0.31651671D-06 -0.21361398D-05 -0.11927863D-04  0.80243217D-04  0.18092131D-05
  0.80498161D-05 -0.15281840D-05  0.60644551D-05 -0.12484310D-03  0.51588823D-05
 -0.13413593D-04  0.10069366D-03 -0.57433021D-06 -0.47797726D-05  0.60561808D-03