 f2cs-wavefunction
GAUSSIAN            188 MOL ORBITALS    330 PRIMITIVES        4 NUCLEI
  C    1    (CENTRE  1)   0.00000000  0.00000000 -0.98331710  CHARGE =  6.0
  S    2    (CENTRE  2)   0.00000000  0.01889726  2.03811688  CHARGE = 16.0
  F    3    (CENTRE  3)   0.00000000 -1.99407870 -2.44821201  CHARGE =  9.0
  F    4    (CENTRE  4)   0.00000000  1.99407870 -2.44821201  CHARGE =  9.0
CENTRE ASSIGNMENTS    1  1  1  1  1  1  1  1  1  1  1  1  1  1  1  1  1  1  1  1
CENTRE ASSIGNMENTS    1  1  1  1  1  1  1  1  1  1  1  1  1  1  1  1  1  1  1  1
CENTRE ASSIGNMENTS    1  1  1  1  1  1  1  1  1  1  1  1  1  1  1  1  1  1  1  1
CENTRE ASSIGNMENTS    1  1  1  1  1  1  1  1  1  1  1  1  2  2  2  2  2  2  2  2
CENTRE ASSIGNMENTS    2  2  2  2  2  2  2  2  2  2  2  2  2  2  2  2  2  2  2  2
CENTRE ASSIGNMENTS    2  2  2  2  2  2  2  2  2  2  2  2  2  2  2  2  2  2  2  2
CENTRE ASSIGNMENTS    2  2  2  2  2  2  2  2  2  2  2  2  2  2  2  2  2  2  2  2
CENTRE ASSIGNMENTS    2  2  2  2  2  2  2  2  2  2  2  2  2  2  2  2  2  2  2  2
CENTRE ASSIGNMENTS    2  2  2  2  2  2  2  2  2  2  2  2  2  2  2  2  2  2  2  2
CENTRE ASSIGNMENTS    2  2  2  2  2  2  3  3  3  3  3  3  3  3  3  3  3  3  3  3
CENTRE ASSIGNMENTS    3  3  3  3  3  3  3  3  3  3  3  3  3  3  3  3  3  3  3  3
CENTRE ASSIGNMENTS    3  3  3  3  3  3  3  3  3  3  3  3  3  3  3  3  3  3  3  3
CENTRE ASSIGNMENTS    3  3  3  3  3  3  3  3  3  3  3  3  3  3  3  3  3  3  4  4
CENTRE ASSIGNMENTS    4  4  4  4  4  4  4  4  4  4  4  4  4  4  4  4  4  4  4  4
CENTRE ASSIGNMENTS    4  4  4  4  4  4  4  4  4  4  4  4  4  4  4  4  4  4  4  4
CENTRE ASSIGNMENTS    4  4  4  4  4  4  4  4  4  4  4  4  4  4  4  4  4  4  4  4
CENTRE ASSIGNMENTS    4  4  4  4  4  4  4  4  4  4
TYPE ASSIGNMENTS      1  1  1  1  1  1  1  1  1  1  1  1  1  1  1  1  2  2  2  3
TYPE ASSIGNMENTS      3  3  4  4  4  2  3  4  2  3  4  2  3  4  5  6  7  8  9 10
TYPE ASSIGNMENTS      5  6  7  8  9 10  5  6  7  8  9 10 11 12 13 17 14 15 18 19
TYPE ASSIGNMENTS     16 20 11 12 13 17 14 15 18 19 16 20  1  1  1  1  1  1  1  1
TYPE ASSIGNMENTS      1  1  1  1  1  1  1  1  1  1  1  1  1  1  1  1  1  1  1  1
TYPE ASSIGNMENTS      1  1  1  2  2  2  2  2  2  3  3  3  3  3  3  4  4  4  4  4
TYPE ASSIGNMENTS      4  2  2  2  2  2  2  3  3  3  3  3  3  4  4  4  4  4  4  2
TYPE ASSIGNMENTS      3  4  2  3  4  2  3  4  5  6  7  8  9 10  5  6  7  8  9 10
TYPE ASSIGNMENTS      5  6  7  8  9 10 11 12 13 17 14 15 18 19 16 20 11 12 13 17
TYPE ASSIGNMENTS     14 15 18 19 16 20  1  1  1  1  1  1  1  1  1  1  1  1  1  1
TYPE ASSIGNMENTS      1  1  2  2  2  3  3  3  4  4  4  2  3  4  2  3  4  2  3  4
TYPE ASSIGNMENTS      5  6  7  8  9 10  5  6  7  8  9 10  5  6  7  8  9 10 11 12
TYPE ASSIGNMENTS     13 17 14 15 18 19 16 20 11 12 13 17 14 15 18 19 16 20  1  1
TYPE ASSIGNMENTS      1  1  1  1  1  1  1  1  1  1  1  1  1  1  2  2  2  3  3  3
TYPE ASSIGNMENTS      4  4  4  2  3  4  2  3  4  2  3  4  5  6  7  8  9 10  5  6
TYPE ASSIGNMENTS      7  8  9 10  5  6  7  8  9 10 11 12 13 17 14 15 18 19 16 20
TYPE ASSIGNMENTS     11 12 13 17 14 15 18 19 16 20
EXPONENTS  0.8236000D+04 0.1235000D+04 0.2808000D+03 0.7927000D+02 0.2559000D+02
EXPONENTS  0.8997000D+01 0.3319000D+01 0.2808000D+03 0.7927000D+02 0.2559000D+02
EXPONENTS  0.8997000D+01 0.3319000D+01 0.3643000D+00 0.9059000D+00 0.1285000D+00
EXPONENTS  0.4402000D-01 0.1871000D+02 0.4133000D+01 0.1200000D+01 0.1871000D+02
EXPONENTS  0.4133000D+01 0.1200000D+01 0.1871000D+02 0.4133000D+01 0.1200000D+01
EXPONENTS  0.3827000D+00 0.3827000D+00 0.3827000D+00 0.1209000D+00 0.1209000D+00
EXPONENTS  0.1209000D+00 0.3569000D-01 0.3569000D-01 0.3569000D-01 0.1097000D+01
EXPONENTS  0.1097000D+01 0.1097000D+01 0.1097000D+01 0.1097000D+01 0.1097000D+01
EXPONENTS  0.3180000D+00 0.3180000D+00 0.3180000D+00 0.3180000D+00 0.3180000D+00
EXPONENTS  0.3180000D+00 0.1000000D+00 0.1000000D+00 0.1000000D+00 0.1000000D+00
EXPONENTS  0.1000000D+00 0.1000000D+00 0.7610000D+00 0.7610000D+00 0.7610000D+00
EXPONENTS  0.7610000D+00 0.7610000D+00 0.7610000D+00 0.7610000D+00 0.7610000D+00
EXPONENTS  0.7610000D+00 0.7610000D+00 0.2680000D+00 0.2680000D+00 0.2680000D+00
EXPONENTS  0.2680000D+00 0.2680000D+00 0.2680000D+00 0.2680000D+00 0.2680000D+00
EXPONENTS  0.2680000D+00 0.2680000D+00 0.3741000D+06 0.5605000D+05 0.1276000D+05
EXPONENTS  0.3615000D+04 0.1183000D+04 0.4288000D+03 0.1678000D+03 0.6947000D+02
EXPONENTS  0.2984000D+02 0.1272000D+02 0.5244000D+01 0.3615000D+04 0.1183000D+04
EXPONENTS  0.4288000D+03 0.1678000D+03 0.6947000D+02 0.2984000D+02 0.1272000D+02
EXPONENTS  0.5244000D+01 0.2219000D+01 0.1183000D+04 0.1678000D+03 0.6947000D+02
EXPONENTS  0.2984000D+02 0.1272000D+02 0.5244000D+01 0.2219000D+01 0.3490000D+00
EXPONENTS  0.7767000D+00 0.1322000D+00 0.4970000D-01 0.5744000D+03 0.1358000D+03
EXPONENTS  0.4319000D+02 0.1587000D+02 0.6208000D+01 0.2483000D+01 0.5744000D+03
EXPONENTS  0.1358000D+03 0.4319000D+02 0.1587000D+02 0.6208000D+01 0.2483000D+01
EXPONENTS  0.5744000D+03 0.1358000D+03 0.4319000D+02 0.1587000D+02 0.6208000D+01
EXPONENTS  0.2483000D+01 0.1358000D+03 0.4319000D+02 0.1587000D+02 0.6208000D+01
EXPONENTS  0.2483000D+01 0.3229000D+00 0.1358000D+03 0.4319000D+02 0.1587000D+02
EXPONENTS  0.6208000D+01 0.2483000D+01 0.3229000D+00 0.1358000D+03 0.4319000D+02
EXPONENTS  0.1587000D+02 0.6208000D+01 0.2483000D+01 0.3229000D+00 0.8688000D+00
EXPONENTS  0.8688000D+00 0.8688000D+00 0.1098000D+00 0.1098000D+00 0.1098000D+00
EXPONENTS  0.3510000D-01 0.3510000D-01 0.3510000D-01 0.2690000D+00 0.2690000D+00
EXPONENTS  0.2690000D+00 0.2690000D+00 0.2690000D+00 0.2690000D+00 0.8190000D+00
EXPONENTS  0.8190000D+00 0.8190000D+00 0.8190000D+00 0.8190000D+00 0.8190000D+00
EXPONENTS  0.1010000D+00 0.1010000D+00 0.1010000D+00 0.1010000D+00 0.1010000D+00
EXPONENTS  0.1010000D+00 0.5570000D+00 0.5570000D+00 0.5570000D+00 0.5570000D+00
EXPONENTS  0.5570000D+00 0.5570000D+00 0.5570000D+00 0.5570000D+00 0.5570000D+00
EXPONENTS  0.5570000D+00 0.2180000D+00 0.2180000D+00 0.2180000D+00 0.2180000D+00
EXPONENTS  0.2180000D+00 0.2180000D+00 0.2180000D+00 0.2180000D+00 0.2180000D+00
EXPONENTS  0.2180000D+00 0.1950000D+05 0.2923000D+04 0.6645000D+03 0.1875000D+03
EXPONENTS  0.6062000D+02 0.2142000D+02 0.7950000D+01 0.6645000D+03 0.1875000D+03
EXPONENTS  0.6062000D+02 0.2142000D+02 0.7950000D+01 0.8815000D+00 0.2257000D+01
EXPONENTS  0.3041000D+00 0.9158000D-01 0.4388000D+02 0.9926000D+01 0.2930000D+01
EXPONENTS  0.4388000D+02 0.9926000D+01 0.2930000D+01 0.4388000D+02 0.9926000D+01
EXPONENTS  0.2930000D+01 0.9132000D+00 0.9132000D+00 0.9132000D+00 0.2672000D+00
EXPONENTS  0.2672000D+00 0.2672000D+00 0.7361000D-01 0.7361000D-01 0.7361000D-01
EXPONENTS  0.3107000D+01 0.3107000D+01 0.3107000D+01 0.3107000D+01 0.3107000D+01
EXPONENTS  0.3107000D+01 0.8550000D+00 0.8550000D+00 0.8550000D+00 0.8550000D+00
EXPONENTS  0.8550000D+00 0.8550000D+00 0.2920000D+00 0.2920000D+00 0.2920000D+00
EXPONENTS  0.2920000D+00 0.2920000D+00 0.2920000D+00 0.1917000D+01 0.1917000D+01
EXPONENTS  0.1917000D+01 0.1917000D+01 0.1917000D+01 0.1917000D+01 0.1917000D+01
EXPONENTS  0.1917000D+01 0.1917000D+01 0.1917000D+01 0.7240000D+00 0.7240000D+00
EXPONENTS  0.7240000D+00 0.7240000D+00 0.7240000D+00 0.7240000D+00 0.7240000D+00
EXPONENTS  0.7240000D+00 0.7240000D+00 0.7240000D+00 0.1950000D+05 0.2923000D+04
EXPONENTS  0.6645000D+03 0.1875000D+03 0.6062000D+02 0.2142000D+02 0.7950000D+01
EXPONENTS  0.6645000D+03 0.1875000D+03 0.6062000D+02 0.2142000D+02 0.7950000D+01
EXPONENTS  0.8815000D+00 0.2257000D+01 0.3041000D+00 0.9158000D-01 0.4388000D+02
EXPONENTS  0.9926000D+01 0.2930000D+01 0.4388000D+02 0.9926000D+01 0.2930000D+01
EXPONENTS  0.4388000D+02 0.9926000D+01 0.2930000D+01 0.9132000D+00 0.9132000D+00
EXPONENTS  0.9132000D+00 0.2672000D+00 0.2672000D+00 0.2672000D+00 0.7361000D-01
EXPONENTS  0.7361000D-01 0.7361000D-01 0.3107000D+01 0.3107000D+01 0.3107000D+01
EXPONENTS  0.3107000D+01 0.3107000D+01 0.3107000D+01 0.8550000D+00 0.8550000D+00
EXPONENTS  0.8550000D+00 0.8550000D+00 0.8550000D+00 0.8550000D+00 0.2920000D+00
EXPONENTS  0.2920000D+00 0.2920000D+00 0.2920000D+00 0.2920000D+00 0.2920000D+00
EXPONENTS  0.1917000D+01 0.1917000D+01 0.1917000D+01 0.1917000D+01 0.1917000D+01
EXPONENTS  0.1917000D+01 0.1917000D+01 0.1917000D+01 0.1917000D+01 0.1917000D+01
EXPONENTS  0.7240000D+00 0.7240000D+00 0.7240000D+00 0.7240000D+00 0.7240000D+00
EXPONENTS  0.7240000D+00 0.7240000D+00 0.7240000D+00 0.7240000D+00 0.7240000D+00
MO    1     MO 0.0        OCC NO =    2.0000305  ORB. ENERGY =    0.000000
  0.52530879D-03  0.97928141D-03  0.16551190D-02  0.24879526D-02  0.30560041D-02
  0.25791597D-02  0.96983138D-03  0.12741254D-06  0.95232976D-06  0.35590738D-05
  0.99292616D-05  0.13302473D-04 -0.15707740D-04  0.38078777D-04  0.49310514D-05
 -0.10985191D-05  0.21368310D-12  0.20034149D-12  0.14265508D-12 -0.30465268D-02
 -0.28563125D-02 -0.20338647D-02 -0.37726099D-04 -0.35370616D-04 -0.25185986D-04
  0.53700402D-13 -0.15633319D-02 -0.51821534D-05  0.13534628D-13  0.61056316D-03
  0.35363683D-05  0.50145251D-16 -0.13555190D-04 -0.11979680D-06 -0.20192557D-05
 -0.26325980D-05  0.46518536D-05  0.25788771D-14  0.55472879D-13 -0.10195418D-02
  0.51168663D-06 -0.13900745D-05  0.87838791D-06 -0.55629422D-14 -0.29361128D-13
  0.39719582D-03  0.16490829D-06 -0.58053776D-06  0.41562947D-06 -0.73397947D-15
  0.20414922D-14 -0.22587020D-03 -0.61835258D-14  0.24068554D-03  0.25659512D-05
  0.13357903D-14  0.35917440D-03  0.45323111D-05  0.17214787D-13 -0.10812310D-02
 -0.12230165D-04  0.33372037D-14  0.61474727D-15 -0.13711840D-03 -0.35011145D-05
  0.51430280D-14 -0.12877410D-03  0.61012879D-06 -0.69872698D-14  0.54012929D-03
  0.98932148D-05  0.19548840D-14  0.38791840D-03  0.72525252D-03  0.12534519D-02
  0.20274068D-02  0.30643576D-02  0.42202548D-02  0.49329640D-02  0.42634010D-02
  0.19897515D-02  0.26956766D-03 -0.19716567D-05  0.47851361D-05  0.61512443D-04
  0.22438855D-03  0.75708141D-03  0.16628905D-02  0.21480009D-02 -0.34520203D-03
 -0.28958347D-02 -0.15891967D-02  0.55036924D-07  0.62690478D-06  0.13016803D-05
  0.35792903D-05 -0.46409609D-06 -0.16183921D-04 -0.40365268D-04  0.33413784D-04
 -0.88026417D-04 -0.63640924D-05  0.57078818D-06 -0.50210071D-09 -0.65872758D-09
 -0.72248159D-09 -0.59443609D-09 -0.31335291D-09 -0.81528532D-10  0.97645133D+01
  0.12810486D+02  0.14050331D+02  0.11560189D+02  0.60938744D+01  0.15855115D+01
 -0.12836019D+00 -0.16840127D+00 -0.18469975D+00 -0.15196539D+00 -0.80107511D-01
 -0.20842468D-01 -0.30603550D-14 -0.10985337D-12 -0.17428513D-12 -0.20695824D-12
 -0.31318237D-13  0.22792826D-12  0.94735034D-04  0.34005738D-02  0.53950957D-02
  0.64065106D-02  0.96947391D-03 -0.70556495D-02 -0.11839541D-05 -0.42498779D-04
 -0.67425379D-04 -0.80065569D-04 -0.12116031D-04  0.88178203D-04 -0.37741931D-11
  0.67596797D-01 -0.90279541D-03 -0.32031182D-14 -0.37954003D-03  0.93545088D-05
  0.80717992D-15 -0.71084879D-05  0.13589212D-06  0.20625221D-05  0.78610847D-05
 -0.99236068D-05 -0.27492874D-15 -0.29165605D-13  0.96153836D-03 -0.16235384D-05
 -0.36121912D-05  0.52357296D-05 -0.25330164D-15  0.10364105D-13 -0.55554568D-03
  0.27386951D-06 -0.88119133D-07 -0.18575038D-06  0.23991375D-15  0.21407632D-14
 -0.42014880D-04 -0.46986514D-14  0.34992331D-04  0.12659037D-05  0.85005772D-15
  0.10985863D-03 -0.74182828D-06  0.13245896D-13 -0.21483563D-03 -0.30558828D-05
  0.14117210D-14 -0.22198534D-15  0.34755396D-04  0.10642397D-05 -0.13942755D-14
  0.16373417D-04 -0.62166820D-06  0.20602315D-14 -0.12063961D-03 -0.25710510D-05
 -0.13070554D-15  0.49724733D-02  0.92686987D-02  0.15712509D-01  0.23790864D-01
  0.29743820D-01  0.25585019D-01  0.98124054D-02 -0.67911724D-06 -0.89902407D-05
 -0.32654190D-04 -0.96868039D-04 -0.11162085D-03  0.13558015D-03  0.58038332D-03
  0.98535850D-04  0.85467974D-03 -0.41687943D-12 -0.40769898D-12 -0.26938395D-12
 -0.12974994D-02 -0.12689261D-02 -0.83843311D-03 -0.38855952D-02 -0.38000272D-02
 -0.25108386D-02 -0.90020889D-13 -0.38600023D-03 -0.10812634D-02 -0.31955647D-13
 -0.15014820D-03 -0.74052921D-03 -0.81197911D-15  0.92124164D-04  0.11691243D-04
  0.21225581D-04  0.30723481D-04 -0.51949062D-04  0.14552118D-13  0.11829827D-13
  0.26262425D-03 -0.51227001D-04 -0.13303581D-03  0.18426281D-03 -0.11523164D-13
  0.45062274D-14 -0.15221910D-03  0.11120088D-03 -0.23095343D-04 -0.88105541D-04
 -0.68891385D-14 -0.94344317D-14 -0.27541882D-03 -0.65235749D-14 -0.21586020D-04
 -0.54205596D-04  0.16848090D-13 -0.33154745D-03  0.27476387D-04  0.27226347D-14
  0.39630551D-03  0.13514040D-03  0.67550733D-13  0.33381556D-14 -0.65304998D-04
  0.94427377D-04 -0.11180948D-13  0.20154934D-03 -0.42548424D-04  0.11664807D-14
 -0.56343438D-05 -0.24073371D-03 -0.26615843D-13 -0.51731511D-02 -0.96427626D-02
 -0.16346631D-01 -0.24751010D-01 -0.30944214D-01 -0.26617573D-01 -0.10208412D-01
  0.62823078D-06  0.83165992D-05  0.30207401D-04  0.89609687D-04  0.10325707D-03
 -0.12542109D-03 -0.59515257D-03 -0.75913265D-04 -0.85188057D-03 -0.35186471D-12
 -0.34411600D-12 -0.22737199D-12 -0.13077371D-02 -0.12789383D-02 -0.84504861D-03
  0.39232220D-02  0.38368254D-02  0.25351528D-02 -0.83490011D-13 -0.39144315D-03
  0.10846861D-02 -0.21193366D-13 -0.14637003D-03  0.75430421D-03  0.67715571D-16
  0.92306946D-04 -0.11102720D-04 -0.26956964D-04 -0.23986389D-04  0.50943353D-04
 -0.29691806D-13  0.19033922D-13  0.26417567D-03  0.57590325D-04  0.13231080D-03
 -0.18990113D-03  0.97910639D-14  0.46060300D-14 -0.14618926D-03 -0.10925362D-03
  0.19859948D-04  0.89393675D-04  0.25542215D-14 -0.53436434D-14 -0.28259828D-03
 -0.65315185D-14 -0.32910958D-04  0.54749914D-04  0.26861089D-13 -0.33092016D-03
 -0.12446738D-04 -0.72665335D-14  0.42965303D-03 -0.15180300D-03 -0.22879519D-13
  0.22545060D-14 -0.61223433D-04 -0.95929985D-04 -0.10563845D-13  0.19783712D-03
  0.41491456D-04  0.38003269D-14 -0.14166819D-04  0.24629850D-03  0.15309880D-13
MO    2     MO 0.0        OCC NO =    2.0000247  ORB. ENERGY =    0.000000
 -0.59325824D-01 -0.11059529D+00 -0.18692110D+00 -0.28097728D+00 -0.34513027D+00
 -0.29127777D+00 -0.10952805D+00 -0.94574917D-05 -0.70688891D-04 -0.26418053D-03
 -0.73702253D-03 -0.98740699D-03  0.11659435D-02 -0.44990241D-02 -0.13843874D-02
 -0.56490079D-04 -0.55471195D-12 -0.52007771D-12 -0.37032631D-12 -0.99672972D-05
 -0.93449747D-05 -0.66541787D-05  0.29459922D-02  0.27620549D-02  0.19667476D-02
 -0.11457202D-12 -0.96246875D-05 -0.42013225D-03 -0.29002602D-13 -0.49304990D-05
 -0.93812860D-03 -0.68355350D-16 -0.87955766D-07  0.78427659D-05  0.25977440D-03
 -0.10472935D-03 -0.15504506D-03 -0.22513942D-14 -0.13182241D-12 -0.86443915D-05
  0.10322876D-03  0.15500913D-03 -0.25823789D-03 -0.17381529D-14  0.61619973D-13
 -0.77316739D-05  0.17127830D-04  0.61920245D-04 -0.79048074D-04  0.27929617D-15
 -0.71462725D-14 -0.28969980D-05  0.13207710D-13  0.26430909D-05 -0.36028833D-04
  0.86115806D-14  0.39769950D-06 -0.10101493D-03 -0.48234711D-13 -0.83269723D-05
  0.20910143D-03  0.50414095D-14 -0.33814418D-14 -0.36430330D-05  0.46884613D-04
 -0.12208056D-13  0.11191879D-06  0.26134970D-04  0.22352382D-13  0.10817180D-04
 -0.16678881D-03  0.13261111D-14 -0.12696288D+00 -0.23736990D+00 -0.41024574D+00
 -0.66355558D+00 -0.10029420D+01 -0.13812589D+01 -0.16145234D+01 -0.13953803D+01
 -0.65123125D+00 -0.88227545D-01  0.64530897D-03 -0.15828452D-02 -0.20347315D-01
 -0.74224082D-01 -0.25043021D+00 -0.55005712D+00 -0.71052376D+00  0.11418721D+00
  0.95789500D+00  0.52568042D+00 -0.13254595D-04 -0.15097808D-03 -0.31348491D-03
 -0.86200389D-03  0.11176870D-03  0.38975890D-02  0.97212060D-02 -0.80470736D-02
  0.29243665D-01  0.15631755D-02  0.75062695D-04  0.13306031D-08  0.17456756D-08
  0.19146283D-08  0.15752985D-08  0.83040781D-09  0.21605649D-09  0.10131784D+00
  0.13292325D+00  0.14578803D+00  0.11995000D+00  0.63230821D-01  0.16451470D-01
  0.62342143D+01  0.81789347D+01  0.89705212D+01  0.73806747D+01  0.38906720D+01
  0.10122797D+01  0.79164255D-14  0.28416509D-12  0.45083504D-12  0.53535278D-12
  0.81012986D-13 -0.58959733D-12  0.96222674D-06  0.34539736D-04  0.54798157D-04
  0.65071131D-04  0.98469772D-05 -0.71664455D-04  0.57855631D-04  0.20767644D-02
  0.32948387D-02  0.39125199D-02  0.59206739D-03 -0.43089555D-02  0.10031342D-10
  0.73305790D-03  0.46082555D-01  0.13089679D-13 -0.59594948D-05 -0.79374977D-03
 -0.20983516D-14 -0.17369246D-07 -0.63613248D-05 -0.25909436D-03 -0.14589293D-03
  0.40498729D-03  0.35595370D-17  0.75195048D-13  0.14603342D-04  0.15159366D-03
 -0.37154382D-03  0.21995016D-03  0.28796725D-15 -0.29171367D-13  0.97139915D-05
 -0.14737644D-04 -0.27377054D-04  0.42114697D-04 -0.13237122D-15 -0.60795447D-14
  0.44954682D-06  0.12108446D-13  0.83224191D-06 -0.88629482D-04 -0.28265804D-14
  0.19379796D-05  0.21770446D-03 -0.33498759D-13 -0.44347053D-05  0.48183985D-04
 -0.12099177D-14  0.53651172D-15  0.47400634D-06 -0.22216075D-04  0.34303849D-14
  0.31542218D-06  0.32035644D-04 -0.50399200D-14 -0.17374412D-05  0.34612580D-04
  0.36432507D-15  0.66552929D-02  0.12405477D-01  0.21030048D-01  0.31842337D-01
  0.39809934D-01  0.34243682D-01  0.13133189D-01  0.15389893D-05  0.20373336D-04
  0.73999665D-04  0.21951861D-03  0.25295086D-03 -0.30724650D-03  0.52411008D-03
 -0.38342413D-03 -0.24899474D-03  0.75413053D-12  0.73752319D-12  0.48731275D-12
  0.11875893D-03  0.11614364D-03  0.76741014D-04 -0.96246011D-03 -0.94126496D-03
 -0.62193356D-03  0.17514513D-12 -0.87184955D-04 -0.39197139D-03  0.45681725D-13
  0.14066515D-04 -0.94469718D-04 -0.31555153D-15 -0.42732870D-05 -0.60410676D-04
  0.35258560D-04 -0.10752282D-03  0.72264255D-04 -0.60790284D-13 -0.85798730D-14
 -0.25973735D-04 -0.21519804D-04  0.10656132D-04  0.10863672D-04  0.12729845D-13
 -0.18155538D-13  0.90717733D-04 -0.45835402D-04  0.13476967D-04  0.32358434D-04
  0.51097694D-15  0.15097883D-13 -0.23202668D-04 -0.23166135D-15 -0.79237269D-04
 -0.10865476D-03 -0.69567362D-14  0.10954650D-03  0.26794548D-04  0.76517202D-14
  0.12816531D-03  0.29916973D-03 -0.81550550D-13 -0.30279532D-16  0.15954872D-04
  0.44635207D-04  0.71674119D-14 -0.96558749D-04 -0.78145737D-04 -0.70765733D-14
  0.48694134D-04 -0.55759886D-04  0.27809852D-13  0.66205171D-02  0.12340655D-01
  0.20920160D-01  0.31675951D-01  0.39601916D-01  0.34064749D-01  0.13064564D-01
  0.15594684D-05  0.20644441D-04  0.74984366D-04  0.22243971D-03  0.25631684D-03
 -0.31133497D-03  0.51784660D-03 -0.39280659D-03 -0.25915920D-03  0.85732145D-12
  0.83844165D-12  0.55399385D-12 -0.14865085D-03 -0.14537729D-03 -0.96056921D-04
 -0.89099856D-03 -0.87137713D-03 -0.57575571D-03  0.19993847D-12  0.81874528D-04
 -0.37187428D-03  0.52030236D-13  0.35094134D-05 -0.70131908D-04 -0.64129457D-15
  0.53521519D-05 -0.59823319D-04  0.37750893D-04 -0.10289124D-03  0.65140345D-04
  0.66389897D-13 -0.16110316D-13  0.26819678D-04 -0.23193823D-04  0.90804599D-05
  0.14113363D-04 -0.18564902D-13 -0.11766239D-13 -0.94504943D-04 -0.46226422D-04
  0.75500461D-05  0.38676376D-04 -0.27253741D-14  0.15816640D-13  0.21363965D-04
  0.72586930D-14  0.79250693D-04 -0.10712939D-03 -0.20984905D-13 -0.11386259D-03
  0.15916174D-04 -0.79117376D-15 -0.12388949D-03  0.30547200D-03  0.11110422D-12
 -0.21316330D-14 -0.16370081D-04  0.44039223D-04  0.11707859D-13  0.99206632D-04
 -0.74702538D-04 -0.53129596D-14 -0.50096387D-04 -0.57415132D-04 -0.36994061D-13
MO    3     MO 0.0        OCC NO =    2.0000101  ORB. ENERGY =    0.000000
  0.19858028D+00  0.37019365D+00  0.62567770D+00  0.94051028D+00  0.11552484D+01
  0.97498892D+00  0.36662129D+00  0.26907728D-04  0.20111860D-03  0.75162611D-03
  0.20969198D-02  0.28092944D-02 -0.33172529D-02  0.15842752D-01  0.35088383D-03
  0.13345818D-03  0.57077344D-11  0.53513638D-11  0.38104898D-11 -0.22671412D-04
 -0.21255890D-04 -0.15135460D-04 -0.73365609D-02 -0.68784922D-02 -0.48978962D-02
  0.11433973D-11  0.82976434D-05  0.59775985D-03  0.18403468D-12  0.52170918D-05
  0.53602127D-03 -0.27250776D-14  0.26524568D-07  0.65095536D-05 -0.68213413D-03
  0.55283989D-03  0.12929424D-03  0.43327894D-14  0.14362539D-11  0.34754048D-05
  0.20620550D-03 -0.24547211D-03  0.39266601D-04  0.30444032D-14 -0.66056939D-12
  0.55153849D-05 -0.92459260D-05 -0.38385024D-04  0.47630950D-04  0.35358636D-15
  0.40674351D-13  0.16623973D-05 -0.14713168D-12 -0.73299725D-06 -0.73267152D-05
 -0.62394965D-13  0.91278637D-06  0.25996761D-03  0.50379001D-12  0.12862054D-05
 -0.23798746D-03  0.74687659D-14  0.43469173D-13  0.66783136D-05 -0.14804655D-03
  0.10444604D-12 -0.76556934D-06  0.17508502D-06 -0.23485356D-12 -0.19269371D-04
  0.44396457D-03 -0.81436315D-14 -0.99305587D-01 -0.18566180D+00 -0.32087877D+00
 -0.51900818D+00 -0.78446350D+00 -0.10803687D+01 -0.12628194D+01 -0.10914139D+01
 -0.50936856D+00 -0.69008263D-01  0.50473637D-03 -0.12517679D-02 -0.16091350D-01
 -0.58698933D-01 -0.19804874D+00 -0.43500391D+00 -0.56190640D+00  0.90303139D-01
  0.75753600D+00  0.41572599D+00 -0.54997956D-05 -0.62646091D-04 -0.13007587D-03
 -0.35767560D-03  0.46376749D-04  0.16172462D-02  0.40336688D-02 -0.33390126D-02
  0.24970855D-01 -0.17611619D-02 -0.19272277D-03 -0.13986419D-07 -0.18349386D-07
 -0.20125306D-07 -0.16558495D-07 -0.87286972D-08 -0.22710428D-08 -0.62892801D-01
 -0.82511778D-01 -0.90497563D-01 -0.74458669D-01 -0.39250377D-01 -0.10212210D-01
 -0.50355077D+01 -0.66062998D+01 -0.72456811D+01 -0.59615281D+01 -0.31425787D+01
 -0.81763986D+00 -0.82416309D-13 -0.29583854D-11 -0.46935526D-11 -0.55734498D-11
 -0.84340986D-12  0.61381789D-11 -0.60117409D-06 -0.21579523D-04 -0.34236455D-04
 -0.40654740D-04 -0.61521337D-05  0.44774076D-04 -0.40943240D-04 -0.14696835D-02
 -0.23316896D-02 -0.27688099D-02 -0.41899392D-03  0.30493592D-02 -0.10538317D-09
 -0.48577481D-03 -0.39571868D-01 -0.31511935D-13  0.30217655D-05  0.43517565D-03
  0.25428462D-13  0.35708701D-07  0.63032955D-05  0.27889337D-03  0.20488450D-03
 -0.48377787D-03 -0.43419414D-14 -0.82007176D-12 -0.17915456D-04 -0.30920298D-04
 -0.29526580D-03  0.32618610D-03  0.39239343D-14  0.36754236D-12  0.96023514D-05
  0.85796094D-05  0.97132196D-05 -0.18292829D-04  0.16907948D-15  0.30340741D-13
 -0.20986179D-06 -0.11923307D-12 -0.13813337D-05  0.11309129D-03  0.45255543D-13
 -0.18692191D-05 -0.27381801D-03  0.31244367D-12  0.60132202D-05 -0.65455874D-04
  0.25371592D-14 -0.12285696D-13 -0.47259015D-06  0.27183610D-04 -0.39758092D-13
 -0.63698126D-06 -0.56074070D-04  0.76615180D-13  0.20547517D-05 -0.25476760D-04
  0.10430777D-14 -0.51687995D-01 -0.96346511D-01 -0.16332880D+00 -0.24730189D+00
 -0.30918183D+00 -0.26595182D+00 -0.10199825D+00 -0.81808738D-05 -0.10829945D-03
 -0.39336331D-03 -0.11669048D-02 -0.13446221D-02  0.16332439D-02 -0.44385183D-02
  0.10902396D-02  0.14384018D-03 -0.92536453D-11 -0.90498630D-11 -0.59796271D-11
 -0.46287265D-02 -0.45267934D-02 -0.29910438D-02 -0.11943966D-02 -0.11680938D-02
 -0.77180898D-03 -0.21736359D-11 -0.49382867D-03  0.22463586D-03 -0.49980916D-12
 -0.70823889D-04  0.21589869D-03  0.87102026D-15 -0.28076013D-05  0.28845048D-04
 -0.15155872D-03  0.17795390D-03 -0.26395185D-04  0.54050153D-12  0.19989904D-12
  0.41189558D-03  0.10745777D-03 -0.40168228D-04 -0.67289546D-04 -0.14949098D-12
  0.80645861D-13 -0.28762040D-03  0.82477122D-04 -0.34242422D-04 -0.48234700D-04
 -0.17094908D-13 -0.11566399D-12  0.75827455D-04 -0.15406427D-13  0.11328377D-03
  0.22939563D-03  0.18682538D-12 -0.34743820D-03 -0.23605002D-03 -0.14060610D-12
  0.75868859D-05 -0.45213689D-03  0.85388281D-12  0.87296046D-14 -0.25390662D-04
 -0.66491599D-04 -0.11099659D-12  0.31419482D-03  0.27314742D-03  0.84807776D-13
 -0.23802283D-03 -0.73672619D-04 -0.31458041D-12 -0.51850716D-01 -0.96649823D-01
 -0.16384298D+00 -0.24808043D+00 -0.31015518D+00 -0.26678907D+00 -0.10231935D+00
 -0.82241917D-05 -0.10887290D-03 -0.39544618D-03 -0.11730836D-02 -0.13517420D-02
  0.16418919D-02 -0.44502913D-02  0.11019181D-02  0.14597807D-03 -0.91732610D-11
 -0.89712489D-11 -0.59276835D-11  0.46491773D-02  0.45467938D-02  0.30042589D-02
 -0.11893825D-02 -0.11631901D-02 -0.76856890D-03 -0.21524463D-11  0.49478077D-03
  0.21805936D-03 -0.50895837D-12  0.38333345D-04  0.17714241D-03  0.70139011D-15
  0.27541572D-05  0.28308644D-04 -0.15483274D-03  0.16721123D-03 -0.12378481D-04
 -0.53215870D-12  0.21493743D-12 -0.41263178D-03  0.11111944D-03 -0.33096105D-04
 -0.78023333D-04  0.14736772D-12  0.82695535D-13  0.29312829D-03  0.82928458D-04
 -0.21890123D-04 -0.61038335D-04  0.24360433D-13 -0.11756635D-12 -0.72326488D-04
 -0.22104802D-13 -0.11127543D-03  0.22910820D-03  0.20972569D-12  0.34906036D-03
 -0.21885549D-03 -0.14341128D-12 -0.15234076D-04 -0.46846910D-03 -0.90826262D-12
  0.91824600D-14  0.23274305D-04 -0.68350645D-04 -0.11544210D-12 -0.31496021D-03
  0.26920450D-03  0.87894720D-13  0.24513729D-03 -0.64152562D-04  0.32181072D-12
MO    4     MO 0.0        OCC NO =    2.0000090  ORB. ENERGY =    0.000000
  0.36694868D-09  0.68406626D-09  0.11561652D-08  0.17379319D-08  0.21347381D-08
  0.18016436D-08  0.67746505D-09  0.46203699D-13  0.34534402D-12  0.12906295D-11
  0.36006553D-11  0.48238853D-11 -0.56961091D-11  0.29283832D-10  0.36056698D-12
  0.14102579D-12 -0.39854126D-02 -0.37365776D-02 -0.26606659D-02 -0.18675231D-12
 -0.17509217D-12 -0.12467605D-12 -0.11738205D-10 -0.11005314D-10 -0.78364389D-11
 -0.79018228D-03 -0.18793555D-12  0.94839079D-12 -0.12196439D-03  0.52375467D-13
  0.87798734D-12  0.20123594D-05 -0.44885152D-14  0.51835647D-14 -0.14246307D-11
  0.10451555D-11  0.37947523D-12 -0.27207408D-05 -0.10067583D-02  0.27617754D-12
  0.31591860D-12 -0.36908397D-12  0.53165367D-13  0.28073539D-05  0.46227975D-03
  0.21880804D-12 -0.98623425D-14 -0.63220709D-13  0.73083051D-13 -0.23834405D-07
 -0.27571343D-04 -0.33371282D-13  0.10238713D-03 -0.14216543D-13  0.17222561D-12
  0.43337597D-04  0.23390468D-12  0.45167955D-12 -0.35049898D-03 -0.19125505D-12
 -0.96835638D-12 -0.89582894D-05 -0.31239181D-04  0.34907581D-13 -0.20858145D-12
 -0.72511110D-04  0.68240462D-14 -0.30719624D-13  0.16622865D-03 -0.11154679D-12
  0.65646397D-12  0.32925471D-05 -0.16079968D-09 -0.30063120D-09 -0.51958006D-09
 -0.84039934D-09 -0.12702355D-08 -0.17493772D-08 -0.20448090D-08 -0.17672622D-08
 -0.82479046D-09 -0.11174101D-09  0.81728984D-12 -0.14527226D-11 -0.18674602D-10
 -0.68122266D-10 -0.22984284D-09 -0.50483800D-09 -0.65211300D-09  0.10480011D-09
  0.87914833D-09  0.48246526D-09 -0.60250559D-14 -0.68629133D-13 -0.14249882D-12
 -0.39183556D-12  0.50805980D-13  0.17717020D-11  0.44189061D-11 -0.36579064D-11
  0.29255854D-10 -0.24962141D-11 -0.21484838D-12  0.97275796D+01  0.12762031D+02
  0.13997186D+02  0.11516463D+02  0.60708246D+01  0.15795144D+01  0.35584508D-09
  0.46684850D-09  0.51203177D-09  0.42128432D-09  0.22207714D-09  0.57780294D-10
 -0.68618708D-08 -0.90023843D-08 -0.98736673D-08 -0.81237560D-08 -0.42823823D-08
 -0.11141953D-08  0.57405686D-04  0.20606133D-02  0.32692147D-02  0.38820922D-02
  0.58746287D-03 -0.42754447D-02  0.29236144D-14  0.10494498D-12  0.16649785D-12
  0.19771109D-12  0.29918899D-13 -0.21774414D-12 -0.61465456D-13 -0.22063413D-11
 -0.35004158D-11 -0.41566364D-11 -0.62900865D-12  0.45778071D-11  0.73295800D-01
  0.23489521D-11 -0.53337986D-10  0.18200878D-04  0.27097375D-13  0.64853224D-12
 -0.17768107D-04  0.16728547D-14  0.61225560D-14  0.40325097D-12  0.27489043D-12
 -0.67814140D-12  0.37264132D-05  0.57555749D-03 -0.19768564D-13  0.65306158D-13
 -0.20538035D-12  0.14007419D-12 -0.32319877D-05 -0.25510518D-03 -0.70754773D-14
  0.95320700D-14  0.14052045D-13 -0.23584115D-13 -0.16841785D-06 -0.20070743D-04
 -0.10763743D-13  0.83299150D-04 -0.41739013D-14  0.22562054D-12 -0.31026259D-04
  0.30076907D-14 -0.47167389D-12 -0.21887119D-03  0.95140132D-14 -0.20518774D-12
 -0.24982375D-05  0.88764356D-05  0.24830930D-15  0.32604216D-13  0.27877667D-04
 -0.32425499D-14 -0.73448861D-13 -0.54506974D-04  0.24976220D-14 -0.24363787D-13
 -0.88010362D-06  0.24040421D-09  0.44811387D-09  0.75965284D-09  0.11502171D-08
  0.14380248D-08  0.12369592D-08  0.47440046D-09  0.15959319D-13  0.21127150D-12
  0.76737654D-12  0.22764080D-11  0.26231005D-11 -0.31861462D-11  0.22937441D-10
  0.16881236D-11  0.35368616D-12  0.63822213D-02  0.62416730D-02  0.41241373D-02
 -0.87762345D-12 -0.85829656D-12 -0.56711283D-12  0.17679963D-11  0.17290618D-11
  0.11424642D-11  0.15004749D-02 -0.11138465D-11 -0.67326103D-13  0.34563817D-03
  0.51418564D-13  0.47211971D-12 -0.75456358D-06  0.14273403D-13  0.47369930D-13
 -0.34862999D-12  0.38220939D-12 -0.33579403D-13 -0.36869398D-03 -0.14900100D-03
  0.10618003D-11  0.32359595D-12 -0.24299765D-12 -0.80598303D-13  0.10378423D-03
 -0.55449601D-04 -0.10900490D-11  0.95315660D-13 -0.46073507D-13 -0.49242154D-13
  0.11490631D-04  0.80737301D-04  0.14857419D-12  0.83184148D-05  0.41592896D-13
  0.29631585D-12 -0.12512735D-03 -0.12086619D-13 -0.15410876D-12  0.10017210D-03
 -0.11269207D-12 -0.73483879D-12 -0.60612295D-03 -0.51515562D-05  0.32209919D-14
 -0.35019832D-13  0.75164711D-04  0.42988798D-12  0.44107031D-12 -0.59710042D-04
 -0.43955095D-12 -0.33601082D-12  0.22105887D-03 -0.16047364D-09 -0.29912315D-09
 -0.50708038D-09 -0.76778827D-09 -0.95990445D-09 -0.82568996D-09 -0.31666987D-09
 -0.21167160D-13 -0.28021356D-12 -0.10177866D-11 -0.30192449D-11 -0.34790699D-11
  0.42258486D-11 -0.14172659D-10  0.18658130D-11  0.16031892D-12  0.63950836D-02
  0.62542521D-02  0.41324488D-02  0.10067266D-10  0.98455666D-11  0.65053822D-11
 -0.47580418D-11 -0.46532609D-11 -0.30746062D-11  0.15032024D-02  0.95416301D-12
 -0.13500968D-12  0.34754086D-03  0.73130940D-13  0.64643644D-13 -0.82007179D-06
  0.19751694D-13  0.44347767D-13 -0.26739540D-12  0.23701576D-12  0.30379638D-13
  0.36345804D-03 -0.14494599D-03 -0.84008143D-12  0.20759043D-12 -0.63145183D-14
 -0.20127591D-12 -0.10081539D-03 -0.58670846D-04  0.61052217D-12  0.14144348D-12
 -0.21652079D-13 -0.11979140D-12 -0.12384220D-04  0.79652918D-04 -0.35944499D-13
  0.78382543D-05 -0.28516935D-12  0.31253368D-12 -0.12507235D-03  0.81520029D-12
 -0.31354403D-12  0.10155759D-03  0.40307752D-13 -0.62405700D-12  0.60505545D-03