 f2cs-wavefunction
GAUSSIAN            188 MOL ORBITALS    330 PRIMITIVES        4 NUCLEI
  C    1    (CENTRE  1)   0.00000000  0.00000000 -0.98331710  CHARGE =  6.0
  S    2    (CENTRE  2)   0.00000000  0.00000000  2.03811688  CHARGE = 16.0
  F    3    (CENTRE  3)   0.00000000 -1.99407870 -2.46710928  CHARGE =  9.0
  F    4    (CENTRE  4)   0.00000000  1.99407870 -2.44821201  CHARGE =  9.0
CENTRE ASSIGNMENTS    1  1  1  1  1  1  1  1  1  1  1  1  1  1  1  1  1  1  1  1
CENTRE ASSIGNMENTS    1  1  1  1  1  1  1  1  1  1  1  1  1  1  1  1  1  1  1  1
CENTRE ASSIGNMENTS    1  1  1  1  1  1  1  1  1  1  1  1  1  1  1  1  1  1  1  1
CENTRE ASSIGNMENTS    1  1  1  1  1  1  1  1  1  1  1  1  2  2  2  2  2  2  2  2
CENTRE ASSIGNMENTS    2  2  2  2  2  2  2  2  2  2  2  2  2  2  2  2  2  2  2  2
CENTRE ASSIGNMENTS    2  2  2  2  2  2  2  2  2  2  2  2  2  2  2  2  2  2  2  2
CENTRE ASSIGNMENTS    2  2  2  2  2  2  2  2  2  2  2  2  2  2  2  2  2  2  2  2
CENTRE ASSIGNMENTS    2  2  2  2  2  2  2  2  2  2  2  2  2  2  2  2  2  2  2  2
CENTRE ASSIGNMENTS    2  2  2  2  2  2  2  2  2  2  2  2  2  2  2  2  2  2  2  2
CENTRE ASSIGNMENTS    2  2  2  2  2  2  3  3  3  3  3  3  3  3  3  3  3  3  3  3
CENTRE ASSIGNMENTS    3  3  3  3  3  3  3  3  3  3  3  3  3  3  3  3  3  3  3  3
CENTRE ASSIGNMENTS    3  3  3  3  3  3  3  3  3  3  3  3  3  3  3  3  3  3  3  3
CENTRE ASSIGNMENTS    3  3  3  3  3  3  3  3  3  3  3  3  3  3  3  3  3  3  4  4
CENTRE ASSIGNMENTS    4  4  4  4  4  4  4  4  4  4  4  4  4  4  4  4  4  4  4  4
CENTRE ASSIGNMENTS    4  4  4  4  4  4  4  4  4  4  4  4  4  4  4  4  4  4  4  4
CENTRE ASSIGNMENTS    4  4  4  4  4  4  4  4  4  4  4  4  4  4  4  4  4  4  4  4
CENTRE ASSIGNMENTS    4  4  4  4  4  4  4  4  4  4
TYPE ASSIGNMENTS      1  1  1  1  1  1  1  1  1  1  1  1  1  1  1  1  2  2  2  3
TYPE ASSIGNMENTS      3  3  4  4  4  2  3  4  2  3  4  2  3  4  5  6  7  8  9 10
TYPE ASSIGNMENTS      5  6  7  8  9 10  5  6  7  8  9 10 11 12 13 17 14 15 18 19
TYPE ASSIGNMENTS     16 20 11 12 13 17 14 15 18 19 16 20  1  1  1  1  1  1  1  1
TYPE ASSIGNMENTS      1  1  1  1  1  1  1  1  1  1  1  1  1  1  1  1  1  1  1  1
TYPE ASSIGNMENTS      1  1  1  2  2  2  2  2  2  3  3  3  3  3  3  4  4  4  4  4
TYPE ASSIGNMENTS      4  2  2  2  2  2  2  3  3  3  3  3  3  4  4  4  4  4  4  2
TYPE ASSIGNMENTS      3  4  2  3  4  2  3  4  5  6  7  8  9 10  5  6  7  8  9 10
TYPE ASSIGNMENTS      5  6  7  8  9 10 11 12 13 17 14 15 18 19 16 20 11 12 13 17
TYPE ASSIGNMENTS     14 15 18 19 16 20  1  1  1  1  1  1  1  1  1  1  1  1  1  1
TYPE ASSIGNMENTS      1  1  2  2  2  3  3  3  4  4  4  2  3  4  2  3  4  2  3  4
TYPE ASSIGNMENTS      5  6  7  8  9 10  5  6  7  8  9 10  5  6  7  8  9 10 11 12
TYPE ASSIGNMENTS     13 17 14 15 18 19 16 20 11 12 13 17 14 15 18 19 16 20  1  1
TYPE ASSIGNMENTS      1  1  1  1  1  1  1  1  1  1  1  1  1  1  2  2  2  3  3  3
TYPE ASSIGNMENTS      4  4  4  2  3  4  2  3  4  2  3  4  5  6  7  8  9 10  5  6
TYPE ASSIGNMENTS      7  8  9 10  5  6  7  8  9 10 11 12 13 17 14 15 18 19 16 20
TYPE ASSIGNMENTS     11 12 13 17 14 15 18 19 16 20
EXPONENTS  0.8236000D+04 0.1235000D+04 0.2808000D+03 0.7927000D+02 0.2559000D+02
EXPONENTS  0.8997000D+01 0.3319000D+01 0.2808000D+03 0.7927000D+02 0.2559000D+02
EXPONENTS  0.8997000D+01 0.3319000D+01 0.3643000D+00 0.9059000D+00 0.1285000D+00
EXPONENTS  0.4402000D-01 0.1871000D+02 0.4133000D+01 0.1200000D+01 0.1871000D+02
EXPONENTS  0.4133000D+01 0.1200000D+01 0.1871000D+02 0.4133000D+01 0.1200000D+01
EXPONENTS  0.3827000D+00 0.3827000D+00 0.3827000D+00 0.1209000D+00 0.1209000D+00
EXPONENTS  0.1209000D+00 0.3569000D-01 0.3569000D-01 0.3569000D-01 0.1097000D+01
EXPONENTS  0.1097000D+01 0.1097000D+01 0.1097000D+01 0.1097000D+01 0.1097000D+01
EXPONENTS  0.3180000D+00 0.3180000D+00 0.3180000D+00 0.3180000D+00 0.3180000D+00
EXPONENTS  0.3180000D+00 0.1000000D+00 0.1000000D+00 0.1000000D+00 0.1000000D+00
EXPONENTS  0.1000000D+00 0.1000000D+00 0.7610000D+00 0.7610000D+00 0.7610000D+00
EXPONENTS  0.7610000D+00 0.7610000D+00 0.7610000D+00 0.7610000D+00 0.7610000D+00
EXPONENTS  0.7610000D+00 0.7610000D+00 0.2680000D+00 0.2680000D+00 0.2680000D+00
EXPONENTS  0.2680000D+00 0.2680000D+00 0.2680000D+00 0.2680000D+00 0.2680000D+00
EXPONENTS  0.2680000D+00 0.2680000D+00 0.3741000D+06 0.5605000D+05 0.1276000D+05
EXPONENTS  0.3615000D+04 0.1183000D+04 0.4288000D+03 0.1678000D+03 0.6947000D+02
EXPONENTS  0.2984000D+02 0.1272000D+02 0.5244000D+01 0.3615000D+04 0.1183000D+04
EXPONENTS  0.4288000D+03 0.1678000D+03 0.6947000D+02 0.2984000D+02 0.1272000D+02
EXPONENTS  0.5244000D+01 0.2219000D+01 0.1183000D+04 0.1678000D+03 0.6947000D+02
EXPONENTS  0.2984000D+02 0.1272000D+02 0.5244000D+01 0.2219000D+01 0.3490000D+00
EXPONENTS  0.7767000D+00 0.1322000D+00 0.4970000D-01 0.5744000D+03 0.1358000D+03
EXPONENTS  0.4319000D+02 0.1587000D+02 0.6208000D+01 0.2483000D+01 0.5744000D+03
EXPONENTS  0.1358000D+03 0.4319000D+02 0.1587000D+02 0.6208000D+01 0.2483000D+01
EXPONENTS  0.5744000D+03 0.1358000D+03 0.4319000D+02 0.1587000D+02 0.6208000D+01
EXPONENTS  0.2483000D+01 0.1358000D+03 0.4319000D+02 0.1587000D+02 0.6208000D+01
EXPONENTS  0.2483000D+01 0.3229000D+00 0.1358000D+03 0.4319000D+02 0.1587000D+02
EXPONENTS  0.6208000D+01 0.2483000D+01 0.3229000D+00 0.1358000D+03 0.4319000D+02
EXPONENTS  0.1587000D+02 0.6208000D+01 0.2483000D+01 0.3229000D+00 0.8688000D+00
EXPONENTS  0.8688000D+00 0.8688000D+00 0.1098000D+00 0.1098000D+00 0.1098000D+00
EXPONENTS  0.3510000D-01 0.3510000D-01 0.3510000D-01 0.2690000D+00 0.2690000D+00
EXPONENTS  0.2690000D+00 0.2690000D+00 0.2690000D+00 0.2690000D+00 0.8190000D+00
EXPONENTS  0.8190000D+00 0.8190000D+00 0.8190000D+00 0.8190000D+00 0.8190000D+00
EXPONENTS  0.1010000D+00 0.1010000D+00 0.1010000D+00 0.1010000D+00 0.1010000D+00
EXPONENTS  0.1010000D+00 0.5570000D+00 0.5570000D+00 0.5570000D+00 0.5570000D+00
EXPONENTS  0.5570000D+00 0.5570000D+00 0.5570000D+00 0.5570000D+00 0.5570000D+00
EXPONENTS  0.5570000D+00 0.2180000D+00 0.2180000D+00 0.2180000D+00 0.2180000D+00
EXPONENTS  0.2180000D+00 0.2180000D+00 0.2180000D+00 0.2180000D+00 0.2180000D+00
EXPONENTS  0.2180000D+00 0.1950000D+05 0.2923000D+04 0.6645000D+03 0.1875000D+03
EXPONENTS  0.6062000D+02 0.2142000D+02 0.7950000D+01 0.6645000D+03 0.1875000D+03
EXPONENTS  0.6062000D+02 0.2142000D+02 0.7950000D+01 0.8815000D+00 0.2257000D+01
EXPONENTS  0.3041000D+00 0.9158000D-01 0.4388000D+02 0.9926000D+01 0.2930000D+01
EXPONENTS  0.4388000D+02 0.9926000D+01 0.2930000D+01 0.4388000D+02 0.9926000D+01
EXPONENTS  0.2930000D+01 0.9132000D+00 0.9132000D+00 0.9132000D+00 0.2672000D+00
EXPONENTS  0.2672000D+00 0.2672000D+00 0.7361000D-01 0.7361000D-01 0.7361000D-01
EXPONENTS  0.3107000D+01 0.3107000D+01 0.3107000D+01 0.3107000D+01 0.3107000D+01
EXPONENTS  0.3107000D+01 0.8550000D+00 0.8550000D+00 0.8550000D+00 0.8550000D+00
EXPONENTS  0.8550000D+00 0.8550000D+00 0.2920000D+00 0.2920000D+00 0.2920000D+00
EXPONENTS  0.2920000D+00 0.2920000D+00 0.2920000D+00 0.1917000D+01 0.1917000D+01
EXPONENTS  0.1917000D+01 0.1917000D+01 0.1917000D+01 0.1917000D+01 0.1917000D+01
EXPONENTS  0.1917000D+01 0.1917000D+01 0.1917000D+01 0.7240000D+00 0.7240000D+00
EXPONENTS  0.7240000D+00 0.7240000D+00 0.7240000D+00 0.7240000D+00 0.7240000D+00
EXPONENTS  0.7240000D+00 0.7240000D+00 0.7240000D+00 0.1950000D+05 0.2923000D+04
EXPONENTS  0.6645000D+03 0.1875000D+03 0.6062000D+02 0.2142000D+02 0.7950000D+01
EXPONENTS  0.6645000D+03 0.1875000D+03 0.6062000D+02 0.2142000D+02 0.7950000D+01
EXPONENTS  0.8815000D+00 0.2257000D+01 0.3041000D+00 0.9158000D-01 0.4388000D+02
EXPONENTS  0.9926000D+01 0.2930000D+01 0.4388000D+02 0.9926000D+01 0.2930000D+01
EXPONENTS  0.4388000D+02 0.9926000D+01 0.2930000D+01 0.9132000D+00 0.9132000D+00
EXPONENTS  0.9132000D+00 0.2672000D+00 0.2672000D+00 0.2672000D+00 0.7361000D-01
EXPONENTS  0.7361000D-01 0.7361000D-01 0.3107000D+01 0.3107000D+01 0.3107000D+01
EXPONENTS  0.3107000D+01 0.3107000D+01 0.3107000D+01 0.8550000D+00 0.8550000D+00
EXPONENTS  0.8550000D+00 0.8550000D+00 0.8550000D+00 0.8550000D+00 0.2920000D+00
EXPONENTS  0.2920000D+00 0.2920000D+00 0.2920000D+00 0.2920000D+00 0.2920000D+00
EXPONENTS  0.1917000D+01 0.1917000D+01 0.1917000D+01 0.1917000D+01 0.1917000D+01
EXPONENTS  0.1917000D+01 0.1917000D+01 0.1917000D+01 0.1917000D+01 0.1917000D+01
EXPONENTS  0.7240000D+00 0.7240000D+00 0.7240000D+00 0.7240000D+00 0.7240000D+00
EXPONENTS  0.7240000D+00 0.7240000D+00 0.7240000D+00 0.7240000D+00 0.7240000D+00
MO    1     MO 0.0        OCC NO =    2.0000304  ORB. ENERGY =    0.000000
  0.56132739D-03  0.10464273D-02  0.17686048D-02  0.26585429D-02  0.32655437D-02
  0.27560037D-02  0.10363294D-02  0.16147496D-06  0.12069253D-05  0.45105554D-05
  0.12583747D-04  0.16858752D-04 -0.19907043D-04  0.38022505D-04  0.14028323D-04
 -0.11527569D-05  0.27757869D-12  0.26024766D-12  0.18531184D-12 -0.30660767D-02
 -0.28746418D-02 -0.20469162D-02 -0.65463341D-04 -0.61376043D-04 -0.43703399D-04
  0.59605901D-13 -0.15602083D-02 -0.38585978D-05  0.21895631D-13  0.60531851D-03
  0.17124182D-05  0.11123393D-15 -0.13597774D-04 -0.21316895D-06 -0.10292365D-05
  0.57424710D-05 -0.47132345D-05  0.21717421D-14  0.70401494D-13 -0.10235572D-02
 -0.52728042D-06 -0.41188013D-05  0.46460817D-05 -0.22373292D-14 -0.30246342D-13
  0.40048020D-03  0.16185665D-06  0.32645894D-06 -0.48831559D-06  0.33377291D-15
  0.60616891D-14 -0.22710964D-03 -0.64102033D-14  0.23973491D-03 -0.10985413D-05
 -0.15404954D-14  0.36041695D-03  0.28146974D-05  0.20771105D-13 -0.10796217D-02
  0.48092646D-06  0.31921528D-14  0.11597470D-14 -0.13537704D-03 -0.56360233D-06
  0.60516686D-14 -0.12841888D-03  0.38384095D-06 -0.95309095D-14  0.53455000D-03
  0.13069660D-05  0.87892443D-15  0.64007149D-03  0.11966781D-02  0.20682155D-02
  0.33452533D-02  0.50562384D-02  0.69634872D-02  0.81394685D-02  0.70346791D-02
  0.32831214D-02  0.44479091D-03 -0.32532647D-05  0.79357506D-05  0.10201327D-03
  0.37212976D-03  0.12555566D-02  0.27577657D-02  0.35622810D-02 -0.57248887D-03
 -0.48025012D-02 -0.26355507D-02  0.79303704D-07  0.90331849D-06  0.18756148D-05
  0.51574644D-05 -0.66872449D-06 -0.23319705D-04 -0.58163048D-04  0.48146529D-04
 -0.14250108D-03 -0.53832707D-05  0.12289914D-05 -0.70345406D-09 -0.92289172D-09
 -0.10122125D-08 -0.83281794D-09 -0.43901426D-09 -0.11422325D-09  0.97649536D+01
  0.12811064D+02  0.14050964D+02  0.11560710D+02  0.60941491D+01  0.15855830D+01
 -0.74792734D-01 -0.98123814D-01 -0.10762059D+00 -0.88546978D-01 -0.46676932D-01
 -0.12144460D-01 -0.41821752D-14 -0.15012182D-12 -0.23817203D-12 -0.28282198D-12
 -0.42798420D-13  0.31147888D-12  0.94550341D-04  0.33939442D-02  0.53845775D-02
  0.63940206D-02  0.96758385D-03 -0.70418939D-02 -0.71438681D-06 -0.25643365D-04
 -0.40683842D-04 -0.48310814D-04 -0.73106996D-05  0.53205901D-04 -0.53057398D-11
  0.67606407D-01 -0.53764180D-03 -0.13513661D-13 -0.37337380D-03  0.71045377D-05
  0.97396834D-15 -0.69296196D-05  0.33979566D-07  0.31739595D-05  0.25428929D-05
 -0.57168524D-05 -0.38028071D-16 -0.36137567D-13  0.95606381D-03 -0.10308425D-05
  0.97404576D-06  0.56796782D-07  0.13589008D-14  0.14237943D-13 -0.54799638D-03
  0.26825271D-06  0.20150210D-06 -0.46975481D-06 -0.14163496D-15  0.50585625D-14
 -0.42909600D-04 -0.68901814D-14  0.34869150D-04  0.69064409D-06  0.16871318D-14
  0.10995173D-03 -0.15202328D-05  0.18983413D-13 -0.21455917D-03 -0.55169944D-06
 -0.74891981D-15  0.74358765D-16  0.34494584D-04  0.51860880D-06 -0.14688910D-14
  0.16139654D-04 -0.81305133D-06  0.12458148D-14 -0.11962341D-03 -0.74277507D-06
  0.45444776D-15  0.48953850D-02  0.91250061D-02  0.15468918D-01  0.23422034D-01
  0.29282701D-01  0.25188374D-01  0.96602837D-02 -0.71301552D-06 -0.94389904D-05
 -0.34284130D-04 -0.10170323D-03 -0.11719243D-03  0.14234766D-03  0.57644370D-03
  0.10041775D-03  0.85105888D-03 -0.49609702D-12 -0.48517205D-12 -0.32057369D-12
 -0.13255584D-02 -0.12963671D-02 -0.85656457D-03 -0.39146601D-02 -0.38284521D-02
 -0.25296202D-02 -0.11529399D-12 -0.38799541D-03 -0.10870556D-02 -0.30422198D-13
 -0.14800641D-03 -0.72940272D-03  0.88737475D-15  0.91777825D-04  0.12413100D-04
  0.21058667D-04  0.28711039D-04 -0.49769706D-04  0.42475862D-13  0.23350294D-14
  0.26555339D-03 -0.50784880D-04 -0.12794713D-03  0.17873201D-03 -0.12955642D-13
  0.77974610D-14 -0.15580033D-03  0.11036752D-03 -0.22169246D-04 -0.88198277D-04
 -0.23712030D-14 -0.93296638D-14 -0.27196500D-03 -0.26129724D-14 -0.19107569D-04
 -0.55029256D-04  0.12808162D-13 -0.33191007D-03  0.26044939D-04 -0.49692449D-14
  0.38923278D-03  0.13904283D-03  0.52659852D-13  0.20914416D-14 -0.62993074D-04
  0.94320876D-04 -0.85492397D-14  0.20107028D-03 -0.39703280D-04  0.22749148D-14
 -0.12091059D-04 -0.24325935D-03 -0.19808925D-13 -0.51462091D-02 -0.95925426D-02
 -0.16261497D-01 -0.24622105D-01 -0.30783055D-01 -0.26478947D-01 -0.10155246D-01
  0.63438758D-06  0.83981037D-05  0.30503441D-04  0.90487882D-04  0.10426901D-03
 -0.12665024D-03 -0.59392153D-03 -0.81301640D-04 -0.85379883D-03 -0.51956875D-12
 -0.50812689D-12 -0.33574092D-12 -0.12743854D-02 -0.12463211D-02 -0.82349705D-03
  0.39529843D-02  0.38659323D-02  0.25543849D-02 -0.12274638D-12 -0.38438093D-03
  0.10961169D-02 -0.29005052D-13 -0.15075544D-03  0.74660221D-03  0.41722582D-15
  0.92192520D-04 -0.11159629D-04 -0.26508807D-04 -0.25691876D-04  0.52200683D-04
 -0.35765198D-13 -0.64278442D-15  0.26306717D-03  0.55798923D-04  0.13239583D-03
 -0.18819475D-03  0.11451830D-13  0.98859020D-14 -0.14816573D-03 -0.10985610D-03
  0.22150705D-04  0.87705390D-04  0.39740719D-15 -0.88232502D-14 -0.27866266D-03
 -0.52239411D-14 -0.28593965D-04  0.55027808D-04  0.14329771D-13 -0.32780822D-03
 -0.19119998D-04  0.13420527D-14  0.41359012D-03 -0.14596343D-03 -0.32975748D-13
  0.10985672D-14 -0.62646192D-04 -0.95487073D-04 -0.58461647D-14  0.19734359D-03
  0.42648863D-04  0.25504632D-14 -0.94050093D-05  0.24381236D-03  0.13402023D-13
MO    2     MO 0.0        OCC NO =    2.0000247  ORB. ENERGY =    0.000000
 -0.59256785D-01 -0.11046658D+00 -0.18670358D+00 -0.28065030D+00 -0.34472863D+00
 -0.29093880D+00 -0.10940059D+00 -0.94460146D-05 -0.70603107D-04 -0.26385993D-03
 -0.73612812D-03 -0.98620874D-03  0.11645286D-02 -0.44912054D-02 -0.13865083D-02
 -0.56035844D-04  0.53097456D-12  0.49782240D-12  0.35447921D-12 -0.36615572D-04
 -0.34329427D-04 -0.24444597D-04  0.29257119D-02  0.27430409D-02  0.19532085D-02
  0.10873199D-12 -0.11147813D-04 -0.42069029D-03  0.70683040D-14  0.35757575D-05
 -0.93702711D-03 -0.71540600D-15 -0.11497120D-06  0.78920077D-05  0.25721972D-03
 -0.10091632D-03 -0.15630340D-03  0.69039489D-15  0.12420769D-12 -0.25264486D-05
  0.10356182D-03  0.15406799D-03 -0.25762980D-03  0.52975947D-14 -0.62663149D-13
 -0.89052174D-06  0.17173524D-04  0.61717252D-04 -0.78890776D-04 -0.57144155D-15
  0.62316741D-15 -0.17065540D-05 -0.13838801D-13  0.14355074D-05 -0.35942571D-04
 -0.34598044D-14  0.32689977D-05 -0.99658426D-04  0.44976207D-13 -0.75755199D-05
  0.20748614D-03 -0.19518505D-14  0.42751248D-14 -0.19599732D-05  0.46334895D-04
  0.83691401D-14 -0.49517103D-06  0.26063558D-04 -0.21194515D-13  0.63750906D-05
 -0.16506824D-03 -0.27417173D-14 -0.12708133D+00 -0.23759135D+00 -0.41062848D+00
 -0.66417463D+00 -0.10038777D+01 -0.13825475D+01 -0.16160297D+01 -0.13966821D+01
 -0.65183881D+00 -0.88309856D-01  0.64591100D-03 -0.15843056D-02 -0.20366090D-01
 -0.74292567D-01 -0.25066128D+00 -0.55056465D+00 -0.71117935D+00  0.11429257D+00
  0.95877883D+00  0.52616546D+00 -0.13260788D-04 -0.15104862D-03 -0.31363138D-03
 -0.86240664D-03  0.11182093D-03  0.38994101D-02  0.97257480D-02 -0.80508334D-02
  0.29269513D-01  0.15593980D-02  0.73881057D-04 -0.12357653D-08 -0.16212538D-08
 -0.17781646D-08 -0.14630202D-08 -0.77122109D-09 -0.20065722D-09  0.78121510D-01
  0.10249098D+00  0.11241042D+00  0.92487909D-01  0.48754367D-01  0.12684969D-01
  0.62273735D+01  0.81699599D+01  0.89606778D+01  0.73725758D+01  0.38864027D+01
  0.10111689D+01 -0.72561610D-14 -0.26046448D-12 -0.41323342D-12 -0.49070201D-12
 -0.74256148D-13  0.54042233D-12  0.71579498D-06  0.25693912D-04  0.40764036D-04
  0.48406043D-04  0.73251101D-05 -0.53310779D-04  0.57800975D-04  0.20748025D-02
  0.32917261D-02  0.39088238D-02  0.59150807D-03 -0.43048849D-02 -0.93059023D-11
  0.55468933D-03  0.46027579D-01  0.61891384D-14 -0.14026625D-05 -0.79195126D-03
  0.26491464D-14 -0.12309224D-07 -0.62822924D-05 -0.25842554D-03 -0.14562615D-03
  0.40405169D-03  0.86233385D-15 -0.75857947D-13  0.78438534D-05  0.15130345D-03
 -0.37155204D-03  0.22024858D-03  0.14087575D-15  0.33443284D-13  0.34726053D-06
 -0.14698330D-04 -0.27327559D-04  0.42025889D-04  0.24866435D-15 -0.17110874D-15
 -0.48504595D-06 -0.10153336D-13  0.34133418D-06 -0.88394473D-04  0.49665756D-14
  0.73822950D-06  0.21697470D-03  0.25493434D-13 -0.17622320D-05  0.48208714D-04
  0.20099175D-15 -0.15830886D-14  0.27113856D-06 -0.22155851D-04 -0.40166584D-14
  0.11343784D-06  0.31894430D-04  0.87659243D-14 -0.92685352D-06  0.34573123D-04
 -0.73018864D-15  0.65743449D-02  0.12254590D-01  0.20774261D-01  0.31455040D-01
  0.39325728D-01  0.33827178D-01  0.12973451D-01  0.15028332D-05  0.19894698D-04
  0.72261162D-04  0.21436138D-03  0.24700819D-03 -0.30002824D-03  0.51993264D-03
 -0.38009869D-03 -0.24452786D-03 -0.69292341D-12 -0.67766396D-12 -0.44776123D-12
  0.94627488D-04  0.92543616D-04  0.61147480D-04 -0.97346127D-03 -0.95202386D-03
 -0.62904241D-03 -0.16092918D-12 -0.92554788D-04 -0.39656666D-03 -0.37208329D-13
  0.80088914D-05 -0.92922572D-04 -0.46659785D-15 -0.39899112D-05 -0.59833857D-04
  0.36037881D-04 -0.10730843D-03  0.71270547D-04  0.35151298D-13  0.28464494D-13
 -0.32358249D-04 -0.20106289D-04  0.10055870D-04  0.10050420D-04 -0.84879573D-14
  0.41593888D-14  0.86290907D-04 -0.44985865D-04  0.11846352D-04  0.33139514D-04
 -0.30632909D-15 -0.65014600D-14 -0.23151587D-04  0.14386553D-14 -0.78713989D-04
 -0.10986739D-03  0.12161640D-13  0.10569759D-03  0.29426851D-04 -0.16477606D-13
  0.13044437D-03  0.30017533D-03  0.75016384D-13  0.36385088D-15  0.15842369D-04
  0.45230802D-04 -0.98073847D-14 -0.95002258D-04 -0.79129447D-04  0.87158321D-14
  0.47475150D-04 -0.56562958D-04 -0.22706807D-13  0.65703713D-02  0.12247183D-01
  0.20761704D-01  0.31436028D-01  0.39301959D-01  0.33806733D-01  0.12965610D-01
  0.15449666D-05  0.20452465D-04  0.74287075D-04  0.22037121D-03  0.25393331D-03
 -0.30843982D-03  0.51425039D-03 -0.38765470D-03 -0.25969347D-03 -0.58902826D-12
 -0.57605678D-12 -0.38062507D-12 -0.13391733D-03 -0.13096823D-03 -0.86536245D-04
 -0.88193957D-03 -0.86251764D-03 -0.56990187D-03 -0.13941095D-12  0.82946826D-04
 -0.37028859D-03 -0.39263269D-13 -0.18867454D-05 -0.72664824D-04  0.38965503D-15
  0.56150995D-05 -0.59977246D-04  0.36797188D-04 -0.10466302D-03  0.67865835D-04
 -0.49362343D-13  0.43295659D-13  0.27917237D-04 -0.22109399D-04  0.10582217D-04
  0.11527182D-04  0.96726948D-14 -0.10012094D-14 -0.92926593D-04 -0.46432679D-04
  0.89292764D-05  0.37503403D-04  0.42197612D-14 -0.80622470D-14  0.19838779D-04
 -0.45436639D-14  0.77476409D-04 -0.10786045D-03  0.35712834D-13 -0.11280066D-03
  0.22289876D-04 -0.22081842D-13 -0.11962856D-03  0.30129148D-03 -0.89662191D-13
  0.18455504D-14 -0.16022390D-04  0.43892095D-04 -0.14308296D-13  0.98696283D-04
 -0.76367101D-04  0.87716445D-14 -0.50629114D-04 -0.55309183D-04  0.32860655D-13
MO    3     MO 0.0        OCC NO =    2.0000101  ORB. ENERGY =    0.000000
  0.19911723D+00  0.37119462D+00  0.62736948D+00  0.94305335D+00  0.11583721D+01
  0.97762521D+00  0.36761261D+00  0.26988427D-04  0.20172177D-03  0.75388031D-03
  0.21032087D-02  0.28177198D-02 -0.33272017D-02  0.15876614D-01  0.35148815D-03
  0.13258404D-03 -0.84447294D-11 -0.79174706D-11 -0.56377107D-11  0.30411248D-04
  0.28512478D-04  0.20302583D-04 -0.73239461D-02 -0.68666650D-02 -0.48894745D-02
 -0.16685721D-11  0.62246207D-05  0.60116718D-03 -0.25962374D-12 -0.10952042D-06
  0.53184040D-03  0.39263455D-14  0.27277533D-07  0.65000808D-05 -0.67672845D-03
  0.54243292D-03  0.13429552D-03  0.73900942D-14 -0.21263601D-11 -0.15027408D-04
  0.20645373D-03 -0.24439630D-03  0.37942577D-04 -0.70752294D-14  0.97849255D-12
  0.32171720D-05 -0.92933722D-05 -0.38130832D-04  0.47424204D-04 -0.24317427D-15
 -0.59078024D-13  0.11841311D-05  0.21707423D-12  0.56125617D-06 -0.73536817D-05
  0.91159050D-13 -0.46120730D-05  0.25614034D-03 -0.74238173D-12  0.29283045D-05
 -0.23407930D-03 -0.61841573D-15 -0.66497972D-13  0.20607084D-05 -0.14788467D-03
 -0.15355886D-12 -0.30831294D-06  0.10831085D-05  0.35305277D-12 -0.58738122D-05
  0.44257090D-03  0.30508033D-14 -0.99102254D-01 -0.18528165D+00 -0.32022175D+00
 -0.51794549D+00 -0.78285727D+00 -0.10781566D+01 -0.12602337D+01 -0.10891792D+01
 -0.50832560D+00 -0.68866965D-01  0.50370290D-03 -0.12491838D-02 -0.16058132D-01
 -0.58577757D-01 -0.19763990D+00 -0.43410590D+00 -0.56074642D+00  0.90116721D-01
  0.75597217D+00  0.41486778D+00 -0.54869851D-05 -0.62500172D-04 -0.12977289D-03
 -0.35684248D-03  0.46268726D-04  0.16134792D-02  0.40242733D-02 -0.33312352D-02
  0.24917846D-01 -0.17551441D-02 -0.19123772D-03  0.20619330D-07  0.27051388D-07
  0.29669518D-07  0.24411186D-07  0.12868189D-07  0.33480607D-08 -0.27554780D-01
 -0.36150305D-01 -0.39649061D-01 -0.32622053D-01 -0.17196491D-01 -0.44742036D-02
 -0.50317858D+01 -0.66014168D+01 -0.72403256D+01 -0.59571218D+01 -0.31402559D+01
 -0.81703551D+00  0.12160685D-12  0.43651547D-11  0.69254274D-11  0.82237326D-11
  0.12444675D-11 -0.90570013D-11 -0.24596424D-06 -0.88290415D-05 -0.14007496D-04
 -0.16633471D-04 -0.25170826D-05  0.18318856D-04 -0.40913027D-04 -0.14685989D-02
 -0.23299690D-02 -0.27667667D-02 -0.41868473D-03  0.30471090D-02  0.15537188D-09
 -0.20708989D-03 -0.39537766D-01  0.42487496D-13 -0.84116050D-06  0.43385648D-03
 -0.37386626D-13 -0.18074093D-07  0.62156455D-05  0.27855909D-03  0.20511345D-03
 -0.48367254D-03 -0.63096564D-15  0.12191811D-11 -0.48993059D-05 -0.30146974D-04
 -0.29442026D-03  0.32456723D-03 -0.11860116D-14 -0.53755520D-12  0.34567071D-05
  0.86108272D-05  0.96643835D-05 -0.18275211D-04  0.28515383D-16 -0.43482100D-13
  0.31766930D-06  0.17710455D-12 -0.24988369D-06  0.11343663D-03 -0.65609659D-13
  0.19638110D-07 -0.27367421D-03 -0.46570399D-12  0.73001296D-06 -0.66635676D-04
  0.14821142D-14  0.18589340D-13 -0.16802764D-06  0.27213511D-04  0.58803302D-13
 -0.13950244D-06 -0.56129574D-04 -0.11457132D-12  0.64358535D-06 -0.25510960D-04
  0.25213037D-15 -0.51362467D-01 -0.95739727D-01 -0.16230017D+00 -0.24574440D+00
 -0.30723463D+00 -0.26427687D+00 -0.10135587D+00 -0.80986289D-05 -0.10721068D-03
 -0.38940871D-03 -0.11551736D-02 -0.13311042D-02  0.16168244D-02 -0.44133179D-02
  0.10865206D-02  0.14138335D-03  0.13501141D-10  0.13203821D-10  0.87243226D-11
 -0.45562628D-02 -0.44559255D-02 -0.29442184D-02 -0.12137908D-02 -0.11870609D-02
 -0.78434134D-03  0.31709474D-11 -0.47760454D-03  0.22707171D-03  0.72266682D-12
 -0.57257185D-04  0.21338212D-03 -0.16109299D-14 -0.29501907D-05  0.28455194D-04
 -0.15634736D-03  0.17702063D-03 -0.20673273D-04 -0.77192365D-12 -0.31482189D-12
  0.42466757D-03  0.10294038D-03 -0.35817825D-04 -0.67122555D-04  0.21693589D-12
 -0.11451235D-12 -0.27306922D-03  0.80410065D-04 -0.30869046D-04 -0.49541020D-04
  0.20468858D-13  0.16904004D-12  0.77344664D-04  0.16315484D-13  0.11159155D-03
  0.23682791D-03 -0.25556255D-12 -0.33613313D-03 -0.23967442D-03  0.20661610D-12
  0.13584745D-05 -0.47080931D-03 -0.12905668D-11 -0.11312231D-13 -0.23733108D-04
 -0.69635377D-04  0.15269560D-12  0.30951172D-03  0.27511014D-03 -0.11875891D-12
 -0.23831240D-03 -0.66204008D-04  0.47416922D-12 -0.51841340D-01 -0.96632346D-01
 -0.16381336D+00 -0.24803557D+00 -0.31009910D+00 -0.26674083D+00 -0.10230085D+00
 -0.82173748D-05 -0.10878266D-03 -0.39511840D-03 -0.11721113D-02 -0.13506215D-02
  0.16405310D-02 -0.44501616D-02  0.10959146D-02  0.14593631D-03  0.13543518D-10
  0.13245265D-10  0.87517063D-11  0.46536272D-02  0.45511458D-02  0.30071344D-02
 -0.12289775D-02 -0.12019132D-02 -0.79415485D-03  0.31829699D-11  0.49815181D-03
  0.21347722D-03  0.73772086D-12  0.49735625D-04  0.18791509D-03 -0.13484972D-14
  0.26235672D-05  0.28255088D-04 -0.15450100D-03  0.17249210D-03 -0.17991103D-04
  0.77127003D-12 -0.29569300D-12 -0.41280942D-03  0.11008669D-03 -0.36880510D-04
 -0.73206179D-04 -0.21713313D-12 -0.12051194D-12  0.29137887D-03  0.82914847D-04
 -0.25580098D-04 -0.57334748D-04 -0.27291827D-13  0.17224415D-12 -0.72601732D-04
  0.19904480D-13 -0.11002459D-03  0.23129386D-03 -0.26461102D-12  0.34862664D-03
 -0.23119068D-03  0.20489758D-12 -0.18552877D-04 -0.46269089D-03  0.13117828D-11
 -0.10257249D-13  0.23708331D-04 -0.68002495D-04  0.15849190D-12 -0.31560869D-03
  0.27290372D-03 -0.12772015D-12  0.24448370D-03 -0.68896239D-04 -0.47061039D-12
MO    4     MO 0.0        OCC NO =    2.0000090  ORB. ENERGY =    0.000000
 -0.45751084D-09 -0.85289237D-09 -0.14415043D-08 -0.21668498D-08 -0.26615869D-08
 -0.22462855D-08 -0.84466199D-09 -0.60675298D-13 -0.45351026D-12 -0.16948714D-11
 -0.47284273D-11 -0.63347889D-11  0.74802045D-11 -0.36455761D-10 -0.65098595D-12
 -0.24503127D-12 -0.39841178D-02 -0.37353637D-02 -0.26598015D-02 -0.31791945D-12
 -0.29806969D-12 -0.21224338D-12  0.16217982D-10  0.15205389D-10  0.10827143D-10
 -0.78679726D-03 -0.12407302D-12 -0.13046610D-11 -0.12089803D-03  0.31939911D-13
 -0.12180961D-11  0.19697108D-05 -0.16021853D-15 -0.10827967D-13  0.16551869D-11
 -0.12776006D-11 -0.37758636D-12  0.33944594D-05 -0.10043502D-02 -0.10644657D-12
 -0.44461972D-12  0.53391181D-12 -0.89292083D-13 -0.29569397D-05  0.46152939D-03
 -0.85249808D-14  0.18613821D-13  0.89550198D-13 -0.10816402D-12  0.58550185D-07
 -0.27507133D-04 -0.13379839D-13  0.10266527D-03  0.19152593D-13 -0.57410250D-13
  0.42878951D-04 -0.35541625D-14 -0.61591744D-12 -0.35087476D-03 -0.53903617D-13
  0.78814819D-12  0.69131339D-06 -0.31423858D-04 -0.23489696D-13  0.31719490D-12
 -0.72097700D-04 -0.10194771D-13  0.91164430D-14  0.16636927D-03  0.80663858D-13
 -0.96070115D-12  0.11397334D-05  0.28368586D-09  0.53037929D-09  0.91665306D-09
  0.14826485D-08  0.22409736D-08  0.30862847D-08  0.36074910D-08  0.31178376D-08
  0.14551111D-08  0.19713562D-09 -0.14418783D-11  0.24062235D-11  0.30931761D-10
  0.11283462D-09  0.38070121D-09  0.83619067D-09  0.10801303D-08 -0.17358612D-09
 -0.14561813D-08 -0.79913349D-09  0.10016343D-13  0.11409238D-12  0.23689690D-12
  0.65140631D-12 -0.84462309D-13 -0.29453627D-11 -0.73462023D-11  0.60810799D-11
 -0.48350131D-10  0.37562801D-11  0.35672043D-12  0.97275409D+01  0.12761980D+02
  0.13997131D+02  0.11516417D+02  0.60708004D+01  0.15795081D+01  0.78480122D-09
  0.10296146D-08  0.11292643D-08  0.92912469D-09  0.48978171D-09  0.12743199D-09
  0.11063451D-07  0.14514619D-07  0.15919396D-07  0.13097999D-07  0.69045205D-08
  0.17964264D-08  0.57352039D-04  0.20586876D-02  0.32661595D-02  0.38784642D-02
  0.58691387D-03 -0.42714491D-02  0.78298147D-14  0.28105614D-12  0.44590261D-12
  0.52949567D-12  0.80126652D-13 -0.58314675D-12  0.92141540D-13  0.33074787D-11
  0.52473979D-11  0.62311240D-11  0.94293331D-12 -0.68624919D-11  0.73298187D-01
  0.54727121D-11  0.86485743D-10  0.18890056D-04 -0.34610434D-13 -0.95092456D-12
 -0.17723008D-04 -0.95328495D-15 -0.10975334D-13 -0.60731523D-12 -0.43505308D-12
  0.10423683D-11 -0.12254340D-06  0.57502296D-03  0.94081669D-13  0.41244828D-13
  0.51582445D-12 -0.55706928D-12 -0.87340495D-06 -0.25391858D-03 -0.44462736D-13
 -0.16190631D-13 -0.21074116D-13  0.37264747D-13 -0.44719689D-07 -0.20045065D-04
 -0.24920332D-14  0.83339855D-04  0.46829127D-14 -0.26938886D-12 -0.31138116D-04
  0.80075704D-14  0.62221879D-12 -0.21888145D-03 -0.22056308D-13  0.18594780D-12
  0.90768942D-07  0.88574107D-05  0.31916269D-14 -0.56061374D-13  0.27826653D-04
  0.20392745D-14  0.11727417D-12 -0.54398885D-04 -0.11614155D-13  0.50909954D-13
  0.19315091D-06 -0.41737929D-11 -0.77799571D-11 -0.13188760D-10 -0.19969567D-10
 -0.24966357D-10 -0.21475544D-10 -0.82363334D-11  0.72820600D-14  0.96400839D-13
  0.35014539D-12  0.10386997D-11  0.11968916D-11 -0.14538031D-11 -0.11750027D-11
 -0.24191009D-11 -0.30240720D-12  0.63577543D-02  0.62177449D-02  0.41083269D-02
  0.75742259D-11  0.74074275D-11  0.48944005D-11  0.83608546D-12  0.81767331D-12
  0.54027133D-12  0.14934145D-02  0.11062353D-11 -0.47056493D-12  0.34053031D-03
  0.41709161D-13 -0.59634139D-12 -0.74511840D-06  0.81937041D-14 -0.66825196D-13
  0.39580080D-12 -0.45443538D-12  0.58634581D-13 -0.36117878D-03 -0.14948519D-03
 -0.10504220D-11 -0.28682748D-12  0.12815276D-12  0.15867472D-12  0.10192581D-03
 -0.53492847D-04  0.81914248D-12 -0.15767961D-12  0.63710231D-13  0.93969377D-13
  0.96270719D-05  0.79172804D-04 -0.20758572D-12  0.74675525D-05 -0.23879676D-12
 -0.50046285D-12 -0.11822944D-03  0.59263945D-12  0.41559580D-12  0.95826785D-04
  0.12375084D-12  0.10857927D-11 -0.60350601D-03 -0.49270732D-05  0.40328799D-13
  0.13843741D-12  0.71658421D-04 -0.65954893D-12 -0.60650024D-12 -0.56877202D-04
  0.53856253D-12  0.19118801D-12  0.22134764D-03  0.80532032D-10  0.15011185D-09
  0.25447302D-09  0.38530657D-09  0.48171808D-09  0.41436393D-09  0.15891749D-09
  0.15412387D-13  0.20403115D-12  0.74107824D-12  0.21983947D-11  0.25332058D-11
 -0.30769558D-11  0.66406256D-11 -0.24523081D-11 -0.39809143D-12  0.63875106D-02
  0.62468458D-02  0.41275552D-02 -0.98192414D-11 -0.96030036D-11 -0.63451105D-11
  0.27214512D-11  0.26615199D-11  0.17585787D-11  0.15021598D-02 -0.11795511D-11
 -0.28804536D-12  0.34689199D-03 -0.82829770D-13 -0.32481863D-12 -0.80543933D-06
 -0.90306176D-15 -0.67161932D-13  0.37375904D-12 -0.40066095D-12  0.26901909D-13
  0.36509982D-03 -0.14778854D-03  0.10578370D-11 -0.27181477D-12  0.10723610D-12
  0.16457867D-12 -0.10213647D-03 -0.55844234D-04 -0.78929759D-12 -0.19215597D-12
  0.49948811D-13  0.14220715D-12 -0.12617582D-04  0.80374865D-04  0.12445699D-12
  0.82443989D-05  0.27085511D-12 -0.49467508D-12 -0.12617262D-03 -0.81352820D-12
  0.46059697D-12  0.10143943D-03  0.96286103D-15  0.10234283D-11  0.60819192D-03