 f2cs-wavefunction
GAUSSIAN            188 MOL ORBITALS    330 PRIMITIVES        4 NUCLEI
  C    1    (CENTRE  1)   0.00000000  0.00000000 -0.98331710  CHARGE =  6.0
  S    2    (CENTRE  2)   0.00000000  0.00000000  2.01921962  CHARGE = 16.0
  F    3    (CENTRE  3)   0.00000000 -1.99407870 -2.44821201  CHARGE =  9.0
  F    4    (CENTRE  4)   0.00000000  1.99407870 -2.44821201  CHARGE =  9.0
CENTRE ASSIGNMENTS    1  1  1  1  1  1  1  1  1  1  1  1  1  1  1  1  1  1  1  1
CENTRE ASSIGNMENTS    1  1  1  1  1  1  1  1  1  1  1  1  1  1  1  1  1  1  1  1
CENTRE ASSIGNMENTS    1  1  1  1  1  1  1  1  1  1  1  1  1  1  1  1  1  1  1  1
CENTRE ASSIGNMENTS    1  1  1  1  1  1  1  1  1  1  1  1  2  2  2  2  2  2  2  2
CENTRE ASSIGNMENTS    2  2  2  2  2  2  2  2  2  2  2  2  2  2  2  2  2  2  2  2
CENTRE ASSIGNMENTS    2  2  2  2  2  2  2  2  2  2  2  2  2  2  2  2  2  2  2  2
CENTRE ASSIGNMENTS    2  2  2  2  2  2  2  2  2  2  2  2  2  2  2  2  2  2  2  2
CENTRE ASSIGNMENTS    2  2  2  2  2  2  2  2  2  2  2  2  2  2  2  2  2  2  2  2
CENTRE ASSIGNMENTS    2  2  2  2  2  2  2  2  2  2  2  2  2  2  2  2  2  2  2  2
CENTRE ASSIGNMENTS    2  2  2  2  2  2  3  3  3  3  3  3  3  3  3  3  3  3  3  3
CENTRE ASSIGNMENTS    3  3  3  3  3  3  3  3  3  3  3  3  3  3  3  3  3  3  3  3
CENTRE ASSIGNMENTS    3  3  3  3  3  3  3  3  3  3  3  3  3  3  3  3  3  3  3  3
CENTRE ASSIGNMENTS    3  3  3  3  3  3  3  3  3  3  3  3  3  3  3  3  3  3  4  4
CENTRE ASSIGNMENTS    4  4  4  4  4  4  4  4  4  4  4  4  4  4  4  4  4  4  4  4
CENTRE ASSIGNMENTS    4  4  4  4  4  4  4  4  4  4  4  4  4  4  4  4  4  4  4  4
CENTRE ASSIGNMENTS    4  4  4  4  4  4  4  4  4  4  4  4  4  4  4  4  4  4  4  4
CENTRE ASSIGNMENTS    4  4  4  4  4  4  4  4  4  4
TYPE ASSIGNMENTS      1  1  1  1  1  1  1  1  1  1  1  1  1  1  1  1  2  2  2  3
TYPE ASSIGNMENTS      3  3  4  4  4  2  3  4  2  3  4  2  3  4  5  6  7  8  9 10
TYPE ASSIGNMENTS      5  6  7  8  9 10  5  6  7  8  9 10 11 12 13 17 14 15 18 19
TYPE ASSIGNMENTS     16 20 11 12 13 17 14 15 18 19 16 20  1  1  1  1  1  1  1  1
TYPE ASSIGNMENTS      1  1  1  1  1  1  1  1  1  1  1  1  1  1  1  1  1  1  1  1
TYPE ASSIGNMENTS      1  1  1  2  2  2  2  2  2  3  3  3  3  3  3  4  4  4  4  4
TYPE ASSIGNMENTS      4  2  2  2  2  2  2  3  3  3  3  3  3  4  4  4  4  4  4  2
TYPE ASSIGNMENTS      3  4  2  3  4  2  3  4  5  6  7  8  9 10  5  6  7  8  9 10
TYPE ASSIGNMENTS      5  6  7  8  9 10 11 12 13 17 14 15 18 19 16 20 11 12 13 17
TYPE ASSIGNMENTS     14 15 18 19 16 20  1  1  1  1  1  1  1  1  1  1  1  1  1  1
TYPE ASSIGNMENTS      1  1  2  2  2  3  3  3  4  4  4  2  3  4  2  3  4  2  3  4
TYPE ASSIGNMENTS      5  6  7  8  9 10  5  6  7  8  9 10  5  6  7  8  9 10 11 12
TYPE ASSIGNMENTS     13 17 14 15 18 19 16 20 11 12 13 17 14 15 18 19 16 20  1  1
TYPE ASSIGNMENTS      1  1  1  1  1  1  1  1  1  1  1  1  1  1  2  2  2  3  3  3
TYPE ASSIGNMENTS      4  4  4  2  3  4  2  3  4  2  3  4  5  6  7  8  9 10  5  6
TYPE ASSIGNMENTS      7  8  9 10  5  6  7  8  9 10 11 12 13 17 14 15 18 19 16 20
TYPE ASSIGNMENTS     11 12 13 17 14 15 18 19 16 20
EXPONENTS  0.8236000D+04 0.1235000D+04 0.2808000D+03 0.7927000D+02 0.2559000D+02
EXPONENTS  0.8997000D+01 0.3319000D+01 0.2808000D+03 0.7927000D+02 0.2559000D+02
EXPONENTS  0.8997000D+01 0.3319000D+01 0.3643000D+00 0.9059000D+00 0.1285000D+00
EXPONENTS  0.4402000D-01 0.1871000D+02 0.4133000D+01 0.1200000D+01 0.1871000D+02
EXPONENTS  0.4133000D+01 0.1200000D+01 0.1871000D+02 0.4133000D+01 0.1200000D+01
EXPONENTS  0.3827000D+00 0.3827000D+00 0.3827000D+00 0.1209000D+00 0.1209000D+00
EXPONENTS  0.1209000D+00 0.3569000D-01 0.3569000D-01 0.3569000D-01 0.1097000D+01
EXPONENTS  0.1097000D+01 0.1097000D+01 0.1097000D+01 0.1097000D+01 0.1097000D+01
EXPONENTS  0.3180000D+00 0.3180000D+00 0.3180000D+00 0.3180000D+00 0.3180000D+00
EXPONENTS  0.3180000D+00 0.1000000D+00 0.1000000D+00 0.1000000D+00 0.1000000D+00
EXPONENTS  0.1000000D+00 0.1000000D+00 0.7610000D+00 0.7610000D+00 0.7610000D+00
EXPONENTS  0.7610000D+00 0.7610000D+00 0.7610000D+00 0.7610000D+00 0.7610000D+00
EXPONENTS  0.7610000D+00 0.7610000D+00 0.2680000D+00 0.2680000D+00 0.2680000D+00
EXPONENTS  0.2680000D+00 0.2680000D+00 0.2680000D+00 0.2680000D+00 0.2680000D+00
EXPONENTS  0.2680000D+00 0.2680000D+00 0.3741000D+06 0.5605000D+05 0.1276000D+05
EXPONENTS  0.3615000D+04 0.1183000D+04 0.4288000D+03 0.1678000D+03 0.6947000D+02
EXPONENTS  0.2984000D+02 0.1272000D+02 0.5244000D+01 0.3615000D+04 0.1183000D+04
EXPONENTS  0.4288000D+03 0.1678000D+03 0.6947000D+02 0.2984000D+02 0.1272000D+02
EXPONENTS  0.5244000D+01 0.2219000D+01 0.1183000D+04 0.1678000D+03 0.6947000D+02
EXPONENTS  0.2984000D+02 0.1272000D+02 0.5244000D+01 0.2219000D+01 0.3490000D+00
EXPONENTS  0.7767000D+00 0.1322000D+00 0.4970000D-01 0.5744000D+03 0.1358000D+03
EXPONENTS  0.4319000D+02 0.1587000D+02 0.6208000D+01 0.2483000D+01 0.5744000D+03
EXPONENTS  0.1358000D+03 0.4319000D+02 0.1587000D+02 0.6208000D+01 0.2483000D+01
EXPONENTS  0.5744000D+03 0.1358000D+03 0.4319000D+02 0.1587000D+02 0.6208000D+01
EXPONENTS  0.2483000D+01 0.1358000D+03 0.4319000D+02 0.1587000D+02 0.6208000D+01
EXPONENTS  0.2483000D+01 0.3229000D+00 0.1358000D+03 0.4319000D+02 0.1587000D+02
EXPONENTS  0.6208000D+01 0.2483000D+01 0.3229000D+00 0.1358000D+03 0.4319000D+02
EXPONENTS  0.1587000D+02 0.6208000D+01 0.2483000D+01 0.3229000D+00 0.8688000D+00
EXPONENTS  0.8688000D+00 0.8688000D+00 0.1098000D+00 0.1098000D+00 0.1098000D+00
EXPONENTS  0.3510000D-01 0.3510000D-01 0.3510000D-01 0.2690000D+00 0.2690000D+00
EXPONENTS  0.2690000D+00 0.2690000D+00 0.2690000D+00 0.2690000D+00 0.8190000D+00
EXPONENTS  0.8190000D+00 0.8190000D+00 0.8190000D+00 0.8190000D+00 0.8190000D+00
EXPONENTS  0.1010000D+00 0.1010000D+00 0.1010000D+00 0.1010000D+00 0.1010000D+00
EXPONENTS  0.1010000D+00 0.5570000D+00 0.5570000D+00 0.5570000D+00 0.5570000D+00
EXPONENTS  0.5570000D+00 0.5570000D+00 0.5570000D+00 0.5570000D+00 0.5570000D+00
EXPONENTS  0.5570000D+00 0.2180000D+00 0.2180000D+00 0.2180000D+00 0.2180000D+00
EXPONENTS  0.2180000D+00 0.2180000D+00 0.2180000D+00 0.2180000D+00 0.2180000D+00
EXPONENTS  0.2180000D+00 0.1950000D+05 0.2923000D+04 0.6645000D+03 0.1875000D+03
EXPONENTS  0.6062000D+02 0.2142000D+02 0.7950000D+01 0.6645000D+03 0.1875000D+03
EXPONENTS  0.6062000D+02 0.2142000D+02 0.7950000D+01 0.8815000D+00 0.2257000D+01
EXPONENTS  0.3041000D+00 0.9158000D-01 0.4388000D+02 0.9926000D+01 0.2930000D+01
EXPONENTS  0.4388000D+02 0.9926000D+01 0.2930000D+01 0.4388000D+02 0.9926000D+01
EXPONENTS  0.2930000D+01 0.9132000D+00 0.9132000D+00 0.9132000D+00 0.2672000D+00
EXPONENTS  0.2672000D+00 0.2672000D+00 0.7361000D-01 0.7361000D-01 0.7361000D-01
EXPONENTS  0.3107000D+01 0.3107000D+01 0.3107000D+01 0.3107000D+01 0.3107000D+01
EXPONENTS  0.3107000D+01 0.8550000D+00 0.8550000D+00 0.8550000D+00 0.8550000D+00
EXPONENTS  0.8550000D+00 0.8550000D+00 0.2920000D+00 0.2920000D+00 0.2920000D+00
EXPONENTS  0.2920000D+00 0.2920000D+00 0.2920000D+00 0.1917000D+01 0.1917000D+01
EXPONENTS  0.1917000D+01 0.1917000D+01 0.1917000D+01 0.1917000D+01 0.1917000D+01
EXPONENTS  0.1917000D+01 0.1917000D+01 0.1917000D+01 0.7240000D+00 0.7240000D+00
EXPONENTS  0.7240000D+00 0.7240000D+00 0.7240000D+00 0.7240000D+00 0.7240000D+00
EXPONENTS  0.7240000D+00 0.7240000D+00 0.7240000D+00 0.1950000D+05 0.2923000D+04
EXPONENTS  0.6645000D+03 0.1875000D+03 0.6062000D+02 0.2142000D+02 0.7950000D+01
EXPONENTS  0.6645000D+03 0.1875000D+03 0.6062000D+02 0.2142000D+02 0.7950000D+01
EXPONENTS  0.8815000D+00 0.2257000D+01 0.3041000D+00 0.9158000D-01 0.4388000D+02
EXPONENTS  0.9926000D+01 0.2930000D+01 0.4388000D+02 0.9926000D+01 0.2930000D+01
EXPONENTS  0.4388000D+02 0.9926000D+01 0.2930000D+01 0.9132000D+00 0.9132000D+00
EXPONENTS  0.9132000D+00 0.2672000D+00 0.2672000D+00 0.2672000D+00 0.7361000D-01
EXPONENTS  0.7361000D-01 0.7361000D-01 0.3107000D+01 0.3107000D+01 0.3107000D+01
EXPONENTS  0.3107000D+01 0.3107000D+01 0.3107000D+01 0.8550000D+00 0.8550000D+00
EXPONENTS  0.8550000D+00 0.8550000D+00 0.8550000D+00 0.8550000D+00 0.2920000D+00
EXPONENTS  0.2920000D+00 0.2920000D+00 0.2920000D+00 0.2920000D+00 0.2920000D+00
EXPONENTS  0.1917000D+01 0.1917000D+01 0.1917000D+01 0.1917000D+01 0.1917000D+01
EXPONENTS  0.1917000D+01 0.1917000D+01 0.1917000D+01 0.1917000D+01 0.1917000D+01
EXPONENTS  0.7240000D+00 0.7240000D+00 0.7240000D+00 0.7240000D+00 0.7240000D+00
EXPONENTS  0.7240000D+00 0.7240000D+00 0.7240000D+00 0.7240000D+00 0.7240000D+00
MO    1     MO 0.0        OCC NO =    2.0000306  ORB. ENERGY =    0.000000
  0.73887340D-11  0.13774089D-10  0.23280086D-10  0.34994312D-10  0.42984245D-10
  0.36277186D-10  0.13641169D-10  0.10936001D-14  0.81739831D-14  0.30548041D-13
  0.85224278D-13  0.11417704D-12 -0.13482179D-12  0.55589606D-12  0.20858463D-12
  0.79065614D-14  0.72010825D-12  0.67514726D-12  0.48074507D-12 -0.31111636D-02
 -0.29169136D-02 -0.20770163D-02 -0.41108724D-12 -0.38542042D-12 -0.27444230D-12
  0.13956415D-12 -0.15883571D-02 -0.50406185D-14  0.68490788D-14  0.61602516D-03
  0.17842287D-12 -0.78897676D-15 -0.13813201D-04 -0.16780099D-14 -0.26024198D-13
  0.48795986D-13 -0.22771789D-13 -0.10128276D-13  0.19649258D-12 -0.10556493D-02
 -0.23428837D-13 -0.18503398D-13  0.41932234D-13  0.92981577D-14 -0.96719703D-13
  0.42420185D-03 -0.28073391D-14 -0.15121854D-13  0.17929193D-13 -0.80650570D-16
  0.10257373D-14 -0.22834004D-03 -0.22742680D-13  0.24086624D-03  0.59339341D-14
 -0.17751739D-14  0.36597316D-03  0.33339678D-13  0.70003214D-13 -0.10885719D-02
 -0.51141480D-13  0.44151380D-14  0.67247918D-14 -0.13834327D-03  0.27799684D-14
  0.12581473D-13 -0.12953361D-03 -0.92948006D-14 -0.32755848D-13  0.54456341D-03
  0.95489550D-15 -0.59730991D-14 -0.80836941D-11 -0.15113280D-10 -0.26120240D-10
 -0.42248412D-10 -0.63857061D-10 -0.87944395D-10 -0.10279629D-09 -0.88843503D-10
 -0.41463726D-10 -0.56174250D-11  0.41086656D-13 -0.67661201D-13 -0.86977793D-12
 -0.31728249D-11 -0.10705032D-10 -0.23513055D-10 -0.30372453D-10  0.48811116D-11
  0.40946725D-10  0.22471034D-10 -0.35689158D-15 -0.40652170D-14 -0.84408559D-14
 -0.23210210D-13  0.30094703D-14  0.10494600D-12  0.26175199D-12 -0.21667451D-12
  0.13482058D-11 -0.41154765D-12 -0.21313521D-13 -0.17160415D-08 -0.22513489D-08
 -0.24692425D-08 -0.20316183D-08 -0.10709537D-08 -0.27864200D-09  0.97652790D+01
  0.12811491D+02  0.14051433D+02  0.11561095D+02  0.60943522D+01  0.15856358D+01
 -0.30212029D-09 -0.39636464D-09 -0.43472623D-09 -0.35767964D-09 -0.18854837D-09
 -0.49056739D-10 -0.10246326D-13 -0.36779834D-12 -0.58352128D-12 -0.69291362D-12
 -0.10485609D-12  0.76312301D-12  0.95311725D-04  0.34212745D-02  0.54279378D-02
  0.64455096D-02  0.97537549D-03 -0.70986001D-02 -0.38905830D-14 -0.13965493D-12
 -0.22156605D-12 -0.26310289D-12 -0.39814401D-13  0.28976175D-12 -0.12938813D-10
  0.67649676D-01 -0.24227815D-11  0.97845621D-14 -0.37760003D-03  0.84161838D-13
  0.35228122D-14 -0.68069328D-05  0.54122540D-15  0.16910313D-13  0.19617834D-13
 -0.36528147D-13  0.82092898D-15 -0.11252777D-12  0.97629234D-03  0.16163787D-13
 -0.53907692D-14 -0.10773017D-13  0.10066818D-14  0.45772621D-13 -0.53620627D-03
  0.40149764D-15  0.23955458D-14 -0.27970435D-14  0.21807333D-15 -0.40423058D-15
 -0.42021744D-04 -0.14314810D-13  0.34773267D-04  0.11919056D-13  0.64387109D-14
  0.10989400D-03 -0.26141108D-13  0.36505718D-13 -0.21421380D-03 -0.96160590D-14
  0.84474676D-15 -0.25679485D-14  0.35140104D-04 -0.84203806D-16 -0.57630476D-14
  0.16642289D-04  0.24781541D-14  0.13466893D-13 -0.12206260D-03 -0.22255427D-14
 -0.10608563D-14  0.51815980D-02  0.96585076D-02  0.16373322D-01  0.24791424D-01
  0.30994740D-01  0.26661035D-01  0.10225081D-01 -0.65430870D-06 -0.86618220D-05
 -0.31461314D-04 -0.93329394D-04 -0.10754328D-03  0.13062733D-03  0.59702202D-03
  0.73419832D-04  0.85957893D-03 -0.10860471D-11 -0.10621303D-11 -0.70179441D-12
 -0.13119201D-02 -0.12830292D-02 -0.84775163D-03 -0.39230251D-02 -0.38366328D-02
 -0.25350255D-02 -0.26096573D-12 -0.39759709D-03 -0.10874291D-02 -0.53216748D-13
 -0.15779024D-03 -0.75996566D-03 -0.15904295D-15  0.92973188D-04  0.11221457D-04
  0.24501728D-04  0.27004551D-04 -0.51506279D-04  0.64572866D-13  0.51344606D-13
  0.27174919D-03 -0.56179558D-04 -0.13534456D-03  0.19152411D-03 -0.19877675D-13
  0.57367234D-14 -0.15071545D-03  0.11249769D-03 -0.22212108D-04 -0.90285582D-04
  0.65787241D-15 -0.10363106D-13 -0.28430321D-03  0.33533217D-14 -0.31382726D-04
 -0.50174988D-04  0.21841570D-13 -0.33295671D-03  0.96065481D-05 -0.31901535D-13
  0.42710489D-03  0.14091842D-03  0.97796511D-13  0.12896271D-14 -0.62419134D-04
  0.94528284D-04 -0.15279509D-13  0.20011628D-03 -0.39746502D-04  0.11410628D-13
 -0.12858874D-04 -0.24383835D-03 -0.37296489D-13 -0.51815980D-02 -0.96585075D-02
 -0.16373322D-01 -0.24791424D-01 -0.30994740D-01 -0.26661035D-01 -0.10225081D-01
  0.65430870D-06  0.86618221D-05  0.31461314D-04  0.93329395D-04  0.10754328D-03
 -0.13062733D-03 -0.59702201D-03 -0.73419832D-04 -0.85957893D-03 -0.11387849D-11
 -0.11137068D-11 -0.73587317D-12 -0.13119201D-02 -0.12830292D-02 -0.84775163D-03
  0.39230251D-02  0.38366328D-02  0.25350255D-02 -0.27025896D-12 -0.39759709D-03
  0.10874291D-02 -0.67969750D-13 -0.15779024D-03  0.75996566D-03 -0.80872113D-16
  0.92973188D-04 -0.11221457D-04 -0.24501728D-04 -0.27004551D-04  0.51506279D-04
 -0.83979557D-13  0.41279480D-13  0.27174919D-03  0.56179558D-04  0.13534456D-03
 -0.19152411D-03  0.21578524D-13  0.23090029D-14 -0.15071545D-03 -0.11249769D-03
  0.22212108D-04  0.90285582D-04  0.72052639D-14 -0.14835296D-13 -0.28430321D-03
  0.42857284D-14 -0.31382726D-04  0.50174988D-04  0.24840373D-13 -0.33295671D-03
 -0.96065480D-05 -0.37697558D-13  0.42710489D-03 -0.14091842D-03 -0.14835293D-12
  0.18261342D-14 -0.62419134D-04 -0.94528284D-04 -0.17708182D-13  0.20011628D-03
  0.39746502D-04  0.12229779D-13 -0.12858874D-04  0.24383835D-03  0.52048293D-13
MO    2     MO 0.0        OCC NO =    2.0000249  ORB. ENERGY =    0.000000
 -0.61128004D-01 -0.11395491D+00 -0.19259933D+00 -0.28951272D+00 -0.35561452D+00
 -0.30012611D+00 -0.11285525D+00 -0.98800440D-05 -0.73847207D-04 -0.27598388D-03
 -0.76995204D-03 -0.10315235D-02  0.12180369D-02 -0.46403025D-02 -0.14412150D-02
 -0.63211143D-04  0.45115721D-12  0.42298857D-12  0.30119306D-12  0.83837114D-15
  0.78602624D-15  0.55969751D-15  0.31206843D-02  0.29258399D-02  0.20833723D-02
  0.65135682D-13 -0.17308921D-13 -0.43872778D-03  0.66774797D-15 -0.22827706D-13
 -0.95432332D-03 -0.42297911D-15  0.33957441D-15  0.75793219D-05  0.26385615D-03
 -0.10714751D-03 -0.15670865D-03 -0.67488893D-14  0.10481775D-12 -0.35615431D-13
  0.10020617D-03  0.15609181D-03 -0.25629798D-03  0.17978124D-13 -0.39780449D-13
 -0.21857798D-13  0.17463986D-04  0.62085143D-04 -0.79549129D-04  0.10411501D-14
  0.17605007D-14  0.38453574D-14 -0.97369260D-14  0.20300771D-16 -0.37751859D-04
 -0.70302928D-14 -0.21994665D-13 -0.10030966D-03  0.36241071D-13  0.21933763D-13
  0.21356524D-03 -0.12845197D-13  0.52662977D-14 -0.10446196D-13  0.50950485D-04
  0.40306646D-14  0.70383578D-15  0.22829786D-04 -0.19829558D-13  0.30634753D-13
 -0.17568124D-03 -0.76137905D-14 -0.12483498D+00 -0.23339157D+00 -0.40337000D+00
 -0.65243436D+00 -0.98613269D+00 -0.13581089D+01 -0.15874639D+01 -0.13719937D+01
 -0.64031658D+00 -0.86748847D-01  0.63449356D-03 -0.15562054D-02 -0.20004863D-01
 -0.72974866D-01 -0.24621539D+00 -0.54079947D+00 -0.69856541D+00  0.11226540D+00
  0.94177331D+00  0.51683304D+00 -0.13159628D-04 -0.14989634D-03 -0.31123884D-03
 -0.85582777D-03  0.11096790D-03  0.38696634D-02  0.96515552D-02 -0.79894176D-02
  0.28734430D-01  0.16417580D-02  0.85006019D-04 -0.96710516D-09 -0.12687870D-08
 -0.13915847D-08 -0.11449540D-08 -0.60355464D-09 -0.15703356D-09  0.68490414D-11
  0.89855528D-11  0.98552068D-11  0.81085672D-11  0.42743756D-11  0.11121121D-11
  0.63603947D+01  0.83444762D+01  0.91520844D+01  0.75300594D+01  0.39694192D+01
  0.10327682D+01 -0.58436871D-14 -0.20976284D-12 -0.33279400D-12 -0.39518267D-12
 -0.59801554D-13  0.43522450D-12  0.45714505D-15  0.16409510D-13  0.26034099D-13
  0.30914694D-13  0.46782081D-14 -0.34047122D-13  0.59465054D-04  0.21345356D-02
  0.33864943D-02  0.40213581D-02  0.60853748D-03 -0.44288217D-02 -0.72879868D-11
  0.40819230D-13  0.47021763D-01  0.42565650D-14 -0.63758854D-14 -0.81863679D-03
  0.19655837D-14 -0.45120820D-15 -0.67224576D-05 -0.26814839D-03 -0.15327671D-03
  0.42142510D-03  0.11114262D-14 -0.63637530D-13  0.11680507D-13  0.14899591D-03
 -0.37027159D-03  0.22127569D-03  0.19799302D-15  0.25139182D-13  0.13434736D-13
 -0.15432719D-04 -0.27954514D-04  0.43387233D-04 -0.19414075D-15  0.25874376D-15
  0.10110171D-14 -0.88035247D-14  0.19561734D-14 -0.91080873D-04  0.31915652D-14
  0.16065826D-15  0.22296090D-03  0.23219009D-13 -0.60291784D-14  0.50281718D-04
 -0.16376483D-14 -0.13678538D-14  0.22731838D-15 -0.23150739D-04 -0.29100906D-14
  0.53508061D-15  0.33782673D-04  0.70136522D-14 -0.12170358D-14  0.35669544D-04
 -0.12054043D-15  0.68208372D-02  0.12714052D-01  0.21553151D-01  0.32634385D-01
  0.40800170D-01  0.35095462D-01  0.13459865D-01  0.15970073D-05  0.21141387D-04
  0.76789363D-04  0.22779420D-03  0.26248680D-03 -0.31882932D-03  0.53403949D-03
 -0.40390107D-03 -0.25740405D-03 -0.53513556D-12 -0.52335089D-12 -0.34580006D-12
  0.13918601D-03  0.13612088D-03  0.89940822D-04 -0.97203053D-03 -0.95062463D-03
 -0.62811789D-03 -0.13672104D-12 -0.87836037D-04 -0.39272498D-03 -0.58097172D-14
 -0.12809594D-06 -0.92109875D-04  0.11334212D-14 -0.52418068D-05 -0.60904947D-04
  0.38838029D-04 -0.10561608D-03  0.66778049D-04  0.15443466D-13  0.12501777D-13
 -0.25232468D-04 -0.23940430D-04  0.61427880D-05  0.17797642D-04  0.10408214D-14
  0.85191632D-14  0.94895963D-04 -0.45938740D-04  0.10158917D-04  0.35779823D-04
  0.13026848D-13  0.33723056D-14 -0.28744556D-04  0.17938003D-13 -0.82385828D-04
 -0.10994282D-03 -0.29639088D-13  0.11133562D-03  0.80975732D-05 -0.24174920D-13
  0.13582186D-03  0.32173088D-03 -0.14040340D-13 -0.70808489D-14  0.15937339D-04
  0.46230945D-04  0.95094024D-14 -0.98476219D-04 -0.74004691D-04  0.11733144D-13
  0.50664204D-04 -0.64688143D-04  0.16433217D-13  0.68208372D-02  0.12714052D-01
  0.21553151D-01  0.32634386D-01  0.40800170D-01  0.35095462D-01  0.13459865D-01
  0.15970073D-05  0.21141387D-04  0.76789363D-04  0.22779420D-03  0.26248680D-03
 -0.31882932D-03  0.53403949D-03 -0.40390107D-03 -0.25740405D-03 -0.49425740D-12
 -0.48337294D-12 -0.31938494D-12 -0.13918602D-03 -0.13612088D-03 -0.89940823D-04
 -0.97203053D-03 -0.95062463D-03 -0.62811789D-03 -0.12072578D-12  0.87836037D-04
 -0.39272498D-03 -0.29209572D-13  0.12809594D-06 -0.92109875D-04  0.11934387D-15
  0.52418068D-05 -0.60904947D-04  0.38838029D-04 -0.10561608D-03  0.66778049D-04
 -0.44913601D-13  0.84755875D-14  0.25232468D-04 -0.23940430D-04  0.61427880D-05
  0.17797642D-04  0.89833805D-14  0.49630216D-14 -0.94895963D-04 -0.45938740D-04
  0.10158917D-04  0.35779823D-04  0.46473290D-15 -0.73846003D-14  0.28744556D-04
  0.42408013D-14  0.82385828D-04 -0.10994282D-03  0.51106769D-14 -0.11133562D-03
  0.80975732D-05 -0.17833081D-13 -0.13582186D-03  0.32173088D-03 -0.75657323D-13
 -0.19704931D-14 -0.15937339D-04  0.46230945D-04 -0.30970018D-14  0.98476219D-04
 -0.74004691D-04  0.90084811D-14 -0.50664204D-04 -0.64688143D-04  0.21312001D-13
MO    3     MO 0.0        OCC NO =    2.0000103  ORB. ENERGY =    0.000000
  0.19421198D+00  0.36205026D+00  0.61191426D+00  0.91982126D+00  0.11298357D+01
  0.95354145D+00  0.35855648D+00  0.26674544D-04  0.19937569D-03  0.74511248D-03
  0.20787478D-02  0.27849490D-02 -0.32885054D-02  0.15496020D-01  0.34420362D-03
  0.13300065D-03 -0.11943867D-11 -0.11198135D-11 -0.79737392D-12  0.11226813D-12
  0.10525851D-12  0.74950331D-13 -0.73850202D-02 -0.69239259D-02 -0.49302477D-02
 -0.24832643D-12  0.17093529D-12  0.58162672D-03 -0.46835017D-13 -0.39388461D-13
  0.51426963D-03  0.30946378D-15  0.29829073D-14  0.64797563D-05 -0.66348573D-03
  0.54371119D-03  0.11977454D-03  0.83032661D-15 -0.30575279D-12 -0.14778573D-12
  0.20744196D-03 -0.23617558D-03  0.28733623D-04 -0.19866481D-14  0.14718770D-12
 -0.13313239D-12 -0.91240044D-05 -0.36591710D-04  0.45715715D-04 -0.19290497D-15
 -0.99372079D-14  0.20685418D-13  0.31245420D-13  0.61979351D-14 -0.44922027D-05
  0.12072380D-13 -0.14056251D-12  0.25087888D-03 -0.10580864D-12  0.12196871D-12
 -0.23740227D-03  0.78839914D-15 -0.79070437D-14 -0.85880334D-14 -0.14880576D-03
 -0.23977505D-13 -0.37275324D-15  0.48848455D-05  0.47698636D-13  0.26136853D-13
  0.44153243D-03  0.15496842D-14 -0.10219934D+00 -0.19107196D+00 -0.33022913D+00
 -0.53413201D+00 -0.80732266D+00 -0.11118505D+01 -0.12996178D+01 -0.11232176D+01
 -0.52421149D+00 -0.71019155D-01  0.51944433D-03 -0.12883437D-02 -0.16561529D-01
 -0.60414077D-01 -0.20383560D+00 -0.44771443D+00 -0.57832493D+00  0.92941737D-01
  0.77967070D+00  0.42787322D+00 -0.57603789D-05 -0.65614296D-04 -0.13623893D-03
 -0.37462246D-03  0.48574104D-04  0.16938722D-02  0.42247862D-02 -0.34972168D-02
  0.25691136D-01 -0.17498274D-02 -0.19195805D-03  0.29281284D-08  0.38415380D-08
  0.42133358D-08  0.34666057D-08  0.18273974D-08  0.47545444D-09 -0.38658699D-09
 -0.50718015D-09 -0.55626685D-09 -0.45767961D-09 -0.24126267D-09 -0.62772008D-10
 -0.50034848D+01 -0.65642875D+01 -0.71996027D+01 -0.59236162D+01 -0.31225937D+01
 -0.81244014D+00  0.17341497D-13  0.62248399D-12  0.98758645D-12  0.11727286D-11
  0.17746475D-12 -0.12915552D-11 -0.37204107D-14 -0.13354649D-12 -0.21187485D-12
 -0.25159489D-12 -0.38072938D-13  0.27708771D-12 -0.40907044D-04 -0.14683842D-02
 -0.23296283D-02 -0.27663621D-02 -0.41862351D-03  0.30466634D-02  0.22076849D-10
 -0.26593745D-11 -0.39320536D-01  0.11780234D-13  0.91733855D-16  0.42866994D-03
 -0.50451924D-14 -0.10051826D-14  0.62149493D-05  0.27868745D-03  0.20641790D-03
 -0.48510535D-03 -0.67156001D-15  0.17256667D-12 -0.30247096D-13 -0.18167790D-04
 -0.29422997D-03  0.31239776D-03  0.82765972D-15 -0.69492198D-13  0.14222671D-13
  0.86893408D-05  0.93565351D-05 -0.18045876D-04  0.10410450D-15 -0.81669739D-14
  0.50329395D-14  0.25457743D-13 -0.11439299D-14  0.11041188D-03 -0.90032497D-14
 -0.54009456D-14 -0.26787895D-03 -0.67369978D-13  0.88327354D-14 -0.63356679D-04
  0.68206817D-15  0.23056373D-14 -0.13825376D-14  0.27450782D-04  0.82945547D-14
  0.51947353D-15 -0.56553924D-04 -0.15211467D-13  0.36281392D-14 -0.25798423D-04
  0.20970544D-15 -0.49393703D-01 -0.92069947D-01 -0.15607907D+00 -0.23632482D+00
 -0.29545808D+00 -0.25414693D+00 -0.97470818D-01 -0.79004818D-05 -0.10458759D-03
 -0.37988114D-03 -0.11269102D-02 -0.12985364D-02  0.15772659D-02 -0.42311078D-02
  0.10842053D-02  0.14039176D-03  0.19179005D-11  0.18756648D-11  0.12393310D-11
 -0.44545156D-02 -0.43564189D-02 -0.28784702D-02 -0.99973491D-03 -0.97771891D-03
 -0.64602022D-03  0.44875713D-12 -0.46829297D-03  0.24279765D-03  0.11108176D-12
 -0.42581737D-04  0.20955280D-03 -0.17471502D-15 -0.24918238D-05  0.27993471D-04
 -0.15184437D-03  0.16821247D-03 -0.16368093D-04 -0.11717807D-12 -0.48268637D-13
  0.40615882D-03  0.10758650D-03 -0.29129961D-04 -0.78456544D-04  0.34105785D-13
 -0.18989906D-13 -0.28598119D-03  0.79389906D-04 -0.26215478D-04 -0.53174428D-04
  0.72972874D-14  0.27799205D-13  0.82352241D-04  0.99070639D-14  0.11232225D-03
  0.22335213D-03 -0.51569665D-13 -0.33219074D-03 -0.19970695D-03  0.21848473D-13
 -0.47759955D-05 -0.47034945D-03 -0.19850354D-12 -0.39663960D-14 -0.22687479D-04
 -0.67746348D-04  0.28680824D-13  0.30328774D-03  0.25839414D-03 -0.16781636D-13
 -0.23522530D-03 -0.55155094D-04  0.72433948D-13 -0.49393703D-01 -0.92069947D-01
 -0.15607907D+00 -0.23632482D+00 -0.29545808D+00 -0.25414693D+00 -0.97470818D-01
 -0.79004818D-05 -0.10458759D-03 -0.37988114D-03 -0.11269102D-02 -0.12985364D-02
  0.15772659D-02 -0.42311078D-02  0.10842053D-02  0.14039176D-03  0.19923856D-11
  0.19485096D-11  0.12874627D-11  0.44545155D-02  0.43564189D-02  0.28784702D-02
 -0.99973491D-03 -0.97771891D-03 -0.64602022D-03  0.46441564D-12  0.46829297D-03
  0.24279765D-03  0.11746732D-12  0.42581737D-04  0.20955280D-03  0.87980933D-16
  0.24918238D-05  0.27993471D-04 -0.15184437D-03  0.16821247D-03 -0.16368093D-04
  0.11557935D-12 -0.42949961D-13 -0.40615882D-03  0.10758650D-03 -0.29129961D-04
 -0.78456543D-04 -0.34970880D-13 -0.18319952D-13  0.28598119D-03  0.79389906D-04
 -0.26215478D-04 -0.53174427D-04 -0.99190826D-14  0.29308013D-13 -0.82352241D-04
  0.13883711D-13 -0.11232225D-03  0.22335213D-03 -0.68288583D-13  0.33219074D-03
 -0.19970695D-03  0.26637450D-13  0.47759955D-05 -0.47034945D-03  0.21664261D-12
 -0.47907801D-14  0.22687479D-04 -0.67746348D-04  0.32034645D-13 -0.30328774D-03
  0.25839414D-03 -0.17662305D-13  0.23522530D-03 -0.55155094D-04 -0.78331401D-13
MO    4     MO 0.0        OCC NO =    2.0000091  ORB. ENERGY =    0.000000
 -0.80165396D-10 -0.14944445D-09 -0.25258148D-09 -0.37967707D-09 -0.46636527D-09
 -0.39359584D-09 -0.14800231D-09 -0.10509777D-13 -0.78554074D-13 -0.29357451D-12
 -0.81902717D-12 -0.10972706D-11  0.12956720D-11 -0.64221369D-11 -0.46922293D-12
 -0.59615376D-13 -0.40628851D-02 -0.38092130D-02 -0.27123866D-02 -0.56763085D-12
 -0.53219001D-12 -0.37895099D-12  0.25610747D-11  0.24011703D-11  0.17097763D-11
 -0.79904373D-03 -0.27995971D-12 -0.37556453D-12 -0.12181064D-03  0.11221447D-12
 -0.31248604D-12  0.20715263D-05 -0.25070223D-14 -0.23173053D-14  0.21862173D-12
 -0.14232602D-12 -0.76295711D-13  0.83436832D-14 -0.10252793D-02 -0.14449295D-12
 -0.50828314D-13  0.10711586D-12 -0.56287542D-13 -0.12998571D-13  0.47596787D-03
  0.11327807D-12  0.67178325D-14  0.15375883D-13 -0.22093716D-13 -0.47655655D-15
 -0.27046385D-04 -0.35698780D-13  0.10439355D-03  0.40783008D-13 -0.34822126D-13
  0.42918283D-04  0.94706680D-13  0.12676777D-13 -0.35609893D-03 -0.21705570D-12
  0.91789601D-13  0.36490004D-14 -0.31139795D-04 -0.17619320D-13  0.48441845D-13
 -0.72463079D-04 -0.20550717D-13  0.20009601D-13  0.16588246D-03  0.73408678D-13
 -0.16533514D-12  0.72950950D-14 -0.22023550D-10 -0.41175244D-10 -0.71163061D-10
 -0.11510332D-09 -0.17397481D-09 -0.23959934D-09 -0.28006245D-09 -0.24204890D-09
 -0.11296548D-09 -0.15304344D-10  0.11193818D-12  0.16327455D-12  0.20988779D-11
  0.76564050D-11  0.25832521D-10  0.56739806D-10  0.73292353D-10 -0.11778705D-10
 -0.98809333D-10 -0.54225288D-10  0.19230427D-15  0.21904652D-14  0.45481954D-14
  0.12506382D-13 -0.16215961D-14 -0.56548165D-13 -0.14104010D-12  0.11675096D-12
 -0.34414297D-11  0.83931858D-12  0.92599514D-13  0.97275522D+01  0.12761995D+02
  0.13997147D+02  0.11516431D+02  0.60708075D+01  0.15795099D+01  0.17143087D-08
  0.22490755D-08  0.24667491D-08  0.20295669D-08  0.10698723D-08  0.27836064D-09
  0.15893800D-08  0.20851762D-08  0.22869870D-08  0.18816640D-08  0.99190629D-09
  0.25807536D-09  0.57819435D-04  0.20754651D-02  0.32927774D-02  0.39100722D-02
  0.59169698D-03 -0.43062598D-02  0.16493664D-13  0.59205046D-12  0.93930290D-12
  0.11153934D-11  0.16878842D-12 -0.12284105D-11  0.16843270D-13  0.60459981D-12
  0.95921276D-12  0.11390357D-11  0.17236613D-12 -0.12544484D-11  0.73335455D-01
  0.11871827D-10  0.12258785D-10  0.16560753D-04 -0.72848740D-13 -0.26760492D-12
 -0.17800171D-04 -0.13266909D-14 -0.25557050D-14 -0.11712077D-12 -0.72182176D-13
  0.18930295D-12 -0.18644537D-14  0.58407882D-03  0.16724219D-12 -0.25170488D-13
 -0.12377536D-13  0.37548023D-13  0.38541609D-14 -0.22985010D-03 -0.99009466D-13
 -0.66388822D-14 -0.67502352D-14  0.13389117D-13  0.43281502D-16 -0.19673079D-04
 -0.54241419D-14  0.83882214D-04  0.51482439D-14 -0.65568466D-13 -0.30209562D-04
  0.20665811D-13  0.13999723D-12 -0.22143708D-03 -0.36110543D-13  0.56708163D-13
 -0.76575786D-15  0.90845846D-05  0.63745954D-14 -0.83943422D-14  0.28199189D-04
  0.24908539D-14  0.20033651D-13 -0.55452942D-04 -0.21614640D-13  0.51493759D-14
  0.98038931D-15  0.12359634D-09  0.23038378D-09  0.39055184D-09  0.59134831D-09
  0.73931563D-09  0.63594402D-09  0.24389822D-09  0.12286316D-13  0.16264781D-12
  0.59076645D-12  0.17524976D-11  0.20193995D-11 -0.24528614D-11  0.11340203D-10
 -0.38445510D-12  0.74159535D-13  0.63592618D-02  0.62192192D-02  0.41093010D-02
  0.42280084D-11  0.41348999D-11  0.27321032D-11  0.18184498D-11  0.17784042D-11
  0.11750669D-11  0.14941116D-02  0.22525773D-12 -0.18723704D-12  0.34914775D-03
  0.79727680D-13 -0.72059817D-13 -0.67772013D-06  0.16189119D-13 -0.99522786D-14
 -0.40111313D-14  0.21237444D-13 -0.17226313D-13 -0.37348384D-03 -0.15053257D-03
 -0.79510307D-13 -0.15657800D-13 -0.50181880D-13  0.65839681D-13  0.10101603D-03
 -0.59380658D-04  0.47202019D-14 -0.23912632D-13  0.82568925D-14  0.15655739D-13
  0.14607586D-04  0.80009979D-04 -0.29168379D-13  0.12347866D-04 -0.36179987D-13
 -0.89186298D-13 -0.14040002D-03  0.11013898D-12  0.17567013D-12  0.10335642D-03
 -0.15990209D-14  0.91888759D-13 -0.60873887D-03 -0.57167847D-05 -0.13983961D-13
  0.36099552D-13  0.80444807D-04 -0.87219215D-13 -0.13728659D-12 -0.63294453D-04
  0.12917110D-12  0.28987930D-13  0.21817860D-03  0.63291191D-10  0.11797489D-09
  0.19999372D-09  0.30281754D-09  0.37858862D-09  0.32565410D-09  0.12489536D-09
  0.72586698D-14  0.96091197D-13  0.34902071D-12  0.10353634D-11  0.11930472D-11
 -0.14491335D-11  0.56819700D-11 -0.39280820D-12 -0.21209843D-12  0.63592618D-02
  0.62192192D-02  0.41093010D-02 -0.32365935D-11 -0.31653178D-11 -0.20914593D-11
  0.21630396D-11  0.21154055D-11  0.13977379D-11  0.14941116D-02 -0.37093033D-12
  0.18448810D-12  0.34914775D-03 -0.10673218D-12  0.10354559D-12 -0.67772013D-06
  0.16295102D-13 -0.14995083D-13  0.84949818D-15 -0.42024872D-14  0.33529890D-14
  0.37348384D-03 -0.15053257D-03  0.18862369D-12 -0.15651494D-13  0.31618496D-13
 -0.15967002D-13 -0.10101603D-03 -0.59380658D-04 -0.11349348D-12 -0.49937287D-13
  0.18823023D-13  0.31114264D-13 -0.14607586D-04  0.80009979D-04 -0.41734612D-13
  0.12347866D-04 -0.13757929D-13 -0.71444197D-13 -0.14040002D-03 -0.68599522D-13
  0.14066996D-12  0.10335642D-03  0.10987331D-12  0.73662628D-13  0.60873888D-03