 Entering Gaussian System, Link 0=/home/bruns/programas/chemistry/gaussian/g09/g09
 Input=GAUSSIAN.com
 Output=GAUSSIAN.log
 Initial command:
 /home/bruns/programas/chemistry/gaussian/g09/l1.exe /home/bruns/programas/chemistry/gaussian/work/Gau-31639.inp -scrdir=/home/bruns/programas/chemistry/gaussian/work/
 Entering Link 1 = /home/bruns/programas/chemistry/gaussian/g09/l1.exe PID=     31641.
  
 Copyright (c) 1988,1990,1992,1993,1995,1998,2003,2009,2010,
            Gaussian, Inc.  All Rights Reserved.
  
 This is part of the Gaussian(R) 09 program.  It is based on
 the Gaussian(R) 03 system (copyright 2003, Gaussian, Inc.),
 the Gaussian(R) 98 system (copyright 1998, Gaussian, Inc.),
 the Gaussian(R) 94 system (copyright 1995, Gaussian, Inc.),
 the Gaussian 92(TM) system (copyright 1992, Gaussian, Inc.),
 the Gaussian 90(TM) system (copyright 1990, Gaussian, Inc.),
 the Gaussian 88(TM) system (copyright 1988, Gaussian, Inc.),
 the Gaussian 86(TM) system (copyright 1986, Carnegie Mellon
 University), and the Gaussian 82(TM) system (copyright 1983,
 Carnegie Mellon University). Gaussian is a federally registered
 trademark of Gaussian, Inc.
  
 This software contains proprietary and confidential information,
 including trade secrets, belonging to Gaussian, Inc.
  
 This software is provided under written license and may be
 used, copied, transmitted, or stored only in accord with that
 written license.
  
 The following legend is applicable only to US Government
 contracts under FAR:
  
                    RESTRICTED RIGHTS LEGEND
  
 Use, reproduction and disclosure by the US Government is
 subject to restrictions as set forth in subparagraphs (a)
 and (c) of the Commercial Computer Software - Restricted
 Rights clause in FAR 52.227-19.
  
 Gaussian, Inc.
 340 Quinnipiac St., Bldg. 40, Wallingford CT 06492
  
  
 ---------------------------------------------------------------
 Warning -- This program may not be used in any manner that
 competes with the business of Gaussian, Inc. or will provide
 assistance to any competitor of Gaussian, Inc.  The licensee
 of this program is prohibited from giving any competitor of
 Gaussian, Inc. access to this program.  By using this program,
 the user acknowledges that Gaussian, Inc. is engaged in the
 business of creating and licensing software in the field of
 computational chemistry and represents and warrants to the
 licensee that it is not a competitor of Gaussian, Inc. and that
 it will not use this program in any manner prohibited above.
 ---------------------------------------------------------------
  

 Cite this work as:
 Gaussian 09, Revision B.01,
 M. J. Frisch, G. W. Trucks, H. B. Schlegel, G. E. Scuseria, 
 M. A. Robb, J. R. Cheeseman, G. Scalmani, V. Barone, B. Mennucci, 
 G. A. Petersson, H. Nakatsuji, M. Caricato, X. Li, H. P. Hratchian, 
 A. F. Izmaylov, J. Bloino, G. Zheng, J. L. Sonnenberg, M. Hada, 
 M. Ehara, K. Toyota, R. Fukuda, J. Hasegawa, M. Ishida, T. Nakajima, 
 Y. Honda, O. Kitao, H. Nakai, T. Vreven, J. A. Montgomery, Jr., 
 J. E. Peralta, F. Ogliaro, M. Bearpark, J. J. Heyd, E. Brothers, 
 K. N. Kudin, V. N. Staroverov, T. Keith, R. Kobayashi, J. Normand, 
 K. Raghavachari, A. Rendell, J. C. Burant, S. S. Iyengar, J. Tomasi, 
 M. Cossi, N. Rega, J. M. Millam, M. Klene, J. E. Knox, J. B. Cross, 
 V. Bakken, C. Adamo, J. Jaramillo, R. Gomperts, R. E. Stratmann, 
 O. Yazyev, A. J. Austin, R. Cammi, C. Pomelli, J. W. Ochterski, 
 R. L. Martin, K. Morokuma, V. G. Zakrzewski, G. A. Voth, 
 P. Salvador, J. J. Dannenberg, S. Dapprich, A. D. Daniels, 
 O. Farkas, J. B. Foresman, J. V. Ortiz, J. Cioslowski, 
 and D. J. Fox, Gaussian, Inc., Wallingford CT, 2010.
 
 ******************************************
 Gaussian 09:  EM64L-G09RevB.01 12-Aug-2010
                27-Nov-2021 
 ******************************************
 %nproc=8
 Will use up to    8 processors via shared memory.
 %mem=8GB
 -----------------------------------------------------
 # qcisd/aug-cc-pvtz nosymm density=current output=wfn
 -----------------------------------------------------
 1/30=1,38=1/1;
 2/12=2,15=1,17=6,18=5,40=1/2;
 3/5=16,6=1,7=10,11=9,16=1,25=1,30=1,71=1/1,2,3;
 4//1;
 5/5=2,38=5/2;
 8/6=4,9=120000,10=1/1,4;
 9/5=8,15=1/13;
 11/28=-7,31=1,32=3,42=3/11;
 10/5=6,13=10,31=1/2;
 6/7=2,8=2,9=2,10=2,22=-1,31=1/1;
 99/5=1,6=1100,9=1/99;
 -----------------
 f2cs-wavefunction
 -----------------
 Symbolic Z-matrix:
 Charge =  0 Multiplicity = 1
 C                     0.        0.       -0.53035 
 S                     0.        0.        1.07852 
 F                     0.       -1.05522  -1.29554 
 F                     0.        1.05522  -1.29554 
 
                          Input orientation:                          
 ---------------------------------------------------------------------
 Center     Atomic      Atomic             Coordinates (Angstroms)
 Number     Number       Type             X           Y           Z
 ---------------------------------------------------------------------
      1          6           0        0.000000    0.000000   -0.530349
      2         16           0        0.000000    0.000000    1.078525
      3          9           0        0.000000   -1.055221   -1.295538
      4          9           0        0.000000    1.055221   -1.295538
 ---------------------------------------------------------------------
                    Distance matrix (angstroms):
                    1          2          3          4
     1  C    0.000000
     2  S    1.608874   0.000000
     3  F    1.303459   2.598012   0.000000
     4  F    1.303459   2.598012   2.110442   0.000000
 Symmetry turned off by external request.
 Stoichiometry    CF2S
 Framework group  C2V[C2(CS),SGV(F2)]
 Deg. of freedom     3
 Full point group                 C2V     NOp   4
 Rotational constants (GHZ):     11.9449201      5.1097548      3.5788201
 Standard basis: Aug-CC-pVTZ (5D, 7F)
 Integral buffers will be    131072 words long.
 Raffenetti 1 integral format.
 Two-electron integral symmetry is turned off.
   188 basis functions,   330 primitive gaussians,   224 cartesian basis functions
    20 alpha electrons       20 beta electrons
       nuclear repulsion energy       154.3927914663 Hartrees.
 NAtoms=    4 NActive=    4 NUniq=    4 SFac= 1.00D+00 NAtFMM=   50 NAOKFM=F Big=F
 One-electron integrals computed using PRISM.
 NBasis=   188 RedAO= T  NBF=   188
 NBsUse=   188 1.00D-06 NBFU=   188
 Harris functional with IExCor=  205 diagonalized for initial guess.
 ExpMin= 3.51D-02 ExpMax= 3.74D+05 ExpMxC= 1.18D+03 IAcc=3 IRadAn=         0 AccDes= 0.00D+00
 HarFok:  IExCor=  205 AccDes= 0.00D+00 IRadAn=         0 IDoV= 1
 ScaDFX=  1.000000  1.000000  1.000000  1.000000
 FoFCou: FMM=F IPFlag=           0 FMFlag=      100000 FMFlg1=           0
         NFxFlg=           0 DoJE=T BraDBF=F KetDBF=T FulRan=T
         Omega=  0.000000  0.000000  1.000000  0.000000  0.000000 ICntrl=     500 IOpCl=  0
         NMat0=    1 NMatS0=    1 NMatT0=    0 NMatD0=    1 NMtDS0=    0 NMtDT0=    0
         I1Cent=           4 NGrid=           0.
 Symmetry not used in FoFCou.
 Requested convergence on RMS density matrix=1.00D-08 within 128 cycles.
 Requested convergence on MAX density matrix=1.00D-06.
 Requested convergence on             energy=1.00D-06.
 No special actions if energy rises.
 Keep R1 ints in memory in canonical form, NReq=323399632.
 SCF Done:  E(RHF) =  -634.357171413     A.U. after   12 cycles
             Convg  =    0.8584D-08             -V/T =  2.0005
 ExpMin= 3.51D-02 ExpMax= 3.74D+05 ExpMxC= 1.18D+03 IAcc=3 IRadAn=         5 AccDes= 0.00D+00
 HarFok:  IExCor=  205 AccDes= 0.00D+00 IRadAn=         5 IDoV=-2
 ScaDFX=  1.000000  1.000000  1.000000  1.000000
 DSYEVD returned Info=          93 IAlg= 4 N=    46 NDim=    46 NE2=    21472498 trying DSYEV.
 Range of M.O.s used for correlation:     9   188
 NBasis=   188 NAE=    20 NBE=    20 NFC=     8 NFV=     0
 NROrb=    180 NOA=    12 NOB=    12 NVA=   168 NVB=   168

 **** Warning!!: The largest alpha MO coefficient is  0.28448311D+02

 Semi-Direct transformation.
 ModeAB=           2 MOrb=            12 LenV=    1072746559
 LASXX=     33405819 LTotXX=    33405819 LenRXX=    33405819
 LTotAB=    33954012 MaxLAS=    54432000 LenRXY=    54432000
 NonZer=    66811638 LenScr=   100987392 LnRSAI=           0
 LnScr1=           0 LExtra=           0 Total=    188825211
 MaxDsk=          -1 SrtSym=           F ITran=            4
 JobTyp=0 Pass  1:  I=   1 to  12.
 (rs|ai) integrals will be sorted in core.
 Spin components of T(2) and E(2):
     alpha-alpha T2 =       0.3011121755D-01 E2=     -0.1103240513D+00
     alpha-beta  T2 =       0.1597093963D+00 E2=     -0.6182967244D+00
     beta-beta   T2 =       0.3011121755D-01 E2=     -0.1103240513D+00
 ANorm=    0.1104505243D+01
 E2 =    -0.8389448271D+00 EUMP2 =    -0.63519611624039D+03
 R2 and R3 integrals will be kept in memory, NReq=   640760400.
 Iterations=  50 Convergence= 0.100D-07
 Iteration Nr.   1
 **********************
 DD1Dir will call FoFMem   1 times, MxPair=       156
 NAB=    78 NAA=     0 NBB=     0.
 MP4(R+Q)=  0.19345752D-01
 E3=       -0.35713056D-02        EUMP3=      -0.63519968755D+03
 E4(DQ)=    0.24817016D-02        UMP4(DQ)=   -0.63519720584D+03
 E4(SDQ)=  -0.83642339D-02        UMP4(SDQ)=  -0.63520805178D+03
 DE(Corr)= -0.82317038     E(Corr)=     -635.18034179    
 NORM(A)=   0.11038302D+01
 Iteration Nr.   2
 **********************
 DD1Dir will call FoFMem   1 times, MxPair=       156
 NAB=    78 NAA=     0 NBB=     0.
 DE(Corr)= -0.84879604     E(CORR)=     -635.20596745     Delta=-2.56D-02
 NORM(A)=   0.11127799D+01
 Iteration Nr.   3
 **********************
 DD1Dir will call FoFMem   1 times, MxPair=       156
 NAB=    78 NAA=     0 NBB=     0.
 DE(Corr)= -0.84713875     E(CORR)=     -635.20431017     Delta= 1.66D-03
 NORM(A)=   0.11156541D+01
 Iteration Nr.   4
 **********************
 DD1Dir will call FoFMem   1 times, MxPair=       156
 NAB=    78 NAA=     0 NBB=     0.
 DE(Corr)= -0.84967512     E(CORR)=     -635.20684653     Delta=-2.54D-03
 NORM(A)=   0.11167982D+01
 Iteration Nr.   5
 **********************
 DD1Dir will call FoFMem   1 times, MxPair=       156
 NAB=    78 NAA=     0 NBB=     0.
 DE(Corr)= -0.84997959     E(CORR)=     -635.20715101     Delta=-3.04D-04
 NORM(A)=   0.11171406D+01
 Iteration Nr.   6
 **********************
 DD1Dir will call FoFMem   1 times, MxPair=       156
 NAB=    78 NAA=     0 NBB=     0.
 DE(Corr)= -0.85002023     E(CORR)=     -635.20719164     Delta=-4.06D-05
 NORM(A)=   0.11171918D+01
 Iteration Nr.   7
 **********************
 DD1Dir will call FoFMem   1 times, MxPair=       156
 NAB=    78 NAA=     0 NBB=     0.
 DE(Corr)= -0.85002464     E(CORR)=     -635.20719605     Delta=-4.41D-06
 NORM(A)=   0.11171939D+01
 Iteration Nr.   8
 **********************
 DD1Dir will call FoFMem   1 times, MxPair=       156
 NAB=    78 NAA=     0 NBB=     0.
 DE(Corr)= -0.85002240     E(CORR)=     -635.20719381     Delta= 2.24D-06
 NORM(A)=   0.11172002D+01
 Iteration Nr.   9
 **********************
 DD1Dir will call FoFMem   1 times, MxPair=       156
 NAB=    78 NAA=     0 NBB=     0.
 DE(Corr)= -0.85002277     E(CORR)=     -635.20719419     Delta=-3.74D-07
 NORM(A)=   0.11172010D+01
 Iteration Nr.  10
 **********************
 DD1Dir will call FoFMem   1 times, MxPair=       156
 NAB=    78 NAA=     0 NBB=     0.
 DE(Corr)= -0.85002246     E(CORR)=     -635.20719387     Delta= 3.11D-07
 NORM(A)=   0.11172029D+01
 Iteration Nr.  11
 **********************
 DD1Dir will call FoFMem   1 times, MxPair=       156
 NAB=    78 NAA=     0 NBB=     0.
 DE(Corr)= -0.85002366     E(CORR)=     -635.20719507     Delta=-1.20D-06
 NORM(A)=   0.11172045D+01
 Iteration Nr.  12
 **********************
 DD1Dir will call FoFMem   1 times, MxPair=       156
 NAB=    78 NAA=     0 NBB=     0.
 DE(Corr)= -0.85002384     E(CORR)=     -635.20719525     Delta=-1.75D-07
 NORM(A)=   0.11172054D+01
 Iteration Nr.  13
 **********************
 DD1Dir will call FoFMem   1 times, MxPair=       156
 NAB=    78 NAA=     0 NBB=     0.
 DE(Corr)= -0.85002420     E(CORR)=     -635.20719561     Delta=-3.64D-07
 NORM(A)=   0.11172059D+01
 Iteration Nr.  14
 **********************
 DD1Dir will call FoFMem   1 times, MxPair=       156
 NAB=    78 NAA=     0 NBB=     0.
 DE(Corr)= -0.85002425     E(CORR)=     -635.20719567     Delta=-5.59D-08
 NORM(A)=   0.11172061D+01
 Iteration Nr.  15
 **********************
 DD1Dir will call FoFMem   1 times, MxPair=       156
 NAB=    78 NAA=     0 NBB=     0.
 DE(Corr)= -0.85002430     E(CORR)=     -635.20719571     Delta=-4.28D-08
 NORM(A)=   0.11172061D+01
 Iteration Nr.  16
 **********************
 DD1Dir will call FoFMem   1 times, MxPair=       156
 NAB=    78 NAA=     0 NBB=     0.
 DE(Corr)= -0.85002431     E(CORR)=     -635.20719573     Delta=-1.65D-08
 NORM(A)=   0.11172061D+01
 Iteration Nr.  17
 **********************
 DD1Dir will call FoFMem   1 times, MxPair=       156
 NAB=    78 NAA=     0 NBB=     0.
 DE(Corr)= -0.85002431     E(CORR)=     -635.20719572     Delta= 6.38D-09
 NORM(A)=   0.11172061D+01
 Iteration Nr.  18
 **********************
 DD1Dir will call FoFMem   1 times, MxPair=       156
 NAB=    78 NAA=     0 NBB=     0.
 DE(Corr)= -0.85002431     E(CORR)=     -635.20719572     Delta=-3.64D-09
 NORM(A)=   0.11172061D+01
 Iteration Nr.  19
 **********************
 DD1Dir will call FoFMem   1 times, MxPair=       156
 NAB=    78 NAA=     0 NBB=     0.
 DE(Corr)= -0.85002431     E(CORR)=     -635.20719572     Delta= 1.46D-09
 NORM(A)=   0.11172061D+01
 Largest amplitude= 8.58D-02

 Z-AMPLITUDE ITERATIONS

 Iteration Nr.   1
 **********************
 DD1Dir will call FoFMem   1 times, MxPair=       156
 NAB=    78 NAA=     0 NBB=     0.
 DE(Z)  -0.82610491D+00          E(Z)=    -0.63518327632D+03
 NORM(A)=   0.11172041D+01
 Iteration Nr.   2
 **********************
 DD1Dir will call FoFMem   1 times, MxPair=       156
 NAB=    78 NAA=     0 NBB=     0.
 DE(Z)  -0.82610490D+00          E(Z)=    -0.63518327632D+03
 NORM(A)=   0.11172067D+01
 Iteration Nr.   3
 **********************
 DD1Dir will call FoFMem   1 times, MxPair=       156
 NAB=    78 NAA=     0 NBB=     0.
 DE(Z)  -0.82610491D+00          E(Z)=    -0.63518327633D+03
 NORM(A)=   0.11172063D+01
 Iteration Nr.   4
 **********************
 DD1Dir will call FoFMem   1 times, MxPair=       156
 NAB=    78 NAA=     0 NBB=     0.
 DE(Z)  -0.82610491D+00          E(Z)=    -0.63518327632D+03
 NORM(A)=   0.11172063D+01
 Iteration Nr.   5
 **********************
 DD1Dir will call FoFMem   1 times, MxPair=       156
 NAB=    78 NAA=     0 NBB=     0.
 DE(Z)  -0.82610491D+00          E(Z)=    -0.63518327632D+03
 NORM(A)=   0.11090628D+01
 Iteration Nr.   6
 **********************
 DD1Dir will call FoFMem   1 times, MxPair=       156
 NAB=    78 NAA=     0 NBB=     0.
 DE(Z)  -0.82599162D+00          E(Z)=    -0.63518316304D+03
 NORM(A)=   0.11089540D+01
 Iteration Nr.   7
 **********************
 DD1Dir will call FoFMem   1 times, MxPair=       156
 NAB=    78 NAA=     0 NBB=     0.
 DE(Z)  -0.82597779D+00          E(Z)=    -0.63518314920D+03
 NORM(A)=   0.11089219D+01
 Iteration Nr.   8
 **********************
 DD1Dir will call FoFMem   1 times, MxPair=       156
 NAB=    78 NAA=     0 NBB=     0.
 DE(Z)  -0.82596382D+00          E(Z)=    -0.63518313524D+03
 NORM(A)=   0.11089135D+01
 Iteration Nr.   9
 **********************
 DD1Dir will call FoFMem   1 times, MxPair=       156
 NAB=    78 NAA=     0 NBB=     0.
 DE(Z)  -0.82596875D+00          E(Z)=    -0.63518314016D+03
 NORM(A)=   0.11089116D+01
 Iteration Nr.  10
 **********************
 DD1Dir will call FoFMem   1 times, MxPair=       156
 NAB=    78 NAA=     0 NBB=     0.
 DE(Z)  -0.82596669D+00          E(Z)=    -0.63518313810D+03
 NORM(A)=   0.11089114D+01
 Iteration Nr.  11
 **********************
 DD1Dir will call FoFMem   1 times, MxPair=       156
 NAB=    78 NAA=     0 NBB=     0.
 DE(Z)  -0.82596730D+00          E(Z)=    -0.63518313871D+03
 NORM(A)=   0.11089115D+01
 Iteration Nr.  12
 **********************
 DD1Dir will call FoFMem   1 times, MxPair=       156
 NAB=    78 NAA=     0 NBB=     0.
 DE(Z)  -0.82596716D+00          E(Z)=    -0.63518313857D+03
 NORM(A)=   0.11089116D+01
 Iteration Nr.  13
 **********************
 DD1Dir will call FoFMem   1 times, MxPair=       156
 NAB=    78 NAA=     0 NBB=     0.
 DE(Z)  -0.82596721D+00          E(Z)=    -0.63518313862D+03
 NORM(A)=   0.11089116D+01
 Iteration Nr.  14
 **********************
 DD1Dir will call FoFMem   1 times, MxPair=       156
 NAB=    78 NAA=     0 NBB=     0.
 DE(Z)  -0.82596725D+00          E(Z)=    -0.63518313866D+03
 NORM(A)=   0.11089116D+01
 Iteration Nr.  15
 **********************
 DD1Dir will call FoFMem   1 times, MxPair=       156
 NAB=    78 NAA=     0 NBB=     0.
 DE(Z)  -0.82596722D+00          E(Z)=    -0.63518313863D+03
 NORM(A)=   0.11089116D+01
 Iteration Nr.  16
 **********************
 DD1Dir will call FoFMem   1 times, MxPair=       156
 NAB=    78 NAA=     0 NBB=     0.
 DE(Z)  -0.82596723D+00          E(Z)=    -0.63518313864D+03
 NORM(A)=   0.11089116D+01
 Iteration Nr.  17
 **********************
 DD1Dir will call FoFMem   1 times, MxPair=       156
 NAB=    78 NAA=     0 NBB=     0.
 DE(Z)  -0.82596723D+00          E(Z)=    -0.63518313864D+03
 NORM(A)=   0.11089116D+01
 Discarding MO integrals.
          Differentiating once with respect to electric field.
                with respect to dipole field.
          Electric field/nuclear overlap derivatives assumed to be zero.
          Keep R1 ints in memory in canonical form, NReq=319473719.
          There are     1 degrees of freedom in the 1st order CPHF.  IDoFFX=0.
 LinEq1:  Iter=  0 NonCon=     1 RMS=2.86D-03 Max=7.75D-02
 AX will form     1 AO Fock derivatives at one time.
 LinEq1:  Iter=  1 NonCon=     1 RMS=8.82D-04 Max=1.23D-02
 LinEq1:  Iter=  2 NonCon=     1 RMS=4.07D-04 Max=1.36D-02
 LinEq1:  Iter=  3 NonCon=     1 RMS=1.12D-04 Max=2.50D-03
 LinEq1:  Iter=  4 NonCon=     1 RMS=2.88D-05 Max=6.85D-04
 LinEq1:  Iter=  5 NonCon=     1 RMS=7.18D-06 Max=9.45D-05
 LinEq1:  Iter=  6 NonCon=     1 RMS=2.88D-06 Max=5.86D-05
 LinEq1:  Iter=  7 NonCon=     1 RMS=8.64D-07 Max=1.52D-05
 LinEq1:  Iter=  8 NonCon=     1 RMS=1.69D-07 Max=2.38D-06
 LinEq1:  Iter=  9 NonCon=     1 RMS=3.16D-08 Max=3.69D-07
 LinEq1:  Iter= 10 NonCon=     1 RMS=6.26D-09 Max=7.52D-08
 LinEq1:  Iter= 11 NonCon=     1 RMS=9.95D-10 Max=1.63D-08
 LinEq1:  Iter= 12 NonCon=     1 RMS=1.43D-10 Max=1.94D-09
 LinEq1:  Iter= 13 NonCon=     0 RMS=2.60D-11 Max=2.81D-10
 Linear equations converged to 1.000D-10 1.000D-09 after    13 iterations.
 End of Minotr Frequency-dependent properties file   721 does not exist.
 End of Minotr Frequency-dependent properties file   722 does not exist.

 **********************************************************************

            Population analysis using the QCI/CC density.

 **********************************************************************

     Natural Orbital Coefficients:
                           1         2         3         4         5
     Eigenvalues --     2.00003   2.00002   2.00001   2.00001   2.00000
   1 1   C  1S          0.00000  -0.17294   0.60429   0.00000   0.47671
   2        2S          0.00000   0.00312  -0.00927   0.00000  -0.00488
   3        3S          0.00000  -0.00662   0.02435   0.00000   0.01996
   4        4S          0.00000  -0.00867   0.00231   0.00000  -0.00232
   5        5S          0.00000  -0.00074   0.00198   0.00000   0.00036
   6        6PX         0.00000   0.00000   0.00000  -0.00179   0.00000
   7        6PY        -0.00135   0.00000   0.00000   0.00000   0.00000
   8        6PZ         0.00000   0.00129  -0.00334   0.00000  -0.00036
   9        7PX         0.00000   0.00000   0.00000  -0.00184   0.00000
  10        7PY        -0.00360   0.00000   0.00000   0.00000   0.00000
  11        7PZ         0.00000  -0.00093   0.00141   0.00000   0.00152
  12        8PX         0.00000   0.00000   0.00000  -0.00122   0.00000
  13        8PY         0.00605   0.00000   0.00000   0.00000   0.00000
  14        8PZ         0.00000  -0.00910   0.00556   0.00000  -0.00123
  15        9PX         0.00000   0.00000   0.00000   0.00009   0.00000
  16        9PY        -0.00060   0.00000   0.00000   0.00000   0.00000
  17        9PZ         0.00000   0.00036   0.00030   0.00000   0.00052
  18       10D 0        0.00000  -0.00008   0.00007   0.00000   0.00018
  19       10D+1        0.00000   0.00000   0.00000  -0.00030   0.00000
  20       10D-1       -0.00029   0.00000   0.00000   0.00000   0.00000
  21       10D+2        0.00000   0.00011  -0.00039   0.00000  -0.00019
  22       10D-2        0.00000   0.00000   0.00000   0.00000   0.00000
  23       11D 0        0.00000  -0.00118   0.00023   0.00000  -0.00037
  24       11D+1        0.00000   0.00000   0.00000   0.00117   0.00000
  25       11D-1        0.00095   0.00000   0.00000   0.00000   0.00000
  26       11D+2        0.00000  -0.00013   0.00120   0.00000   0.00083
  27       11D-2        0.00000   0.00000   0.00000   0.00000   0.00000
  28       12D 0        0.00000  -0.00269   0.00170   0.00000  -0.00141
  29       12D+1        0.00000   0.00000   0.00000  -0.00056   0.00000
  30       12D-1       -0.00436   0.00000   0.00000   0.00000   0.00000
  31       12D+2        0.00000  -0.00090   0.00062   0.00000  -0.00054
  32       12D-2        0.00000   0.00000   0.00000   0.00000   0.00000
  33       13F 0        0.00000  -0.00004  -0.00001   0.00000   0.00041
  34       13F+1        0.00000   0.00000   0.00000  -0.00018   0.00000
  35       13F-1       -0.00055   0.00000   0.00000   0.00000   0.00000
  36       13F+2        0.00000  -0.00010   0.00017   0.00000   0.00002
  37       13F-2        0.00000   0.00000   0.00000   0.00000   0.00000
  38       13F+3        0.00000   0.00000   0.00000   0.00002   0.00000
  39       13F-3        0.00004   0.00000   0.00000   0.00000   0.00000
  40       14F 0        0.00000   0.00058  -0.00194   0.00000  -0.00024
  41       14F+1        0.00000   0.00000   0.00000   0.00089   0.00000
  42       14F-1        0.00294   0.00000   0.00000   0.00000   0.00000
  43       14F+2        0.00000   0.00065  -0.00155   0.00000  -0.00088
  44       14F-2        0.00000   0.00000   0.00000   0.00000   0.00000
  45       14F+3        0.00000   0.00000   0.00000   0.00018   0.00000
  46       14F-3        0.00005   0.00000   0.00000   0.00000   0.00000
  47 2   S  1S          0.00000  -0.22007  -0.16565   0.00000   0.07286
  48        2S          0.00000   0.75256   0.57268   0.00000  -0.25291
  49        3S          0.00000  -0.02155  -0.00854   0.00000   0.00223
  50        4S          0.00000   0.05031   0.04133   0.00000  -0.01849
  51        5S          0.00000   0.00957  -0.01140   0.00000   0.00446
  52        6S          0.00000   0.00091  -0.00262   0.00000  -0.00069
  53        7PX         0.00000   0.00000   0.00000   0.97270   0.00000
  54        7PY         0.97649   0.00000   0.00000   0.00000   0.00000
  55        7PZ         0.00000   0.61276  -0.50654   0.00000   0.44845
  56        8PX         0.00000   0.00000   0.00000  -0.01219   0.00000
  57        8PY        -0.02018   0.00000   0.00000   0.00000   0.00000
  58        8PZ         0.00000  -0.01204   0.00874   0.00000  -0.00467
  59        9PX         0.00000   0.00000   0.00000   0.06127   0.00000
  60        9PY         0.05650   0.00000   0.00000   0.00000   0.00000
  61        9PZ         0.00000   0.03789  -0.03330   0.00000   0.02959
  62       10PX         0.00000   0.00000   0.00000   0.00020   0.00000
  63       10PY        -0.00437   0.00000   0.00000   0.00000   0.00000
  64       10PZ         0.00000  -0.00858   0.00492   0.00000  -0.00084
  65       11PX         0.00000   0.00000   0.00000  -0.00082   0.00000
  66       11PY        -0.00036   0.00000   0.00000   0.00000   0.00000
  67       11PZ         0.00000  -0.00028   0.00030   0.00000  -0.00004
  68       12D 0        0.00000   0.00237  -0.00292   0.00000   0.00115
  69       12D+1        0.00000   0.00000   0.00000   0.00198   0.00000
  70       12D-1        0.00335   0.00000   0.00000   0.00000   0.00000
  71       12D+2        0.00000  -0.00039   0.00027   0.00000   0.00028
  72       12D-2        0.00000   0.00000   0.00000   0.00000   0.00000
  73       13D 0        0.00000   0.00019   0.00029   0.00000  -0.00069
  74       13D+1        0.00000   0.00000   0.00000  -0.00014   0.00000
  75       13D-1       -0.00029   0.00000   0.00000   0.00000   0.00000
  76       13D+2        0.00000   0.00026   0.00013   0.00000  -0.00008
  77       13D-2        0.00000   0.00000   0.00000   0.00000   0.00000
  78       14D 0        0.00000   0.00138  -0.00062   0.00000   0.00012
  79       14D+1        0.00000   0.00000   0.00000  -0.00040   0.00000
  80       14D-1       -0.00078   0.00000   0.00000   0.00000   0.00000
  81       14D+2        0.00000   0.00025  -0.00003   0.00000   0.00013
  82       14D-2        0.00000   0.00000   0.00000   0.00000   0.00000
  83       15F 0        0.00000  -0.00022   0.00029   0.00000   0.00031
  84       15F+1        0.00000   0.00000   0.00000  -0.00022   0.00000
  85       15F-1       -0.00022   0.00000   0.00000   0.00000   0.00000
  86       15F+2        0.00000   0.00011  -0.00014   0.00000   0.00004
  87       15F-2        0.00000   0.00000   0.00000   0.00000   0.00000
  88       15F+3        0.00000   0.00000   0.00000   0.00009   0.00000
  89       15F-3        0.00006   0.00000   0.00000   0.00000   0.00000
  90       16F 0        0.00000  -0.00045   0.00056   0.00000  -0.00048
  91       16F+1        0.00000   0.00000   0.00000  -0.00046   0.00000
  92       16F-1       -0.00104   0.00000   0.00000   0.00000   0.00000
  93       16F+2        0.00000  -0.00002  -0.00016   0.00000  -0.00026
  94       16F-2        0.00000   0.00000   0.00000   0.00000   0.00000
  95       16F+3        0.00000   0.00000   0.00000  -0.00013   0.00000
  96       16F-3       -0.00012   0.00000   0.00000   0.00000   0.00000
  97 3   F  1S          0.00831   0.01080  -0.08935   0.00000  -0.48189
  98        2S          0.00018  -0.00045   0.00247   0.00000   0.00833
  99        3S          0.00044   0.00039  -0.00357   0.00000  -0.02049
 100        4S          0.00032  -0.00131   0.00383   0.00000   0.00179
 101        5S          0.00715  -0.00215   0.00128   0.00000  -0.00034
 102        6PX         0.00000   0.00000   0.00000   0.00096   0.00000
 103        6PY        -0.00019   0.00002  -0.00073   0.00000  -0.00172
 104        6PZ        -0.00057  -0.00013  -0.00020   0.00000  -0.00142
 105        7PX         0.00000   0.00000   0.00000   0.00119   0.00000
 106        7PY        -0.00030  -0.00006  -0.00042   0.00000  -0.00095
 107        7PZ        -0.00083  -0.00029   0.00016   0.00000  -0.00086
 108        8PX         0.00000   0.00000   0.00000   0.00128   0.00000
 109        8PY        -0.00050   0.00004  -0.00025   0.00000  -0.00112
 110        8PZ        -0.00275  -0.00026   0.00064   0.00000  -0.00143
 111        9PX         0.00000   0.00000   0.00000  -0.00002   0.00000
 112        9PY         0.00168  -0.00008  -0.00006   0.00000   0.00007
 113        9PZ         0.00020  -0.00109   0.00054   0.00000  -0.00069
 114       10D 0        0.00000   0.00001   0.00000   0.00000   0.00001
 115       10D+1        0.00000   0.00000   0.00000  -0.00001   0.00000
 116       10D-1        0.00001   0.00000   0.00002   0.00000   0.00002
 117       10D+2        0.00000   0.00001  -0.00002   0.00000   0.00002
 118       10D-2        0.00000   0.00000   0.00000  -0.00002   0.00000
 119       11D 0        0.00015   0.00001  -0.00006   0.00000  -0.00002
 120       11D+1        0.00000   0.00000   0.00000  -0.00003   0.00000
 121       11D-1       -0.00007   0.00004  -0.00014   0.00000  -0.00010
 122       11D+2        0.00004  -0.00002   0.00007   0.00000   0.00000
 123       11D-2        0.00000   0.00000   0.00000   0.00005   0.00000
 124       12D 0       -0.00047   0.00019  -0.00031   0.00000  -0.00005
 125       12D+1        0.00000   0.00000   0.00000   0.00025   0.00000
 126       12D-1       -0.00085  -0.00005   0.00019   0.00000  -0.00053
 127       12D+2        0.00039  -0.00017   0.00036   0.00000   0.00020
 128       12D-2        0.00000   0.00000   0.00000   0.00003   0.00000
 129       13F 0       -0.00001  -0.00002   0.00004   0.00000  -0.00001
 130       13F+1        0.00000   0.00000   0.00000   0.00001   0.00000
 131       13F-1        0.00003   0.00001   0.00000   0.00000   0.00002
 132       13F+2       -0.00001  -0.00001   0.00001   0.00000  -0.00004
 133       13F-2        0.00000   0.00000   0.00000  -0.00002   0.00000
 134       13F+3        0.00000   0.00000   0.00000   0.00001   0.00000
 135       13F-3       -0.00002   0.00001  -0.00002   0.00000   0.00001
 136       14F 0        0.00014   0.00006  -0.00009   0.00000   0.00014
 137       14F+1        0.00000   0.00000   0.00000  -0.00004   0.00000
 138       14F-1        0.00000   0.00003  -0.00014   0.00000  -0.00019
 139       14F+2        0.00007  -0.00001   0.00013   0.00000   0.00031
 140       14F-2        0.00000   0.00000   0.00000   0.00008   0.00000
 141       14F+3        0.00000   0.00000   0.00000  -0.00003   0.00000
 142       14F-3        0.00012  -0.00005   0.00016   0.00000   0.00000
 143 4   F  1S         -0.00831   0.01080  -0.08935   0.00000  -0.48189
 144        2S         -0.00018  -0.00045   0.00247   0.00000   0.00833
 145        3S         -0.00044   0.00039  -0.00357   0.00000  -0.02049
 146        4S         -0.00032  -0.00131   0.00383   0.00000   0.00179
 147        5S         -0.00715  -0.00215   0.00128   0.00000  -0.00034
 148        6PX         0.00000   0.00000   0.00000   0.00096   0.00000
 149        6PY        -0.00019  -0.00002   0.00073   0.00000   0.00172
 150        6PZ         0.00057  -0.00013  -0.00020   0.00000  -0.00142
 151        7PX         0.00000   0.00000   0.00000   0.00119   0.00000
 152        7PY        -0.00030   0.00006   0.00042   0.00000   0.00095
 153        7PZ         0.00083  -0.00029   0.00016   0.00000  -0.00086
 154        8PX         0.00000   0.00000   0.00000   0.00128   0.00000
 155        8PY        -0.00050  -0.00004   0.00025   0.00000   0.00112
 156        8PZ         0.00275  -0.00026   0.00064   0.00000  -0.00143
 157        9PX         0.00000   0.00000   0.00000  -0.00002   0.00000
 158        9PY         0.00168   0.00008   0.00006   0.00000  -0.00007
 159        9PZ        -0.00020  -0.00109   0.00054   0.00000  -0.00069
 160       10D 0        0.00000   0.00001   0.00000   0.00000   0.00001
 161       10D+1        0.00000   0.00000   0.00000  -0.00001   0.00000
 162       10D-1        0.00001   0.00000  -0.00002   0.00000  -0.00002
 163       10D+2        0.00000   0.00001  -0.00002   0.00000   0.00002
 164       10D-2        0.00000   0.00000   0.00000   0.00002   0.00000
 165       11D 0       -0.00015   0.00001  -0.00006   0.00000  -0.00002
 166       11D+1        0.00000   0.00000   0.00000  -0.00003   0.00000
 167       11D-1       -0.00007  -0.00004   0.00014   0.00000   0.00010
 168       11D+2       -0.00004  -0.00002   0.00007   0.00000   0.00000
 169       11D-2        0.00000   0.00000   0.00000  -0.00005   0.00000
 170       12D 0        0.00047   0.00019  -0.00031   0.00000  -0.00005
 171       12D+1        0.00000   0.00000   0.00000   0.00025   0.00000
 172       12D-1       -0.00085   0.00005  -0.00019   0.00000   0.00053
 173       12D+2       -0.00039  -0.00017   0.00036   0.00000   0.00020
 174       12D-2        0.00000   0.00000   0.00000  -0.00003   0.00000
 175       13F 0        0.00001  -0.00002   0.00004   0.00000  -0.00001
 176       13F+1        0.00000   0.00000   0.00000   0.00001   0.00000
 177       13F-1        0.00003  -0.00001   0.00000   0.00000  -0.00002
 178       13F+2        0.00001  -0.00001   0.00001   0.00000  -0.00004
 179       13F-2        0.00000   0.00000   0.00000   0.00002   0.00000
 180       13F+3        0.00000   0.00000   0.00000   0.00001   0.00000
 181       13F-3       -0.00002  -0.00001   0.00002   0.00000  -0.00001
 182       14F 0       -0.00014   0.00006  -0.00009   0.00000   0.00014
 183       14F+1        0.00000   0.00000   0.00000  -0.00004   0.00000
 184       14F-1        0.00000  -0.00003   0.00014   0.00000   0.00019
 185       14F+2       -0.00007  -0.00001   0.00013   0.00000   0.00031
 186       14F-2        0.00000   0.00000   0.00000  -0.00008   0.00000
 187       14F+3        0.00000   0.00000   0.00000  -0.00003   0.00000
 188       14F-3        0.00012   0.00005  -0.00016   0.00000   0.00000
                           6         7         8         9        10
     Eigenvalues --     2.00000   2.00000   2.00000   1.98614   1.98549
   1 1   C  1S          0.00000   0.58349   0.00016  -0.04868   0.00000
   2        2S          0.00000  -0.00546  -0.00003   0.10000   0.00000
   3        3S          0.00000   0.02366   0.00002   0.02092   0.00000
   4        4S          0.00000  -0.00208  -0.00005   0.01106   0.00000
   5        5S          0.00000   0.00062  -0.00008   0.00475   0.00000
   6        6PX         0.00000   0.00000   0.00000   0.00000   0.00000
   7        6PY        -0.00002   0.00000   0.00000   0.00000   0.03409
   8        6PZ         0.00000  -0.00096   0.00001  -0.02117   0.00000
   9        7PX         0.00000   0.00000   0.00000   0.00000   0.00000
  10        7PY         0.00081   0.00000   0.00000   0.00000   0.02732
  11        7PZ         0.00000   0.00006  -0.00013  -0.02521   0.00000
  12        8PX         0.00000   0.00000   0.00000   0.00000   0.00000
  13        8PY        -0.00061   0.00000   0.00000   0.00000  -0.01873
  14        8PZ         0.00000   0.00206   0.00003   0.03694   0.00000
  15        9PX         0.00000   0.00000   0.00000   0.00000   0.00000
  16        9PY         0.00033   0.00000   0.00000   0.00000   0.00145
  17        9PZ         0.00000   0.00027  -0.00003   0.00119   0.00000
  18       10D 0        0.00000   0.00021  -0.00001   0.00292   0.00000
  19       10D+1        0.00000   0.00000   0.00000   0.00000   0.00000
  20       10D-1       -0.00021   0.00000   0.00000   0.00000  -0.01054
  21       10D+2        0.00000  -0.00053   0.00000  -0.00862   0.00000
  22       10D-2        0.00000   0.00000   0.00000   0.00000   0.00000
  23       11D 0        0.00000  -0.00056  -0.00008   0.00180   0.00000
  24       11D+1        0.00000   0.00000   0.00000   0.00000   0.00000
  25       11D-1       -0.00130   0.00000   0.00000   0.00000  -0.01064
  26       11D+2        0.00000  -0.00004  -0.00003  -0.01172   0.00000
  27       11D-2        0.00000   0.00000   0.00000   0.00000   0.00000
  28       12D 0        0.00000  -0.00015  -0.00002   0.00727   0.00000
  29       12D+1        0.00000   0.00000   0.00000   0.00000   0.00000
  30       12D-1        0.00065   0.00000   0.00000   0.00000   0.01334
  31       12D+2        0.00000   0.00026   0.00000   0.00870   0.00000
  32       12D-2        0.00000   0.00000   0.00000   0.00000   0.00000
  33       13F 0        0.00000   0.00062   0.00001   0.00280   0.00000
  34       13F+1        0.00000   0.00000   0.00000   0.00000   0.00000
  35       13F-1        0.00016   0.00000   0.00000   0.00000   0.00174
  36       13F+2        0.00000   0.00061   0.00001   0.00526   0.00000
  37       13F-2        0.00000   0.00000   0.00000   0.00000   0.00000
  38       13F+3        0.00000   0.00000   0.00000   0.00000   0.00000
  39       13F-3       -0.00022   0.00000   0.00000   0.00000  -0.00216
  40       14F 0        0.00000   0.00053   0.00003   0.00431   0.00000
  41       14F+1        0.00000   0.00000   0.00000   0.00000   0.00000
  42       14F-1        0.00102   0.00000   0.00000   0.00000   0.00391
  43       14F+2        0.00000  -0.00023   0.00001   0.00234   0.00000
  44       14F-2        0.00000   0.00000   0.00000   0.00000   0.00000
  45       14F+3        0.00000   0.00000   0.00000   0.00000   0.00000
  46       14F-3        0.00013   0.00000   0.00000   0.00000   0.00027
  47 2   S  1S          0.00000   0.04613   0.99639   0.00288   0.00000
  48        2S          0.00000  -0.16157   0.01323  -0.01150   0.00000
  49        3S          0.00000   0.00052   0.00031   0.02222   0.00000
  50        4S          0.00000  -0.01206  -0.00002   0.00236   0.00000
  51        5S          0.00000   0.00133  -0.00004  -0.01845   0.00000
  52        6S          0.00000  -0.00087   0.00005  -0.01126   0.00000
  53        7PX         0.00000   0.00000   0.00000   0.00000   0.00000
  54        7PY         0.01182   0.00000   0.00000   0.00000  -0.00426
  55        7PZ         0.00000   0.33601   0.00169   0.00748   0.00000
  56        8PX         0.00000   0.00000   0.00000   0.00000   0.00000
  57        8PY        -0.00030   0.00000   0.00000   0.00000   0.01607
  58        8PZ         0.00000  -0.00297  -0.00018  -0.01271   0.00000
  59        9PX         0.00000   0.00000   0.00000   0.00000   0.00000
  60        9PY         0.00073   0.00000   0.00000   0.00000   0.00651
  61        9PZ         0.00000   0.02246   0.00019  -0.00730   0.00000
  62       10PX         0.00000   0.00000   0.00000   0.00000   0.00000
  63       10PY        -0.00047   0.00000   0.00000   0.00000   0.00416
  64       10PZ         0.00000  -0.00025   0.00003   0.00636   0.00000
  65       11PX         0.00000   0.00000   0.00000   0.00000   0.00000
  66       11PY        -0.00018   0.00000   0.00000   0.00000  -0.00057
  67       11PZ         0.00000   0.00007   0.00000   0.00186   0.00000
  68       12D 0        0.00000   0.00106   0.00008   0.00151   0.00000
  69       12D+1        0.00000   0.00000   0.00000   0.00000   0.00000
  70       12D-1        0.00010   0.00000   0.00000   0.00000  -0.00007
  71       12D+2        0.00000   0.00009  -0.00001  -0.00019   0.00000
  72       12D-2        0.00000   0.00000   0.00000   0.00000   0.00000
  73       13D 0        0.00000  -0.00066   0.00001   0.00251   0.00000
  74       13D+1        0.00000   0.00000   0.00000   0.00000   0.00000
  75       13D-1       -0.00001   0.00000   0.00000   0.00000  -0.00036
  76       13D+2        0.00000  -0.00005   0.00001  -0.00001   0.00000
  77       13D-2        0.00000   0.00000   0.00000   0.00000   0.00000
  78       14D 0        0.00000   0.00027  -0.00003  -0.00150   0.00000
  79       14D+1        0.00000   0.00000   0.00000   0.00000   0.00000
  80       14D-1        0.00013   0.00000   0.00000   0.00000   0.00192
  81       14D+2        0.00000  -0.00008   0.00000  -0.00273   0.00000
  82       14D-2        0.00000   0.00000   0.00000   0.00000   0.00000
  83       15F 0        0.00000   0.00034  -0.00002  -0.00044   0.00000
  84       15F+1        0.00000   0.00000   0.00000   0.00000   0.00000
  85       15F-1        0.00000   0.00000   0.00000   0.00000   0.00023
  86       15F+2        0.00000   0.00008   0.00000  -0.00002   0.00000
  87       15F-2        0.00000   0.00000   0.00000   0.00000   0.00000
  88       15F+3        0.00000   0.00000   0.00000   0.00000   0.00000
  89       15F-3       -0.00001   0.00000   0.00000   0.00000   0.00000
  90       16F 0        0.00000  -0.00051  -0.00001   0.00026   0.00000
  91       16F+1        0.00000   0.00000   0.00000   0.00000   0.00000
  92       16F-1       -0.00001   0.00000   0.00000   0.00000  -0.00016
  93       16F+2        0.00000  -0.00008   0.00000   0.00091   0.00000
  94       16F-2        0.00000   0.00000   0.00000   0.00000   0.00000
  95       16F+3        0.00000   0.00000   0.00000   0.00000   0.00000
  96       16F-3        0.00004   0.00000   0.00000   0.00000   0.00024
  97 3   F  1S         -0.69207   0.48854   0.00014  -0.14656   0.15005
  98        2S          0.01114  -0.00691  -0.00001   0.37463  -0.38395
  99        3S         -0.02982   0.02141   0.00001   0.11414  -0.11764
 100        4S          0.00074   0.00115  -0.00003   0.23371  -0.25378
 101        5S         -0.00067   0.00028   0.00004   0.01854  -0.03218
 102        6PX         0.00000   0.00000   0.00000   0.00000   0.00000
 103        6PY        -0.00146   0.00047   0.00000  -0.00601   0.03775
 104        6PZ        -0.00109   0.00001   0.00000  -0.02152   0.00773
 105        7PX         0.00000   0.00000   0.00000   0.00000   0.00000
 106        7PY         0.00014  -0.00076  -0.00001  -0.00296   0.04114
 107        7PZ        -0.00012  -0.00099  -0.00001  -0.02350   0.00570
 108        8PX         0.00000   0.00000   0.00000   0.00000   0.00000
 109        8PY        -0.00066   0.00057   0.00000  -0.01404   0.03404
 110        8PZ        -0.00149  -0.00068  -0.00004  -0.02922   0.00446
 111        9PX         0.00000   0.00000   0.00000   0.00000   0.00000
 112        9PY        -0.00040   0.00008   0.00001  -0.00180  -0.00131
 113        9PZ        -0.00004  -0.00015   0.00001  -0.00042   0.00040
 114       10D 0        0.00000   0.00001   0.00000  -0.00013  -0.00014
 115       10D+1        0.00000   0.00000   0.00000   0.00000   0.00000
 116       10D-1       -0.00001   0.00005   0.00000   0.00066  -0.00043
 117       10D+2        0.00001  -0.00001   0.00000  -0.00066   0.00010
 118       10D-2        0.00000   0.00000   0.00000   0.00000   0.00000
 119       11D 0       -0.00007  -0.00006   0.00000  -0.00081  -0.00090
 120       11D+1        0.00000   0.00000   0.00000   0.00000   0.00000
 121       11D-1        0.00024  -0.00053  -0.00001   0.00360  -0.00391
 122       11D+2       -0.00018   0.00022   0.00000  -0.00342   0.00200
 123       11D-2        0.00000   0.00000   0.00000   0.00000   0.00000
 124       12D 0       -0.00029  -0.00013   0.00000  -0.00144  -0.00115
 125       12D+1        0.00000   0.00000   0.00000   0.00000   0.00000
 126       12D-1       -0.00037  -0.00031  -0.00002  -0.00546  -0.00003
 127       12D+2        0.00017  -0.00013  -0.00001   0.00187  -0.00123
 128       12D-2        0.00000   0.00000   0.00000   0.00000   0.00000
 129       13F 0        0.00000  -0.00002   0.00000  -0.00035   0.00012
 130       13F+1        0.00000   0.00000   0.00000   0.00000   0.00000
 131       13F-1        0.00001  -0.00001   0.00000   0.00014  -0.00029
 132       13F+2       -0.00001   0.00001   0.00000  -0.00055   0.00032
 133       13F-2        0.00000   0.00000   0.00000   0.00000   0.00000
 134       13F+3        0.00000   0.00000   0.00000   0.00000   0.00000
 135       13F-3       -0.00006   0.00002   0.00000  -0.00043   0.00003
 136       14F 0       -0.00004   0.00021   0.00001  -0.00033   0.00038
 137       14F+1        0.00000   0.00000   0.00000   0.00000   0.00000
 138       14F-1       -0.00002  -0.00020   0.00000  -0.00021  -0.00084
 139       14F+2        0.00000   0.00028   0.00000  -0.00073   0.00098
 140       14F-2        0.00000   0.00000   0.00000   0.00000   0.00000
 141       14F+3        0.00000   0.00000   0.00000   0.00000   0.00000
 142       14F-3        0.00012   0.00004   0.00000  -0.00049   0.00063
 143 4   F  1S          0.69207   0.48854   0.00014  -0.14656  -0.15005
 144        2S         -0.01114  -0.00691  -0.00001   0.37463   0.38395
 145        3S          0.02982   0.02141   0.00001   0.11414   0.11764
 146        4S         -0.00074   0.00115  -0.00003   0.23371   0.25378
 147        5S          0.00067   0.00028   0.00004   0.01854   0.03218
 148        6PX         0.00000   0.00000   0.00000   0.00000   0.00000
 149        6PY        -0.00146  -0.00047   0.00000   0.00601   0.03775
 150        6PZ         0.00109   0.00001   0.00000  -0.02152  -0.00773
 151        7PX         0.00000   0.00000   0.00000   0.00000   0.00000
 152        7PY         0.00014   0.00076   0.00001   0.00296   0.04114
 153        7PZ         0.00012  -0.00099  -0.00001  -0.02350  -0.00570
 154        8PX         0.00000   0.00000   0.00000   0.00000   0.00000
 155        8PY        -0.00066  -0.00057   0.00000   0.01404   0.03404
 156        8PZ         0.00149  -0.00068  -0.00004  -0.02922  -0.00446
 157        9PX         0.00000   0.00000   0.00000   0.00000   0.00000
 158        9PY        -0.00040  -0.00008  -0.00001   0.00180  -0.00131
 159        9PZ         0.00004  -0.00015   0.00001  -0.00042  -0.00040
 160       10D 0        0.00000   0.00001   0.00000  -0.00013   0.00014
 161       10D+1        0.00000   0.00000   0.00000   0.00000   0.00000
 162       10D-1       -0.00001  -0.00005   0.00000  -0.00066  -0.00043
 163       10D+2       -0.00001  -0.00001   0.00000  -0.00066  -0.00010
 164       10D-2        0.00000   0.00000   0.00000   0.00000   0.00000
 165       11D 0        0.00007  -0.00006   0.00000  -0.00081   0.00090
 166       11D+1        0.00000   0.00000   0.00000   0.00000   0.00000
 167       11D-1        0.00024   0.00053   0.00001  -0.00360  -0.00391
 168       11D+2        0.00018   0.00022   0.00000  -0.00342  -0.00200
 169       11D-2        0.00000   0.00000   0.00000   0.00000   0.00000
 170       12D 0        0.00029  -0.00013   0.00000  -0.00144   0.00115
 171       12D+1        0.00000   0.00000   0.00000   0.00000   0.00000
 172       12D-1       -0.00037   0.00031   0.00002   0.00546  -0.00003
 173       12D+2       -0.00017  -0.00013  -0.00001   0.00187   0.00123
 174       12D-2        0.00000   0.00000   0.00000   0.00000   0.00000
 175       13F 0        0.00000  -0.00002   0.00000  -0.00035  -0.00012
 176       13F+1        0.00000   0.00000   0.00000   0.00000   0.00000
 177       13F-1        0.00001   0.00001   0.00000  -0.00014  -0.00029
 178       13F+2        0.00001   0.00001   0.00000  -0.00055  -0.00032
 179       13F-2        0.00000   0.00000   0.00000   0.00000   0.00000
 180       13F+3        0.00000   0.00000   0.00000   0.00000   0.00000
 181       13F-3       -0.00006  -0.00002   0.00000   0.00043   0.00003
 182       14F 0        0.00004   0.00021   0.00001  -0.00033  -0.00038
 183       14F+1        0.00000   0.00000   0.00000   0.00000   0.00000
 184       14F-1       -0.00002   0.00020   0.00000   0.00021  -0.00084
 185       14F+2        0.00000   0.00028   0.00000  -0.00073  -0.00098
 186       14F-2        0.00000   0.00000   0.00000   0.00000   0.00000
 187       14F+3        0.00000   0.00000   0.00000   0.00000   0.00000
 188       14F-3        0.00012  -0.00004   0.00000   0.00049   0.00063
                          11        12        13        14        15
     Eigenvalues --     1.97413   1.97111   1.97013   1.96731   1.96700
   1 1   C  1S         -0.05322  -0.10415   0.00000   0.00000   0.00000
   2        2S          0.14385   0.28073   0.00000   0.00000   0.00000
   3        3S          0.03388   0.06912   0.00000   0.00000   0.00000
   4        4S          0.01684   0.14701   0.00000   0.00000   0.00000
   5        5S         -0.02172   0.04299   0.00000   0.00000   0.00000
   6        6PX         0.00000   0.00000   0.00000   0.00000   0.10335
   7        6PY         0.00000   0.00000  -0.05298   0.00000   0.00000
   8        6PZ         0.09014   0.00756   0.00000   0.00000   0.00000
   9        7PX         0.00000   0.00000   0.00000   0.00000   0.12636
  10        7PY         0.00000   0.00000  -0.07780   0.00000   0.00000
  11        7PZ         0.11646  -0.00546   0.00000   0.00000   0.00000
  12        8PX         0.00000   0.00000   0.00000   0.00000   0.00492
  13        8PY         0.00000   0.00000   0.05608   0.00000   0.00000
  14        8PZ        -0.05577   0.03652   0.00000   0.00000   0.00000
  15        9PX         0.00000   0.00000   0.00000   0.00000  -0.00063
  16        9PY         0.00000   0.00000  -0.00051   0.00000   0.00000
  17        9PZ        -0.00765   0.01341   0.00000   0.00000   0.00000
  18       10D 0       -0.00907   0.01874   0.00000   0.00000   0.00000
  19       10D+1        0.00000   0.00000   0.00000   0.00000  -0.01518
  20       10D-1        0.00000   0.00000  -0.00925   0.00000   0.00000
  21       10D+2       -0.01014   0.00237   0.00000   0.00000   0.00000
  22       10D-2        0.00000   0.00000   0.00000  -0.02055   0.00000
  23       11D 0       -0.01866   0.03112   0.00000   0.00000   0.00000
  24       11D+1        0.00000   0.00000   0.00000   0.00000  -0.02516
  25       11D-1        0.00000   0.00000  -0.00786   0.00000   0.00000
  26       11D+2       -0.01791   0.00076   0.00000   0.00000   0.00000
  27       11D-2        0.00000   0.00000   0.00000  -0.03319   0.00000
  28       12D 0       -0.00473  -0.00339   0.00000   0.00000   0.00000
  29       12D+1        0.00000   0.00000   0.00000   0.00000  -0.00258
  30       12D-1        0.00000   0.00000   0.01199   0.00000   0.00000
  31       12D+2        0.00067  -0.00027   0.00000   0.00000   0.00000
  32       12D-2        0.00000   0.00000   0.00000   0.00912   0.00000
  33       13F 0        0.00825   0.00195   0.00000   0.00000   0.00000
  34       13F+1        0.00000   0.00000   0.00000   0.00000   0.00405
  35       13F-1        0.00000   0.00000   0.00938   0.00000   0.00000
  36       13F+2        0.00144   0.00300   0.00000   0.00000   0.00000
  37       13F-2        0.00000   0.00000   0.00000   0.00878   0.00000
  38       13F+3        0.00000   0.00000   0.00000   0.00000  -0.00793
  39       13F-3        0.00000   0.00000   0.00525   0.00000   0.00000
  40       14F 0        0.00626   0.00192   0.00000   0.00000   0.00000
  41       14F+1        0.00000   0.00000   0.00000   0.00000  -0.00163
  42       14F-1        0.00000   0.00000   0.02069   0.00000   0.00000
  43       14F+2        0.00684   0.00278   0.00000   0.00000   0.00000
  44       14F-2        0.00000   0.00000   0.00000   0.00970   0.00000
  45       14F+3        0.00000   0.00000   0.00000   0.00000  -0.00082
  46       14F-3        0.00000   0.00000   0.00058   0.00000   0.00000
  47 2   S  1S          0.03067   0.04403   0.00000   0.00000   0.00000
  48        2S         -0.11950  -0.16896   0.00000   0.00000   0.00000
  49        3S          0.24142   0.35600   0.00000   0.00000   0.00000
  50        4S          0.03093   0.04503   0.00000   0.00000   0.00000
  51        5S          0.17137   0.15781   0.00000   0.00000   0.00000
  52        6S          0.02908  -0.05343   0.00000   0.00000   0.00000
  53        7PX         0.00000   0.00000   0.00000   0.00000   0.01290
  54        7PY         0.00000   0.00000   0.00330   0.00000   0.00000
  55        7PZ         0.02742   0.03433   0.00000   0.00000   0.00000
  56        8PX         0.00000   0.00000   0.00000   0.00000  -0.03211
  57        8PY         0.00000   0.00000  -0.02010   0.00000   0.00000
  58        8PZ        -0.03137  -0.04045   0.00000   0.00000   0.00000
  59        9PX         0.00000   0.00000   0.00000   0.00000  -0.01456
  60        9PY         0.00000   0.00000  -0.00157   0.00000   0.00000
  61        9PZ        -0.01724  -0.02325   0.00000   0.00000   0.00000
  62       10PX         0.00000   0.00000   0.00000   0.00000  -0.02745
  63       10PY         0.00000   0.00000  -0.02419   0.00000   0.00000
  64       10PZ        -0.01525   0.03205   0.00000   0.00000   0.00000
  65       11PX         0.00000   0.00000   0.00000   0.00000  -0.00424
  66       11PY         0.00000   0.00000   0.00443   0.00000   0.00000
  67       11PZ        -0.00100   0.00937   0.00000   0.00000   0.00000
  68       12D 0        0.00518   0.00952   0.00000   0.00000   0.00000
  69       12D+1        0.00000   0.00000   0.00000   0.00000  -0.00823
  70       12D-1        0.00000   0.00000   0.02023   0.00000   0.00000
  71       12D+2       -0.00240   0.00184   0.00000   0.00000   0.00000
  72       12D-2        0.00000   0.00000   0.00000  -0.00417   0.00000
  73       13D 0        0.01584   0.01805   0.00000   0.00000   0.00000
  74       13D+1        0.00000   0.00000   0.00000   0.00000  -0.00454
  75       13D-1        0.00000   0.00000   0.00784   0.00000   0.00000
  76       13D+2       -0.00085   0.00157   0.00000   0.00000   0.00000
  77       13D-2        0.00000   0.00000   0.00000  -0.00125   0.00000
  78       14D 0       -0.00174  -0.01028   0.00000   0.00000   0.00000
  79       14D+1        0.00000   0.00000   0.00000   0.00000  -0.00274
  80       14D-1        0.00000   0.00000   0.01354   0.00000   0.00000
  81       14D+2       -0.00071  -0.00066   0.00000   0.00000   0.00000
  82       14D-2        0.00000   0.00000   0.00000  -0.00478   0.00000
  83       15F 0       -0.00486  -0.00686   0.00000   0.00000   0.00000
  84       15F+1        0.00000   0.00000   0.00000   0.00000   0.00183
  85       15F-1        0.00000   0.00000  -0.00512   0.00000   0.00000
  86       15F+2        0.00075  -0.00061   0.00000   0.00000   0.00000
  87       15F-2        0.00000   0.00000   0.00000   0.00131   0.00000
  88       15F+3        0.00000   0.00000   0.00000   0.00000  -0.00037
  89       15F-3        0.00000   0.00000   0.00026   0.00000   0.00000
  90       16F 0        0.00671   0.00087   0.00000   0.00000   0.00000
  91       16F+1        0.00000   0.00000   0.00000   0.00000   0.00204
  92       16F-1        0.00000   0.00000  -0.00201   0.00000   0.00000
  93       16F+2       -0.00045  -0.00050   0.00000   0.00000   0.00000
  94       16F-2        0.00000   0.00000   0.00000   0.00338   0.00000
  95       16F+3        0.00000   0.00000   0.00000   0.00000   0.00036
  96       16F-3        0.00000   0.00000  -0.00042   0.00000   0.00000
  97 3   F  1S         -0.00047   0.02746   0.01569   0.00000   0.00000
  98        2S         -0.00033  -0.07780  -0.04095   0.00000   0.00000
  99        3S          0.00021  -0.02648  -0.01373   0.00000   0.00000
 100        4S         -0.01319  -0.10413  -0.03920   0.00000   0.00000
 101        5S         -0.01592  -0.01964   0.00637   0.00000   0.00000
 102        6PX         0.00000   0.00000   0.00000   0.27593   0.25146
 103        6PY        -0.11016   0.15523  -0.15140   0.00000   0.00000
 104        6PZ         0.18341  -0.06068   0.23203   0.00000   0.00000
 105        7PX         0.00000   0.00000   0.00000   0.33600   0.30688
 106        7PY        -0.13450   0.18598  -0.18390   0.00000   0.00000
 107        7PZ         0.22106  -0.07525   0.28031   0.00000   0.00000
 108        8PX         0.00000   0.00000   0.00000   0.23416   0.21070
 109        8PY        -0.09082   0.10109  -0.14482   0.00000   0.00000
 110        8PZ         0.15070  -0.07249   0.18729   0.00000   0.00000
 111        9PX         0.00000   0.00000   0.00000   0.02718   0.01674
 112        9PY        -0.01260   0.00524  -0.01204   0.00000   0.00000
 113        9PZ         0.01064  -0.01395   0.02312   0.00000   0.00000
 114       10D 0        0.00244  -0.00122   0.00233   0.00000   0.00000
 115       10D+1        0.00000   0.00000   0.00000   0.00174   0.00186
 116       10D-1        0.00148   0.00167   0.00128   0.00000   0.00000
 117       10D+2        0.00137  -0.00243   0.00074   0.00000   0.00000
 118       10D-2        0.00000   0.00000   0.00000   0.00218   0.00305
 119       11D 0        0.00876  -0.00504   0.00856   0.00000   0.00000
 120       11D+1        0.00000   0.00000   0.00000   0.00715   0.00784
 121       11D-1        0.00405   0.00372   0.00451   0.00000   0.00000
 122       11D+2        0.00513  -0.00760   0.00345   0.00000   0.00000
 123       11D-2        0.00000   0.00000   0.00000   0.00977   0.01238
 124       12D 0        0.00577  -0.00318   0.00657   0.00000   0.00000
 125       12D+1        0.00000   0.00000   0.00000   0.00455   0.00403
 126       12D-1        0.00380  -0.00293  -0.00186   0.00000   0.00000
 127       12D+2       -0.00013  -0.00030   0.00855   0.00000   0.00000
 128       12D-2        0.00000   0.00000   0.00000   0.00558   0.00788
 129       13F 0        0.00039  -0.00081   0.00059   0.00000   0.00000
 130       13F+1        0.00000   0.00000   0.00000   0.00026   0.00028
 131       13F-1        0.00173  -0.00042   0.00178   0.00000   0.00000
 132       13F+2       -0.00002  -0.00103  -0.00005   0.00000   0.00000
 133       13F-2        0.00000   0.00000   0.00000   0.00151   0.00168
 134       13F+3        0.00000   0.00000   0.00000  -0.00088  -0.00155
 135       13F-3        0.00077  -0.00090   0.00031   0.00000   0.00000
 136       14F 0        0.00189  -0.00111   0.00056   0.00000   0.00000
 137       14F+1        0.00000   0.00000   0.00000   0.00070   0.00023
 138       14F-1        0.00234  -0.00152   0.00291   0.00000   0.00000
 139       14F+2        0.00027  -0.00098  -0.00030   0.00000   0.00000
 140       14F-2        0.00000   0.00000   0.00000   0.00265   0.00291
 141       14F+3        0.00000   0.00000   0.00000  -0.00257  -0.00213
 142       14F-3        0.00044  -0.00132   0.00152   0.00000   0.00000
 143 4   F  1S         -0.00047   0.02746  -0.01569   0.00000   0.00000
 144        2S         -0.00033  -0.07780   0.04095   0.00000   0.00000
 145        3S          0.00021  -0.02648   0.01373   0.00000   0.00000
 146        4S         -0.01319  -0.10413   0.03920   0.00000   0.00000
 147        5S         -0.01592  -0.01964  -0.00637   0.00000   0.00000
 148        6PX         0.00000   0.00000   0.00000  -0.27593   0.25146
 149        6PY         0.11016  -0.15523  -0.15140   0.00000   0.00000
 150        6PZ         0.18341  -0.06068  -0.23203   0.00000   0.00000
 151        7PX         0.00000   0.00000   0.00000  -0.33600   0.30688
 152        7PY         0.13450  -0.18598  -0.18390   0.00000   0.00000
 153        7PZ         0.22106  -0.07525  -0.28031   0.00000   0.00000
 154        8PX         0.00000   0.00000   0.00000  -0.23416   0.21070
 155        8PY         0.09082  -0.10109  -0.14482   0.00000   0.00000
 156        8PZ         0.15070  -0.07249  -0.18729   0.00000   0.00000
 157        9PX         0.00000   0.00000   0.00000  -0.02718   0.01674
 158        9PY         0.01260  -0.00524  -0.01204   0.00000   0.00000
 159        9PZ         0.01064  -0.01395  -0.02312   0.00000   0.00000
 160       10D 0        0.00244  -0.00122  -0.00233   0.00000   0.00000
 161       10D+1        0.00000   0.00000   0.00000  -0.00174   0.00186
 162       10D-1       -0.00148  -0.00167   0.00128   0.00000   0.00000
 163       10D+2        0.00137  -0.00243  -0.00074   0.00000   0.00000
 164       10D-2        0.00000   0.00000   0.00000   0.00218  -0.00305
 165       11D 0        0.00876  -0.00504  -0.00856   0.00000   0.00000
 166       11D+1        0.00000   0.00000   0.00000  -0.00715   0.00784
 167       11D-1       -0.00405  -0.00372   0.00451   0.00000   0.00000
 168       11D+2        0.00513  -0.00760  -0.00345   0.00000   0.00000
 169       11D-2        0.00000   0.00000   0.00000   0.00977  -0.01238
 170       12D 0        0.00577  -0.00318  -0.00657   0.00000   0.00000
 171       12D+1        0.00000   0.00000   0.00000  -0.00455   0.00403
 172       12D-1       -0.00380   0.00293  -0.00186   0.00000   0.00000
 173       12D+2       -0.00013  -0.00030  -0.00855   0.00000   0.00000
 174       12D-2        0.00000   0.00000   0.00000   0.00558  -0.00788
 175       13F 0        0.00039  -0.00081  -0.00059   0.00000   0.00000
 176       13F+1        0.00000   0.00000   0.00000  -0.00026   0.00028
 177       13F-1       -0.00173   0.00042   0.00178   0.00000   0.00000
 178       13F+2       -0.00002  -0.00103   0.00005   0.00000   0.00000
 179       13F-2        0.00000   0.00000   0.00000   0.00151  -0.00168
 180       13F+3        0.00000   0.00000   0.00000   0.00088  -0.00155
 181       13F-3       -0.00077   0.00090   0.00031   0.00000   0.00000
 182       14F 0        0.00189  -0.00111  -0.00056   0.00000   0.00000
 183       14F+1        0.00000   0.00000   0.00000  -0.00070   0.00023
 184       14F-1       -0.00234   0.00152   0.00291   0.00000   0.00000
 185       14F+2        0.00027  -0.00098   0.00030   0.00000   0.00000
 186       14F-2        0.00000   0.00000   0.00000   0.00265  -0.00291
 187       14F+3        0.00000   0.00000   0.00000   0.00257  -0.00213
 188       14F-3       -0.00044   0.00132   0.00152   0.00000   0.00000
                          16        17        18        19        20
     Eigenvalues --     1.96310   1.95935   1.94221   1.93945   1.91659
   1 1   C  1S         -0.08058   0.00000   0.07763   0.00000   0.00000
   2        2S          0.21064   0.00000  -0.23123   0.00000   0.00000
   3        3S          0.05530   0.00000  -0.05921   0.00000   0.00000
   4        4S          0.09178   0.00000  -0.16845   0.00000   0.00000
   5        5S         -0.02065   0.00000  -0.02335   0.00000   0.00000
   6        6PX         0.00000   0.00000   0.00000   0.00000   0.18063
   7        6PY         0.00000   0.19262   0.00000   0.03269   0.00000
   8        6PZ        -0.13640   0.00000  -0.18117   0.00000   0.00000
   9        7PX         0.00000   0.00000   0.00000   0.00000   0.25328
  10        7PY         0.00000   0.23256   0.00000   0.04653   0.00000
  11        7PZ        -0.17064   0.00000  -0.22524   0.00000   0.00000
  12        8PX         0.00000   0.00000   0.00000   0.00000   0.13768
  13        8PY         0.00000   0.05544   0.00000   0.05023   0.00000
  14        8PZ        -0.01539   0.00000  -0.06777   0.00000   0.00000
  15        9PX         0.00000   0.00000   0.00000   0.00000   0.02135
  16        9PY         0.00000  -0.00010   0.00000  -0.00347   0.00000
  17        9PZ        -0.00567   0.00000  -0.00601   0.00000   0.00000
  18       10D 0       -0.00763   0.00000  -0.01004   0.00000   0.00000
  19       10D+1        0.00000   0.00000   0.00000   0.00000   0.01529
  20       10D-1        0.00000  -0.02682   0.00000   0.02026   0.00000
  21       10D+2       -0.01505   0.00000  -0.00791   0.00000   0.00000
  22       10D-2        0.00000   0.00000   0.00000   0.00000   0.00000
  23       11D 0       -0.02010   0.00000  -0.01917   0.00000   0.00000
  24       11D+1        0.00000   0.00000   0.00000   0.00000   0.04758
  25       11D-1        0.00000  -0.05797   0.00000   0.05024   0.00000
  26       11D+2       -0.03637   0.00000  -0.02012   0.00000   0.00000
  27       11D-2        0.00000   0.00000   0.00000   0.00000   0.00000
  28       12D 0        0.00223   0.00000  -0.00601   0.00000   0.00000
  29       12D+1        0.00000   0.00000   0.00000   0.00000   0.01869
  30       12D-1        0.00000  -0.00338   0.00000  -0.02302   0.00000
  31       12D+2        0.00423   0.00000  -0.00239   0.00000   0.00000
  32       12D-2        0.00000   0.00000   0.00000   0.00000   0.00000
  33       13F 0        0.00212   0.00000  -0.00392   0.00000   0.00000
  34       13F+1        0.00000   0.00000   0.00000   0.00000   0.00657
  35       13F-1        0.00000   0.00770   0.00000   0.00700   0.00000
  36       13F+2        0.00537   0.00000   0.00180   0.00000   0.00000
  37       13F-2        0.00000   0.00000   0.00000   0.00000   0.00000
  38       13F+3        0.00000   0.00000   0.00000   0.00000   0.00045
  39       13F-3        0.00000  -0.00252   0.00000   0.00208   0.00000
  40       14F 0        0.00988   0.00000   0.00143   0.00000   0.00000
  41       14F+1        0.00000   0.00000   0.00000   0.00000   0.00080
  42       14F-1        0.00000   0.01884   0.00000   0.00032   0.00000
  43       14F+2        0.01049   0.00000   0.00021   0.00000   0.00000
  44       14F-2        0.00000   0.00000   0.00000   0.00000   0.00000
  45       14F+3        0.00000   0.00000   0.00000   0.00000   0.00406
  46       14F-3        0.00000  -0.00209   0.00000   0.00044   0.00000
  47 2   S  1S         -0.03734   0.00000   0.02940   0.00000   0.00000
  48        2S          0.14249   0.00000  -0.11295   0.00000   0.00000
  49        3S         -0.30783   0.00000   0.25944   0.00000   0.00000
  50        4S         -0.04226   0.00000   0.03756   0.00000   0.00000
  51        5S         -0.19142   0.00000   0.32341   0.00000   0.00000
  52        6S          0.01599   0.00000   0.05527   0.00000   0.00000
  53        7PX         0.00000   0.00000   0.00000   0.00000  -0.18894
  54        7PY         0.00000  -0.01319   0.00000  -0.21593   0.00000
  55        7PZ        -0.01019   0.00000  -0.17318   0.00000   0.00000
  56        8PX         0.00000   0.00000   0.00000   0.00000   0.43318
  57        8PY         0.00000   0.02635   0.00000   0.52234   0.00000
  58        8PZ         0.00685   0.00000   0.35838   0.00000   0.00000
  59        9PX         0.00000   0.00000   0.00000   0.00000   0.17786
  60        9PY         0.00000   0.01356   0.00000   0.21991   0.00000
  61        9PZ         0.00526   0.00000   0.16370   0.00000   0.00000
  62       10PX         0.00000   0.00000   0.00000   0.00000   0.24071
  63       10PY         0.00000   0.00291   0.00000   0.37071   0.00000
  64       10PZ         0.00147   0.00000   0.09645   0.00000   0.00000
  65       11PX         0.00000   0.00000   0.00000   0.00000   0.00121
  66       11PY         0.00000   0.00058   0.00000   0.02766   0.00000
  67       11PZ        -0.00312   0.00000  -0.00440   0.00000   0.00000
  68       12D 0       -0.00063   0.00000  -0.02729   0.00000   0.00000
  69       12D+1        0.00000   0.00000   0.00000   0.00000  -0.03368
  70       12D-1        0.00000  -0.00472   0.00000  -0.01297   0.00000
  71       12D+2       -0.00139   0.00000  -0.00081   0.00000   0.00000
  72       12D-2        0.00000   0.00000   0.00000   0.00000   0.00000
  73       13D 0       -0.00650   0.00000  -0.04806   0.00000   0.00000
  74       13D+1        0.00000   0.00000   0.00000   0.00000  -0.03350
  75       13D-1        0.00000  -0.00833   0.00000  -0.01447   0.00000
  76       13D+2       -0.00100   0.00000  -0.00098   0.00000   0.00000
  77       13D-2        0.00000   0.00000   0.00000   0.00000   0.00000
  78       14D 0        0.00154   0.00000   0.00493   0.00000   0.00000
  79       14D+1        0.00000   0.00000   0.00000   0.00000  -0.00515
  80       14D-1        0.00000   0.00210   0.00000  -0.01759   0.00000
  81       14D+2       -0.00076   0.00000  -0.00201   0.00000   0.00000
  82       14D-2        0.00000   0.00000   0.00000   0.00000   0.00000
  83       15F 0        0.00398   0.00000   0.01562   0.00000   0.00000
  84       15F+1        0.00000   0.00000   0.00000   0.00000   0.01190
  85       15F-1        0.00000   0.00300   0.00000   0.00809   0.00000
  86       15F+2        0.00016   0.00000   0.00212   0.00000   0.00000
  87       15F-2        0.00000   0.00000   0.00000   0.00000   0.00000
  88       15F+3        0.00000   0.00000   0.00000   0.00000   0.00241
  89       15F-3        0.00000   0.00009   0.00000   0.00262   0.00000
  90       16F 0       -0.00188   0.00000  -0.00527   0.00000   0.00000
  91       16F+1        0.00000   0.00000   0.00000   0.00000  -0.00036
  92       16F-1        0.00000  -0.00067   0.00000   0.00242   0.00000
  93       16F+2        0.00063   0.00000   0.00080   0.00000   0.00000
  94       16F-2        0.00000   0.00000   0.00000   0.00000   0.00000
  95       16F+3        0.00000   0.00000   0.00000   0.00000   0.00186
  96       16F-3        0.00000   0.00138   0.00000   0.00236   0.00000
  97 3   F  1S          0.00607   0.00878  -0.01366  -0.01545   0.00000
  98        2S         -0.02409  -0.01365   0.03805   0.04229   0.00000
  99        3S         -0.01136   0.00001   0.01104   0.01331   0.00000
 100        4S         -0.09858   0.07983   0.02074   0.03676   0.00000
 101        5S         -0.02134   0.03473  -0.00531   0.05455   0.00000
 102        6PX         0.00000   0.00000   0.00000   0.00000  -0.05330
 103        6PY         0.11627  -0.21980   0.02780   0.01841   0.00000
 104        6PZ         0.16346  -0.10366   0.06408   0.05147   0.00000
 105        7PX         0.00000   0.00000   0.00000   0.00000  -0.06451
 106        7PY         0.14049  -0.26674   0.03547   0.02452   0.00000
 107        7PZ         0.19778  -0.12631   0.07953   0.06377   0.00000
 108        8PX         0.00000   0.00000   0.00000   0.00000  -0.06086
 109        8PY         0.05775  -0.14311   0.01532   0.00746   0.00000
 110        8PZ         0.10679  -0.06367   0.05283   0.05146   0.00000
 111        9PX         0.00000   0.00000   0.00000   0.00000  -0.02598
 112        9PY        -0.00468  -0.00860   0.00006   0.01457   0.00000
 113        9PZ         0.00825   0.00436   0.01114   0.01764   0.00000
 114       10D 0       -0.00005  -0.00029  -0.00070  -0.00039   0.00000
 115       10D+1        0.00000   0.00000   0.00000   0.00000   0.00110
 116       10D-1        0.00421  -0.00487   0.00049   0.00042   0.00000
 117       10D+2       -0.00285   0.00300  -0.00099  -0.00021   0.00000
 118       10D-2        0.00000   0.00000   0.00000   0.00000   0.00114
 119       11D 0       -0.00036  -0.00187  -0.00234  -0.00231   0.00000
 120       11D+1        0.00000   0.00000   0.00000   0.00000   0.00391
 121       11D-1        0.01403  -0.01674   0.00296   0.00194   0.00000
 122       11D+2       -0.00932   0.00981  -0.00359  -0.00200   0.00000
 123       11D-2        0.00000   0.00000   0.00000   0.00000   0.00312
 124       12D 0       -0.00180  -0.00489  -0.00359  -0.00057   0.00000
 125       12D+1        0.00000   0.00000   0.00000   0.00000   0.00225
 126       12D-1       -0.00026  -0.00387  -0.00290  -0.00181   0.00000
 127       12D+2       -0.00178   0.00105  -0.00009   0.00233   0.00000
 128       12D-2        0.00000   0.00000   0.00000   0.00000   0.00379
 129       13F 0       -0.00114   0.00121  -0.00037  -0.00027   0.00000
 130       13F+1        0.00000   0.00000   0.00000   0.00000   0.00024
 131       13F-1        0.00104  -0.00113  -0.00009   0.00009   0.00000
 132       13F+2       -0.00193   0.00227  -0.00048  -0.00027   0.00000
 133       13F-2        0.00000   0.00000   0.00000   0.00000   0.00055
 134       13F+3        0.00000   0.00000   0.00000   0.00000  -0.00038
 135       13F-3       -0.00107   0.00097  -0.00056  -0.00009   0.00000
 136       14F 0       -0.00156   0.00130  -0.00132  -0.00091   0.00000
 137       14F+1        0.00000   0.00000   0.00000   0.00000   0.00052
 138       14F-1        0.00085  -0.00310  -0.00011  -0.00069   0.00000
 139       14F+2       -0.00307   0.00344  -0.00131  -0.00029   0.00000
 140       14F-2        0.00000   0.00000   0.00000   0.00000   0.00060
 141       14F+3        0.00000   0.00000   0.00000   0.00000  -0.00020
 142       14F-3       -0.00158   0.00183  -0.00028  -0.00052   0.00000
 143 4   F  1S          0.00607  -0.00878  -0.01366   0.01545   0.00000
 144        2S         -0.02409   0.01365   0.03805  -0.04229   0.00000
 145        3S         -0.01136  -0.00001   0.01104  -0.01331   0.00000
 146        4S         -0.09858  -0.07983   0.02074  -0.03676   0.00000
 147        5S         -0.02134  -0.03473  -0.00531  -0.05455   0.00000
 148        6PX         0.00000   0.00000   0.00000   0.00000  -0.05330
 149        6PY        -0.11627  -0.21980  -0.02780   0.01841   0.00000
 150        6PZ         0.16346   0.10366   0.06408  -0.05147   0.00000
 151        7PX         0.00000   0.00000   0.00000   0.00000  -0.06451
 152        7PY        -0.14049  -0.26674  -0.03547   0.02452   0.00000
 153        7PZ         0.19778   0.12631   0.07953  -0.06377   0.00000
 154        8PX         0.00000   0.00000   0.00000   0.00000  -0.06086
 155        8PY        -0.05775  -0.14311  -0.01532   0.00746   0.00000
 156        8PZ         0.10679   0.06367   0.05283  -0.05146   0.00000
 157        9PX         0.00000   0.00000   0.00000   0.00000  -0.02598
 158        9PY         0.00468  -0.00860  -0.00006   0.01457   0.00000
 159        9PZ         0.00825  -0.00436   0.01114  -0.01764   0.00000
 160       10D 0       -0.00005   0.00029  -0.00070   0.00039   0.00000
 161       10D+1        0.00000   0.00000   0.00000   0.00000   0.00110
 162       10D-1       -0.00421  -0.00487  -0.00049   0.00042   0.00000
 163       10D+2       -0.00285  -0.00300  -0.00099   0.00021   0.00000
 164       10D-2        0.00000   0.00000   0.00000   0.00000  -0.00114
 165       11D 0       -0.00036   0.00187  -0.00234   0.00231   0.00000
 166       11D+1        0.00000   0.00000   0.00000   0.00000   0.00391
 167       11D-1       -0.01403  -0.01674  -0.00296   0.00194   0.00000
 168       11D+2       -0.00932  -0.00981  -0.00359   0.00200   0.00000
 169       11D-2        0.00000   0.00000   0.00000   0.00000  -0.00312
 170       12D 0       -0.00180   0.00489  -0.00359   0.00057   0.00000
 171       12D+1        0.00000   0.00000   0.00000   0.00000   0.00225
 172       12D-1        0.00026  -0.00387   0.00290  -0.00181   0.00000
 173       12D+2       -0.00178  -0.00105  -0.00009  -0.00233   0.00000
 174       12D-2        0.00000   0.00000   0.00000   0.00000  -0.00379
 175       13F 0       -0.00114  -0.00121  -0.00037   0.00027   0.00000
 176       13F+1        0.00000   0.00000   0.00000   0.00000   0.00024
 177       13F-1       -0.00104  -0.00113   0.00009   0.00009   0.00000
 178       13F+2       -0.00193  -0.00227  -0.00048   0.00027   0.00000
 179       13F-2        0.00000   0.00000   0.00000   0.00000  -0.00055
 180       13F+3        0.00000   0.00000   0.00000   0.00000  -0.00038
 181       13F-3        0.00107   0.00097   0.00056  -0.00009   0.00000
 182       14F 0       -0.00156  -0.00130  -0.00132   0.00091   0.00000
 183       14F+1        0.00000   0.00000   0.00000   0.00000   0.00052
 184       14F-1       -0.00085  -0.00310   0.00011  -0.00069   0.00000
 185       14F+2       -0.00307  -0.00344  -0.00131   0.00029   0.00000
 186       14F-2        0.00000   0.00000   0.00000   0.00000  -0.00060
 187       14F+3        0.00000   0.00000   0.00000   0.00000  -0.00020
 188       14F-3        0.00158   0.00183   0.00028  -0.00052   0.00000
                          21        22        23        24        25
     Eigenvalues --     0.07433   0.04135   0.03878   0.03207   0.01908
   1 1   C  1S          0.00000   0.17437   0.00000   0.04458   0.03384
   2        2S          0.00000  -0.59553   0.00000  -0.13111  -0.09983
   3        3S          0.00000  -0.21270   0.00000  -0.00342  -0.04326
   4        4S          0.00000  -0.64430   0.00000  -0.00658   0.06658
   5        5S          0.00000  -0.12533   0.00000   0.01917   0.09176
   6        6PX         0.31851   0.00000   0.00000   0.00000   0.00000
   7        6PY         0.00000   0.00000   0.30349   0.00000   0.00000
   8        6PZ         0.00000  -0.06638   0.00000   0.36838   0.05343
   9        7PX         0.44526   0.00000   0.00000   0.00000   0.00000
  10        7PY         0.00000   0.00000   0.58926   0.00000   0.00000
  11        7PZ         0.00000  -0.08024   0.00000   0.66338   0.05779
  12        8PX         0.15411   0.00000   0.00000   0.00000   0.00000
  13        8PY         0.00000   0.00000   0.09865   0.00000   0.00000
  14        8PZ         0.00000  -0.22798   0.00000   0.25924   0.29828
  15        9PX         0.00839   0.00000   0.00000   0.00000   0.00000
  16        9PY         0.00000   0.00000   0.01638   0.00000   0.00000
  17        9PZ         0.00000  -0.00851   0.00000  -0.00580   0.03225
  18       10D 0        0.00000  -0.00192   0.00000   0.00829   0.05508
  19       10D+1        0.01623   0.00000   0.00000   0.00000   0.00000
  20       10D-1        0.00000   0.00000   0.03006   0.00000   0.00000
  21       10D+2        0.00000  -0.00962   0.00000   0.00274   0.04663
  22       10D-2        0.00000   0.00000   0.00000   0.00000   0.00000
  23       11D 0        0.00000  -0.04731   0.00000   0.07280   0.15237
  24       11D+1        0.07108   0.00000   0.00000   0.00000   0.00000
  25       11D-1        0.00000   0.00000  -0.06373   0.00000   0.00000
  26       11D+2        0.00000   0.02568   0.00000   0.07049   0.14381
  27       11D-2        0.00000   0.00000   0.00000   0.00000   0.00000
  28       12D 0        0.00000  -0.05396   0.00000   0.02235   0.01776
  29       12D+1        0.02754   0.00000   0.00000   0.00000   0.00000
  30       12D-1        0.00000   0.00000  -0.02976   0.00000   0.00000
  31       12D+2        0.00000   0.00668   0.00000   0.02231   0.02448
  32       12D-2        0.00000   0.00000   0.00000   0.00000   0.00000
  33       13F 0        0.00000  -0.00840   0.00000   0.01285  -0.00180
  34       13F+1        0.01172   0.00000   0.00000   0.00000   0.00000
  35       13F-1        0.00000   0.00000   0.03300   0.00000   0.00000
  36       13F+2        0.00000  -0.02120   0.00000  -0.02266   0.01251
  37       13F-2        0.00000   0.00000   0.00000   0.00000   0.00000
  38       13F+3       -0.00135   0.00000   0.00000   0.00000   0.00000
  39       13F-3        0.00000   0.00000  -0.01198   0.00000   0.00000
  40       14F 0        0.00000  -0.02531   0.00000  -0.01131  -0.02436
  41       14F+1        0.02773   0.00000   0.00000   0.00000   0.00000
  42       14F-1        0.00000   0.00000   0.11322   0.00000   0.00000
  43       14F+2        0.00000  -0.01356   0.00000  -0.04243  -0.02578
  44       14F-2        0.00000   0.00000   0.00000   0.00000   0.00000
  45       14F+3        0.00945   0.00000   0.00000   0.00000   0.00000
  46       14F-3        0.00000   0.00000   0.02826   0.00000   0.00000
  47 2   S  1S          0.00000   0.02112   0.00000  -0.01171   0.01031
  48        2S          0.00000  -0.05741   0.00000   0.02703  -0.05210
  49        3S          0.00000   0.22070   0.00000  -0.12876   0.08816
  50        4S          0.00000   0.00683   0.00000   0.02691   0.08059
  51        5S          0.00000   0.53617   0.00000  -0.48614  -0.37162
  52        6S          0.00000   0.16361   0.00000  -0.11601  -0.16877
  53        7PX         0.18268   0.00000   0.00000   0.00000   0.00000
  54        7PY         0.00000   0.00000   0.10377   0.00000   0.00000
  55        7PZ         0.00000   0.18734   0.00000  -0.08632   0.02969
  56        8PX        -0.48427   0.00000   0.00000   0.00000   0.00000
  57        8PY         0.00000   0.00000  -0.28778   0.00000   0.00000
  58        8PZ         0.00000  -0.62560   0.00000   0.44224   0.02470
  59        9PX        -0.20053   0.00000   0.00000   0.00000   0.00000
  60        9PY         0.00000   0.00000  -0.14137   0.00000   0.00000
  61        9PZ         0.00000  -0.20254   0.00000   0.07971  -0.04323
  62       10PX        -0.12353   0.00000   0.00000   0.00000   0.00000
  63       10PY         0.00000   0.00000   0.04402   0.00000   0.00000
  64       10PZ         0.00000  -0.33408   0.00000   0.32913   0.18732
  65       11PX        -0.00354   0.00000   0.00000   0.00000   0.00000
  66       11PY         0.00000   0.00000  -0.00210   0.00000   0.00000
  67       11PZ         0.00000  -0.02311   0.00000   0.02176   0.02090
  68       12D 0        0.00000  -0.07412   0.00000   0.04606   0.11584
  69       12D+1       -0.06013   0.00000   0.00000   0.00000   0.00000
  70       12D-1        0.00000   0.00000  -0.19116   0.00000   0.00000
  71       12D+2        0.00000  -0.04635   0.00000   0.02084   0.41842
  72       12D-2        0.00000   0.00000   0.00000   0.00000   0.00000
  73       13D 0        0.00000  -0.10254   0.00000   0.13116   0.10856
  74       13D+1       -0.06931   0.00000   0.00000   0.00000   0.00000
  75       13D-1        0.00000   0.00000  -0.15787   0.00000   0.00000
  76       13D+2        0.00000  -0.03221   0.00000   0.01149   0.29737
  77       13D-2        0.00000   0.00000   0.00000   0.00000   0.00000
  78       14D 0        0.00000   0.04207   0.00000  -0.06605  -0.03014
  79       14D+1        0.01161   0.00000   0.00000   0.00000   0.00000
  80       14D-1        0.00000   0.00000  -0.03483   0.00000   0.00000
  81       14D+2        0.00000  -0.00897   0.00000   0.00276   0.02759
  82       14D-2        0.00000   0.00000   0.00000   0.00000   0.00000
  83       15F 0        0.00000   0.01884   0.00000  -0.02117  -0.02320
  84       15F+1        0.01919   0.00000   0.00000   0.00000   0.00000
[...]
  93       16F+2        0.00000   0.00000   0.04723   0.00000   0.00000
  94       16F-2        0.00000   0.00000   0.00000   0.00000   0.00000
  95       16F+3        0.00000   0.00000   0.00000  -0.04448   0.00000
  96       16F-3       -0.01261  -0.07214   0.00000   0.00000   0.00313
  97 3   F  1S         -0.04270   0.00423  -0.04807   0.00000  -0.09100
  98        2S         -0.17286  -0.02254  -0.20780   0.00000  -0.42743
  99        3S          0.05651  -0.04715   0.05156   0.00000   0.05293
 100        4S          1.74283   0.53897   0.86910   0.00000   3.31072
 101        5S          6.68576   0.17957   7.12402   0.00000  17.29088
 102        6PX         0.00000   0.00000   0.00000   0.01968   0.00000
 103        6PY         0.00234   0.01108   0.00494   0.00000   0.01272
 104        6PZ        -0.02227   0.00588   0.00246   0.00000   0.00538
 105        7PX         0.00000   0.00000   0.00000  -0.07456   0.00000
 106        7PY         0.03997  -0.06760  -0.04330   0.00000  -0.05152
 107        7PZ         0.15689  -0.04620  -0.02235   0.00000  -0.01568
 108        8PX         0.00000   0.00000   0.00000   0.07745   0.00000
 109        8PY         0.75121   0.88307   0.30907   0.00000   2.62000
 110        8PZ        -1.80687   1.17587   0.05457   0.00000   0.82250
 111        9PX         0.00000   0.00000   0.00000  -1.16495   0.00000
 112        9PY         0.00121  -1.82001   0.69786   0.00000   4.92400
 113        9PZ        -1.90368   0.15353   4.80510   0.00000   1.66495
 114       10D 0       -0.01826  -0.00718   0.00078   0.00000  -0.00242
 115       10D+1        0.00000   0.00000   0.00000  -0.01412   0.00000
 116       10D-1       -0.00839  -0.00780   0.02702   0.00000  -0.00030
 117       10D+2        0.04857   0.01887   0.00584   0.00000  -0.00312
 118       10D-2        0.00000   0.00000   0.00000  -0.00449   0.00000
 119       11D 0        0.04979   0.01827   0.00212   0.00000   0.00588
 120       11D+1        0.00000   0.00000   0.00000   0.05337   0.00000
 121       11D-1        0.03259   0.04946  -0.09452   0.00000   0.03558
 122       11D+2       -0.18071  -0.06582  -0.01345   0.00000  -0.02067
 123       11D-2        0.00000   0.00000   0.00000   0.01736   0.00000
 124       12D 0       -0.83608   0.15439  -0.11148   0.00000  -0.44822
 125       12D+1        0.00000   0.00000   0.00000  -0.17729   0.00000
 126       12D-1       -0.34598   0.35803   0.12811   0.00000   0.44350
 127       12D+2        0.33454  -0.11297  -0.00268   0.00000  -0.52583
 128       12D-2        0.00000   0.00000   0.00000  -0.09627   0.00000
 129       13F 0        0.00745   0.01757   0.00464   0.00000   0.01006
 130       13F+1        0.00000   0.00000   0.00000  -0.00917   0.00000
 131       13F-1        0.00099  -0.01644   0.02656   0.00000   0.00977
 132       13F+2        0.02938   0.01675  -0.02209   0.00000   0.00354
 133       13F-2        0.00000   0.00000   0.00000   0.00866   0.00000
 134       13F+3        0.00000   0.00000   0.00000  -0.00030   0.00000
 135       13F-3       -0.01971   0.02086   0.00894   0.00000  -0.00425
 136       14F 0       -0.04818  -0.05048  -0.00819   0.00000  -0.06626
 137       14F+1        0.00000   0.00000   0.00000   0.01437   0.00000
 138       14F-1       -0.05416   0.05943  -0.05310   0.00000  -0.02701
 139       14F+2       -0.04631  -0.07232   0.03898   0.00000  -0.05681
 140       14F-2        0.00000   0.00000   0.00000  -0.00932   0.00000
 141       14F+3        0.00000   0.00000   0.00000  -0.00030   0.00000
 142       14F-3        0.05437  -0.06173  -0.02184   0.00000  -0.02545
 143 4   F  1S          0.04270  -0.00423  -0.04807   0.00000   0.09100
 144        2S          0.17286   0.02254  -0.20780   0.00000   0.42743
 145        3S         -0.05651   0.04715   0.05156   0.00000  -0.05293
 146        4S         -1.74283  -0.53897   0.86910   0.00000  -3.31072
 147        5S         -6.68576  -0.17957   7.12402   0.00000 -17.29088
 148        6PX         0.00000   0.00000   0.00000   0.01968   0.00000
 149        6PY         0.00234   0.01108  -0.00494   0.00000   0.01272
 150        6PZ         0.02227  -0.00588   0.00246   0.00000  -0.00538
 151        7PX         0.00000   0.00000   0.00000  -0.07456   0.00000
 152        7PY         0.03997  -0.06760   0.04330   0.00000  -0.05152
 153        7PZ        -0.15689   0.04620  -0.02235   0.00000   0.01568
 154        8PX         0.00000   0.00000   0.00000   0.07745   0.00000
 155        8PY         0.75121   0.88307  -0.30907   0.00000   2.62000
 156        8PZ         1.80687  -1.17587   0.05457   0.00000  -0.82250
 157        9PX         0.00000   0.00000   0.00000  -1.16495   0.00000
 158        9PY         0.00121  -1.82001  -0.69786   0.00000   4.92400
 159        9PZ         1.90368  -0.15353   4.80510   0.00000  -1.66495
 160       10D 0        0.01826   0.00718   0.00078   0.00000   0.00242
 161       10D+1        0.00000   0.00000   0.00000  -0.01412   0.00000
 162       10D-1       -0.00839  -0.00780  -0.02702   0.00000  -0.00030
 163       10D+2       -0.04857  -0.01887   0.00584   0.00000   0.00312
 164       10D-2        0.00000   0.00000   0.00000   0.00449   0.00000
 165       11D 0       -0.04979  -0.01827   0.00212   0.00000  -0.00588
 166       11D+1        0.00000   0.00000   0.00000   0.05337   0.00000
 167       11D-1        0.03259   0.04946   0.09452   0.00000   0.03558
 168       11D+2        0.18071   0.06582  -0.01345   0.00000   0.02067
 169       11D-2        0.00000   0.00000   0.00000  -0.01736   0.00000
 170       12D 0        0.83608  -0.15439  -0.11148   0.00000   0.44822
 171       12D+1        0.00000   0.00000   0.00000  -0.17729   0.00000
 172       12D-1       -0.34598   0.35803  -0.12811   0.00000   0.44350
 173       12D+2       -0.33454   0.11297  -0.00268   0.00000   0.52583
 174       12D-2        0.00000   0.00000   0.00000   0.09627   0.00000
 175       13F 0       -0.00745  -0.01757   0.00464   0.00000  -0.01006
 176       13F+1        0.00000   0.00000   0.00000  -0.00917   0.00000
 177       13F-1        0.00099  -0.01644  -0.02656   0.00000   0.00977
 178       13F+2       -0.02938  -0.01675  -0.02209   0.00000  -0.00354
 179       13F-2        0.00000   0.00000   0.00000  -0.00866   0.00000
 180       13F+3        0.00000   0.00000   0.00000  -0.00030   0.00000
 181       13F-3       -0.01971   0.02086  -0.00894   0.00000  -0.00425
 182       14F 0        0.04818   0.05048  -0.00819   0.00000   0.06626
 183       14F+1        0.00000   0.00000   0.00000   0.01437   0.00000
 184       14F-1       -0.05416   0.05943   0.05310   0.00000  -0.02701
 185       14F+2        0.04631   0.07232   0.03898   0.00000   0.05681
 186       14F-2        0.00000   0.00000   0.00000   0.00932   0.00000
 187       14F+3        0.00000   0.00000   0.00000  -0.00030   0.00000
 188       14F-3        0.05437  -0.06173   0.02184   0.00000  -0.02545
                         186       187       188
     Eigenvalues --     0.00000   0.00000   0.00000
   1 1   C  1S         -0.08385  -0.06915   0.00385
   2        2S         -0.41499  -0.37861  -0.02447
   3        3S          0.23633   0.15018  -0.01615
   4        4S        -13.16260 -14.67170 -13.32491
   5        5S         -4.75252  -9.35571 -21.46339
   6        6PX         0.00000   0.00000   0.00000
   7        6PY         0.00000   0.00000   0.00000
   8        6PZ        -0.01369   0.00238  -0.00964
   9        7PX         0.00000   0.00000   0.00000
  10        7PY         0.00000   0.00000   0.00000
  11        7PZ         0.75463   0.41119   0.27819
  12        8PX         0.00000   0.00000   0.00000
  13        8PY         0.00000   0.00000   0.00000
  14        8PZ         2.19293  -2.48374  -7.34915
  15        9PX         0.00000   0.00000   0.00000
  16        9PY         0.00000   0.00000   0.00000
  17        9PZ         3.69760  -3.42124  -4.19822
  18       10D 0        0.01775   0.01354   0.01181
  19       10D+1        0.00000   0.00000   0.00000
  20       10D-1        0.00000   0.00000   0.00000
  21       10D+2       -0.02966   0.01496   0.03556
  22       10D-2        0.00000   0.00000   0.00000
  23       11D 0        0.06799  -0.61055  -0.22628
  24       11D+1        0.00000   0.00000   0.00000
  25       11D-1        0.00000   0.00000   0.00000
  26       11D+2        1.16707   0.56760   0.10523
  27       11D-2        0.00000   0.00000   0.00000
  28       12D 0       -0.83789  -1.47744  -1.56611
  29       12D+1        0.00000   0.00000   0.00000
  30       12D-1        0.00000   0.00000   0.00000
  31       12D+2        0.77025   0.87586   0.29970
  32       12D-2        0.00000   0.00000   0.00000
  33       13F 0       -0.05640  -0.02585  -0.00859
  34       13F+1        0.00000   0.00000   0.00000
  35       13F-1        0.00000   0.00000   0.00000
  36       13F+2       -0.06622  -0.04185  -0.01328
  37       13F-2        0.00000   0.00000   0.00000
  38       13F+3        0.00000   0.00000   0.00000
  39       13F-3        0.00000   0.00000   0.00000
  40       14F 0       -0.65094  -0.31079  -0.12466
  41       14F+1        0.00000   0.00000   0.00000
  42       14F-1        0.00000   0.00000   0.00000
  43       14F+2       -0.40151  -0.07946   0.02892
  44       14F-2        0.00000   0.00000   0.00000
  45       14F+3        0.00000   0.00000   0.00000
  46       14F-3        0.00000   0.00000   0.00000
  47 2   S  1S          0.00811  -0.00220  -0.00703
  48        2S          0.12594  -0.02196  -0.08266
  49        3S          0.35606  -0.09262  -0.29054
  50        4S         -0.04284  -0.10804  -0.09535
  51        5S          2.18017   7.30707   7.10585
  52        6S          0.40535   5.77929  23.20368
  53        7PX         0.00000   0.00000   0.00000
  54        7PY         0.00000   0.00000   0.00000
  55        7PZ        -0.02528  -0.04705   0.00063
  56        8PX         0.00000   0.00000   0.00000
  57        8PY         0.00000   0.00000   0.00000
  58        8PZ        -0.59837  -1.14335  -0.11215
  59        9PX         0.00000   0.00000   0.00000
  60        9PY         0.00000   0.00000   0.00000
  61        9PZ         0.04040   0.12580  -0.02098
  62       10PX         0.00000   0.00000   0.00000
  63       10PY         0.00000   0.00000   0.00000
  64       10PZ        -1.40087  -4.03983  -9.42883
  65       11PX         0.00000   0.00000   0.00000
  66       11PY         0.00000   0.00000   0.00000
  67       11PZ        -1.46983   1.62806  -4.96918
  68       12D 0        0.10778   1.03470   0.43696
  69       12D+1        0.00000   0.00000   0.00000
  70       12D-1        0.00000   0.00000   0.00000
  71       12D+2        0.09356  -0.05546  -0.01649
  72       12D-2        0.00000   0.00000   0.00000
  73       13D 0        0.04745  -0.08737  -0.02102
  74       13D+1        0.00000   0.00000   0.00000
  75       13D-1        0.00000   0.00000   0.00000
  76       13D+2       -0.01888   0.00748   0.00124
  77       13D-2        0.00000   0.00000   0.00000
  78       14D 0        0.69038  -0.41221   2.69898
  79       14D+1        0.00000   0.00000   0.00000
  80       14D-1        0.00000   0.00000   0.00000
  81       14D+2       -0.28265   0.03708  -0.05294
  82       14D-2        0.00000   0.00000   0.00000
  83       15F 0       -0.01134  -0.05852   0.03549
  84       15F+1        0.00000   0.00000   0.00000
  85       15F-1        0.00000   0.00000   0.00000
  86       15F+2       -0.01900   0.01590   0.00182
  87       15F-2        0.00000   0.00000   0.00000
  88       15F+3        0.00000   0.00000   0.00000
  89       15F-3        0.00000   0.00000   0.00000
  90       16F 0       -0.06459  -0.04058  -0.31394
  91       16F+1        0.00000   0.00000   0.00000
  92       16F-1        0.00000   0.00000   0.00000
  93       16F+2        0.04897  -0.00932   0.01806
  94       16F-2        0.00000   0.00000   0.00000
  95       16F+3        0.00000   0.00000   0.00000
  96       16F-3        0.00000   0.00000   0.00000
  97 3   F  1S         -0.02531  -0.03451   0.00308
  98        2S         -0.14527  -0.17815   0.00322
  99        3S         -0.01816   0.00254  -0.01577
 100        4S          2.53968   1.48061   0.13404
 101        5S          6.04158   5.75637   1.86056
 102        6PX         0.00000   0.00000   0.00000
 103        6PY         0.00127   0.01076   0.00230
 104        6PZ         0.01035   0.00272   0.00168
 105        7PX         0.00000   0.00000   0.00000
 106        7PY         0.00726  -0.06048  -0.01771
 107        7PZ        -0.02927  -0.02848  -0.02344
 108        8PX         0.00000   0.00000   0.00000
 109        8PY         1.43580   1.38317   0.40968
 110        8PZ         1.63120   1.01412   0.48801
 111        9PX         0.00000   0.00000   0.00000
 112        9PY         1.08110   0.67615  -0.03012
 113        9PZ        -0.82400   1.42733  -0.24547
 114       10D 0       -0.01920   0.00967  -0.00088
 115       10D+1        0.00000   0.00000   0.00000
 116       10D-1       -0.01282  -0.00356   0.00003
 117       10D+2        0.00158  -0.00223   0.00812
 118       10D-2        0.00000   0.00000   0.00000
 119       11D 0        0.07256  -0.04221  -0.00328
 120       11D+1        0.00000   0.00000   0.00000
 121       11D-1        0.08573   0.02539   0.00383
 122       11D+2       -0.02014  -0.00814  -0.02840
 123       11D-2        0.00000   0.00000   0.00000
 124       12D 0        0.01154   0.14030   0.03593
 125       12D+1        0.00000   0.00000   0.00000
 126       12D-1        0.41092   0.38415   0.23246
 127       12D+2       -0.07775  -0.25858  -0.06871
 128       12D-2        0.00000   0.00000   0.00000
 129       13F 0        0.00468   0.00723   0.00736
 130       13F+1        0.00000   0.00000   0.00000
 131       13F-1       -0.01535  -0.00183  -0.00661
 132       13F+2        0.00761   0.00357   0.01453
 133       13F-2        0.00000   0.00000   0.00000
 134       13F+3        0.00000   0.00000   0.00000
 135       13F-3       -0.02149  -0.00103   0.00726
 136       14F 0       -0.03107  -0.02801  -0.02954
 137       14F+1        0.00000   0.00000   0.00000
 138       14F-1        0.07209   0.01515   0.01614
 139       14F+2       -0.04915  -0.04291  -0.04778
 140       14F-2        0.00000   0.00000   0.00000
 141       14F+3        0.00000   0.00000   0.00000
 142       14F-3        0.04474  -0.01766  -0.02318
 143 4   F  1S         -0.02531  -0.03451   0.00308
 144        2S         -0.14527  -0.17815   0.00322
 145        3S         -0.01816   0.00254  -0.01577
 146        4S          2.53968   1.48061   0.13404
 147        5S          6.04158   5.75637   1.86056
 148        6PX         0.00000   0.00000   0.00000
 149        6PY        -0.00127  -0.01076  -0.00230
 150        6PZ         0.01035   0.00272   0.00168
 151        7PX         0.00000   0.00000   0.00000
 152        7PY        -0.00726   0.06048   0.01771
 153        7PZ        -0.02927  -0.02848  -0.02344
 154        8PX         0.00000   0.00000   0.00000
 155        8PY        -1.43580  -1.38317  -0.40968
 156        8PZ         1.63120   1.01412   0.48801
 157        9PX         0.00000   0.00000   0.00000
 158        9PY        -1.08110  -0.67615   0.03012
 159        9PZ        -0.82400   1.42733  -0.24547
 160       10D 0       -0.01920   0.00967  -0.00088
 161       10D+1        0.00000   0.00000   0.00000
 162       10D-1        0.01282   0.00356  -0.00003
 163       10D+2        0.00158  -0.00223   0.00812
 164       10D-2        0.00000   0.00000   0.00000
 165       11D 0        0.07256  -0.04221  -0.00328
 166       11D+1        0.00000   0.00000   0.00000
 167       11D-1       -0.08573  -0.02539  -0.00383
 168       11D+2       -0.02014  -0.00814  -0.02840
 169       11D-2        0.00000   0.00000   0.00000
 170       12D 0        0.01154   0.14030   0.03593
 171       12D+1        0.00000   0.00000   0.00000
 172       12D-1       -0.41092  -0.38415  -0.23246
 173       12D+2       -0.07775  -0.25858  -0.06871
 174       12D-2        0.00000   0.00000   0.00000
 175       13F 0        0.00468   0.00723   0.00736
 176       13F+1        0.00000   0.00000   0.00000
 177       13F-1        0.01535   0.00183   0.00661
 178       13F+2        0.00761   0.00357   0.01453
 179       13F-2        0.00000   0.00000   0.00000
 180       13F+3        0.00000   0.00000   0.00000
 181       13F-3        0.02149   0.00103  -0.00726
 182       14F 0       -0.03107  -0.02801  -0.02954
 183       14F+1        0.00000   0.00000   0.00000
 184       14F-1       -0.07209  -0.01515  -0.01614
 185       14F+2       -0.04915  -0.04291  -0.04778
 186       14F-2        0.00000   0.00000   0.00000
 187       14F+3        0.00000   0.00000   0.00000
 188       14F-3       -0.04474   0.01766   0.02318
          Condensed to atoms (all electrons):
              1          2          3          4
     1  C    5.194089   0.245340   0.111078   0.111078
     2  S    0.245340  15.952967  -0.065862  -0.065862
     3  F    0.111078  -0.065862   9.171182  -0.080482
     4  F    0.111078  -0.065862  -0.080482   9.171182
 Mulliken atomic charges:
              1
     1  C    0.338415
     2  S   -0.066584
     3  F   -0.135915
     4  F   -0.135915
 Sum of Mulliken atomic charges =   0.00000
 Mulliken charges with hydrogens summed into heavy atoms:
              1
     1  C    0.338415
     2  S   -0.066584
     3  F   -0.135915
     4  F   -0.135915
 Sum of Mulliken charges with hydrogens summed into heavy atoms =   0.00000
 Electronic spatial extent (au):  <R**2>=            315.4160
 Charge=              0.0000 electrons
 Dipole moment (field-independent basis, Debye):
    X=              0.0000    Y=              0.0000    Z=             -0.3468  Tot=              0.3468
 Quadrupole moment (field-independent basis, Debye-Ang):
   XX=            -27.3224   YY=            -30.1398   ZZ=            -27.9004
   XY=              0.0000   XZ=              0.0000   YZ=              0.0000
 Traceless Quadrupole moment (field-independent basis, Debye-Ang):
   XX=              1.1318   YY=             -1.6856   ZZ=              0.5538
   XY=              0.0000   XZ=              0.0000   YZ=              0.0000
 Octapole moment (field-independent basis, Debye-Ang**2):
  XXX=              0.0000  YYY=              0.0000  ZZZ=              8.6436  XYY=              0.0000
  XXY=              0.0000  XXZ=              0.6952  XZZ=              0.0000  YZZ=              0.0000
  YYZ=              0.6996  XYZ=              0.0000
 Hexadecapole moment (field-independent basis, Debye-Ang**3):
 XXXX=            -28.2997 YYYY=            -96.0701 ZZZZ=           -215.2900 XXXY=              0.0000
 XXXZ=              0.0000 YYYX=              0.0000 YYYZ=              0.0000 ZZZX=              0.0000
 ZZZY=              0.0000 XXYY=            -20.7368 XXZZ=            -40.6086 YYZZ=            -55.6869
 XXYZ=              0.0000 YYXZ=              0.0000 ZZXY=              0.0000
 N-N= 1.543927914663D+02 E-N=-1.820072373502D+03  KE= 6.349935362116D+02
 1\1\GINC-TRAPISTA\SP\RQCISD-FC\Aug-CC-pVTZ\C1F2S1\BRUNS\27-Nov-2021\0\
 \# qcisd/aug-cc-pvtz nosymm density=current output=wfn\\f2cs-wavefunct
 ion\\0,1\C,0,0.,0.,-0.530349\S,0,0.,0.,1.078525\F,0,0.,-1.055221,-1.29
 5538\F,0,0.,1.055221,-1.295538\\Version=EM64L-G09RevB.01\HF=-634.35717
 14\MP2=-635.1961162\MP3=-635.1996875\MP4D=-635.2165516\MP4DQ=-635.1972
 058\MP4SDQ=-635.2080518\QCISD=-635.2071957\RMSD=8.584e-09\Dipole=0.,0.
 ,-0.1364511\Quadrupole=0.8414297,-1.2531793,0.4117496,0.,0.,0.\PG=C02V
  [C2(C1S1),SGV(F2)]\\@

 Writing a WFN file to GAUSSIAN.wfn.


 THE FIRST MORNING OF CREATION WROTE WHAT THE LAST DAWN OF
 RECKONING SHALL READ. -- OMAR KHAYYAM
 Job cpu time:  0 days  2 hours 11 minutes 36.8 seconds.
 File lengths (MBytes):  RWF=  17813 Int=      0 D2E=      0 Chk=      3 Scr=      1
 Normal termination of Gaussian 09 at Sat Nov 27 03:53:37 2021.
