 f2cs-wavefunction
GAUSSIAN            188 MOL ORBITALS    330 PRIMITIVES        4 NUCLEI
  C    1    (CENTRE  1)   0.00000000 -0.01889726 -0.98331710  CHARGE =  6.0
  S    2    (CENTRE  2)   0.00000000  0.00000000  2.03811688  CHARGE = 16.0
  F    3    (CENTRE  3)   0.00000000 -1.99407870 -2.44821201  CHARGE =  9.0
  F    4    (CENTRE  4)   0.00000000  1.99407870 -2.44821201  CHARGE =  9.0
CENTRE ASSIGNMENTS    1  1  1  1  1  1  1  1  1  1  1  1  1  1  1  1  1  1  1  1
CENTRE ASSIGNMENTS    1  1  1  1  1  1  1  1  1  1  1  1  1  1  1  1  1  1  1  1
CENTRE ASSIGNMENTS    1  1  1  1  1  1  1  1  1  1  1  1  1  1  1  1  1  1  1  1
CENTRE ASSIGNMENTS    1  1  1  1  1  1  1  1  1  1  1  1  2  2  2  2  2  2  2  2
CENTRE ASSIGNMENTS    2  2  2  2  2  2  2  2  2  2  2  2  2  2  2  2  2  2  2  2
CENTRE ASSIGNMENTS    2  2  2  2  2  2  2  2  2  2  2  2  2  2  2  2  2  2  2  2
CENTRE ASSIGNMENTS    2  2  2  2  2  2  2  2  2  2  2  2  2  2  2  2  2  2  2  2
CENTRE ASSIGNMENTS    2  2  2  2  2  2  2  2  2  2  2  2  2  2  2  2  2  2  2  2
CENTRE ASSIGNMENTS    2  2  2  2  2  2  2  2  2  2  2  2  2  2  2  2  2  2  2  2
CENTRE ASSIGNMENTS    2  2  2  2  2  2  3  3  3  3  3  3  3  3  3  3  3  3  3  3
CENTRE ASSIGNMENTS    3  3  3  3  3  3  3  3  3  3  3  3  3  3  3  3  3  3  3  3
CENTRE ASSIGNMENTS    3  3  3  3  3  3  3  3  3  3  3  3  3  3  3  3  3  3  3  3
CENTRE ASSIGNMENTS    3  3  3  3  3  3  3  3  3  3  3  3  3  3  3  3  3  3  4  4
CENTRE ASSIGNMENTS    4  4  4  4  4  4  4  4  4  4  4  4  4  4  4  4  4  4  4  4
CENTRE ASSIGNMENTS    4  4  4  4  4  4  4  4  4  4  4  4  4  4  4  4  4  4  4  4
CENTRE ASSIGNMENTS    4  4  4  4  4  4  4  4  4  4  4  4  4  4  4  4  4  4  4  4
CENTRE ASSIGNMENTS    4  4  4  4  4  4  4  4  4  4
TYPE ASSIGNMENTS      1  1  1  1  1  1  1  1  1  1  1  1  1  1  1  1  2  2  2  3
TYPE ASSIGNMENTS      3  3  4  4  4  2  3  4  2  3  4  2  3  4  5  6  7  8  9 10
TYPE ASSIGNMENTS      5  6  7  8  9 10  5  6  7  8  9 10 11 12 13 17 14 15 18 19
TYPE ASSIGNMENTS     16 20 11 12 13 17 14 15 18 19 16 20  1  1  1  1  1  1  1  1
TYPE ASSIGNMENTS      1  1  1  1  1  1  1  1  1  1  1  1  1  1  1  1  1  1  1  1
TYPE ASSIGNMENTS      1  1  1  2  2  2  2  2  2  3  3  3  3  3  3  4  4  4  4  4
TYPE ASSIGNMENTS      4  2  2  2  2  2  2  3  3  3  3  3  3  4  4  4  4  4  4  2
TYPE ASSIGNMENTS      3  4  2  3  4  2  3  4  5  6  7  8  9 10  5  6  7  8  9 10
TYPE ASSIGNMENTS      5  6  7  8  9 10 11 12 13 17 14 15 18 19 16 20 11 12 13 17
TYPE ASSIGNMENTS     14 15 18 19 16 20  1  1  1  1  1  1  1  1  1  1  1  1  1  1
TYPE ASSIGNMENTS      1  1  2  2  2  3  3  3  4  4  4  2  3  4  2  3  4  2  3  4
TYPE ASSIGNMENTS      5  6  7  8  9 10  5  6  7  8  9 10  5  6  7  8  9 10 11 12
TYPE ASSIGNMENTS     13 17 14 15 18 19 16 20 11 12 13 17 14 15 18 19 16 20  1  1
TYPE ASSIGNMENTS      1  1  1  1  1  1  1  1  1  1  1  1  1  1  2  2  2  3  3  3
TYPE ASSIGNMENTS      4  4  4  2  3  4  2  3  4  2  3  4  5  6  7  8  9 10  5  6
TYPE ASSIGNMENTS      7  8  9 10  5  6  7  8  9 10 11 12 13 17 14 15 18 19 16 20
TYPE ASSIGNMENTS     11 12 13 17 14 15 18 19 16 20
EXPONENTS  0.8236000D+04 0.1235000D+04 0.2808000D+03 0.7927000D+02 0.2559000D+02
EXPONENTS  0.8997000D+01 0.3319000D+01 0.2808000D+03 0.7927000D+02 0.2559000D+02
EXPONENTS  0.8997000D+01 0.3319000D+01 0.3643000D+00 0.9059000D+00 0.1285000D+00
EXPONENTS  0.4402000D-01 0.1871000D+02 0.4133000D+01 0.1200000D+01 0.1871000D+02
EXPONENTS  0.4133000D+01 0.1200000D+01 0.1871000D+02 0.4133000D+01 0.1200000D+01
EXPONENTS  0.3827000D+00 0.3827000D+00 0.3827000D+00 0.1209000D+00 0.1209000D+00
EXPONENTS  0.1209000D+00 0.3569000D-01 0.3569000D-01 0.3569000D-01 0.1097000D+01
EXPONENTS  0.1097000D+01 0.1097000D+01 0.1097000D+01 0.1097000D+01 0.1097000D+01
EXPONENTS  0.3180000D+00 0.3180000D+00 0.3180000D+00 0.3180000D+00 0.3180000D+00
EXPONENTS  0.3180000D+00 0.1000000D+00 0.1000000D+00 0.1000000D+00 0.1000000D+00
EXPONENTS  0.1000000D+00 0.1000000D+00 0.7610000D+00 0.7610000D+00 0.7610000D+00
EXPONENTS  0.7610000D+00 0.7610000D+00 0.7610000D+00 0.7610000D+00 0.7610000D+00
EXPONENTS  0.7610000D+00 0.7610000D+00 0.2680000D+00 0.2680000D+00 0.2680000D+00
EXPONENTS  0.2680000D+00 0.2680000D+00 0.2680000D+00 0.2680000D+00 0.2680000D+00
EXPONENTS  0.2680000D+00 0.2680000D+00 0.3741000D+06 0.5605000D+05 0.1276000D+05
EXPONENTS  0.3615000D+04 0.1183000D+04 0.4288000D+03 0.1678000D+03 0.6947000D+02
EXPONENTS  0.2984000D+02 0.1272000D+02 0.5244000D+01 0.3615000D+04 0.1183000D+04
EXPONENTS  0.4288000D+03 0.1678000D+03 0.6947000D+02 0.2984000D+02 0.1272000D+02
EXPONENTS  0.5244000D+01 0.2219000D+01 0.1183000D+04 0.1678000D+03 0.6947000D+02
EXPONENTS  0.2984000D+02 0.1272000D+02 0.5244000D+01 0.2219000D+01 0.3490000D+00
EXPONENTS  0.7767000D+00 0.1322000D+00 0.4970000D-01 0.5744000D+03 0.1358000D+03
EXPONENTS  0.4319000D+02 0.1587000D+02 0.6208000D+01 0.2483000D+01 0.5744000D+03
EXPONENTS  0.1358000D+03 0.4319000D+02 0.1587000D+02 0.6208000D+01 0.2483000D+01
EXPONENTS  0.5744000D+03 0.1358000D+03 0.4319000D+02 0.1587000D+02 0.6208000D+01
EXPONENTS  0.2483000D+01 0.1358000D+03 0.4319000D+02 0.1587000D+02 0.6208000D+01
EXPONENTS  0.2483000D+01 0.3229000D+00 0.1358000D+03 0.4319000D+02 0.1587000D+02
EXPONENTS  0.6208000D+01 0.2483000D+01 0.3229000D+00 0.1358000D+03 0.4319000D+02
EXPONENTS  0.1587000D+02 0.6208000D+01 0.2483000D+01 0.3229000D+00 0.8688000D+00
EXPONENTS  0.8688000D+00 0.8688000D+00 0.1098000D+00 0.1098000D+00 0.1098000D+00
EXPONENTS  0.3510000D-01 0.3510000D-01 0.3510000D-01 0.2690000D+00 0.2690000D+00
EXPONENTS  0.2690000D+00 0.2690000D+00 0.2690000D+00 0.2690000D+00 0.8190000D+00
EXPONENTS  0.8190000D+00 0.8190000D+00 0.8190000D+00 0.8190000D+00 0.8190000D+00
EXPONENTS  0.1010000D+00 0.1010000D+00 0.1010000D+00 0.1010000D+00 0.1010000D+00
EXPONENTS  0.1010000D+00 0.5570000D+00 0.5570000D+00 0.5570000D+00 0.5570000D+00
EXPONENTS  0.5570000D+00 0.5570000D+00 0.5570000D+00 0.5570000D+00 0.5570000D+00
EXPONENTS  0.5570000D+00 0.2180000D+00 0.2180000D+00 0.2180000D+00 0.2180000D+00
EXPONENTS  0.2180000D+00 0.2180000D+00 0.2180000D+00 0.2180000D+00 0.2180000D+00
EXPONENTS  0.2180000D+00 0.1950000D+05 0.2923000D+04 0.6645000D+03 0.1875000D+03
EXPONENTS  0.6062000D+02 0.2142000D+02 0.7950000D+01 0.6645000D+03 0.1875000D+03
EXPONENTS  0.6062000D+02 0.2142000D+02 0.7950000D+01 0.8815000D+00 0.2257000D+01
EXPONENTS  0.3041000D+00 0.9158000D-01 0.4388000D+02 0.9926000D+01 0.2930000D+01
EXPONENTS  0.4388000D+02 0.9926000D+01 0.2930000D+01 0.4388000D+02 0.9926000D+01
EXPONENTS  0.2930000D+01 0.9132000D+00 0.9132000D+00 0.9132000D+00 0.2672000D+00
EXPONENTS  0.2672000D+00 0.2672000D+00 0.7361000D-01 0.7361000D-01 0.7361000D-01
EXPONENTS  0.3107000D+01 0.3107000D+01 0.3107000D+01 0.3107000D+01 0.3107000D+01
EXPONENTS  0.3107000D+01 0.8550000D+00 0.8550000D+00 0.8550000D+00 0.8550000D+00
EXPONENTS  0.8550000D+00 0.8550000D+00 0.2920000D+00 0.2920000D+00 0.2920000D+00
EXPONENTS  0.2920000D+00 0.2920000D+00 0.2920000D+00 0.1917000D+01 0.1917000D+01
EXPONENTS  0.1917000D+01 0.1917000D+01 0.1917000D+01 0.1917000D+01 0.1917000D+01
EXPONENTS  0.1917000D+01 0.1917000D+01 0.1917000D+01 0.7240000D+00 0.7240000D+00
EXPONENTS  0.7240000D+00 0.7240000D+00 0.7240000D+00 0.7240000D+00 0.7240000D+00
EXPONENTS  0.7240000D+00 0.7240000D+00 0.7240000D+00 0.1950000D+05 0.2923000D+04
EXPONENTS  0.6645000D+03 0.1875000D+03 0.6062000D+02 0.2142000D+02 0.7950000D+01
EXPONENTS  0.6645000D+03 0.1875000D+03 0.6062000D+02 0.2142000D+02 0.7950000D+01
EXPONENTS  0.8815000D+00 0.2257000D+01 0.3041000D+00 0.9158000D-01 0.4388000D+02
EXPONENTS  0.9926000D+01 0.2930000D+01 0.4388000D+02 0.9926000D+01 0.2930000D+01
EXPONENTS  0.4388000D+02 0.9926000D+01 0.2930000D+01 0.9132000D+00 0.9132000D+00
EXPONENTS  0.9132000D+00 0.2672000D+00 0.2672000D+00 0.2672000D+00 0.7361000D-01
EXPONENTS  0.7361000D-01 0.7361000D-01 0.3107000D+01 0.3107000D+01 0.3107000D+01
EXPONENTS  0.3107000D+01 0.3107000D+01 0.3107000D+01 0.8550000D+00 0.8550000D+00
EXPONENTS  0.8550000D+00 0.8550000D+00 0.8550000D+00 0.8550000D+00 0.2920000D+00
EXPONENTS  0.2920000D+00 0.2920000D+00 0.2920000D+00 0.2920000D+00 0.2920000D+00
EXPONENTS  0.1917000D+01 0.1917000D+01 0.1917000D+01 0.1917000D+01 0.1917000D+01
EXPONENTS  0.1917000D+01 0.1917000D+01 0.1917000D+01 0.1917000D+01 0.1917000D+01
EXPONENTS  0.7240000D+00 0.7240000D+00 0.7240000D+00 0.7240000D+00 0.7240000D+00
EXPONENTS  0.7240000D+00 0.7240000D+00 0.7240000D+00 0.7240000D+00 0.7240000D+00
MO    1     MO 0.0        OCC NO =    2.0000305  ORB. ENERGY =    0.000000
  0.10532278D-03  0.19634288D-03  0.33184622D-03  0.49882677D-03  0.61271934D-03
  0.51711351D-03  0.19444818D-03 -0.45673126D-07 -0.34137832D-06 -0.12758087D-05
 -0.35593077D-05 -0.47684911D-05  0.56306988D-05  0.15118026D-04 -0.22967869D-04
 -0.26946504D-06 -0.21142526D-12 -0.19822462D-12 -0.14114774D-12 -0.30466836D-02
 -0.28564595D-02 -0.20339693D-02  0.22301621D-04  0.20909187D-04  0.14888587D-04
 -0.30237832D-13 -0.15629125D-02 -0.24762571D-04  0.76147767D-14  0.61047583D-03
  0.14180388D-04  0.57804614D-15 -0.13550932D-04  0.36220941D-07 -0.33284222D-05
 -0.10696093D-04  0.14024515D-04  0.60706488D-14 -0.56740314D-13 -0.10195619D-02
  0.30395169D-05  0.19651886D-05 -0.50047055D-05 -0.12233002D-13  0.24937780D-13
  0.39698335D-03  0.63268943D-07  0.22641517D-06 -0.28968411D-06 -0.56929976D-15
 -0.25829365D-18 -0.22577812D-03  0.69813378D-14  0.24069717D-03 -0.30609292D-05
 -0.50301647D-15  0.35917914D-03  0.10721164D-04 -0.20440997D-13 -0.10812707D-02
 -0.15383765D-05  0.60820502D-15 -0.35852770D-14 -0.13702141D-03 -0.22991339D-05
 -0.22824496D-14 -0.12876052D-03 -0.80659179D-06  0.13038281D-13  0.53982475D-03
  0.77039933D-05  0.83822168D-14 -0.49973715D-03 -0.93430894D-03 -0.16147636D-02
 -0.26118135D-02 -0.39476687D-02 -0.54367571D-02 -0.63549071D-02 -0.54923404D-02
 -0.25633039D-02 -0.34727143D-03  0.25399932D-05 -0.62674061D-05 -0.80566875D-04
 -0.29389638D-03 -0.99159910D-03 -0.21779966D-02 -0.28133775D-02  0.45213370D-03
  0.37928643D-02  0.20814750D-02 -0.41169128D-07 -0.46894196D-06 -0.97369255D-06
 -0.26774072D-05  0.34715660D-06  0.12106016D-04  0.30194327D-04 -0.24994427D-04
  0.10585655D-03 -0.48950978D-05 -0.15313668D-05  0.49684752D-09  0.65183569D-09
  0.71492268D-09  0.58821684D-09  0.31007447D-09  0.80675545D-10  0.97651253D+01
  0.12811289D+02  0.14051211D+02  0.11560914D+02  0.60942563D+01  0.15856109D+01
 -0.65931338D-01 -0.86498167D-01 -0.94869769D-01 -0.78055988D-01 -0.41146679D-01
 -0.10705592D-01  0.29701668D-14  0.10661601D-12  0.16914897D-12  0.20085922D-12
  0.30395294D-13 -0.22121125D-12  0.94730756D-04  0.34004203D-02  0.53948520D-02
  0.64062213D-02  0.96943013D-03 -0.70553308D-02 -0.47680235D-06 -0.17115121D-04
 -0.27153569D-04 -0.32244030D-04 -0.48793717D-05  0.35511153D-04  0.37497919D-11
  0.67601649D-01 -0.44684318D-03 -0.59659242D-14 -0.37957654D-03  0.45408260D-05
 -0.12024929D-14 -0.71108819D-05  0.22832473D-06 -0.22446961D-05  0.47656297D-05
 -0.25209336D-05 -0.20191093D-14  0.36199932D-13  0.96142195D-03 -0.21926016D-05
 -0.64032172D-05  0.85958188D-05  0.31548424D-14 -0.15687904D-13 -0.55552199D-03
  0.10715064D-06 -0.26901676D-06  0.16186612D-06  0.10543543D-15  0.12363117D-14
 -0.41998087D-04  0.43256584D-14  0.34979522D-04 -0.73977555D-06 -0.13035501D-14
  0.10988509D-03  0.31643109D-05 -0.11673425D-13 -0.21482365D-03 -0.94498419D-06
  0.17604686D-14  0.97166538D-15  0.34753346D-04  0.29492153D-06  0.18313095D-14
  0.16369395D-04  0.51606939D-06 -0.47463057D-14 -0.12062943D-03 -0.14008340D-05
  0.72852469D-15  0.51044136D-02  0.95146358D-02  0.16129427D-01  0.24422134D-01
  0.30533047D-01  0.26263896D-01  0.10072769D-01 -0.62520070D-06 -0.82764866D-05
 -0.30061705D-04 -0.89177483D-04 -0.10275904D-03  0.12481616D-03  0.58871907D-03
  0.95829791D-04  0.86125898D-03  0.21273371D-12  0.20804892D-12  0.13746672D-12
 -0.11671811D-02 -0.11414776D-02 -0.75422254D-03 -0.39160496D-02 -0.38298110D-02
 -0.25305181D-02  0.56580720D-13 -0.36160991D-03 -0.10947559D-02 -0.47048046D-14
 -0.14844209D-03 -0.75132039D-03 -0.12374020D-14  0.92330587D-04  0.11799736D-04
  0.22708050D-04  0.30000041D-04 -0.52708090D-04 -0.12419422D-13 -0.24636278D-13
  0.25963374D-03 -0.51578222D-04 -0.13789614D-03  0.18947436D-03  0.67929123D-14
 -0.16148085D-15 -0.15588395D-03  0.11248024D-03 -0.22901385D-04 -0.89578852D-04
 -0.10801665D-13 -0.28712243D-14 -0.27530318D-03 -0.10516433D-13 -0.24767439D-04
 -0.48156913D-04  0.28928747D-13 -0.32656612D-03  0.28695256D-04  0.26205519D-14
  0.40086844D-03  0.11577548D-03  0.10067229D-13  0.35542133D-14 -0.65829128D-04
  0.94201033D-04 -0.67308859D-14  0.20067432D-03 -0.44850299D-04 -0.39317540D-14
 -0.31869339D-05 -0.23775280D-03 -0.26687201D-14 -0.50397740D-02 -0.93941473D-02
 -0.15925173D-01 -0.24112865D-01 -0.30146392D-01 -0.25931303D-01 -0.99452129D-02
  0.68200866D-06  0.90285176D-05  0.32793219D-04  0.97280465D-04  0.11209609D-03
 -0.13615739D-03 -0.58672765D-03 -0.78590561D-04 -0.84508690D-03  0.33431341D-12
  0.32695122D-12  0.21603049D-12 -0.14371002D-02 -0.14054526D-02 -0.92864198D-03
  0.38935495D-02  0.38078064D-02  0.25159787D-02  0.84145537D-13 -0.41601270D-03
  0.10716048D-02  0.19054258D-13 -0.14858478D-03  0.74252179D-03 -0.45807866D-15
  0.92056610D-04 -0.11023055D-04 -0.25639403D-04 -0.24738478D-04  0.50377881D-04
  0.32958376D-13 -0.21828478D-13  0.26629325D-03  0.57243107D-04  0.12754709D-03
 -0.18479020D-03 -0.82736438D-14  0.31918730D-14 -0.14230391D-03 -0.10789691D-03
  0.20260574D-04  0.87636331D-04 -0.12223379D-14  0.43348417D-14 -0.28230708D-03
 -0.18585637D-14 -0.29598768D-04  0.60839265D-04 -0.68895071D-14 -0.33524012D-03
 -0.11424833D-04  0.12465198D-13  0.42403642D-03 -0.17109296D-03  0.65340898D-13
  0.60451611D-15 -0.60719777D-04 -0.96194234D-04  0.28945534D-14  0.19838427D-03
  0.39310744D-04 -0.47081017D-14 -0.16224938D-04  0.24927196D-03 -0.21847456D-13
MO    2     MO 0.0        OCC NO =    2.0000247  ORB. ENERGY =    0.000000
 -0.59326909D-01 -0.11059731D+00 -0.18692452D+00 -0.28098242D+00 -0.34513658D+00
 -0.29128310D+00 -0.10953005D+00 -0.94572738D-05 -0.70687263D-04 -0.26417444D-03
 -0.73700556D-03 -0.98738425D-03  0.11659167D-02 -0.44993240D-02 -0.13843168D-02
 -0.56467065D-04  0.58578205D-13  0.54920791D-13  0.39106875D-13  0.29890061D-04
  0.28023832D-04  0.19954638D-04  0.29459819D-02  0.27620453D-02  0.19667408D-02
  0.18801436D-13  0.54344101D-05 -0.42011880D-03  0.49477003D-14 -0.12445434D-04
 -0.93797366D-03  0.39940198D-16 -0.66029005D-07  0.78442772D-05  0.25985868D-03
 -0.10475257D-03 -0.15510611D-03 -0.88875216D-15  0.13579855D-13 -0.18687009D-04
  0.10320495D-03  0.15531681D-03 -0.25852177D-03 -0.26161251D-14 -0.12789085D-13
 -0.10360214D-04  0.17130986D-04  0.61905235D-04 -0.79036221D-04 -0.94828166D-15
  0.13413749D-15 -0.73344138D-06 -0.69985436D-15  0.15518083D-05 -0.36060675D-04
 -0.46906084D-14 -0.61747992D-05 -0.10097512D-03  0.67901715D-14  0.15193744D-05
  0.20915715D-03  0.66010976D-14 -0.30092043D-15 -0.37267243D-05  0.46938411D-04
  0.37600455D-14  0.12871723D-05  0.26115876D-04 -0.28572843D-14  0.98930006D-05
 -0.16693111D-03  0.59368447D-16 -0.12696574D+00 -0.23737524D+00 -0.41025498D+00
 -0.66357052D+00 -0.10029646D+01 -0.13812899D+01 -0.16145597D+01 -0.13954117D+01
 -0.65124591D+00 -0.88229531D-01  0.64532350D-03 -0.15828805D-02 -0.20347769D-01
 -0.74225737D-01 -0.25043580D+00 -0.55006938D+00 -0.71053960D+00  0.11418976D+00
  0.95791636D+00  0.52569214D+00 -0.13254981D-04 -0.15098247D-03 -0.31349404D-03
 -0.86202900D-03  0.11177196D-03  0.38977026D-02  0.97214893D-02 -0.80473080D-02
  0.29244214D-01  0.15630597D-02  0.75038894D-04 -0.14390509D-09 -0.18879530D-09
 -0.20706758D-09 -0.17036897D-09 -0.89808834D-10 -0.23366569D-10  0.21112869D-01
  0.27698884D-01  0.30379681D-01  0.24995486D-01  0.13176199D-01  0.34281992D-02
  0.62348022D+01  0.81797059D+01  0.89713671D+01  0.73813706D+01  0.38910389D+01
  0.10123751D+01 -0.88641676D-15 -0.31818489D-13 -0.50480831D-13 -0.59944438D-13
 -0.90711734D-14  0.66018301D-13  0.28745239D-06  0.10318285D-04  0.16370218D-04
  0.19439132D-04  0.29416530D-05 -0.21408799D-04  0.57861730D-04  0.20769833D-02
  0.32951861D-02  0.39129324D-02  0.59212981D-03 -0.43094098D-02 -0.10831509D-11
  0.16784537D-03  0.46086813D-01 -0.27411195D-15 -0.42196787D-05 -0.79378519D-03
  0.20664527D-15  0.64309596D-07 -0.63613123D-05 -0.25912805D-03 -0.14593944D-03
  0.40506749D-03  0.44180698D-15 -0.10088647D-13  0.94954021D-05  0.15155521D-03
 -0.37149309D-03  0.21993788D-03 -0.63502743D-15  0.47830258D-14  0.13456473D-04
 -0.14744528D-04 -0.27374022D-04  0.42118550D-04  0.32146524D-15  0.53783339D-15
  0.86763868D-06 -0.13368584D-14  0.10080591D-05 -0.88632844D-04  0.19802758D-15
  0.11666497D-05  0.21770861D-03  0.38125476D-14 -0.41908271D-05  0.48189924D-04
  0.27281771D-14 -0.88819749D-16  0.27844213D-06 -0.22225606D-04 -0.71610715D-15
  0.24328454D-06  0.32054153D-04  0.98256639D-15 -0.10786109D-05  0.34622666D-04
 -0.86492312D-15  0.66879459D-02  0.12466343D-01  0.21133228D-01  0.31998565D-01
  0.40005254D-01  0.34411693D-01  0.13197625D-01  0.15735949D-05  0.20831450D-04
  0.75663616D-04  0.22445469D-03  0.25863870D-03 -0.31415522D-03  0.52315293D-03
 -0.38378531D-03 -0.25873235D-03 -0.93873708D-13 -0.91806436D-13 -0.60660394D-13
  0.15306803D-03  0.14969719D-03  0.98911266D-04 -0.91123124D-03 -0.89116425D-03
 -0.58882990D-03 -0.17937933D-13 -0.74616808D-04 -0.37819607D-03 -0.13356652D-13
  0.25006935D-04 -0.92319588D-04 -0.92208871D-15 -0.45515796D-05 -0.61253883D-04
  0.33652553D-04 -0.10832546D-03  0.74672908D-04  0.51567158D-14 -0.64239271D-14
 -0.23326748D-04 -0.22479034D-04  0.11766454D-04  0.10712580D-04 -0.35238033D-14
  0.46719688D-14  0.95650959D-04 -0.47278168D-04  0.15922955D-04  0.31355213D-04
 -0.36403357D-14 -0.62523955D-14 -0.21282655D-04 -0.68563958D-14 -0.81392640D-04
 -0.10544650D-03  0.10696879D-13  0.11484687D-03  0.29828232D-04  0.98723086D-14
  0.12933105D-03  0.28651127D-03  0.34016860D-13  0.23591502D-14  0.16477368D-04
  0.43983449D-04 -0.48654749D-14 -0.97707617D-04 -0.78994394D-04 -0.22119758D-14
  0.48275513D-04 -0.52955953D-04 -0.11274863D-13  0.65905430D-02  0.12284783D-01
  0.20825445D-01  0.31532540D-01  0.39422620D-01  0.33910523D-01  0.13005415D-01
  0.15241345D-05  0.20176687D-04  0.73285398D-04  0.21739975D-03  0.25050930D-03
 -0.30428086D-03  0.51907288D-03 -0.39237176D-03 -0.24942667D-03 -0.66224885D-13
 -0.64766491D-13 -0.42793959D-13 -0.11337287D-03 -0.11087620D-03 -0.73260590D-04
 -0.94089660D-03 -0.92017632D-03 -0.60799940D-03 -0.12935797D-13  0.94472267D-04
 -0.38541219D-03 -0.72054027D-14  0.14154470D-04 -0.72689713D-04  0.27221241D-15
  0.50707825D-05 -0.58976035D-04  0.39313624D-04 -0.10206527D-03  0.62751650D-04
 -0.36930152D-13 -0.37449426D-14  0.29566556D-04 -0.22178624D-04  0.78693944D-05
  0.14309229D-04  0.41949917D-14  0.29809575D-14 -0.89497796D-04 -0.44709339D-04
  0.51175410D-05  0.39591798D-04  0.13222329D-14 -0.30264766D-14  0.23237726D-04
 -0.38554989D-14  0.76880693D-04 -0.11005389D-03  0.27812696D-14 -0.10900377D-03
  0.13350297D-04  0.87852272D-14 -0.12163831D-03  0.31681138D-03 -0.16049522D-13
  0.10529488D-14 -0.15740564D-04  0.44688719D-04 -0.15800234D-14  0.97927571D-04
 -0.73839360D-04 -0.15788229D-14 -0.50705878D-04 -0.60226797D-04  0.49075449D-14
MO    3     MO 0.0        OCC NO =    2.0000101  ORB. ENERGY =    0.000000
  0.19859634D+00  0.37022359D+00  0.62572831D+00  0.94058636D+00  0.11553419D+01
  0.97506778D+00  0.36665095D+00  0.26908426D-04  0.20112382D-03  0.75164562D-03
  0.20969743D-02  0.28093674D-02 -0.33173390D-02  0.15844757D-01  0.35075275D-03
  0.13339073D-03 -0.27118273D-11 -0.25425105D-11 -0.18104189D-11 -0.58174446D-04
 -0.54542241D-04 -0.38837325D-04 -0.73370080D-02 -0.68789114D-02 -0.48981947D-02
 -0.52874611D-12  0.11229178D-05  0.59762717D-03 -0.72393493D-13  0.92413814D-05
  0.53558836D-03  0.13878520D-14 -0.69238722D-07  0.65104833D-05 -0.68244792D-03
  0.55288576D-03  0.12956216D-03  0.17406332D-15 -0.68859178D-12  0.62068815D-04
  0.20629756D-03 -0.24610200D-03  0.39804434D-04  0.13190754D-13  0.31499089D-12
  0.74187732D-06 -0.92406869D-05 -0.38352555D-04  0.47593242D-04  0.36124369D-15
 -0.16708553D-13 -0.24799578D-06  0.71095593D-13 -0.70315583D-06 -0.73505698D-05
  0.28579014D-13  0.11904988D-04  0.25998927D-03 -0.24186579D-12 -0.97955203D-05
 -0.23793756D-03 -0.17209332D-13 -0.22780832D-13  0.90747157D-05 -0.14812616D-03
 -0.48280387D-13 -0.14793963D-05  0.20458926D-06  0.11662288D-12 -0.25744751D-04
  0.44417388D-03 -0.31957924D-14 -0.99299375D-01 -0.18565018D+00 -0.32085870D+00
 -0.51897572D+00 -0.78441443D+00 -0.10803011D+01 -0.12627404D+01 -0.10913456D+01
 -0.50933670D+00 -0.69003946D-01  0.50470480D-03 -0.12516901D-02 -0.16090351D-01
 -0.58695287D-01 -0.19803644D+00 -0.43497689D+00 -0.56187150D+00  0.90297530D-01
  0.75748895D+00  0.41570017D+00 -0.54990057D-05 -0.62637093D-04 -0.13005719D-03
 -0.35762423D-03  0.46370088D-04  0.16170139D-02  0.40330895D-02 -0.33385331D-02
  0.24969520D-01 -0.17606986D-02 -0.19266498D-03  0.66242781D-08  0.86906761D-08
  0.95317909D-08  0.78424704D-08  0.41341045D-08  0.10756162D-08 -0.52576415D-01
 -0.68977266D-01 -0.75653133D-01 -0.62245119D-01 -0.32812087D-01 -0.85370879D-02
 -0.50354287D+01 -0.66061961D+01 -0.72455674D+01 -0.59614346D+01 -0.31425294D+01
 -0.81762703D+00  0.39090382D-13  0.14031739D-11  0.22261706D-11  0.26435093D-11
  0.40003264D-12 -0.29113626D-11 -0.64159425D-06 -0.23030431D-04 -0.36538356D-04
 -0.43388176D-04 -0.65657747D-05  0.47784478D-04 -0.40942619D-04 -0.14696612D-02
 -0.23316543D-02 -0.27687679D-02 -0.41898756D-03  0.30493130D-02  0.49919123D-10
 -0.41286949D-03 -0.39571526D-01  0.56694753D-14  0.57504777D-05  0.43514212D-03
 -0.12201144D-13  0.72144952D-07  0.63005258D-05  0.27897784D-03  0.20484615D-03
 -0.48382399D-03  0.40198058D-14  0.39683173D-12 -0.23571242D-04 -0.31033280D-04
 -0.29528222D-03  0.32631550D-03 -0.42564565D-14 -0.17746946D-12  0.38843804D-05
  0.85886750D-05  0.97113644D-05 -0.18300039D-04 -0.12281367D-15 -0.11613148D-13
 -0.74599404D-06  0.56474614D-13 -0.26750991D-05  0.11306524D-03 -0.21164869D-13
 -0.22291917D-05 -0.27383544D-03 -0.14825897D-12  0.10254489D-04 -0.65360275D-04
 -0.30999574D-14  0.64825924D-14 -0.65400516D-06  0.27191017D-04  0.19223525D-13
 -0.83466943D-06 -0.56109344D-04 -0.38671302D-13  0.27966849D-05 -0.25463706D-04
 -0.11468564D-14 -0.52177812D-01 -0.97259532D-01 -0.16487657D+00 -0.24964543D+00
 -0.31211177D+00 -0.26847210D+00 -0.10296483D+00 -0.82956282D-05 -0.10981858D-03
 -0.39888108D-03 -0.11832732D-02 -0.13634834D-02  0.16561536D-02 -0.44771365D-02
  0.10907044D-02  0.14750343D-03  0.42281101D-11  0.41349993D-11  0.27321689D-11
 -0.47261325D-02 -0.46220544D-02 -0.30539868D-02 -0.12816775D-02 -0.12534526D-02
 -0.82820913D-03  0.99950747D-12 -0.52446403D-03  0.20580906D-03  0.23290395D-12
 -0.96857370D-04  0.22065151D-03 -0.29905687D-15 -0.28244427D-05  0.29058109D-04
 -0.14542791D-03  0.17758730D-03 -0.32159388D-04 -0.26376924D-12 -0.11868227D-12
  0.39985786D-03  0.11331232D-03 -0.45217564D-04 -0.68094754D-04  0.72277599D-13
 -0.33355383D-13 -0.30596720D-03  0.85268514D-04 -0.40736278D-04 -0.44532235D-04
  0.83350563D-14  0.55636634D-13  0.73471095D-04  0.34606184D-14  0.11909355D-03
  0.22117626D-03 -0.78098568D-13 -0.36131125D-03 -0.24742587D-03  0.67716712D-13
  0.40306039D-05 -0.41610290D-03 -0.44295035D-12 -0.23136587D-14 -0.26611381D-04
 -0.65229212D-04  0.48978052D-13  0.31801584D-03  0.27792374D-03 -0.42037076D-13
 -0.23818170D-03 -0.82236102D-04  0.15648639D-12 -0.51375850D-01 -0.95764673D-01
 -0.16234245D+00 -0.24580843D+00 -0.30731468D+00 -0.26434573D+00 -0.10138228D+00
 -0.81083963D-05 -0.10733998D-03 -0.38987835D-03 -0.11565668D-02 -0.13327096D-02
  0.16187743D-02 -0.44130726D-02  0.11013161D-02  0.14219240D-03  0.44614076D-11
  0.43631592D-11  0.28829237D-11  0.45528924D-02  0.44526293D-02  0.29420405D-02
 -0.11068209D-02 -0.10824466D-02 -0.71521825D-03  0.10509350D-11  0.46516395D-03
  0.23623708D-03  0.22641091D-12  0.13028106D-04  0.17310506D-03 -0.42755985D-15
  0.27470355D-05  0.28048131D-04 -0.16083198D-03  0.16768763D-03 -0.68556544D-05
  0.23336095D-12 -0.98019311D-13 -0.42512395D-03  0.10521614D-03 -0.28021310D-04
 -0.77194833D-04 -0.64166637D-13 -0.37426890D-13  0.27508031D-03  0.79982777D-04
 -0.15419923D-04 -0.64562854D-04 -0.21657830D-14  0.48306490D-13 -0.74357830D-04
 -0.43522008D-14 -0.10467119D-03  0.23651001D-03 -0.64401477D-13  0.33677603D-03
 -0.20943670D-03  0.77458080D-13 -0.22762455D-04 -0.50009332D-03  0.38734077D-12
 -0.23906637D-15  0.21742448D-04 -0.69507413D-04  0.43257083D-13 -0.31096641D-03
  0.26459037D-03 -0.42539884D-13  0.24573907D-03 -0.56068128D-04 -0.13691059D-12
MO    4     MO 0.0        OCC NO =    2.0000090  ORB. ENERGY =    0.000000
 -0.16566623D-09 -0.30883523D-09 -0.52197361D-09 -0.78462370D-09 -0.96376968D-09
 -0.81338761D-09 -0.30585498D-09 -0.20865547D-13 -0.15595704D-12 -0.58284707D-12
 -0.16260526D-11 -0.21784621D-11  0.25723576D-11 -0.13224683D-10 -0.95746999D-12
 -0.28864090D-12 -0.39854366D-02 -0.37366001D-02 -0.26606819D-02  0.20223421D-12
  0.18960743D-12  0.13501178D-12  0.53052937D-11  0.49740501D-11  0.35418200D-11
 -0.79052712D-03 -0.72376705D-14 -0.54723486D-12 -0.12200349D-03 -0.29521942D-13
 -0.66981760D-12  0.20116746D-05 -0.12490431D-14 -0.16733660D-13  0.56279688D-12
 -0.42151071D-12 -0.14128617D-12 -0.46756482D-05 -0.10066423D-02  0.16818540D-12
 -0.10243964D-12  0.15865319D-12 -0.56213548D-13  0.10790066D-04  0.46239754D-03
  0.10245355D-12  0.13176270D-13  0.31220522D-13 -0.44396792D-13  0.12359688D-06
 -0.27572913D-04  0.27186511D-14  0.10245352D-03 -0.24865401D-13 -0.73832401D-13
  0.43320759D-04  0.90127412D-13 -0.15463253D-12 -0.35068131D-03 -0.15531209D-13
  0.37612974D-12 -0.19159411D-04 -0.31237433D-04  0.20563479D-13  0.85929094D-13
 -0.72513554D-04  0.13570215D-13  0.34558285D-13  0.16622585D-03 -0.75260651D-13
 -0.29234557D-12  0.81489100D-06  0.22452949D-10  0.41978050D-10  0.72550547D-10
  0.11734752D-09  0.17736685D-09  0.24427087D-09  0.28552291D-09  0.24676820D-09
  0.11516800D-09  0.15602738D-10 -0.11412067D-12  0.75478851D-12  0.97027304D-11
  0.35394166D-10  0.11941904D-09  0.26229779D-09  0.33881720D-09 -0.54450807D-10
 -0.45677755D-09 -0.25067363D-09  0.32957746D-14  0.37540921D-13  0.77948486D-13
  0.21433854D-12 -0.27791453D-13 -0.96914126D-12 -0.24171922D-11  0.20009167D-11
 -0.15029801D-10  0.17485246D-11  0.39970998D-12  0.97275832D+01  0.12762036D+02
  0.13997191D+02  0.11516467D+02  0.60708268D+01  0.15795150D+01 -0.49565241D-09
 -0.65026777D-09 -0.71320301D-09 -0.58680195D-09 -0.30932862D-09 -0.80481490D-10
  0.28598266D-08  0.37519298D-08  0.41150550D-08  0.33857433D-08  0.17847714D-08
  0.46436394D-09  0.57407631D-04  0.20606831D-02  0.32693254D-02  0.38822237D-02
  0.58748277D-03 -0.42755895D-02 -0.51064611D-14 -0.18329964D-12 -0.29080948D-12
 -0.34532734D-12 -0.52257128D-13  0.38031759D-12  0.27988241D-13  0.10046556D-11
  0.15939112D-11  0.18927207D-11  0.28641853D-12 -0.20845004D-11  0.73295189D-01
 -0.34141077D-11  0.22467037D-10  0.18170399D-04  0.29413732D-13 -0.55500544D-12
 -0.17767590D-04  0.12464523D-14 -0.16202804D-13 -0.21216487D-12 -0.15010168D-12
  0.36226655D-12  0.43242522D-05  0.57557112D-03 -0.51844833D-13 -0.31853738D-13
  0.11932230D-12 -0.87468563D-13 -0.42663025D-05 -0.25512316D-03  0.27816687D-13
 -0.15369987D-13 -0.15659992D-13  0.31029980D-13 -0.13468546D-06 -0.20072523D-04
  0.39754844D-15  0.83285793D-04 -0.20892174D-14 -0.11163473D-12 -0.31021102D-04
 -0.18535212D-14  0.23732556D-12 -0.21883628D-03  0.81211734D-14  0.97578621D-13
 -0.30177313D-05  0.88780917D-05 -0.15995624D-14 -0.19168568D-13  0.27876112D-04
 -0.14750157D-14  0.41762633D-13 -0.54510387D-04  0.62737028D-14  0.15743071D-13
 -0.11015221D-05  0.14144098D-09  0.26364622D-09  0.44693908D-09  0.67672622D-09
  0.84605682D-09  0.72776058D-09  0.27911185D-09  0.15984559D-13  0.21160564D-12
  0.76859017D-12  0.22800083D-11  0.26272490D-11 -0.31911852D-11  0.12777942D-10
 -0.81586688D-12 -0.12301982D-12  0.64090176D-02  0.62678792D-02  0.41414528D-02
  0.64753467D-11  0.63327476D-11  0.41843141D-11  0.38903938D-11  0.38047202D-11
  0.25139395D-11  0.15095897D-02  0.53892955D-12  0.15828194D-12  0.35250814D-03
  0.13690191D-12  0.13768549D-12 -0.76567208D-06  0.40765584D-15 -0.22230632D-13
  0.48987016D-13 -0.48377690D-13 -0.60932543D-15 -0.37774746D-03 -0.15575290D-03
 -0.32390371D-12 -0.60876066D-13 -0.78249943D-14  0.68701060D-13  0.10797974D-03
 -0.53971061D-04  0.20630879D-12 -0.85071868D-13  0.14719620D-13  0.70352248D-13
  0.13677892D-04  0.83688795D-04  0.49360307D-13  0.99496147D-05 -0.10548761D-12
 -0.14238415D-12 -0.12813277D-03  0.42706233D-12  0.22240991D-12  0.98283926D-04
 -0.11059949D-12  0.20474254D-12 -0.61942127D-03 -0.60421015D-05  0.12880824D-13
  0.27813081D-13  0.78002042D-04 -0.29609289D-12 -0.23527354D-12 -0.59875738D-04
  0.25745042D-12  0.15183429D-12  0.22757770D-03 -0.56195566D-10 -0.10474863D-09
 -0.17757227D-09 -0.26886843D-09 -0.33614476D-09 -0.28914477D-09 -0.11089324D-09
 -0.25350562D-14 -0.33559398D-13 -0.12189384D-12 -0.36159578D-12 -0.41666610D-12
  0.50610303D-12 -0.54876954D-11 -0.67644564D-12 -0.69918867D-13  0.63678064D-02
  0.62275756D-02  0.41148225D-02 -0.15466851D-11 -0.15126243D-11 -0.99945480D-12
 -0.29235786D-12 -0.28591960D-12 -0.18891917D-12  0.14942269D-02 -0.52374793D-12
 -0.88983123D-13  0.34087838D-03 -0.17716547D-13 -0.14030547D-12 -0.80394156D-06
  0.10799894D-14 -0.21237516D-13  0.13866699D-12 -0.14087866D-12  0.22116706D-14
  0.35476003D-03 -0.13861920D-03  0.44984901D-12 -0.12898818D-12  0.85483598D-13
  0.43504582D-13 -0.96912977D-04 -0.59897549D-04 -0.41157187D-12 -0.42906615D-13
  0.10345229D-13  0.32561387D-13 -0.10258088D-04  0.76801796D-04  0.41449880D-13
  0.61823201D-05 -0.19213406D-13 -0.13952359D-12 -0.12188742D-03  0.40017779D-13
  0.10772014D-12  0.10334045D-03  0.17622440D-13  0.31085063D-12  0.59156000D-03