 f2cs-wavefunction
GAUSSIAN            188 MOL ORBITALS    330 PRIMITIVES        4 NUCLEI
  C    1    (CENTRE  1)   0.00000000  0.00000000 -0.98331710  CHARGE =  6.0
  S    2    (CENTRE  2)   0.00000000  0.00000000  2.03811688  CHARGE = 16.0
  F    3    (CENTRE  3)   0.00000000 -1.97518144 -2.44821201  CHARGE =  9.0
  F    4    (CENTRE  4)   0.00000000  1.99407870 -2.44821201  CHARGE =  9.0
CENTRE ASSIGNMENTS    1  1  1  1  1  1  1  1  1  1  1  1  1  1  1  1  1  1  1  1
CENTRE ASSIGNMENTS    1  1  1  1  1  1  1  1  1  1  1  1  1  1  1  1  1  1  1  1
CENTRE ASSIGNMENTS    1  1  1  1  1  1  1  1  1  1  1  1  1  1  1  1  1  1  1  1
CENTRE ASSIGNMENTS    1  1  1  1  1  1  1  1  1  1  1  1  2  2  2  2  2  2  2  2
CENTRE ASSIGNMENTS    2  2  2  2  2  2  2  2  2  2  2  2  2  2  2  2  2  2  2  2
CENTRE ASSIGNMENTS    2  2  2  2  2  2  2  2  2  2  2  2  2  2  2  2  2  2  2  2
CENTRE ASSIGNMENTS    2  2  2  2  2  2  2  2  2  2  2  2  2  2  2  2  2  2  2  2
CENTRE ASSIGNMENTS    2  2  2  2  2  2  2  2  2  2  2  2  2  2  2  2  2  2  2  2
CENTRE ASSIGNMENTS    2  2  2  2  2  2  2  2  2  2  2  2  2  2  2  2  2  2  2  2
CENTRE ASSIGNMENTS    2  2  2  2  2  2  3  3  3  3  3  3  3  3  3  3  3  3  3  3
CENTRE ASSIGNMENTS    3  3  3  3  3  3  3  3  3  3  3  3  3  3  3  3  3  3  3  3
CENTRE ASSIGNMENTS    3  3  3  3  3  3  3  3  3  3  3  3  3  3  3  3  3  3  3  3
CENTRE ASSIGNMENTS    3  3  3  3  3  3  3  3  3  3  3  3  3  3  3  3  3  3  4  4
CENTRE ASSIGNMENTS    4  4  4  4  4  4  4  4  4  4  4  4  4  4  4  4  4  4  4  4
CENTRE ASSIGNMENTS    4  4  4  4  4  4  4  4  4  4  4  4  4  4  4  4  4  4  4  4
CENTRE ASSIGNMENTS    4  4  4  4  4  4  4  4  4  4  4  4  4  4  4  4  4  4  4  4
CENTRE ASSIGNMENTS    4  4  4  4  4  4  4  4  4  4
TYPE ASSIGNMENTS      1  1  1  1  1  1  1  1  1  1  1  1  1  1  1  1  2  2  2  3
TYPE ASSIGNMENTS      3  3  4  4  4  2  3  4  2  3  4  2  3  4  5  6  7  8  9 10
TYPE ASSIGNMENTS      5  6  7  8  9 10  5  6  7  8  9 10 11 12 13 17 14 15 18 19
TYPE ASSIGNMENTS     16 20 11 12 13 17 14 15 18 19 16 20  1  1  1  1  1  1  1  1
TYPE ASSIGNMENTS      1  1  1  1  1  1  1  1  1  1  1  1  1  1  1  1  1  1  1  1
TYPE ASSIGNMENTS      1  1  1  2  2  2  2  2  2  3  3  3  3  3  3  4  4  4  4  4
TYPE ASSIGNMENTS      4  2  2  2  2  2  2  3  3  3  3  3  3  4  4  4  4  4  4  2
TYPE ASSIGNMENTS      3  4  2  3  4  2  3  4  5  6  7  8  9 10  5  6  7  8  9 10
TYPE ASSIGNMENTS      5  6  7  8  9 10 11 12 13 17 14 15 18 19 16 20 11 12 13 17
TYPE ASSIGNMENTS     14 15 18 19 16 20  1  1  1  1  1  1  1  1  1  1  1  1  1  1
TYPE ASSIGNMENTS      1  1  2  2  2  3  3  3  4  4  4  2  3  4  2  3  4  2  3  4
TYPE ASSIGNMENTS      5  6  7  8  9 10  5  6  7  8  9 10  5  6  7  8  9 10 11 12
TYPE ASSIGNMENTS     13 17 14 15 18 19 16 20 11 12 13 17 14 15 18 19 16 20  1  1
TYPE ASSIGNMENTS      1  1  1  1  1  1  1  1  1  1  1  1  1  1  2  2  2  3  3  3
TYPE ASSIGNMENTS      4  4  4  2  3  4  2  3  4  2  3  4  5  6  7  8  9 10  5  6
TYPE ASSIGNMENTS      7  8  9 10  5  6  7  8  9 10 11 12 13 17 14 15 18 19 16 20
TYPE ASSIGNMENTS     11 12 13 17 14 15 18 19 16 20
EXPONENTS  0.8236000D+04 0.1235000D+04 0.2808000D+03 0.7927000D+02 0.2559000D+02
EXPONENTS  0.8997000D+01 0.3319000D+01 0.2808000D+03 0.7927000D+02 0.2559000D+02
EXPONENTS  0.8997000D+01 0.3319000D+01 0.3643000D+00 0.9059000D+00 0.1285000D+00
EXPONENTS  0.4402000D-01 0.1871000D+02 0.4133000D+01 0.1200000D+01 0.1871000D+02
EXPONENTS  0.4133000D+01 0.1200000D+01 0.1871000D+02 0.4133000D+01 0.1200000D+01
EXPONENTS  0.3827000D+00 0.3827000D+00 0.3827000D+00 0.1209000D+00 0.1209000D+00
EXPONENTS  0.1209000D+00 0.3569000D-01 0.3569000D-01 0.3569000D-01 0.1097000D+01
EXPONENTS  0.1097000D+01 0.1097000D+01 0.1097000D+01 0.1097000D+01 0.1097000D+01
EXPONENTS  0.3180000D+00 0.3180000D+00 0.3180000D+00 0.3180000D+00 0.3180000D+00
EXPONENTS  0.3180000D+00 0.1000000D+00 0.1000000D+00 0.1000000D+00 0.1000000D+00
EXPONENTS  0.1000000D+00 0.1000000D+00 0.7610000D+00 0.7610000D+00 0.7610000D+00
EXPONENTS  0.7610000D+00 0.7610000D+00 0.7610000D+00 0.7610000D+00 0.7610000D+00
EXPONENTS  0.7610000D+00 0.7610000D+00 0.2680000D+00 0.2680000D+00 0.2680000D+00
EXPONENTS  0.2680000D+00 0.2680000D+00 0.2680000D+00 0.2680000D+00 0.2680000D+00
EXPONENTS  0.2680000D+00 0.2680000D+00 0.3741000D+06 0.5605000D+05 0.1276000D+05
EXPONENTS  0.3615000D+04 0.1183000D+04 0.4288000D+03 0.1678000D+03 0.6947000D+02
EXPONENTS  0.2984000D+02 0.1272000D+02 0.5244000D+01 0.3615000D+04 0.1183000D+04
EXPONENTS  0.4288000D+03 0.1678000D+03 0.6947000D+02 0.2984000D+02 0.1272000D+02
EXPONENTS  0.5244000D+01 0.2219000D+01 0.1183000D+04 0.1678000D+03 0.6947000D+02
EXPONENTS  0.2984000D+02 0.1272000D+02 0.5244000D+01 0.2219000D+01 0.3490000D+00
EXPONENTS  0.7767000D+00 0.1322000D+00 0.4970000D-01 0.5744000D+03 0.1358000D+03
EXPONENTS  0.4319000D+02 0.1587000D+02 0.6208000D+01 0.2483000D+01 0.5744000D+03
EXPONENTS  0.1358000D+03 0.4319000D+02 0.1587000D+02 0.6208000D+01 0.2483000D+01
EXPONENTS  0.5744000D+03 0.1358000D+03 0.4319000D+02 0.1587000D+02 0.6208000D+01
EXPONENTS  0.2483000D+01 0.1358000D+03 0.4319000D+02 0.1587000D+02 0.6208000D+01
EXPONENTS  0.2483000D+01 0.3229000D+00 0.1358000D+03 0.4319000D+02 0.1587000D+02
EXPONENTS  0.6208000D+01 0.2483000D+01 0.3229000D+00 0.1358000D+03 0.4319000D+02
EXPONENTS  0.1587000D+02 0.6208000D+01 0.2483000D+01 0.3229000D+00 0.8688000D+00
EXPONENTS  0.8688000D+00 0.8688000D+00 0.1098000D+00 0.1098000D+00 0.1098000D+00
EXPONENTS  0.3510000D-01 0.3510000D-01 0.3510000D-01 0.2690000D+00 0.2690000D+00
EXPONENTS  0.2690000D+00 0.2690000D+00 0.2690000D+00 0.2690000D+00 0.8190000D+00
EXPONENTS  0.8190000D+00 0.8190000D+00 0.8190000D+00 0.8190000D+00 0.8190000D+00
EXPONENTS  0.1010000D+00 0.1010000D+00 0.1010000D+00 0.1010000D+00 0.1010000D+00
EXPONENTS  0.1010000D+00 0.5570000D+00 0.5570000D+00 0.5570000D+00 0.5570000D+00
EXPONENTS  0.5570000D+00 0.5570000D+00 0.5570000D+00 0.5570000D+00 0.5570000D+00
EXPONENTS  0.5570000D+00 0.2180000D+00 0.2180000D+00 0.2180000D+00 0.2180000D+00
EXPONENTS  0.2180000D+00 0.2180000D+00 0.2180000D+00 0.2180000D+00 0.2180000D+00
EXPONENTS  0.2180000D+00 0.1950000D+05 0.2923000D+04 0.6645000D+03 0.1875000D+03
EXPONENTS  0.6062000D+02 0.2142000D+02 0.7950000D+01 0.6645000D+03 0.1875000D+03
EXPONENTS  0.6062000D+02 0.2142000D+02 0.7950000D+01 0.8815000D+00 0.2257000D+01
EXPONENTS  0.3041000D+00 0.9158000D-01 0.4388000D+02 0.9926000D+01 0.2930000D+01
EXPONENTS  0.4388000D+02 0.9926000D+01 0.2930000D+01 0.4388000D+02 0.9926000D+01
EXPONENTS  0.2930000D+01 0.9132000D+00 0.9132000D+00 0.9132000D+00 0.2672000D+00
EXPONENTS  0.2672000D+00 0.2672000D+00 0.7361000D-01 0.7361000D-01 0.7361000D-01
EXPONENTS  0.3107000D+01 0.3107000D+01 0.3107000D+01 0.3107000D+01 0.3107000D+01
EXPONENTS  0.3107000D+01 0.8550000D+00 0.8550000D+00 0.8550000D+00 0.8550000D+00
EXPONENTS  0.8550000D+00 0.8550000D+00 0.2920000D+00 0.2920000D+00 0.2920000D+00
EXPONENTS  0.2920000D+00 0.2920000D+00 0.2920000D+00 0.1917000D+01 0.1917000D+01
EXPONENTS  0.1917000D+01 0.1917000D+01 0.1917000D+01 0.1917000D+01 0.1917000D+01
EXPONENTS  0.1917000D+01 0.1917000D+01 0.1917000D+01 0.7240000D+00 0.7240000D+00
EXPONENTS  0.7240000D+00 0.7240000D+00 0.7240000D+00 0.7240000D+00 0.7240000D+00
EXPONENTS  0.7240000D+00 0.7240000D+00 0.7240000D+00 0.1950000D+05 0.2923000D+04
EXPONENTS  0.6645000D+03 0.1875000D+03 0.6062000D+02 0.2142000D+02 0.7950000D+01
EXPONENTS  0.6645000D+03 0.1875000D+03 0.6062000D+02 0.2142000D+02 0.7950000D+01
EXPONENTS  0.8815000D+00 0.2257000D+01 0.3041000D+00 0.9158000D-01 0.4388000D+02
EXPONENTS  0.9926000D+01 0.2930000D+01 0.4388000D+02 0.9926000D+01 0.2930000D+01
EXPONENTS  0.4388000D+02 0.9926000D+01 0.2930000D+01 0.9132000D+00 0.9132000D+00
EXPONENTS  0.9132000D+00 0.2672000D+00 0.2672000D+00 0.2672000D+00 0.7361000D-01
EXPONENTS  0.7361000D-01 0.7361000D-01 0.3107000D+01 0.3107000D+01 0.3107000D+01
EXPONENTS  0.3107000D+01 0.3107000D+01 0.3107000D+01 0.8550000D+00 0.8550000D+00
EXPONENTS  0.8550000D+00 0.8550000D+00 0.8550000D+00 0.8550000D+00 0.2920000D+00
EXPONENTS  0.2920000D+00 0.2920000D+00 0.2920000D+00 0.2920000D+00 0.2920000D+00
EXPONENTS  0.1917000D+01 0.1917000D+01 0.1917000D+01 0.1917000D+01 0.1917000D+01
EXPONENTS  0.1917000D+01 0.1917000D+01 0.1917000D+01 0.1917000D+01 0.1917000D+01
EXPONENTS  0.7240000D+00 0.7240000D+00 0.7240000D+00 0.7240000D+00 0.7240000D+00
EXPONENTS  0.7240000D+00 0.7240000D+00 0.7240000D+00 0.7240000D+00 0.7240000D+00
MO    1     MO 0.0        OCC NO =    2.0000305  ORB. ENERGY =    0.000000
 -0.20505042D-03 -0.38225529D-03 -0.64606352D-03 -0.97115397D-03 -0.11928887D-02
 -0.10067560D-02 -0.37856654D-03 -0.85536351D-07 -0.63933123D-06 -0.23893268D-05
 -0.66658497D-05 -0.89304008D-05  0.10545138D-04 -0.11057560D-04 -0.14116541D-04
  0.39323271D-06 -0.60183096D-13 -0.56425478D-13 -0.40178302D-13 -0.30330698D-02
 -0.28436957D-02 -0.20248808D-02  0.29552367D-04  0.27707222D-04  0.19729193D-04
 -0.15826117D-13 -0.15690361D-02 -0.98229087D-05  0.43281306D-15  0.61537587D-03
  0.53384311D-05  0.59114410D-18 -0.13643599D-04  0.76266823D-07 -0.63788349D-06
 -0.41363664D-05  0.47742499D-05  0.94602329D-14 -0.23806512D-13 -0.10133813D-02
  0.12852470D-05  0.16921478D-05 -0.29773947D-05 -0.14476924D-13  0.13204290D-13
  0.39598013D-03 -0.51251982D-07  0.40801831D-06 -0.35676633D-06 -0.82093597D-15
  0.86846123D-15 -0.22776868D-03  0.25427850D-14  0.24353993D-03 -0.28748716D-05
  0.14454167D-14  0.35939818D-03  0.31190058D-05 -0.90737719D-14 -0.10900180D-02
  0.55056089D-05  0.74611529D-14 -0.53391291D-15 -0.13907709D-03  0.59612210D-06
 -0.20427822D-14 -0.12910710D-03 -0.68783420D-06  0.36445209D-14  0.54633836D-03
 -0.11005321D-05  0.76738064D-14 -0.43691014D-03 -0.81684752D-03 -0.14117553D-02
 -0.22834560D-02 -0.34513673D-02 -0.47532474D-02 -0.55559674D-02 -0.48018427D-02
 -0.22410450D-02 -0.30361242D-03  0.22206650D-05 -0.54404947D-05 -0.69937012D-04
 -0.25512017D-03 -0.86076912D-03 -0.18906352D-02 -0.24421850D-02  0.39247991D-03
  0.32924399D-02  0.18068486D-02 -0.47233152D-07 -0.53801496D-06 -0.11171130D-05
 -0.30717771D-05  0.39829117D-06  0.13889177D-04  0.34641813D-04 -0.28675991D-04
  0.95346225D-04  0.79024753D-06 -0.10297389D-05  0.18572744D-09  0.24366383D-09
  0.26724649D-09  0.21988236D-09  0.11590948D-09  0.30157466D-10  0.97652890D+01
  0.12811504D+02  0.14051447D+02  0.11561107D+02  0.60943584D+01  0.15856374D+01
  0.30611092D-01  0.40160012D-01  0.44046842D-01  0.36240414D-01  0.19103886D-01
  0.49704718D-02  0.10814417D-14  0.38819032D-13  0.61587367D-13  0.73133109D-13
  0.11066967D-13 -0.80543312D-13  0.94863365D-04  0.34051803D-02  0.54024040D-02
  0.64151890D-02  0.97078719D-03 -0.70652072D-02  0.34932150D-06  0.12539116D-04
  0.19893622D-04  0.23623065D-04  0.35747924D-05 -0.26016669D-04  0.13984361D-11
  0.67610659D-01  0.22369218D-03 -0.34408472D-14 -0.37919255D-03 -0.23852112D-05
 -0.39612987D-15 -0.70778347D-05  0.46135434D-07 -0.21488612D-05 -0.15349719D-05
  0.36838330D-05 -0.16190686D-14  0.12608204D-13  0.96648647D-03 -0.30707665D-06
 -0.13953172D-05  0.17023938D-05  0.89204270D-15 -0.69144927D-14 -0.55749488D-03
 -0.82375650D-07 -0.90839421D-07  0.17321507D-06  0.13716331D-15  0.73469637D-15
 -0.42199712D-04  0.11568279D-14  0.35165802D-04 -0.10056495D-05 -0.62269992D-15
  0.10944218D-03  0.19607670D-05 -0.28477839D-14 -0.21493959D-03  0.10561816D-05
  0.23510585D-14  0.37887164D-15  0.34924895D-04 -0.38297460D-06  0.73510284D-15
  0.16561783D-04  0.56810412D-06 -0.18717178D-14 -0.12133647D-03  0.58081968D-06
  0.31385193D-15  0.51743560D-02  0.96450085D-02  0.16350438D-01  0.24756775D-01
  0.30951421D-01  0.26623772D-01  0.10210790D-01 -0.62005783D-06 -0.82084047D-05
 -0.29814419D-04 -0.88443913D-04 -0.10191375D-03  0.12378942D-03  0.59406914D-03
  0.85806942D-04  0.86824692D-03  0.11571909D-12  0.11317074D-12  0.74776696D-13
 -0.12241513D-02 -0.11971932D-02 -0.79103618D-03 -0.39014716D-02 -0.38155540D-02
 -0.25210978D-02  0.26766041D-13 -0.37595515D-03 -0.10894402D-02 -0.25332635D-14
 -0.14609317D-03 -0.76178529D-03  0.19606146D-16  0.93144053D-04  0.11724758D-04
  0.24334725D-04  0.27379926D-04 -0.51714650D-04  0.33798810D-14  0.37711960D-14
  0.25908146D-03 -0.53354717D-04 -0.13842295D-03  0.19177766D-03 -0.16471239D-14
 -0.33009564D-14 -0.15389976D-03  0.11211654D-03 -0.20025043D-04 -0.92091492D-04
 -0.41730206D-14 -0.19390269D-14 -0.28021370D-03  0.30594758D-15 -0.31044549D-04
 -0.46420176D-04  0.53631686D-14 -0.32589452D-03  0.20212870D-04 -0.62810114D-14
  0.41902817D-03  0.11904766D-03  0.37948933D-13  0.12192215D-14 -0.63700943D-04
  0.94527333D-04 -0.18352217D-14  0.19993422D-03 -0.43201458D-04 -0.18224428D-14
 -0.88313899D-05 -0.24038054D-03 -0.82217749D-14 -0.50440364D-02 -0.94020926D-02
 -0.15938642D-01 -0.24133259D-01 -0.30171889D-01 -0.25953235D-01 -0.99536242D-02
  0.67324006D-06  0.89124379D-05  0.32371596D-04  0.96029729D-04  0.11065487D-03
 -0.13440682D-03 -0.58585141D-03 -0.88356280D-04 -0.86145987D-03  0.27524516D-12
  0.26918375D-12  0.17786109D-12 -0.13532805D-02 -0.13234788D-02 -0.87447840D-03
  0.38725129D-02  0.37872331D-02  0.25023850D-02  0.60873185D-13 -0.40026895D-03
  0.10763498D-02  0.24806617D-13 -0.14809095D-03  0.75056276D-03  0.96372502D-15
  0.92921500D-04 -0.11620777D-04 -0.22931696D-04 -0.28146702D-04  0.51078399D-04
 -0.10825060D-14 -0.16951073D-13  0.26192816D-03  0.53008073D-04  0.13358333D-03
 -0.18659141D-03 -0.62536310D-14  0.60715215D-14 -0.15015894D-03 -0.11079077D-03
  0.20332783D-04  0.90457991D-04 -0.85363425D-14  0.62830791D-14 -0.28027948D-03
  0.57068913D-15 -0.27865436D-04  0.52636232D-04 -0.13811794D-13 -0.33065787D-03
 -0.19044532D-04  0.12099726D-13  0.41425417D-03 -0.13886416D-03  0.85068284D-13
 -0.29987658D-14 -0.63174122D-04 -0.94807349D-04  0.94561607D-14  0.20068670D-03
  0.40935634D-04 -0.45986335D-15 -0.11164337D-04  0.24348641D-03 -0.25675307D-13
MO    2     MO 0.0        OCC NO =    2.0000247  ORB. ENERGY =    0.000000
 -0.59333493D-01 -0.11060958D+00 -0.18694527D+00 -0.28101360D+00 -0.34517488D+00
 -0.29131542D+00 -0.10954221D+00 -0.94582237D-05 -0.70694362D-04 -0.26420097D-03
 -0.73707958D-03 -0.98748342D-03  0.11660338D-02 -0.45029149D-02 -0.13810358D-02
 -0.56487131D-04  0.34845321D-12  0.32669703D-12  0.23262775D-12  0.19646129D-04
  0.18419495D-04  0.13115778D-04  0.29564046D-02  0.27718172D-02  0.19736990D-02
  0.58572649D-13  0.74355546D-05 -0.42017884D-03  0.20830777D-14 -0.37299291D-05
 -0.93912452D-03  0.11823968D-15  0.95303226D-08  0.79718372D-05  0.26283039D-03
 -0.10763081D-03 -0.15519958D-03 -0.11265050D-15  0.79454819D-13 -0.51859583D-05
  0.10312511D-03  0.15552439D-03 -0.25864949D-03  0.52354368D-14 -0.35321262D-13
 -0.13242460D-05  0.17280128D-04  0.62073809D-04 -0.79353936D-04 -0.29151572D-15
  0.11913439D-14  0.10735003D-05 -0.82967168D-14 -0.54456170D-06 -0.36520185D-04
 -0.55723585D-14 -0.32773754D-05 -0.10135568D-03  0.30462509D-13  0.49110605D-05
  0.21091624D-03 -0.64067049D-14  0.37072593D-14 -0.63283922D-07  0.47314693D-04
  0.45713222D-14  0.57944008D-06  0.25532898D-04 -0.15693100D-13 -0.38958831D-06
 -0.16747698D-03 -0.19829224D-14 -0.12692082D+00 -0.23729126D+00 -0.41010983D+00
 -0.66333574D+00 -0.10026098D+01 -0.13808012D+01 -0.16139885D+01 -0.13949180D+01
 -0.65101549D+00 -0.88198315D-01  0.64509518D-03 -0.15823389D-02 -0.20340807D-01
 -0.74200341D-01 -0.25035011D+00 -0.54988118D+00 -0.71029649D+00  0.11415069D+00
  0.95758861D+00  0.52551228D+00 -0.13255423D-04 -0.15098751D-03 -0.31350449D-03
 -0.86205774D-03  0.11177569D-03  0.38978325D-02  0.97218133D-02 -0.80475762D-02
  0.29234647D-01  0.15667318D-02  0.74715864D-04 -0.78067738D-09 -0.10242043D-08
 -0.11233305D-08 -0.92424248D-09 -0.48720808D-09 -0.12676238D-09 -0.39397415D-01
 -0.51687169D-01 -0.56689638D-01 -0.46642526D-01 -0.24587288D-01 -0.63971498D-02
  0.62374971D+01  0.81832414D+01  0.89752448D+01  0.73845611D+01  0.38927207D+01
  0.10128127D+01 -0.46154709D-14 -0.16567524D-12 -0.26284792D-12 -0.31212385D-12
 -0.47232565D-13  0.34374976D-12 -0.33077757D-06 -0.11873470D-04 -0.18837557D-04
 -0.22369021D-04 -0.33850225D-05  0.24635560D-04  0.57890180D-04  0.20780046D-02
  0.32968063D-02  0.39148564D-02  0.59242096D-03 -0.43115287D-02 -0.58843021D-11
 -0.27764292D-03  0.46112268D-01  0.30577756D-14  0.84347139D-06 -0.79462029D-03
  0.12931211D-14  0.40784963D-07 -0.63845384D-05 -0.25906432D-03 -0.14642764D-03
  0.40549196D-03  0.46340371D-15 -0.49961987D-13 -0.24739217D-05  0.15009092D-03
 -0.37047655D-03  0.22038563D-03  0.29615363D-15  0.21984582D-13  0.18784645D-05
 -0.14790467D-04 -0.27377707D-04  0.42168174D-04  0.13393140D-15  0.29503301D-15
  0.20718640D-06 -0.65421551D-14  0.92856726D-07 -0.88808059D-04  0.26200304D-14
 -0.37404218D-06  0.21751156D-03  0.17006435D-13  0.95471996D-07  0.48912617D-04
  0.73209690D-16 -0.10884411D-14 -0.95020889D-07 -0.22256966D-04 -0.24158870D-14
 -0.35503036D-07  0.32125006D-04  0.56812105D-14  0.32056570D-06  0.34645892D-04
 -0.30120377D-15  0.67102616D-02  0.12507939D-01  0.21203743D-01  0.32105335D-01
  0.40138740D-01  0.34526514D-01  0.13241661D-01  0.15864981D-05  0.21002264D-04
  0.76284045D-04  0.22629518D-03  0.26075949D-03 -0.31673124D-03  0.52353406D-03
 -0.39012269D-03 -0.26048052D-03 -0.41552912D-12 -0.40637841D-12 -0.26851140D-12
  0.17527051D-03  0.17141073D-03  0.11325831D-03 -0.89719409D-03 -0.87743622D-03
 -0.57975921D-03 -0.10365804D-12 -0.70290758D-04 -0.37435761D-03 -0.14925255D-13
  0.13439649D-04 -0.82564465D-04 -0.27156434D-15 -0.48116723D-05 -0.61033897D-04
  0.34760376D-04 -0.10541306D-03  0.70652683D-04  0.32577773D-13 -0.10616600D-14
 -0.21938722D-04 -0.23527284D-04  0.10501458D-04  0.13025826D-04 -0.43770689D-14
  0.77856143D-14  0.96122706D-04 -0.47001941D-04  0.11869148D-04  0.35132793D-04
  0.48279643D-14 -0.25793811D-14 -0.21827964D-04  0.80462133D-14 -0.80660601D-04
 -0.10568472D-03 -0.82562627D-14  0.11533950D-03  0.25795843D-04 -0.15882377D-13
  0.12664231D-03  0.29125832D-03  0.58631353D-14 -0.29561599D-14  0.15977382D-04
  0.44495901D-04  0.14419248D-14 -0.97816541D-04 -0.77766634D-04  0.74265548D-14
  0.49884396D-04 -0.55721069D-04 -0.63833047D-14  0.66782739D-02  0.12448314D-01
  0.21102666D-01  0.31952290D-01  0.39947400D-01  0.34361927D-01  0.13178539D-01
  0.15519040D-05  0.20544303D-04  0.74620646D-04  0.22136074D-03  0.25507354D-03
 -0.30982481D-03  0.52451368D-03 -0.38991371D-03 -0.25078431D-03 -0.27550568D-12
 -0.26943854D-12 -0.17802944D-12 -0.14029317D-03 -0.13720365D-03 -0.90656255D-04
 -0.94743844D-03 -0.92657410D-03 -0.61222668D-03 -0.69913176D-13  0.83001136D-04
 -0.38798058D-03 -0.15528763D-13 -0.24371534D-05 -0.84767550D-04  0.21370469D-15
  0.45483643D-05 -0.60181659D-04  0.36378181D-04 -0.10456389D-03  0.68185709D-04
 -0.23876148D-13  0.29724234D-13  0.24691208D-04 -0.22557137D-04  0.93804463D-05
  0.13176690D-04  0.34211313D-14  0.36613962D-14 -0.91190898D-04 -0.45527144D-04
  0.93940849D-05  0.36133060D-04 -0.11711425D-14 -0.43488278D-14  0.23704478D-04
  0.25340998D-14  0.78447883D-04 -0.10885363D-03 -0.43750543D-14 -0.11001687D-03
  0.22686476D-04 -0.32272452D-14 -0.12532678D-03  0.30387441D-03 -0.48330070D-13
 -0.15106521D-14 -0.15422249D-04  0.45134365D-04 -0.16357410D-14  0.96655678D-04
 -0.76905552D-04  0.61676974D-14 -0.50388931D-04 -0.58497544D-04  0.15445240D-13
MO    3     MO 0.0        OCC NO =    2.0000101  ORB. ENERGY =    0.000000
  0.19837546D+00  0.36981182D+00  0.62503235D+00  0.93954020D+00  0.11540569D+01
  0.97398327D+00  0.36624315D+00  0.26853968D-04  0.20071677D-03  0.75012442D-03
  0.20927303D-02  0.28036817D-02 -0.33106253D-02  0.15840665D-01  0.33789035D-03
  0.13210004D-03 -0.38475398D-11 -0.36073132D-11 -0.25686219D-11 -0.17713391D-04
 -0.16607430D-04 -0.11825480D-04 -0.73411990D-02 -0.68828407D-02 -0.49009926D-02
 -0.76909675D-12 -0.35809626D-05  0.59543597D-03 -0.12400801D-12  0.20130620D-05
  0.52967437D-03  0.20783473D-14 -0.47787203D-07  0.64258451D-05 -0.69194315D-03
  0.56073694D-03  0.13120620D-03  0.33963779D-14 -0.97532342D-12  0.29649620D-04
  0.20766919D-03 -0.24481148D-03  0.37142292D-04 -0.51148447D-14  0.44423825D-12
 -0.22952986D-05 -0.91443245D-05 -0.38283743D-04  0.47428068D-04 -0.12217539D-15
 -0.28430354D-13 -0.96543618D-06  0.98356243D-13  0.77495178D-07 -0.59242486D-05
  0.42454029D-13  0.55281270D-05  0.26243385D-03 -0.33752276D-12 -0.57606125D-05
 -0.24466111D-03 -0.18335487D-14 -0.29633564D-13  0.12342146D-05 -0.14913028D-03
 -0.70294005D-13 -0.35586179D-06  0.15234069D-05  0.15919470D-12 -0.33467822D-05
  0.44586743D-03  0.34771335D-14 -0.99368658D-01 -0.18577971D+00 -0.32108257D+00
 -0.51933782D+00 -0.78496173D+00 -0.10810548D+01 -0.12636214D+01 -0.10921071D+01
 -0.50969207D+00 -0.69052091D-01  0.50505694D-03 -0.12526198D-02 -0.16102301D-01
 -0.58738880D-01 -0.19818352D+00 -0.43529994D+00 -0.56228880D+00  0.90364594D-01
  0.75805153D+00  0.41600890D+00 -0.54966487D-05 -0.62610245D-04 -0.13000144D-03
 -0.35747094D-03  0.46350213D-04  0.16163208D-02  0.40313608D-02 -0.33371021D-02
  0.24989901D-01 -0.17505676D-02 -0.19027273D-03  0.94067096D-08  0.12341068D-07
  0.13535481D-07  0.11136586D-07  0.58705749D-08  0.15274132D-08  0.49789449D-02
  0.65320926D-02  0.71642919D-02  0.58945635D-02  0.31072787D-02  0.80845548D-03
 -0.50373747D+01 -0.66087492D+01 -0.72483676D+01 -0.59637385D+01 -0.31437438D+01
 -0.81794301D+00  0.55600361D-13  0.19958101D-11  0.31664027D-11  0.37600061D-11
  0.56898802D-12 -0.41409882D-11 -0.22639654D-07 -0.81266468D-06 -0.12893129D-05
 -0.15310195D-05 -0.23168361D-06  0.16861499D-05 -0.40870417D-04 -0.14670694D-02
 -0.23275424D-02 -0.27638852D-02 -0.41824868D-03  0.30439355D-02  0.70856826D-10
  0.35086582D-04 -0.39593483D-01  0.20728922D-13  0.13882487D-05  0.43163920D-03
 -0.17199206D-13  0.18371124D-07  0.61941385D-05  0.27876222D-03  0.20466672D-03
 -0.48342894D-03 -0.78708397D-15  0.55382989D-12 -0.29011186D-05 -0.34106393D-04
 -0.29659387D-03  0.33070027D-03 -0.46415321D-16 -0.24549340D-12 -0.28842108D-05
  0.84663279D-05  0.96176269D-05 -0.18083955D-04  0.75008801D-16 -0.20734481D-13
 -0.27114276D-06  0.80236815D-13 -0.65804118D-06  0.11278056D-03 -0.29701567D-13
 -0.18752579D-06 -0.27265304D-03 -0.21100888D-12  0.21616493D-05 -0.65688633D-04
  0.13591660D-15  0.83284826D-14 -0.92559809D-07  0.27228792D-04  0.26730490D-13
 -0.99608297D-07 -0.56193257D-04 -0.51715937D-13  0.37728772D-06 -0.25493120D-04
  0.36124966D-15 -0.52199762D-01 -0.97300446D-01 -0.16494593D+00 -0.24975045D+00
 -0.31224307D+00 -0.26858503D+00 -0.10300814D+00 -0.83082992D-05 -0.10998632D-03
 -0.39949034D-03 -0.11850806D-02 -0.13655660D-02  0.16586833D-02 -0.44778676D-02
  0.10985001D-02  0.14577067D-03  0.62662640D-11  0.61282694D-11  0.40492067D-11
 -0.47180074D-02 -0.46141082D-02 -0.30487363D-02 -0.12646557D-02 -0.12368056D-02
 -0.81720977D-03  0.14748055D-11 -0.52221148D-03  0.20530465D-03  0.33833113D-12
 -0.74329563D-04  0.19957949D-03 -0.12112901D-14 -0.29968979D-05  0.28611257D-04
 -0.14725606D-03  0.16759716D-03 -0.20341103D-04 -0.36646826D-12 -0.12624264D-12
  0.39918120D-03  0.11538190D-03 -0.40027585D-04 -0.75354314D-04  0.10429759D-12
 -0.57057393D-13 -0.30645001D-03  0.85015509D-04 -0.32302785D-04 -0.52712725D-04
  0.95692393D-14  0.78687001D-13  0.71987405D-04  0.45724131D-14  0.11621038D-03
  0.22185630D-03 -0.10336706D-12 -0.36213974D-03 -0.24080048D-03  0.89649821D-13
  0.13508599D-04 -0.42476842D-03 -0.56317161D-12 -0.44365757D-14 -0.24004834D-04
 -0.67036320D-04  0.72229436D-13  0.31683953D-03  0.27619771D-03 -0.58919708D-13
 -0.24482503D-03 -0.75088754D-04  0.20820147D-12 -0.51718192D-01 -0.96402798D-01
 -0.16342422D+00 -0.24744637D+00 -0.30936246D+00 -0.26610719D+00 -0.10205784D+00
 -0.81938799D-05 -0.10847163D-03 -0.39398869D-03 -0.11687600D-02 -0.13467599D-02
  0.16358404D-02 -0.44399449D-02  0.10983993D-02  0.14203232D-03  0.62206730D-11
  0.60836823D-11  0.40197461D-11  0.46203774D-02  0.45186282D-02  0.29856487D-02
 -0.11784064D-02 -0.11524558D-02 -0.76147625D-03  0.14599316D-11  0.49155036D-03
  0.22428814D-03  0.34315778D-12  0.48109235D-04  0.19500465D-03 -0.10215859D-14
  0.29814920D-05  0.28376617D-04 -0.15343757D-03  0.16787487D-03 -0.14437294D-04
  0.34981473D-12 -0.14231662D-12 -0.41152253D-03  0.10953331D-03 -0.34997695D-04
 -0.74535617D-04 -0.10051177D-12 -0.53758813D-13  0.28820838D-03  0.82135179D-04
 -0.25714274D-04 -0.56420905D-04 -0.15049061D-13  0.79994899D-13 -0.74218794D-04
  0.15407004D-13 -0.11013619D-03  0.23005197D-03 -0.14130532D-12  0.34819283D-03
 -0.22958750D-03  0.95084308D-13 -0.17784245D-04 -0.46056840D-03  0.60250927D-12
 -0.60049727D-14  0.22650237D-04 -0.68270545D-04  0.77271431D-13 -0.31299939D-03
  0.27152991D-03 -0.59256513D-13  0.24504868D-03 -0.66718276D-04 -0.21868455D-12
MO    4     MO 0.0        OCC NO =    2.0000091  ORB. ENERGY =    0.000000
 -0.26412848D-09 -0.49238870D-09 -0.83220398D-09 -0.12509578D-08 -0.15365776D-08
 -0.12968173D-08 -0.48763716D-09 -0.32330360D-13 -0.24164941D-12 -0.90309902D-12
 -0.25195056D-11 -0.33754429D-11  0.39857687D-11 -0.21176658D-10  0.45858482D-12
  0.17010663D-13 -0.39901759D-02 -0.37410436D-02 -0.26638459D-02  0.66665905D-13
  0.62503523D-13  0.44506232D-13  0.80017694D-11  0.75021675D-11  0.53419902D-11
 -0.79664688D-03  0.64155367D-13 -0.58835320D-12 -0.12315011D-03 -0.21381314D-13
 -0.37832695D-12  0.20208430D-05  0.44642633D-17  0.85520479D-15  0.11001411D-11
 -0.78238016D-12 -0.31776098D-12 -0.93943342D-06 -0.10112662D-02 -0.37858185D-13
 -0.28540627D-12  0.25216887D-12  0.33237397D-13  0.40477561D-05  0.46297048D-03
 -0.56713205D-13 -0.61430021D-15  0.35785673D-13 -0.35171373D-13  0.74907911D-07
 -0.28043868D-04 -0.60445218D-15  0.10344912D-03 -0.53017190D-14 -0.14974606D-12
  0.43542811D-04 -0.38286573D-13 -0.31496383D-12 -0.35389018D-03  0.54191730D-13
  0.76420201D-12 -0.51787184D-05 -0.31234369D-04 -0.39716327D-16  0.15159320D-12
 -0.72915631D-04  0.39155882D-14  0.18126719D-13  0.16661874D-03 -0.37964392D-14
 -0.47290633D-12 -0.12527088D-05  0.11032568D-09  0.20626498D-09  0.35648719D-09
  0.57660333D-09  0.87151664D-09  0.12002589D-08  0.14029564D-08  0.12125298D-08
  0.56589398D-09  0.76666218D-10 -0.56074776D-12  0.95859756D-12  0.12322675D-10
  0.44951348D-10  0.15166473D-09  0.33312381D-09  0.43030510D-09 -0.69153690D-10
 -0.58011726D-09 -0.31836087D-09  0.42318167D-14  0.48203022D-13  0.10008685D-12
  0.27521342D-12 -0.35684581D-13 -0.12443898D-11 -0.31037057D-11  0.25692026D-11
 -0.19257693D-10  0.11285777D-11 -0.89067735D-14  0.97277344D+01  0.12762234D+02
  0.13997409D+02  0.11516646D+02  0.60709212D+01  0.15795395D+01 -0.18858741D-09
 -0.24741595D-09 -0.27136175D-09 -0.22326828D-09 -0.11769434D-09 -0.30621854D-10
  0.41916204D-08  0.54991676D-08  0.60313968D-08  0.49624516D-08  0.26159223D-08
  0.68061378D-09  0.57538501D-04  0.20653808D-02  0.32767784D-02  0.38910739D-02
  0.58882204D-03 -0.42853364D-02 -0.19431234D-14 -0.69749640D-13 -0.11065955D-12
 -0.13140482D-12 -0.19885013D-13  0.14471940D-12  0.36667568D-13  0.13162055D-11
  0.20881930D-11  0.24796651D-11  0.37523869D-12 -0.27309169D-11  0.73274283D-01
 -0.13024528D-11  0.32476914D-10  0.16975662D-04  0.21275567D-13 -0.22885503D-12
 -0.17786693D-04  0.45151991D-15  0.29633484D-14 -0.23886643D-12 -0.14592173D-12
  0.38478816D-12  0.30293344D-06  0.57653536D-03 -0.28701763D-13 -0.61115514D-13
  0.10384544D-12 -0.42729931D-13 -0.52967119D-06 -0.25484807D-03  0.17234156D-13
  0.14643410D-14 -0.19717279D-14  0.50738689D-15  0.16639341D-07 -0.20223733D-04
 -0.27660288D-14  0.83021098D-04 -0.11808350D-14 -0.15111756D-12 -0.30394923D-04
 -0.37941886D-14  0.30697464D-12 -0.21866837D-03  0.73366936D-14  0.14637805D-12
 -0.26053792D-06  0.89103927D-05 -0.14138773D-14 -0.16359251D-13  0.27871593D-04
 -0.85025291D-15  0.43112607D-13 -0.54602771D-04  0.50918848D-14  0.59651453D-14
 -0.11155937D-06 -0.57269080D-10 -0.10674966D-09 -0.18096446D-09 -0.27400467D-09
 -0.34256619D-09 -0.29466835D-09 -0.11301166D-09 -0.66728209D-15 -0.88335655D-14
 -0.32085117D-13 -0.95179895D-13 -0.10967560D-12  0.13321736D-12 -0.58253152D-11
 -0.13043093D-11 -0.17957353D-12  0.64240135D-02  0.62825449D-02  0.41511430D-02
  0.35970481D-11  0.35178345D-11  0.23243820D-11  0.86167295D-12  0.84269732D-12
  0.55680575D-12  0.15128734D-02  0.84580559D-12  0.20189879D-12  0.35269528D-03
  0.12560838D-13 -0.22692701D-12 -0.85728924D-06  0.18877969D-14 -0.24368895D-13
  0.21890081D-12 -0.19664171D-12 -0.22259093D-13 -0.37510755D-03 -0.15256734D-03
 -0.74954029D-12 -0.21022360D-12  0.10856403D-12  0.10165956D-12  0.10675726D-03
 -0.57091896D-04  0.70710987D-12 -0.81332971D-13  0.33486465D-13  0.47846506D-13
  0.13342686D-04  0.83039326D-04 -0.63073151D-13  0.10029401D-04 -0.11382285D-12
 -0.17550517D-12 -0.12822270D-03  0.28643236D-12  0.16196621D-12  0.98134494D-04
  0.55036173D-13  0.36454931D-12 -0.61663815D-03 -0.55293215D-05  0.98945676D-14
  0.16030107D-13  0.77617551D-04 -0.37217138D-12 -0.32711973D-12 -0.61029587D-04
  0.34248767D-12  0.27902940D-12  0.22421204D-03 -0.25014297D-10 -0.46626692D-10
 -0.79042630D-10 -0.11968123D-09 -0.14962790D-09 -0.12870683D-09 -0.49361838D-10
  0.22461174D-14  0.29734389D-13  0.10800071D-12  0.32038207D-12  0.36917563D-12
 -0.44841878D-12 -0.28372140D-11 -0.13650214D-11 -0.17970701D-12  0.63972889D-02
  0.62564088D-02  0.41338738D-02 -0.40656491D-11 -0.39761160D-11 -0.26271880D-11
  0.12183278D-11  0.11914980D-11  0.78727308D-12  0.15038131D-02 -0.74734378D-12
  0.11375092D-12  0.34584051D-03  0.43298062D-13 -0.22919998D-12 -0.84277758D-06
 -0.15676435D-14 -0.23991361D-13  0.21000106D-12 -0.17626421D-12 -0.33736848D-13
  0.36612090D-03 -0.14586513D-03  0.71792877D-12 -0.18949168D-12  0.74685805D-13
  0.11480587D-12 -0.10262024D-03 -0.58512122D-04 -0.61737050D-12 -0.76536236D-13
  0.19421393D-13  0.57114843D-13 -0.11162514D-04  0.80092494D-04  0.77380518D-13
  0.83726611D-05  0.10566993D-12 -0.21794422D-12 -0.12519985D-03 -0.29008244D-12
  0.18052856D-12  0.10008187D-03 -0.26927343D-13  0.47330411D-12  0.60321967D-03