 Entering Gaussian System, Link 0=/home/bruns/programas/chemistry/gaussian/g09/g09
 Input=GAUSSIAN.com
 Output=GAUSSIAN.log
 Initial command:
 /home/bruns/programas/chemistry/gaussian/g09/l1.exe /home/bruns/programas/chemistry/gaussian/work/Gau-32173.inp -scrdir=/home/bruns/programas/chemistry/gaussian/work/
 Entering Link 1 = /home/bruns/programas/chemistry/gaussian/g09/l1.exe PID=     32175.
  
 Copyright (c) 1988,1990,1992,1993,1995,1998,2003,2009,2010,
            Gaussian, Inc.  All Rights Reserved.
  
 This is part of the Gaussian(R) 09 program.  It is based on
 the Gaussian(R) 03 system (copyright 2003, Gaussian, Inc.),
 the Gaussian(R) 98 system (copyright 1998, Gaussian, Inc.),
 the Gaussian(R) 94 system (copyright 1995, Gaussian, Inc.),
 the Gaussian 92(TM) system (copyright 1992, Gaussian, Inc.),
 the Gaussian 90(TM) system (copyright 1990, Gaussian, Inc.),
 the Gaussian 88(TM) system (copyright 1988, Gaussian, Inc.),
 the Gaussian 86(TM) system (copyright 1986, Carnegie Mellon
 University), and the Gaussian 82(TM) system (copyright 1983,
 Carnegie Mellon University). Gaussian is a federally registered
 trademark of Gaussian, Inc.
  
 This software contains proprietary and confidential information,
 including trade secrets, belonging to Gaussian, Inc.
  
 This software is provided under written license and may be
 used, copied, transmitted, or stored only in accord with that
 written license.
  
 The following legend is applicable only to US Government
 contracts under FAR:
  
                    RESTRICTED RIGHTS LEGEND
  
 Use, reproduction and disclosure by the US Government is
 subject to restrictions as set forth in subparagraphs (a)
 and (c) of the Commercial Computer Software - Restricted
 Rights clause in FAR 52.227-19.
  
 Gaussian, Inc.
 340 Quinnipiac St., Bldg. 40, Wallingford CT 06492
  
  
 ---------------------------------------------------------------
 Warning -- This program may not be used in any manner that
 competes with the business of Gaussian, Inc. or will provide
 assistance to any competitor of Gaussian, Inc.  The licensee
 of this program is prohibited from giving any competitor of
 Gaussian, Inc. access to this program.  By using this program,
 the user acknowledges that Gaussian, Inc. is engaged in the
 business of creating and licensing software in the field of
 computational chemistry and represents and warrants to the
 licensee that it is not a competitor of Gaussian, Inc. and that
 it will not use this program in any manner prohibited above.
 ---------------------------------------------------------------
  

 Cite this work as:
 Gaussian 09, Revision B.01,
 M. J. Frisch, G. W. Trucks, H. B. Schlegel, G. E. Scuseria, 
 M. A. Robb, J. R. Cheeseman, G. Scalmani, V. Barone, B. Mennucci, 
 G. A. Petersson, H. Nakatsuji, M. Caricato, X. Li, H. P. Hratchian, 
 A. F. Izmaylov, J. Bloino, G. Zheng, J. L. Sonnenberg, M. Hada, 
 M. Ehara, K. Toyota, R. Fukuda, J. Hasegawa, M. Ishida, T. Nakajima, 
 Y. Honda, O. Kitao, H. Nakai, T. Vreven, J. A. Montgomery, Jr., 
 J. E. Peralta, F. Ogliaro, M. Bearpark, J. J. Heyd, E. Brothers, 
 K. N. Kudin, V. N. Staroverov, T. Keith, R. Kobayashi, J. Normand, 
 K. Raghavachari, A. Rendell, J. C. Burant, S. S. Iyengar, J. Tomasi, 
 M. Cossi, N. Rega, J. M. Millam, M. Klene, J. E. Knox, J. B. Cross, 
 V. Bakken, C. Adamo, J. Jaramillo, R. Gomperts, R. E. Stratmann, 
 O. Yazyev, A. J. Austin, R. Cammi, C. Pomelli, J. W. Ochterski, 
 R. L. Martin, K. Morokuma, V. G. Zakrzewski, G. A. Voth, 
 P. Salvador, J. J. Dannenberg, S. Dapprich, A. D. Daniels, 
 O. Farkas, J. B. Foresman, J. V. Ortiz, J. Cioslowski, 
 and D. J. Fox, Gaussian, Inc., Wallingford CT, 2010.
 
 ******************************************
 Gaussian 09:  EM64L-G09RevB.01 12-Aug-2010
                27-Nov-2021 
 ******************************************
 %nproc=8
 Will use up to    8 processors via shared memory.
 %mem=8GB
 -----------------------------------------------------
 # qcisd/aug-cc-pvtz nosymm density=current output=wfn
 -----------------------------------------------------
 1/30=1,38=1/1;
 2/12=2,15=1,17=6,18=5,40=1/2;
 3/5=16,6=1,7=10,11=9,16=1,25=1,30=1,71=1/1,2,3;
 4//1;
 5/5=2,38=5/2;
 8/6=4,9=120000,10=1/1,4;
 9/5=8,15=1/13;
 11/28=-7,31=1,32=3,42=3/11;
 10/5=6,13=10,31=1/2;
 6/7=2,8=2,9=2,10=2,22=-1,31=1/1;
 99/5=1,6=1100,9=1/99;
 -----------------
 f2cs-wavefunction
 -----------------
 Symbolic Z-matrix:
 Charge =  0 Multiplicity = 1
 C                     0.        0.       -0.52035 
 S                     0.01      0.        1.07852 
 F                     0.       -1.05522  -1.29554 
 F                     0.        1.05522  -1.29554 
 
                          Input orientation:                          
 ---------------------------------------------------------------------
 Center     Atomic      Atomic             Coordinates (Angstroms)
 Number     Number       Type             X           Y           Z
 ---------------------------------------------------------------------
      1          6           0        0.000000    0.000000   -0.520349
      2         16           0        0.010000    0.000000    1.078525
      3          9           0        0.000000   -1.055221   -1.295538
      4          9           0        0.000000    1.055221   -1.295538
 ---------------------------------------------------------------------
                    Distance matrix (angstroms):
                    1          2          3          4
     1  C    0.000000
     2  S    1.598905   0.000000
     3  F    1.309355   2.598031   0.000000
     4  F    1.309355   2.598031   2.110442   0.000000
 Symmetry turned off by external request.
 Stoichiometry    CF2S
 Framework group  CS[SG(CS),X(F2)]
 Deg. of freedom     4
 Full point group                 CS      NOp   2
 Rotational constants (GHZ):     11.9448895      5.1129862      3.5804076
 Standard basis: Aug-CC-pVTZ (5D, 7F)
 Integral buffers will be    131072 words long.
 Raffenetti 1 integral format.
 Two-electron integral symmetry is turned off.
   188 basis functions,   330 primitive gaussians,   224 cartesian basis functions
    20 alpha electrons       20 beta electrons
       nuclear repulsion energy       154.3918023286 Hartrees.
 NAtoms=    4 NActive=    4 NUniq=    4 SFac= 1.00D+00 NAtFMM=   50 NAOKFM=F Big=F
 One-electron integrals computed using PRISM.
 NBasis=   188 RedAO= T  NBF=   188
 NBsUse=   188 1.00D-06 NBFU=   188
 Harris functional with IExCor=  205 diagonalized for initial guess.
 ExpMin= 3.51D-02 ExpMax= 3.74D+05 ExpMxC= 1.18D+03 IAcc=3 IRadAn=         0 AccDes= 0.00D+00
 HarFok:  IExCor=  205 AccDes= 0.00D+00 IRadAn=         0 IDoV= 1
 ScaDFX=  1.000000  1.000000  1.000000  1.000000
 FoFCou: FMM=F IPFlag=           0 FMFlag=      100000 FMFlg1=           0
         NFxFlg=           0 DoJE=T BraDBF=F KetDBF=T FulRan=T
         Omega=  0.000000  0.000000  1.000000  0.000000  0.000000 ICntrl=     500 IOpCl=  0
         NMat0=    1 NMatS0=    1 NMatT0=    0 NMatD0=    1 NMtDS0=    0 NMtDT0=    0
         I1Cent=           4 NGrid=           0.
 Symmetry not used in FoFCou.
 Requested convergence on RMS density matrix=1.00D-08 within 128 cycles.
 Requested convergence on MAX density matrix=1.00D-06.
 Requested convergence on             energy=1.00D-06.
 No special actions if energy rises.
 Keep R1 ints in memory in canonical form, NReq=323399632.
 SCF Done:  E(RHF) =  -634.356866202     A.U. after   12 cycles
             Convg  =    0.7682D-08             -V/T =  2.0005
 ExpMin= 3.51D-02 ExpMax= 3.74D+05 ExpMxC= 1.18D+03 IAcc=3 IRadAn=         5 AccDes= 0.00D+00
 HarFok:  IExCor=  205 AccDes= 0.00D+00 IRadAn=         5 IDoV=-2
 ScaDFX=  1.000000  1.000000  1.000000  1.000000
 Range of M.O.s used for correlation:     9   188
 NBasis=   188 NAE=    20 NBE=    20 NFC=     8 NFV=     0
 NROrb=    180 NOA=    12 NOB=    12 NVA=   168 NVB=   168

 **** Warning!!: The largest alpha MO coefficient is  0.26836873D+02

 Semi-Direct transformation.
 ModeAB=           2 MOrb=            12 LenV=    1072746531
 LASXX=     33405819 LTotXX=    33405819 LenRXX=    33405819
 LTotAB=    33954012 MaxLAS=    54432000 LenRXY=    54432000
 NonZer=    66811638 LenScr=   100987392 LnRSAI=           0
 LnScr1=           0 LExtra=           0 Total=    188825211
 MaxDsk=          -1 SrtSym=           F ITran=            4
 JobTyp=0 Pass  1:  I=   1 to  12.
 (rs|ai) integrals will be sorted in core.
 Spin components of T(2) and E(2):
     alpha-alpha T2 =       0.3014362425D-01 E2=     -0.1104083010D+00
     alpha-beta  T2 =       0.1598244034D+00 E2=     -0.6187193034D+00
     beta-beta   T2 =       0.3014362425D-01 E2=     -0.1104083010D+00
 ANorm=    0.1104586643D+01
 E2 =    -0.8395359053D+00 EUMP2 =    -0.63519640210719D+03
 R2 and R3 integrals will be kept in memory, NReq=   640760400.
 Iterations=  50 Convergence= 0.100D-07
 Iteration Nr.   1
 **********************
 DD1Dir will call FoFMem   1 times, MxPair=       156
 NAB=    78 NAA=     0 NBB=     0.
 MP4(R+Q)=  0.19353086D-01
 E3=       -0.33854747D-02        EUMP3=      -0.63519978758D+03
 E4(DQ)=    0.24273142D-02        UMP4(DQ)=   -0.63519736027D+03
 E4(SDQ)=  -0.84304898D-02        UMP4(SDQ)=  -0.63520821807D+03
 DE(Corr)= -0.82356829     E(Corr)=     -635.18043450    
 NORM(A)=   0.11038531D+01
 Iteration Nr.   2
 **********************
 DD1Dir will call FoFMem   1 times, MxPair=       156
 NAB=    78 NAA=     0 NBB=     0.
 DE(Corr)= -0.84925280     E(CORR)=     -635.20611900     Delta=-2.57D-02
 NORM(A)=   0.11127846D+01
 Iteration Nr.   3
 **********************
 DD1Dir will call FoFMem   1 times, MxPair=       156
 NAB=    78 NAA=     0 NBB=     0.
 DE(Corr)= -0.84757860     E(CORR)=     -635.20444480     Delta= 1.67D-03
 NORM(A)=   0.11156268D+01
 Iteration Nr.   4
 **********************
 DD1Dir will call FoFMem   1 times, MxPair=       156
 NAB=    78 NAA=     0 NBB=     0.
 DE(Corr)= -0.85010984     E(CORR)=     -635.20697604     Delta=-2.53D-03
 NORM(A)=   0.11167380D+01
 Iteration Nr.   5
 **********************
 DD1Dir will call FoFMem   1 times, MxPair=       156
 NAB=    78 NAA=     0 NBB=     0.
 DE(Corr)= -0.85041108     E(CORR)=     -635.20727729     Delta=-3.01D-04
 NORM(A)=   0.11170640D+01
 Iteration Nr.   6
 **********************
 DD1Dir will call FoFMem   1 times, MxPair=       156
 NAB=    78 NAA=     0 NBB=     0.
 DE(Corr)= -0.85045057     E(CORR)=     -635.20731678     Delta=-3.95D-05
 NORM(A)=   0.11171126D+01
 Iteration Nr.   7
 **********************
 DD1Dir will call FoFMem   1 times, MxPair=       156
 NAB=    78 NAA=     0 NBB=     0.
 DE(Corr)= -0.85045487     E(CORR)=     -635.20732108     Delta=-4.30D-06
 NORM(A)=   0.11171123D+01
 Iteration Nr.   8
 **********************
 DD1Dir will call FoFMem   1 times, MxPair=       156
 NAB=    78 NAA=     0 NBB=     0.
 DE(Corr)= -0.85045349     E(CORR)=     -635.20731969     Delta= 1.39D-06
 NORM(A)=   0.11171175D+01
 Iteration Nr.   9
 **********************
 DD1Dir will call FoFMem   1 times, MxPair=       156
 NAB=    78 NAA=     0 NBB=     0.
 DE(Corr)= -0.85045318     E(CORR)=     -635.20731938     Delta= 3.10D-07
 NORM(A)=   0.11171177D+01
 Iteration Nr.  10
 **********************
 DD1Dir will call FoFMem   1 times, MxPair=       156
 NAB=    78 NAA=     0 NBB=     0.
 DE(Corr)= -0.85045327     E(CORR)=     -635.20731948     Delta=-9.48D-08
 NORM(A)=   0.11171192D+01
 Iteration Nr.  11
 **********************
 DD1Dir will call FoFMem   1 times, MxPair=       156
 NAB=    78 NAA=     0 NBB=     0.
 DE(Corr)= -0.85045401     E(CORR)=     -635.20732021     Delta=-7.34D-07
 NORM(A)=   0.11171206D+01
 Iteration Nr.  12
 **********************
 DD1Dir will call FoFMem   1 times, MxPair=       156
 NAB=    78 NAA=     0 NBB=     0.
 DE(Corr)= -0.85045424     E(CORR)=     -635.20732045     Delta=-2.37D-07
 NORM(A)=   0.11171213D+01
 Iteration Nr.  13
 **********************
 DD1Dir will call FoFMem   1 times, MxPair=       156
 NAB=    78 NAA=     0 NBB=     0.
 DE(Corr)= -0.85045451     E(CORR)=     -635.20732071     Delta=-2.65D-07
 NORM(A)=   0.11171217D+01
 Iteration Nr.  14
 **********************
 DD1Dir will call FoFMem   1 times, MxPair=       156
 NAB=    78 NAA=     0 NBB=     0.
 DE(Corr)= -0.85045457     E(CORR)=     -635.20732077     Delta=-5.94D-08
 NORM(A)=   0.11171219D+01
 Iteration Nr.  15
 **********************
 DD1Dir will call FoFMem   1 times, MxPair=       156
 NAB=    78 NAA=     0 NBB=     0.
 DE(Corr)= -0.85045461     E(CORR)=     -635.20732081     Delta=-3.92D-08
 NORM(A)=   0.11171219D+01
 Iteration Nr.  16
 **********************
 DD1Dir will call FoFMem   1 times, MxPair=       156
 NAB=    78 NAA=     0 NBB=     0.
 DE(Corr)= -0.85045462     E(CORR)=     -635.20732082     Delta=-1.09D-08
 NORM(A)=   0.11171219D+01
 Iteration Nr.  17
 **********************
 DD1Dir will call FoFMem   1 times, MxPair=       156
 NAB=    78 NAA=     0 NBB=     0.
 DE(Corr)= -0.85045461     E(CORR)=     -635.20732081     Delta= 6.32D-09
 NORM(A)=   0.11171219D+01
 Iteration Nr.  18
 **********************
 DD1Dir will call FoFMem   1 times, MxPair=       156
 NAB=    78 NAA=     0 NBB=     0.
 DE(Corr)= -0.85045462     E(CORR)=     -635.20732082     Delta=-3.52D-09
 NORM(A)=   0.11171219D+01
 Iteration Nr.  19
 **********************
 DD1Dir will call FoFMem   1 times, MxPair=       156
 NAB=    78 NAA=     0 NBB=     0.
 DE(Corr)= -0.85045461     E(CORR)=     -635.20732082     Delta= 2.47D-09
 NORM(A)=   0.11171219D+01
 Iteration Nr.  20
 **********************
 DD1Dir will call FoFMem   1 times, MxPair=       156
 NAB=    78 NAA=     0 NBB=     0.
 DE(Corr)= -0.85045462     E(CORR)=     -635.20732082     Delta=-3.41D-09
 NORM(A)=   0.11171219D+01
 Iteration Nr.  21
 **********************
 DD1Dir will call FoFMem   1 times, MxPair=       156
 NAB=    78 NAA=     0 NBB=     0.
 DE(Corr)= -0.85045462     E(CORR)=     -635.20732082     Delta= 8.25D-10
 NORM(A)=   0.11171219D+01
 Largest amplitude= 8.45D-02

 Z-AMPLITUDE ITERATIONS

 Iteration Nr.   1
 **********************
 DD1Dir will call FoFMem   1 times, MxPair=       156
 NAB=    78 NAA=     0 NBB=     0.
 DE(Z)  -0.82655089D+00          E(Z)=    -0.63518341709D+03
 NORM(A)=   0.11170812D+01
 Iteration Nr.   2
 **********************
 DD1Dir will call FoFMem   1 times, MxPair=       156
 NAB=    78 NAA=     0 NBB=     0.
 DE(Z)  -0.82655081D+00          E(Z)=    -0.63518341701D+03
 NORM(A)=   0.11167649D+01
 Iteration Nr.   3
 **********************
 DD1Dir will call FoFMem   1 times, MxPair=       156
 NAB=    78 NAA=     0 NBB=     0.
 DE(Z)  -0.82654525D+00          E(Z)=    -0.63518341145D+03
 NORM(A)=   0.11169880D+01
 Iteration Nr.   4
 **********************
 DD1Dir will call FoFMem   1 times, MxPair=       156
 NAB=    78 NAA=     0 NBB=     0.
 DE(Z)  -0.82654916D+00          E(Z)=    -0.63518341536D+03
 NORM(A)=   0.11164639D+01
 Iteration Nr.   5
 **********************
 DD1Dir will call FoFMem   1 times, MxPair=       156
 NAB=    78 NAA=     0 NBB=     0.
 DE(Z)  -0.82653960D+00          E(Z)=    -0.63518340580D+03
 NORM(A)=   0.11088848D+01
 Iteration Nr.   6
 **********************
 DD1Dir will call FoFMem   1 times, MxPair=       156
 NAB=    78 NAA=     0 NBB=     0.
 DE(Z)  -0.82641176D+00          E(Z)=    -0.63518327797D+03
 NORM(A)=   0.11088833D+01
 Iteration Nr.   7
 **********************
 DD1Dir will call FoFMem   1 times, MxPair=       156
 NAB=    78 NAA=     0 NBB=     0.
 DE(Z)  -0.82640940D+00          E(Z)=    -0.63518327560D+03
 NORM(A)=   0.11088798D+01
 Iteration Nr.   8
 **********************
 DD1Dir will call FoFMem   1 times, MxPair=       156
 NAB=    78 NAA=     0 NBB=     0.
 DE(Z)  -0.82641016D+00          E(Z)=    -0.63518327636D+03
 NORM(A)=   0.11088793D+01
 Iteration Nr.   9
 **********************
 DD1Dir will call FoFMem   1 times, MxPair=       156
 NAB=    78 NAA=     0 NBB=     0.
 DE(Z)  -0.82641037D+00          E(Z)=    -0.63518327657D+03
 NORM(A)=   0.11088796D+01
 Iteration Nr.  10
 **********************
 DD1Dir will call FoFMem   1 times, MxPair=       156
 NAB=    78 NAA=     0 NBB=     0.
 DE(Z)  -0.82641005D+00          E(Z)=    -0.63518327625D+03
 NORM(A)=   0.11088798D+01
 Iteration Nr.  11
 **********************
 DD1Dir will call FoFMem   1 times, MxPair=       156
 NAB=    78 NAA=     0 NBB=     0.
 DE(Z)  -0.82641029D+00          E(Z)=    -0.63518327650D+03
 NORM(A)=   0.11088799D+01
 Iteration Nr.  12
 **********************
 DD1Dir will call FoFMem   1 times, MxPair=       156
 NAB=    78 NAA=     0 NBB=     0.
 DE(Z)  -0.82641028D+00          E(Z)=    -0.63518327648D+03
 NORM(A)=   0.11088799D+01
 Iteration Nr.  13
 **********************
 DD1Dir will call FoFMem   1 times, MxPair=       156
 NAB=    78 NAA=     0 NBB=     0.
 DE(Z)  -0.82641030D+00          E(Z)=    -0.63518327650D+03
 NORM(A)=   0.11088799D+01
 Iteration Nr.  14
 **********************
 DD1Dir will call FoFMem   1 times, MxPair=       156
 NAB=    78 NAA=     0 NBB=     0.
 DE(Z)  -0.82641030D+00          E(Z)=    -0.63518327650D+03
 NORM(A)=   0.11088799D+01
 Discarding MO integrals.
          Differentiating once with respect to electric field.
                with respect to dipole field.
          Electric field/nuclear overlap derivatives assumed to be zero.
          Keep R1 ints in memory in canonical form, NReq=319473719.
          There are     1 degrees of freedom in the 1st order CPHF.  IDoFFX=0.
 LinEq1:  Iter=  0 NonCon=     1 RMS=2.85D-03 Max=7.71D-02
 AX will form     1 AO Fock derivatives at one time.
 LinEq1:  Iter=  1 NonCon=     1 RMS=8.84D-04 Max=1.23D-02
 LinEq1:  Iter=  2 NonCon=     1 RMS=4.03D-04 Max=1.29D-02
 LinEq1:  Iter=  3 NonCon=     1 RMS=1.09D-04 Max=2.39D-03
 LinEq1:  Iter=  4 NonCon=     1 RMS=2.69D-05 Max=6.35D-04
 LinEq1:  Iter=  5 NonCon=     1 RMS=6.77D-06 Max=1.03D-04
 LinEq1:  Iter=  6 NonCon=     1 RMS=2.67D-06 Max=5.69D-05
 LinEq1:  Iter=  7 NonCon=     1 RMS=8.32D-07 Max=1.52D-05
 LinEq1:  Iter=  8 NonCon=     1 RMS=1.67D-07 Max=2.33D-06
 LinEq1:  Iter=  9 NonCon=     1 RMS=3.13D-08 Max=3.73D-07
 LinEq1:  Iter= 10 NonCon=     1 RMS=6.21D-09 Max=7.38D-08
 LinEq1:  Iter= 11 NonCon=     1 RMS=9.89D-10 Max=1.58D-08
 LinEq1:  Iter= 12 NonCon=     1 RMS=1.45D-10 Max=1.95D-09
 LinEq1:  Iter= 13 NonCon=     0 RMS=2.97D-11 Max=4.28D-10
 Linear equations converged to 1.000D-10 1.000D-09 after    13 iterations.
 End of Minotr Frequency-dependent properties file   721 does not exist.
 End of Minotr Frequency-dependent properties file   722 does not exist.

 **********************************************************************

            Population analysis using the QCI/CC density.

 **********************************************************************

     Natural Orbital Coefficients:
                           1         2         3         4         5
     Eigenvalues --     2.00003   2.00002   2.00001   2.00001   2.00000
   1 1   C  1S          0.00000  -0.17766   0.59436  -0.01845   0.48273
   2        2S          0.00000   0.00325  -0.00925   0.00026  -0.00495
   3        3S          0.00000  -0.00680   0.02393  -0.00075   0.02018
   4        4S          0.00000  -0.00905   0.00229  -0.00017  -0.00205
   5        5S          0.00000  -0.00082   0.00195  -0.00008   0.00044
   6        6PX         0.00000   0.00001  -0.00006  -0.00182   0.00000
   7        6PY        -0.00139   0.00000   0.00000   0.00000   0.00000
   8        6PZ         0.00000   0.00135  -0.00335   0.00009  -0.00038
   9        7PX         0.00000   0.00000  -0.00004  -0.00184   0.00001
  10        7PY        -0.00364   0.00000   0.00000   0.00000   0.00000
  11        7PZ         0.00000  -0.00098   0.00139  -0.00004   0.00160
  12        8PX         0.00000  -0.00004  -0.00001  -0.00120  -0.00001
  13        8PY         0.00601   0.00000   0.00000   0.00000   0.00000
  14        8PZ         0.00000  -0.00923   0.00527  -0.00029  -0.00110
  15        9PX         0.00000   0.00000   0.00000   0.00009   0.00000
  16        9PY        -0.00061   0.00000   0.00000   0.00000   0.00000
  17        9PZ         0.00000   0.00035   0.00029  -0.00001   0.00054
  18       10D 0        0.00000  -0.00008   0.00007   0.00000   0.00019
  19       10D+1        0.00000   0.00000  -0.00001  -0.00030   0.00000
  20       10D-1       -0.00030   0.00000   0.00000   0.00000   0.00000
  21       10D+2        0.00000   0.00011  -0.00037   0.00001  -0.00019
  22       10D-2        0.00000   0.00000   0.00000   0.00000   0.00000
  23       11D 0        0.00000  -0.00116   0.00018  -0.00002  -0.00032
  24       11D+1        0.00000  -0.00001   0.00003   0.00120   0.00000
  25       11D-1        0.00103   0.00000   0.00000   0.00000   0.00000
  26       11D+2        0.00000  -0.00013   0.00118  -0.00002   0.00082
  27       11D-2        0.00000   0.00000   0.00000   0.00000   0.00000
  28       12D 0        0.00000  -0.00270   0.00163  -0.00007  -0.00137
  29       12D+1        0.00000  -0.00002   0.00000  -0.00054  -0.00001
  30       12D-1       -0.00446   0.00000   0.00000   0.00000   0.00000
  31       12D+2        0.00000  -0.00088   0.00057  -0.00003  -0.00054
  32       12D-2       -0.00001   0.00000   0.00000   0.00000   0.00000
  33       13F 0        0.00000  -0.00005  -0.00001   0.00000   0.00041
  34       13F+1        0.00000   0.00000  -0.00001  -0.00018   0.00000
  35       13F-1       -0.00055   0.00000   0.00000   0.00000   0.00000
  36       13F+2        0.00000  -0.00010   0.00016  -0.00001   0.00002
  37       13F-2        0.00000   0.00000   0.00000   0.00000   0.00000
  38       13F+3        0.00000   0.00000   0.00000   0.00002   0.00000
  39       13F-3        0.00005   0.00000   0.00000   0.00000   0.00000
  40       14F 0        0.00000   0.00062  -0.00195   0.00002  -0.00025
  41       14F+1        0.00000   0.00000   0.00001   0.00089   0.00001
  42       14F-1        0.00290   0.00000   0.00000   0.00000   0.00000
  43       14F+2        0.00000   0.00066  -0.00151   0.00005  -0.00089
  44       14F-2        0.00002   0.00000   0.00000   0.00000   0.00000
  45       14F+3        0.00000   0.00001  -0.00001   0.00017   0.00000
  46       14F-3        0.00003   0.00000   0.00000   0.00000   0.00000
  47 2   S  1S          0.00000  -0.21707  -0.16976   0.00347   0.07188
  48        2S          0.00000   0.74224   0.58691  -0.01202  -0.24953
  49        3S          0.00000  -0.02144  -0.00889   0.00017   0.00218
  50        4S          0.00000   0.04959   0.04234  -0.00088  -0.01822
  51        5S          0.00000   0.01000  -0.01126   0.00045   0.00417
  52        6S          0.00000   0.00100  -0.00257   0.00012  -0.00080
  53        7PX         0.00000   0.00186   0.02142   0.97242   0.00614
  54        7PY         0.97647   0.00000   0.00000   0.00000   0.00000
  55        7PZ         0.00000   0.62347  -0.50355   0.00561   0.43824
  56        8PX         0.00000  -0.00004  -0.00026  -0.01225  -0.00007
  57        8PY        -0.02022   0.00000   0.00000   0.00000   0.00000
  58        8PZ         0.00000  -0.01235   0.00874  -0.00015  -0.00447
  59        9PX         0.00000   0.00012   0.00133   0.06129   0.00040
  60        9PY         0.05654   0.00000   0.00000   0.00000   0.00000
  61        9PZ         0.00000   0.03855  -0.03310   0.00040   0.02891
  62       10PX         0.00000  -0.00005   0.00003   0.00020   0.00000
  63       10PY        -0.00421   0.00000   0.00000   0.00000   0.00000
  64       10PZ         0.00000  -0.00881   0.00483  -0.00020  -0.00069
  65       11PX         0.00000   0.00000  -0.00002  -0.00082   0.00000
  66       11PY        -0.00033   0.00000   0.00000   0.00000   0.00000
  67       11PZ         0.00000  -0.00029   0.00029  -0.00001  -0.00003
  68       12D 0        0.00000   0.00245  -0.00293   0.00005   0.00107
  69       12D+1        0.00000   0.00003   0.00002   0.00201   0.00002
  70       12D-1        0.00336   0.00000   0.00000   0.00000   0.00000
  71       12D+2        0.00000  -0.00039   0.00026   0.00000   0.00029
  72       12D-2        0.00002   0.00000   0.00000   0.00000   0.00000
  73       13D 0        0.00000   0.00019   0.00028   0.00000  -0.00069
  74       13D+1        0.00000   0.00000   0.00000  -0.00013  -0.00001
  75       13D-1       -0.00028   0.00000   0.00000   0.00000   0.00000
  76       13D+2        0.00000   0.00026   0.00013   0.00000  -0.00008
  77       13D-2        0.00000   0.00000   0.00000   0.00000   0.00000
  78       14D 0        0.00000   0.00141  -0.00061   0.00003   0.00010
  79       14D+1        0.00000   0.00002  -0.00002  -0.00039   0.00000
  80       14D-1       -0.00081   0.00000   0.00000   0.00000   0.00000
  81       14D+2        0.00000   0.00025  -0.00002   0.00000   0.00014
  82       14D-2       -0.00001   0.00000   0.00000   0.00000   0.00000
  83       15F 0        0.00000  -0.00022   0.00029  -0.00001   0.00033
  84       15F+1        0.00000   0.00000   0.00000  -0.00023   0.00000
  85       15F-1       -0.00022   0.00000   0.00000   0.00000   0.00000
  86       15F+2        0.00000   0.00011  -0.00014   0.00000   0.00003
  87       15F-2        0.00000   0.00000   0.00000   0.00000   0.00000
  88       15F+3        0.00000   0.00000   0.00000   0.00009   0.00000
  89       15F-3        0.00006   0.00000   0.00000   0.00000   0.00000
  90       16F 0        0.00000  -0.00046   0.00057   0.00000  -0.00046
  91       16F+1        0.00000  -0.00001   0.00000  -0.00047  -0.00001
  92       16F-1       -0.00103   0.00000   0.00000   0.00000   0.00000
  93       16F+2        0.00000  -0.00001  -0.00017   0.00000  -0.00026
  94       16F-2       -0.00001   0.00000   0.00000   0.00000   0.00000
  95       16F+3        0.00000   0.00000   0.00000  -0.00013   0.00000
  96       16F-3       -0.00012   0.00000   0.00000   0.00000   0.00000
  97 3   F  1S          0.00831   0.01088  -0.08477   0.00272  -0.48454
  98        2S          0.00019  -0.00044   0.00235  -0.00007   0.00838
  99        3S          0.00045   0.00040  -0.00338   0.00011  -0.02059
 100        4S          0.00030  -0.00133   0.00375  -0.00010   0.00181
 101        5S          0.00719  -0.00214   0.00122  -0.00007  -0.00032
 102        6PX         0.00000   0.00000   0.00003   0.00095   0.00000
 103        6PY        -0.00019   0.00002  -0.00069   0.00002  -0.00171
 104        6PZ        -0.00058  -0.00014  -0.00018   0.00001  -0.00143
 105        7PX         0.00000   0.00000   0.00003   0.00118   0.00000
 106        7PY        -0.00031  -0.00007  -0.00039   0.00002  -0.00093
 107        7PZ        -0.00085  -0.00030   0.00017   0.00000  -0.00085
 108        8PX        -0.00002   0.00000   0.00003   0.00127   0.00000
 109        8PY        -0.00054   0.00002  -0.00020   0.00001  -0.00111
 110        8PZ        -0.00273  -0.00030   0.00072   0.00000  -0.00141
 111        9PX         0.00000   0.00000   0.00000  -0.00001   0.00000
 112        9PY         0.00169  -0.00009  -0.00005   0.00000   0.00007
 113        9PZ         0.00021  -0.00110   0.00052  -0.00002  -0.00068
 114       10D 0        0.00000   0.00001   0.00000   0.00000   0.00001
 115       10D+1        0.00000   0.00000   0.00000  -0.00001   0.00000
 116       10D-1        0.00001   0.00000   0.00002   0.00000   0.00002
 117       10D+2        0.00000   0.00001  -0.00002   0.00000   0.00002
 118       10D-2        0.00000   0.00000   0.00000  -0.00002   0.00000
 119       11D 0        0.00015   0.00001  -0.00006   0.00000  -0.00003
 120       11D+1        0.00000   0.00000   0.00000  -0.00003   0.00000
 121       11D-1       -0.00007   0.00004  -0.00013   0.00000  -0.00010
 122       11D+2        0.00004  -0.00001   0.00007   0.00000  -0.00001
 123       11D-2        0.00000   0.00000   0.00000   0.00005   0.00000
 124       12D 0       -0.00046   0.00019  -0.00029   0.00001  -0.00005
 125       12D+1        0.00000   0.00001   0.00000   0.00024   0.00000
 126       12D-1       -0.00084  -0.00007   0.00022   0.00001  -0.00052
 127       12D+2        0.00040  -0.00017   0.00033  -0.00001   0.00020
 128       12D-2       -0.00001   0.00000   0.00000   0.00004   0.00000
 129       13F 0       -0.00001  -0.00002   0.00004   0.00000  -0.00001
 130       13F+1        0.00000   0.00000   0.00000   0.00001   0.00000
 131       13F-1        0.00003   0.00001   0.00000   0.00000   0.00002
 132       13F+2       -0.00001  -0.00001   0.00001   0.00000  -0.00004
 133       13F-2        0.00000   0.00000   0.00000  -0.00002   0.00000
 134       13F+3        0.00000   0.00000   0.00000   0.00001   0.00000
 135       13F-3       -0.00002   0.00001  -0.00002   0.00000   0.00001
 136       14F 0        0.00013   0.00006  -0.00009   0.00000   0.00014
 137       14F+1        0.00000   0.00000   0.00000  -0.00003   0.00000
 138       14F-1       -0.00001   0.00003  -0.00014   0.00000  -0.00019
 139       14F+2        0.00007  -0.00001   0.00012  -0.00001   0.00030
 140       14F-2        0.00000   0.00000   0.00000   0.00008   0.00000
 141       14F+3        0.00000   0.00000   0.00000  -0.00004   0.00000
 142       14F-3        0.00012  -0.00005   0.00015   0.00000   0.00000
 143 4   F  1S         -0.00831   0.01088  -0.08477   0.00272  -0.48454
 144        2S         -0.00019  -0.00044   0.00235  -0.00007   0.00838
 145        3S         -0.00045   0.00040  -0.00338   0.00011  -0.02059
 146        4S         -0.00030  -0.00133   0.00375  -0.00010   0.00181
 147        5S         -0.00719  -0.00214   0.00122  -0.00007  -0.00032
 148        6PX         0.00000   0.00000   0.00003   0.00095   0.00000
 149        6PY        -0.00019  -0.00002   0.00069  -0.00002   0.00171
 150        6PZ         0.00058  -0.00014  -0.00018   0.00001  -0.00143
 151        7PX         0.00000   0.00000   0.00003   0.00118   0.00000
 152        7PY        -0.00031   0.00007   0.00039  -0.00002   0.00093
 153        7PZ         0.00085  -0.00030   0.00017   0.00000  -0.00085
 154        8PX         0.00002   0.00000   0.00003   0.00127   0.00000
 155        8PY        -0.00054  -0.00002   0.00020  -0.00001   0.00111
 156        8PZ         0.00273  -0.00030   0.00072   0.00000  -0.00141
 157        9PX         0.00000   0.00000   0.00000  -0.00001   0.00000
 158        9PY         0.00169   0.00009   0.00005   0.00000  -0.00007
 159        9PZ        -0.00021  -0.00110   0.00052  -0.00002  -0.00068
 160       10D 0        0.00000   0.00001   0.00000   0.00000   0.00001
 161       10D+1        0.00000   0.00000   0.00000  -0.00001   0.00000
 162       10D-1        0.00001   0.00000  -0.00002   0.00000  -0.00002
 163       10D+2        0.00000   0.00001  -0.00002   0.00000   0.00002
 164       10D-2        0.00000   0.00000   0.00000   0.00002   0.00000
 165       11D 0       -0.00015   0.00001  -0.00006   0.00000  -0.00003
 166       11D+1        0.00000   0.00000   0.00000  -0.00003   0.00000
 167       11D-1       -0.00007  -0.00004   0.00013   0.00000   0.00010
 168       11D+2       -0.00004  -0.00001   0.00007   0.00000  -0.00001
 169       11D-2        0.00000   0.00000   0.00000  -0.00005   0.00000
 170       12D 0        0.00046   0.00019  -0.00029   0.00001  -0.00005
 171       12D+1        0.00000   0.00001   0.00000   0.00024   0.00000
 172       12D-1       -0.00084   0.00007  -0.00022  -0.00001   0.00052
 173       12D+2       -0.00040  -0.00017   0.00033  -0.00001   0.00020
 174       12D-2       -0.00001   0.00000   0.00000  -0.00004   0.00000
 175       13F 0        0.00001  -0.00002   0.00004   0.00000  -0.00001
 176       13F+1        0.00000   0.00000   0.00000   0.00001   0.00000
 177       13F-1        0.00003  -0.00001   0.00000   0.00000  -0.00002
 178       13F+2        0.00001  -0.00001   0.00001   0.00000  -0.00004
 179       13F-2        0.00000   0.00000   0.00000   0.00002   0.00000
 180       13F+3        0.00000   0.00000   0.00000   0.00001   0.00000
 181       13F-3       -0.00002  -0.00001   0.00002   0.00000  -0.00001
 182       14F 0       -0.00013   0.00006  -0.00009   0.00000   0.00014
 183       14F+1        0.00000   0.00000   0.00000  -0.00003   0.00000
 184       14F-1       -0.00001  -0.00003   0.00014   0.00000   0.00019
 185       14F+2       -0.00007  -0.00001   0.00012  -0.00001   0.00030
 186       14F-2        0.00000   0.00000   0.00000  -0.00008   0.00000
 187       14F+3        0.00000   0.00000   0.00000  -0.00004   0.00000
 188       14F-3        0.00012   0.00005  -0.00015   0.00000   0.00000
                           6         7         8         9        10
     Eigenvalues --     2.00000   2.00000   2.00000   1.98612   1.98546
   1 1   C  1S          0.00000   0.58704   0.00016  -0.04808   0.00000
   2        2S          0.00000  -0.00556  -0.00003   0.09894   0.00000
   3        3S          0.00000   0.02379   0.00002   0.02060   0.00000
   4        4S          0.00000  -0.00203  -0.00004   0.01128   0.00000
   5        5S          0.00000   0.00065  -0.00007   0.00489   0.00000
   6        6PX         0.00000   0.00000   0.00000   0.00005   0.00000
   7        6PY        -0.00002   0.00000   0.00000   0.00000   0.03332
   8        6PZ         0.00000  -0.00095   0.00001  -0.02072   0.00000
   9        7PX         0.00000   0.00001   0.00000   0.00006   0.00000
  10        7PY         0.00072   0.00000   0.00000   0.00000   0.02711
  11        7PZ         0.00000   0.00018  -0.00013  -0.02473   0.00000
  12        8PX         0.00000   0.00000   0.00000   0.00008   0.00000
  13        8PY        -0.00059   0.00000   0.00000   0.00000  -0.01794
  14        8PZ         0.00000   0.00218   0.00003   0.03658   0.00000
  15        9PX         0.00000   0.00000   0.00000   0.00004   0.00000
  16        9PY         0.00033   0.00000   0.00000   0.00000   0.00139
  17        9PZ         0.00000   0.00028  -0.00003   0.00128   0.00000
  18       10D 0        0.00000   0.00023  -0.00001   0.00308   0.00000
  19       10D+1        0.00000   0.00000   0.00000   0.00002   0.00000
  20       10D-1       -0.00020   0.00000   0.00000   0.00000  -0.01045
  21       10D+2        0.00000  -0.00051   0.00000  -0.00842   0.00000
  22       10D-2        0.00000   0.00000   0.00000   0.00000   0.00000
  23       11D 0        0.00000  -0.00049  -0.00008   0.00233   0.00000
  24       11D+1        0.00000   0.00000   0.00000   0.00000   0.00000
  25       11D-1       -0.00124   0.00000   0.00000   0.00000  -0.01070
  26       11D+2        0.00000   0.00000  -0.00003  -0.01134   0.00000
  27       11D-2        0.00000   0.00000   0.00000   0.00000   0.00001
  28       12D 0        0.00000  -0.00014  -0.00002   0.00686   0.00000
  29       12D+1        0.00000   0.00000   0.00000   0.00003   0.00000
  30       12D-1        0.00064   0.00000   0.00000   0.00000   0.01329
  31       12D+2        0.00000   0.00026   0.00000   0.00846   0.00000
  32       12D-2        0.00000   0.00000   0.00000   0.00000   0.00000
  33       13F 0        0.00000   0.00061   0.00001   0.00274   0.00000
  34       13F+1        0.00000   0.00000   0.00000   0.00001   0.00000
  35       13F-1        0.00017   0.00000   0.00000   0.00000   0.00181
  36       13F+2        0.00000   0.00060   0.00001   0.00521   0.00000
  37       13F-2        0.00000   0.00000   0.00000   0.00000   0.00001
  38       13F+3        0.00000   0.00000   0.00000   0.00000   0.00000
  39       13F-3       -0.00021   0.00000   0.00000   0.00000  -0.00214
  40       14F 0        0.00000   0.00053   0.00003   0.00420   0.00000
  41       14F+1        0.00000   0.00001   0.00000   0.00000   0.00000
  42       14F-1        0.00106   0.00000   0.00000   0.00000   0.00422
  43       14F+2        0.00000  -0.00025   0.00001   0.00234   0.00000
  44       14F-2        0.00000   0.00000   0.00000   0.00000  -0.00002
  45       14F+3        0.00000   0.00000   0.00000   0.00000   0.00000
  46       14F-3        0.00013   0.00000   0.00000   0.00000   0.00034
  47 2   S  1S          0.00000   0.04651   0.99640   0.00292   0.00000
  48        2S          0.00000  -0.16291   0.01318  -0.01167   0.00000
  49        3S          0.00000   0.00050   0.00031   0.02248   0.00000
  50        4S          0.00000  -0.01214  -0.00003   0.00241   0.00000
  51        5S          0.00000   0.00117  -0.00005  -0.01837   0.00000
  52        6S          0.00000  -0.00093   0.00005  -0.01149   0.00000
  53        7PX         0.00000   0.00437   0.00001   0.00006   0.00000
  54        7PY         0.01182   0.00000   0.00000   0.00000  -0.00434
  55        7PZ         0.00000   0.33444   0.00171   0.00758   0.00000
  56        8PX         0.00000  -0.00004   0.00000  -0.00006   0.00000
  57        8PY        -0.00034   0.00000   0.00000   0.00000   0.01612
  58        8PZ         0.00000  -0.00288  -0.00018  -0.01279   0.00000
  59        9PX         0.00000   0.00029   0.00000  -0.00006   0.00000
  60        9PY         0.00073   0.00000   0.00000   0.00000   0.00663
  61        9PZ         0.00000   0.02235   0.00019  -0.00742   0.00000
  62       10PX         0.00000   0.00001   0.00000   0.00009   0.00000
  63       10PY        -0.00048   0.00000   0.00000   0.00000   0.00416
  64       10PZ         0.00000  -0.00018   0.00003   0.00651   0.00000
  65       11PX         0.00000   0.00000   0.00000  -0.00001   0.00000
  66       11PY        -0.00018   0.00000   0.00000   0.00000  -0.00054
  67       11PZ         0.00000   0.00007   0.00000   0.00188   0.00000
  68       12D 0        0.00000   0.00101   0.00008   0.00139   0.00000
  69       12D+1        0.00000   0.00001   0.00000  -0.00003   0.00000
  70       12D-1        0.00012   0.00000   0.00000   0.00000   0.00009
  71       12D+2        0.00000   0.00009  -0.00001  -0.00020   0.00000
  72       12D-2        0.00000   0.00000   0.00000   0.00000   0.00002
  73       13D 0        0.00000  -0.00067   0.00001   0.00257   0.00000
  74       13D+1        0.00000  -0.00001   0.00000   0.00003   0.00000
  75       13D-1       -0.00001   0.00000   0.00000   0.00000  -0.00034
  76       13D+2        0.00000  -0.00005   0.00001  -0.00001   0.00000
  77       13D-2        0.00000   0.00000   0.00000   0.00000   0.00000
  78       14D 0        0.00000   0.00026  -0.00003  -0.00158   0.00000
  79       14D+1        0.00000   0.00000   0.00000  -0.00003   0.00000
  80       14D-1        0.00013   0.00000   0.00000   0.00000   0.00196
  81       14D+2        0.00000  -0.00008   0.00000  -0.00270   0.00000
  82       14D-2        0.00000   0.00000   0.00000   0.00000   0.00004
  83       15F 0        0.00000   0.00035  -0.00002  -0.00045   0.00000
  84       15F+1        0.00000   0.00000   0.00000  -0.00001   0.00000
  85       15F-1        0.00000   0.00000   0.00000   0.00000   0.00021
  86       15F+2        0.00000   0.00009   0.00000   0.00001   0.00000
  87       15F-2        0.00000   0.00000   0.00000   0.00000   0.00000
  88       15F+3        0.00000   0.00000   0.00000   0.00000   0.00000
  89       15F-3       -0.00001   0.00000   0.00000   0.00000   0.00000
  90       16F 0        0.00000  -0.00050  -0.00001   0.00034   0.00000
  91       16F+1        0.00000  -0.00001   0.00000   0.00001   0.00000
  92       16F-1       -0.00002   0.00000   0.00000   0.00000  -0.00019
  93       16F+2        0.00000  -0.00009   0.00000   0.00088   0.00000
  94       16F-2        0.00000   0.00000   0.00000   0.00000  -0.00002
  95       16F+3        0.00000   0.00000   0.00000   0.00001   0.00000
  96       16F-3        0.00003   0.00000   0.00000   0.00000   0.00023
  97 3   F  1S         -0.69208   0.48674   0.00014  -0.14653   0.15004
  98        2S          0.01116  -0.00689  -0.00001   0.37465  -0.38398
  99        3S         -0.02981   0.02132   0.00001   0.11418  -0.11769
 100        4S          0.00069   0.00123  -0.00003   0.23445  -0.25373
 101        5S         -0.00067   0.00032   0.00004   0.01848  -0.03170
 102        6PX         0.00000   0.00000   0.00000  -0.00002  -0.00005
 103        6PY        -0.00143   0.00045   0.00000  -0.00577   0.03767
 104        6PZ        -0.00109   0.00001   0.00000  -0.02186   0.00808
 105        7PX         0.00000   0.00000   0.00000  -0.00002  -0.00006
 106        7PY         0.00014  -0.00073  -0.00001  -0.00268   0.04114
 107        7PZ        -0.00012  -0.00097  -0.00001  -0.02387   0.00614
 108        8PX         0.00000   0.00000   0.00000  -0.00003  -0.00002
 109        8PY        -0.00067   0.00059   0.00000  -0.01350   0.03418
 110        8PZ        -0.00152  -0.00063  -0.00004  -0.02907   0.00461
 111        9PX         0.00000   0.00000   0.00000  -0.00001  -0.00001
 112        9PY        -0.00040   0.00008   0.00001  -0.00170  -0.00111
 113        9PZ        -0.00005  -0.00014   0.00001  -0.00056   0.00042
 114       10D 0        0.00000   0.00001   0.00000  -0.00013  -0.00014
 115       10D+1        0.00000   0.00000   0.00000   0.00000   0.00000
 116       10D-1       -0.00001   0.00005   0.00000   0.00065  -0.00041
 117       10D+2        0.00001  -0.00001   0.00000  -0.00065   0.00009
 118       10D-2        0.00000   0.00000   0.00000   0.00000   0.00000
 119       11D 0       -0.00007  -0.00007   0.00000  -0.00077  -0.00094
 120       11D+1        0.00000   0.00000   0.00000   0.00000   0.00000
 121       11D-1        0.00024  -0.00052  -0.00001   0.00359  -0.00384
 122       11D+2       -0.00017   0.00021   0.00000  -0.00336   0.00194
 123       11D-2        0.00000   0.00000   0.00000   0.00000   0.00000
 124       12D 0       -0.00031  -0.00012   0.00000  -0.00141  -0.00124
 125       12D+1        0.00000   0.00000   0.00000  -0.00001   0.00000
 126       12D-1       -0.00038  -0.00029  -0.00002  -0.00528   0.00000
 127       12D+2        0.00017  -0.00013  -0.00001   0.00184  -0.00126
 128       12D-2        0.00000   0.00000   0.00000  -0.00001   0.00000
 129       13F 0        0.00000  -0.00002   0.00000  -0.00034   0.00011
 130       13F+1        0.00000   0.00000   0.00000   0.00000   0.00000
 131       13F-1        0.00001  -0.00001   0.00000   0.00014  -0.00028
 132       13F+2       -0.00001   0.00001   0.00000  -0.00054   0.00031
 133       13F-2        0.00000   0.00000   0.00000   0.00000   0.00000
 134       13F+3        0.00000   0.00000   0.00000   0.00000   0.00000
 135       13F-3       -0.00006   0.00002   0.00000  -0.00042   0.00003
 136       14F 0       -0.00004   0.00020   0.00001  -0.00035   0.00035
 137       14F+1        0.00000   0.00000   0.00000   0.00000   0.00000
 138       14F-1       -0.00003  -0.00020   0.00000  -0.00018  -0.00086
 139       14F+2        0.00000   0.00027   0.00000  -0.00075   0.00096
 140       14F-2        0.00000   0.00000   0.00000   0.00000   0.00000
 141       14F+3        0.00000   0.00000   0.00000   0.00000   0.00000
 142       14F-3        0.00012   0.00004   0.00000  -0.00047   0.00062
 143 4   F  1S          0.69208   0.48674   0.00014  -0.14653  -0.15004
 144        2S         -0.01116  -0.00689  -0.00001   0.37465   0.38398
 145        3S          0.02981   0.02132   0.00001   0.11418   0.11769
 146        4S         -0.00069   0.00123  -0.00003   0.23445   0.25373
 147        5S          0.00067   0.00032   0.00004   0.01848   0.03170
 148        6PX         0.00000   0.00000   0.00000  -0.00002   0.00005
 149        6PY        -0.00143  -0.00045   0.00000   0.00577   0.03767
 150        6PZ         0.00109   0.00001   0.00000  -0.02186  -0.00808
 151        7PX         0.00000   0.00000   0.00000  -0.00002   0.00006
 152        7PY         0.00014   0.00073   0.00001   0.00268   0.04114
 153        7PZ         0.00012  -0.00097  -0.00001  -0.02387  -0.00614
 154        8PX         0.00000   0.00000   0.00000  -0.00003   0.00002
 155        8PY        -0.00067  -0.00059   0.00000   0.01350   0.03418
 156        8PZ         0.00152  -0.00063  -0.00004  -0.02907  -0.00461
 157        9PX         0.00000   0.00000   0.00000  -0.00001   0.00001
 158        9PY        -0.00040  -0.00008  -0.00001   0.00170  -0.00111
 159        9PZ         0.00005  -0.00014   0.00001  -0.00056  -0.00042
 160       10D 0        0.00000   0.00001   0.00000  -0.00013   0.00014
 161       10D+1        0.00000   0.00000   0.00000   0.00000   0.00000
 162       10D-1       -0.00001  -0.00005   0.00000  -0.00065  -0.00041
 163       10D+2       -0.00001  -0.00001   0.00000  -0.00065  -0.00009
 164       10D-2        0.00000   0.00000   0.00000   0.00000   0.00000
 165       11D 0        0.00007  -0.00007   0.00000  -0.00077   0.00094
 166       11D+1        0.00000   0.00000   0.00000   0.00000   0.00000
 167       11D-1        0.00024   0.00052   0.00001  -0.00359  -0.00384
 168       11D+2        0.00017   0.00021   0.00000  -0.00336  -0.00194
 169       11D-2        0.00000   0.00000   0.00000   0.00000   0.00000
 170       12D 0        0.00031  -0.00012   0.00000  -0.00141   0.00124
 171       12D+1        0.00000   0.00000   0.00000  -0.00001   0.00000
 172       12D-1       -0.00038   0.00029   0.00002   0.00528   0.00000
 173       12D+2       -0.00017  -0.00013  -0.00001   0.00184   0.00126
 174       12D-2        0.00000   0.00000   0.00000   0.00001   0.00000
 175       13F 0        0.00000  -0.00002   0.00000  -0.00034  -0.00011
 176       13F+1        0.00000   0.00000   0.00000   0.00000   0.00000
 177       13F-1        0.00001   0.00001   0.00000  -0.00014  -0.00028
 178       13F+2        0.00001   0.00001   0.00000  -0.00054  -0.00031
 179       13F-2        0.00000   0.00000   0.00000   0.00000   0.00000
 180       13F+3        0.00000   0.00000   0.00000   0.00000   0.00000
 181       13F-3       -0.00006  -0.00002   0.00000   0.00042   0.00003
 182       14F 0        0.00004   0.00020   0.00001  -0.00035  -0.00035
 183       14F+1        0.00000   0.00000   0.00000   0.00000   0.00000
 184       14F-1       -0.00003   0.00020   0.00000   0.00018  -0.00086
 185       14F+2        0.00000   0.00027   0.00000  -0.00075  -0.00096
 186       14F-2        0.00000   0.00000   0.00000   0.00000   0.00000
 187       14F+3        0.00000   0.00000   0.00000   0.00000   0.00000
 188       14F-3        0.00012  -0.00004   0.00000   0.00047   0.00062
                          11        12        13        14        15
     Eigenvalues --     1.97415   1.97117   1.97007   1.96730   1.96693
   1 1   C  1S         -0.05546  -0.10228   0.00000   0.00000   0.00001
   2        2S          0.14997   0.27584   0.00000   0.00000  -0.00005
   3        3S          0.03538   0.06787   0.00000   0.00000   0.00001
   4        4S          0.01894   0.14478   0.00000   0.00000  -0.00119
   5        5S         -0.02049   0.04369   0.00000   0.00000  -0.00039
   6        6PX         0.00046   0.00058   0.00000   0.00000   0.10236
   7        6PY         0.00000   0.00000  -0.05183  -0.00023   0.00000
   8        6PZ         0.09084   0.00964   0.00000   0.00000  -0.00094
   9        7PX         0.00058   0.00069   0.00000   0.00000   0.12543
  10        7PY         0.00000   0.00000  -0.07640  -0.00023   0.00000
  11        7PZ         0.11661  -0.00378   0.00000   0.00000  -0.00097
  12        8PX        -0.00046   0.00037   0.00000   0.00000   0.00521
  13        8PY         0.00000   0.00000   0.05617  -0.00006   0.00000
  14        8PZ        -0.05426   0.03682   0.00000   0.00000  -0.00082
  15        9PX        -0.00003   0.00007   0.00000   0.00000  -0.00078
  16        9PY         0.00000   0.00000  -0.00045   0.00013   0.00000
  17        9PZ        -0.00742   0.01369   0.00000   0.00000  -0.00006
  18       10D 0       -0.00828   0.01912   0.00000   0.00000  -0.00003
  19       10D+1        0.00005   0.00008   0.00000   0.00000  -0.01502
  20       10D-1        0.00000   0.00000  -0.00909   0.00008   0.00000
  21       10D+2       -0.00986   0.00281   0.00000   0.00000  -0.00006
  22       10D-2        0.00000   0.00000  -0.00007  -0.02020   0.00000
  23       11D 0       -0.01821   0.03204   0.00000   0.00000  -0.00003
  24       11D+1        0.00003   0.00014   0.00000   0.00000  -0.02486
  25       11D-1        0.00000   0.00000  -0.00676   0.00022   0.00000
  26       11D+2       -0.01789   0.00204   0.00000   0.00000  -0.00007
  27       11D-2        0.00000   0.00000  -0.00012  -0.03259   0.00000
  28       12D 0       -0.00464  -0.00376   0.00000   0.00000  -0.00017
  29       12D+1       -0.00031   0.00012   0.00000   0.00000  -0.00233
  30       12D-1        0.00000   0.00000   0.01132   0.00058   0.00000
  31       12D+2        0.00056  -0.00018   0.00000   0.00000  -0.00013
  32       12D-2        0.00000   0.00000   0.00021   0.00883   0.00000
  33       13F 0        0.00838   0.00171   0.00000   0.00000  -0.00002
  34       13F+1        0.00006   0.00005   0.00000   0.00000   0.00415
  35       13F-1        0.00000   0.00000   0.00929  -0.00005   0.00000
  36       13F+2        0.00157   0.00282   0.00000   0.00000   0.00003
  37       13F-2        0.00000   0.00000   0.00002   0.00876   0.00000
  38       13F+3       -0.00002  -0.00001   0.00000   0.00000  -0.00782
  39       13F-3        0.00000   0.00000   0.00520  -0.00001   0.00000
  40       14F 0        0.00656   0.00139   0.00000   0.00000  -0.00005
  41       14F+1       -0.00004   0.00005   0.00000   0.00000  -0.00151
  42       14F-1        0.00000   0.00000   0.01954   0.00010   0.00000
  43       14F+2        0.00688   0.00240   0.00000   0.00000  -0.00005
  44       14F-2        0.00000   0.00000   0.00017   0.00946   0.00000
  45       14F+3        0.00005   0.00002   0.00000   0.00000  -0.00063
  46       14F-3        0.00000   0.00000   0.00021   0.00008   0.00000
  47 2   S  1S          0.03174   0.04386   0.00000   0.00000  -0.00029
  48        2S         -0.12373  -0.16828   0.00000   0.00000   0.00112
  49        3S          0.24977   0.35462   0.00000   0.00000  -0.00236
  50        4S          0.03192   0.04486   0.00000   0.00000  -0.00030
  51        5S          0.17447   0.15553   0.00000   0.00000  -0.00055
  52        6S          0.02762  -0.05492   0.00000   0.00000   0.00054
  53        7PX         0.00016   0.00019   0.00000   0.00000   0.01252
  54        7PY         0.00000   0.00000   0.00322   0.00002   0.00000
  55        7PZ         0.02894   0.03487   0.00000   0.00000  -0.00022
  56        8PX        -0.00011  -0.00016   0.00000   0.00000  -0.03135
  57        8PY         0.00000   0.00000  -0.01962  -0.00015   0.00000
  58        8PZ        -0.03337  -0.04125   0.00000   0.00000   0.00030
  59        9PX        -0.00008  -0.00010   0.00000   0.00000  -0.01416
  60        9PY         0.00000   0.00000  -0.00149  -0.00002   0.00000
  61        9PZ        -0.01840  -0.02386   0.00000   0.00000   0.00018
  62       10PX         0.00018   0.00010   0.00000   0.00000  -0.02722
  63       10PY         0.00000   0.00000  -0.02355  -0.00058   0.00000
  64       10PZ        -0.01472   0.03258   0.00000   0.00000  -0.00022
  65       11PX         0.00002   0.00005   0.00000   0.00000  -0.00412
  66       11PY         0.00000   0.00000   0.00445  -0.00007   0.00000
  67       11PZ        -0.00070   0.00949   0.00000   0.00000  -0.00008
  68       12D 0        0.00551   0.00946   0.00000   0.00000   0.00004
  69       12D+1        0.00003   0.00007   0.00000   0.00000  -0.00823
  70       12D-1        0.00000   0.00000   0.02004   0.00017   0.00000
  71       12D+2       -0.00240   0.00192   0.00000   0.00000  -0.00004
  72       12D-2        0.00000   0.00000   0.00013  -0.00419   0.00000
  73       13D 0        0.01658   0.01836   0.00000   0.00000  -0.00001
  74       13D+1        0.00017   0.00017   0.00000   0.00000  -0.00468
  75       13D-1        0.00000   0.00000   0.00792   0.00004   0.00000
  76       13D+2       -0.00082   0.00161   0.00000   0.00000  -0.00004
  77       13D-2        0.00000   0.00000   0.00004  -0.00128   0.00000
  78       14D 0       -0.00203  -0.01043   0.00000   0.00000   0.00012
  79       14D+1       -0.00012  -0.00008   0.00000   0.00000  -0.00275
  80       14D-1        0.00000   0.00000   0.01341   0.00024   0.00000
  81       14D+2       -0.00075  -0.00064   0.00000   0.00000   0.00004
  82       14D-2        0.00000   0.00000   0.00005  -0.00474   0.00000
  83       15F 0       -0.00516  -0.00699   0.00000   0.00000   0.00002
  84       15F+1       -0.00007  -0.00010   0.00000   0.00000   0.00183
  85       15F-1        0.00000   0.00000  -0.00513  -0.00004   0.00000
  86       15F+2        0.00073  -0.00062   0.00000   0.00000   0.00002
  87       15F-2        0.00000   0.00000  -0.00006   0.00135   0.00000
  88       15F+3        0.00000   0.00000   0.00000   0.00000  -0.00035
  89       15F-3        0.00000   0.00000   0.00027   0.00001   0.00000
  90       16F 0        0.00681   0.00093   0.00000   0.00000  -0.00001
  91       16F+1        0.00010   0.00003   0.00000   0.00000   0.00201
  92       16F-1        0.00000   0.00000  -0.00191  -0.00006   0.00000
  93       16F+2       -0.00042  -0.00051   0.00000   0.00000  -0.00002
  94       16F-2        0.00000   0.00000  -0.00002   0.00332   0.00000
  95       16F+3        0.00000   0.00000   0.00000   0.00000   0.00032
  96       16F-3        0.00000   0.00000  -0.00038   0.00003   0.00000
  97 3   F  1S          0.00000   0.02747   0.01573  -0.00005  -0.00004
  98        2S         -0.00161  -0.07746  -0.04107   0.00014   0.00008
  99        3S         -0.00022  -0.02629  -0.01375   0.00004   0.00001
 100        4S         -0.01470  -0.10140  -0.03927  -0.00008  -0.00002
 101        5S         -0.01583  -0.01896   0.00664  -0.00071  -0.00014
 102        6PX         0.00052   0.00026   0.00098   0.27592   0.25160
 103        6PY        -0.10901   0.15560  -0.15422   0.00107   0.00056
 104        6PZ         0.18034  -0.06663   0.23041  -0.00055   0.00045
 105        7PX         0.00063   0.00032   0.00119   0.33588   0.30696
 106        7PY        -0.13308   0.18650  -0.18729   0.00130   0.00070
 107        7PZ         0.21723  -0.08235   0.27829  -0.00068   0.00056
 108        8PX         0.00048   0.00019   0.00078   0.23487   0.21154
 109        8PY        -0.09028   0.10256  -0.14815   0.00095   0.00040
 110        8PZ         0.14769  -0.07678   0.18741  -0.00060   0.00044
 111        9PX        -0.00001   0.00002   0.00016   0.02734   0.01712
 112        9PY        -0.01250   0.00564  -0.01249  -0.00013   0.00003
 113        9PZ         0.01046  -0.01442   0.02327  -0.00006  -0.00001
 114       10D 0        0.00240  -0.00123   0.00231  -0.00001   0.00000
 115       10D+1        0.00000   0.00000   0.00001   0.00174   0.00186
 116       10D-1        0.00144   0.00158   0.00119   0.00001   0.00001
 117       10D+2        0.00132  -0.00237   0.00075  -0.00001  -0.00001
 118       10D-2        0.00001   0.00001   0.00001   0.00212   0.00300
 119       11D 0        0.00854  -0.00511   0.00856  -0.00003  -0.00002
 120       11D+1        0.00001   0.00002   0.00002   0.00715   0.00784
 121       11D-1        0.00383   0.00346   0.00420   0.00002   0.00005
 122       11D+2        0.00497  -0.00741   0.00348  -0.00004  -0.00005
 123       11D-2        0.00003   0.00002   0.00003   0.00958   0.01219
 124       12D 0        0.00564  -0.00324   0.00715  -0.00006   0.00002
 125       12D+1        0.00004   0.00001   0.00001   0.00470   0.00429
 126       12D-1        0.00348  -0.00290  -0.00187  -0.00001   0.00006
 127       12D+2       -0.00017  -0.00022   0.00887  -0.00008  -0.00002
 128       12D-2        0.00003   0.00000  -0.00002   0.00570   0.00794
 129       13F 0        0.00039  -0.00080   0.00061   0.00000   0.00000
 130       13F+1        0.00000   0.00000   0.00000   0.00028   0.00029
 131       13F-1        0.00168  -0.00044   0.00173   0.00000   0.00000
 132       13F+2        0.00000  -0.00100  -0.00001  -0.00001  -0.00001
 133       13F-2        0.00000   0.00000   0.00001   0.00150   0.00166
 134       13F+3        0.00000   0.00000   0.00000  -0.00085  -0.00151
 135       13F-3        0.00075  -0.00088   0.00031   0.00000  -0.00001
 136       14F 0        0.00191  -0.00113   0.00067  -0.00001  -0.00001
 137       14F+1        0.00000   0.00001   0.00001   0.00071   0.00031
 138       14F-1        0.00223  -0.00157   0.00293  -0.00001   0.00001
 139       14F+2        0.00030  -0.00092  -0.00022  -0.00001  -0.00002
 140       14F-2        0.00001   0.00001   0.00001   0.00268   0.00295
 141       14F+3        0.00000   0.00001  -0.00001  -0.00256  -0.00210
 142       14F-3        0.00040  -0.00127   0.00153  -0.00001  -0.00001
 143 4   F  1S          0.00000   0.02747  -0.01573   0.00005  -0.00004
 144        2S         -0.00161  -0.07746   0.04107  -0.00014   0.00008
 145        3S         -0.00022  -0.02629   0.01375  -0.00004   0.00001
 146        4S         -0.01470  -0.10140   0.03927   0.00008  -0.00002
 147        5S         -0.01583  -0.01896  -0.00664   0.00071  -0.00014
 148        6PX         0.00052   0.00026  -0.00098  -0.27592   0.25160
 149        6PY         0.10901  -0.15560  -0.15422   0.00107  -0.00056
 150        6PZ         0.18034  -0.06663  -0.23041   0.00055   0.00045
 151        7PX         0.00063   0.00032  -0.00119  -0.33588   0.30696
 152        7PY         0.13308  -0.18650  -0.18729   0.00130  -0.00070
 153        7PZ         0.21723  -0.08235  -0.27829   0.00068   0.00056
 154        8PX         0.00048   0.00019  -0.00078  -0.23487   0.21154
 155        8PY         0.09028  -0.10256  -0.14815   0.00095  -0.00040
 156        8PZ         0.14769  -0.07678  -0.18741   0.00060   0.00044
 157        9PX        -0.00001   0.00002  -0.00016  -0.02734   0.01712
 158        9PY         0.01250  -0.00564  -0.01249  -0.00013  -0.00003
 159        9PZ         0.01046  -0.01442  -0.02327   0.00006  -0.00001
 160       10D 0        0.00240  -0.00123  -0.00231   0.00001   0.00000
 161       10D+1        0.00000   0.00000  -0.00001  -0.00174   0.00186
 162       10D-1       -0.00144  -0.00158   0.00119   0.00001  -0.00001
 163       10D+2        0.00132  -0.00237  -0.00075   0.00001  -0.00001
 164       10D-2       -0.00001  -0.00001   0.00001   0.00212  -0.00300
 165       11D 0        0.00854  -0.00511  -0.00856   0.00003  -0.00002
 166       11D+1        0.00001   0.00002  -0.00002  -0.00715   0.00784
 167       11D-1       -0.00383  -0.00346   0.00420   0.00002  -0.00005
 168       11D+2        0.00497  -0.00741  -0.00348   0.00004  -0.00005
 169       11D-2       -0.00003  -0.00002   0.00003   0.00958  -0.01219
 170       12D 0        0.00564  -0.00324  -0.00715   0.00006   0.00002
 171       12D+1        0.00004   0.00001  -0.00001  -0.00470   0.00429
 172       12D-1       -0.00348   0.00290  -0.00187  -0.00001  -0.00006
 173       12D+2       -0.00017  -0.00022  -0.00887   0.00008  -0.00002
 174       12D-2       -0.00003   0.00000  -0.00002   0.00570  -0.00794
 175       13F 0        0.00039  -0.00080  -0.00061   0.00000   0.00000
 176       13F+1        0.00000   0.00000   0.00000  -0.00028   0.00029
 177       13F-1       -0.00168   0.00044   0.00173   0.00000   0.00000
 178       13F+2        0.00000  -0.00100   0.00001   0.00001  -0.00001
 179       13F-2        0.00000   0.00000   0.00001   0.00150  -0.00166
 180       13F+3        0.00000   0.00000   0.00000   0.00085  -0.00151
 181       13F-3       -0.00075   0.00088   0.00031   0.00000   0.00001
 182       14F 0        0.00191  -0.00113  -0.00067   0.00001  -0.00001
 183       14F+1        0.00000   0.00001  -0.00001  -0.00071   0.00031
 184       14F-1       -0.00223   0.00157   0.00293  -0.00001  -0.00001
 185       14F+2        0.00030  -0.00092   0.00022   0.00001  -0.00002
 186       14F-2       -0.00001  -0.00001   0.00001   0.00268  -0.00295
 187       14F+3        0.00000   0.00001   0.00001   0.00256  -0.00210
 188       14F-3       -0.00040   0.00127   0.00153  -0.00001   0.00001
                          16        17        18        19        20
     Eigenvalues --     1.96289   1.95899   1.94248   1.93934   1.91706
   1 1   C  1S         -0.08196   0.00000   0.07740   0.00000   0.00050
   2        2S          0.21470   0.00000  -0.23046   0.00000  -0.00143
   3        3S          0.05602   0.00000  -0.05925   0.00000  -0.00037
   4        4S          0.09601   0.00000  -0.16600   0.00000  -0.00154
   5        5S         -0.02007   0.00000  -0.02283   0.00000  -0.00002
   6        6PX        -0.00074   0.00000  -0.00107   0.00000   0.18187
   7        6PY         0.00000   0.19221   0.00000   0.03390   0.00000
   8        6PZ        -0.13684   0.00000  -0.18047   0.00000  -0.00105
   9        7PX        -0.00090   0.00000  -0.00136   0.00000   0.25478
  10        7PY         0.00000   0.23365   0.00000   0.04834   0.00000
  11        7PZ        -0.17111   0.00000  -0.22300   0.00000  -0.00143
  12        8PX        -0.00006   0.00000  -0.00054   0.00000   0.13720
  13        8PY         0.00000   0.05674   0.00000   0.04959   0.00000
  14        8PZ        -0.01454   0.00000  -0.06783   0.00000  -0.00121
  15        9PX        -0.00002   0.00000  -0.00005   0.00000   0.02111
  16        9PY         0.00000  -0.00002   0.00000  -0.00356   0.00000
  17        9PZ        -0.00551   0.00000  -0.00566   0.00000   0.00003
  18       10D 0       -0.00723   0.00000  -0.01003   0.00000  -0.00014
  19       10D+1        0.00003   0.00000  -0.00013   0.00000   0.01559
  20       10D-1        0.00000  -0.02652   0.00000   0.02079   0.00000
  21       10D+2       -0.01484   0.00000  -0.00772   0.00000   0.00006
  22       10D-2        0.00000  -0.00005   0.00000   0.00007   0.00000
  23       11D 0       -0.01875   0.00000  -0.01803   0.00000  -0.00041
  24       11D+1        0.00002   0.00000  -0.00024   0.00000   0.04767
  25       11D-1        0.00000  -0.05784   0.00000   0.05102   0.00000
  26       11D+2       -0.03588   0.00000  -0.01945   0.00000   0.00019
  27       11D-2        0.00000  -0.00007   0.00000   0.00014   0.00000
  28       12D 0        0.00253   0.00000  -0.00600   0.00000  -0.00036
  29       12D+1        0.00002   0.00000  -0.00004   0.00000   0.01867
  30       12D-1        0.00000  -0.00381   0.00000  -0.02358   0.00000
  31       12D+2        0.00430   0.00000  -0.00247   0.00000  -0.00003
  32       12D-2        0.00000  -0.00001   0.00000  -0.00011   0.00000
  33       13F 0        0.00209   0.00000  -0.00394   0.00000  -0.00011
  34       13F+1       -0.00003   0.00000  -0.00009   0.00000   0.00670
  35       13F-1        0.00000   0.00781   0.00000   0.00703   0.00000
  36       13F+2        0.00539   0.00000   0.00175   0.00000   0.00007
  37       13F-2        0.00000   0.00006   0.00000   0.00007   0.00000
  38       13F+3        0.00003   0.00000   0.00000   0.00000   0.00043
  39       13F-3        0.00000  -0.00254   0.00000   0.00205   0.00000
  40       14F 0        0.01004   0.00000   0.00132   0.00000  -0.00005
  41       14F+1       -0.00004   0.00000  -0.00006   0.00000   0.00053
  42       14F-1        0.00000   0.01879   0.00000  -0.00020   0.00000
  43       14F+2        0.01082   0.00000   0.00039   0.00000   0.00002
  44       14F-2        0.00000  -0.00001   0.00000   0.00005   0.00000
  45       14F+3       -0.00001   0.00000  -0.00007   0.00000   0.00397
  46       14F-3        0.00000  -0.00214   0.00000   0.00044   0.00000
  47 2   S  1S         -0.03642   0.00000   0.02961   0.00000   0.00010
  48        2S          0.13889   0.00000  -0.11364   0.00000  -0.00037
  49        3S         -0.30054   0.00000   0.26149   0.00000   0.00085
  50        4S         -0.04135   0.00000   0.03772   0.00000   0.00013
  51        5S         -0.18841   0.00000   0.32662   0.00000   0.00140
  52        6S          0.01543   0.00000   0.05491   0.00000   0.00003
  53        7PX        -0.00022   0.00000  -0.00062   0.00000  -0.18867
  54        7PY         0.00000  -0.01420   0.00000  -0.21583   0.00000
  55        7PZ        -0.00949   0.00000  -0.17382   0.00000   0.00101
  56        8PX         0.00048   0.00000   0.00118   0.00000   0.43250
  57        8PY         0.00000   0.02866   0.00000   0.52214   0.00000
  58        8PZ         0.00588   0.00000   0.35954   0.00000  -0.00250
  59        9PX         0.00019   0.00000   0.00054   0.00000   0.17760
  60        9PY         0.00000   0.01457   0.00000   0.21973   0.00000
  61        9PZ         0.00483   0.00000   0.16460   0.00000  -0.00099
  62       10PX         0.00029   0.00000  -0.00015   0.00000   0.23794
  63       10PY         0.00000   0.00411   0.00000   0.36963   0.00000
  64       10PZ         0.00193   0.00000   0.09583   0.00000  -0.00180
  65       11PX        -0.00001   0.00000  -0.00007   0.00000   0.00060
  66       11PY         0.00000   0.00056   0.00000   0.02711   0.00000
  67       11PZ        -0.00298   0.00000  -0.00447   0.00000  -0.00007
  68       12D 0       -0.00047   0.00000  -0.02725   0.00000   0.00029
  69       12D+1       -0.00005   0.00000  -0.00028   0.00000  -0.03390
  70       12D-1        0.00000  -0.00519   0.00000  -0.01320   0.00000
  71       12D+2       -0.00150   0.00000  -0.00084   0.00000  -0.00022
  72       12D-2        0.00000   0.00001   0.00000  -0.00009   0.00000
  73       13D 0       -0.00632   0.00000  -0.04844   0.00000   0.00029
  74       13D+1       -0.00009   0.00000  -0.00047   0.00000  -0.03415
  75       13D-1        0.00000  -0.00874   0.00000  -0.01489   0.00000
  76       13D+2       -0.00098   0.00000  -0.00095   0.00000  -0.00022
  77       13D-2        0.00000  -0.00006   0.00000  -0.00010   0.00000
  78       14D 0        0.00138   0.00000   0.00514   0.00000   0.00009
  79       14D+1        0.00002   0.00000   0.00012   0.00000  -0.00473
  80       14D-1        0.00000   0.00192   0.00000  -0.01769   0.00000
  81       14D+2       -0.00081   0.00000  -0.00194   0.00000  -0.00001
  82       14D-2        0.00000   0.00001   0.00000  -0.00015   0.00000
  83       15F 0        0.00395   0.00000   0.01571   0.00000  -0.00018
  84       15F+1        0.00007   0.00000   0.00022   0.00000   0.01205
  85       15F-1        0.00000   0.00316   0.00000   0.00818   0.00000
  86       15F+2        0.00019   0.00000   0.00215   0.00000   0.00012
  87       15F-2        0.00000   0.00002   0.00000   0.00008   0.00000
  88       15F+3        0.00000   0.00000   0.00001   0.00000   0.00241
  89       15F-3        0.00000   0.00010   0.00000   0.00263   0.00000
  90       16F 0       -0.00186   0.00000  -0.00538   0.00000   0.00001
  91       16F+1       -0.00004   0.00000  -0.00008   0.00000  -0.00064
  92       16F-1        0.00000  -0.00062   0.00000   0.00226   0.00000
  93       16F+2        0.00069   0.00000   0.00080   0.00000  -0.00001
  94       16F-2        0.00000  -0.00004   0.00000   0.00004   0.00000
  95       16F+3        0.00002   0.00000   0.00001   0.00000   0.00187
  96       16F-3        0.00000   0.00141   0.00000   0.00237   0.00000
  97 3   F  1S          0.00649   0.00871  -0.01341  -0.01568  -0.00004
  98        2S         -0.02523  -0.01360   0.03721   0.04277   0.00012
  99        3S         -0.01175   0.00000   0.01076   0.01343   0.00004
 100        4S         -0.09913   0.07908   0.02018   0.03692   0.00010
 101        5S         -0.02140   0.03561  -0.00555   0.05503  -0.00024
 102        6PX        -0.00099   0.00064   0.00020   0.00011  -0.05358
 103        6PY         0.11707  -0.21806   0.02794   0.01973  -0.00005
 104        6PZ         0.16373  -0.10596   0.06385   0.05263   0.00021
 105        7PX        -0.00121   0.00078   0.00024   0.00013  -0.06482
 106        7PY         0.14152  -0.26460   0.03562   0.02617  -0.00006
 107        7PZ         0.19811  -0.12907   0.07923   0.06523   0.00025
 108        8PX        -0.00083   0.00056   0.00020   0.00007  -0.06086
 109        8PY         0.05882  -0.14268   0.01568   0.00869  -0.00005
 110        8PZ         0.10720  -0.06538   0.05309   0.05277   0.00023
 111        9PX        -0.00005   0.00005   0.00010   0.00001  -0.02567
 112        9PY        -0.00463  -0.00864   0.00006   0.01486  -0.00002
 113        9PZ         0.00826   0.00437   0.01082   0.01795  -0.00006
 114       10D 0        0.00000  -0.00037  -0.00067  -0.00038  -0.00001
 115       10D+1       -0.00001   0.00000  -0.00001   0.00000   0.00109
 116       10D-1        0.00422  -0.00483   0.00051   0.00043   0.00000
 117       10D+2       -0.00283   0.00291  -0.00098  -0.00022   0.00000
 118       10D-2       -0.00001   0.00001  -0.00001   0.00000   0.00112
 119       11D 0       -0.00022  -0.00212  -0.00221  -0.00227  -0.00002
 120       11D+1       -0.00004   0.00002  -0.00002  -0.00002   0.00387
 121       11D-1        0.01412  -0.01661   0.00307   0.00205   0.00000
 122       11D+2       -0.00927   0.00954  -0.00354  -0.00205   0.00000
 123       11D-2       -0.00006   0.00002  -0.00002  -0.00001   0.00304
 124       12D 0       -0.00171  -0.00492  -0.00339  -0.00046   0.00001
 125       12D+1       -0.00004   0.00001  -0.00006  -0.00002   0.00214
 126       12D-1       -0.00003  -0.00379  -0.00250  -0.00173   0.00000
 127       12D+2       -0.00181   0.00106  -0.00011   0.00230  -0.00001
 128       12D-2       -0.00003   0.00003  -0.00001  -0.00002   0.00376
 129       13F 0       -0.00112   0.00119  -0.00036  -0.00027   0.00000
 130       13F+1        0.00000   0.00000   0.00000   0.00000   0.00024
 131       13F-1        0.00107  -0.00118  -0.00007   0.00010   0.00000
 132       13F+2       -0.00193   0.00225  -0.00049  -0.00028   0.00000
 133       13F-2       -0.00001   0.00000   0.00000   0.00000   0.00054
 134       13F+3        0.00001   0.00000   0.00001   0.00000  -0.00036
 135       13F-3       -0.00106   0.00095  -0.00055  -0.00010   0.00000
 136       14F 0       -0.00157   0.00121  -0.00133  -0.00092   0.00000
 137       14F+1       -0.00001   0.00000  -0.00001   0.00000   0.00051
 138       14F-1        0.00094  -0.00315   0.00000  -0.00067   0.00001
 139       14F+2       -0.00311   0.00341  -0.00135  -0.00031   0.00000
 140       14F-2       -0.00002   0.00000  -0.00001  -0.00001   0.00056
 141       14F+3        0.00001   0.00000  -0.00001   0.00001  -0.00019
 142       14F-3       -0.00156   0.00179  -0.00026  -0.00053   0.00001
 143 4   F  1S          0.00649  -0.00871  -0.01341   0.01568  -0.00004
 144        2S         -0.02523   0.01360   0.03721  -0.04277   0.00012
 145        3S         -0.01175   0.00000   0.01076  -0.01343   0.00004
 146        4S         -0.09913  -0.07908   0.02018  -0.03692   0.00010
 147        5S         -0.02140  -0.03561  -0.00555  -0.05503  -0.00024
 148        6PX        -0.00099  -0.00064   0.00020  -0.00011  -0.05358
 149        6PY        -0.11707  -0.21806  -0.02794   0.01973   0.00005
 150        6PZ         0.16373   0.10596   0.06385  -0.05263   0.00021
 151        7PX        -0.00121  -0.00078   0.00024  -0.00013  -0.06482
 152        7PY        -0.14152  -0.26460  -0.03562   0.02617   0.00006
 153        7PZ         0.19811   0.12907   0.07923  -0.06523   0.00025
 154        8PX        -0.00083  -0.00056   0.00020  -0.00007  -0.06086
 155        8PY        -0.05882  -0.14268  -0.01568   0.00869   0.00005
 156        8PZ         0.10720   0.06538   0.05309  -0.05277   0.00023
 157        9PX        -0.00005  -0.00005   0.00010  -0.00001  -0.02567
 158        9PY         0.00463  -0.00864  -0.00006   0.01486   0.00002
 159        9PZ         0.00826  -0.00437   0.01082  -0.01795  -0.00006
 160       10D 0        0.00000   0.00037  -0.00067   0.00038  -0.00001
 161       10D+1       -0.00001   0.00000  -0.00001   0.00000   0.00109
 162       10D-1       -0.00422  -0.00483  -0.00051   0.00043   0.00000
 163       10D+2       -0.00283  -0.00291  -0.00098   0.00022   0.00000
 164       10D-2        0.00001   0.00001   0.00001   0.00000  -0.00112
 165       11D 0       -0.00022   0.00212  -0.00221   0.00227  -0.00002
 166       11D+1       -0.00004  -0.00002  -0.00002   0.00002   0.00387
 167       11D-1       -0.01412  -0.01661  -0.00307   0.00205   0.00000
 168       11D+2       -0.00927  -0.00954  -0.00354   0.00205   0.00000
 169       11D-2        0.00006   0.00002   0.00002  -0.00001  -0.00304
 170       12D 0       -0.00171   0.00492  -0.00339   0.00046   0.00001
 171       12D+1       -0.00004  -0.00001  -0.00006   0.00002   0.00214
 172       12D-1        0.00003  -0.00379   0.00250  -0.00173   0.00000
 173       12D+2       -0.00181  -0.00106  -0.00011  -0.00230  -0.00001
 174       12D-2        0.00003   0.00003   0.00001  -0.00002  -0.00376
 175       13F 0       -0.00112  -0.00119  -0.00036   0.00027   0.00000
 176       13F+1        0.00000   0.00000   0.00000   0.00000   0.00024
 177       13F-1       -0.00107  -0.00118   0.00007   0.00010   0.00000
 178       13F+2       -0.00193  -0.00225  -0.00049   0.00028   0.00000
 179       13F-2        0.00001   0.00000   0.00000   0.00000  -0.00054
 180       13F+3        0.00001   0.00000   0.00001   0.00000  -0.00036
 181       13F-3        0.00106   0.00095   0.00055  -0.00010   0.00000
 182       14F 0       -0.00157  -0.00121  -0.00133   0.00092   0.00000
 183       14F+1       -0.00001   0.00000  -0.00001   0.00000   0.00051
 184       14F-1       -0.00094  -0.00315   0.00000  -0.00067  -0.00001
 185       14F+2       -0.00311  -0.00341  -0.00135   0.00031   0.00000
 186       14F-2        0.00002   0.00000   0.00001  -0.00001  -0.00056
 187       14F+3        0.00001   0.00000  -0.00001  -0.00001  -0.00019
 188       14F-3        0.00156   0.00179   0.00026  -0.00053  -0.00001
                          21        22        23        24        25
     Eigenvalues --     0.07402   0.04119   0.03930   0.03212   0.01913
   1 1   C  1S          0.00071   0.17639   0.00000   0.03549   0.03244
   2        2S         -0.00236  -0.60105   0.00000  -0.09689  -0.09440
   3        3S         -0.00085  -0.21362   0.00000   0.00945  -0.04062
   4        4S         -0.00247  -0.64335   0.00000   0.04178   0.08158
   5        5S         -0.00043  -0.12236   0.00000   0.02913   0.09778
   6        6PX         0.31817  -0.00164   0.00000   0.00114   0.00005
   7        6PY         0.00000   0.00000   0.30445   0.00000   0.00000
   8        6PZ        -0.00109  -0.04737   0.00000   0.37168   0.05456
   9        7PX         0.44549  -0.00258   0.00000   0.00214  -0.00014
  10        7PY         0.00000   0.00000   0.58612   0.00000   0.00000
  11        7PZ        -0.00134  -0.04885   0.00000   0.66856   0.05767
  12        8PX         0.15479  -0.00215   0.00000   0.00077   0.00155
  13        8PY         0.00000   0.00000   0.10563   0.00000   0.00000
  14        8PZ        -0.00205  -0.21628   0.00000   0.27455   0.30431
  15        9PX         0.00799  -0.00011   0.00000   0.00002   0.00015
  16        9PY         0.00000   0.00000   0.01572   0.00000   0.00000
  17        9PZ        -0.00010  -0.00776   0.00000  -0.00501   0.03364
  18       10D 0       -0.00003  -0.00135   0.00000   0.00948   0.05680
  19       10D+1        0.01627  -0.00005   0.00000   0.00003   0.00003
  20       10D-1        0.00000   0.00000   0.03016   0.00000   0.00000
  21       10D+2       -0.00004  -0.00934   0.00000   0.00339   0.04695
  22       10D-2        0.00000   0.00000   0.00013   0.00000   0.00000
  23       11D 0       -0.00015  -0.04391   0.00000   0.07385   0.15441
  24       11D+1        0.07198  -0.00082   0.00000   0.00063   0.00034
  25       11D-1        0.00000   0.00000  -0.06263   0.00000   0.00000
  26       11D+2        0.00054   0.02864   0.00000   0.06705   0.14331
  27       11D-2        0.00000   0.00000   0.00023   0.00000   0.00000
  28       12D 0       -0.00044  -0.05324   0.00000   0.02370   0.01601
  29       12D+1        0.02796  -0.00071   0.00000  -0.00023   0.00064
  30       12D-1        0.00000   0.00000  -0.03008   0.00000   0.00000
  31       12D+2        0.00015   0.00701   0.00000   0.02064   0.02384
  32       12D-2        0.00000   0.00000  -0.00041   0.00000   0.00000
  33       13F 0       -0.00011  -0.00776   0.00000   0.01366  -0.00185
  34       13F+1        0.01186  -0.00008   0.00000   0.00023  -0.00006
  35       13F-1        0.00000   0.00000   0.03328   0.00000   0.00000
  36       13F+2        0.00001  -0.02215   0.00000  -0.02137   0.01244
  37       13F-2        0.00000   0.00000   0.00025   0.00000   0.00000
  38       13F+3       -0.00129  -0.00003   0.00000  -0.00008   0.00018
  39       13F-3        0.00000   0.00000  -0.01168   0.00000   0.00000
  40       14F 0       -0.00062  -0.02551   0.00000  -0.00934  -0.02519
  41       14F+1        0.02836  -0.00029   0.00000   0.00025   0.00025
  42       14F-1        0.00000   0.00000   0.11577   0.00000   0.00000
  43       14F+2        0.00008  -0.01531   0.00000  -0.04157  -0.02689
  44       14F-2        0.00000   0.00000   0.00013   0.00000   0.00000
  45       14F+3        0.00935   0.00004   0.00000  -0.00002   0.00004
  46       14F-3        0.00000   0.00000   0.02815   0.00000   0.00000
  47 2   S  1S          0.00005   0.02070   0.00000  -0.01271   0.01054
  48        2S         -0.00015  -0.05610   0.00000   0.02875  -0.05259
  49        3S          0.00036   0.21715   0.00000  -0.14137   0.09123
  50        4S          0.00001   0.00872   0.00000   0.02717   0.08158
  51        5S          0.00130   0.51805   0.00000  -0.52412  -0.38411
  52        6S          0.00054   0.15627   0.00000  -0.12899  -0.17827
  53        7PX         0.18326   0.00071   0.00000  -0.00073   0.00005
  54        7PY         0.00000   0.00000   0.10433   0.00000   0.00000
  55        7PZ        -0.00044   0.18223   0.00000  -0.09397   0.03037
  56        8PX        -0.48797  -0.00279   0.00000   0.00343   0.00031
  57        8PY         0.00000   0.00000  -0.29339   0.00000   0.00000
  58        8PZ         0.00134  -0.60380   0.00000   0.47521   0.02640
  59        9PX        -0.20100  -0.00063   0.00000   0.00067  -0.00004
  60        9PY         0.00000   0.00000  -0.14137   0.00000   0.00000
  61        9PZ         0.00058  -0.19840   0.00000   0.08847  -0.04460
  62       10PX        -0.12687  -0.00172   0.00000   0.00292   0.00073
  63       10PY         0.00000   0.00000   0.03877   0.00000   0.00000
  64       10PZ        -0.00007  -0.31831   0.00000   0.35180   0.19681
  65       11PX        -0.00355  -0.00005   0.00000   0.00012   0.00011
  66       11PY         0.00000   0.00000  -0.00208   0.00000   0.00000
  67       11PZ        -0.00006  -0.02196   0.00000   0.02371   0.02217
  68       12D 0        0.00062  -0.07393   0.00000   0.05093   0.11390
  69       12D+1       -0.05890   0.00013   0.00000   0.00079  -0.00084
  70       12D-1        0.00000   0.00000  -0.18689   0.00000   0.00000
  71       12D+2       -0.00048  -0.04545   0.00000   0.02522   0.40644
  72       12D-2        0.00000   0.00000  -0.00109   0.00000   0.00000
  73       13D 0        0.00084  -0.09823   0.00000   0.13907   0.10918
  74       13D+1       -0.07004  -0.00034   0.00000   0.00185  -0.00032
  75       13D-1        0.00000   0.00000  -0.15682   0.00000   0.00000
  76       13D+2       -0.00053  -0.03189   0.00000   0.01432   0.28891
  77       13D-2        0.00000   0.00000  -0.00108   0.00000   0.00000
  78       14D 0       -0.00009   0.03913   0.00000  -0.06996  -0.03285
  79       14D+1        0.01259   0.00039   0.00000  -0.00101  -0.00039
  80       14D-1        0.00000   0.00000  -0.03365   0.00000   0.00000
  81       14D+2        0.00008  -0.00865   0.00000   0.00353   0.02620
  82       14D-2        0.00000   0.00000  -0.00016   0.00000   0.00000
  83       15F 0       -0.00031   0.01810   0.00000  -0.02281  -0.02378
  84       15F+1        0.01921   0.00016   0.00000  -0.00047  -0.00018
  85       15F-1        0.00000   0.00000   0.03164   0.00000   0.00000
  86       15F+2        0.00022   0.00275   0.00000  -0.00279  -0.03410
  87       15F-2        0.00000   0.00000   0.00029   0.00000   0.00000
  88       15F+3       -0.00369   0.00002   0.00000  -0.00006  -0.00028
[...]
  98        2S         -0.16314  -0.02717  -0.20629  -0.00016  -0.42111
  99        3S          0.05435  -0.04705   0.05001   0.00030   0.05307
 100        4S          1.68787   0.58401   0.87084  -0.02480   3.26594
 101        5S          6.55708   0.62678   7.17414   0.08736  17.25307
 102        6PX        -0.00020   0.00019  -0.00042   0.01988  -0.00011
 103        6PY         0.00238   0.01169   0.00526   0.00019   0.01267
 104        6PZ        -0.02220   0.00622   0.00263  -0.00006   0.00533
 105        7PX         0.00093  -0.00082   0.00157  -0.07502   0.00049
 106        7PY         0.03917  -0.06987  -0.04521  -0.00162  -0.05150
 107        7PZ         0.15593  -0.04819  -0.02324   0.00003  -0.01531
 108        8PX        -0.00801   0.00599  -0.00071   0.07706  -0.00481
 109        8PY         0.68325   0.91915   0.33971  -0.01004   2.55707
 110        8PZ        -1.76898   1.19395   0.05549  -0.02918   0.80192
 111        9PX        -0.01551   0.00235   0.02929  -1.15562  -0.00262
 112        9PY        -0.06186  -1.68876   0.73942   0.00402   4.93061
 113        9PZ        -1.84029   0.20421   4.77536   0.07526   1.68156
 114       10D 0       -0.01828  -0.00686   0.00106   0.00012  -0.00277
 115       10D+1        0.00023  -0.00016   0.00011  -0.01468   0.00019
 116       10D-1       -0.00821  -0.00698   0.02650   0.00025   0.00012
 117       10D+2        0.04929   0.01882   0.00541   0.00009  -0.00322
 118       10D-2       -0.00009   0.00006   0.00022  -0.00446  -0.00003
 119       11D 0        0.05082   0.01717   0.00125  -0.00037   0.00773
 120       11D+1       -0.00062   0.00044  -0.00042   0.05486  -0.00052
 121       11D-1        0.03199   0.04694  -0.09252  -0.00135   0.03324
 122       11D+2       -0.18197  -0.06592  -0.01244   0.00002  -0.01928
 123       11D-2        0.00027  -0.00014  -0.00064   0.01696   0.00007
 124       12D 0       -0.81527   0.15790  -0.11323  -0.00476  -0.44684
 125       12D+1        0.00046  -0.00038   0.00206  -0.18166   0.00078
 126       12D-1       -0.34232   0.36805   0.12227  -0.00997   0.43317
 127       12D+2        0.35466  -0.11367  -0.01374  -0.00079  -0.50708
 128       12D-2       -0.00211   0.00132   0.00438  -0.09705  -0.00121
 129       13F 0        0.00765   0.01729   0.00432  -0.00014   0.00998
 130       13F+1       -0.00075   0.00037   0.00025  -0.00958  -0.00041
 131       13F-1        0.00018  -0.01692   0.02680   0.00056   0.00966
 132       13F+2        0.02944   0.01658  -0.02210  -0.00050   0.00325
 133       13F-2        0.00003  -0.00005  -0.00024   0.00888   0.00002
 134       13F+3        0.00021  -0.00016   0.00019  -0.00029   0.00009
 135       13F-3       -0.01923   0.01988   0.00866   0.00043  -0.00494
 136       14F 0       -0.04808  -0.04964  -0.00715   0.00075  -0.06526
 137       14F+1        0.00150  -0.00076  -0.00054   0.01509   0.00088
 138       14F-1       -0.05089   0.06080  -0.05365  -0.00178  -0.02644
 139       14F+2       -0.04637  -0.07193   0.03882   0.00145  -0.05465
 140       14F-2       -0.00009   0.00011   0.00049  -0.01020  -0.00002
 141       14F+3       -0.00032   0.00022  -0.00072   0.00023  -0.00011
 142       14F-3        0.05383  -0.05938  -0.02196  -0.00104  -0.02252
 143 4   F  1S          0.04047  -0.00333  -0.04753  -0.00006   0.08980
 144        2S          0.16314   0.02717  -0.20629  -0.00016   0.42111
 145        3S         -0.05435   0.04705   0.05001   0.00030  -0.05307
 146        4S         -1.68787  -0.58401   0.87084  -0.02480  -3.26594
 147        5S         -6.55708  -0.62678   7.17414   0.08736 -17.25307
 148        6PX         0.00020  -0.00019  -0.00042   0.01988   0.00011
 149        6PY         0.00238   0.01169  -0.00526  -0.00019   0.01267
 150        6PZ         0.02220  -0.00622   0.00263  -0.00006  -0.00533
 151        7PX        -0.00093   0.00082   0.00157  -0.07502  -0.00049
 152        7PY         0.03917  -0.06987   0.04521   0.00162  -0.05150
 153        7PZ        -0.15593   0.04819  -0.02324   0.00003   0.01531
 154        8PX         0.00801  -0.00599  -0.00071   0.07706   0.00481
 155        8PY         0.68325   0.91915  -0.33971   0.01004   2.55707
 156        8PZ         1.76898  -1.19395   0.05549  -0.02918  -0.80192
 157        9PX         0.01551  -0.00235   0.02929  -1.15562   0.00262
 158        9PY        -0.06186  -1.68876  -0.73942  -0.00402   4.93061
 159        9PZ         1.84029  -0.20421   4.77536   0.07526  -1.68156
 160       10D 0        0.01828   0.00686   0.00106   0.00012   0.00277
 161       10D+1       -0.00023   0.00016   0.00011  -0.01468  -0.00019
 162       10D-1       -0.00821  -0.00698  -0.02650  -0.00025   0.00012
 163       10D+2       -0.04929  -0.01882   0.00541   0.00009   0.00322
 164       10D-2       -0.00009   0.00006  -0.00022   0.00446  -0.00003
 165       11D 0       -0.05082  -0.01717   0.00125  -0.00037  -0.00773
 166       11D+1        0.00062  -0.00044  -0.00042   0.05486   0.00052
 167       11D-1        0.03199   0.04694   0.09252   0.00135   0.03324
 168       11D+2        0.18197   0.06592  -0.01244   0.00002   0.01928
 169       11D-2        0.00027  -0.00014   0.00064  -0.01696   0.00007
 170       12D 0        0.81527  -0.15790  -0.11323  -0.00476   0.44684
 171       12D+1       -0.00046   0.00038   0.00206  -0.18166  -0.00078
 172       12D-1       -0.34232   0.36805  -0.12227   0.00997   0.43317
 173       12D+2       -0.35466   0.11367  -0.01374  -0.00079   0.50708
 174       12D-2       -0.00211   0.00132  -0.00438   0.09705  -0.00121
 175       13F 0       -0.00765  -0.01729   0.00432  -0.00014  -0.00998
 176       13F+1        0.00075  -0.00037   0.00025  -0.00958   0.00041
 177       13F-1        0.00018  -0.01692  -0.02680  -0.00056   0.00966
 178       13F+2       -0.02944  -0.01658  -0.02210  -0.00050  -0.00325
 179       13F-2        0.00003  -0.00005   0.00024  -0.00888   0.00002
 180       13F+3       -0.00021   0.00016   0.00019  -0.00029  -0.00009
 181       13F-3       -0.01923   0.01988  -0.00866  -0.00043  -0.00494
 182       14F 0        0.04808   0.04964  -0.00715   0.00075   0.06526
 183       14F+1       -0.00150   0.00076  -0.00054   0.01509  -0.00088
 184       14F-1       -0.05089   0.06080   0.05365   0.00178  -0.02644
 185       14F+2        0.04637   0.07193   0.03882   0.00145   0.05465
 186       14F-2       -0.00009   0.00011  -0.00049   0.01020  -0.00002
 187       14F+3        0.00032  -0.00022  -0.00072   0.00023   0.00011
 188       14F-3        0.05383  -0.05938   0.02196   0.00104  -0.02252
                         186       187       188
     Eigenvalues --     0.00000   0.00000   0.00000
   1 1   C  1S         -0.07339  -0.06780   0.00549
   2        2S         -0.35545  -0.36909  -0.01492
   3        3S          0.23871   0.15751  -0.01419
   4        4S        -13.08082 -14.89733 -13.55643
   5        5S         -4.58990  -9.48768 -21.60183
   6        6PX         0.00007   0.00020  -0.00018
   7        6PY         0.00000   0.00000   0.00000
   8        6PZ        -0.01314   0.00207  -0.00976
   9        7PX         0.00085  -0.00315  -0.00051
  10        7PY         0.00000   0.00000   0.00000
  11        7PZ         0.74173   0.39669   0.27756
  12        8PX         0.01139  -0.04360  -0.05611
  13        8PY         0.00000   0.00000   0.00000
  14        8PZ         1.90320  -2.55083  -7.36846
  15        9PX         0.00958  -0.01315  -0.03247
  16        9PY         0.00000   0.00000   0.00000
  17        9PZ         3.82280  -3.31012  -4.20453
  18       10D 0        0.01839   0.01323   0.01200
  19       10D+1        0.00034   0.00025   0.00024
  20       10D-1        0.00000   0.00000   0.00000
  21       10D+2       -0.03295   0.01416   0.03525
  22       10D-2        0.00000   0.00000   0.00000
  23       11D 0        0.04477  -0.63290  -0.23425
  24       11D+1       -0.00340  -0.00759  -0.00303
  25       11D-1        0.00000   0.00000   0.00000
  26       11D+2        1.16006   0.57140   0.10571
  27       11D-2        0.00000   0.00000   0.00000
  28       12D 0       -0.94364  -1.55020  -1.53008
  29       12D+1        0.00728  -0.02648  -0.01803
  30       12D-1        0.00000   0.00000   0.00000
  31       12D+2        0.71714   0.86426   0.31102
  32       12D-2        0.00000   0.00000   0.00000
  33       13F 0       -0.05574  -0.02767  -0.00822
  34       13F+1       -0.00017  -0.00005  -0.00001
  35       13F-1        0.00000   0.00000   0.00000
  36       13F+2       -0.06533  -0.04254  -0.01377
  37       13F-2        0.00000   0.00000   0.00000
  38       13F+3       -0.00026  -0.00015  -0.00001
  39       13F-3        0.00000   0.00000   0.00000
  40       14F 0       -0.67929  -0.30940  -0.12802
  41       14F+1       -0.00175  -0.00523  -0.00256
  42       14F-1        0.00000   0.00000   0.00000
  43       14F+2       -0.40950  -0.08513   0.02839
  44       14F-2        0.00000   0.00000   0.00000
  45       14F+3       -0.00225   0.00062   0.00028
  46       14F-3        0.00000   0.00000   0.00000
  47 2   S  1S          0.00858  -0.00215  -0.00686
  48        2S          0.13154  -0.02202  -0.07991
  49        3S          0.37576  -0.09145  -0.28270
  50        4S         -0.03741  -0.10763  -0.09544
  51        5S          2.49154   7.58315   7.22844
  52        6S          0.37763   5.85986  23.36951
  53        7PX        -0.00024  -0.00036  -0.00003
  54        7PY         0.00000   0.00000   0.00000
  55        7PZ        -0.02628  -0.04835   0.00020
  56        8PX        -0.00589  -0.00769  -0.00098
  57        8PY         0.00000   0.00000   0.00000
  58        8PZ        -0.63133  -1.17554  -0.12386
  59        9PX         0.00046   0.00104  -0.00003
  60        9PY         0.00000   0.00000   0.00000
  61        9PZ         0.03884   0.12810  -0.02091
  62       10PX        -0.03057  -0.01462  -0.05555
  63       10PY         0.00000   0.00000   0.00000
  64       10PZ        -1.51746  -4.15943  -9.49187
  65       11PX        -0.00221   0.00196  -0.02890
  66       11PY         0.00000   0.00000   0.00000
  67       11PZ        -1.53559   1.59967  -4.97289
  68       12D 0        0.09533   1.04246   0.43740
  69       12D+1        0.00480   0.00986   0.00428
  70       12D-1        0.00000   0.00000   0.00000
  71       12D+2        0.09870  -0.05227  -0.01770
  72       12D-2        0.00000   0.00000   0.00000
  73       13D 0        0.05324  -0.08455  -0.02040
  74       13D+1        0.00060  -0.00081  -0.00020
  75       13D-1        0.00000   0.00000   0.00000
  76       13D+2       -0.01953   0.00668   0.00148
  77       13D-2        0.00000   0.00000   0.00000
  78       14D 0        0.72860  -0.38898   2.70550
  79       14D+1        0.01712  -0.00808   0.02749
  80       14D-1        0.00000   0.00000   0.00000
  81       14D+2       -0.28166   0.02843  -0.05408
  82       14D-2        0.00000   0.00000   0.00000
  83       15F 0       -0.01204  -0.06102   0.03560
  84       15F+1       -0.00031  -0.00129   0.00057
  85       15F-1        0.00000   0.00000   0.00000
  86       15F+2       -0.01894   0.01533   0.00156
  87       15F-2        0.00000   0.00000   0.00000
  88       15F+3       -0.00023  -0.00006  -0.00011
  89       15F-3        0.00000   0.00000   0.00000
  90       16F 0       -0.05831  -0.03899  -0.31190
  91       16F+1       -0.00348   0.00085  -0.00445
  92       16F-1        0.00000   0.00000   0.00000
  93       16F+2        0.04520  -0.00801   0.01932
  94       16F-2        0.00000   0.00000   0.00000
  95       16F+3        0.00056   0.00041   0.00052
  96       16F-3        0.00000   0.00000   0.00000
  97 3   F  1S         -0.02412  -0.03336   0.00301
  98        2S         -0.13923  -0.17372   0.00305
  99        3S         -0.01850   0.00068  -0.01556
 100        4S          2.48540   1.46943   0.13212
 101        5S          5.79040   5.77022   1.88499
 102        6PX         0.00006   0.00000   0.00000
 103        6PY         0.00136   0.01101   0.00239
 104        6PZ         0.01042   0.00305   0.00179
 105        7PX        -0.00017  -0.00002  -0.00010
 106        7PY         0.00685  -0.06200  -0.01802
 107        7PZ        -0.02986  -0.02998  -0.02388
 108        8PX        -0.00205   0.00068   0.00166
 109        8PY         1.39027   1.38925   0.40722
 110        8PZ         1.63387   1.02609   0.49106
 111        9PX        -0.00476  -0.00029   0.00003
 112        9PY         1.05357   0.68196  -0.03136
 113        9PZ        -0.90937   1.35998  -0.22076
 114       10D 0       -0.01958   0.00918  -0.00096
 115       10D+1       -0.00022   0.00016  -0.00003
 116       10D-1       -0.01243  -0.00389   0.00023
 117       10D+2        0.00114  -0.00217   0.00820
 118       10D-2        0.00004  -0.00006   0.00010
 119       11D 0        0.07414  -0.04023  -0.00309
 120       11D+1        0.00065  -0.00060   0.00004
 121       11D-1        0.08370   0.02663   0.00312
 122       11D+2       -0.01772  -0.00805  -0.02851
 123       11D-2       -0.00016   0.00017  -0.00033
 124       12D 0        0.01913   0.14017   0.03693
 125       12D+1       -0.00343   0.00132  -0.00004
 126       12D-1        0.41118   0.38432   0.23472
 127       12D+2       -0.06833  -0.25903  -0.06735
 128       12D-2       -0.00073  -0.00009   0.00136
 129       13F 0        0.00484   0.00702   0.00742
 130       13F+1        0.00010   0.00014   0.00005
 131       13F-1       -0.01594  -0.00239  -0.00663
 132       13F+2        0.00754   0.00406   0.01452
 133       13F-2        0.00024   0.00008   0.00002
 134       13F+3        0.00005   0.00010   0.00005
 135       13F-3       -0.02178  -0.00094   0.00739
 136       14F 0       -0.03058  -0.02750  -0.02968
 137       14F+1       -0.00037  -0.00026  -0.00018
 138       14F-1        0.07395   0.01692   0.01625
 139       14F+2       -0.04762  -0.04377  -0.04770
 140       14F-2       -0.00069  -0.00025  -0.00011
 141       14F+3       -0.00003  -0.00019  -0.00012
 142       14F-3        0.04654  -0.01760  -0.02326
 143 4   F  1S         -0.02412  -0.03336   0.00301
 144        2S         -0.13923  -0.17372   0.00305
 145        3S         -0.01850   0.00068  -0.01556
 146        4S          2.48540   1.46943   0.13212
 147        5S          5.79040   5.77022   1.88499
 148        6PX         0.00006   0.00000   0.00000
 149        6PY        -0.00136  -0.01101  -0.00239
 150        6PZ         0.01042   0.00305   0.00179
 151        7PX        -0.00017  -0.00002  -0.00010
 152        7PY        -0.00685   0.06200   0.01802
 153        7PZ        -0.02986  -0.02998  -0.02388
 154        8PX        -0.00205   0.00068   0.00166
 155        8PY        -1.39027  -1.38925  -0.40722
 156        8PZ         1.63387   1.02609   0.49106
 157        9PX        -0.00476  -0.00029   0.00003
 158        9PY        -1.05357  -0.68196   0.03136
 159        9PZ        -0.90937   1.35998  -0.22076
 160       10D 0       -0.01958   0.00918  -0.00096
 161       10D+1       -0.00022   0.00016  -0.00003
 162       10D-1        0.01243   0.00389  -0.00023
 163       10D+2        0.00114  -0.00217   0.00820
 164       10D-2       -0.00004   0.00006  -0.00010
 165       11D 0        0.07414  -0.04023  -0.00309
 166       11D+1        0.00065  -0.00060   0.00004
 167       11D-1       -0.08370  -0.02663  -0.00312
 168       11D+2       -0.01772  -0.00805  -0.02851
 169       11D-2        0.00016  -0.00017   0.00033
 170       12D 0        0.01913   0.14017   0.03693
 171       12D+1       -0.00343   0.00132  -0.00004
 172       12D-1       -0.41118  -0.38432  -0.23472
 173       12D+2       -0.06833  -0.25903  -0.06735
 174       12D-2        0.00073   0.00009  -0.00136
 175       13F 0        0.00484   0.00702   0.00742
 176       13F+1        0.00010   0.00014   0.00005
 177       13F-1        0.01594   0.00239   0.00663
 178       13F+2        0.00754   0.00406   0.01452
 179       13F-2       -0.00024  -0.00008  -0.00002
 180       13F+3        0.00005   0.00010   0.00005
 181       13F-3        0.02178   0.00094  -0.00739
 182       14F 0       -0.03058  -0.02750  -0.02968
 183       14F+1       -0.00037  -0.00026  -0.00018
 184       14F-1       -0.07395  -0.01692  -0.01625
 185       14F+2       -0.04762  -0.04377  -0.04770
 186       14F-2        0.00069   0.00025   0.00011
 187       14F+3       -0.00003  -0.00019  -0.00012
 188       14F-3       -0.04654   0.01760   0.02326
          Condensed to atoms (all electrons):
              1          2          3          4
     1  C    5.194496   0.242997   0.110524   0.110524
     2  S    0.242997  15.949581  -0.066543  -0.066543
     3  F    0.110524  -0.066543   9.178392  -0.081389
     4  F    0.110524  -0.066543  -0.081389   9.178392
 Mulliken atomic charges:
              1
     1  C    0.341459
     2  S   -0.059491
     3  F   -0.140984
     4  F   -0.140984
 Sum of Mulliken atomic charges =   0.00000
 Mulliken charges with hydrogens summed into heavy atoms:
              1
     1  C    0.341459
     2  S   -0.059491
     3  F   -0.140984
     4  F   -0.140984
 Sum of Mulliken charges with hydrogens summed into heavy atoms =   0.00000
 Electronic spatial extent (au):  <R**2>=            315.2060
 Charge=              0.0000 electrons
 Dipole moment (field-independent basis, Debye):
    X=             -0.0032    Y=              0.0000    Z=             -0.2244  Tot=              0.2244
 Quadrupole moment (field-independent basis, Debye-Ang):
   XX=            -27.2810   YY=            -30.1544   ZZ=            -27.9400
   XY=              0.0000   XZ=              0.0095   YZ=              0.0000
 Traceless Quadrupole moment (field-independent basis, Debye-Ang):
   XX=              1.1775   YY=             -1.6959   ZZ=              0.5185
   XY=              0.0000   XZ=              0.0095   YZ=              0.0000
 Octapole moment (field-independent basis, Debye-Ang**2):
  XXX=             -0.3788  YYY=              0.0000  ZZZ=              8.7837  XYY=             -0.1385
  XXY=              0.0000  XXZ=              0.7524  XZZ=             -0.0923  YZZ=              0.0000
  YYZ=              0.8020  XYZ=              0.0000
 Hexadecapole moment (field-independent basis, Debye-Ang**3):
 XXXX=            -28.1400 YYYY=            -96.1676 ZZZZ=           -215.0430 XXXY=              0.0000
 XXXZ=             -0.3874 YYYX=              0.0000 YYYZ=              0.0000 ZZZX=             -0.3423
 ZZZY=              0.0000 XXYY=            -20.7192 XXZZ=            -40.5198 YYZZ=            -55.6372
 XXYZ=              0.0000 YYXZ=             -0.1537 ZZXY=              0.0000
 N-N= 1.543918023286D+02 E-N=-1.820104024514D+03  KE= 6.349952608087D+02
 1\1\GINC-TRAPISTA\SP\RQCISD-FC\Aug-CC-pVTZ\C1F2S1\BRUNS\27-Nov-2021\0\
 \# qcisd/aug-cc-pvtz nosymm density=current output=wfn\\f2cs-wavefunct
 ion\\0,1\C,0,0.,0.,-0.520349\S,0,0.01,0.,1.078525\F,0,0.,-1.055221,-1.
 295538\F,0,0.,1.055221,-1.295538\\Version=EM64L-G09RevB.01\HF=-634.356
 8662\MP2=-635.1964021\MP3=-635.1997876\MP4D=-635.2167134\MP4DQ=-635.19
 73603\MP4SDQ=-635.2082181\QCISD=-635.2073208\RMSD=7.682e-09\Dipole=-0.
 0012609,0.,-0.0882897\Quadrupole=0.8754216,-1.2608928,0.3854712,0.,0.0
 070349,0.\PG=CS [SG(C1S1),X(F2)]\\@

 Writing a WFN file to GAUSSIAN.wfn.


 THERE IS AN OLD, OLD RECIPE IN MAINE FOR STEWING COOT. PLACE THE
 BIRD IN A KETTLE OF WATER WITH A RED BUILDING BRICK FREE OF MORTAR AND
 BLEMISHES. PARBOIL THE COOT AND BRICK TOGETHER FOR THREE HOURS.
 POUR OFF THE WATER, REFILL THE KETTLE, AND AGAIN PARBOIL FOR THREE HOURS.
 ONCE AGAIN POUR OFF THE WATER, FOR THE LAST TIME ADD FRESH WATER,
 AND LET THE COOT AND BRICK SIMMER TOGETHER OVERNIGHT. IN THE MORNING,
 THROW AWAY THE COOT AND EAT THE BRICK.
 Job cpu time:  0 days  2 hours  4 minutes  2.5 seconds.
 File lengths (MBytes):  RWF=  17813 Int=      0 D2E=      0 Chk=      3 Scr=      1
 Normal termination of Gaussian 09 at Sat Nov 27 04:16:44 2021.
