 f2cs-wavefunction
GAUSSIAN            188 MOL ORBITALS    330 PRIMITIVES        4 NUCLEI
  C    1    (CENTRE  1)  -0.01889726  0.00000000 -0.98331710  CHARGE =  6.0
  S    2    (CENTRE  2)   0.00000000  0.00000000  2.03811688  CHARGE = 16.0
  F    3    (CENTRE  3)   0.00000000 -1.99407870 -2.44821201  CHARGE =  9.0
  F    4    (CENTRE  4)   0.00000000  1.99407870 -2.44821201  CHARGE =  9.0
CENTRE ASSIGNMENTS    1  1  1  1  1  1  1  1  1  1  1  1  1  1  1  1  1  1  1  1
CENTRE ASSIGNMENTS    1  1  1  1  1  1  1  1  1  1  1  1  1  1  1  1  1  1  1  1
CENTRE ASSIGNMENTS    1  1  1  1  1  1  1  1  1  1  1  1  1  1  1  1  1  1  1  1
CENTRE ASSIGNMENTS    1  1  1  1  1  1  1  1  1  1  1  1  2  2  2  2  2  2  2  2
CENTRE ASSIGNMENTS    2  2  2  2  2  2  2  2  2  2  2  2  2  2  2  2  2  2  2  2
CENTRE ASSIGNMENTS    2  2  2  2  2  2  2  2  2  2  2  2  2  2  2  2  2  2  2  2
CENTRE ASSIGNMENTS    2  2  2  2  2  2  2  2  2  2  2  2  2  2  2  2  2  2  2  2
CENTRE ASSIGNMENTS    2  2  2  2  2  2  2  2  2  2  2  2  2  2  2  2  2  2  2  2
CENTRE ASSIGNMENTS    2  2  2  2  2  2  2  2  2  2  2  2  2  2  2  2  2  2  2  2
CENTRE ASSIGNMENTS    2  2  2  2  2  2  3  3  3  3  3  3  3  3  3  3  3  3  3  3
CENTRE ASSIGNMENTS    3  3  3  3  3  3  3  3  3  3  3  3  3  3  3  3  3  3  3  3
CENTRE ASSIGNMENTS    3  3  3  3  3  3  3  3  3  3  3  3  3  3  3  3  3  3  3  3
CENTRE ASSIGNMENTS    3  3  3  3  3  3  3  3  3  3  3  3  3  3  3  3  3  3  4  4
CENTRE ASSIGNMENTS    4  4  4  4  4  4  4  4  4  4  4  4  4  4  4  4  4  4  4  4
CENTRE ASSIGNMENTS    4  4  4  4  4  4  4  4  4  4  4  4  4  4  4  4  4  4  4  4
CENTRE ASSIGNMENTS    4  4  4  4  4  4  4  4  4  4  4  4  4  4  4  4  4  4  4  4
CENTRE ASSIGNMENTS    4  4  4  4  4  4  4  4  4  4
TYPE ASSIGNMENTS      1  1  1  1  1  1  1  1  1  1  1  1  1  1  1  1  2  2  2  3
TYPE ASSIGNMENTS      3  3  4  4  4  2  3  4  2  3  4  2  3  4  5  6  7  8  9 10
TYPE ASSIGNMENTS      5  6  7  8  9 10  5  6  7  8  9 10 11 12 13 17 14 15 18 19
TYPE ASSIGNMENTS     16 20 11 12 13 17 14 15 18 19 16 20  1  1  1  1  1  1  1  1
TYPE ASSIGNMENTS      1  1  1  1  1  1  1  1  1  1  1  1  1  1  1  1  1  1  1  1
TYPE ASSIGNMENTS      1  1  1  2  2  2  2  2  2  3  3  3  3  3  3  4  4  4  4  4
TYPE ASSIGNMENTS      4  2  2  2  2  2  2  3  3  3  3  3  3  4  4  4  4  4  4  2
TYPE ASSIGNMENTS      3  4  2  3  4  2  3  4  5  6  7  8  9 10  5  6  7  8  9 10
TYPE ASSIGNMENTS      5  6  7  8  9 10 11 12 13 17 14 15 18 19 16 20 11 12 13 17
TYPE ASSIGNMENTS     14 15 18 19 16 20  1  1  1  1  1  1  1  1  1  1  1  1  1  1
TYPE ASSIGNMENTS      1  1  2  2  2  3  3  3  4  4  4  2  3  4  2  3  4  2  3  4
TYPE ASSIGNMENTS      5  6  7  8  9 10  5  6  7  8  9 10  5  6  7  8  9 10 11 12
TYPE ASSIGNMENTS     13 17 14 15 18 19 16 20 11 12 13 17 14 15 18 19 16 20  1  1
TYPE ASSIGNMENTS      1  1  1  1  1  1  1  1  1  1  1  1  1  1  2  2  2  3  3  3
TYPE ASSIGNMENTS      4  4  4  2  3  4  2  3  4  2  3  4  5  6  7  8  9 10  5  6
TYPE ASSIGNMENTS      7  8  9 10  5  6  7  8  9 10 11 12 13 17 14 15 18 19 16 20
TYPE ASSIGNMENTS     11 12 13 17 14 15 18 19 16 20
EXPONENTS  0.8236000D+04 0.1235000D+04 0.2808000D+03 0.7927000D+02 0.2559000D+02
EXPONENTS  0.8997000D+01 0.3319000D+01 0.2808000D+03 0.7927000D+02 0.2559000D+02
EXPONENTS  0.8997000D+01 0.3319000D+01 0.3643000D+00 0.9059000D+00 0.1285000D+00
EXPONENTS  0.4402000D-01 0.1871000D+02 0.4133000D+01 0.1200000D+01 0.1871000D+02
EXPONENTS  0.4133000D+01 0.1200000D+01 0.1871000D+02 0.4133000D+01 0.1200000D+01
EXPONENTS  0.3827000D+00 0.3827000D+00 0.3827000D+00 0.1209000D+00 0.1209000D+00
EXPONENTS  0.1209000D+00 0.3569000D-01 0.3569000D-01 0.3569000D-01 0.1097000D+01
EXPONENTS  0.1097000D+01 0.1097000D+01 0.1097000D+01 0.1097000D+01 0.1097000D+01
EXPONENTS  0.3180000D+00 0.3180000D+00 0.3180000D+00 0.3180000D+00 0.3180000D+00
EXPONENTS  0.3180000D+00 0.1000000D+00 0.1000000D+00 0.1000000D+00 0.1000000D+00
EXPONENTS  0.1000000D+00 0.1000000D+00 0.7610000D+00 0.7610000D+00 0.7610000D+00
EXPONENTS  0.7610000D+00 0.7610000D+00 0.7610000D+00 0.7610000D+00 0.7610000D+00
EXPONENTS  0.7610000D+00 0.7610000D+00 0.2680000D+00 0.2680000D+00 0.2680000D+00
EXPONENTS  0.2680000D+00 0.2680000D+00 0.2680000D+00 0.2680000D+00 0.2680000D+00
EXPONENTS  0.2680000D+00 0.2680000D+00 0.3741000D+06 0.5605000D+05 0.1276000D+05
EXPONENTS  0.3615000D+04 0.1183000D+04 0.4288000D+03 0.1678000D+03 0.6947000D+02
EXPONENTS  0.2984000D+02 0.1272000D+02 0.5244000D+01 0.3615000D+04 0.1183000D+04
EXPONENTS  0.4288000D+03 0.1678000D+03 0.6947000D+02 0.2984000D+02 0.1272000D+02
EXPONENTS  0.5244000D+01 0.2219000D+01 0.1183000D+04 0.1678000D+03 0.6947000D+02
EXPONENTS  0.2984000D+02 0.1272000D+02 0.5244000D+01 0.2219000D+01 0.3490000D+00
EXPONENTS  0.7767000D+00 0.1322000D+00 0.4970000D-01 0.5744000D+03 0.1358000D+03
EXPONENTS  0.4319000D+02 0.1587000D+02 0.6208000D+01 0.2483000D+01 0.5744000D+03
EXPONENTS  0.1358000D+03 0.4319000D+02 0.1587000D+02 0.6208000D+01 0.2483000D+01
EXPONENTS  0.5744000D+03 0.1358000D+03 0.4319000D+02 0.1587000D+02 0.6208000D+01
EXPONENTS  0.2483000D+01 0.1358000D+03 0.4319000D+02 0.1587000D+02 0.6208000D+01
EXPONENTS  0.2483000D+01 0.3229000D+00 0.1358000D+03 0.4319000D+02 0.1587000D+02
EXPONENTS  0.6208000D+01 0.2483000D+01 0.3229000D+00 0.1358000D+03 0.4319000D+02
EXPONENTS  0.1587000D+02 0.6208000D+01 0.2483000D+01 0.3229000D+00 0.8688000D+00
EXPONENTS  0.8688000D+00 0.8688000D+00 0.1098000D+00 0.1098000D+00 0.1098000D+00
EXPONENTS  0.3510000D-01 0.3510000D-01 0.3510000D-01 0.2690000D+00 0.2690000D+00
EXPONENTS  0.2690000D+00 0.2690000D+00 0.2690000D+00 0.2690000D+00 0.8190000D+00
EXPONENTS  0.8190000D+00 0.8190000D+00 0.8190000D+00 0.8190000D+00 0.8190000D+00
EXPONENTS  0.1010000D+00 0.1010000D+00 0.1010000D+00 0.1010000D+00 0.1010000D+00
EXPONENTS  0.1010000D+00 0.5570000D+00 0.5570000D+00 0.5570000D+00 0.5570000D+00
EXPONENTS  0.5570000D+00 0.5570000D+00 0.5570000D+00 0.5570000D+00 0.5570000D+00
EXPONENTS  0.5570000D+00 0.2180000D+00 0.2180000D+00 0.2180000D+00 0.2180000D+00
EXPONENTS  0.2180000D+00 0.2180000D+00 0.2180000D+00 0.2180000D+00 0.2180000D+00
EXPONENTS  0.2180000D+00 0.1950000D+05 0.2923000D+04 0.6645000D+03 0.1875000D+03
EXPONENTS  0.6062000D+02 0.2142000D+02 0.7950000D+01 0.6645000D+03 0.1875000D+03
EXPONENTS  0.6062000D+02 0.2142000D+02 0.7950000D+01 0.8815000D+00 0.2257000D+01
EXPONENTS  0.3041000D+00 0.9158000D-01 0.4388000D+02 0.9926000D+01 0.2930000D+01
EXPONENTS  0.4388000D+02 0.9926000D+01 0.2930000D+01 0.4388000D+02 0.9926000D+01
EXPONENTS  0.2930000D+01 0.9132000D+00 0.9132000D+00 0.9132000D+00 0.2672000D+00
EXPONENTS  0.2672000D+00 0.2672000D+00 0.7361000D-01 0.7361000D-01 0.7361000D-01
EXPONENTS  0.3107000D+01 0.3107000D+01 0.3107000D+01 0.3107000D+01 0.3107000D+01
EXPONENTS  0.3107000D+01 0.8550000D+00 0.8550000D+00 0.8550000D+00 0.8550000D+00
EXPONENTS  0.8550000D+00 0.8550000D+00 0.2920000D+00 0.2920000D+00 0.2920000D+00
EXPONENTS  0.2920000D+00 0.2920000D+00 0.2920000D+00 0.1917000D+01 0.1917000D+01
EXPONENTS  0.1917000D+01 0.1917000D+01 0.1917000D+01 0.1917000D+01 0.1917000D+01
EXPONENTS  0.1917000D+01 0.1917000D+01 0.1917000D+01 0.7240000D+00 0.7240000D+00
EXPONENTS  0.7240000D+00 0.7240000D+00 0.7240000D+00 0.7240000D+00 0.7240000D+00
EXPONENTS  0.7240000D+00 0.7240000D+00 0.7240000D+00 0.1950000D+05 0.2923000D+04
EXPONENTS  0.6645000D+03 0.1875000D+03 0.6062000D+02 0.2142000D+02 0.7950000D+01
EXPONENTS  0.6645000D+03 0.1875000D+03 0.6062000D+02 0.2142000D+02 0.7950000D+01
EXPONENTS  0.8815000D+00 0.2257000D+01 0.3041000D+00 0.9158000D-01 0.4388000D+02
EXPONENTS  0.9926000D+01 0.2930000D+01 0.4388000D+02 0.9926000D+01 0.2930000D+01
EXPONENTS  0.4388000D+02 0.9926000D+01 0.2930000D+01 0.9132000D+00 0.9132000D+00
EXPONENTS  0.9132000D+00 0.2672000D+00 0.2672000D+00 0.2672000D+00 0.7361000D-01
EXPONENTS  0.7361000D-01 0.7361000D-01 0.3107000D+01 0.3107000D+01 0.3107000D+01
EXPONENTS  0.3107000D+01 0.3107000D+01 0.3107000D+01 0.8550000D+00 0.8550000D+00
EXPONENTS  0.8550000D+00 0.8550000D+00 0.8550000D+00 0.8550000D+00 0.2920000D+00
EXPONENTS  0.2920000D+00 0.2920000D+00 0.2920000D+00 0.2920000D+00 0.2920000D+00
EXPONENTS  0.1917000D+01 0.1917000D+01 0.1917000D+01 0.1917000D+01 0.1917000D+01
EXPONENTS  0.1917000D+01 0.1917000D+01 0.1917000D+01 0.1917000D+01 0.1917000D+01
EXPONENTS  0.7240000D+00 0.7240000D+00 0.7240000D+00 0.7240000D+00 0.7240000D+00
EXPONENTS  0.7240000D+00 0.7240000D+00 0.7240000D+00 0.7240000D+00 0.7240000D+00
MO    1     MO 0.0        OCC NO =    2.0000305  ORB. ENERGY =    0.000000
  0.13690640D-10  0.25522112D-10  0.43135846D-10  0.64841222D-10  0.79645828D-10
  0.67218269D-10  0.25275824D-10  0.79558119D-15  0.59464765D-14  0.22223340D-13
  0.61999659D-13  0.83062450D-13 -0.98081266D-13  0.11704215D-11 -0.22193889D-12
  0.14261981D-13 -0.15292846D-12 -0.14338015D-12 -0.10209521D-12 -0.30466363D-02
 -0.28564152D-02 -0.20339378D-02  0.13025816D-12  0.12212530D-12  0.86960489D-13
 -0.37849449D-13 -0.15629123D-02  0.54568727D-14 -0.12740261D-13  0.61038929D-03
 -0.20101890D-12 -0.33219463D-16 -0.13534934D-04  0.44801780D-14 -0.23824088D-13
  0.34245606D-13 -0.10421518D-13 -0.67161882D-05 -0.41660865D-13 -0.10199555D-02
  0.37600407D-13  0.10578051D-13 -0.48178458D-13 -0.31487585D-05  0.19588200D-13
  0.39739780D-03  0.30784386D-14  0.16294967D-13 -0.19373405D-13  0.15770539D-05
 -0.27029898D-14 -0.22563121D-03  0.29079106D-14  0.24069326D-03  0.29570409D-13
  0.25758156D-14  0.35904893D-03 -0.47963009D-13 -0.11299547D-13 -0.10811287D-02
 -0.40748218D-13  0.27267350D-05 -0.44814085D-15 -0.13702912D-03  0.46771003D-14
 -0.52458652D-14 -0.12875144D-03  0.31719392D-15  0.65902878D-14  0.53983880D-03
 -0.14348495D-13  0.44669534D-05 -0.24419874D-10 -0.45655413D-10 -0.78906125D-10
 -0.12762740D-09 -0.19290455D-09 -0.26566951D-09 -0.31053530D-09 -0.26838560D-09
 -0.12525696D-09 -0.16969570D-10  0.12411788D-12 -0.49013673D-12 -0.63006584D-11
 -0.22983896D-10 -0.77547096D-10 -0.17032822D-09 -0.22001760D-09  0.35358700D-10
  0.29661747D-09  0.16277984D-09 -0.40429453D-14 -0.46051660D-13 -0.95619848D-13
 -0.26293030D-12  0.34091933D-13  0.11888511D-11  0.29651834D-11 -0.24545358D-11
  0.91015803D-11  0.24643778D-12 -0.21925096D-13  0.39361820D-09  0.51640469D-09
  0.56638418D-09  0.46600384D-09  0.24565073D-09  0.63913699D-10  0.97653950D+01
  0.12811643D+02  0.14051600D+02  0.11561233D+02  0.60944246D+01  0.15856546D+01
  0.17408815D-08  0.22839375D-08  0.25049851D-08  0.20610263D-08  0.10864559D-08
  0.28267539D-09  0.23955170D-14  0.85988595D-13  0.13642306D-12  0.16199820D-12
  0.24514598D-13 -0.17841265D-12  0.94735192D-04  0.34005795D-02  0.53951046D-02
  0.64065212D-02  0.96947553D-03 -0.70556612D-02  0.14031091D-13  0.50365488D-12
  0.79906109D-12  0.94886053D-12  0.14358761D-12 -0.10450037D-11  0.29746685D-11
  0.67602784D-01  0.12860629D-10  0.52845020D-14 -0.37991318D-03 -0.15562411D-12
 -0.56730180D-15 -0.71215995D-05 -0.72904653D-15 -0.48920356D-13 -0.25808817D-13
  0.74729173D-13  0.81292680D-05  0.22908494D-13  0.96150139D-03  0.74892910D-13
 -0.76691031D-13  0.17981215D-14 -0.77492120D-05 -0.44774947D-14 -0.55565106D-03
 -0.19413085D-14 -0.60904210D-14  0.80317295D-14 -0.11504670D-05 -0.23268352D-14
 -0.41925809D-04  0.42516915D-14  0.34986573D-04  0.18734379D-14 -0.14191903D-14
  0.10981845D-03  0.18335351D-13 -0.11335884D-13 -0.21477817D-03 -0.23955665D-13
 -0.84975313D-05 -0.11951324D-16  0.34763128D-04 -0.49592327D-14  0.11610903D-14
  0.16375861D-04  0.46988216D-14 -0.11252363D-14 -0.12066525D-03  0.10178877D-13
 -0.11736750D-05  0.50719665D-02  0.94541542D-02  0.16026898D-01  0.24266891D-01
  0.30338958D-01  0.26096944D-01  0.10008740D-01 -0.65353320D-06 -0.86515559D-05
 -0.31424025D-04 -0.93218778D-04 -0.10741581D-03  0.13047251D-03  0.58771264D-03
  0.86910669D-04  0.85266641D-03  0.39306962D-04  0.38441350D-04  0.25399825D-04
 -0.13025524D-02 -0.12738678D-02 -0.84169829D-03 -0.39047411D-02 -0.38187515D-02
 -0.25232106D-02  0.14542710D-04 -0.38876694D-03 -0.10831643D-02 -0.36636069D-05
 -0.14844893D-03 -0.74695253D-03 -0.41834151D-06  0.92137197D-04  0.11401632D-04
  0.24128123D-04  0.27411238D-04 -0.51539361D-04 -0.65262163D-05  0.80201481D-06
  0.26300778D-03 -0.54424659D-04 -0.13266688D-03  0.18709154D-03  0.49551239D-05
 -0.82161919D-06 -0.14898308D-03  0.11017546D-03 -0.21572673D-04 -0.88602791D-04
 -0.24548137D-05  0.48257526D-05 -0.27891194D-03  0.16451465D-05 -0.27138985D-04
 -0.54693336D-04  0.56786462D-05 -0.33131104D-03  0.20265929D-04 -0.10614086D-04
  0.41272799D-03  0.14381408D-03 -0.74981310D-05 -0.15219705D-05 -0.63284237D-04
  0.95246009D-04  0.16416895D-05  0.19961556D-03 -0.42184040D-04  0.29242221D-05
 -0.97628465D-05 -0.24355399D-03  0.65297219D-05 -0.50719665D-02 -0.94541543D-02
 -0.16026898D-01 -0.24266891D-01 -0.30338958D-01 -0.26096945D-01 -0.10008740D-01
  0.65353320D-06  0.86515558D-05  0.31424025D-04  0.93218778D-04  0.10741581D-03
 -0.13047250D-03 -0.58771264D-03 -0.86910669D-04 -0.85266641D-03 -0.39306961D-04
 -0.38441350D-04 -0.25399825D-04 -0.13025524D-02 -0.12738678D-02 -0.84169829D-03
  0.39047411D-02  0.38187515D-02  0.25232106D-02 -0.14542710D-04 -0.38876694D-03
  0.10831643D-02  0.36636069D-05 -0.14844893D-03  0.74695253D-03  0.41834151D-06
  0.92137197D-04 -0.11401632D-04 -0.24128123D-04 -0.27411238D-04  0.51539361D-04
 -0.65262163D-05 -0.80201483D-06  0.26300778D-03  0.54424659D-04  0.13266688D-03
 -0.18709154D-03  0.49551239D-05  0.82161918D-06 -0.14898308D-03 -0.11017546D-03
  0.21572673D-04  0.88602791D-04 -0.24548137D-05 -0.48257526D-05 -0.27891194D-03
 -0.16451465D-05 -0.27138985D-04  0.54693336D-04 -0.56786462D-05 -0.33131104D-03
 -0.20265929D-04  0.10614086D-04  0.41272799D-03 -0.14381408D-03 -0.74981309D-05
  0.15219705D-05 -0.63284237D-04 -0.95246009D-04 -0.16416895D-05  0.19961556D-03
  0.42184040D-04 -0.29242221D-05 -0.97628465D-05  0.24355399D-03  0.65297219D-05
MO    2     MO 0.0        OCC NO =    2.0000247  ORB. ENERGY =    0.000000
 -0.59329186D-01 -0.11060156D+00 -0.18693170D+00 -0.28099321D+00 -0.34514982D+00
 -0.29129428D+00 -0.10953425D+00 -0.94601176D-05 -0.70708518D-04 -0.26425388D-03
 -0.73722717D-03 -0.98768116D-03  0.11662673D-02 -0.44991331D-02 -0.13848451D-02
 -0.56636456D-04  0.39697049D-04  0.37218507D-04  0.26501794D-04  0.80854974D-12
  0.75806677D-12  0.53978870D-12  0.29467931D-02  0.27628059D-02  0.19672824D-02
  0.12509311D-05  0.40591582D-12 -0.41996304D-03 -0.12788970D-05 -0.22059632D-12
 -0.93786473D-03  0.11635812D-07  0.43269302D-14  0.78111354D-05  0.25964346D-03
 -0.10451352D-03 -0.15512994D-03 -0.80039528D-15  0.10229706D-04  0.27438050D-12
  0.10323888D-03  0.15459343D-03 -0.25783231D-03 -0.47424396D-14 -0.61102281D-05
 -0.92910451D-13  0.17123737D-04  0.61846826D-04 -0.78970563D-04 -0.82000510D-15
 -0.69558587D-06  0.85105453D-13 -0.29717500D-06 -0.66058839D-13 -0.36058987D-04
 -0.23377124D-05 -0.10689223D-12 -0.10102403D-03  0.32292374D-05  0.30506874D-12
  0.20920099D-03 -0.13474773D-14  0.30256769D-06  0.38486822D-13  0.46873077D-04
 -0.23685648D-05  0.41313550D-13  0.26110454D-04  0.14608617D-05 -0.15677402D-12
 -0.16672969D-03  0.22890483D-14 -0.12695097D+00 -0.23734762D+00 -0.41020724D+00
 -0.66349330D+00 -0.10028479D+01 -0.13811292D+01 -0.16143719D+01 -0.13952493D+01
 -0.65117013D+00 -0.88219264D-01  0.64524841D-03 -0.15826944D-02 -0.20345377D-01
 -0.74217012D-01 -0.25040636D+00 -0.55000473D+00 -0.71045609D+00  0.11417634D+00
  0.95780376D+00  0.52563035D+00 -0.13253641D-04 -0.15096721D-03 -0.31346234D-03
 -0.86194184D-03  0.11176066D-03  0.38973085D-02  0.97205062D-02 -0.80464943D-02
  0.29240878D-01  0.15624283D-02  0.75198399D-04 -0.23454708D-01 -0.30771243D-01
 -0.33749394D-01 -0.27767984D-01 -0.14637703D-01 -0.38084549D-02 -0.27182246D-08
 -0.35661561D-08 -0.39113015D-08 -0.32181010D-08 -0.16963999D-08 -0.44137134D-09
  0.62357787D+01  0.81809871D+01  0.89727723D+01  0.73825267D+01  0.38916483D+01
  0.10125337D+01 -0.11470542D-06 -0.41174236D-05 -0.65323958D-05 -0.77570196D-05
 -0.11738415D-05  0.85429986D-05 -0.26636578D-13 -0.95613678D-12 -0.15169350D-11
 -0.18013137D-11 -0.27258625D-12  0.19838316D-11  0.57865165D-04  0.20771066D-02
  0.32953817D-02  0.39131647D-02  0.59216496D-03 -0.43096656D-02 -0.14579554D-03
 -0.18857628D-10  0.46093175D-01 -0.38150409D-05  0.77420705D-13 -0.79372414D-03
  0.20307464D-06  0.11127199D-14 -0.63627688D-05 -0.25908513D-03 -0.14597949D-03
  0.40506462D-03 -0.33961828D-14  0.61125444D-05 -0.27501194D-12  0.15174134D-03
 -0.37154962D-03  0.21980828D-03  0.25339428D-14  0.62392443D-05  0.16347879D-12
 -0.14734853D-04 -0.27372284D-04  0.42107137D-04  0.46675986D-15  0.98681812D-06
  0.18202543D-13  0.65887660D-06 -0.10375106D-13 -0.88643683D-04  0.12480065D-08
 -0.32193372D-13  0.21767563D-03 -0.19778778D-05  0.63318689D-13  0.48255422D-04
  0.32727095D-14  0.23840432D-06 -0.94646822D-14 -0.22223119D-04  0.30144563D-06
 -0.46252162D-14  0.32029369D-04 -0.10166586D-05  0.33019263D-13  0.34639987D-04
  0.64490647D-15  0.66392903D-02  0.12375648D-01  0.20979481D-01  0.31765772D-01
  0.39714211D-01  0.34161344D-01  0.13101610D-01  0.15494488D-05  0.20511800D-04
  0.74502591D-04  0.22101053D-03  0.25467000D-03 -0.30933465D-03  0.52108243D-03
 -0.38774023D-03 -0.25375657D-03 -0.42506496D-04 -0.41570424D-04 -0.27467337D-04
  0.13372650D-03  0.13078160D-03  0.86412933D-04 -0.92746776D-03 -0.90704322D-03
 -0.59932180D-03 -0.86457052D-05 -0.84416411D-04 -0.38196325D-03  0.15552222D-05
  0.51464388D-05 -0.81932433D-04  0.28186257D-07 -0.48223909D-05 -0.60027331D-04
  0.36490931D-04 -0.10488967D-03  0.68398736D-04  0.17348445D-05  0.23121528D-05
 -0.26605512D-04 -0.22398244D-04  0.96956244D-05  0.12702619D-04  0.22393086D-05
 -0.16499284D-06  0.92820783D-04 -0.46026564D-04  0.10412066D-04  0.35614498D-04
 -0.21064498D-05  0.33938444D-05 -0.22218861D-04 -0.42189231D-05 -0.79029631D-04
 -0.10795789D-03  0.20008689D-04  0.11132190D-03  0.21356714D-04 -0.73519194D-05
  0.12576700D-03  0.30251696D-03 -0.16393467D-04  0.18301268D-05  0.16030295D-04
  0.44381318D-04 -0.85227302D-05 -0.97720226D-04 -0.76473341D-04  0.30323497D-05
  0.49629342D-04 -0.56670614D-04  0.46567532D-05  0.66392903D-02  0.12375649D-01
  0.20979481D-01  0.31765772D-01  0.39714212D-01  0.34161344D-01  0.13101611D-01
  0.15494488D-05  0.20511800D-04  0.74502591D-04  0.22101053D-03  0.25467000D-03
 -0.30933465D-03  0.52108243D-03 -0.38774023D-03 -0.25375657D-03 -0.42506496D-04
 -0.41570425D-04 -0.27467337D-04 -0.13372650D-03 -0.13078160D-03 -0.86412933D-04
 -0.92746777D-03 -0.90704322D-03 -0.59932181D-03 -0.86457053D-05  0.84416412D-04
 -0.38196325D-03  0.15552222D-05 -0.51464388D-05 -0.81932434D-04  0.28186257D-07
  0.48223908D-05 -0.60027331D-04  0.36490931D-04 -0.10488967D-03  0.68398736D-04
 -0.17348446D-05  0.23121528D-05  0.26605512D-04 -0.22398244D-04  0.96956243D-05
  0.12702619D-04 -0.22393085D-05 -0.16499285D-06 -0.92820783D-04 -0.46026564D-04
  0.10412066D-04  0.35614498D-04  0.21064498D-05  0.33938444D-05  0.22218861D-04
 -0.42189231D-05  0.79029631D-04 -0.10795789D-03  0.20008689D-04 -0.11132190D-03
  0.21356714D-04 -0.73519194D-05 -0.12576700D-03  0.30251696D-03  0.16393467D-04
  0.18301268D-05 -0.16030295D-04  0.44381318D-04 -0.85227302D-05  0.97720226D-04
 -0.76473341D-04  0.30323497D-05 -0.49629342D-04 -0.56670614D-04 -0.46567532D-05
MO    3     MO 0.0        OCC NO =    2.0000101  ORB. ENERGY =    0.000000
  0.19773900D+00  0.36862534D+00  0.62302704D+00  0.93652585D+00  0.11503543D+01
  0.97085842D+00  0.36506812D+00  0.26815273D-04  0.20042755D-03  0.74904352D-03
  0.20897148D-02  0.27996417D-02 -0.33058548D-02  0.15774870D-01  0.34728857D-03
  0.13277070D-03 -0.32491434D-03 -0.30462784D-03 -0.21691317D-03  0.20857257D-12
  0.19555004D-12  0.13924328D-12 -0.73149994D-02 -0.68582769D-02 -0.48835017D-02
 -0.57879521D-04  0.55846990D-13  0.59472000D-03 -0.87604412D-05 -0.92007368D-14
  0.53099098D-03  0.11663009D-06 -0.20362755D-14  0.65009218D-05 -0.67873767D-03
  0.55069243D-03  0.12804524D-03  0.75284274D-14 -0.91919864D-04  0.25554349D-12
  0.20586469D-03 -0.24437708D-03  0.38512394D-04 -0.90396504D-14  0.38629736D-04
  0.30353691D-13 -0.91827044D-05 -0.38063313D-04  0.47246017D-04 -0.70350754D-15
 -0.18478891D-05 -0.19714758D-13  0.69087036D-05 -0.33744481D-13 -0.75858040D-05
  0.10761781D-04  0.77804553D-13  0.25867363D-03 -0.31487891D-04  0.23428889D-13
 -0.23591621D-03  0.82158929D-14 -0.25816135D-05  0.25313045D-13 -0.14778831D-03
 -0.26059887D-05  0.14193970D-13  0.83341368D-06  0.10350829D-04 -0.90133105D-13
  0.44253151D-03  0.53534716D-14 -0.99132594D-01 -0.18533837D+00 -0.32031979D+00
 -0.51810406D+00 -0.78309695D+00 -0.10784866D+01 -0.12606195D+01 -0.10895126D+01
 -0.50848123D+00 -0.68888049D-01  0.50385711D-03 -0.12495753D-02 -0.16063165D-01
 -0.58596115D-01 -0.19770184D+00 -0.43424195D+00 -0.56092216D+00  0.90144963D-01
  0.75620909D+00  0.41499780D+00 -0.54933849D-05 -0.62573069D-04 -0.12992425D-03
 -0.35725869D-03  0.46322691D-04  0.16153611D-02  0.40289671D-02 -0.33351206D-02
  0.24925419D-01 -0.17503984D-02 -0.19144795D-03  0.71357506D+00  0.93616990D+00
  0.10267758D+01  0.84480017D+00  0.44533062D+00  0.11586665D+00 -0.77375631D-09
 -0.10151243D-08 -0.11133716D-08 -0.91604865D-09 -0.48288876D-09 -0.12563857D-09
 -0.50272612D+01 -0.65954807D+01 -0.72338150D+01 -0.59517650D+01 -0.31374321D+01
 -0.81630082D+00  0.42637674D-05  0.15305062D-03  0.24281865D-03  0.28833970D-03
  0.43633396D-04 -0.31755568D-03 -0.74536915D-14 -0.26755496D-12 -0.42448265D-12
 -0.50406012D-12 -0.76277583D-13  0.55513395D-12 -0.40841312D-04 -0.14660247D-02
 -0.23258849D-02 -0.27619169D-02 -0.41795083D-03  0.30417678D-02  0.53385746D-02
 -0.53591268D-11 -0.39501161D-01  0.37598622D-05  0.86704228D-13  0.43248508D-03
 -0.13148904D-05  0.27320624D-14  0.62590941D-05  0.27816762D-03  0.20442925D-03
 -0.48259688D-03 -0.25095937D-14  0.34448072D-04 -0.98208318D-13 -0.31135292D-04
 -0.29480656D-03  0.32594185D-03  0.40195345D-14 -0.92560241D-08  0.55234869D-13
  0.85186875D-05  0.96420645D-05 -0.18160752D-04  0.44648828D-16 -0.21832773D-05
 -0.99317690D-14  0.56496768D-05 -0.40184613D-14  0.11263947D-03 -0.21131288D-05
 -0.70855404D-14 -0.27270064D-03 -0.14835902D-04  0.19140924D-13 -0.65217761D-04
  0.19971796D-14  0.18653593D-06 -0.39788885D-14  0.27181047D-04  0.19733053D-05
 -0.33523183D-14 -0.56020943D-04 -0.25329131D-05  0.15288984D-13 -0.25522198D-04
  0.74603999D-15 -0.51542607D-01 -0.96075508D-01 -0.16286939D+00 -0.24660628D+00
 -0.30831217D+00 -0.26520375D+00 -0.10171135D+00 -0.81692578D-05 -0.10814568D-03
 -0.39280478D-03 -0.11652480D-02 -0.13427129D-02  0.16309248D-02 -0.44248129D-02
  0.10917772D-02  0.14337378D-03  0.58569033D-03  0.57279235D-03  0.37846812D-03
 -0.46180188D-02 -0.45163215D-02 -0.29841246D-02 -0.11781627D-02 -0.11522174D-02
 -0.76131876D-03  0.12849674D-03 -0.49138312D-03  0.22227646D-03  0.21087273D-04
 -0.54087419D-04  0.19696459D-03  0.18138615D-07 -0.27966247D-05  0.28308408D-04
 -0.15269883D-03  0.17160543D-03 -0.18906595D-04 -0.29316620D-04 -0.88046590D-05
  0.41006001D-03  0.10893333D-03 -0.36109802D-04 -0.72823524D-04  0.59399680D-05
 -0.56267945D-05 -0.28900278D-03  0.82327120D-04 -0.27942484D-04 -0.54384636D-04
  0.19322872D-05  0.51684299D-06  0.74486470D-04  0.75915813D-05  0.11191546D-03
  0.22871218D-03 -0.37228115D-04 -0.34700084D-03 -0.22548886D-03  0.14453371D-04
  0.11254462D-04 -0.46064769D-03 -0.11618336D-04 -0.42072605D-05 -0.24171668D-04
 -0.67444360D-04  0.19474987D-04  0.31318642D-03  0.26972562D-03 -0.68532059D-05
 -0.24067141D-03 -0.67392545D-04  0.10539474D-04 -0.51542607D-01 -0.96075508D-01
 -0.16286939D+00 -0.24660628D+00 -0.30831217D+00 -0.26520375D+00 -0.10171135D+00
 -0.81692578D-05 -0.10814568D-03 -0.39280478D-03 -0.11652480D-02 -0.13427129D-02
  0.16309248D-02 -0.44248129D-02  0.10917772D-02  0.14337378D-03  0.58569033D-03
  0.57279235D-03  0.37846812D-03  0.46180188D-02  0.45163215D-02  0.29841246D-02
 -0.11781627D-02 -0.11522174D-02 -0.76131876D-03  0.12849674D-03  0.49138312D-03
  0.22227646D-03  0.21087273D-04  0.54087419D-04  0.19696458D-03  0.18138616D-07
  0.27966247D-05  0.28308408D-04 -0.15269883D-03  0.17160543D-03 -0.18906595D-04
  0.29316620D-04 -0.88046590D-05 -0.41006001D-03  0.10893333D-03 -0.36109802D-04
 -0.72823524D-04 -0.59399680D-05 -0.56267945D-05  0.28900278D-03  0.82327120D-04
 -0.27942484D-04 -0.54384636D-04 -0.19322872D-05  0.51684300D-06 -0.74486470D-04
  0.75915813D-05 -0.11191546D-03  0.22871218D-03 -0.37228115D-04  0.34700084D-03
 -0.22548886D-03  0.14453371D-04 -0.11254462D-04 -0.46064769D-03  0.11618336D-04
 -0.42072605D-05  0.24171668D-04 -0.67444360D-04  0.19474987D-04 -0.31318642D-03
  0.26972562D-03 -0.68532059D-05  0.24067141D-03 -0.67392545D-04 -0.10539474D-04
MO    4     MO 0.0        OCC NO =    2.0000090  ORB. ENERGY =    0.000000
 -0.18708493D-01 -0.34876400D-01 -0.58945867D-01 -0.88606632D-01 -0.10883738D+00
 -0.91854907D-01 -0.34539844D-01 -0.22585350D-05 -0.16881150D-04 -0.63088712D-04
 -0.17600768D-03 -0.23580177D-03  0.27843792D-03 -0.14988860D-02 -0.77612473D-04
 -0.17148041D-04 -0.39716968D-02 -0.37237182D-02 -0.26515092D-02  0.13714839D-12
  0.12858533D-12  0.91560416D-13  0.56041673D-03  0.52542631D-03  0.37413483D-03
 -0.78818892D-03  0.23701839D-13 -0.58335050D-04 -0.12162267D-03 -0.15356636D-13
 -0.91635367D-04  0.20030014D-05  0.45547135D-15 -0.71318054D-06  0.66319065D-04
 -0.44602123D-04 -0.21716942D-04 -0.30354951D-14 -0.10024071D-02  0.65068939D-13
 -0.10380439D-04  0.15946057D-04 -0.55656176D-05 -0.41975611D-14  0.46068575D-03
  0.21230676D-13  0.13096963D-05  0.52771339D-05 -0.65868302D-05 -0.18099499D-15
 -0.27531154D-04  0.11612975D-13  0.10221368D-03 -0.77488196D-14 -0.37279914D-05
  0.42563197D-04  0.84124649D-14 -0.26853442D-04 -0.34920424D-03  0.14833994D-13
  0.38037417D-04  0.10719921D-13 -0.31145437D-04  0.83341912D-14  0.78063016D-05
 -0.72565507D-04  0.35367897D-14  0.96996731D-05  0.16600182D-03 -0.28539363D-13
 -0.33118578D-04  0.13410516D-15  0.61453001D-02  0.11489258D-01  0.19856852D-01
  0.32117640D-01  0.48544738D-01  0.66856154D-01  0.78146703D-01  0.67539665D-01
  0.31521113D-01  0.42704192D-02 -0.31234461D-04  0.77578859D-04  0.99726842D-03
  0.36378919D-02  0.12274157D-01  0.26959556D-01  0.34824393D-01 -0.55965763D-02
 -0.46948623D-01 -0.25764799D-01  0.31346927D-06  0.35706098D-05  0.74138732D-05
  0.20386268D-04 -0.26433138D-05 -0.92177421D-04 -0.22990513D-03  0.19031214D-03
 -0.15637556D-02  0.21197397D-03  0.27882725D-04  0.97000205D+01  0.12725875D+02
  0.13957531D+02  0.11483836D+02  0.60536254D+01  0.15750395D+01 -0.33999533D-09
 -0.44605453D-09 -0.48922529D-09 -0.40251983D-09 -0.21218557D-09 -0.55206693D-10
  0.29354780D+00  0.38511801D+00  0.42239111D+00  0.34753068D+00  0.18319842D+00
  0.47664782D-01  0.57243199D-04  0.20547808D-02  0.32599612D-02  0.38711039D-02
  0.58580006D-03 -0.42633430D-02 -0.33985471D-14 -0.12199299D-12 -0.19354494D-12
 -0.22982868D-12 -0.34779137D-13  0.25311604D-12  0.28965932D-05  0.10397504D-03
  0.16495901D-03  0.19588376D-03  0.29642377D-04 -0.21573166D-03  0.73091999D-01
 -0.23580241D-11  0.23744892D-02  0.17735577D-04  0.34916888D-14 -0.53953485D-04
 -0.17713997D-04  0.13440847D-15 -0.93820707D-06 -0.18739977D-04 -0.14805800D-04
  0.33545777D-04 -0.29452531D-16  0.57479545D-03 -0.30713772D-13 -0.48615050D-05
  0.17290722D-04 -0.12429217D-04  0.65783230D-14 -0.25564076D-03  0.10711977D-13
 -0.11322893D-05 -0.13107854D-05  0.24430746D-05  0.73648523D-16 -0.19919756D-04
  0.42008969D-14  0.83175173D-04 -0.24435132D-14 -0.10797715D-04 -0.30932559D-04
 -0.35481155D-14  0.25162394D-04 -0.21859296D-03  0.10878655D-13  0.72307516D-05
  0.33432358D-15  0.88869677D-05 -0.72761451D-15 -0.93243356D-06  0.27807231D-04
 -0.12577132D-15  0.21846866D-05 -0.54468134D-04  0.23086149D-14  0.61261403D-06
 -0.28245618D-15  0.50360134D-02  0.93871377D-02  0.15913290D-01  0.24094873D-01
  0.30123898D-01  0.25911954D-01  0.99377920D-02  0.75108822D-06  0.99430017D-05
  0.36114791D-04  0.10713385D-03  0.12345012D-03 -0.14994856D-03  0.43400138D-03
 -0.90053388D-04 -0.23584392D-04  0.63606102D-02  0.62205379D-02  0.41101724D-02
  0.44878320D-03  0.43890016D-03  0.28999989D-03  0.22230647D-03  0.21741087D-03
  0.14365255D-03  0.14958768D-02  0.59233869D-04  0.57461445D-05  0.34599443D-03
  0.72961561D-05  0.78047312D-05 -0.77916731D-06 -0.21046490D-06 -0.39737897D-05
  0.11615469D-04 -0.13905481D-04  0.22900116D-05 -0.36468449D-03 -0.14644752D-03
 -0.50295642D-04 -0.87040975D-05  0.54502908D-05  0.32538067D-05  0.10198984D-03
 -0.56923336D-04  0.32669744D-04 -0.84767335D-05  0.94286819D-06  0.75338654D-05
  0.11846128D-04  0.80307656D-04  0.57335166D-05  0.75641568D-05 -0.45831407D-05
 -0.17097038D-04 -0.12293438D-03  0.23321631D-04  0.38566436D-04  0.10024191D-03
 -0.95722094D-05  0.12724679D-04 -0.60577957D-03 -0.42816014D-05  0.42195378D-06
  0.27573229D-05  0.73404958D-04 -0.27207816D-04 -0.31340819D-04 -0.60560154D-04
  0.25941955D-04  0.23068850D-04  0.21843603D-03  0.50360134D-02  0.93871376D-02
  0.15913290D-01  0.24094872D-01  0.30123898D-01  0.25911954D-01  0.99377920D-02
  0.75108822D-06  0.99430016D-05  0.36114791D-04  0.10713385D-03  0.12345012D-03
 -0.14994856D-03  0.43400138D-03 -0.90053388D-04 -0.23584392D-04  0.63606102D-02
  0.62205379D-02  0.41101724D-02 -0.44878320D-03 -0.43890016D-03 -0.28999989D-03
  0.22230647D-03  0.21741087D-03  0.14365255D-03  0.14958768D-02 -0.59233870D-04
  0.57461445D-05  0.34599443D-03 -0.72961561D-05  0.78047311D-05 -0.77916731D-06
  0.21046489D-06 -0.39737897D-05  0.11615469D-04 -0.13905481D-04  0.22900116D-05
  0.36468449D-03 -0.14644752D-03  0.50295642D-04 -0.87040975D-05  0.54502908D-05
  0.32538067D-05 -0.10198984D-03 -0.56923336D-04 -0.32669744D-04 -0.84767335D-05
  0.94286820D-06  0.75338653D-05 -0.11846128D-04  0.80307656D-04 -0.57335166D-05
  0.75641568D-05  0.45831407D-05 -0.17097038D-04 -0.12293438D-03 -0.23321631D-04
  0.38566436D-04  0.10024191D-03  0.95722094D-05  0.12724679D-04  0.60577957D-03