 f2cs-wavefunction
GAUSSIAN            188 MOL ORBITALS    330 PRIMITIVES        4 NUCLEI
  C    1    (CENTRE  1)   0.00000000  0.00000000 -0.98331710  CHARGE =  6.0
  S    2    (CENTRE  2)   0.00000000  0.00000000  2.05701414  CHARGE = 16.0
  F    3    (CENTRE  3)   0.00000000 -1.99407870 -2.44821201  CHARGE =  9.0
  F    4    (CENTRE  4)   0.00000000  1.99407870 -2.44821201  CHARGE =  9.0
CENTRE ASSIGNMENTS    1  1  1  1  1  1  1  1  1  1  1  1  1  1  1  1  1  1  1  1
CENTRE ASSIGNMENTS    1  1  1  1  1  1  1  1  1  1  1  1  1  1  1  1  1  1  1  1
CENTRE ASSIGNMENTS    1  1  1  1  1  1  1  1  1  1  1  1  1  1  1  1  1  1  1  1
CENTRE ASSIGNMENTS    1  1  1  1  1  1  1  1  1  1  1  1  2  2  2  2  2  2  2  2
CENTRE ASSIGNMENTS    2  2  2  2  2  2  2  2  2  2  2  2  2  2  2  2  2  2  2  2
CENTRE ASSIGNMENTS    2  2  2  2  2  2  2  2  2  2  2  2  2  2  2  2  2  2  2  2
CENTRE ASSIGNMENTS    2  2  2  2  2  2  2  2  2  2  2  2  2  2  2  2  2  2  2  2
CENTRE ASSIGNMENTS    2  2  2  2  2  2  2  2  2  2  2  2  2  2  2  2  2  2  2  2
CENTRE ASSIGNMENTS    2  2  2  2  2  2  2  2  2  2  2  2  2  2  2  2  2  2  2  2
CENTRE ASSIGNMENTS    2  2  2  2  2  2  3  3  3  3  3  3  3  3  3  3  3  3  3  3
CENTRE ASSIGNMENTS    3  3  3  3  3  3  3  3  3  3  3  3  3  3  3  3  3  3  3  3
CENTRE ASSIGNMENTS    3  3  3  3  3  3  3  3  3  3  3  3  3  3  3  3  3  3  3  3
CENTRE ASSIGNMENTS    3  3  3  3  3  3  3  3  3  3  3  3  3  3  3  3  3  3  4  4
CENTRE ASSIGNMENTS    4  4  4  4  4  4  4  4  4  4  4  4  4  4  4  4  4  4  4  4
CENTRE ASSIGNMENTS    4  4  4  4  4  4  4  4  4  4  4  4  4  4  4  4  4  4  4  4
CENTRE ASSIGNMENTS    4  4  4  4  4  4  4  4  4  4  4  4  4  4  4  4  4  4  4  4
CENTRE ASSIGNMENTS    4  4  4  4  4  4  4  4  4  4
TYPE ASSIGNMENTS      1  1  1  1  1  1  1  1  1  1  1  1  1  1  1  1  2  2  2  3
TYPE ASSIGNMENTS      3  3  4  4  4  2  3  4  2  3  4  2  3  4  5  6  7  8  9 10
TYPE ASSIGNMENTS      5  6  7  8  9 10  5  6  7  8  9 10 11 12 13 17 14 15 18 19
TYPE ASSIGNMENTS     16 20 11 12 13 17 14 15 18 19 16 20  1  1  1  1  1  1  1  1
TYPE ASSIGNMENTS      1  1  1  1  1  1  1  1  1  1  1  1  1  1  1  1  1  1  1  1
TYPE ASSIGNMENTS      1  1  1  2  2  2  2  2  2  3  3  3  3  3  3  4  4  4  4  4
TYPE ASSIGNMENTS      4  2  2  2  2  2  2  3  3  3  3  3  3  4  4  4  4  4  4  2
TYPE ASSIGNMENTS      3  4  2  3  4  2  3  4  5  6  7  8  9 10  5  6  7  8  9 10
TYPE ASSIGNMENTS      5  6  7  8  9 10 11 12 13 17 14 15 18 19 16 20 11 12 13 17
TYPE ASSIGNMENTS     14 15 18 19 16 20  1  1  1  1  1  1  1  1  1  1  1  1  1  1
TYPE ASSIGNMENTS      1  1  2  2  2  3  3  3  4  4  4  2  3  4  2  3  4  2  3  4
TYPE ASSIGNMENTS      5  6  7  8  9 10  5  6  7  8  9 10  5  6  7  8  9 10 11 12
TYPE ASSIGNMENTS     13 17 14 15 18 19 16 20 11 12 13 17 14 15 18 19 16 20  1  1
TYPE ASSIGNMENTS      1  1  1  1  1  1  1  1  1  1  1  1  1  1  2  2  2  3  3  3
TYPE ASSIGNMENTS      4  4  4  2  3  4  2  3  4  2  3  4  5  6  7  8  9 10  5  6
TYPE ASSIGNMENTS      7  8  9 10  5  6  7  8  9 10 11 12 13 17 14 15 18 19 16 20
TYPE ASSIGNMENTS     11 12 13 17 14 15 18 19 16 20
EXPONENTS  0.8236000D+04 0.1235000D+04 0.2808000D+03 0.7927000D+02 0.2559000D+02
EXPONENTS  0.8997000D+01 0.3319000D+01 0.2808000D+03 0.7927000D+02 0.2559000D+02
EXPONENTS  0.8997000D+01 0.3319000D+01 0.3643000D+00 0.9059000D+00 0.1285000D+00
EXPONENTS  0.4402000D-01 0.1871000D+02 0.4133000D+01 0.1200000D+01 0.1871000D+02
EXPONENTS  0.4133000D+01 0.1200000D+01 0.1871000D+02 0.4133000D+01 0.1200000D+01
EXPONENTS  0.3827000D+00 0.3827000D+00 0.3827000D+00 0.1209000D+00 0.1209000D+00
EXPONENTS  0.1209000D+00 0.3569000D-01 0.3569000D-01 0.3569000D-01 0.1097000D+01
EXPONENTS  0.1097000D+01 0.1097000D+01 0.1097000D+01 0.1097000D+01 0.1097000D+01
EXPONENTS  0.3180000D+00 0.3180000D+00 0.3180000D+00 0.3180000D+00 0.3180000D+00
EXPONENTS  0.3180000D+00 0.1000000D+00 0.1000000D+00 0.1000000D+00 0.1000000D+00
EXPONENTS  0.1000000D+00 0.1000000D+00 0.7610000D+00 0.7610000D+00 0.7610000D+00
EXPONENTS  0.7610000D+00 0.7610000D+00 0.7610000D+00 0.7610000D+00 0.7610000D+00
EXPONENTS  0.7610000D+00 0.7610000D+00 0.2680000D+00 0.2680000D+00 0.2680000D+00
EXPONENTS  0.2680000D+00 0.2680000D+00 0.2680000D+00 0.2680000D+00 0.2680000D+00
EXPONENTS  0.2680000D+00 0.2680000D+00 0.3741000D+06 0.5605000D+05 0.1276000D+05
EXPONENTS  0.3615000D+04 0.1183000D+04 0.4288000D+03 0.1678000D+03 0.6947000D+02
EXPONENTS  0.2984000D+02 0.1272000D+02 0.5244000D+01 0.3615000D+04 0.1183000D+04
EXPONENTS  0.4288000D+03 0.1678000D+03 0.6947000D+02 0.2984000D+02 0.1272000D+02
EXPONENTS  0.5244000D+01 0.2219000D+01 0.1183000D+04 0.1678000D+03 0.6947000D+02
EXPONENTS  0.2984000D+02 0.1272000D+02 0.5244000D+01 0.2219000D+01 0.3490000D+00
EXPONENTS  0.7767000D+00 0.1322000D+00 0.4970000D-01 0.5744000D+03 0.1358000D+03
EXPONENTS  0.4319000D+02 0.1587000D+02 0.6208000D+01 0.2483000D+01 0.5744000D+03
EXPONENTS  0.1358000D+03 0.4319000D+02 0.1587000D+02 0.6208000D+01 0.2483000D+01
EXPONENTS  0.5744000D+03 0.1358000D+03 0.4319000D+02 0.1587000D+02 0.6208000D+01
EXPONENTS  0.2483000D+01 0.1358000D+03 0.4319000D+02 0.1587000D+02 0.6208000D+01
EXPONENTS  0.2483000D+01 0.3229000D+00 0.1358000D+03 0.4319000D+02 0.1587000D+02
EXPONENTS  0.6208000D+01 0.2483000D+01 0.3229000D+00 0.1358000D+03 0.4319000D+02
EXPONENTS  0.1587000D+02 0.6208000D+01 0.2483000D+01 0.3229000D+00 0.8688000D+00
EXPONENTS  0.8688000D+00 0.8688000D+00 0.1098000D+00 0.1098000D+00 0.1098000D+00
EXPONENTS  0.3510000D-01 0.3510000D-01 0.3510000D-01 0.2690000D+00 0.2690000D+00
EXPONENTS  0.2690000D+00 0.2690000D+00 0.2690000D+00 0.2690000D+00 0.8190000D+00
EXPONENTS  0.8190000D+00 0.8190000D+00 0.8190000D+00 0.8190000D+00 0.8190000D+00
EXPONENTS  0.1010000D+00 0.1010000D+00 0.1010000D+00 0.1010000D+00 0.1010000D+00
EXPONENTS  0.1010000D+00 0.5570000D+00 0.5570000D+00 0.5570000D+00 0.5570000D+00
EXPONENTS  0.5570000D+00 0.5570000D+00 0.5570000D+00 0.5570000D+00 0.5570000D+00
EXPONENTS  0.5570000D+00 0.2180000D+00 0.2180000D+00 0.2180000D+00 0.2180000D+00
EXPONENTS  0.2180000D+00 0.2180000D+00 0.2180000D+00 0.2180000D+00 0.2180000D+00
EXPONENTS  0.2180000D+00 0.1950000D+05 0.2923000D+04 0.6645000D+03 0.1875000D+03
EXPONENTS  0.6062000D+02 0.2142000D+02 0.7950000D+01 0.6645000D+03 0.1875000D+03
EXPONENTS  0.6062000D+02 0.2142000D+02 0.7950000D+01 0.8815000D+00 0.2257000D+01
EXPONENTS  0.3041000D+00 0.9158000D-01 0.4388000D+02 0.9926000D+01 0.2930000D+01
EXPONENTS  0.4388000D+02 0.9926000D+01 0.2930000D+01 0.4388000D+02 0.9926000D+01
EXPONENTS  0.2930000D+01 0.9132000D+00 0.9132000D+00 0.9132000D+00 0.2672000D+00
EXPONENTS  0.2672000D+00 0.2672000D+00 0.7361000D-01 0.7361000D-01 0.7361000D-01
EXPONENTS  0.3107000D+01 0.3107000D+01 0.3107000D+01 0.3107000D+01 0.3107000D+01
EXPONENTS  0.3107000D+01 0.8550000D+00 0.8550000D+00 0.8550000D+00 0.8550000D+00
EXPONENTS  0.8550000D+00 0.8550000D+00 0.2920000D+00 0.2920000D+00 0.2920000D+00
EXPONENTS  0.2920000D+00 0.2920000D+00 0.2920000D+00 0.1917000D+01 0.1917000D+01
EXPONENTS  0.1917000D+01 0.1917000D+01 0.1917000D+01 0.1917000D+01 0.1917000D+01
EXPONENTS  0.1917000D+01 0.1917000D+01 0.1917000D+01 0.7240000D+00 0.7240000D+00
EXPONENTS  0.7240000D+00 0.7240000D+00 0.7240000D+00 0.7240000D+00 0.7240000D+00
EXPONENTS  0.7240000D+00 0.7240000D+00 0.7240000D+00 0.1950000D+05 0.2923000D+04
EXPONENTS  0.6645000D+03 0.1875000D+03 0.6062000D+02 0.2142000D+02 0.7950000D+01
EXPONENTS  0.6645000D+03 0.1875000D+03 0.6062000D+02 0.2142000D+02 0.7950000D+01
EXPONENTS  0.8815000D+00 0.2257000D+01 0.3041000D+00 0.9158000D-01 0.4388000D+02
EXPONENTS  0.9926000D+01 0.2930000D+01 0.4388000D+02 0.9926000D+01 0.2930000D+01
EXPONENTS  0.4388000D+02 0.9926000D+01 0.2930000D+01 0.9132000D+00 0.9132000D+00
EXPONENTS  0.9132000D+00 0.2672000D+00 0.2672000D+00 0.2672000D+00 0.7361000D-01
EXPONENTS  0.7361000D-01 0.7361000D-01 0.3107000D+01 0.3107000D+01 0.3107000D+01
EXPONENTS  0.3107000D+01 0.3107000D+01 0.3107000D+01 0.8550000D+00 0.8550000D+00
EXPONENTS  0.8550000D+00 0.8550000D+00 0.8550000D+00 0.8550000D+00 0.2920000D+00
EXPONENTS  0.2920000D+00 0.2920000D+00 0.2920000D+00 0.2920000D+00 0.2920000D+00
EXPONENTS  0.1917000D+01 0.1917000D+01 0.1917000D+01 0.1917000D+01 0.1917000D+01
EXPONENTS  0.1917000D+01 0.1917000D+01 0.1917000D+01 0.1917000D+01 0.1917000D+01
EXPONENTS  0.7240000D+00 0.7240000D+00 0.7240000D+00 0.7240000D+00 0.7240000D+00
EXPONENTS  0.7240000D+00 0.7240000D+00 0.7240000D+00 0.7240000D+00 0.7240000D+00
MO    1     MO 0.0        OCC NO =    2.0000303  ORB. ENERGY =    0.000000
 -0.69943167D-11 -0.13038815D-10 -0.22037374D-10 -0.33126284D-10 -0.40689707D-10
 -0.34340677D-10 -0.12912991D-10 -0.31282023D-15 -0.23381374D-14 -0.87381533D-14
 -0.24378087D-13 -0.32659916D-13  0.38565271D-13 -0.56843942D-12  0.35706885D-13
  0.20505424D-13 -0.35233665D-12 -0.33033800D-12 -0.23522034D-12 -0.29840011D-02
 -0.27976907D-02 -0.19921224D-02 -0.43690504D-13 -0.40962624D-13 -0.29167829D-13
 -0.63938249D-13 -0.15382770D-02 -0.11264659D-14 -0.10511000D-13  0.60495863D-03
  0.85483116D-14  0.91991961D-16 -0.13305167D-04  0.97864505D-15  0.28752372D-13
 -0.11833570D-13 -0.16918802D-13 -0.34545773D-14 -0.83650670D-13 -0.98457679D-03
 -0.32257732D-15 -0.83037860D-14  0.86263633D-14  0.13852215D-13  0.35201472D-13
  0.37056752D-03 -0.10960320D-14 -0.54576437D-15  0.16417964D-14  0.85223598D-15
 -0.34591379D-14 -0.22353345D-03  0.83615287D-14  0.24027186D-03 -0.25393702D-13
  0.30452882D-14  0.35221154D-03  0.92723334D-14 -0.28129874D-13 -0.10730271D-02
  0.66908771D-13 -0.10107058D-14 -0.33411034D-14 -0.13598002D-03 -0.53621452D-14
 -0.58540163D-14 -0.12796045D-03  0.76272409D-14  0.15877326D-13  0.53590050D-03
  0.84591948D-14 -0.93993672D-14 -0.16688418D-10 -0.31200679D-10 -0.53924047D-10
 -0.87219923D-10 -0.13182999D-09 -0.18155720D-09 -0.21221825D-09 -0.18341336D-09
 -0.85599973D-10 -0.11596918D-10  0.84821529D-13  0.21709400D-13  0.27907215D-12
  0.10180151D-11  0.34347577D-11  0.75442690D-11  0.97451378D-11 -0.15661266D-11
 -0.13137940D-10 -0.72099322D-11  0.34808653D-15  0.39649219D-14  0.82326072D-14
  0.22637579D-13 -0.29352221D-14 -0.10235682D-12 -0.25529417D-12  0.21132882D-12
 -0.32713154D-12 -0.27179190D-13 -0.23780979D-13  0.85808561D-09  0.11257595D-08
  0.12347146D-08  0.10158859D-08  0.53551731D-09  0.13933153D-09  0.97655066D+01
  0.12811789D+02  0.14051760D+02  0.11561365D+02  0.60944942D+01  0.15856728D+01
 -0.43118035D-09 -0.56568410D-09 -0.62043303D-09 -0.51047361D-09 -0.26909266D-09
 -0.70012849D-10  0.51286544D-14  0.18409628D-12  0.29207337D-12  0.34682817D-12
  0.52484243D-13 -0.38197049D-12  0.94190161D-04  0.33810153D-02  0.53640655D-02
  0.63696632D-02  0.96389794D-03 -0.70150686D-02 -0.25119730D-14 -0.90168857D-13
 -0.14305515D-12 -0.16987360D-12 -0.25706354D-13  0.18708603D-12  0.64646237D-11
  0.67557704D-01 -0.32924034D-11  0.37859498D-14 -0.38135261D-03  0.30120478D-13
 -0.15371057D-14 -0.74039682D-05  0.15654531D-14  0.12062070D-13  0.11137844D-13
 -0.23199914D-13  0.25885157D-14  0.50710915D-13  0.94727383D-03 -0.28252175D-13
 -0.18917250D-13  0.47169425D-13 -0.22083535D-14 -0.20947867D-13 -0.57438971D-03
  0.13747706D-14  0.11496475D-14 -0.25244181D-14 -0.16857462D-15 -0.24282003D-14
 -0.42028960D-04  0.82529940D-14  0.35204042D-04 -0.68183245D-14 -0.28300613D-14
  0.10976148D-03  0.66552433D-14 -0.21928921D-13 -0.21537361D-03  0.13799730D-13
 -0.13841232D-14  0.64970098D-15  0.34391992D-04  0.28600214D-14  0.22362704D-14
  0.16115802D-04 -0.43280925D-14 -0.41853734D-14 -0.11929178D-03 -0.42519718D-14
 -0.80549849D-15  0.49657290D-02  0.92561274D-02  0.15691198D-01  0.23758596D-01
  0.29703478D-01  0.25550317D-01  0.97990966D-02 -0.65296672D-06 -0.86440568D-05
 -0.31396787D-04 -0.93137977D-04 -0.10732271D-03  0.13035941D-03  0.57862955D-03
  0.10088672D-03  0.84722567D-03  0.40989626D-12  0.40086959D-12  0.26487149D-12
 -0.12937260D-02 -0.12652358D-02 -0.83599477D-03 -0.38856635D-02 -0.38000940D-02
 -0.25108828D-02  0.96761150D-13 -0.37983930D-03 -0.10784843D-02  0.30945266D-13
 -0.13862003D-03 -0.73525086D-03 -0.52370898D-16  0.91488377D-04  0.11558114D-04
  0.23625294D-04  0.27307292D-04 -0.50932585D-04 -0.27108337D-13 -0.29196695D-13
  0.25530127D-03 -0.52694605D-04 -0.12977299D-03  0.18246760D-03  0.73112299D-14
 -0.44729008D-14 -0.14757229D-03  0.10798228D-03 -0.20674218D-04 -0.87308058D-04
  0.35725100D-14  0.98441889D-14 -0.27376687D-03 -0.87412790D-15 -0.23215739D-04
 -0.58800603D-04 -0.10996953D-13 -0.32965079D-03  0.30271067D-04  0.13619337D-13
  0.39929800D-03  0.14613074D-03 -0.70458630D-13  0.68521924D-15 -0.64005370D-04
  0.95766097D-04  0.47509705D-14  0.19921909D-03 -0.44274629D-04 -0.68066283D-14
 -0.72029799D-05 -0.24302366D-03  0.24952389D-13 -0.49657290D-02 -0.92561274D-02
 -0.15691198D-01 -0.23758596D-01 -0.29703478D-01 -0.25550317D-01 -0.97990966D-02
  0.65296672D-06  0.86440568D-05  0.31396787D-04  0.93137977D-04  0.10732271D-03
 -0.13035941D-03 -0.57862955D-03 -0.10088672D-03 -0.84722567D-03  0.81120506D-12
  0.79334083D-12  0.52419383D-12 -0.12937260D-02 -0.12652358D-02 -0.83599477D-03
  0.38856635D-02  0.38000940D-02  0.25108828D-02  0.19440421D-12 -0.37983930D-03
  0.10784843D-02  0.25045657D-13 -0.13862003D-03  0.73525086D-03 -0.75710333D-15
  0.91488377D-04 -0.11558114D-04 -0.23625294D-04 -0.27307292D-04  0.50932585D-04
  0.14488473D-13 -0.14960866D-13  0.25530127D-03  0.52694605D-04  0.12977299D-03
 -0.18246760D-03 -0.11336506D-13 -0.52815853D-14 -0.14757229D-03 -0.10798228D-03
  0.20674218D-04  0.87308058D-04  0.71750755D-14  0.32940974D-14 -0.27376687D-03
 -0.45940613D-14 -0.23215739D-04  0.58800603D-04  0.21448682D-13 -0.32965079D-03
 -0.30271067D-04 -0.76664983D-14  0.39929800D-03 -0.14613074D-03  0.22389208D-13
  0.97711924D-15 -0.64005370D-04 -0.95766097D-04 -0.40074206D-15  0.19921909D-03
  0.44274629D-04 -0.25306157D-14 -0.72029800D-05  0.24302366D-03 -0.11463359D-13
MO    2     MO 0.0        OCC NO =    2.0000245  ORB. ENERGY =    0.000000
 -0.57605478D-01 -0.10738822D+00 -0.18150071D+00 -0.27282943D+00 -0.33512208D+00
 -0.28283122D+00 -0.10635192D+00 -0.90605485D-05 -0.67721986D-04 -0.25309253D-03
 -0.70608874D-03 -0.94596424D-03  0.11170074D-02 -0.43641697D-02 -0.13295998D-02
 -0.50014536D-04 -0.10009091D-12 -0.93841590D-13 -0.66820803D-13 -0.12968366D-12
 -0.12158668D-12 -0.86576959D-13  0.27831398D-02  0.26093705D-02  0.18580272D-02
 -0.21236485D-13  0.36393553D-14 -0.40142398D-03  0.12351536D-14  0.31491392D-13
 -0.92208659D-03  0.25675454D-15 -0.12890757D-14  0.81000959D-05  0.25594004D-03
 -0.10227430D-03 -0.15366574D-03  0.39897983D-14 -0.25534195D-13 -0.56894885D-13
  0.10595055D-03  0.15355772D-03 -0.25950827D-03 -0.83164517D-14  0.11012760D-13
 -0.52683270D-13  0.16796623D-04  0.61733682D-04 -0.78530305D-04  0.14411321D-15
  0.94693130D-17 -0.17871345D-13  0.32380793D-14  0.84838379D-14 -0.34989139D-04
  0.36995331D-15 -0.22108229D-13 -0.10111506D-03 -0.10084191D-13 -0.33432853D-14
  0.20608247D-03  0.65097753D-14 -0.10233063D-14 -0.36702856D-14  0.43033154D-04
 -0.14452311D-14 -0.53629424D-14  0.29254975D-04  0.45151500D-14  0.16373799D-13
 -0.15835444D-03  0.39876642D-14 -0.12895625D+00 -0.24109671D+00 -0.41668677D+00
 -0.67397368D+00 -0.10186887D+01 -0.14029452D+01 -0.16398721D+01 -0.14172883D+01
 -0.66145585D+00 -0.89612754D-01  0.65544059D-03 -0.16077839D-02 -0.20667901D-01
 -0.75393531D-01 -0.25437590D+00 -0.55872363D+00 -0.72171853D+00  0.11598631D+00
  0.97298726D+00  0.53396286D+00 -0.13339412D-04 -0.15194419D-03 -0.31549091D-03
 -0.86751989D-03  0.11248392D-03  0.39225299D-02  0.97834124D-02 -0.80985671D-02
  0.29719904D-01  0.14874493D-02  0.65521037D-04  0.22728785D-09  0.29818874D-09
  0.32704851D-09  0.26908566D-09  0.14184666D-09  0.36905833D-10  0.31273557D-09
  0.41029128D-09  0.45000074D-09  0.37024705D-09  0.19517319D-09  0.50780393D-10
  0.61129937D+01  0.80199001D+01  0.87960948D+01  0.72371618D+01  0.38150202D+01
  0.99259650D+00  0.13689042D-14  0.49137680D-13  0.77958161D-13  0.92572925D-13
  0.14008724D-13 -0.10195287D-12  0.29759144D-14  0.10682233D-12  0.16947630D-12
  0.20124790D-12  0.30454112D-13 -0.22163932D-12  0.56320991D-04  0.20216775D-02
  0.32074420D-02  0.38087390D-02  0.57636261D-03 -0.41946590D-02  0.17038065D-11
  0.21515850D-11  0.45179541D-01 -0.32412458D-14  0.60063166D-14 -0.76971335D-03
 -0.54819567D-15  0.49324364D-15 -0.60143463D-05 -0.25032775D-03 -0.13894741D-03
  0.38927517D-03 -0.92924507D-15  0.14542729D-13  0.15852964D-13  0.15336669D-03
 -0.37324281D-03  0.21987613D-03  0.12039098D-14 -0.43141702D-14 -0.14220534D-13
 -0.14075722D-04 -0.26807994D-04  0.40883716D-04 -0.10317617D-15  0.65244256D-15
 -0.62310558D-14  0.17204452D-14  0.37959899D-15 -0.86255853D-04 -0.14512765D-14
  0.20145817D-14  0.21247200D-03 -0.37100591D-14 -0.31533786D-14  0.46295564D-04
 -0.10067671D-14  0.41149533D-15  0.62537219D-16 -0.21321364D-04  0.91219612D-15
 -0.59611852D-16  0.30344938D-04 -0.21466821D-14 -0.12799981D-15  0.33619155D-04
  0.70746907D-15  0.64616645D-02  0.12044554D-01  0.20418202D-01  0.30915919D-01
  0.38651708D-01  0.33247400D-01  0.12751093D-01  0.15024282D-05  0.19889336D-04
  0.72241687D-04  0.21430360D-03  0.24694162D-03 -0.29994738D-03  0.50822699D-03
 -0.37312109D-03 -0.25082360D-03  0.15627551D-12  0.15283403D-12  0.10098391D-12
  0.12767881D-03  0.12486709D-03  0.82504964D-04 -0.88494176D-03 -0.86545371D-03
 -0.57184186D-03  0.36766201D-13 -0.81255230D-04 -0.37138782D-03  0.23169712D-14
  0.10210689D-04 -0.73035401D-04 -0.15419895D-15 -0.44009413D-05 -0.59349358D-04
  0.34030717D-04 -0.10466124D-03  0.70630523D-04  0.38620777D-14  0.35607013D-14
 -0.27914523D-04 -0.20846923D-04  0.13270356D-04  0.75765667D-05  0.10059533D-14
 -0.22245346D-14  0.90948716D-04 -0.46070392D-04  0.10769227D-04  0.35301165D-04
 -0.36910778D-14 -0.66467189D-15 -0.16251414D-04  0.41891527D-15 -0.76184434D-04
 -0.10576280D-03  0.23363598D-14  0.11119225D-03  0.33328339D-04 -0.35931056D-14
  0.11736105D-03  0.28396007D-03 -0.38529969D-14  0.72721477D-15  0.16259788D-04
  0.42456170D-04 -0.14936298D-14 -0.96987357D-04 -0.78546314D-04 -0.68801451D-15
  0.48207994D-04 -0.48822195D-04 -0.40887598D-14  0.64616645D-02  0.12044554D-01
  0.20418202D-01  0.30915919D-01  0.38651708D-01  0.33247400D-01  0.12751094D-01
  0.15024282D-05  0.19889336D-04  0.72241687D-04  0.21430360D-03  0.24694162D-03
 -0.29994738D-03  0.50822699D-03 -0.37312109D-03 -0.25082360D-03  0.16390565D-12
  0.16029614D-12  0.10591444D-12 -0.12767881D-03 -0.12486709D-03 -0.82504965D-04
 -0.88494176D-03 -0.86545371D-03 -0.57184186D-03  0.40865161D-13  0.81255230D-04
 -0.37138781D-03  0.12870063D-13 -0.10210689D-04 -0.73035401D-04 -0.29500148D-15
  0.44009413D-05 -0.59349358D-04  0.34030717D-04 -0.10466124D-03  0.70630523D-04
  0.15346106D-13 -0.37956757D-13  0.27914523D-04 -0.20846923D-04  0.13270356D-04
  0.75765667D-05 -0.64649887D-14  0.41563530D-14 -0.90948716D-04 -0.46070392D-04
  0.10769227D-04  0.35301165D-04 -0.26901898D-14  0.31839360D-14  0.16251414D-04
  0.32894358D-14  0.76184434D-04 -0.10576280D-03 -0.11851572D-13 -0.11119225D-03
  0.33328339D-04  0.19832641D-14 -0.11736105D-03  0.28396007D-03  0.47406910D-13
 -0.14306897D-14 -0.16259788D-04  0.42456170D-04  0.49756090D-14  0.96987357D-04
 -0.78546314D-04 -0.68353991D-15 -0.48207994D-04 -0.48822195D-04 -0.15256582D-13
MO    3     MO 0.0        OCC NO =    2.0000098  ORB. ENERGY =    0.000000
  0.20291192D+00  0.37826869D+00  0.63932563D+00  0.96102566D+00  0.11804479D+01
  0.99625638D+00  0.37461841D+00  0.27139372D-04  0.20284999D-03  0.75809672D-03
  0.21149718D-02  0.28334791D-02 -0.33458105D-02  0.16186188D-01  0.35502335D-03
  0.13377826D-03 -0.24876475D-11 -0.23323277D-11 -0.16607563D-11  0.23665071D-14
  0.22187509D-14  0.15798828D-14 -0.72878354D-02 -0.68328089D-02 -0.48653670D-02
 -0.49577481D-12 -0.87287323D-14  0.61222476D-03 -0.69485939D-13  0.27660342D-14
  0.55614143D-03  0.14927917D-14 -0.32131799D-15  0.65470015D-05 -0.70092373D-03
  0.56157230D-03  0.13935143D-03 -0.36495320D-14 -0.63311176D-12  0.31978119D-13
  0.20504357D-03 -0.25406626D-03  0.49022690D-04  0.67024067D-14  0.29105011D-12
  0.25781036D-13 -0.93512970D-05 -0.40071077D-04  0.49422374D-04  0.12856218D-15
 -0.15677631D-13  0.19780018D-14  0.65056810D-13 -0.41920477D-14 -0.88971337D-05
  0.26972949D-13  0.23395961D-13  0.26746152D-03 -0.22214338D-12 -0.10819818D-13
 -0.24077012D-03 -0.82419322D-14 -0.20581190D-13  0.68354699D-15 -0.14717633D-03
 -0.46289872D-13  0.11052328D-14 -0.45659381D-05  0.10803344D-12 -0.31558738D-14
  0.44609493D-03 -0.14327146D-14 -0.96459535D-01 -0.18034082D+00 -0.31168253D+00
 -0.50413365D+00 -0.76198114D+00 -0.10494058D+01 -0.12266276D+01 -0.10601345D+01
 -0.49477029D+00 -0.67030518D-01  0.49027087D-03 -0.12157907D-02 -0.15628867D-01
 -0.57011861D-01 -0.19235661D+00 -0.42250142D+00 -0.54575659D+00  0.87707728D-01
  0.73576359D+00  0.40377757D+00 -0.52512832D-05 -0.59815380D-04 -0.12419829D-03
 -0.34151376D-03  0.44281181D-04  0.15441697D-02  0.38514045D-02 -0.31881368D-02
  0.24261244D-01 -0.17683527D-02 -0.19325276D-03  0.62004974D-08  0.81347000D-08
  0.89220054D-08  0.73407572D-08  0.38696298D-08  0.10068049D-08 -0.52502467D-10
 -0.68880251D-10 -0.75546728D-10 -0.62157572D-10 -0.32765938D-10 -0.85250807D-11
 -0.50564592D+01 -0.66337869D+01 -0.72758285D+01 -0.59863325D+01 -0.31556541D+01
 -0.82104185D+00  0.36311924D-13  0.13034394D-11  0.20679393D-11  0.24556145D-11
  0.37159920D-12 -0.27044293D-11 -0.46362975D-15 -0.16642282D-13 -0.26403398D-13
 -0.31353226D-13 -0.47445694D-14  0.34530087D-13 -0.40901255D-04 -0.14681763D-02
 -0.23292986D-02 -0.27659706D-02 -0.41856426D-03  0.30462322D-02  0.46698422D-10
 -0.35437693D-12 -0.39737123D-01  0.60518183D-14 -0.14400785D-14  0.44039111D-03
 -0.11552611D-13  0.22905113D-15  0.63805188D-05  0.27855293D-03  0.20321710D-03
 -0.48177002D-03 -0.22853199D-15  0.36577911D-12  0.22538457D-14 -0.42986586D-04
 -0.29587459D-03  0.33886118D-03  0.10660947D-14 -0.18160789D-12  0.45799248D-14
  0.84492509D-05  0.10018223D-04 -0.18467474D-04 -0.50700750D-16 -0.10863712D-13
  0.12743116D-14  0.52430501D-13  0.70586101D-15  0.11562386D-03 -0.21060890D-13
 -0.11125872D-14 -0.27911613D-03 -0.13623061D-12 -0.10049959D-14 -0.67755455D-04
 -0.57242545D-15  0.59476246D-14  0.25317647D-15  0.26867604D-04  0.18086148D-13
  0.18217349D-15 -0.55494169D-04 -0.35929022D-13 -0.94170291D-15 -0.25108643D-04
  0.26535703D-15 -0.54217789D-01 -0.10106205D+00 -0.17132269D+00 -0.25940573D+00
 -0.32431429D+00 -0.27896845D+00 -0.10699040D+00 -0.85093935D-05 -0.11264844D-03
 -0.40915962D-03 -0.12137643D-02 -0.13986182D-02  0.16988301D-02 -0.46642398D-02
  0.11072480D-02  0.14896506D-03  0.40565314D-11  0.39671991D-11  0.26212962D-11
 -0.48251362D-02 -0.47188778D-02 -0.31179621D-02 -0.13887165D-02 -0.13581344D-02
 -0.89737682D-03  0.95486335D-12 -0.52108176D-03  0.19818932D-03  0.22100294D-12
 -0.66496294D-04  0.18299581D-03 -0.46458860D-15 -0.30775813D-05  0.29061554D-04
 -0.15393835D-03  0.17647279D-03 -0.22534445D-04 -0.21016743D-12 -0.10764939D-12
  0.41891782D-03  0.11093725D-03 -0.43991593D-04 -0.66945657D-04  0.65995606D-13
 -0.28722894D-13 -0.29561092D-03  0.85929363D-04 -0.29791086D-04 -0.56138277D-04
  0.79508430D-14  0.51612886D-13  0.65730235D-04  0.43505453D-14  0.11192519D-03
  0.23485769D-03 -0.72773523D-13 -0.36284648D-03 -0.25460035D-03  0.59721887D-13
  0.27070923D-04 -0.44997274D-03 -0.40266441D-12 -0.38994732D-14 -0.25725069D-04
 -0.66884727D-04  0.46783161D-13  0.32528224D-03  0.28375094D-03 -0.35084742D-13
 -0.24810703D-03 -0.83096757D-04  0.14813071D-12 -0.54217789D-01 -0.10106205D+00
 -0.17132269D+00 -0.25940573D+00 -0.32431429D+00 -0.27896845D+00 -0.10699040D+00
 -0.85093935D-05 -0.11264844D-03 -0.40915962D-03 -0.12137643D-02 -0.13986182D-02
  0.16988301D-02 -0.46642399D-02  0.11072480D-02  0.14896506D-03  0.40852564D-11
  0.39952915D-11  0.26398580D-11  0.48251362D-02  0.47188778D-02  0.31179621D-02
 -0.13887165D-02 -0.13581344D-02 -0.89737682D-03  0.96434843D-12  0.52108176D-03
  0.19818932D-03  0.21447768D-12  0.66496294D-04  0.18299581D-03 -0.48436535D-15
  0.30775813D-05  0.29061554D-04 -0.15393835D-03  0.17647279D-03 -0.22534445D-04
  0.19967008D-12 -0.74928773D-13 -0.41891782D-03  0.11093725D-03 -0.43991593D-04
 -0.66945657D-04 -0.64598271D-13 -0.33526442D-13  0.29561092D-03  0.85929363D-04
 -0.29791086D-04 -0.56138277D-04 -0.33660592D-14  0.48435602D-13 -0.65730235D-04
 -0.35176667D-14 -0.11192519D-03  0.23485769D-03 -0.58929650D-13  0.36284648D-03
 -0.25460035D-03  0.69482651D-13 -0.27070923D-04 -0.44997274D-03  0.36451337D-12
 -0.95668743D-15  0.25725069D-04 -0.66884727D-04  0.40596151D-13 -0.32528224D-03
  0.28375094D-03 -0.37726088D-13  0.24810703D-03 -0.83096757D-04 -0.13490144D-12
MO    4     MO 0.0        OCC NO =    2.0000089  ORB. ENERGY =    0.000000
 -0.14135490D-09 -0.26351402D-09 -0.44537459D-09 -0.66948107D-09 -0.82233759D-09
 -0.69402391D-09 -0.26097112D-09 -0.18052685D-13 -0.13493263D-12 -0.50427406D-12
 -0.14068461D-11 -0.18847859D-11  0.22255808D-11 -0.11237289D-10 -0.63364432D-12
 -0.22898994D-12 -0.39094728D-02 -0.36653793D-02 -0.26099684D-02  0.25436261D-12
  0.23848111D-12  0.16981276D-12  0.48104702D-11  0.45101215D-11  0.32114752D-11
 -0.78117577D-03  0.21435728D-12 -0.37779430D-12 -0.12207398D-03 -0.37663896D-13
 -0.53424487D-12  0.19573598D-05  0.25153604D-14 -0.13610958D-13  0.52493251D-12
 -0.42211214D-12 -0.10282036D-12 -0.77138730D-14 -0.98865441D-03 -0.61424691D-13
 -0.96303110D-13  0.13000385D-12 -0.33700741D-13  0.10030155D-14  0.44879165D-03
 -0.15489857D-12  0.97927341D-14  0.28149773D-13 -0.37942507D-13  0.19795434D-15
 -0.28080241D-04  0.28649754D-13  0.10027580D-03 -0.11538624D-13 -0.36321540D-13
  0.43720834D-04 -0.13406648D-12 -0.23167177D-12 -0.34454825D-03  0.16868235D-12
  0.34063639D-12  0.10183513D-14 -0.31303245D-04 -0.55372819D-14  0.79372519D-13
 -0.72541499D-04  0.28063192D-14  0.17884243D-13  0.16645123D-03  0.13805526D-13
 -0.25600180D-12  0.25681903D-15  0.72238213D-10  0.13505661D-09  0.23341797D-09
  0.37754395D-09  0.57064504D-09  0.78589637D-09  0.91861716D-09  0.79393107D-09
  0.37053176D-09  0.50198924D-10 -0.36716216D-12  0.80502294D-12  0.10348489D-10
  0.37749800D-10  0.12736689D-09  0.27975484D-09  0.36136694D-09 -0.58074743D-10
 -0.48717806D-09 -0.26735704D-09  0.36479504D-14  0.41552423D-13  0.86277808D-13
  0.23724206D-12 -0.30761158D-13 -0.10727006D-11 -0.26754856D-11  0.22147282D-11
 -0.16004768D-10  0.14380021D-11  0.31377719D-12  0.97276072D+01  0.12762067D+02
  0.13997226D+02  0.11516496D+02  0.60708418D+01  0.15795189D+01 -0.83654951D-09
 -0.10975054D-08 -0.12037259D-08 -0.99038940D-09 -0.52207698D-09 -0.13583461D-09
  0.29607256D-08  0.38843037D-08  0.42602405D-08  0.35051975D-08  0.18477408D-08
  0.48074741D-09  0.57000196D-04  0.20460580D-02  0.32461223D-02  0.38546707D-02
  0.58331328D-03 -0.42452447D-02 -0.76372630D-14 -0.27414437D-12 -0.43493692D-12
 -0.51647425D-12 -0.78156168D-13  0.56880594D-12  0.25562214D-13  0.91757181D-12
  0.14557507D-11  0.17286593D-11  0.26159171D-12 -0.19038155D-11  0.73256843D-01
 -0.57841887D-11  0.23321671D-10  0.19787059D-04  0.10757790D-13 -0.42726962D-12
 -0.17739181D-04  0.29202302D-16 -0.12916455D-13 -0.18444216D-12 -0.13815864D-12
  0.32260079D-12 -0.97818804D-16  0.56717602D-03 -0.60430501D-13  0.82142667D-14
  0.17698656D-12 -0.18520082D-12 -0.34167639D-15 -0.27988894D-03  0.50419433D-13
 -0.10935866D-13 -0.11913167D-13  0.22849034D-13 -0.71763786D-16 -0.20450751D-04
  0.82015034D-14  0.82666905D-04 -0.18695357D-14 -0.85191055D-13 -0.31846531D-04
 -0.11241884D-13  0.18839586D-12 -0.21615418D-03  0.16850491D-13  0.67177310D-13
  0.67730574D-15  0.86769264D-05 -0.24666443D-14 -0.18174849D-13  0.27568302D-04
  0.37944041D-15  0.37306636D-13 -0.53599082D-04  0.70204925D-14  0.17217912D-13
  0.58685247D-15 -0.11186933D-09 -0.20852463D-09 -0.35349570D-09 -0.53524030D-09
 -0.66916827D-09 -0.57560471D-09 -0.22075679D-09 -0.76500818D-14 -0.10127276D-12
 -0.36784109D-12 -0.10911937D-11 -0.12573803D-11  0.15272756D-11 -0.10631991D-10
 -0.59697554D-12 -0.15785783D-12  0.64184148D-02  0.62770695D-02  0.41475252D-02
 -0.56167028D-13 -0.54930127D-13 -0.36294657D-13 -0.10662902D-11 -0.10428086D-11
 -0.68902770D-12  0.15095968D-02  0.46060496D-12 -0.97450520D-14  0.34412713D-03
  0.61877848D-14 -0.10158478D-12 -0.89360999D-06 -0.10533390D-13 -0.19276519D-13
  0.14502244D-12 -0.17141282D-12  0.26390384D-13 -0.35860199D-03 -0.14346248D-03
 -0.43433549D-12 -0.12966579D-12  0.11797317D-12  0.11692618D-13  0.10349323D-03
 -0.54778088D-04  0.44483043D-12 -0.49872965D-13  0.15998535D-13  0.33874430D-13
  0.93426218D-05  0.80349471D-04 -0.28542325D-13  0.39253513D-05 -0.10466853D-13
 -0.12778189D-12 -0.11005457D-03  0.19557553D-13  0.48261744D-13  0.98278515D-04
  0.11843005D-13  0.33508394D-12 -0.60222307D-03 -0.35590142D-05  0.43979827D-14
  0.15012166D-13  0.68981768D-04 -0.18493608D-12 -0.16946671D-12 -0.58304725D-04
  0.17174213D-12  0.12443021D-12  0.21991656D-03  0.69586040D-10  0.12970850D-09
  0.21988480D-09  0.33293533D-09  0.41624249D-09  0.35804318D-09  0.13731727D-09
  0.85217307D-14  0.11281176D-12  0.40975283D-12  0.12155241D-11  0.14006460D-11
 -0.17012932D-11  0.62401615D-11 -0.70800882D-12 -0.79067863D-14  0.64184148D-02
  0.62770695D-02  0.41475252D-02 -0.39280452D-11 -0.38415425D-11 -0.25382695D-11
  0.14042928D-11  0.13733677D-11  0.90744211D-12  0.15095968D-02 -0.30760081D-12
 -0.13487136D-12  0.34412713D-03 -0.18483606D-13 -0.38787893D-13 -0.89360999D-06
 -0.10437028D-13 -0.18724652D-13  0.10070165D-12 -0.97884469D-13 -0.28171781D-14
  0.35860199D-03 -0.14346248D-03  0.25467302D-12 -0.76741582D-13 -0.10959563D-13
  0.87701145D-13 -0.10349323D-03 -0.54778088D-04 -0.18096658D-12 -0.55237167D-13
 -0.41229146D-15  0.55649458D-13 -0.93426218D-05  0.80349471D-04  0.15073241D-13
  0.39253513D-05  0.11913086D-12 -0.15842027D-12 -0.11005457D-03 -0.35925597D-12
  0.16411514D-12  0.98278515D-04  0.18633883D-14  0.31114568D-12  0.60222307D-03