 f2cs-wavefunction
GAUSSIAN            188 MOL ORBITALS    330 PRIMITIVES        4 NUCLEI
  C    1    (CENTRE  1)   0.00000000  0.00000000 -0.98331710  CHARGE =  6.0
  S    2    (CENTRE  2)   0.00000000 -0.01889726  2.03811688  CHARGE = 16.0
  F    3    (CENTRE  3)   0.00000000 -1.99407870 -2.44821201  CHARGE =  9.0
  F    4    (CENTRE  4)   0.00000000  1.99407870 -2.44821201  CHARGE =  9.0
CENTRE ASSIGNMENTS    1  1  1  1  1  1  1  1  1  1  1  1  1  1  1  1  1  1  1  1
CENTRE ASSIGNMENTS    1  1  1  1  1  1  1  1  1  1  1  1  1  1  1  1  1  1  1  1
CENTRE ASSIGNMENTS    1  1  1  1  1  1  1  1  1  1  1  1  1  1  1  1  1  1  1  1
CENTRE ASSIGNMENTS    1  1  1  1  1  1  1  1  1  1  1  1  2  2  2  2  2  2  2  2
CENTRE ASSIGNMENTS    2  2  2  2  2  2  2  2  2  2  2  2  2  2  2  2  2  2  2  2
CENTRE ASSIGNMENTS    2  2  2  2  2  2  2  2  2  2  2  2  2  2  2  2  2  2  2  2
CENTRE ASSIGNMENTS    2  2  2  2  2  2  2  2  2  2  2  2  2  2  2  2  2  2  2  2
CENTRE ASSIGNMENTS    2  2  2  2  2  2  2  2  2  2  2  2  2  2  2  2  2  2  2  2
CENTRE ASSIGNMENTS    2  2  2  2  2  2  2  2  2  2  2  2  2  2  2  2  2  2  2  2
CENTRE ASSIGNMENTS    2  2  2  2  2  2  3  3  3  3  3  3  3  3  3  3  3  3  3  3
CENTRE ASSIGNMENTS    3  3  3  3  3  3  3  3  3  3  3  3  3  3  3  3  3  3  3  3
CENTRE ASSIGNMENTS    3  3  3  3  3  3  3  3  3  3  3  3  3  3  3  3  3  3  3  3
CENTRE ASSIGNMENTS    3  3  3  3  3  3  3  3  3  3  3  3  3  3  3  3  3  3  4  4
CENTRE ASSIGNMENTS    4  4  4  4  4  4  4  4  4  4  4  4  4  4  4  4  4  4  4  4
CENTRE ASSIGNMENTS    4  4  4  4  4  4  4  4  4  4  4  4  4  4  4  4  4  4  4  4
CENTRE ASSIGNMENTS    4  4  4  4  4  4  4  4  4  4  4  4  4  4  4  4  4  4  4  4
CENTRE ASSIGNMENTS    4  4  4  4  4  4  4  4  4  4
TYPE ASSIGNMENTS      1  1  1  1  1  1  1  1  1  1  1  1  1  1  1  1  2  2  2  3
TYPE ASSIGNMENTS      3  3  4  4  4  2  3  4  2  3  4  2  3  4  5  6  7  8  9 10
TYPE ASSIGNMENTS      5  6  7  8  9 10  5  6  7  8  9 10 11 12 13 17 14 15 18 19
TYPE ASSIGNMENTS     16 20 11 12 13 17 14 15 18 19 16 20  1  1  1  1  1  1  1  1
TYPE ASSIGNMENTS      1  1  1  1  1  1  1  1  1  1  1  1  1  1  1  1  1  1  1  1
TYPE ASSIGNMENTS      1  1  1  2  2  2  2  2  2  3  3  3  3  3  3  4  4  4  4  4
TYPE ASSIGNMENTS      4  2  2  2  2  2  2  3  3  3  3  3  3  4  4  4  4  4  4  2
TYPE ASSIGNMENTS      3  4  2  3  4  2  3  4  5  6  7  8  9 10  5  6  7  8  9 10
TYPE ASSIGNMENTS      5  6  7  8  9 10 11 12 13 17 14 15 18 19 16 20 11 12 13 17
TYPE ASSIGNMENTS     14 15 18 19 16 20  1  1  1  1  1  1  1  1  1  1  1  1  1  1
TYPE ASSIGNMENTS      1  1  2  2  2  3  3  3  4  4  4  2  3  4  2  3  4  2  3  4
TYPE ASSIGNMENTS      5  6  7  8  9 10  5  6  7  8  9 10  5  6  7  8  9 10 11 12
TYPE ASSIGNMENTS     13 17 14 15 18 19 16 20 11 12 13 17 14 15 18 19 16 20  1  1
TYPE ASSIGNMENTS      1  1  1  1  1  1  1  1  1  1  1  1  1  1  2  2  2  3  3  3
TYPE ASSIGNMENTS      4  4  4  2  3  4  2  3  4  2  3  4  5  6  7  8  9 10  5  6
TYPE ASSIGNMENTS      7  8  9 10  5  6  7  8  9 10 11 12 13 17 14 15 18 19 16 20
TYPE ASSIGNMENTS     11 12 13 17 14 15 18 19 16 20
EXPONENTS  0.8236000D+04 0.1235000D+04 0.2808000D+03 0.7927000D+02 0.2559000D+02
EXPONENTS  0.8997000D+01 0.3319000D+01 0.2808000D+03 0.7927000D+02 0.2559000D+02
EXPONENTS  0.8997000D+01 0.3319000D+01 0.3643000D+00 0.9059000D+00 0.1285000D+00
EXPONENTS  0.4402000D-01 0.1871000D+02 0.4133000D+01 0.1200000D+01 0.1871000D+02
EXPONENTS  0.4133000D+01 0.1200000D+01 0.1871000D+02 0.4133000D+01 0.1200000D+01
EXPONENTS  0.3827000D+00 0.3827000D+00 0.3827000D+00 0.1209000D+00 0.1209000D+00
EXPONENTS  0.1209000D+00 0.3569000D-01 0.3569000D-01 0.3569000D-01 0.1097000D+01
EXPONENTS  0.1097000D+01 0.1097000D+01 0.1097000D+01 0.1097000D+01 0.1097000D+01
EXPONENTS  0.3180000D+00 0.3180000D+00 0.3180000D+00 0.3180000D+00 0.3180000D+00
EXPONENTS  0.3180000D+00 0.1000000D+00 0.1000000D+00 0.1000000D+00 0.1000000D+00
EXPONENTS  0.1000000D+00 0.1000000D+00 0.7610000D+00 0.7610000D+00 0.7610000D+00
EXPONENTS  0.7610000D+00 0.7610000D+00 0.7610000D+00 0.7610000D+00 0.7610000D+00
EXPONENTS  0.7610000D+00 0.7610000D+00 0.2680000D+00 0.2680000D+00 0.2680000D+00
EXPONENTS  0.2680000D+00 0.2680000D+00 0.2680000D+00 0.2680000D+00 0.2680000D+00
EXPONENTS  0.2680000D+00 0.2680000D+00 0.3741000D+06 0.5605000D+05 0.1276000D+05
EXPONENTS  0.3615000D+04 0.1183000D+04 0.4288000D+03 0.1678000D+03 0.6947000D+02
EXPONENTS  0.2984000D+02 0.1272000D+02 0.5244000D+01 0.3615000D+04 0.1183000D+04
EXPONENTS  0.4288000D+03 0.1678000D+03 0.6947000D+02 0.2984000D+02 0.1272000D+02
EXPONENTS  0.5244000D+01 0.2219000D+01 0.1183000D+04 0.1678000D+03 0.6947000D+02
EXPONENTS  0.2984000D+02 0.1272000D+02 0.5244000D+01 0.2219000D+01 0.3490000D+00
EXPONENTS  0.7767000D+00 0.1322000D+00 0.4970000D-01 0.5744000D+03 0.1358000D+03
EXPONENTS  0.4319000D+02 0.1587000D+02 0.6208000D+01 0.2483000D+01 0.5744000D+03
EXPONENTS  0.1358000D+03 0.4319000D+02 0.1587000D+02 0.6208000D+01 0.2483000D+01
EXPONENTS  0.5744000D+03 0.1358000D+03 0.4319000D+02 0.1587000D+02 0.6208000D+01
EXPONENTS  0.2483000D+01 0.1358000D+03 0.4319000D+02 0.1587000D+02 0.6208000D+01
EXPONENTS  0.2483000D+01 0.3229000D+00 0.1358000D+03 0.4319000D+02 0.1587000D+02
EXPONENTS  0.6208000D+01 0.2483000D+01 0.3229000D+00 0.1358000D+03 0.4319000D+02
EXPONENTS  0.1587000D+02 0.6208000D+01 0.2483000D+01 0.3229000D+00 0.8688000D+00
EXPONENTS  0.8688000D+00 0.8688000D+00 0.1098000D+00 0.1098000D+00 0.1098000D+00
EXPONENTS  0.3510000D-01 0.3510000D-01 0.3510000D-01 0.2690000D+00 0.2690000D+00
EXPONENTS  0.2690000D+00 0.2690000D+00 0.2690000D+00 0.2690000D+00 0.8190000D+00
EXPONENTS  0.8190000D+00 0.8190000D+00 0.8190000D+00 0.8190000D+00 0.8190000D+00
EXPONENTS  0.1010000D+00 0.1010000D+00 0.1010000D+00 0.1010000D+00 0.1010000D+00
EXPONENTS  0.1010000D+00 0.5570000D+00 0.5570000D+00 0.5570000D+00 0.5570000D+00
EXPONENTS  0.5570000D+00 0.5570000D+00 0.5570000D+00 0.5570000D+00 0.5570000D+00
EXPONENTS  0.5570000D+00 0.2180000D+00 0.2180000D+00 0.2180000D+00 0.2180000D+00
EXPONENTS  0.2180000D+00 0.2180000D+00 0.2180000D+00 0.2180000D+00 0.2180000D+00
EXPONENTS  0.2180000D+00 0.1950000D+05 0.2923000D+04 0.6645000D+03 0.1875000D+03
EXPONENTS  0.6062000D+02 0.2142000D+02 0.7950000D+01 0.6645000D+03 0.1875000D+03
EXPONENTS  0.6062000D+02 0.2142000D+02 0.7950000D+01 0.8815000D+00 0.2257000D+01
EXPONENTS  0.3041000D+00 0.9158000D-01 0.4388000D+02 0.9926000D+01 0.2930000D+01
EXPONENTS  0.4388000D+02 0.9926000D+01 0.2930000D+01 0.4388000D+02 0.9926000D+01
EXPONENTS  0.2930000D+01 0.9132000D+00 0.9132000D+00 0.9132000D+00 0.2672000D+00
EXPONENTS  0.2672000D+00 0.2672000D+00 0.7361000D-01 0.7361000D-01 0.7361000D-01
EXPONENTS  0.3107000D+01 0.3107000D+01 0.3107000D+01 0.3107000D+01 0.3107000D+01
EXPONENTS  0.3107000D+01 0.8550000D+00 0.8550000D+00 0.8550000D+00 0.8550000D+00
EXPONENTS  0.8550000D+00 0.8550000D+00 0.2920000D+00 0.2920000D+00 0.2920000D+00
EXPONENTS  0.2920000D+00 0.2920000D+00 0.2920000D+00 0.1917000D+01 0.1917000D+01
EXPONENTS  0.1917000D+01 0.1917000D+01 0.1917000D+01 0.1917000D+01 0.1917000D+01
EXPONENTS  0.1917000D+01 0.1917000D+01 0.1917000D+01 0.7240000D+00 0.7240000D+00
EXPONENTS  0.7240000D+00 0.7240000D+00 0.7240000D+00 0.7240000D+00 0.7240000D+00
EXPONENTS  0.7240000D+00 0.7240000D+00 0.7240000D+00 0.1950000D+05 0.2923000D+04
EXPONENTS  0.6645000D+03 0.1875000D+03 0.6062000D+02 0.2142000D+02 0.7950000D+01
EXPONENTS  0.6645000D+03 0.1875000D+03 0.6062000D+02 0.2142000D+02 0.7950000D+01
EXPONENTS  0.8815000D+00 0.2257000D+01 0.3041000D+00 0.9158000D-01 0.4388000D+02
EXPONENTS  0.9926000D+01 0.2930000D+01 0.4388000D+02 0.9926000D+01 0.2930000D+01
EXPONENTS  0.4388000D+02 0.9926000D+01 0.2930000D+01 0.9132000D+00 0.9132000D+00
EXPONENTS  0.9132000D+00 0.2672000D+00 0.2672000D+00 0.2672000D+00 0.7361000D-01
EXPONENTS  0.7361000D-01 0.7361000D-01 0.3107000D+01 0.3107000D+01 0.3107000D+01
EXPONENTS  0.3107000D+01 0.3107000D+01 0.3107000D+01 0.8550000D+00 0.8550000D+00
EXPONENTS  0.8550000D+00 0.8550000D+00 0.8550000D+00 0.8550000D+00 0.2920000D+00
EXPONENTS  0.2920000D+00 0.2920000D+00 0.2920000D+00 0.2920000D+00 0.2920000D+00
EXPONENTS  0.1917000D+01 0.1917000D+01 0.1917000D+01 0.1917000D+01 0.1917000D+01
EXPONENTS  0.1917000D+01 0.1917000D+01 0.1917000D+01 0.1917000D+01 0.1917000D+01
EXPONENTS  0.7240000D+00 0.7240000D+00 0.7240000D+00 0.7240000D+00 0.7240000D+00
EXPONENTS  0.7240000D+00 0.7240000D+00 0.7240000D+00 0.7240000D+00 0.7240000D+00
MO    1     MO 0.0        OCC NO =    2.0000305  ORB. ENERGY =    0.000000
 -0.52530891D-03 -0.97928164D-03 -0.16551194D-02 -0.24879531D-02 -0.30560048D-02
 -0.25791602D-02 -0.96983161D-03 -0.12741255D-06 -0.95232990D-06 -0.35590743D-05
 -0.99292631D-05 -0.13302475D-04  0.15707743D-04 -0.38078786D-04 -0.49310530D-05
  0.10985191D-05 -0.31560488D-12 -0.29589963D-12 -0.21069817D-12 -0.30465267D-02
 -0.28563124D-02 -0.20338646D-02  0.37726106D-04  0.35370622D-04  0.25185990D-04
 -0.55604621D-13 -0.15633318D-02  0.51821531D-05 -0.76310710D-14  0.61056316D-03
 -0.35363694D-05  0.26036840D-15 -0.13555190D-04  0.11979681D-06  0.20192562D-05
  0.26325976D-05 -0.46518538D-05 -0.21555623D-14 -0.76586419D-13 -0.10195418D-02
 -0.51168654D-06  0.13900748D-05 -0.87838822D-06 -0.26524703D-14  0.32649103D-13
  0.39719583D-03 -0.16490827D-06  0.58053785D-06 -0.41562958D-06 -0.31007278D-15
 -0.26012783D-14 -0.22587021D-03  0.65838437D-14  0.24068554D-03 -0.25659513D-05
  0.56997998D-14  0.35917440D-03 -0.45323112D-05 -0.25451331D-13 -0.10812310D-02
  0.12230165D-04 -0.23861555D-14 -0.28800684D-14 -0.13711840D-03  0.35011146D-05
 -0.48854897D-14 -0.12877410D-03 -0.61012876D-06  0.13525695D-13  0.54012929D-03
 -0.98932151D-05  0.19416491D-14 -0.38791856D-03 -0.72525282D-03 -0.12534524D-02
 -0.20274077D-02 -0.30643588D-02 -0.42202565D-02 -0.49329660D-02 -0.42634028D-02
 -0.19897523D-02 -0.26956777D-03  0.19716575D-05 -0.47851380D-05 -0.61512468D-04
 -0.22438864D-03 -0.75708171D-03 -0.16628912D-02 -0.21480018D-02  0.34520216D-03
  0.28958358D-02  0.15891974D-02 -0.55036941D-07 -0.62690497D-06 -0.13016807D-05
 -0.35792913D-05  0.46409623D-06  0.16183925D-04  0.40365280D-04 -0.33413794D-04
  0.88026452D-04  0.63640944D-05 -0.57078808D-06  0.73412117D-09  0.96312522D-09
  0.10563399D-08  0.86912467D-09  0.45815311D-09  0.11920282D-09  0.97645133D+01
  0.12810486D+02  0.14050331D+02  0.11560189D+02  0.60938743D+01  0.15855115D+01
  0.12836020D+00  0.16840128D+00  0.18469976D+00  0.15196540D+00  0.80107517D-01
  0.20842469D-01  0.44064667D-14  0.15817290D-12  0.25094527D-12  0.29798981D-12
  0.45093713D-13 -0.32818359D-12  0.94735033D-04  0.34005738D-02  0.53950956D-02
  0.64065105D-02  0.96947390D-03 -0.70556493D-02  0.11839542D-05  0.42498782D-04
  0.67425383D-04  0.80065574D-04  0.12116032D-04 -0.88178208D-04  0.55348033D-11
  0.67596797D-01  0.90279548D-03  0.18813284D-14 -0.37954000D-03 -0.93545097D-05
 -0.13983264D-14 -0.71084874D-05 -0.13589213D-06 -0.20625225D-05 -0.78610850D-05
  0.99236075D-05 -0.10370154D-14  0.44486617D-13  0.96153837D-03  0.16235385D-05
  0.36121910D-05 -0.52357295D-05  0.91393492D-15 -0.16177663D-13 -0.55554571D-03
 -0.27386954D-06  0.88119102D-07  0.18575044D-06  0.10085227D-15 -0.16646143D-14
 -0.42014881D-04  0.68769892D-14  0.34992330D-04 -0.12659038D-05 -0.21103055D-14
  0.10985863D-03  0.74182859D-06 -0.18520662D-13 -0.21483562D-03  0.30558828D-05
  0.20118246D-15  0.64358887D-15  0.34755396D-04 -0.10642398D-05  0.20472031D-14
  0.16373418D-04  0.62166827D-06 -0.39779697D-14 -0.12063961D-03  0.25710510D-05
  0.39366414D-15  0.51731511D-02  0.96427625D-02  0.16346631D-01  0.24751010D-01
  0.30944214D-01  0.26617573D-01  0.10208412D-01 -0.62823099D-06 -0.83166020D-05
 -0.30207412D-04 -0.89609717D-04 -0.10325710D-03  0.12542113D-03  0.59515259D-03
  0.75913280D-04  0.85188058D-03  0.47368296D-12  0.46325159D-12  0.30608991D-12
 -0.13077369D-02 -0.12789381D-02 -0.84504848D-03 -0.39232223D-02 -0.38368258D-02
 -0.25351530D-02  0.11367850D-12 -0.39144311D-03 -0.10846862D-02  0.19823706D-13
 -0.14637003D-03 -0.75430422D-03 -0.63687297D-15  0.92306947D-04  0.11102720D-04
  0.26956968D-04  0.23986395D-04 -0.50943363D-04 -0.36987237D-14 -0.27489088D-13
  0.26417566D-03 -0.57590325D-04 -0.13231080D-03  0.18990113D-03  0.89049406D-14
 -0.76198991D-14 -0.14618926D-03  0.10925362D-03 -0.19859947D-04 -0.89393676D-04
 -0.30843385D-14  0.41958056D-14 -0.28259828D-03 -0.49300860D-14 -0.32910956D-04
 -0.54749916D-04  0.16602819D-13 -0.33092016D-03  0.12446741D-04 -0.18125605D-14
  0.42965303D-03  0.15180301D-03 -0.35320600D-13  0.11244022D-14 -0.61223433D-04
  0.95929985D-04  0.22454353D-14  0.19783712D-03 -0.41491455D-04 -0.56186420D-14
 -0.14166821D-04 -0.24629850D-03  0.10886016D-13 -0.49724732D-02 -0.92686986D-02
 -0.15712509D-01 -0.23790864D-01 -0.29743820D-01 -0.25585019D-01 -0.98124053D-02
  0.67911746D-06  0.89902435D-05  0.32654200D-04  0.96868070D-04  0.11162089D-03
 -0.13558019D-03 -0.58038333D-03 -0.98535866D-04 -0.85467975D-03  0.44942353D-12
  0.43952640D-12  0.29041368D-12 -0.12974992D-02 -0.12689259D-02 -0.83843298D-03
  0.38855955D-02  0.38000275D-02  0.25108389D-02  0.10623650D-12 -0.38600018D-03
  0.10812635D-02  0.23767227D-13 -0.15014819D-03  0.74052923D-03 -0.29069517D-15
  0.92124165D-04 -0.11691244D-04 -0.21225584D-04 -0.30723488D-04  0.51949072D-04
  0.12994166D-13 -0.26241423D-13  0.26262424D-03  0.51227000D-04  0.13303580D-03
 -0.18426280D-03 -0.83256652D-14 -0.62900197D-14 -0.15221910D-03 -0.11120089D-03
  0.23095343D-04  0.88105542D-04  0.11431339D-14  0.58400871D-14 -0.27541882D-03
 -0.51454008D-14 -0.21586018D-04  0.54205598D-04 -0.47860954D-14 -0.33154745D-03
 -0.27476389D-04  0.20222298D-13  0.39630550D-03 -0.13514040D-03  0.27893544D-13
  0.13218165D-14 -0.65304997D-04 -0.94427377D-04  0.33593841D-14  0.20154934D-03
  0.42548423D-04 -0.73248335D-14 -0.56343469D-05  0.24073371D-03 -0.12553440D-13
MO    2     MO 0.0        OCC NO =    2.0000247  ORB. ENERGY =    0.000000
 -0.59325827D-01 -0.11059529D+00 -0.18692111D+00 -0.28097730D+00 -0.34513028D+00
 -0.29127778D+00 -0.10952805D+00 -0.94574918D-05 -0.70688892D-04 -0.26418053D-03
 -0.73702254D-03 -0.98740701D-03  0.11659436D-02 -0.44990243D-02 -0.13843873D-02
 -0.56490080D-04  0.39978459D-12  0.37482347D-12  0.26689664D-12  0.99673007D-05
  0.93449780D-05  0.66541810D-05  0.29459921D-02  0.27620549D-02  0.19667476D-02
  0.67704588D-13  0.96246895D-05 -0.42013226D-03  0.98634254D-14  0.49304983D-05
 -0.93812860D-03 -0.24413133D-15  0.87955784D-07  0.78427658D-05  0.25977442D-03
 -0.10472935D-03 -0.15504507D-03 -0.26245300D-14  0.10913312D-12  0.86443927D-05
  0.10322876D-03  0.15500913D-03 -0.25823790D-03  0.66355244D-14 -0.41901801D-13
  0.77316733D-05  0.17127830D-04  0.61920244D-04 -0.79048074D-04  0.58058860D-17
  0.24839486D-14  0.28969982D-05 -0.80881126D-14 -0.26430913D-05 -0.36028842D-04
 -0.93592114D-14 -0.39769995D-06 -0.10101492D-03  0.33623549D-13  0.83269739D-05
  0.20910145D-03 -0.44881640D-14  0.37138107D-14  0.36430330D-05  0.46884611D-04
  0.62785709D-14 -0.11191862D-06  0.26134972D-04 -0.17420003D-13 -0.10817180D-04
 -0.16678881D-03 -0.23226389D-14 -0.12696289D+00 -0.23736990D+00 -0.41024575D+00
 -0.66355559D+00 -0.10029421D+01 -0.13812589D+01 -0.16145234D+01 -0.13953803D+01
 -0.65123126D+00 -0.88227546D-01  0.64530898D-03 -0.15828452D-02 -0.20347316D-01
 -0.74224083D-01 -0.25043022D+00 -0.55005712D+00 -0.71052377D+00  0.11418721D+00
  0.95789501D+00  0.52568043D+00 -0.13254595D-04 -0.15097808D-03 -0.31348491D-03
 -0.86200389D-03  0.11176870D-03  0.38975890D-02  0.97212061D-02 -0.80470736D-02
  0.29243665D-01  0.15631755D-02  0.75062696D-04 -0.10138025D-08 -0.13300512D-08
 -0.14587783D-08 -0.12002388D-08 -0.63269767D-09 -0.16461603D-09 -0.10131785D+00
 -0.13292326D+00 -0.14578805D+00 -0.11995002D+00 -0.63230829D-01 -0.16451472D-01
  0.62342142D+01  0.81789345D+01  0.89705211D+01  0.73806745D+01  0.38906719D+01
  0.10122797D+01 -0.59493233D-14 -0.21355471D-12 -0.33880991D-12 -0.40232637D-12
 -0.60882584D-13  0.44309204D-12 -0.96222684D-06 -0.34539740D-04 -0.54798163D-04
 -0.65071138D-04 -0.98469782D-05  0.71664462D-04  0.57855630D-04  0.20767643D-02
  0.32948387D-02  0.39125199D-02  0.59206738D-03 -0.43089555D-02 -0.76428120D-11
 -0.73305798D-03  0.46082554D-01 -0.95015059D-15  0.59594951D-05 -0.79374977D-03
  0.19335780D-14  0.17369253D-07 -0.63613248D-05 -0.25909436D-03 -0.14589293D-03
  0.40498728D-03  0.69962229D-15 -0.59283598D-13 -0.14603343D-04  0.15159365D-03
 -0.37154383D-03  0.21995018D-03 -0.11885366D-14  0.27653974D-13 -0.97139908D-05
 -0.14737644D-04 -0.27377053D-04  0.42114697D-04  0.25514944D-16  0.16751749D-14
 -0.44954676D-06 -0.83518592D-14 -0.83224196D-06 -0.88629484D-04  0.32890719D-14
 -0.19379797D-05  0.21770446D-03  0.21766506D-13  0.44347056D-05  0.48183990D-04
 -0.11462409D-14 -0.98934307D-15 -0.47400637D-06 -0.22216074D-04 -0.28210991D-14
 -0.31542220D-06  0.32035644D-04  0.57891283D-14  0.17374413D-05  0.34612579D-04
 -0.28056717D-15  0.66205172D-02  0.12340655D-01  0.20920160D-01  0.31675952D-01
  0.39601916D-01  0.34064750D-01  0.13064565D-01  0.15594683D-05  0.20644440D-04
  0.74984362D-04  0.22243970D-03  0.25631682D-03 -0.31133496D-03  0.51784662D-03
 -0.39280658D-03 -0.25915920D-03 -0.80037629D-12 -0.78275053D-12 -0.51719637D-12
  0.14865082D-03  0.14537726D-03  0.96056900D-04 -0.89099848D-03 -0.87137705D-03
 -0.57575566D-03 -0.18811089D-12 -0.81874531D-04 -0.37187425D-03 -0.32248241D-13
 -0.35094142D-05 -0.70131901D-04 -0.11391545D-15 -0.53521521D-05 -0.59823318D-04
  0.37750892D-04 -0.10289124D-03  0.65140344D-04  0.12658831D-13 -0.10726949D-13
 -0.26819690D-04 -0.23193824D-04  0.90804609D-05  0.14113363D-04 -0.58970887D-14
  0.10423714D-13  0.94504954D-04 -0.46226422D-04  0.75500461D-05  0.38676376D-04
  0.29155247D-14 -0.48767183D-14 -0.21363961D-04  0.50220171D-14 -0.79250691D-04
 -0.10712939D-03 -0.11056863D-13  0.11386259D-03  0.15916175D-04 -0.40091880D-14
  0.12388949D-03  0.30547199D-03  0.16347873D-13 -0.24494423D-14  0.16370080D-04
  0.44039220D-04  0.16259917D-18 -0.99206632D-04 -0.74702540D-04  0.73481643D-14
  0.50096393D-04 -0.57415120D-04 -0.76234988D-14  0.66552929D-02  0.12405477D-01
  0.21030048D-01  0.31842337D-01  0.39809934D-01  0.34243682D-01  0.13133189D-01
  0.15389892D-05  0.20373335D-04  0.73999661D-04  0.21951860D-03  0.25295085D-03
 -0.30724648D-03  0.52411008D-03 -0.38342412D-03 -0.24899474D-03 -0.74621076D-12
 -0.72977783D-12 -0.48219507D-12 -0.11875890D-03 -0.11614361D-03 -0.76740993D-04
 -0.96246005D-03 -0.94126491D-03 -0.62193352D-03 -0.17713652D-12  0.87184958D-04
 -0.39197137D-03 -0.37740840D-13 -0.14066513D-04 -0.94469713D-04  0.93583936D-16
  0.42732870D-05 -0.60410675D-04  0.35258559D-04 -0.10752281D-03  0.72264254D-04
 -0.48889424D-13 -0.18618253D-13  0.25973747D-04 -0.21519806D-04  0.10656133D-04
  0.10863673D-04  0.10754168D-13  0.31716118D-14 -0.90717744D-04 -0.45835401D-04
  0.13476967D-04  0.32358434D-04  0.65857193D-15 -0.76904607D-14  0.23202665D-04
  0.25481392D-14  0.79237266D-04 -0.10865475D-03 -0.18462228D-14 -0.10954649D-03
  0.26794549D-04 -0.57981948D-14 -0.12816531D-03  0.29916972D-03 -0.59212688D-13
 -0.16118294D-14 -0.15954870D-04  0.44635205D-04 -0.40807208D-14  0.96558749D-04
 -0.78145739D-04  0.89162090D-14 -0.48694140D-04 -0.55759874D-04  0.18120017D-13
MO    3     MO 0.0        OCC NO =    2.0000101  ORB. ENERGY =    0.000000
  0.19858029D+00  0.37019367D+00  0.62567774D+00  0.94051034D+00  0.11552485D+01
  0.97498898D+00  0.36662132D+00  0.26907729D-04  0.20111861D-03  0.75162616D-03
  0.20969199D-02  0.28092946D-02 -0.33172531D-02  0.15842753D-01  0.35088382D-03
  0.13345818D-03 -0.81125840D-11 -0.76060632D-11 -0.54159701D-11  0.22671412D-04
  0.21255890D-04  0.15135460D-04 -0.73365612D-02 -0.68784924D-02 -0.48978964D-02
 -0.16185018D-11 -0.82976438D-05  0.59775988D-03 -0.25173476D-12 -0.52170919D-05
  0.53602128D-03  0.41570916D-14 -0.26524573D-07  0.65095543D-05 -0.68213418D-03
  0.55283992D-03  0.12929426D-03  0.11710328D-13 -0.20456224D-11 -0.34754048D-05
  0.20620551D-03 -0.24547211D-03  0.39266598D-04 -0.10229032D-13  0.94248006D-12
 -0.55153846D-05 -0.92459258D-05 -0.38385023D-04  0.47630949D-04  0.51882364D-16
 -0.56897410D-13 -0.16623973D-05  0.21124822D-12  0.73299741D-06 -0.73266936D-05
  0.82954341D-13 -0.91278612D-06  0.25996760D-03 -0.71669901D-12 -0.12862061D-05
 -0.23798752D-03  0.12174480D-13 -0.63043446D-13 -0.66783134D-05 -0.14804655D-03
 -0.14779534D-12  0.76556938D-06  0.17507829D-06  0.33692568D-12  0.19269371D-04
  0.44396458D-03 -0.18717754D-14 -0.99305583D-01 -0.18566179D+00 -0.32087876D+00
 -0.51900816D+00 -0.78446347D+00 -0.10803686D+01 -0.12628194D+01 -0.10914139D+01
 -0.50936854D+00 -0.69008260D-01  0.50473635D-03 -0.12517679D-02 -0.16091350D-01
 -0.58698931D-01 -0.19804874D+00 -0.43500389D+00 -0.56190638D+00  0.90303136D-01
  0.75753598D+00  0.41572597D+00 -0.54997956D-05 -0.62646091D-04 -0.13007587D-03
 -0.35767560D-03  0.46376749D-04  0.16172462D-02  0.40336688D-02 -0.33390126D-02
  0.24970854D-01 -0.17611620D-02 -0.19272278D-03  0.19824918D-07  0.26009165D-07
  0.28526425D-07  0.23470683D-07  0.12372410D-07  0.32190683D-08  0.62892800D-01
  0.82511778D-01  0.90497563D-01  0.74458668D-01  0.39250376D-01  0.10212210D-01
 -0.50355075D+01 -0.66062995D+01 -0.72456808D+01 -0.59615279D+01 -0.31425785D+01
 -0.81763982D+00  0.11692293D-12  0.41970225D-11  0.66586814D-11  0.79069800D-11
  0.11965345D-11 -0.87081537D-11  0.60117408D-06  0.21579523D-04  0.34236454D-04
  0.40654739D-04  0.61521336D-05 -0.44774076D-04 -0.40943240D-04 -0.14696834D-02
 -0.23316896D-02 -0.27688099D-02 -0.41899392D-03  0.30493592D-02  0.14937610D-09
  0.48577481D-03 -0.39571866D-01  0.39506348D-13 -0.30217655D-05  0.43517566D-03
 -0.36225274D-13 -0.35708705D-07  0.63032956D-05  0.27889338D-03  0.20488449D-03
 -0.48377787D-03 -0.92587047D-14  0.11691895D-11  0.17915456D-04 -0.30920283D-04
 -0.29526576D-03  0.32618604D-03  0.92873257D-14 -0.51708713D-12 -0.96023504D-05
  0.85796096D-05  0.97132197D-05 -0.18292829D-04  0.28584782D-15 -0.41387060D-13
  0.20986178D-06  0.16923708D-12  0.13813338D-05  0.11309130D-03 -0.62696411D-13
  0.18692192D-05 -0.27381802D-03 -0.44501484D-12 -0.60132206D-05 -0.65455894D-04
  0.44572922D-14  0.17918748D-13  0.47259013D-06  0.27183609D-04  0.56763972D-13
  0.63698126D-06 -0.56074070D-04 -0.11052022D-12 -0.20547516D-05 -0.25476758D-04
  0.27461450D-14 -0.51850719D-01 -0.96649830D-01 -0.16384299D+00 -0.24808045D+00
 -0.31015520D+00 -0.26678909D+00 -0.10231936D+00 -0.82241922D-05 -0.10887291D-03
 -0.39544620D-03 -0.11730837D-02 -0.13517420D-02  0.16418920D-02 -0.44502916D-02
  0.11019182D-02  0.14597807D-03  0.12892297D-10  0.12608385D-10  0.83308932D-11
 -0.46491777D-02 -0.45467942D-02 -0.30042592D-02 -0.11893828D-02 -0.11631904D-02
 -0.76856910D-03  0.30317700D-11 -0.49478084D-03  0.21805930D-03  0.70224033D-12
 -0.38333350D-04  0.17714240D-03 -0.18393320D-14 -0.27541568D-05  0.28308643D-04
 -0.15483274D-03  0.16721122D-03 -0.12378478D-04 -0.77059453D-12 -0.30496604D-12
  0.41263181D-03  0.11111945D-03 -0.33096108D-04 -0.78023338D-04  0.20790753D-12
 -0.12201020D-12 -0.29312832D-03  0.82928459D-04 -0.21890123D-04 -0.61038336D-04
  0.24506600D-13  0.16253747D-12  0.72326480D-04  0.19330360D-13  0.11127542D-03
  0.22910820D-03 -0.26058455D-12 -0.34906035D-03 -0.21885550D-03  0.20259347D-12
  0.15234083D-04 -0.46846908D-03 -0.12393687D-11 -0.99744665D-14 -0.23274301D-04
 -0.68350638D-04  0.15470905D-12  0.31496022D-03  0.26920451D-03 -0.12478565D-12
 -0.24513731D-03 -0.64152597D-04  0.44227252D-12 -0.51687998D-01 -0.96346518D-01
 -0.16332881D+00 -0.24730191D+00 -0.30918186D+00 -0.26595184D+00 -0.10199825D+00
 -0.81808743D-05 -0.10829946D-03 -0.39336333D-03 -0.11669049D-02 -0.13446222D-02
  0.16332440D-02 -0.44385186D-02  0.10902396D-02  0.14384018D-03  0.13085914D-10
  0.12797739D-10  0.84560070D-11  0.46287269D-02  0.45267938D-02  0.29910441D-02
 -0.11943970D-02 -0.11680941D-02 -0.77180919D-03  0.30746454D-11  0.49382874D-03
  0.22463580D-03  0.71454468D-12  0.70823894D-04  0.21589867D-03 -0.16952039D-14
  0.28076009D-05  0.28845047D-04 -0.15155871D-03  0.17795389D-03 -0.26395182D-04
  0.77108748D-12 -0.32108057D-12 -0.41189561D-03  0.10745778D-03 -0.40168230D-04
 -0.67289552D-04 -0.21486223D-12 -0.11082710D-12  0.28762043D-03  0.82477123D-04
 -0.34242422D-04 -0.48234701D-04 -0.28258983D-13  0.16682666D-12 -0.75827448D-04
  0.21844893D-13 -0.11328377D-03  0.22939563D-03 -0.27654738D-12  0.34743819D-03
 -0.23605003D-03  0.21101270D-12 -0.75868930D-05 -0.45213687D-03  0.12512005D-11
 -0.12933378D-13  0.25390657D-04 -0.66491593D-04  0.16031847D-12 -0.31419483D-03
  0.27314743D-03 -0.12151834D-12  0.23802286D-03 -0.73672653D-04 -0.46022043D-12
MO    4     MO 0.0        OCC NO =    2.0000090  ORB. ENERGY =    0.000000
 -0.48808289D-09 -0.90988484D-09 -0.15378293D-08 -0.23116443D-08 -0.28394410D-08
 -0.23963880D-08 -0.90110449D-09 -0.61843820D-13 -0.46224424D-12 -0.17275123D-11
 -0.48194902D-11 -0.64567881D-11  0.76242628D-11 -0.38829459D-10 -0.16035495D-11
 -0.47499820D-12 -0.39854133D-02 -0.37365783D-02 -0.26606663D-02  0.17506719D-12
  0.16413662D-12  0.11687505D-12  0.16227767D-10  0.15214564D-10  0.10833676D-10
 -0.79018247D-03  0.21850014D-12 -0.12796224D-11 -0.12196441D-03 -0.74604834D-13
 -0.16361860D-11  0.20123587D-05  0.41949747D-14 -0.22541860D-13  0.18560615D-11
 -0.14312998D-11 -0.42476179D-12  0.27207414D-05 -0.10067584D-02 -0.14559008D-12
 -0.33084052D-12  0.46458279D-12 -0.13374228D-12 -0.28073537D-05  0.46227972D-03
 -0.13189303D-12  0.26538659D-13  0.10264490D-12 -0.12918356D-12  0.23834407D-07
 -0.27571345D-04  0.43614799D-13  0.10238714D-03 -0.18400831D-14 -0.20652058D-12
  0.43337600D-04 -0.17695288D-12 -0.70073261D-12 -0.35049901D-03  0.18247313D-12
  0.13202944D-11  0.89582899D-05 -0.31239181D-04  0.62809509D-14  0.26615110D-12
 -0.72511107D-04  0.18406212D-14  0.56906899D-13  0.16622865D-03 -0.20683474D-13
 -0.85536021D-12 -0.32925471D-05  0.23382557D-09  0.43716046D-09  0.75554321D-09
  0.12220600D-08  0.18471028D-08  0.25438430D-08  0.29734427D-08  0.25698502D-08
  0.11993625D-08  0.16248730D-09 -0.11884555D-11  0.22794879D-11  0.29302588D-10
  0.10689163D-09  0.36064970D-09  0.79214857D-09  0.10232399D-08 -0.16444336D-09
 -0.13794843D-08 -0.75704319D-09  0.97901661D-14  0.11151608D-12  0.23154758D-12
  0.63669703D-12 -0.82555082D-13 -0.28788540D-11 -0.71803191D-11  0.59437642D-11
 -0.45679730D-10  0.44653254D-11  0.66723014D-12  0.97275796D+01  0.12762031D+02
  0.13997186D+02  0.11516463D+02  0.60708246D+01  0.15795144D+01 -0.82604447D-09
 -0.10837234D-08 -0.11886100D-08 -0.97795249D-09 -0.51552095D-09 -0.13412885D-09
  0.98000463D-08  0.12857103D-07  0.14101460D-07  0.11602256D-07  0.61160499D-08
  0.15912811D-08  0.57405689D-04  0.20606134D-02  0.32692149D-02  0.38820924D-02
  0.58746290D-03 -0.42754449D-02 -0.80003225D-14 -0.28717662D-12 -0.45561291D-12
 -0.54102636D-12 -0.81871548D-13  0.59584579D-12  0.88668374D-13  0.31828072D-11
  0.50496035D-11  0.59962492D-11  0.90739056D-12 -0.66038184D-11  0.73295800D-01
 -0.58033283D-11  0.76643751D-10  0.18200837D-04  0.76897948D-14 -0.12388808D-11
 -0.17768107D-04 -0.11286953D-14 -0.25092391D-13 -0.59787690D-12 -0.43455454D-12
  0.10324314D-11 -0.37264133D-05  0.57555751D-03 -0.94806351D-13 -0.59542942D-13
  0.39674430D-12 -0.33720135D-12  0.32319871D-05 -0.25510509D-03  0.44495042D-13
 -0.25187619D-13 -0.31799122D-13  0.56986741D-13  0.16841784D-06 -0.20070742D-04
  0.77910451D-14  0.83299151D-04 -0.53505548D-14 -0.30998224D-12 -0.31026249D-04
 -0.13499236D-13  0.66122549D-12 -0.21887120D-03  0.29550900D-13  0.26872123D-12
  0.24982378D-05  0.88764358D-05 -0.34415407D-14 -0.51990298D-13  0.27877667D-04
 -0.10349267D-14  0.10885903D-12 -0.54506975D-04  0.11359549D-13  0.47111863D-13
  0.88010363D-06 -0.21998490D-09 -0.41005224D-09 -0.69512990D-09 -0.10525207D-08
 -0.13158827D-08 -0.11318951D-08 -0.43410612D-09 -0.11863496D-13 -0.15705048D-12
 -0.57043591D-12 -0.16921874D-11 -0.19499042D-11  0.23684490D-11 -0.21269240D-10
 -0.22574840D-11 -0.48478344D-12  0.63950834D-02  0.62542519D-02  0.41324487D-02
  0.33721847D-11  0.32979230D-11  0.21790772D-11 -0.10905902D-11 -0.10665734D-11
 -0.70473014D-12  0.15032023D-02  0.14115148D-11  0.24306094D-14  0.34754086D-03
 -0.68396884D-13 -0.32856039D-12 -0.82006988D-06 -0.16352840D-13 -0.76709275D-13
  0.45656560D-12 -0.47827880D-12  0.21713202D-13 -0.36345810D-03 -0.14494604D-03
 -0.13684714D-11 -0.40321782D-12  0.25380137D-12  0.14941645D-12  0.10081537D-03
 -0.58670865D-04  0.13340544D-11 -0.16063778D-12  0.20635080D-13  0.14000270D-12
  0.12384217D-04  0.79652915D-04 -0.11194472D-12  0.78382628D-05 -0.13025363D-12
 -0.41918749D-12 -0.12507237D-03  0.34140233D-12  0.19734494D-12  0.10155758D-03
  0.49358561D-13  0.10602175D-11 -0.60505548D-03 -0.41002188D-05  0.68572058D-14
  0.69924829D-13  0.74195962D-04 -0.66522836D-12 -0.59417307D-12 -0.61895306D-04
  0.64465674D-12  0.38439858D-12  0.21719733D-03  0.57397357D-10  0.10698877D-09
  0.18136980D-09  0.27461841D-09  0.34333350D-09  0.29532838D-09  0.11326479D-09
  0.13834483D-13  0.18314265D-12  0.66520743D-12  0.19733253D-11  0.22738589D-11
 -0.27619403D-11  0.44260053D-11 -0.22723551D-11 -0.20478766D-12  0.63822211D-02
  0.62416728D-02  0.41241372D-02 -0.95603342D-11 -0.93497980D-11 -0.61778068D-11
  0.31148189D-11  0.30462249D-11  0.20127696D-11  0.15004748D-02 -0.12843289D-11
 -0.59129368D-13  0.34563817D-03 -0.13861385D-12 -0.24438659D-12 -0.75456166D-06
 -0.22640838D-13 -0.73226010D-13  0.39853204D-12 -0.42147793D-12  0.22945887D-13
  0.36869404D-03 -0.14900105D-03  0.11932860D-11 -0.32187922D-12  0.11087857D-12
  0.21100065D-12 -0.10378421D-03 -0.55449621D-04 -0.98040953D-12 -0.17780008D-12
  0.47301657D-13  0.13049843D-12 -0.11490628D-04  0.80737298D-04  0.77973741D-13
  0.83184232D-05  0.31579160D-12 -0.42409067D-12 -0.12512737D-03 -0.82405614D-12
  0.34945846D-12  0.10017210D-03 -0.12331866D-12  0.92281354D-12  0.60612297D-03