 f2cs-wavefunction
GAUSSIAN            188 MOL ORBITALS    330 PRIMITIVES        4 NUCLEI
  C    1    (CENTRE  1)   0.00000000  0.00000000 -0.98331710  CHARGE =  6.0
  S    2    (CENTRE  2)   0.00000000  0.00000000  2.03811688  CHARGE = 16.0
  F    3    (CENTRE  3)   0.00000000 -1.99407870 -2.44821201  CHARGE =  9.0
  F    4    (CENTRE  4)   0.00000000  1.99407870 -2.44821201  CHARGE =  9.0
CENTRE ASSIGNMENTS    1  1  1  1  1  1  1  1  1  1  1  1  1  1  1  1  1  1  1  1
CENTRE ASSIGNMENTS    1  1  1  1  1  1  1  1  1  1  1  1  1  1  1  1  1  1  1  1
CENTRE ASSIGNMENTS    1  1  1  1  1  1  1  1  1  1  1  1  1  1  1  1  1  1  1  1
CENTRE ASSIGNMENTS    1  1  1  1  1  1  1  1  1  1  1  1  2  2  2  2  2  2  2  2
CENTRE ASSIGNMENTS    2  2  2  2  2  2  2  2  2  2  2  2  2  2  2  2  2  2  2  2
CENTRE ASSIGNMENTS    2  2  2  2  2  2  2  2  2  2  2  2  2  2  2  2  2  2  2  2
CENTRE ASSIGNMENTS    2  2  2  2  2  2  2  2  2  2  2  2  2  2  2  2  2  2  2  2
CENTRE ASSIGNMENTS    2  2  2  2  2  2  2  2  2  2  2  2  2  2  2  2  2  2  2  2
CENTRE ASSIGNMENTS    2  2  2  2  2  2  2  2  2  2  2  2  2  2  2  2  2  2  2  2
CENTRE ASSIGNMENTS    2  2  2  2  2  2  3  3  3  3  3  3  3  3  3  3  3  3  3  3
CENTRE ASSIGNMENTS    3  3  3  3  3  3  3  3  3  3  3  3  3  3  3  3  3  3  3  3
CENTRE ASSIGNMENTS    3  3  3  3  3  3  3  3  3  3  3  3  3  3  3  3  3  3  3  3
CENTRE ASSIGNMENTS    3  3  3  3  3  3  3  3  3  3  3  3  3  3  3  3  3  3  4  4
CENTRE ASSIGNMENTS    4  4  4  4  4  4  4  4  4  4  4  4  4  4  4  4  4  4  4  4
CENTRE ASSIGNMENTS    4  4  4  4  4  4  4  4  4  4  4  4  4  4  4  4  4  4  4  4
CENTRE ASSIGNMENTS    4  4  4  4  4  4  4  4  4  4  4  4  4  4  4  4  4  4  4  4
CENTRE ASSIGNMENTS    4  4  4  4  4  4  4  4  4  4
TYPE ASSIGNMENTS      1  1  1  1  1  1  1  1  1  1  1  1  1  1  1  1  2  2  2  3
TYPE ASSIGNMENTS      3  3  4  4  4  2  3  4  2  3  4  2  3  4  5  6  7  8  9 10
TYPE ASSIGNMENTS      5  6  7  8  9 10  5  6  7  8  9 10 11 12 13 17 14 15 18 19
TYPE ASSIGNMENTS     16 20 11 12 13 17 14 15 18 19 16 20  1  1  1  1  1  1  1  1
TYPE ASSIGNMENTS      1  1  1  1  1  1  1  1  1  1  1  1  1  1  1  1  1  1  1  1
TYPE ASSIGNMENTS      1  1  1  2  2  2  2  2  2  3  3  3  3  3  3  4  4  4  4  4
TYPE ASSIGNMENTS      4  2  2  2  2  2  2  3  3  3  3  3  3  4  4  4  4  4  4  2
TYPE ASSIGNMENTS      3  4  2  3  4  2  3  4  5  6  7  8  9 10  5  6  7  8  9 10
TYPE ASSIGNMENTS      5  6  7  8  9 10 11 12 13 17 14 15 18 19 16 20 11 12 13 17
TYPE ASSIGNMENTS     14 15 18 19 16 20  1  1  1  1  1  1  1  1  1  1  1  1  1  1
TYPE ASSIGNMENTS      1  1  2  2  2  3  3  3  4  4  4  2  3  4  2  3  4  2  3  4
TYPE ASSIGNMENTS      5  6  7  8  9 10  5  6  7  8  9 10  5  6  7  8  9 10 11 12
TYPE ASSIGNMENTS     13 17 14 15 18 19 16 20 11 12 13 17 14 15 18 19 16 20  1  1
TYPE ASSIGNMENTS      1  1  1  1  1  1  1  1  1  1  1  1  1  1  2  2  2  3  3  3
TYPE ASSIGNMENTS      4  4  4  2  3  4  2  3  4  2  3  4  5  6  7  8  9 10  5  6
TYPE ASSIGNMENTS      7  8  9 10  5  6  7  8  9 10 11 12 13 17 14 15 18 19 16 20
TYPE ASSIGNMENTS     11 12 13 17 14 15 18 19 16 20
EXPONENTS  0.8236000D+04 0.1235000D+04 0.2808000D+03 0.7927000D+02 0.2559000D+02
EXPONENTS  0.8997000D+01 0.3319000D+01 0.2808000D+03 0.7927000D+02 0.2559000D+02
EXPONENTS  0.8997000D+01 0.3319000D+01 0.3643000D+00 0.9059000D+00 0.1285000D+00
EXPONENTS  0.4402000D-01 0.1871000D+02 0.4133000D+01 0.1200000D+01 0.1871000D+02
EXPONENTS  0.4133000D+01 0.1200000D+01 0.1871000D+02 0.4133000D+01 0.1200000D+01
EXPONENTS  0.3827000D+00 0.3827000D+00 0.3827000D+00 0.1209000D+00 0.1209000D+00
EXPONENTS  0.1209000D+00 0.3569000D-01 0.3569000D-01 0.3569000D-01 0.1097000D+01
EXPONENTS  0.1097000D+01 0.1097000D+01 0.1097000D+01 0.1097000D+01 0.1097000D+01
EXPONENTS  0.3180000D+00 0.3180000D+00 0.3180000D+00 0.3180000D+00 0.3180000D+00
EXPONENTS  0.3180000D+00 0.1000000D+00 0.1000000D+00 0.1000000D+00 0.1000000D+00
EXPONENTS  0.1000000D+00 0.1000000D+00 0.7610000D+00 0.7610000D+00 0.7610000D+00
EXPONENTS  0.7610000D+00 0.7610000D+00 0.7610000D+00 0.7610000D+00 0.7610000D+00
EXPONENTS  0.7610000D+00 0.7610000D+00 0.2680000D+00 0.2680000D+00 0.2680000D+00
EXPONENTS  0.2680000D+00 0.2680000D+00 0.2680000D+00 0.2680000D+00 0.2680000D+00
EXPONENTS  0.2680000D+00 0.2680000D+00 0.3741000D+06 0.5605000D+05 0.1276000D+05
EXPONENTS  0.3615000D+04 0.1183000D+04 0.4288000D+03 0.1678000D+03 0.6947000D+02
EXPONENTS  0.2984000D+02 0.1272000D+02 0.5244000D+01 0.3615000D+04 0.1183000D+04
EXPONENTS  0.4288000D+03 0.1678000D+03 0.6947000D+02 0.2984000D+02 0.1272000D+02
EXPONENTS  0.5244000D+01 0.2219000D+01 0.1183000D+04 0.1678000D+03 0.6947000D+02
EXPONENTS  0.2984000D+02 0.1272000D+02 0.5244000D+01 0.2219000D+01 0.3490000D+00
EXPONENTS  0.7767000D+00 0.1322000D+00 0.4970000D-01 0.5744000D+03 0.1358000D+03
EXPONENTS  0.4319000D+02 0.1587000D+02 0.6208000D+01 0.2483000D+01 0.5744000D+03
EXPONENTS  0.1358000D+03 0.4319000D+02 0.1587000D+02 0.6208000D+01 0.2483000D+01
EXPONENTS  0.5744000D+03 0.1358000D+03 0.4319000D+02 0.1587000D+02 0.6208000D+01
EXPONENTS  0.2483000D+01 0.1358000D+03 0.4319000D+02 0.1587000D+02 0.6208000D+01
EXPONENTS  0.2483000D+01 0.3229000D+00 0.1358000D+03 0.4319000D+02 0.1587000D+02
EXPONENTS  0.6208000D+01 0.2483000D+01 0.3229000D+00 0.1358000D+03 0.4319000D+02
EXPONENTS  0.1587000D+02 0.6208000D+01 0.2483000D+01 0.3229000D+00 0.8688000D+00
EXPONENTS  0.8688000D+00 0.8688000D+00 0.1098000D+00 0.1098000D+00 0.1098000D+00
EXPONENTS  0.3510000D-01 0.3510000D-01 0.3510000D-01 0.2690000D+00 0.2690000D+00
EXPONENTS  0.2690000D+00 0.2690000D+00 0.2690000D+00 0.2690000D+00 0.8190000D+00
EXPONENTS  0.8190000D+00 0.8190000D+00 0.8190000D+00 0.8190000D+00 0.8190000D+00
EXPONENTS  0.1010000D+00 0.1010000D+00 0.1010000D+00 0.1010000D+00 0.1010000D+00
EXPONENTS  0.1010000D+00 0.5570000D+00 0.5570000D+00 0.5570000D+00 0.5570000D+00
EXPONENTS  0.5570000D+00 0.5570000D+00 0.5570000D+00 0.5570000D+00 0.5570000D+00
EXPONENTS  0.5570000D+00 0.2180000D+00 0.2180000D+00 0.2180000D+00 0.2180000D+00
EXPONENTS  0.2180000D+00 0.2180000D+00 0.2180000D+00 0.2180000D+00 0.2180000D+00
EXPONENTS  0.2180000D+00 0.1950000D+05 0.2923000D+04 0.6645000D+03 0.1875000D+03
EXPONENTS  0.6062000D+02 0.2142000D+02 0.7950000D+01 0.6645000D+03 0.1875000D+03
EXPONENTS  0.6062000D+02 0.2142000D+02 0.7950000D+01 0.8815000D+00 0.2257000D+01
EXPONENTS  0.3041000D+00 0.9158000D-01 0.4388000D+02 0.9926000D+01 0.2930000D+01
EXPONENTS  0.4388000D+02 0.9926000D+01 0.2930000D+01 0.4388000D+02 0.9926000D+01
EXPONENTS  0.2930000D+01 0.9132000D+00 0.9132000D+00 0.9132000D+00 0.2672000D+00
EXPONENTS  0.2672000D+00 0.2672000D+00 0.7361000D-01 0.7361000D-01 0.7361000D-01
EXPONENTS  0.3107000D+01 0.3107000D+01 0.3107000D+01 0.3107000D+01 0.3107000D+01
EXPONENTS  0.3107000D+01 0.8550000D+00 0.8550000D+00 0.8550000D+00 0.8550000D+00
EXPONENTS  0.8550000D+00 0.8550000D+00 0.2920000D+00 0.2920000D+00 0.2920000D+00
EXPONENTS  0.2920000D+00 0.2920000D+00 0.2920000D+00 0.1917000D+01 0.1917000D+01
EXPONENTS  0.1917000D+01 0.1917000D+01 0.1917000D+01 0.1917000D+01 0.1917000D+01
EXPONENTS  0.1917000D+01 0.1917000D+01 0.1917000D+01 0.7240000D+00 0.7240000D+00
EXPONENTS  0.7240000D+00 0.7240000D+00 0.7240000D+00 0.7240000D+00 0.7240000D+00
EXPONENTS  0.7240000D+00 0.7240000D+00 0.7240000D+00 0.1950000D+05 0.2923000D+04
EXPONENTS  0.6645000D+03 0.1875000D+03 0.6062000D+02 0.2142000D+02 0.7950000D+01
EXPONENTS  0.6645000D+03 0.1875000D+03 0.6062000D+02 0.2142000D+02 0.7950000D+01
EXPONENTS  0.8815000D+00 0.2257000D+01 0.3041000D+00 0.9158000D-01 0.4388000D+02
EXPONENTS  0.9926000D+01 0.2930000D+01 0.4388000D+02 0.9926000D+01 0.2930000D+01
EXPONENTS  0.4388000D+02 0.9926000D+01 0.2930000D+01 0.9132000D+00 0.9132000D+00
EXPONENTS  0.9132000D+00 0.2672000D+00 0.2672000D+00 0.2672000D+00 0.7361000D-01
EXPONENTS  0.7361000D-01 0.7361000D-01 0.3107000D+01 0.3107000D+01 0.3107000D+01
EXPONENTS  0.3107000D+01 0.3107000D+01 0.3107000D+01 0.8550000D+00 0.8550000D+00
EXPONENTS  0.8550000D+00 0.8550000D+00 0.8550000D+00 0.8550000D+00 0.2920000D+00
EXPONENTS  0.2920000D+00 0.2920000D+00 0.2920000D+00 0.2920000D+00 0.2920000D+00
EXPONENTS  0.1917000D+01 0.1917000D+01 0.1917000D+01 0.1917000D+01 0.1917000D+01
EXPONENTS  0.1917000D+01 0.1917000D+01 0.1917000D+01 0.1917000D+01 0.1917000D+01
EXPONENTS  0.7240000D+00 0.7240000D+00 0.7240000D+00 0.7240000D+00 0.7240000D+00
EXPONENTS  0.7240000D+00 0.7240000D+00 0.7240000D+00 0.7240000D+00 0.7240000D+00
MO    1     MO 0.0        OCC NO =    2.0000305  ORB. ENERGY =    0.000000
  0.10984844D-11  0.20477962D-11  0.34610546D-11  0.52026106D-11  0.63904753D-11
  0.53933357D-11  0.20280351D-11  0.88856895D-16  0.66415024D-15  0.24820811D-14
  0.69246198D-14  0.92770814D-14 -0.10954503D-13  0.10013055D-12  0.70104552D-14
 -0.52710109D-14  0.19187142D-12  0.17989166D-12  0.12809358D-12 -0.30467058D-02
 -0.28564803D-02 -0.20339841D-02  0.39016772D-13  0.36580704D-13  0.26047641D-13
  0.41599137D-13 -0.15634052D-02  0.24852481D-13  0.24587457D-13  0.61054126D-03
  0.30300303D-13  0.38995265D-15 -0.13556981D-04 -0.39070546D-15  0.12937041D-14
 -0.77158523D-14  0.64221483D-14 -0.19403604D-14  0.49677480D-13 -0.10196838D-02
  0.29006025D-14 -0.95138195D-14  0.66132171D-14  0.21902766D-14 -0.15851644D-13
  0.39732681D-03  0.92322659D-16 -0.14918524D-14  0.13995297D-14  0.92813713D-15
  0.66386491D-14 -0.22590910D-03 -0.15039316D-14  0.24076734D-03  0.11547897D-14
 -0.62614752D-14  0.35914934D-03 -0.11741593D-13  0.10773270D-13 -0.10814514D-02
  0.82772240D-14 -0.59207431D-14 -0.17866686D-16 -0.13717256D-03  0.30927274D-15
  0.47369582D-14 -0.12877743D-03 -0.51217685D-14 -0.46833582D-14  0.54029509D-03
  0.41939503D-14  0.95942032D-15  0.22643597D-10  0.42334486D-10  0.73166574D-10
  0.11834392D-09  0.17887287D-09  0.24634498D-09  0.28794728D-09  0.24886351D-09
  0.11614590D-09  0.15735221D-10 -0.11508967D-12  0.70803208D-13  0.91016811D-12
  0.33201624D-11  0.11202146D-10  0.24604939D-10  0.31782869D-10 -0.51077775D-11
 -0.42848182D-10 -0.23514530D-10  0.47741080D-15  0.54380058D-14  0.11291260D-13
  0.31048099D-13 -0.40257425D-14 -0.14038536D-12 -0.35014339D-12  0.28984363D-12
 -0.13683584D-11 -0.22135383D-13  0.92982850D-15 -0.51296673D-09 -0.67298318D-09
 -0.73811689D-09 -0.60730035D-09 -0.32013421D-09 -0.83292900D-10  0.97653934D+01
  0.12811641D+02  0.14051597D+02  0.11561231D+02  0.60944236D+01  0.15856544D+01
  0.47206923D-11  0.61932798D-11  0.67926876D-11  0.55888187D-11  0.29461075D-11
  0.76652175D-12 -0.29649219D-14 -0.10642774D-12 -0.16885028D-12 -0.20050453D-12
 -0.30341620D-13  0.22082062D-12  0.94744865D-04  0.34009267D-02  0.53956555D-02
  0.64071754D-02  0.96957451D-03 -0.70563816D-02 -0.40352517D-15 -0.14484790D-13
 -0.22980483D-13 -0.27288619D-13 -0.41294873D-14  0.30053635D-13 -0.38712416D-11
  0.67603337D-01  0.11129521D-12 -0.17640971D-13 -0.37953048D-03  0.18356709D-13
  0.46798377D-15 -0.71063389D-05 -0.58071600D-16  0.19850987D-14 -0.21802733D-14
  0.19517451D-15 -0.78527363D-15 -0.20863881D-13  0.96177833D-03  0.62355119D-15
  0.22744144D-13 -0.23367695D-13 -0.11344687D-15  0.96493485D-14 -0.55544177D-03
  0.46075862D-15  0.63504939D-15 -0.10958080D-14 -0.28976423D-15  0.59561839D-14
 -0.42021130D-04 -0.47371274D-14  0.35008657D-04  0.18660444D-14  0.61349743D-15
  0.10986019D-03 -0.46581405D-14  0.13597885D-13 -0.21488616D-03 -0.93999273D-15
 -0.23707387D-14  0.54748929D-15  0.34766903D-04 -0.22619788D-15 -0.71546089D-15
  0.16379380D-04  0.84951036D-16 -0.92700699D-15 -0.12068009D-03  0.59364260D-15
  0.11246525D-14  0.50729158D-02  0.94559238D-02  0.16029897D-01  0.24271433D-01
  0.30344637D-01  0.26101829D-01  0.10010613D-01 -0.65361240D-06 -0.86526043D-05
 -0.31427833D-04 -0.93230075D-04 -0.10742883D-03  0.13048832D-03  0.58779701D-03
  0.87244133D-04  0.85336495D-03 -0.29664710D-12 -0.29011438D-12 -0.19169084D-12
 -0.13027669D-02 -0.12740776D-02 -0.84183692D-03 -0.39045867D-02 -0.38186005D-02
 -0.25231108D-02 -0.71391637D-13 -0.38874217D-03 -0.10831149D-02 -0.17227833D-13
 -0.14821065D-03 -0.74754128D-03  0.10254291D-14  0.92224395D-04  0.11395939D-04
  0.24120549D-04  0.27368599D-04 -0.51489148D-04  0.13611028D-13 -0.20122915D-13
  0.26336446D-03 -0.54410001D-04 -0.13267353D-03  0.18708353D-03 -0.24816725D-14
  0.12591316D-13 -0.14919974D-03  0.11023190D-03 -0.21470388D-04 -0.88761511D-04
  0.24599692D-16 -0.64083061D-14 -0.27902869D-03 -0.16843379D-16 -0.27210501D-04
 -0.54603539D-04  0.35626003D-14 -0.33130367D-03  0.20177360D-04 -0.35120702D-14
  0.41293518D-03  0.14363326D-03  0.19505332D-14 -0.43506404D-15 -0.63295022D-04
  0.95230724D-04 -0.15792139D-14  0.19972088D-03 -0.42108475D-04  0.28844060D-14
 -0.98358197D-05 -0.24358370D-03 -0.36875418D-14 -0.50729158D-02 -0.94559238D-02
 -0.16029898D-01 -0.24271433D-01 -0.30344637D-01 -0.26101829D-01 -0.10010613D-01
  0.65361239D-06  0.86526043D-05  0.31427833D-04  0.93230074D-04  0.10742883D-03
 -0.13048832D-03 -0.58779701D-03 -0.87244133D-04 -0.85336495D-03 -0.43524582D-12
 -0.42566091D-12 -0.28125216D-12 -0.13027669D-02 -0.12740776D-02 -0.84183692D-03
  0.39045867D-02  0.38186005D-02  0.25231108D-02 -0.98834429D-13 -0.38874217D-03
  0.10831149D-02 -0.26327305D-13 -0.14821065D-03  0.74754128D-03 -0.72787278D-16
  0.92224395D-04 -0.11395939D-04 -0.24120549D-04 -0.27368599D-04  0.51489148D-04
 -0.19174191D-13 -0.14263365D-13  0.26336446D-03  0.54410001D-04  0.13267353D-03
 -0.18708353D-03  0.88903918D-14  0.12400991D-13 -0.14919974D-03 -0.11023190D-03
  0.21470388D-04  0.88761511D-04  0.15951642D-14 -0.95453240D-14 -0.27902869D-03
 -0.15053350D-14 -0.27210501D-04  0.54603539D-04  0.10166990D-14 -0.33130367D-03
 -0.20177360D-04  0.34993062D-14  0.41293518D-03 -0.14363326D-03 -0.11938200D-13
  0.16256909D-14 -0.63295022D-04 -0.95230724D-04 -0.42719172D-14  0.19972088D-03
  0.42108475D-04 -0.60515540D-15 -0.98358197D-05  0.24358370D-03  0.77407702D-14
MO    2     MO 0.0        OCC NO =    2.0000247  ORB. ENERGY =    0.000000
 -0.59334368D-01 -0.11061122D+00 -0.18694802D+00 -0.28101775D+00 -0.34517997D+00
 -0.29131972D+00 -0.10954382D+00 -0.94593912D-05 -0.70703088D-04 -0.26423358D-03
 -0.73717056D-03 -0.98760531D-03  0.11661777D-02 -0.44996876D-02 -0.13845321D-02
 -0.56511057D-04 -0.23401749D-12 -0.21940627D-12 -0.15623034D-12 -0.12537197D-12
 -0.11754419D-12 -0.83698468D-13  0.29468142D-02  0.27628257D-02  0.19672965D-02
 -0.57867792D-13  0.26180493D-13 -0.42013352D-03 -0.40607767D-14  0.28468353D-13
 -0.93831722D-03 -0.46911013D-16  0.46566537D-15  0.78421697D-05  0.25980396D-03
 -0.10473378D-03 -0.15507018D-03  0.39403042D-15 -0.68167268D-13 -0.77984271D-13
  0.10320651D-03  0.15499269D-03 -0.25819919D-03 -0.66438323D-14  0.36349667D-13
 -0.38140584D-13  0.17126582D-04  0.61938081D-04 -0.79064664D-04 -0.42382013D-15
 -0.47273772D-15  0.82065552D-14  0.97624599D-14  0.13020344D-13 -0.36044177D-04
 -0.15711012D-14 -0.21889844D-13 -0.10106315D-03 -0.27716279D-13 -0.17171190D-13
  0.20919568D-03  0.11869501D-14 -0.22803910D-14 -0.16189487D-13  0.46930616D-04
 -0.58047813D-14 -0.49226252D-14  0.26133837D-04  0.12645954D-13  0.53491086D-13
 -0.16692568D-03  0.42838576D-14 -0.12695490D+00 -0.23735497D+00 -0.41021994D+00
 -0.66351385D+00 -0.10028790D+01 -0.13811720D+01 -0.16144219D+01 -0.13952925D+01
 -0.65119029D+00 -0.88221996D-01  0.64526839D-03 -0.15827449D-02 -0.20346026D-01
 -0.74219378D-01 -0.25041434D+00 -0.55002226D+00 -0.71047873D+00  0.11417998D+00
  0.95783430D+00  0.52564711D+00 -0.13254320D-04 -0.15097494D-03 -0.31347840D-03
 -0.86198600D-03  0.11176638D-03  0.38975081D-02  0.97210043D-02 -0.80469065D-02
  0.29241773D-01  0.15635377D-02  0.75108230D-04  0.63427629D-09  0.83213442D-09
  0.91267137D-09  0.75091851D-09  0.39584154D-09  0.10299052D-09  0.25870446D-09
  0.33940554D-09  0.37225442D-09  0.30627973D-09  0.16145326D-09  0.42007100D-10
  0.62355053D+01  0.81806283D+01  0.89723788D+01  0.73822030D+01  0.38914777D+01
  0.10124893D+01  0.37614266D-14  0.13501878D-12  0.21421068D-12  0.25436862D-12
  0.38492676D-13 -0.28014248D-12  0.28516572D-14  0.10236203D-12  0.16239993D-12
  0.19284494D-12  0.29182522D-13 -0.21238493D-12  0.57868607D-04  0.20772302D-02
  0.32955777D-02  0.39133974D-02  0.59220018D-03 -0.43099219D-02  0.47723214D-11
  0.18027259D-11  0.46091869D-01 -0.35593202D-14 -0.36763148D-13 -0.79389719D-03
 -0.10591668D-14 -0.60026331D-15 -0.63639446D-05 -0.25911988D-03 -0.14599784D-03
  0.40511772D-03 -0.12401378D-14  0.40597431D-13  0.48617392D-13  0.15158831D-03
 -0.37156209D-03  0.21997378D-03  0.20026424D-14 -0.19510807D-13 -0.10650729D-13
 -0.14740438D-04 -0.27379894D-04  0.42120333D-04  0.89947425D-16 -0.20588598D-15
  0.47581643D-14  0.50819246D-14  0.28827084D-14 -0.88656675D-04 -0.18498780D-14
  0.29951696D-14  0.21771872D-03 -0.13395896D-13 -0.11643295D-13  0.48251301D-04
  0.15340833D-15  0.76505432D-15  0.18025118D-14 -0.22227021D-04  0.20153528D-14
  0.11796207D-14  0.32041038D-04 -0.43105157D-14 -0.65871560D-14  0.34640026D-04
  0.42747569D-15  0.66391341D-02  0.12375357D-01  0.20978988D-01  0.31765025D-01
  0.39713277D-01  0.34160540D-01  0.13101302D-01  0.15496910D-05  0.20515007D-04
  0.74514237D-04  0.22104508D-03  0.25470981D-03 -0.30938300D-03  0.52107212D-03
 -0.38831624D-03 -0.25412902D-03  0.57395777D-12  0.56131817D-12  0.37088665D-12
  0.13370554D-03  0.13076110D-03  0.86399388D-04 -0.92700820D-03 -0.90659377D-03
 -0.59902484D-03  0.13591947D-12 -0.84572880D-04 -0.38203925D-03  0.25276615D-13
  0.52686979D-05 -0.82324931D-04  0.21811510D-15 -0.48120081D-05 -0.60126010D-04
  0.36531936D-04 -0.10522413D-03  0.68692193D-04 -0.90738219D-14 -0.12525044D-14
 -0.26437309D-04 -0.22377174D-04  0.98603415D-05  0.12516832D-04  0.94094801D-14
  0.11002260D-14  0.92651750D-04 -0.46055942D-04  0.10509347D-04  0.35546595D-04
  0.22277281D-15  0.55331327D-14 -0.22315451D-04  0.14901423D-14 -0.79274954D-04
 -0.10798339D-03  0.31387536D-14  0.11171248D-03  0.21364920D-04 -0.76091806D-14
  0.12611238D-03  0.30258525D-03 -0.43982791D-13 -0.20362843D-14  0.16167108D-04
  0.44381562D-04  0.64442729D-14 -0.97903904D-04 -0.76457443D-04 -0.33542006D-15
  0.49402581D-04 -0.56687243D-04  0.21761177D-13  0.66391342D-02  0.12375358D-01
  0.20978988D-01  0.31765025D-01  0.39713278D-01  0.34160540D-01  0.13101302D-01
  0.15496910D-05  0.20515007D-04  0.74514237D-04  0.22104508D-03  0.25470981D-03
 -0.30938300D-03  0.52107212D-03 -0.38831624D-03 -0.25412902D-03  0.51045197D-12
  0.49921088D-12  0.32984974D-12 -0.13370554D-03 -0.13076110D-03 -0.86399388D-04
 -0.92700820D-03 -0.90659377D-03 -0.59902484D-03  0.11964127D-12  0.84572880D-04
 -0.38203925D-03  0.33729183D-13 -0.52686978D-05 -0.82324930D-04  0.70207482D-15
  0.48120081D-05 -0.60126010D-04  0.36531936D-04 -0.10522413D-03  0.68692193D-04
  0.16576390D-13 -0.17993834D-13  0.26437309D-04 -0.22377174D-04  0.98603415D-05
  0.12516832D-04 -0.11411009D-13  0.10227871D-14 -0.92651750D-04 -0.46055942D-04
  0.10509347D-04  0.35546595D-04 -0.60744680D-14  0.93626582D-14  0.22315451D-04
  0.10406690D-13  0.79274953D-04 -0.10798339D-03 -0.26216429D-13 -0.11171248D-03
  0.21364920D-04 -0.50036405D-14 -0.12611238D-03  0.30258525D-03  0.95823108D-13
 -0.34587420D-14 -0.16167108D-04  0.44381562D-04  0.12265123D-13  0.97903904D-04
 -0.76457443D-04 -0.18888968D-14 -0.49402581D-04 -0.56687243D-04 -0.34513262D-13
MO    3     MO 0.0        OCC NO =    2.0000101  ORB. ENERGY =    0.000000
  0.19856402D+00  0.37016333D+00  0.62562646D+00  0.94043326D+00  0.11551538D+01
  0.97490907D+00  0.36659127D+00  0.26906612D-04  0.20111025D-03  0.75159493D-03
  0.20968328D-02  0.28091779D-02 -0.33171153D-02  0.15841465D-01  0.35078831D-03
  0.13347358D-03 -0.57101937D-13 -0.53536695D-13 -0.38121316D-13 -0.28085941D-13
 -0.26332355D-13 -0.18750206D-13 -0.73367764D-02 -0.68786942D-02 -0.48980401D-02
 -0.12461973D-13  0.10054317D-13  0.59768048D-03  0.51142086D-15 -0.15066420D-13
  0.53611169D-03  0.19017312D-15  0.39070118D-15  0.65105262D-05 -0.68207245D-03
  0.55282165D-03  0.12925080D-03 -0.31352696D-14 -0.22606590D-13 -0.98348909D-13
  0.20622085D-03 -0.24539882D-03  0.39177964D-04  0.41040529D-14  0.89621996D-14
 -0.31116893D-13 -0.92446591D-05 -0.38394230D-04  0.47638889D-04 -0.24353217D-15
 -0.10928571D-14  0.24029664D-14  0.42741556D-14  0.11032024D-13 -0.73278370D-05
 -0.25495426D-14 -0.44893908D-13  0.25996017D-03 -0.10272924D-13  0.11797834D-13
 -0.23797665D-03 -0.37974300D-14 -0.11365079D-14 -0.81187267D-14 -0.14808619D-03
 -0.52471228D-15 -0.29673960D-14  0.17107977D-06  0.39342361D-14  0.27323576D-13
  0.44408750D-03 -0.15899015D-14 -0.99317183D-01 -0.18568348D+00 -0.32091624D+00
 -0.51906879D+00 -0.78455510D+00 -0.10804948D+01 -0.12629669D+01 -0.10915414D+01
 -0.50942804D+00 -0.69016321D-01  0.50479531D-03 -0.12519141D-02 -0.16093230D-01
 -0.58705790D-01 -0.19807188D+00 -0.43505472D+00 -0.56197204D+00  0.90313688D-01
  0.75762449D+00  0.41577455D+00 -0.55009185D-05 -0.62658881D-04 -0.13010242D-03
 -0.35774862D-03  0.46386218D-04  0.16175764D-02  0.40344923D-02 -0.33396943D-02
  0.24973620D-01 -0.17612486D-02 -0.19275163D-03  0.21259661D-09  0.27891466D-09
  0.30590902D-09  0.25169273D-09  0.13267810D-09  0.34520345D-10  0.15684196D-09
  0.20576773D-09  0.22568267D-09  0.18568490D-09  0.97882521D-10  0.25467191D-10
 -0.50357452D+01 -0.66066113D+01 -0.72460228D+01 -0.59618093D+01 -0.31427269D+01
 -0.81767842D+00  0.11871944D-14  0.42615094D-13  0.67609914D-13  0.80284699D-13
  0.12149191D-13 -0.88419537D-13  0.15351494D-14  0.55105157D-13  0.87425713D-13
  0.10381535D-12  0.15709999D-13 -0.11433443D-12 -0.40946442D-04 -0.14697984D-02
 -0.23318720D-02 -0.27690264D-02 -0.41902668D-03  0.30495977D-02  0.16075935D-11
  0.11016435D-11 -0.39573516D-01  0.97033554D-15 -0.95494631D-14  0.43518864D-03
 -0.39153599D-15 -0.63788395D-15  0.63046215D-05  0.27887115D-03  0.20498459D-03
 -0.48385575D-03  0.48493294D-15  0.12203690D-13  0.16445688D-13 -0.30869083D-04
 -0.29529355D-03  0.32616263D-03 -0.91365301D-15 -0.77212049D-14 -0.66795897D-14
  0.85796771D-05  0.97112282D-05 -0.18290905D-04  0.65177957D-16 -0.40220101D-15
  0.36028640D-16  0.16200300D-14  0.18253180D-14  0.11311552D-03 -0.16366113D-14
  0.91505173D-15 -0.27377539D-03 -0.32234788D-14 -0.63910057D-14 -0.65571180D-04
  0.11400231D-14  0.17982014D-15  0.31314952D-15  0.27191522D-04  0.54283804D-15
  0.36694534D-15 -0.56073099D-04 -0.10822985D-14 -0.13063939D-14 -0.25501468D-04
 -0.33085745D-15 -0.51760500D-01 -0.96481662D-01 -0.16355791D+00 -0.24764880D+00
 -0.30961554D+00 -0.26632489D+00 -0.10214133D+00 -0.82017901D-05 -0.10857634D-03
 -0.39436903D-03 -0.11698883D-02 -0.13480600D-02  0.16374196D-02 -0.44436258D-02
  0.10961931D-02  0.14494036D-03  0.18769974D-12  0.18356625D-12  0.12128998D-12
 -0.46382932D-02 -0.45361494D-02 -0.29972257D-02 -0.11912619D-02 -0.11650281D-02
 -0.76978331D-03  0.47858359D-13 -0.49415776D-03  0.22150933D-03  0.88772539D-14
 -0.54540820D-04  0.19652605D-03 -0.82831014D-15 -0.27800584D-05  0.28581243D-04
 -0.15322809D-03  0.17254753D-03 -0.19319442D-04 -0.33912470D-13 -0.37439265D-13
  0.41227454D-03  0.10929036D-03 -0.36604448D-04 -0.72685907D-04  0.95369945D-14
  0.55239043D-14 -0.29036199D-03  0.82722800D-04 -0.28054534D-04 -0.54668266D-04
  0.57597190D-15  0.13249989D-14  0.74104113D-04  0.38938961D-14  0.11228019D-03
  0.22938118D-03 -0.88489796D-14 -0.34822529D-03 -0.22751140D-03 -0.28327085D-14
  0.11384727D-04 -0.46063213D-03 -0.28948676D-13 -0.13544128D-14 -0.24325794D-04
 -0.67483211D-04  0.53213515D-14  0.31456061D-03  0.27120100D-03 -0.12581130D-14
 -0.24158323D-03 -0.68751367D-04  0.11347716D-13 -0.51760500D-01 -0.96481662D-01
 -0.16355791D+00 -0.24764880D+00 -0.30961554D+00 -0.26632489D+00 -0.10214133D+00
 -0.82017901D-05 -0.10857634D-03 -0.39436903D-03 -0.11698883D-02 -0.13480600D-02
  0.16374196D-02 -0.44436258D-02  0.10961931D-02  0.14494036D-03  0.20732293D-12
  0.20275730D-12  0.13397032D-12  0.46382932D-02  0.45361494D-02  0.29972257D-02
 -0.11912619D-02 -0.11650281D-02 -0.76978331D-03  0.52021427D-13  0.49415776D-03
  0.22150933D-03  0.51827546D-14  0.54540820D-04  0.19652605D-03 -0.39795306D-15
  0.27800584D-05  0.28581243D-04 -0.15322809D-03  0.17254753D-03 -0.19319442D-04
  0.37272394D-13 -0.22772541D-13 -0.41227454D-03  0.10929036D-03 -0.36604448D-04
 -0.72685907D-04 -0.80542174D-14  0.12946509D-14  0.29036199D-03  0.82722800D-04
 -0.28054534D-04 -0.54668266D-04  0.26323304D-14  0.15505471D-15 -0.74104113D-04
  0.12474481D-14 -0.11228019D-03  0.22938118D-03 -0.60931006D-14  0.34822529D-03
 -0.22751140D-03  0.23507564D-14 -0.11384727D-04 -0.46063213D-03  0.55251970D-14
 -0.29687182D-16  0.24325794D-04 -0.67483211D-04  0.17736850D-14 -0.31456061D-03
  0.27120100D-03 -0.16846234D-14  0.24158323D-03 -0.68751367D-04 -0.41898719D-14
MO    4     MO 0.0        OCC NO =    2.0000090  ORB. ENERGY =    0.000000
 -0.19787658D-11 -0.36888180D-11 -0.62346050D-11 -0.93717741D-11 -0.11511546D-10
 -0.97153387D-11 -0.36532211D-11  0.14408470D-15  0.10769439D-14  0.40247852D-14
  0.11228524D-13  0.15043126D-13 -0.17763127D-13 -0.18557366D-12  0.55186835D-12
  0.87143521D-13 -0.39856760D-02 -0.37368246D-02 -0.26608417D-02 -0.14530063D-12
 -0.13622858D-12 -0.97002863D-13  0.46566057D-14  0.43658638D-14  0.31087551D-14
 -0.79019762D-03 -0.14579792D-12  0.11426242D-12 -0.12196864D-03  0.56767643D-13
  0.17037503D-12  0.20129220D-05 -0.21944557D-14  0.36521223D-14  0.67338478D-13
 -0.51409533D-13 -0.15928945D-13 -0.43055109D-14 -0.10068289D-02  0.58200622D-13
 -0.50462287D-13 -0.98398856D-14  0.60302173D-13  0.59665227D-14  0.46230802D-03
  0.73853463D-13 -0.64942592D-14 -0.45382850D-14  0.11032544D-13  0.27498976D-15
 -0.27571445D-04 -0.29894885D-13  0.10238436D-03  0.49129013D-14  0.31239130D-14
  0.43376404D-04  0.96596026D-13 -0.50667733D-13 -0.35052949D-03 -0.11133473D-12
  0.41295994D-13 -0.29764507D-14 -0.31237536D-04 -0.11806643D-13  0.75687290D-14
 -0.72518304D-04 -0.50442631D-14 -0.85861807D-14  0.16623091D-03  0.40464193D-13
 -0.14120006D-13 -0.48160112D-14  0.14451968D-10  0.27019409D-10  0.46697570D-10
  0.75531395D-10  0.11416318D-09  0.15722633D-09  0.18377843D-09  0.15883375D-09
  0.74128538D-10  0.10042790D-10 -0.73454415D-13  0.14318023D-12  0.18405674D-11
  0.67141253D-11  0.22653293D-10  0.49756795D-10  0.64272207D-10 -0.10329091D-10
 -0.86648793D-10 -0.47551740D-10  0.10719112D-14  0.12209734D-13  0.25351810D-13
  0.69711039D-13 -0.90388368D-14 -0.31520157D-12 -0.78616278D-12  0.65077416D-12
 -0.26972278D-11 -0.38534018D-12 -0.11372450D-12  0.97275797D+01  0.12762031D+02
  0.13997186D+02  0.11516463D+02  0.60708246D+01  0.15795144D+01  0.49646430D-09
  0.65133293D-09  0.71437127D-09  0.58776316D-09  0.30983532D-09  0.80613322D-10
 -0.21933032D-09 -0.28774890D-09 -0.31559827D-09 -0.25966475D-09 -0.13688049D-09
 -0.35613729D-10  0.57406897D-04  0.20606568D-02  0.32692837D-02  0.38821741D-02
  0.58747526D-03 -0.42755349D-02  0.55272861D-14  0.19840542D-12  0.31477518D-12
  0.37378587D-12  0.56563654D-13 -0.41165967D-12 -0.41626993D-14 -0.14942272D-12
 -0.23706289D-12 -0.28150491D-12 -0.42599113D-13  0.31002836D-12  0.73295892D-01
  0.34548003D-11 -0.16178985D-11  0.18200149D-04  0.47176427D-15  0.17120914D-12
 -0.17768442D-04  0.71063085D-15  0.51547968D-14  0.28380069D-13  0.23519421D-13
 -0.51899490D-13  0.13682328D-14  0.57558258D-03  0.69922474D-13 -0.18419750D-14
  0.37391269D-13 -0.35549294D-13 -0.31321247D-15 -0.25501083D-03 -0.14111210D-13
  0.61834109D-14  0.57095223D-14 -0.11892933D-13 -0.41296604D-16 -0.20070900D-04
 -0.68949114D-14  0.83300523D-04  0.48699245D-14  0.14207621D-13 -0.31014706D-04
  0.83947071D-14 -0.27206344D-13 -0.21888686D-03 -0.23004481D-13 -0.15416520D-13
 -0.17698847D-15  0.88767008D-05  0.24058263D-14  0.29497565D-14  0.27880301D-04
  0.40648919D-15 -0.40613801D-14 -0.54510403D-04 -0.76239680D-14 -0.47878895D-14
 -0.45396484D-15  0.30928739D-10  0.57651222D-10  0.97731665D-10  0.14797896D-09
  0.18500629D-09  0.15913859D-09  0.61033073D-10  0.28681668D-14  0.37969158D-13
  0.13791089D-12  0.40911006D-12  0.47141671D-12 -0.57260581D-12  0.28508069D-11
 -0.62350769D-13  0.89991158D-13  0.63885186D-02  0.62478317D-02  0.41282066D-02
  0.65676446D-12  0.64230130D-12  0.42439563D-12  0.30580781D-12  0.29907336D-12
  0.19761041D-12  0.15018173D-02 -0.45085164D-13 -0.25917883D-13  0.34658959D-03
  0.64364916D-14 -0.77175688D-13 -0.78781680D-06  0.11942703D-13  0.56870975D-14
  0.29140948D-13 -0.14102638D-13 -0.15038310D-13 -0.36609185D-03 -0.14698522D-03
  0.10526709D-13 -0.28332737D-14 -0.20682858D-13  0.23516132D-13  0.10229242D-03
 -0.57059885D-04 -0.44700775D-13  0.54832389D-14  0.99960779D-14 -0.15479317D-13
  0.11936098D-04  0.80187896D-04 -0.19507751D-13  0.80598009D-05 -0.57356641D-13
  0.19344566D-14 -0.12513855D-03  0.10722806D-12  0.19598679D-13  0.10095914D-03
  0.64841859D-13 -0.25402049D-13 -0.60553210D-03 -0.46172377D-05  0.13611427D-13
  0.21346155D-14  0.74689136D-04 -0.25412091D-13 -0.45717566D-14 -0.60837423D-04
 -0.15422190D-13 -0.18320898D-14  0.21909163D-03 -0.10190871D-09 -0.18995801D-09
 -0.32202114D-09 -0.48758356D-09 -0.60958684D-09 -0.52435399D-09 -0.20110104D-09
 -0.93962440D-14 -0.12438868D-12 -0.45180231D-12 -0.13402630D-11 -0.15443824D-11
  0.18758825D-11 -0.94303250D-11 -0.63492677D-13 -0.98323361D-13  0.63885186D-02
  0.62478317D-02  0.41282066D-02  0.21621191D-11  0.21145053D-11  0.13971430D-11
 -0.15572901D-11 -0.15229957D-11 -0.10063077D-11  0.15018173D-02 -0.34447436D-13
  0.35605214D-13  0.34658959D-03  0.96876187D-13 -0.38304154D-13 -0.78781680D-06
  0.11729845D-13  0.40885322D-14  0.51882730D-13 -0.39564705D-13 -0.12318025D-13
  0.36609185D-03 -0.14698522D-03  0.11005797D-12 -0.38228667D-13  0.49576061D-13
 -0.11347394D-13 -0.10229242D-03 -0.57059885D-04 -0.14555818D-12  0.21223020D-14
 -0.92163491D-14  0.70940472D-14 -0.11936098D-04  0.80187896D-04  0.10208609D-13
  0.80598009D-05 -0.29745178D-13 -0.40892373D-14 -0.12513855D-03  0.79829065D-13
 -0.26794037D-13  0.10095914D-03  0.94064683D-14  0.39061749D-13  0.60553210D-03