 Entering Gaussian System, Link 0=/home/bruns/programas/chemistry/gaussian/g09/g09
 Input=GAUSSIAN.com
 Output=GAUSSIAN.log
 Initial command:
 /home/bruns/programas/chemistry/gaussian/g09/l1.exe /home/bruns/programas/chemistry/gaussian/work/Gau-28571.inp -scrdir=/home/bruns/programas/chemistry/gaussian/work/
 Entering Link 1 = /home/bruns/programas/chemistry/gaussian/g09/l1.exe PID=     28573.
  
 Copyright (c) 1988,1990,1992,1993,1995,1998,2003,2009,2010,
            Gaussian, Inc.  All Rights Reserved.
  
 This is part of the Gaussian(R) 09 program.  It is based on
 the Gaussian(R) 03 system (copyright 2003, Gaussian, Inc.),
 the Gaussian(R) 98 system (copyright 1998, Gaussian, Inc.),
 the Gaussian(R) 94 system (copyright 1995, Gaussian, Inc.),
 the Gaussian 92(TM) system (copyright 1992, Gaussian, Inc.),
 the Gaussian 90(TM) system (copyright 1990, Gaussian, Inc.),
 the Gaussian 88(TM) system (copyright 1988, Gaussian, Inc.),
 the Gaussian 86(TM) system (copyright 1986, Carnegie Mellon
 University), and the Gaussian 82(TM) system (copyright 1983,
 Carnegie Mellon University). Gaussian is a federally registered
 trademark of Gaussian, Inc.
  
 This software contains proprietary and confidential information,
 including trade secrets, belonging to Gaussian, Inc.
  
 This software is provided under written license and may be
 used, copied, transmitted, or stored only in accord with that
 written license.
  
 The following legend is applicable only to US Government
 contracts under FAR:
  
                    RESTRICTED RIGHTS LEGEND
  
 Use, reproduction and disclosure by the US Government is
 subject to restrictions as set forth in subparagraphs (a)
 and (c) of the Commercial Computer Software - Restricted
 Rights clause in FAR 52.227-19.
  
 Gaussian, Inc.
 340 Quinnipiac St., Bldg. 40, Wallingford CT 06492
  
  
 ---------------------------------------------------------------
 Warning -- This program may not be used in any manner that
 competes with the business of Gaussian, Inc. or will provide
 assistance to any competitor of Gaussian, Inc.  The licensee
 of this program is prohibited from giving any competitor of
 Gaussian, Inc. access to this program.  By using this program,
 the user acknowledges that Gaussian, Inc. is engaged in the
 business of creating and licensing software in the field of
 computational chemistry and represents and warrants to the
 licensee that it is not a competitor of Gaussian, Inc. and that
 it will not use this program in any manner prohibited above.
 ---------------------------------------------------------------
  

 Cite this work as:
 Gaussian 09, Revision B.01,
 M. J. Frisch, G. W. Trucks, H. B. Schlegel, G. E. Scuseria, 
 M. A. Robb, J. R. Cheeseman, G. Scalmani, V. Barone, B. Mennucci, 
 G. A. Petersson, H. Nakatsuji, M. Caricato, X. Li, H. P. Hratchian, 
 A. F. Izmaylov, J. Bloino, G. Zheng, J. L. Sonnenberg, M. Hada, 
 M. Ehara, K. Toyota, R. Fukuda, J. Hasegawa, M. Ishida, T. Nakajima, 
 Y. Honda, O. Kitao, H. Nakai, T. Vreven, J. A. Montgomery, Jr., 
 J. E. Peralta, F. Ogliaro, M. Bearpark, J. J. Heyd, E. Brothers, 
 K. N. Kudin, V. N. Staroverov, T. Keith, R. Kobayashi, J. Normand, 
 K. Raghavachari, A. Rendell, J. C. Burant, S. S. Iyengar, J. Tomasi, 
 M. Cossi, N. Rega, J. M. Millam, M. Klene, J. E. Knox, J. B. Cross, 
 V. Bakken, C. Adamo, J. Jaramillo, R. Gomperts, R. E. Stratmann, 
 O. Yazyev, A. J. Austin, R. Cammi, C. Pomelli, J. W. Ochterski, 
 R. L. Martin, K. Morokuma, V. G. Zakrzewski, G. A. Voth, 
 P. Salvador, J. J. Dannenberg, S. Dapprich, A. D. Daniels, 
 O. Farkas, J. B. Foresman, J. V. Ortiz, J. Cioslowski, 
 and D. J. Fox, Gaussian, Inc., Wallingford CT, 2010.
 
 ******************************************
 Gaussian 09:  EM64L-G09RevB.01 12-Aug-2010
                27-Nov-2021 
 ******************************************
 %nproc=8
 Will use up to    8 processors via shared memory.
 %mem=8GB
 -----------------------------------------------------
 # qcisd/aug-cc-pvtz nosymm density=current output=wfn
 -----------------------------------------------------
 1/30=1,38=1/1;
 2/12=2,15=1,17=6,18=5,40=1/2;
 3/5=16,6=1,7=10,11=9,16=1,25=1,30=1,71=1/1,2,3;
 4//1;
 5/5=2,38=5/2;
 8/6=4,9=120000,10=1/1,4;
 9/5=8,15=1/13;
 11/28=-7,31=1,32=3,42=3/11;
 10/5=6,13=10,31=1/2;
 6/7=2,8=2,9=2,10=2,22=-1,31=1/1;
 99/5=1,6=1100,9=1/99;
 -----------------
 f2cs-wavefunction
 -----------------
 Symbolic Z-matrix:
 Charge =  0 Multiplicity = 1
 C                     0.        0.       -0.52035 
 S                     0.        0.        1.07852 
 F                     0.       -1.05522  -1.29554 
 F                     0.        1.05522  -1.29554 
 
                          Input orientation:                          
 ---------------------------------------------------------------------
 Center     Atomic      Atomic             Coordinates (Angstroms)
 Number     Number       Type             X           Y           Z
 ---------------------------------------------------------------------
      1          6           0        0.000000    0.000000   -0.520349
      2         16           0        0.000000    0.000000    1.078525
      3          9           0        0.000000   -1.055221   -1.295538
      4          9           0        0.000000    1.055221   -1.295538
 ---------------------------------------------------------------------
                    Distance matrix (angstroms):
                    1          2          3          4
     1  C    0.000000
     2  S    1.598874   0.000000
     3  F    1.309355   2.598012   0.000000
     4  F    1.309355   2.598012   2.110442   0.000000
 Symmetry turned off by external request.
 Stoichiometry    CF2S
 Framework group  C2V[C2(CS),SGV(F2)]
 Deg. of freedom     3
 Full point group                 C2V     NOp   4
 Rotational constants (GHZ):     11.9449201      5.1130871      3.5804544
 Standard basis: Aug-CC-pVTZ (5D, 7F)
 Integral buffers will be    131072 words long.
 Raffenetti 1 integral format.
 Two-electron integral symmetry is turned off.
   188 basis functions,   330 primitive gaussians,   224 cartesian basis functions
    20 alpha electrons       20 beta electrons
       nuclear repulsion energy       154.3928582966 Hartrees.
 NAtoms=    4 NActive=    4 NUniq=    4 SFac= 1.00D+00 NAtFMM=   50 NAOKFM=F Big=F
 One-electron integrals computed using PRISM.
 NBasis=   188 RedAO= T  NBF=   188
 NBsUse=   188 1.00D-06 NBFU=   188
 Harris functional with IExCor=  205 diagonalized for initial guess.
 ExpMin= 3.51D-02 ExpMax= 3.74D+05 ExpMxC= 1.18D+03 IAcc=3 IRadAn=         0 AccDes= 0.00D+00
 HarFok:  IExCor=  205 AccDes= 0.00D+00 IRadAn=         0 IDoV= 1
 ScaDFX=  1.000000  1.000000  1.000000  1.000000
 FoFCou: FMM=F IPFlag=           0 FMFlag=      100000 FMFlg1=           0
         NFxFlg=           0 DoJE=T BraDBF=F KetDBF=T FulRan=T
         Omega=  0.000000  0.000000  1.000000  0.000000  0.000000 ICntrl=     500 IOpCl=  0
         NMat0=    1 NMatS0=    1 NMatT0=    0 NMatD0=    1 NMtDS0=    0 NMtDT0=    0
         I1Cent=           4 NGrid=           0.
 Symmetry not used in FoFCou.
 Requested convergence on RMS density matrix=1.00D-08 within 128 cycles.
 Requested convergence on MAX density matrix=1.00D-06.
 Requested convergence on             energy=1.00D-06.
 No special actions if energy rises.
 Keep R1 ints in memory in canonical form, NReq=323399632.
 SCF Done:  E(RHF) =  -634.356870457     A.U. after   12 cycles
             Convg  =    0.7678D-08             -V/T =  2.0005
 ExpMin= 3.51D-02 ExpMax= 3.74D+05 ExpMxC= 1.18D+03 IAcc=3 IRadAn=         5 AccDes= 0.00D+00
 HarFok:  IExCor=  205 AccDes= 0.00D+00 IRadAn=         5 IDoV=-2
 ScaDFX=  1.000000  1.000000  1.000000  1.000000
 DSYEVD returned Info=          93 IAlg= 4 N=    46 NDim=    46 NE2=    21472498 trying DSYEV.
 DSYEVD returned Info=          93 IAlg= 4 N=    46 NDim=    46 NE2=    21472498 trying DSYEV.
 Range of M.O.s used for correlation:     9   188
 NBasis=   188 NAE=    20 NBE=    20 NFC=     8 NFV=     0
 NROrb=    180 NOA=    12 NOB=    12 NVA=   168 NVB=   168

 **** Warning!!: The largest alpha MO coefficient is  0.26786365D+02

 Semi-Direct transformation.
 ModeAB=           2 MOrb=            12 LenV=    1072746531
 LASXX=     33405819 LTotXX=    33405819 LenRXX=    33405819
 LTotAB=    33954012 MaxLAS=    54432000 LenRXY=    54432000
 NonZer=    66811638 LenScr=   100987392 LnRSAI=           0
 LnScr1=           0 LExtra=           0 Total=    188825211
 MaxDsk=          -1 SrtSym=           F ITran=            4
 JobTyp=0 Pass  1:  I=   1 to  12.
 (rs|ai) integrals will be sorted in core.
 Spin components of T(2) and E(2):
     alpha-alpha T2 =       0.3014340084D-01 E2=     -0.1104082433D+00
     alpha-beta  T2 =       0.1598226644D+00 E2=     -0.6187182530D+00
     beta-beta   T2 =       0.3014340084D-01 E2=     -0.1104082433D+00
 ANorm=    0.1104585654D+01
 E2 =    -0.8395347396D+00 EUMP2 =    -0.63519640519629D+03
 R2 and R3 integrals will be kept in memory, NReq=   640760400.
 Iterations=  50 Convergence= 0.100D-07
 Iteration Nr.   1
 **********************
 DD1Dir will call FoFMem   1 times, MxPair=       156
 NAB=    78 NAA=     0 NBB=     0.
 MP4(R+Q)=  0.19352800D-01
 E3=       -0.33857009D-02        EUMP3=      -0.63519979090D+03
 E4(DQ)=    0.24272740D-02        UMP4(DQ)=   -0.63519736362D+03
 E4(SDQ)=  -0.84301923D-02        UMP4(SDQ)=  -0.63520822109D+03
 DE(Corr)= -0.82356764     E(Corr)=     -635.18043810    
 NORM(A)=   0.11038521D+01
 Iteration Nr.   2
 **********************
 DD1Dir will call FoFMem   1 times, MxPair=       156
 NAB=    78 NAA=     0 NBB=     0.
 DE(Corr)= -0.84925157     E(CORR)=     -635.20612202     Delta=-2.57D-02
 NORM(A)=   0.11127833D+01
 Iteration Nr.   3
 **********************
 DD1Dir will call FoFMem   1 times, MxPair=       156
 NAB=    78 NAA=     0 NBB=     0.
 DE(Corr)= -0.84757747     E(CORR)=     -635.20444793     Delta= 1.67D-03
 NORM(A)=   0.11156252D+01
 Iteration Nr.   4
 **********************
 DD1Dir will call FoFMem   1 times, MxPair=       156
 NAB=    78 NAA=     0 NBB=     0.
 DE(Corr)= -0.85010858     E(CORR)=     -635.20697904     Delta=-2.53D-03
 NORM(A)=   0.11167363D+01
 Iteration Nr.   5
 **********************
 DD1Dir will call FoFMem   1 times, MxPair=       156
 NAB=    78 NAA=     0 NBB=     0.
 DE(Corr)= -0.85040980     E(CORR)=     -635.20728025     Delta=-3.01D-04
 NORM(A)=   0.11170622D+01
 Iteration Nr.   6
 **********************
 DD1Dir will call FoFMem   1 times, MxPair=       156
 NAB=    78 NAA=     0 NBB=     0.
 DE(Corr)= -0.85044928     E(CORR)=     -635.20731974     Delta=-3.95D-05
 NORM(A)=   0.11171107D+01
 Iteration Nr.   7
 **********************
 DD1Dir will call FoFMem   1 times, MxPair=       156
 NAB=    78 NAA=     0 NBB=     0.
 DE(Corr)= -0.85045358     E(CORR)=     -635.20732404     Delta=-4.30D-06
 NORM(A)=   0.11171105D+01
 Iteration Nr.   8
 **********************
 DD1Dir will call FoFMem   1 times, MxPair=       156
 NAB=    78 NAA=     0 NBB=     0.
 DE(Corr)= -0.85045220     E(CORR)=     -635.20732265     Delta= 1.38D-06
 NORM(A)=   0.11171157D+01
 Iteration Nr.   9
 **********************
 DD1Dir will call FoFMem   1 times, MxPair=       156
 NAB=    78 NAA=     0 NBB=     0.
 DE(Corr)= -0.85045189     E(CORR)=     -635.20732234     Delta= 3.11D-07
 NORM(A)=   0.11171158D+01
 Iteration Nr.  10
 **********************
 DD1Dir will call FoFMem   1 times, MxPair=       156
 NAB=    78 NAA=     0 NBB=     0.
 DE(Corr)= -0.85045198     E(CORR)=     -635.20732244     Delta=-9.57D-08
 NORM(A)=   0.11171173D+01
 Iteration Nr.  11
 **********************
 DD1Dir will call FoFMem   1 times, MxPair=       156
 NAB=    78 NAA=     0 NBB=     0.
 DE(Corr)= -0.85045272     E(CORR)=     -635.20732317     Delta=-7.33D-07
 NORM(A)=   0.11171187D+01
 Iteration Nr.  12
 **********************
 DD1Dir will call FoFMem   1 times, MxPair=       156
 NAB=    78 NAA=     0 NBB=     0.
 DE(Corr)= -0.85045295     E(CORR)=     -635.20732341     Delta=-2.38D-07
 NORM(A)=   0.11171194D+01
 Iteration Nr.  13
 **********************
 DD1Dir will call FoFMem   1 times, MxPair=       156
 NAB=    78 NAA=     0 NBB=     0.
 DE(Corr)= -0.85045322     E(CORR)=     -635.20732367     Delta=-2.64D-07
 NORM(A)=   0.11171199D+01
 Iteration Nr.  14
 **********************
 DD1Dir will call FoFMem   1 times, MxPair=       156
 NAB=    78 NAA=     0 NBB=     0.
 DE(Corr)= -0.85045328     E(CORR)=     -635.20732373     Delta=-5.94D-08
 NORM(A)=   0.11171200D+01
 Iteration Nr.  15
 **********************
 DD1Dir will call FoFMem   1 times, MxPair=       156
 NAB=    78 NAA=     0 NBB=     0.
 DE(Corr)= -0.85045332     E(CORR)=     -635.20732377     Delta=-3.92D-08
 NORM(A)=   0.11171201D+01
 Iteration Nr.  16
 **********************
 DD1Dir will call FoFMem   1 times, MxPair=       156
 NAB=    78 NAA=     0 NBB=     0.
 DE(Corr)= -0.85045333     E(CORR)=     -635.20732378     Delta=-1.09D-08
 NORM(A)=   0.11171201D+01
 Iteration Nr.  17
 **********************
 DD1Dir will call FoFMem   1 times, MxPair=       156
 NAB=    78 NAA=     0 NBB=     0.
 DE(Corr)= -0.85045332     E(CORR)=     -635.20732378     Delta= 1.64D-09
 NORM(A)=   0.11171201D+01
 Iteration Nr.  18
 **********************
 DD1Dir will call FoFMem   1 times, MxPair=       156
 NAB=    78 NAA=     0 NBB=     0.
 DE(Corr)= -0.85045333     E(CORR)=     -635.20732378     Delta=-1.62D-09
 NORM(A)=   0.11171201D+01
 Largest amplitude= 8.52D-02

 Z-AMPLITUDE ITERATIONS

 Iteration Nr.   1
 **********************
 DD1Dir will call FoFMem   1 times, MxPair=       156
 NAB=    78 NAA=     0 NBB=     0.
 DE(Z)  -0.82655013D+00          E(Z)=    -0.63518342058D+03
 NORM(A)=   0.11171237D+01
 Iteration Nr.   2
 **********************
 DD1Dir will call FoFMem   1 times, MxPair=       156
 NAB=    78 NAA=     0 NBB=     0.
 DE(Z)  -0.82655013D+00          E(Z)=    -0.63518342059D+03
 NORM(A)=   0.11171212D+01
 Iteration Nr.   3
 **********************
 DD1Dir will call FoFMem   1 times, MxPair=       156
 NAB=    78 NAA=     0 NBB=     0.
 DE(Z)  -0.82655014D+00          E(Z)=    -0.63518342060D+03
 NORM(A)=   0.11171203D+01
 Iteration Nr.   4
 **********************
 DD1Dir will call FoFMem   1 times, MxPair=       156
 NAB=    78 NAA=     0 NBB=     0.
 DE(Z)  -0.82655013D+00          E(Z)=    -0.63518342059D+03
 NORM(A)=   0.11171205D+01
 Iteration Nr.   5
 **********************
 DD1Dir will call FoFMem   1 times, MxPair=       156
 NAB=    78 NAA=     0 NBB=     0.
 DE(Z)  -0.82655013D+00          E(Z)=    -0.63518342059D+03
 NORM(A)=   0.11090201D+01
 Iteration Nr.   6
 **********************
 DD1Dir will call FoFMem   1 times, MxPair=       156
 NAB=    78 NAA=     0 NBB=     0.
 DE(Z)  -0.82643461D+00          E(Z)=    -0.63518330506D+03
 NORM(A)=   0.11089203D+01
 Iteration Nr.   7
 **********************
 DD1Dir will call FoFMem   1 times, MxPair=       156
 NAB=    78 NAA=     0 NBB=     0.
 DE(Z)  -0.82641958D+00          E(Z)=    -0.63518329004D+03
 NORM(A)=   0.11088863D+01
 Iteration Nr.   8
 **********************
 DD1Dir will call FoFMem   1 times, MxPair=       156
 NAB=    78 NAA=     0 NBB=     0.
 DE(Z)  -0.82640692D+00          E(Z)=    -0.63518327738D+03
 NORM(A)=   0.11088796D+01
 Iteration Nr.   9
 **********************
 DD1Dir will call FoFMem   1 times, MxPair=       156
 NAB=    78 NAA=     0 NBB=     0.
 DE(Z)  -0.82641105D+00          E(Z)=    -0.63518328150D+03
 NORM(A)=   0.11088783D+01
 Iteration Nr.  10
 **********************
 DD1Dir will call FoFMem   1 times, MxPair=       156
 NAB=    78 NAA=     0 NBB=     0.
 DE(Z)  -0.82640899D+00          E(Z)=    -0.63518327944D+03
 NORM(A)=   0.11088782D+01
 Iteration Nr.  11
 **********************
 DD1Dir will call FoFMem   1 times, MxPair=       156
 NAB=    78 NAA=     0 NBB=     0.
 DE(Z)  -0.82640961D+00          E(Z)=    -0.63518328007D+03
 NORM(A)=   0.11088784D+01
 Iteration Nr.  12
 **********************
 DD1Dir will call FoFMem   1 times, MxPair=       156
 NAB=    78 NAA=     0 NBB=     0.
 DE(Z)  -0.82640942D+00          E(Z)=    -0.63518327987D+03
 NORM(A)=   0.11088785D+01
 Iteration Nr.  13
 **********************
 DD1Dir will call FoFMem   1 times, MxPair=       156
 NAB=    78 NAA=     0 NBB=     0.
 DE(Z)  -0.82640951D+00          E(Z)=    -0.63518327996D+03
 NORM(A)=   0.11088785D+01
 Iteration Nr.  14
 **********************
 DD1Dir will call FoFMem   1 times, MxPair=       156
 NAB=    78 NAA=     0 NBB=     0.
 DE(Z)  -0.82640953D+00          E(Z)=    -0.63518327998D+03
 NORM(A)=   0.11088785D+01
 Iteration Nr.  15
 **********************
 DD1Dir will call FoFMem   1 times, MxPair=       156
 NAB=    78 NAA=     0 NBB=     0.
 DE(Z)  -0.82640950D+00          E(Z)=    -0.63518327996D+03
 NORM(A)=   0.11088785D+01
 Iteration Nr.  16
 **********************
 DD1Dir will call FoFMem   1 times, MxPair=       156
 NAB=    78 NAA=     0 NBB=     0.
 DE(Z)  -0.82640951D+00          E(Z)=    -0.63518327997D+03
 NORM(A)=   0.11088785D+01
 Discarding MO integrals.
          Differentiating once with respect to electric field.
                with respect to dipole field.
          Electric field/nuclear overlap derivatives assumed to be zero.
          Keep R1 ints in memory in canonical form, NReq=319473719.
          There are     1 degrees of freedom in the 1st order CPHF.  IDoFFX=0.
 LinEq1:  Iter=  0 NonCon=     1 RMS=2.85D-03 Max=7.75D-02
 AX will form     1 AO Fock derivatives at one time.
 LinEq1:  Iter=  1 NonCon=     1 RMS=8.84D-04 Max=1.23D-02
 LinEq1:  Iter=  2 NonCon=     1 RMS=4.03D-04 Max=1.29D-02
 LinEq1:  Iter=  3 NonCon=     1 RMS=1.09D-04 Max=2.39D-03
 LinEq1:  Iter=  4 NonCon=     1 RMS=2.69D-05 Max=6.37D-04
 LinEq1:  Iter=  5 NonCon=     1 RMS=6.77D-06 Max=1.03D-04
 LinEq1:  Iter=  6 NonCon=     1 RMS=2.67D-06 Max=5.71D-05
 LinEq1:  Iter=  7 NonCon=     1 RMS=8.32D-07 Max=1.52D-05
 LinEq1:  Iter=  8 NonCon=     1 RMS=1.67D-07 Max=2.33D-06
 LinEq1:  Iter=  9 NonCon=     1 RMS=3.13D-08 Max=3.73D-07
 LinEq1:  Iter= 10 NonCon=     1 RMS=6.21D-09 Max=7.38D-08
 LinEq1:  Iter= 11 NonCon=     1 RMS=9.85D-10 Max=1.58D-08
 LinEq1:  Iter= 12 NonCon=     1 RMS=1.41D-10 Max=1.93D-09
 LinEq1:  Iter= 13 NonCon=     0 RMS=2.58D-11 Max=2.91D-10
 Linear equations converged to 1.000D-10 1.000D-09 after    13 iterations.
 End of Minotr Frequency-dependent properties file   721 does not exist.
 End of Minotr Frequency-dependent properties file   722 does not exist.

 **********************************************************************

            Population analysis using the QCI/CC density.

 **********************************************************************

     Natural Orbital Coefficients:
                           1         2         3         4         5
     Eigenvalues --     2.00003   2.00002   2.00001   2.00001   2.00000
   1 1   C  1S          0.00000  -0.17768   0.59460   0.00000   0.48278
   2        2S          0.00000   0.00325  -0.00925   0.00000  -0.00495
   3        3S          0.00000  -0.00680   0.02394   0.00000   0.02018
   4        4S          0.00000  -0.00905   0.00229   0.00000  -0.00205
   5        5S          0.00000  -0.00083   0.00195   0.00000   0.00044
   6        6PX         0.00000   0.00000   0.00000  -0.00182   0.00000
   7        6PY        -0.00139   0.00000   0.00000   0.00000   0.00000
   8        6PZ         0.00000   0.00135  -0.00335   0.00000  -0.00038
   9        7PX         0.00000   0.00000   0.00000  -0.00184   0.00000
  10        7PY        -0.00364   0.00000   0.00000   0.00000   0.00000
  11        7PZ         0.00000  -0.00098   0.00139   0.00000   0.00160
  12        8PX         0.00000   0.00000   0.00000  -0.00120   0.00000
  13        8PY         0.00601   0.00000   0.00000   0.00000   0.00000
  14        8PZ         0.00000  -0.00923   0.00528   0.00000  -0.00109
  15        9PX         0.00000   0.00000   0.00000   0.00009   0.00000
  16        9PY        -0.00061   0.00000   0.00000   0.00000   0.00000
  17        9PZ         0.00000   0.00035   0.00029   0.00000   0.00054
  18       10D 0        0.00000  -0.00008   0.00007   0.00000   0.00019
  19       10D+1        0.00000   0.00000   0.00000  -0.00030   0.00000
  20       10D-1       -0.00030   0.00000   0.00000   0.00000   0.00000
  21       10D+2        0.00000   0.00011  -0.00037   0.00000  -0.00019
  22       10D-2        0.00000   0.00000   0.00000   0.00000   0.00000
  23       11D 0        0.00000  -0.00116   0.00018   0.00000  -0.00032
  24       11D+1        0.00000   0.00000   0.00000   0.00120   0.00000
  25       11D-1        0.00103   0.00000   0.00000   0.00000   0.00000
  26       11D+2        0.00000  -0.00013   0.00118   0.00000   0.00082
  27       11D-2        0.00000   0.00000   0.00000   0.00000   0.00000
  28       12D 0        0.00000  -0.00270   0.00163   0.00000  -0.00137
  29       12D+1        0.00000   0.00000   0.00000  -0.00054   0.00000
  30       12D-1       -0.00446   0.00000   0.00000   0.00000   0.00000
  31       12D+2        0.00000  -0.00088   0.00057   0.00000  -0.00054
  32       12D-2        0.00000   0.00000   0.00000   0.00000   0.00000
  33       13F 0        0.00000  -0.00005  -0.00001   0.00000   0.00041
  34       13F+1        0.00000   0.00000   0.00000  -0.00018   0.00000
  35       13F-1       -0.00055   0.00000   0.00000   0.00000   0.00000
  36       13F+2        0.00000  -0.00010   0.00016   0.00000   0.00002
  37       13F-2        0.00000   0.00000   0.00000   0.00000   0.00000
  38       13F+3        0.00000   0.00000   0.00000   0.00002   0.00000
  39       13F-3        0.00005   0.00000   0.00000   0.00000   0.00000
  40       14F 0        0.00000   0.00062  -0.00195   0.00000  -0.00025
  41       14F+1        0.00000   0.00000   0.00000   0.00089   0.00000
  42       14F-1        0.00290   0.00000   0.00000   0.00000   0.00000
  43       14F+2        0.00000   0.00066  -0.00151   0.00000  -0.00089
  44       14F-2        0.00000   0.00000   0.00000   0.00000   0.00000
  45       14F+3        0.00000   0.00000   0.00000   0.00017   0.00000
  46       14F-3        0.00003   0.00000   0.00000   0.00000   0.00000
  47 2   S  1S          0.00000  -0.21706  -0.16981   0.00000   0.07188
  48        2S          0.00000   0.74221   0.58707   0.00000  -0.24952
  49        3S          0.00000  -0.02144  -0.00890   0.00000   0.00218
  50        4S          0.00000   0.04959   0.04235   0.00000  -0.01822
  51        5S          0.00000   0.01001  -0.01127   0.00000   0.00417
  52        6S          0.00000   0.00100  -0.00257   0.00000  -0.00081
  53        7PX         0.00000   0.00000   0.00000   0.97269   0.00000
  54        7PY         0.97647   0.00000   0.00000   0.00000   0.00000
  55        7PZ         0.00000   0.62351  -0.50354   0.00000   0.43824
  56        8PX         0.00000   0.00000   0.00000  -0.01225   0.00000
  57        8PY        -0.02022   0.00000   0.00000   0.00000   0.00000
  58        8PZ         0.00000  -0.01235   0.00874   0.00000  -0.00447
  59        9PX         0.00000   0.00000   0.00000   0.06130   0.00000
  60        9PY         0.05654   0.00000   0.00000   0.00000   0.00000
  61        9PZ         0.00000   0.03855  -0.03310   0.00000   0.02891
  62       10PX         0.00000   0.00000   0.00000   0.00020   0.00000
  63       10PY        -0.00421   0.00000   0.00000   0.00000   0.00000
  64       10PZ         0.00000  -0.00881   0.00483   0.00000  -0.00069
  65       11PX         0.00000   0.00000   0.00000  -0.00082   0.00000
  66       11PY        -0.00033   0.00000   0.00000   0.00000   0.00000
  67       11PZ         0.00000  -0.00029   0.00029   0.00000  -0.00003
  68       12D 0        0.00000   0.00245  -0.00293   0.00000   0.00107
  69       12D+1        0.00000   0.00000   0.00000   0.00201   0.00000
  70       12D-1        0.00336   0.00000   0.00000   0.00000   0.00000
  71       12D+2        0.00000  -0.00039   0.00026   0.00000   0.00029
  72       12D-2        0.00000   0.00000   0.00000   0.00000   0.00000
  73       13D 0        0.00000   0.00019   0.00028   0.00000  -0.00069
  74       13D+1        0.00000   0.00000   0.00000  -0.00013   0.00000
  75       13D-1       -0.00028   0.00000   0.00000   0.00000   0.00000
  76       13D+2        0.00000   0.00026   0.00013   0.00000  -0.00008
  77       13D-2        0.00000   0.00000   0.00000   0.00000   0.00000
  78       14D 0        0.00000   0.00141  -0.00061   0.00000   0.00010
  79       14D+1        0.00000   0.00000   0.00000  -0.00039   0.00000
  80       14D-1       -0.00081   0.00000   0.00000   0.00000   0.00000
  81       14D+2        0.00000   0.00025  -0.00002   0.00000   0.00014
  82       14D-2        0.00000   0.00000   0.00000   0.00000   0.00000
  83       15F 0        0.00000  -0.00022   0.00029   0.00000   0.00033
  84       15F+1        0.00000   0.00000   0.00000  -0.00023   0.00000
  85       15F-1       -0.00022   0.00000   0.00000   0.00000   0.00000
  86       15F+2        0.00000   0.00011  -0.00014   0.00000   0.00003
  87       15F-2        0.00000   0.00000   0.00000   0.00000   0.00000
  88       15F+3        0.00000   0.00000   0.00000   0.00009   0.00000
  89       15F-3        0.00006   0.00000   0.00000   0.00000   0.00000
  90       16F 0        0.00000  -0.00046   0.00057   0.00000  -0.00046
  91       16F+1        0.00000   0.00000   0.00000  -0.00047   0.00000
  92       16F-1       -0.00103   0.00000   0.00000   0.00000   0.00000
  93       16F+2        0.00000  -0.00001  -0.00017   0.00000  -0.00026
  94       16F-2        0.00000   0.00000   0.00000   0.00000   0.00000
  95       16F+3        0.00000   0.00000   0.00000  -0.00013   0.00000
  96       16F-3       -0.00012   0.00000   0.00000   0.00000   0.00000
  97 3   F  1S          0.00831   0.01088  -0.08480   0.00000  -0.48453
  98        2S          0.00019  -0.00044   0.00235   0.00000   0.00838
  99        3S          0.00045   0.00040  -0.00339   0.00000  -0.02059
 100        4S          0.00030  -0.00133   0.00376   0.00000   0.00181
 101        5S          0.00719  -0.00214   0.00122   0.00000  -0.00032
 102        6PX         0.00000   0.00000   0.00000   0.00095   0.00000
 103        6PY        -0.00019   0.00002  -0.00069   0.00000  -0.00171
 104        6PZ        -0.00058  -0.00014  -0.00018   0.00000  -0.00143
 105        7PX         0.00000   0.00000   0.00000   0.00118   0.00000
 106        7PY        -0.00031  -0.00007  -0.00039   0.00000  -0.00093
 107        7PZ        -0.00085  -0.00030   0.00017   0.00000  -0.00085
 108        8PX         0.00000   0.00000   0.00000   0.00127   0.00000
 109        8PY        -0.00054   0.00002  -0.00020   0.00000  -0.00111
 110        8PZ        -0.00273  -0.00030   0.00072   0.00000  -0.00141
 111        9PX         0.00000   0.00000   0.00000  -0.00001   0.00000
 112        9PY         0.00169  -0.00009  -0.00005   0.00000   0.00007
 113        9PZ         0.00021  -0.00110   0.00052   0.00000  -0.00068
 114       10D 0        0.00000   0.00001   0.00000   0.00000   0.00001
 115       10D+1        0.00000   0.00000   0.00000  -0.00001   0.00000
 116       10D-1        0.00001   0.00000   0.00002   0.00000   0.00002
 117       10D+2        0.00000   0.00001  -0.00002   0.00000   0.00002
 118       10D-2        0.00000   0.00000   0.00000  -0.00002   0.00000
 119       11D 0        0.00015   0.00001  -0.00006   0.00000  -0.00003
 120       11D+1        0.00000   0.00000   0.00000  -0.00003   0.00000
 121       11D-1       -0.00007   0.00004  -0.00013   0.00000  -0.00010
 122       11D+2        0.00004  -0.00001   0.00007   0.00000  -0.00001
 123       11D-2        0.00000   0.00000   0.00000   0.00005   0.00000
 124       12D 0       -0.00046   0.00019  -0.00029   0.00000  -0.00005
 125       12D+1        0.00000   0.00000   0.00000   0.00024   0.00000
 126       12D-1       -0.00084  -0.00007   0.00022   0.00000  -0.00052
 127       12D+2        0.00040  -0.00017   0.00034   0.00000   0.00020
 128       12D-2        0.00000   0.00000   0.00000   0.00004   0.00000
 129       13F 0       -0.00001  -0.00002   0.00004   0.00000  -0.00001
 130       13F+1        0.00000   0.00000   0.00000   0.00001   0.00000
 131       13F-1        0.00003   0.00001   0.00000   0.00000   0.00002
 132       13F+2       -0.00001  -0.00001   0.00001   0.00000  -0.00004
 133       13F-2        0.00000   0.00000   0.00000  -0.00002   0.00000
 134       13F+3        0.00000   0.00000   0.00000   0.00001   0.00000
 135       13F-3       -0.00002   0.00001  -0.00002   0.00000   0.00001
 136       14F 0        0.00013   0.00006  -0.00009   0.00000   0.00014
 137       14F+1        0.00000   0.00000   0.00000  -0.00003   0.00000
 138       14F-1       -0.00001   0.00003  -0.00014   0.00000  -0.00019
 139       14F+2        0.00007  -0.00001   0.00012   0.00000   0.00030
 140       14F-2        0.00000   0.00000   0.00000   0.00008   0.00000
 141       14F+3        0.00000   0.00000   0.00000  -0.00004   0.00000
 142       14F-3        0.00012  -0.00005   0.00015   0.00000   0.00000
 143 4   F  1S         -0.00831   0.01088  -0.08480   0.00000  -0.48453
 144        2S         -0.00019  -0.00044   0.00235   0.00000   0.00838
 145        3S         -0.00045   0.00040  -0.00339   0.00000  -0.02059
 146        4S         -0.00030  -0.00133   0.00376   0.00000   0.00181
 147        5S         -0.00719  -0.00214   0.00122   0.00000  -0.00032
 148        6PX         0.00000   0.00000   0.00000   0.00095   0.00000
 149        6PY        -0.00019  -0.00002   0.00069   0.00000   0.00171
 150        6PZ         0.00058  -0.00014  -0.00018   0.00000  -0.00143
 151        7PX         0.00000   0.00000   0.00000   0.00118   0.00000
 152        7PY        -0.00031   0.00007   0.00039   0.00000   0.00093
 153        7PZ         0.00085  -0.00030   0.00017   0.00000  -0.00085
 154        8PX         0.00000   0.00000   0.00000   0.00127   0.00000
 155        8PY        -0.00054  -0.00002   0.00020   0.00000   0.00111
 156        8PZ         0.00273  -0.00030   0.00072   0.00000  -0.00141
 157        9PX         0.00000   0.00000   0.00000  -0.00001   0.00000
 158        9PY         0.00169   0.00009   0.00005   0.00000  -0.00007
 159        9PZ        -0.00021  -0.00110   0.00052   0.00000  -0.00068
 160       10D 0        0.00000   0.00001   0.00000   0.00000   0.00001
 161       10D+1        0.00000   0.00000   0.00000  -0.00001   0.00000
 162       10D-1        0.00001   0.00000  -0.00002   0.00000  -0.00002
 163       10D+2        0.00000   0.00001  -0.00002   0.00000   0.00002
 164       10D-2        0.00000   0.00000   0.00000   0.00002   0.00000
 165       11D 0       -0.00015   0.00001  -0.00006   0.00000  -0.00003
 166       11D+1        0.00000   0.00000   0.00000  -0.00003   0.00000
 167       11D-1       -0.00007  -0.00004   0.00013   0.00000   0.00010
 168       11D+2       -0.00004  -0.00001   0.00007   0.00000  -0.00001
 169       11D-2        0.00000   0.00000   0.00000  -0.00005   0.00000
 170       12D 0        0.00046   0.00019  -0.00029   0.00000  -0.00005
 171       12D+1        0.00000   0.00000   0.00000   0.00024   0.00000
 172       12D-1       -0.00084   0.00007  -0.00022   0.00000   0.00052
 173       12D+2       -0.00040  -0.00017   0.00034   0.00000   0.00020
 174       12D-2        0.00000   0.00000   0.00000  -0.00004   0.00000
 175       13F 0        0.00001  -0.00002   0.00004   0.00000  -0.00001
 176       13F+1        0.00000   0.00000   0.00000   0.00001   0.00000
 177       13F-1        0.00003  -0.00001   0.00000   0.00000  -0.00002
 178       13F+2        0.00001  -0.00001   0.00001   0.00000  -0.00004
 179       13F-2        0.00000   0.00000   0.00000   0.00002   0.00000
 180       13F+3        0.00000   0.00000   0.00000   0.00001   0.00000
 181       13F-3       -0.00002  -0.00001   0.00002   0.00000  -0.00001
 182       14F 0       -0.00013   0.00006  -0.00009   0.00000   0.00014
 183       14F+1        0.00000   0.00000   0.00000  -0.00003   0.00000
 184       14F-1       -0.00001  -0.00003   0.00014   0.00000   0.00019
 185       14F+2       -0.00007  -0.00001   0.00012   0.00000   0.00030
 186       14F-2        0.00000   0.00000   0.00000  -0.00008   0.00000
 187       14F+3        0.00000   0.00000   0.00000  -0.00004   0.00000
 188       14F-3        0.00012   0.00005  -0.00015   0.00000   0.00000
                           6         7         8         9        10
     Eigenvalues --     2.00000   2.00000   2.00000   1.98612   1.98546
   1 1   C  1S          0.00000   0.58705   0.00016  -0.04809   0.00000
   2        2S          0.00000  -0.00556  -0.00003   0.09895   0.00000
   3        3S          0.00000   0.02379   0.00002   0.02060   0.00000
   4        4S          0.00000  -0.00203  -0.00004   0.01129   0.00000
   5        5S          0.00000   0.00065  -0.00007   0.00489   0.00000
   6        6PX         0.00000   0.00000   0.00000   0.00000   0.00000
   7        6PY        -0.00002   0.00000   0.00000   0.00000   0.03332
   8        6PZ         0.00000  -0.00095   0.00001  -0.02072   0.00000
   9        7PX         0.00000   0.00000   0.00000   0.00000   0.00000
  10        7PY         0.00072   0.00000   0.00000   0.00000   0.02711
  11        7PZ         0.00000   0.00018  -0.00013  -0.02473   0.00000
  12        8PX         0.00000   0.00000   0.00000   0.00000   0.00000
  13        8PY        -0.00059   0.00000   0.00000   0.00000  -0.01794
  14        8PZ         0.00000   0.00218   0.00003   0.03658   0.00000
  15        9PX         0.00000   0.00000   0.00000   0.00000   0.00000
  16        9PY         0.00033   0.00000   0.00000   0.00000   0.00139
  17        9PZ         0.00000   0.00028  -0.00003   0.00128   0.00000
  18       10D 0        0.00000   0.00023  -0.00001   0.00308   0.00000
  19       10D+1        0.00000   0.00000   0.00000   0.00000   0.00000
  20       10D-1       -0.00020   0.00000   0.00000   0.00000  -0.01045
  21       10D+2        0.00000  -0.00051   0.00000  -0.00842   0.00000
  22       10D-2        0.00000   0.00000   0.00000   0.00000   0.00000
  23       11D 0        0.00000  -0.00049  -0.00008   0.00233   0.00000
  24       11D+1        0.00000   0.00000   0.00000   0.00000   0.00000
  25       11D-1       -0.00124   0.00000   0.00000   0.00000  -0.01070
  26       11D+2        0.00000   0.00000  -0.00003  -0.01134   0.00000
  27       11D-2        0.00000   0.00000   0.00000   0.00000   0.00000
  28       12D 0        0.00000  -0.00014  -0.00002   0.00686   0.00000
  29       12D+1        0.00000   0.00000   0.00000   0.00000   0.00000
  30       12D-1        0.00064   0.00000   0.00000   0.00000   0.01329
  31       12D+2        0.00000   0.00026   0.00000   0.00846   0.00000
  32       12D-2        0.00000   0.00000   0.00000   0.00000   0.00000
  33       13F 0        0.00000   0.00061   0.00001   0.00274   0.00000
  34       13F+1        0.00000   0.00000   0.00000   0.00000   0.00000
  35       13F-1        0.00017   0.00000   0.00000   0.00000   0.00181
  36       13F+2        0.00000   0.00060   0.00001   0.00521   0.00000
  37       13F-2        0.00000   0.00000   0.00000   0.00000   0.00000
  38       13F+3        0.00000   0.00000   0.00000   0.00000   0.00000
  39       13F-3       -0.00021   0.00000   0.00000   0.00000  -0.00214
  40       14F 0        0.00000   0.00053   0.00003   0.00420   0.00000
  41       14F+1        0.00000   0.00000   0.00000   0.00000   0.00000
  42       14F-1        0.00106   0.00000   0.00000   0.00000   0.00423
  43       14F+2        0.00000  -0.00025   0.00001   0.00234   0.00000
  44       14F-2        0.00000   0.00000   0.00000   0.00000   0.00000
  45       14F+3        0.00000   0.00000   0.00000   0.00000   0.00000
  46       14F-3        0.00013   0.00000   0.00000   0.00000   0.00034
  47 2   S  1S          0.00000   0.04650   0.99640   0.00292   0.00000
  48        2S          0.00000  -0.16291   0.01318  -0.01167   0.00000
  49        3S          0.00000   0.00050   0.00031   0.02249   0.00000
  50        4S          0.00000  -0.01214  -0.00003   0.00241   0.00000
  51        5S          0.00000   0.00117  -0.00005  -0.01837   0.00000
  52        6S          0.00000  -0.00093   0.00005  -0.01149   0.00000
  53        7PX         0.00000   0.00000   0.00000   0.00000   0.00000
  54        7PY         0.01182   0.00000   0.00000   0.00000  -0.00434
  55        7PZ         0.00000   0.33443   0.00171   0.00758   0.00000
  56        8PX         0.00000   0.00000   0.00000   0.00000   0.00000
  57        8PY        -0.00034   0.00000   0.00000   0.00000   0.01612
  58        8PZ         0.00000  -0.00288  -0.00018  -0.01279   0.00000
  59        9PX         0.00000   0.00000   0.00000   0.00000   0.00000
  60        9PY         0.00073   0.00000   0.00000   0.00000   0.00663
  61        9PZ         0.00000   0.02235   0.00019  -0.00742   0.00000
  62       10PX         0.00000   0.00000   0.00000   0.00000   0.00000
  63       10PY        -0.00048   0.00000   0.00000   0.00000   0.00416
  64       10PZ         0.00000  -0.00018   0.00003   0.00652   0.00000
  65       11PX         0.00000   0.00000   0.00000   0.00000   0.00000
  66       11PY        -0.00018   0.00000   0.00000   0.00000  -0.00054
  67       11PZ         0.00000   0.00007   0.00000   0.00188   0.00000
  68       12D 0        0.00000   0.00101   0.00008   0.00139   0.00000
  69       12D+1        0.00000   0.00000   0.00000   0.00000   0.00000
  70       12D-1        0.00012   0.00000   0.00000   0.00000   0.00009
  71       12D+2        0.00000   0.00009  -0.00001  -0.00020   0.00000
  72       12D-2        0.00000   0.00000   0.00000   0.00000   0.00000
  73       13D 0        0.00000  -0.00067   0.00001   0.00257   0.00000
  74       13D+1        0.00000   0.00000   0.00000   0.00000   0.00000
  75       13D-1       -0.00001   0.00000   0.00000   0.00000  -0.00034
  76       13D+2        0.00000  -0.00005   0.00001  -0.00001   0.00000
  77       13D-2        0.00000   0.00000   0.00000   0.00000   0.00000
  78       14D 0        0.00000   0.00026  -0.00003  -0.00158   0.00000
  79       14D+1        0.00000   0.00000   0.00000   0.00000   0.00000
  80       14D-1        0.00013   0.00000   0.00000   0.00000   0.00196
  81       14D+2        0.00000  -0.00008   0.00000  -0.00270   0.00000
  82       14D-2        0.00000   0.00000   0.00000   0.00000   0.00000
  83       15F 0        0.00000   0.00035  -0.00002  -0.00045   0.00000
  84       15F+1        0.00000   0.00000   0.00000   0.00000   0.00000
  85       15F-1        0.00000   0.00000   0.00000   0.00000   0.00021
  86       15F+2        0.00000   0.00009   0.00000   0.00001   0.00000
  87       15F-2        0.00000   0.00000   0.00000   0.00000   0.00000
  88       15F+3        0.00000   0.00000   0.00000   0.00000   0.00000
  89       15F-3       -0.00001   0.00000   0.00000   0.00000   0.00000
  90       16F 0        0.00000  -0.00050  -0.00001   0.00034   0.00000
  91       16F+1        0.00000   0.00000   0.00000   0.00000   0.00000
  92       16F-1       -0.00002   0.00000   0.00000   0.00000  -0.00019
  93       16F+2        0.00000  -0.00009   0.00000   0.00088   0.00000
  94       16F-2        0.00000   0.00000   0.00000   0.00000   0.00000
  95       16F+3        0.00000   0.00000   0.00000   0.00000   0.00000
  96       16F-3        0.00003   0.00000   0.00000   0.00000   0.00024
  97 3   F  1S         -0.69208   0.48675   0.00014  -0.14653   0.15004
  98        2S          0.01116  -0.00689  -0.00001   0.37465  -0.38398
  99        3S         -0.02981   0.02132   0.00001   0.11418  -0.11769
 100        4S          0.00069   0.00123  -0.00003   0.23445  -0.25373
 101        5S         -0.00067   0.00032   0.00004   0.01848  -0.03170
 102        6PX         0.00000   0.00000   0.00000   0.00000   0.00000
 103        6PY        -0.00143   0.00045   0.00000  -0.00577   0.03767
 104        6PZ        -0.00109   0.00001   0.00000  -0.02186   0.00808
 105        7PX         0.00000   0.00000   0.00000   0.00000   0.00000
 106        7PY         0.00014  -0.00073  -0.00001  -0.00268   0.04114
 107        7PZ        -0.00012  -0.00097  -0.00001  -0.02387   0.00614
 108        8PX         0.00000   0.00000   0.00000   0.00000   0.00000
 109        8PY        -0.00067   0.00059   0.00000  -0.01350   0.03418
 110        8PZ        -0.00152  -0.00063  -0.00004  -0.02907   0.00461
 111        9PX         0.00000   0.00000   0.00000   0.00000   0.00000
 112        9PY        -0.00040   0.00008   0.00001  -0.00170  -0.00111
 113        9PZ        -0.00005  -0.00014   0.00001  -0.00055   0.00042
 114       10D 0        0.00000   0.00001   0.00000  -0.00013  -0.00014
 115       10D+1        0.00000   0.00000   0.00000   0.00000   0.00000
 116       10D-1       -0.00001   0.00005   0.00000   0.00065  -0.00041
 117       10D+2        0.00001  -0.00001   0.00000  -0.00065   0.00009
 118       10D-2        0.00000   0.00000   0.00000   0.00000   0.00000
 119       11D 0       -0.00007  -0.00007   0.00000  -0.00077  -0.00094
 120       11D+1        0.00000   0.00000   0.00000   0.00000   0.00000
 121       11D-1        0.00024  -0.00052  -0.00001   0.00359  -0.00384
 122       11D+2       -0.00017   0.00021   0.00000  -0.00336   0.00194
 123       11D-2        0.00000   0.00000   0.00000   0.00000   0.00000
 124       12D 0       -0.00031  -0.00012   0.00000  -0.00141  -0.00124
 125       12D+1        0.00000   0.00000   0.00000   0.00000   0.00000
 126       12D-1       -0.00038  -0.00029  -0.00002  -0.00528   0.00000
 127       12D+2        0.00017  -0.00013  -0.00001   0.00184  -0.00126
 128       12D-2        0.00000   0.00000   0.00000   0.00000   0.00000
 129       13F 0        0.00000  -0.00002   0.00000  -0.00034   0.00011
 130       13F+1        0.00000   0.00000   0.00000   0.00000   0.00000
 131       13F-1        0.00001  -0.00001   0.00000   0.00014  -0.00028
 132       13F+2       -0.00001   0.00001   0.00000  -0.00054   0.00031
 133       13F-2        0.00000   0.00000   0.00000   0.00000   0.00000
 134       13F+3        0.00000   0.00000   0.00000   0.00000   0.00000
 135       13F-3       -0.00006   0.00002   0.00000  -0.00042   0.00003
 136       14F 0       -0.00004   0.00020   0.00001  -0.00035   0.00035
 137       14F+1        0.00000   0.00000   0.00000   0.00000   0.00000
 138       14F-1       -0.00003  -0.00020   0.00000  -0.00018  -0.00086
 139       14F+2        0.00000   0.00027   0.00000  -0.00075   0.00096
 140       14F-2        0.00000   0.00000   0.00000   0.00000   0.00000
 141       14F+3        0.00000   0.00000   0.00000   0.00000   0.00000
 142       14F-3        0.00012   0.00004   0.00000  -0.00047   0.00062
 143 4   F  1S          0.69208   0.48675   0.00014  -0.14653  -0.15004
 144        2S         -0.01116  -0.00689  -0.00001   0.37465   0.38398
 145        3S          0.02981   0.02132   0.00001   0.11418   0.11769
 146        4S         -0.00069   0.00123  -0.00003   0.23445   0.25373
 147        5S          0.00067   0.00032   0.00004   0.01848   0.03170
 148        6PX         0.00000   0.00000   0.00000   0.00000   0.00000
 149        6PY        -0.00143  -0.00045   0.00000   0.00577   0.03767
 150        6PZ         0.00109   0.00001   0.00000  -0.02186  -0.00808
 151        7PX         0.00000   0.00000   0.00000   0.00000   0.00000
 152        7PY         0.00014   0.00073   0.00001   0.00268   0.04114
 153        7PZ         0.00012  -0.00097  -0.00001  -0.02387  -0.00614
 154        8PX         0.00000   0.00000   0.00000   0.00000   0.00000
 155        8PY        -0.00067  -0.00059   0.00000   0.01350   0.03418
 156        8PZ         0.00152  -0.00063  -0.00004  -0.02907  -0.00461
 157        9PX         0.00000   0.00000   0.00000   0.00000   0.00000
 158        9PY        -0.00040  -0.00008  -0.00001   0.00170  -0.00111
 159        9PZ         0.00005  -0.00014   0.00001  -0.00055  -0.00042
 160       10D 0        0.00000   0.00001   0.00000  -0.00013   0.00014
 161       10D+1        0.00000   0.00000   0.00000   0.00000   0.00000
 162       10D-1       -0.00001  -0.00005   0.00000  -0.00065  -0.00041
 163       10D+2       -0.00001  -0.00001   0.00000  -0.00065  -0.00009
 164       10D-2        0.00000   0.00000   0.00000   0.00000   0.00000
 165       11D 0        0.00007  -0.00007   0.00000  -0.00077   0.00094
 166       11D+1        0.00000   0.00000   0.00000   0.00000   0.00000
 167       11D-1        0.00024   0.00052   0.00001  -0.00359  -0.00384
 168       11D+2        0.00017   0.00021   0.00000  -0.00336  -0.00194
 169       11D-2        0.00000   0.00000   0.00000   0.00000   0.00000
 170       12D 0        0.00031  -0.00012   0.00000  -0.00141   0.00124
 171       12D+1        0.00000   0.00000   0.00000   0.00000   0.00000
 172       12D-1       -0.00038   0.00029   0.00002   0.00528   0.00000
 173       12D+2       -0.00017  -0.00013  -0.00001   0.00184   0.00126
 174       12D-2        0.00000   0.00000   0.00000   0.00000   0.00000
 175       13F 0        0.00000  -0.00002   0.00000  -0.00034  -0.00011
 176       13F+1        0.00000   0.00000   0.00000   0.00000   0.00000
 177       13F-1        0.00001   0.00001   0.00000  -0.00014  -0.00028
 178       13F+2        0.00001   0.00001   0.00000  -0.00054  -0.00031
 179       13F-2        0.00000   0.00000   0.00000   0.00000   0.00000
 180       13F+3        0.00000   0.00000   0.00000   0.00000   0.00000
 181       13F-3       -0.00006  -0.00002   0.00000   0.00042   0.00003
 182       14F 0        0.00004   0.00020   0.00001  -0.00035  -0.00035
 183       14F+1        0.00000   0.00000   0.00000   0.00000   0.00000
 184       14F-1       -0.00003   0.00020   0.00000   0.00018  -0.00086
 185       14F+2        0.00000   0.00027   0.00000  -0.00075  -0.00096
 186       14F-2        0.00000   0.00000   0.00000   0.00000   0.00000
 187       14F+3        0.00000   0.00000   0.00000   0.00000   0.00000
 188       14F-3        0.00012  -0.00004   0.00000   0.00047   0.00062
                          11        12        13        14        15
     Eigenvalues --     1.97415   1.97117   1.97007   1.96730   1.96693
   1 1   C  1S         -0.05547  -0.10227   0.00000   0.00000   0.00000
   2        2S          0.15000   0.27583   0.00000   0.00000   0.00000
   3        3S          0.03538   0.06787   0.00000   0.00000   0.00000
   4        4S          0.01896   0.14478   0.00000   0.00000   0.00000
   5        5S         -0.02048   0.04370   0.00000   0.00000   0.00000
   6        6PX         0.00000   0.00000   0.00000   0.00000   0.10236
   7        6PY         0.00000   0.00000  -0.05183   0.00000   0.00000
   8        6PZ         0.09085   0.00964   0.00000   0.00000   0.00000
   9        7PX         0.00000   0.00000   0.00000   0.00000   0.12544
  10        7PY         0.00000   0.00000  -0.07641   0.00000   0.00000
  11        7PZ         0.11661  -0.00378   0.00000   0.00000   0.00000
  12        8PX         0.00000   0.00000   0.00000   0.00000   0.00521
  13        8PY         0.00000   0.00000   0.05617   0.00000   0.00000
  14        8PZ        -0.05426   0.03683   0.00000   0.00000   0.00000
  15        9PX         0.00000   0.00000   0.00000   0.00000  -0.00078
  16        9PY         0.00000   0.00000  -0.00045   0.00000   0.00000
  17        9PZ        -0.00741   0.01369   0.00000   0.00000   0.00000
  18       10D 0       -0.00827   0.01912   0.00000   0.00000   0.00000
  19       10D+1        0.00000   0.00000   0.00000   0.00000  -0.01502
  20       10D-1        0.00000   0.00000  -0.00909   0.00000   0.00000
  21       10D+2       -0.00986   0.00281   0.00000   0.00000   0.00000
  22       10D-2        0.00000   0.00000   0.00000  -0.02021   0.00000
  23       11D 0       -0.01821   0.03204   0.00000   0.00000   0.00000
  24       11D+1        0.00000   0.00000   0.00000   0.00000  -0.02486
  25       11D-1        0.00000   0.00000  -0.00675   0.00000   0.00000
  26       11D+2       -0.01789   0.00205   0.00000   0.00000   0.00000
  27       11D-2        0.00000   0.00000   0.00000  -0.03259   0.00000
  28       12D 0       -0.00465  -0.00376   0.00000   0.00000   0.00000
  29       12D+1        0.00000   0.00000   0.00000   0.00000  -0.00233
  30       12D-1        0.00000   0.00000   0.01132   0.00000   0.00000
  31       12D+2        0.00056  -0.00018   0.00000   0.00000   0.00000
  32       12D-2        0.00000   0.00000   0.00000   0.00883   0.00000
  33       13F 0        0.00838   0.00171   0.00000   0.00000   0.00000
  34       13F+1        0.00000   0.00000   0.00000   0.00000   0.00415
  35       13F-1        0.00000   0.00000   0.00929   0.00000   0.00000
  36       13F+2        0.00157   0.00282   0.00000   0.00000   0.00000
  37       13F-2        0.00000   0.00000   0.00000   0.00876   0.00000
  38       13F+3        0.00000   0.00000   0.00000   0.00000  -0.00782
  39       13F-3        0.00000   0.00000   0.00520   0.00000   0.00000
  40       14F 0        0.00656   0.00139   0.00000   0.00000   0.00000
  41       14F+1        0.00000   0.00000   0.00000   0.00000  -0.00151
  42       14F-1        0.00000   0.00000   0.01954   0.00000   0.00000
  43       14F+2        0.00689   0.00240   0.00000   0.00000   0.00000
  44       14F-2        0.00000   0.00000   0.00000   0.00946   0.00000
  45       14F+3        0.00000   0.00000   0.00000   0.00000  -0.00063
  46       14F-3        0.00000   0.00000   0.00021   0.00000   0.00000
  47 2   S  1S          0.03175   0.04386   0.00000   0.00000   0.00000
  48        2S         -0.12374  -0.16827   0.00000   0.00000   0.00000
  49        3S          0.24979   0.35461   0.00000   0.00000   0.00000
  50        4S          0.03193   0.04485   0.00000   0.00000   0.00000
  51        5S          0.17448   0.15551   0.00000   0.00000   0.00000
  52        6S          0.02762  -0.05493   0.00000   0.00000   0.00000
  53        7PX         0.00000   0.00000   0.00000   0.00000   0.01252
  54        7PY         0.00000   0.00000   0.00322   0.00000   0.00000
  55        7PZ         0.02895   0.03487   0.00000   0.00000   0.00000
  56        8PX         0.00000   0.00000   0.00000   0.00000  -0.03135
  57        8PY         0.00000   0.00000  -0.01962   0.00000   0.00000
  58        8PZ        -0.03338  -0.04125   0.00000   0.00000   0.00000
  59        9PX         0.00000   0.00000   0.00000   0.00000  -0.01416
  60        9PY         0.00000   0.00000  -0.00149   0.00000   0.00000
  61        9PZ        -0.01840  -0.02386   0.00000   0.00000   0.00000
  62       10PX         0.00000   0.00000   0.00000   0.00000  -0.02722
  63       10PY         0.00000   0.00000  -0.02356   0.00000   0.00000
  64       10PZ        -0.01472   0.03259   0.00000   0.00000   0.00000
  65       11PX         0.00000   0.00000   0.00000   0.00000  -0.00412
  66       11PY         0.00000   0.00000   0.00445   0.00000   0.00000
  67       11PZ        -0.00070   0.00949   0.00000   0.00000   0.00000
  68       12D 0        0.00551   0.00946   0.00000   0.00000   0.00000
  69       12D+1        0.00000   0.00000   0.00000   0.00000  -0.00823
  70       12D-1        0.00000   0.00000   0.02005   0.00000   0.00000
  71       12D+2       -0.00240   0.00192   0.00000   0.00000   0.00000
  72       12D-2        0.00000   0.00000   0.00000  -0.00419   0.00000
  73       13D 0        0.01658   0.01837   0.00000   0.00000   0.00000
  74       13D+1        0.00000   0.00000   0.00000   0.00000  -0.00468
  75       13D-1        0.00000   0.00000   0.00792   0.00000   0.00000
  76       13D+2       -0.00082   0.00161   0.00000   0.00000   0.00000
  77       13D-2        0.00000   0.00000   0.00000  -0.00128   0.00000
  78       14D 0       -0.00203  -0.01044   0.00000   0.00000   0.00000
  79       14D+1        0.00000   0.00000   0.00000   0.00000  -0.00275
  80       14D-1        0.00000   0.00000   0.01341   0.00000   0.00000
  81       14D+2       -0.00075  -0.00064   0.00000   0.00000   0.00000
  82       14D-2        0.00000   0.00000   0.00000  -0.00475   0.00000
  83       15F 0       -0.00516  -0.00699   0.00000   0.00000   0.00000
  84       15F+1        0.00000   0.00000   0.00000   0.00000   0.00183
  85       15F-1        0.00000   0.00000  -0.00513   0.00000   0.00000
  86       15F+2        0.00073  -0.00062   0.00000   0.00000   0.00000
  87       15F-2        0.00000   0.00000   0.00000   0.00135   0.00000
  88       15F+3        0.00000   0.00000   0.00000   0.00000  -0.00035
  89       15F-3        0.00000   0.00000   0.00027   0.00000   0.00000
  90       16F 0        0.00681   0.00093   0.00000   0.00000   0.00000
  91       16F+1        0.00000   0.00000   0.00000   0.00000   0.00201
  92       16F-1        0.00000   0.00000  -0.00191   0.00000   0.00000
  93       16F+2       -0.00042  -0.00051   0.00000   0.00000   0.00000
  94       16F-2        0.00000   0.00000   0.00000   0.00332   0.00000
  95       16F+3        0.00000   0.00000   0.00000   0.00000   0.00032
  96       16F-3        0.00000   0.00000  -0.00038   0.00000   0.00000
  97 3   F  1S          0.00000   0.02747   0.01573   0.00000   0.00000
  98        2S         -0.00162  -0.07746  -0.04107   0.00000   0.00000
  99        3S         -0.00022  -0.02629  -0.01375   0.00000   0.00000
 100        4S         -0.01471  -0.10140  -0.03927   0.00000   0.00000
 101        5S         -0.01583  -0.01896   0.00664   0.00000   0.00000
 102        6PX         0.00000   0.00000   0.00000   0.27592   0.25160
 103        6PY        -0.10900   0.15561  -0.15422   0.00000   0.00000
 104        6PZ         0.18033  -0.06665   0.23041   0.00000   0.00000
 105        7PX         0.00000   0.00000   0.00000   0.33588   0.30696
 106        7PY        -0.13306   0.18650  -0.18729   0.00000   0.00000
 107        7PZ         0.21722  -0.08237   0.27830   0.00000   0.00000
 108        8PX         0.00000   0.00000   0.00000   0.23487   0.21154
 109        8PY        -0.09027   0.10257  -0.14815   0.00000   0.00000
 110        8PZ         0.14768  -0.07679   0.18741   0.00000   0.00000
 111        9PX         0.00000   0.00000   0.00000   0.02734   0.01712
 112        9PY        -0.01250   0.00564  -0.01249   0.00000   0.00000
 113        9PZ         0.01045  -0.01442   0.02327   0.00000   0.00000
 114       10D 0        0.00240  -0.00123   0.00231   0.00000   0.00000
 115       10D+1        0.00000   0.00000   0.00000   0.00174   0.00186
 116       10D-1        0.00144   0.00158   0.00119   0.00000   0.00000
 117       10D+2        0.00132  -0.00237   0.00075   0.00000   0.00000
 118       10D-2        0.00000   0.00000   0.00000   0.00212   0.00300
 119       11D 0        0.00854  -0.00511   0.00856   0.00000   0.00000
 120       11D+1        0.00000   0.00000   0.00000   0.00715   0.00784
 121       11D-1        0.00383   0.00346   0.00420   0.00000   0.00000
 122       11D+2        0.00497  -0.00741   0.00348   0.00000   0.00000
 123       11D-2        0.00000   0.00000   0.00000   0.00958   0.01219
 124       12D 0        0.00564  -0.00324   0.00715   0.00000   0.00000
 125       12D+1        0.00000   0.00000   0.00000   0.00470   0.00429
 126       12D-1        0.00348  -0.00291  -0.00187   0.00000   0.00000
 127       12D+2       -0.00017  -0.00022   0.00886   0.00000   0.00000
 128       12D-2        0.00000   0.00000   0.00000   0.00570   0.00794
 129       13F 0        0.00039  -0.00080   0.00061   0.00000   0.00000
 130       13F+1        0.00000   0.00000   0.00000   0.00028   0.00029
 131       13F-1        0.00168  -0.00044   0.00173   0.00000   0.00000
 132       13F+2        0.00000  -0.00100  -0.00001   0.00000   0.00000
 133       13F-2        0.00000   0.00000   0.00000   0.00150   0.00166
 134       13F+3        0.00000   0.00000   0.00000  -0.00085  -0.00151
 135       13F-3        0.00075  -0.00088   0.00031   0.00000   0.00000
 136       14F 0        0.00191  -0.00113   0.00067   0.00000   0.00000
 137       14F+1        0.00000   0.00000   0.00000   0.00071   0.00031
 138       14F-1        0.00223  -0.00157   0.00293   0.00000   0.00000
 139       14F+2        0.00030  -0.00092  -0.00022   0.00000   0.00000
 140       14F-2        0.00000   0.00000   0.00000   0.00268   0.00295
 141       14F+3        0.00000   0.00000   0.00000  -0.00256  -0.00210
 142       14F-3        0.00040  -0.00127   0.00153   0.00000   0.00000
 143 4   F  1S          0.00000   0.02747  -0.01573   0.00000   0.00000
 144        2S         -0.00162  -0.07746   0.04107   0.00000   0.00000
 145        3S         -0.00022  -0.02629   0.01375   0.00000   0.00000
 146        4S         -0.01471  -0.10140   0.03927   0.00000   0.00000
 147        5S         -0.01583  -0.01896  -0.00664   0.00000   0.00000
 148        6PX         0.00000   0.00000   0.00000  -0.27592   0.25160
 149        6PY         0.10900  -0.15561  -0.15422   0.00000   0.00000
 150        6PZ         0.18033  -0.06665  -0.23041   0.00000   0.00000
 151        7PX         0.00000   0.00000   0.00000  -0.33588   0.30696
 152        7PY         0.13306  -0.18650  -0.18729   0.00000   0.00000
 153        7PZ         0.21722  -0.08237  -0.27830   0.00000   0.00000
 154        8PX         0.00000   0.00000   0.00000  -0.23487   0.21154
 155        8PY         0.09027  -0.10257  -0.14815   0.00000   0.00000
 156        8PZ         0.14768  -0.07679  -0.18741   0.00000   0.00000
 157        9PX         0.00000   0.00000   0.00000  -0.02734   0.01712
 158        9PY         0.01250  -0.00564  -0.01249   0.00000   0.00000
 159        9PZ         0.01045  -0.01442  -0.02327   0.00000   0.00000
 160       10D 0        0.00240  -0.00123  -0.00231   0.00000   0.00000
 161       10D+1        0.00000   0.00000   0.00000  -0.00174   0.00186
 162       10D-1       -0.00144  -0.00158   0.00119   0.00000   0.00000
 163       10D+2        0.00132  -0.00237  -0.00075   0.00000   0.00000
 164       10D-2        0.00000   0.00000   0.00000   0.00212  -0.00300
 165       11D 0        0.00854  -0.00511  -0.00856   0.00000   0.00000
 166       11D+1        0.00000   0.00000   0.00000  -0.00715   0.00784
 167       11D-1       -0.00383  -0.00346   0.00420   0.00000   0.00000
 168       11D+2        0.00497  -0.00741  -0.00348   0.00000   0.00000
 169       11D-2        0.00000   0.00000   0.00000   0.00958  -0.01219
 170       12D 0        0.00564  -0.00324  -0.00715   0.00000   0.00000
 171       12D+1        0.00000   0.00000   0.00000  -0.00470   0.00429
 172       12D-1       -0.00348   0.00291  -0.00187   0.00000   0.00000
 173       12D+2       -0.00017  -0.00022  -0.00886   0.00000   0.00000
 174       12D-2        0.00000   0.00000   0.00000   0.00570  -0.00794
 175       13F 0        0.00039  -0.00080  -0.00061   0.00000   0.00000
 176       13F+1        0.00000   0.00000   0.00000  -0.00028   0.00029
 177       13F-1       -0.00168   0.00044   0.00173   0.00000   0.00000
 178       13F+2        0.00000  -0.00100   0.00001   0.00000   0.00000
 179       13F-2        0.00000   0.00000   0.00000   0.00150  -0.00166
 180       13F+3        0.00000   0.00000   0.00000   0.00085  -0.00151
 181       13F-3       -0.00075   0.00088   0.00031   0.00000   0.00000
 182       14F 0        0.00191  -0.00113  -0.00067   0.00000   0.00000
 183       14F+1        0.00000   0.00000   0.00000  -0.00071   0.00031
 184       14F-1       -0.00223   0.00157   0.00293   0.00000   0.00000
 185       14F+2        0.00030  -0.00092   0.00022   0.00000   0.00000
 186       14F-2        0.00000   0.00000   0.00000   0.00268  -0.00295
 187       14F+3        0.00000   0.00000   0.00000   0.00256  -0.00210
 188       14F-3       -0.00040   0.00127   0.00153   0.00000   0.00000
                          16        17        18        19        20
     Eigenvalues --     1.96289   1.95899   1.94248   1.93934   1.91706
   1 1   C  1S         -0.08197   0.00000   0.07740   0.00000   0.00000
   2        2S          0.21470   0.00000  -0.23047   0.00000   0.00000
   3        3S          0.05602   0.00000  -0.05925   0.00000   0.00000
   4        4S          0.09602   0.00000  -0.16600   0.00000   0.00000
   5        5S         -0.02007   0.00000  -0.02283   0.00000   0.00000
   6        6PX         0.00000   0.00000   0.00000   0.00000   0.18188
   7        6PY         0.00000   0.19221   0.00000   0.03391   0.00000
   8        6PZ        -0.13685   0.00000  -0.18047   0.00000   0.00000
   9        7PX         0.00000   0.00000   0.00000   0.00000   0.25479
  10        7PY         0.00000   0.23365   0.00000   0.04834   0.00000
  11        7PZ        -0.17111   0.00000  -0.22300   0.00000   0.00000
  12        8PX         0.00000   0.00000   0.00000   0.00000   0.13720
  13        8PY         0.00000   0.05675   0.00000   0.04959   0.00000
  14        8PZ        -0.01454   0.00000  -0.06784   0.00000   0.00000
  15        9PX         0.00000   0.00000   0.00000   0.00000   0.02111
  16        9PY         0.00000  -0.00002   0.00000  -0.00356   0.00000
  17        9PZ        -0.00551   0.00000  -0.00566   0.00000   0.00000
  18       10D 0       -0.00723   0.00000  -0.01003   0.00000   0.00000
  19       10D+1        0.00000   0.00000   0.00000   0.00000   0.01560
  20       10D-1        0.00000  -0.02652   0.00000   0.02080   0.00000
  21       10D+2       -0.01484   0.00000  -0.00772   0.00000   0.00000
  22       10D-2        0.00000   0.00000   0.00000   0.00000   0.00000
  23       11D 0       -0.01875   0.00000  -0.01803   0.00000   0.00000
  24       11D+1        0.00000   0.00000   0.00000   0.00000   0.04767
  25       11D-1        0.00000  -0.05784   0.00000   0.05102   0.00000
  26       11D+2       -0.03588   0.00000  -0.01945   0.00000   0.00000
  27       11D-2        0.00000   0.00000   0.00000   0.00000   0.00000
  28       12D 0        0.00253   0.00000  -0.00600   0.00000   0.00000
  29       12D+1        0.00000   0.00000   0.00000   0.00000   0.01867
  30       12D-1        0.00000  -0.00381   0.00000  -0.02358   0.00000
  31       12D+2        0.00430   0.00000  -0.00247   0.00000   0.00000
  32       12D-2        0.00000   0.00000   0.00000   0.00000   0.00000
  33       13F 0        0.00209   0.00000  -0.00395   0.00000   0.00000
  34       13F+1        0.00000   0.00000   0.00000   0.00000   0.00670
  35       13F-1        0.00000   0.00782   0.00000   0.00703   0.00000
  36       13F+2        0.00539   0.00000   0.00175   0.00000   0.00000
  37       13F-2        0.00000   0.00000   0.00000   0.00000   0.00000
  38       13F+3        0.00000   0.00000   0.00000   0.00000   0.00043
  39       13F-3        0.00000  -0.00254   0.00000   0.00205   0.00000
  40       14F 0        0.01003   0.00000   0.00131   0.00000   0.00000
  41       14F+1        0.00000   0.00000   0.00000   0.00000   0.00053
  42       14F-1        0.00000   0.01879   0.00000  -0.00020   0.00000
  43       14F+2        0.01082   0.00000   0.00039   0.00000   0.00000
  44       14F-2        0.00000   0.00000   0.00000   0.00000   0.00000
  45       14F+3        0.00000   0.00000   0.00000   0.00000   0.00397
  46       14F-3        0.00000  -0.00214   0.00000   0.00044   0.00000
  47 2   S  1S         -0.03641   0.00000   0.02961   0.00000   0.00000
  48        2S          0.13888   0.00000  -0.11364   0.00000   0.00000
  49        3S         -0.30053   0.00000   0.26150   0.00000   0.00000
  50        4S         -0.04135   0.00000   0.03772   0.00000   0.00000
  51        5S         -0.18840   0.00000   0.32663   0.00000   0.00000
  52        6S          0.01543   0.00000   0.05492   0.00000   0.00000
  53        7PX         0.00000   0.00000   0.00000   0.00000  -0.18867
  54        7PY         0.00000  -0.01420   0.00000  -0.21583   0.00000
  55        7PZ        -0.00949   0.00000  -0.17382   0.00000   0.00000
  56        8PX         0.00000   0.00000   0.00000   0.00000   0.43251
  57        8PY         0.00000   0.02866   0.00000   0.52213   0.00000
  58        8PZ         0.00588   0.00000   0.35954   0.00000   0.00000
  59        9PX         0.00000   0.00000   0.00000   0.00000   0.17760
  60        9PY         0.00000   0.01457   0.00000   0.21973   0.00000
  61        9PZ         0.00483   0.00000   0.16460   0.00000   0.00000
  62       10PX         0.00000   0.00000   0.00000   0.00000   0.23795
  63       10PY         0.00000   0.00411   0.00000   0.36963   0.00000
  64       10PZ         0.00193   0.00000   0.09583   0.00000   0.00000
  65       11PX         0.00000   0.00000   0.00000   0.00000   0.00060
  66       11PY         0.00000   0.00056   0.00000   0.02711   0.00000
  67       11PZ        -0.00298   0.00000  -0.00447   0.00000   0.00000
  68       12D 0       -0.00047   0.00000  -0.02726   0.00000   0.00000
  69       12D+1        0.00000   0.00000   0.00000   0.00000  -0.03390
  70       12D-1        0.00000  -0.00519   0.00000  -0.01320   0.00000
  71       12D+2       -0.00150   0.00000  -0.00083   0.00000   0.00000
  72       12D-2        0.00000   0.00000   0.00000   0.00000   0.00000
  73       13D 0       -0.00632   0.00000  -0.04845   0.00000   0.00000
  74       13D+1        0.00000   0.00000   0.00000   0.00000  -0.03415
  75       13D-1        0.00000  -0.00874   0.00000  -0.01489   0.00000
  76       13D+2       -0.00098   0.00000  -0.00095   0.00000   0.00000
  77       13D-2        0.00000   0.00000   0.00000   0.00000   0.00000
  78       14D 0        0.00138   0.00000   0.00514   0.00000   0.00000
  79       14D+1        0.00000   0.00000   0.00000   0.00000  -0.00473
  80       14D-1        0.00000   0.00192   0.00000  -0.01769   0.00000
  81       14D+2       -0.00081   0.00000  -0.00194   0.00000   0.00000
  82       14D-2        0.00000   0.00000   0.00000   0.00000   0.00000
  83       15F 0        0.00396   0.00000   0.01571   0.00000   0.00000
  84       15F+1        0.00000   0.00000   0.00000   0.00000   0.01206
  85       15F-1        0.00000   0.00316   0.00000   0.00818   0.00000
  86       15F+2        0.00019   0.00000   0.00214   0.00000   0.00000
  87       15F-2        0.00000   0.00000   0.00000   0.00000   0.00000
  88       15F+3        0.00000   0.00000   0.00000   0.00000   0.00241
  89       15F-3        0.00000   0.00010   0.00000   0.00263   0.00000
  90       16F 0       -0.00186   0.00000  -0.00538   0.00000   0.00000
  91       16F+1        0.00000   0.00000   0.00000   0.00000  -0.00064
  92       16F-1        0.00000  -0.00062   0.00000   0.00226   0.00000
  93       16F+2        0.00069   0.00000   0.00080   0.00000   0.00000
  94       16F-2        0.00000   0.00000   0.00000   0.00000   0.00000
  95       16F+3        0.00000   0.00000   0.00000   0.00000   0.00187
  96       16F-3        0.00000   0.00141   0.00000   0.00237   0.00000
  97 3   F  1S          0.00649   0.00871  -0.01341  -0.01568   0.00000
  98        2S         -0.02523  -0.01360   0.03721   0.04277   0.00000
  99        3S         -0.01175   0.00000   0.01076   0.01343   0.00000
 100        4S         -0.09913   0.07908   0.02018   0.03692   0.00000
 101        5S         -0.02141   0.03562  -0.00555   0.05504   0.00000
 102        6PX         0.00000   0.00000   0.00000   0.00000  -0.05358
 103        6PY         0.11708  -0.21806   0.02794   0.01974   0.00000
 104        6PZ         0.16373  -0.10595   0.06385   0.05263   0.00000
 105        7PX         0.00000   0.00000   0.00000   0.00000  -0.06482
 106        7PY         0.14152  -0.26460   0.03562   0.02617   0.00000
 107        7PZ         0.19812  -0.12907   0.07923   0.06523   0.00000
 108        8PX         0.00000   0.00000   0.00000   0.00000  -0.06087
 109        8PY         0.05882  -0.14268   0.01568   0.00869   0.00000
 110        8PZ         0.10721  -0.06537   0.05309   0.05277   0.00000
 111        9PX         0.00000   0.00000   0.00000   0.00000  -0.02567
 112        9PY        -0.00463  -0.00864   0.00006   0.01486   0.00000
 113        9PZ         0.00826   0.00437   0.01082   0.01795   0.00000
 114       10D 0        0.00000  -0.00037  -0.00067  -0.00038   0.00000
 115       10D+1        0.00000   0.00000   0.00000   0.00000   0.00109
 116       10D-1        0.00422  -0.00483   0.00051   0.00043   0.00000
 117       10D+2       -0.00283   0.00291  -0.00098  -0.00022   0.00000
 118       10D-2        0.00000   0.00000   0.00000   0.00000   0.00112
 119       11D 0       -0.00022  -0.00212  -0.00221  -0.00227   0.00000
 120       11D+1        0.00000   0.00000   0.00000   0.00000   0.00387
 121       11D-1        0.01412  -0.01661   0.00307   0.00205   0.00000
 122       11D+2       -0.00927   0.00954  -0.00354  -0.00205   0.00000
 123       11D-2        0.00000   0.00000   0.00000   0.00000   0.00304
 124       12D 0       -0.00171  -0.00492  -0.00339  -0.00046   0.00000
 125       12D+1        0.00000   0.00000   0.00000   0.00000   0.00214
 126       12D-1       -0.00003  -0.00379  -0.00250  -0.00173   0.00000
 127       12D+2       -0.00181   0.00106  -0.00010   0.00230   0.00000
 128       12D-2        0.00000   0.00000   0.00000   0.00000   0.00376
 129       13F 0       -0.00112   0.00119  -0.00036  -0.00027   0.00000
 130       13F+1        0.00000   0.00000   0.00000   0.00000   0.00024
 131       13F-1        0.00107  -0.00118  -0.00007   0.00010   0.00000
 132       13F+2       -0.00193   0.00225  -0.00049  -0.00028   0.00000
 133       13F-2        0.00000   0.00000   0.00000   0.00000   0.00054
 134       13F+3        0.00000   0.00000   0.00000   0.00000  -0.00036
 135       13F-3       -0.00106   0.00095  -0.00055  -0.00010   0.00000
 136       14F 0       -0.00157   0.00121  -0.00133  -0.00092   0.00000
 137       14F+1        0.00000   0.00000   0.00000   0.00000   0.00051
 138       14F-1        0.00094  -0.00315   0.00000  -0.00067   0.00000
 139       14F+2       -0.00311   0.00341  -0.00135  -0.00031   0.00000
 140       14F-2        0.00000   0.00000   0.00000   0.00000   0.00056
 141       14F+3        0.00000   0.00000   0.00000   0.00000  -0.00019
 142       14F-3       -0.00156   0.00179  -0.00026  -0.00053   0.00000
 143 4   F  1S          0.00649  -0.00871  -0.01341   0.01568   0.00000
 144        2S         -0.02523   0.01360   0.03721  -0.04277   0.00000
 145        3S         -0.01175   0.00000   0.01076  -0.01343   0.00000
 146        4S         -0.09913  -0.07908   0.02018  -0.03692   0.00000
 147        5S         -0.02141  -0.03562  -0.00555  -0.05504   0.00000
 148        6PX         0.00000   0.00000   0.00000   0.00000  -0.05358
 149        6PY        -0.11708  -0.21806  -0.02794   0.01974   0.00000
 150        6PZ         0.16373   0.10595   0.06385  -0.05263   0.00000
 151        7PX         0.00000   0.00000   0.00000   0.00000  -0.06482
 152        7PY        -0.14152  -0.26460  -0.03562   0.02617   0.00000
 153        7PZ         0.19812   0.12907   0.07923  -0.06523   0.00000
 154        8PX         0.00000   0.00000   0.00000   0.00000  -0.06087
 155        8PY        -0.05882  -0.14268  -0.01568   0.00869   0.00000
 156        8PZ         0.10721   0.06537   0.05309  -0.05277   0.00000
 157        9PX         0.00000   0.00000   0.00000   0.00000  -0.02567
 158        9PY         0.00463  -0.00864  -0.00006   0.01486   0.00000
 159        9PZ         0.00826  -0.00437   0.01082  -0.01795   0.00000
 160       10D 0        0.00000   0.00037  -0.00067   0.00038   0.00000
 161       10D+1        0.00000   0.00000   0.00000   0.00000   0.00109
 162       10D-1       -0.00422  -0.00483  -0.00051   0.00043   0.00000
 163       10D+2       -0.00283  -0.00291  -0.00098   0.00022   0.00000
 164       10D-2        0.00000   0.00000   0.00000   0.00000  -0.00112
 165       11D 0       -0.00022   0.00212  -0.00221   0.00227   0.00000
 166       11D+1        0.00000   0.00000   0.00000   0.00000   0.00387
 167       11D-1       -0.01412  -0.01661  -0.00307   0.00205   0.00000
 168       11D+2       -0.00927  -0.00954  -0.00354   0.00205   0.00000
 169       11D-2        0.00000   0.00000   0.00000   0.00000  -0.00304
 170       12D 0       -0.00171   0.00492  -0.00339   0.00046   0.00000
 171       12D+1        0.00000   0.00000   0.00000   0.00000   0.00214
 172       12D-1        0.00003  -0.00379   0.00250  -0.00173   0.00000
 173       12D+2       -0.00181  -0.00106  -0.00010  -0.00230   0.00000
 174       12D-2        0.00000   0.00000   0.00000   0.00000  -0.00376
 175       13F 0       -0.00112  -0.00119  -0.00036   0.00027   0.00000
 176       13F+1        0.00000   0.00000   0.00000   0.00000   0.00024
 177       13F-1       -0.00107  -0.00118   0.00007   0.00010   0.00000
 178       13F+2       -0.00193  -0.00225  -0.00049   0.00028   0.00000
 179       13F-2        0.00000   0.00000   0.00000   0.00000  -0.00054
 180       13F+3        0.00000   0.00000   0.00000   0.00000  -0.00036
 181       13F-3        0.00106   0.00095   0.00055  -0.00010   0.00000
 182       14F 0       -0.00157  -0.00121  -0.00133   0.00092   0.00000
 183       14F+1        0.00000   0.00000   0.00000   0.00000   0.00051
 184       14F-1       -0.00094  -0.00315   0.00000  -0.00067   0.00000
 185       14F+2       -0.00311  -0.00341  -0.00135   0.00031   0.00000
 186       14F-2        0.00000   0.00000   0.00000   0.00000  -0.00056
 187       14F+3        0.00000   0.00000   0.00000   0.00000  -0.00019
 188       14F-3        0.00156   0.00179   0.00026  -0.00053   0.00000
                          21        22        23        24        25
     Eigenvalues --     0.07402   0.04119   0.03931   0.03212   0.01913
   1 1   C  1S          0.00000   0.17639   0.00000   0.03547   0.03244
   2        2S          0.00000  -0.60106   0.00000  -0.09684  -0.09440
   3        3S          0.00000  -0.21362   0.00000   0.00947  -0.04062
   4        4S          0.00000  -0.64337   0.00000   0.04186   0.08159
   5        5S          0.00000  -0.12236   0.00000   0.02915   0.09778
   6        6PX         0.31818   0.00000   0.00000   0.00000   0.00000
   7        6PY         0.00000   0.00000   0.30445   0.00000   0.00000
   8        6PZ         0.00000  -0.04735   0.00000   0.37169   0.05457
   9        7PX         0.44549   0.00000   0.00000   0.00000   0.00000
  10        7PY         0.00000   0.00000   0.58612   0.00000   0.00000
  11        7PZ         0.00000  -0.04881   0.00000   0.66857   0.05766
  12        8PX         0.15480   0.00000   0.00000   0.00000   0.00000
  13        8PY         0.00000   0.00000   0.10563   0.00000   0.00000
  14        8PZ         0.00000  -0.21628   0.00000   0.27460   0.30433
  15        9PX         0.00799   0.00000   0.00000   0.00000   0.00000
  16        9PY         0.00000   0.00000   0.01572   0.00000   0.00000
  17        9PZ         0.00000  -0.00776   0.00000  -0.00501   0.03364
  18       10D 0        0.00000  -0.00135   0.00000   0.00948   0.05681
  19       10D+1        0.01627   0.00000   0.00000   0.00000   0.00000
  20       10D-1        0.00000   0.00000   0.03016   0.00000   0.00000
  21       10D+2        0.00000  -0.00934   0.00000   0.00339   0.04695
  22       10D-2        0.00000   0.00000   0.00000   0.00000   0.00000
  23       11D 0        0.00000  -0.04391   0.00000   0.07385   0.15440
  24       11D+1        0.07198   0.00000   0.00000   0.00000   0.00000
  25       11D-1        0.00000   0.00000  -0.06263   0.00000   0.00000
  26       11D+2        0.00000   0.02865   0.00000   0.06704   0.14331
  27       11D-2        0.00000   0.00000   0.00000   0.00000   0.00000
  28       12D 0        0.00000  -0.05324   0.00000   0.02370   0.01601
  29       12D+1        0.02797   0.00000   0.00000   0.00000   0.00000
  30       12D-1        0.00000   0.00000  -0.03008   0.00000   0.00000
  31       12D+2        0.00000   0.00701   0.00000   0.02065   0.02384
  32       12D-2        0.00000   0.00000   0.00000   0.00000   0.00000
  33       13F 0        0.00000  -0.00776   0.00000   0.01366  -0.00185
  34       13F+1        0.01186   0.00000   0.00000   0.00000   0.00000
  35       13F-1        0.00000   0.00000   0.03328   0.00000   0.00000
  36       13F+2        0.00000  -0.02215   0.00000  -0.02137   0.01244
  37       13F-2        0.00000   0.00000   0.00000   0.00000   0.00000
  38       13F+3       -0.00129   0.00000   0.00000   0.00000   0.00000
  39       13F-3        0.00000   0.00000  -0.01168   0.00000   0.00000
  40       14F 0        0.00000  -0.02551   0.00000  -0.00933  -0.02518
  41       14F+1        0.02837   0.00000   0.00000   0.00000   0.00000
  42       14F-1        0.00000   0.00000   0.11578   0.00000   0.00000
  43       14F+2        0.00000  -0.01531   0.00000  -0.04158  -0.02690
  44       14F-2        0.00000   0.00000   0.00000   0.00000   0.00000
  45       14F+3        0.00935   0.00000   0.00000   0.00000   0.00000
  46       14F-3        0.00000   0.00000   0.02815   0.00000   0.00000
  47 2   S  1S          0.00000   0.02070   0.00000  -0.01271   0.01055
  48        2S          0.00000  -0.05610   0.00000   0.02875  -0.05259
  49        3S          0.00000   0.21715   0.00000  -0.14139   0.09124
  50        4S          0.00000   0.00873   0.00000   0.02717   0.08158
  51        5S          0.00000   0.51804   0.00000  -0.52421  -0.38413
  52        6S          0.00000   0.15626   0.00000  -0.12902  -0.17829
  53        7PX         0.18326   0.00000   0.00000   0.00000   0.00000
  54        7PY         0.00000   0.00000   0.10433   0.00000   0.00000
  55        7PZ         0.00000   0.18222   0.00000  -0.09398   0.03038
  56        8PX        -0.48798   0.00000   0.00000   0.00000   0.00000
  57        8PY         0.00000   0.00000  -0.29341   0.00000   0.00000
  58        8PZ         0.00000  -0.60377   0.00000   0.47528   0.02639
  59        9PX        -0.20100   0.00000   0.00000   0.00000   0.00000
  60        9PY         0.00000   0.00000  -0.14137   0.00000   0.00000
  61        9PZ         0.00000  -0.19839   0.00000   0.08849  -0.04460
  62       10PX        -0.12688   0.00000   0.00000   0.00000   0.00000
  63       10PY         0.00000   0.00000   0.03876   0.00000   0.00000
  64       10PZ         0.00000  -0.31829   0.00000   0.35186   0.19682
  65       11PX        -0.00355   0.00000   0.00000   0.00000   0.00000
  66       11PY         0.00000   0.00000  -0.00208   0.00000   0.00000
  67       11PZ         0.00000  -0.02196   0.00000   0.02372   0.02217
  68       12D 0        0.00000  -0.07393   0.00000   0.05095   0.11390
  69       12D+1       -0.05890   0.00000   0.00000   0.00000   0.00000
  70       12D-1        0.00000   0.00000  -0.18689   0.00000   0.00000
  71       12D+2        0.00000  -0.04545   0.00000   0.02522   0.40643
  72       12D-2        0.00000   0.00000   0.00000   0.00000   0.00000
  73       13D 0        0.00000  -0.09822   0.00000   0.13910   0.10918
  74       13D+1       -0.07005   0.00000   0.00000   0.00000   0.00000
  75       13D-1        0.00000   0.00000  -0.15683   0.00000   0.00000
  76       13D+2        0.00000  -0.03189   0.00000   0.01432   0.28890
  77       13D-2        0.00000   0.00000   0.00000   0.00000   0.00000
  78       14D 0        0.00000   0.03913   0.00000  -0.06997  -0.03285
  79       14D+1        0.01260   0.00000   0.00000   0.00000   0.00000
  80       14D-1        0.00000   0.00000  -0.03365   0.00000   0.00000
  81       14D+2        0.00000  -0.00865   0.00000   0.00353   0.02620
  82       14D-2        0.00000   0.00000   0.00000   0.00000   0.00000
  83       15F 0        0.00000   0.01810   0.00000  -0.02282  -0.02378
  84       15F+1        0.01921   0.00000   0.00000   0.00000   0.00000
  85       15F-1        0.00000   0.00000   0.03165   0.00000   0.00000
  86       15F+2        0.00000   0.00275   0.00000  -0.00279  -0.03410
  87       15F-2        0.00000   0.00000   0.00000   0.00000   0.00000
  88       15F+3       -0.00369   0.00000   0.00000   0.00000   0.00000
[...]
  94       16F-2        0.00000   0.00000   0.00000   0.00000   0.00000
  95       16F+3        0.00000   0.00000   0.00000  -0.04407   0.00000
  96       16F-3       -0.01494  -0.07227   0.00000   0.00000   0.00322
  97 3   F  1S         -0.04045   0.00332  -0.04752   0.00000  -0.08980
  98        2S         -0.16308  -0.02723  -0.20625   0.00000  -0.42110
  99        3S          0.05434  -0.04704   0.05000   0.00000   0.05307
 100        4S          1.68790   0.58422   0.87016   0.00000   3.26607
 101        5S          6.55630   0.62844   7.17515   0.00000  17.25367
 102        6PX         0.00000   0.00000   0.00000   0.01989   0.00000
 103        6PY         0.00238   0.01169   0.00527   0.00000   0.01267
 104        6PZ        -0.02220   0.00623   0.00263   0.00000   0.00533
 105        7PX         0.00000   0.00000   0.00000  -0.07504   0.00000
 106        7PY         0.03918  -0.06988  -0.04524   0.00000  -0.05149
 107        7PZ         0.15595  -0.04821  -0.02324   0.00000  -0.01528
 108        8PX         0.00000   0.00000   0.00000   0.07704   0.00000
 109        8PY         0.68351   0.91938   0.33944   0.00000   2.55712
 110        8PZ        -1.76943   1.19434   0.05489   0.00000   0.80143
 111        9PX         0.00000   0.00000   0.00000  -1.15594   0.00000
 112        9PY        -0.06229  -1.68813   0.73939   0.00000   4.93088
 113        9PZ        -1.84043   0.20459   4.77613   0.00000   1.68139
 114       10D 0       -0.01828  -0.00686   0.00106   0.00000  -0.00277
 115       10D+1        0.00000   0.00000   0.00000  -0.01468   0.00000
 116       10D-1       -0.00821  -0.00698   0.02650   0.00000   0.00012
 117       10D+2        0.04929   0.01882   0.00541   0.00000  -0.00322
 118       10D-2        0.00000   0.00000   0.00000  -0.00447   0.00000
 119       11D 0        0.05080   0.01717   0.00124   0.00000   0.00772
 120       11D+1        0.00000   0.00000   0.00000   0.05487   0.00000
 121       11D-1        0.03200   0.04694  -0.09252   0.00000   0.03323
 122       11D+2       -0.18197  -0.06591  -0.01244   0.00000  -0.01928
 123       11D-2        0.00000   0.00000   0.00000   0.01696   0.00000
 124       12D 0       -0.81547   0.15796  -0.11331   0.00000  -0.44701
 125       12D+1        0.00000   0.00000   0.00000  -0.18172   0.00000
 126       12D-1       -0.34242   0.36818   0.12203   0.00000   0.43306
 127       12D+2        0.35456  -0.11374  -0.01374   0.00000  -0.50709
 128       12D-2        0.00000   0.00000   0.00000  -0.09712   0.00000
 129       13F 0        0.00765   0.01729   0.00432   0.00000   0.00998
 130       13F+1        0.00000   0.00000   0.00000  -0.00959   0.00000
 131       13F-1        0.00019  -0.01692   0.02681   0.00000   0.00967
 132       13F+2        0.02945   0.01658  -0.02210   0.00000   0.00325
 133       13F-2        0.00000   0.00000   0.00000   0.00889   0.00000
 134       13F+3        0.00000   0.00000   0.00000  -0.00030   0.00000
 135       13F-3       -0.01922   0.01988   0.00867   0.00000  -0.00494
 136       14F 0       -0.04809  -0.04965  -0.00713   0.00000  -0.06526
 137       14F+1        0.00000   0.00000   0.00000   0.01510   0.00000
 138       14F-1       -0.05093   0.06081  -0.05367   0.00000  -0.02646
 139       14F+2       -0.04639  -0.07193   0.03885   0.00000  -0.05465
 140       14F-2        0.00000   0.00000   0.00000  -0.01022   0.00000
 141       14F+3        0.00000   0.00000   0.00000   0.00024   0.00000
 142       14F-3        0.05381  -0.05938  -0.02198   0.00000  -0.02251
 143 4   F  1S          0.04045  -0.00332  -0.04752   0.00000   0.08980
 144        2S          0.16308   0.02723  -0.20625   0.00000   0.42110
 145        3S         -0.05434   0.04704   0.05000   0.00000  -0.05307
 146        4S         -1.68790  -0.58422   0.87016   0.00000  -3.26607
 147        5S         -6.55630  -0.62844   7.17515   0.00000 -17.25367
 148        6PX         0.00000   0.00000   0.00000   0.01989   0.00000
 149        6PY         0.00238   0.01169  -0.00527   0.00000   0.01267
 150        6PZ         0.02220  -0.00623   0.00263   0.00000  -0.00533
 151        7PX         0.00000   0.00000   0.00000  -0.07504   0.00000
 152        7PY         0.03918  -0.06988   0.04524   0.00000  -0.05149
 153        7PZ        -0.15595   0.04821  -0.02324   0.00000   0.01528
 154        8PX         0.00000   0.00000   0.00000   0.07704   0.00000
 155        8PY         0.68351   0.91938  -0.33944   0.00000   2.55712
 156        8PZ         1.76943  -1.19434   0.05489   0.00000  -0.80143
 157        9PX         0.00000   0.00000   0.00000  -1.15594   0.00000
 158        9PY        -0.06229  -1.68813  -0.73939   0.00000   4.93088
 159        9PZ         1.84043  -0.20459   4.77613   0.00000  -1.68139
 160       10D 0        0.01828   0.00686   0.00106   0.00000   0.00277
 161       10D+1        0.00000   0.00000   0.00000  -0.01468   0.00000
 162       10D-1       -0.00821  -0.00698  -0.02650   0.00000   0.00012
 163       10D+2       -0.04929  -0.01882   0.00541   0.00000   0.00322
 164       10D-2        0.00000   0.00000   0.00000   0.00447   0.00000
 165       11D 0       -0.05080  -0.01717   0.00124   0.00000  -0.00772
 166       11D+1        0.00000   0.00000   0.00000   0.05487   0.00000
 167       11D-1        0.03200   0.04694   0.09252   0.00000   0.03323
 168       11D+2        0.18197   0.06591  -0.01244   0.00000   0.01928
 169       11D-2        0.00000   0.00000   0.00000  -0.01696   0.00000
 170       12D 0        0.81547  -0.15796  -0.11331   0.00000   0.44701
 171       12D+1        0.00000   0.00000   0.00000  -0.18172   0.00000
 172       12D-1       -0.34242   0.36818  -0.12203   0.00000   0.43306
 173       12D+2       -0.35456   0.11374  -0.01374   0.00000   0.50709
 174       12D-2        0.00000   0.00000   0.00000   0.09712   0.00000
 175       13F 0       -0.00765  -0.01729   0.00432   0.00000  -0.00998
 176       13F+1        0.00000   0.00000   0.00000  -0.00959   0.00000
 177       13F-1        0.00019  -0.01692  -0.02681   0.00000   0.00967
 178       13F+2       -0.02945  -0.01658  -0.02210   0.00000  -0.00325
 179       13F-2        0.00000   0.00000   0.00000  -0.00889   0.00000
 180       13F+3        0.00000   0.00000   0.00000  -0.00030   0.00000
 181       13F-3       -0.01922   0.01988  -0.00867   0.00000  -0.00494
 182       14F 0        0.04809   0.04965  -0.00713   0.00000   0.06526
 183       14F+1        0.00000   0.00000   0.00000   0.01510   0.00000
 184       14F-1       -0.05093   0.06081   0.05367   0.00000  -0.02646
 185       14F+2        0.04639   0.07193   0.03885   0.00000   0.05465
 186       14F-2        0.00000   0.00000   0.00000   0.01022   0.00000
 187       14F+3        0.00000   0.00000   0.00000   0.00024   0.00000
 188       14F-3        0.05381  -0.05938   0.02198   0.00000  -0.02251
                         186       187       188
     Eigenvalues --     0.00000   0.00000   0.00000
   1 1   C  1S         -0.07334  -0.06783   0.00549
   2        2S         -0.35519  -0.36925  -0.01494
   3        3S          0.23868   0.15761  -0.01419
   4        4S        -13.07743 -14.90304 -13.55694
   5        5S         -4.58670  -9.48959 -21.60222
   6        6PX         0.00000   0.00000   0.00000
   7        6PY         0.00000   0.00000   0.00000
   8        6PZ        -0.01314   0.00206  -0.00976
   9        7PX         0.00000   0.00000   0.00000
  10        7PY         0.00000   0.00000   0.00000
  11        7PZ         0.74159   0.39690   0.27757
  12        8PX         0.00000   0.00000   0.00000
  13        8PY         0.00000   0.00000   0.00000
  14        8PZ         1.90318  -2.55106  -7.36849
  15        9PX         0.00000   0.00000   0.00000
  16        9PY         0.00000   0.00000   0.00000
  17        9PZ         3.82408  -3.30866  -4.20466
  18       10D 0        0.01840   0.01324   0.01200
  19       10D+1        0.00000   0.00000   0.00000
  20       10D-1        0.00000   0.00000   0.00000
  21       10D+2       -0.03297   0.01415   0.03525
  22       10D-2        0.00000   0.00000   0.00000
  23       11D 0        0.04491  -0.63298  -0.23425
  24       11D+1        0.00000   0.00000   0.00000
  25       11D-1        0.00000   0.00000   0.00000
  26       11D+2        1.15999   0.57188   0.10574
  27       11D-2        0.00000   0.00000   0.00000
  28       12D 0       -0.94324  -1.55096  -1.53007
  29       12D+1        0.00000   0.00000   0.00000
  30       12D-1        0.00000   0.00000   0.00000
  31       12D+2        0.71678   0.86457   0.31113
  32       12D-2        0.00000   0.00000   0.00000
  33       13F 0       -0.05574  -0.02769  -0.00822
  34       13F+1        0.00000   0.00000   0.00000
  35       13F-1        0.00000   0.00000   0.00000
  36       13F+2       -0.06531  -0.04257  -0.01378
  37       13F-2        0.00000   0.00000   0.00000
  38       13F+3        0.00000   0.00000   0.00000
  39       13F-3        0.00000   0.00000   0.00000
  40       14F 0       -0.67934  -0.30973  -0.12805
  41       14F+1        0.00000   0.00000   0.00000
  42       14F-1        0.00000   0.00000   0.00000
  43       14F+2       -0.40956  -0.08525   0.02840
  44       14F-2        0.00000   0.00000   0.00000
  45       14F+3        0.00000   0.00000   0.00000
  46       14F-3        0.00000   0.00000   0.00000
  47 2   S  1S          0.00858  -0.00215  -0.00686
  48        2S          0.13158  -0.02196  -0.07989
  49        3S          0.37590  -0.09128  -0.28265
  50        4S         -0.03737  -0.10765  -0.09544
  51        5S          2.49033   7.58528   7.22859
  52        6S          0.37600   5.86031  23.36984
  53        7PX         0.00000   0.00000   0.00000
  54        7PY         0.00000   0.00000   0.00000
  55        7PZ        -0.02627  -0.04837   0.00020
  56        8PX         0.00000   0.00000   0.00000
  57        8PY         0.00000   0.00000   0.00000
  58        8PZ        -0.63117  -1.17596  -0.12388
  59        9PX         0.00000   0.00000   0.00000
  60        9PY         0.00000   0.00000   0.00000
  61        9PZ         0.03880   0.12814  -0.02091
  62       10PX         0.00000   0.00000   0.00000
  63       10PY         0.00000   0.00000   0.00000
  64       10PZ        -1.51690  -4.16049  -9.49201
  65       11PX         0.00000   0.00000   0.00000
  66       11PY         0.00000   0.00000   0.00000
  67       11PZ        -1.53630   1.59912  -4.97294
  68       12D 0        0.09505   1.04258   0.43741
  69       12D+1        0.00000   0.00000   0.00000
  70       12D-1        0.00000   0.00000   0.00000
  71       12D+2        0.09871  -0.05226  -0.01771
  72       12D-2        0.00000   0.00000   0.00000
  73       13D 0        0.05329  -0.08452  -0.02040
  74       13D+1        0.00000   0.00000   0.00000
  75       13D-1        0.00000   0.00000   0.00000
  76       13D+2       -0.01953   0.00668   0.00148
  77       13D-2        0.00000   0.00000   0.00000
  78       14D 0        0.72904  -0.38872   2.70558
  79       14D+1        0.00000   0.00000   0.00000
  80       14D-1        0.00000   0.00000   0.00000
  81       14D+2       -0.28177   0.02836  -0.05417
  82       14D-2        0.00000   0.00000   0.00000
  83       15F 0       -0.01203  -0.06105   0.03561
  84       15F+1        0.00000   0.00000   0.00000
  85       15F-1        0.00000   0.00000   0.00000
  86       15F+2       -0.01894   0.01533   0.00156
  87       15F-2        0.00000   0.00000   0.00000
  88       15F+3        0.00000   0.00000   0.00000
  89       15F-3        0.00000   0.00000   0.00000
  90       16F 0       -0.05834  -0.03898  -0.31191
  91       16F+1        0.00000   0.00000   0.00000
  92       16F-1        0.00000   0.00000   0.00000
  93       16F+2        0.04523  -0.00800   0.01935
  94       16F-2        0.00000   0.00000   0.00000
  95       16F+3        0.00000   0.00000   0.00000
  96       16F-3        0.00000   0.00000   0.00000
  97 3   F  1S         -0.02411  -0.03337   0.00301
  98        2S         -0.13918  -0.17377   0.00305
  99        3S         -0.01850   0.00067  -0.01556
 100        4S          2.48515   1.47036   0.13215
 101        5S          5.78818   5.77218   1.88516
 102        6PX         0.00000   0.00000   0.00000
 103        6PY         0.00136   0.01101   0.00239
 104        6PZ         0.01042   0.00305   0.00179
 105        7PX         0.00000   0.00000   0.00000
 106        7PY         0.00688  -0.06200  -0.01802
 107        7PZ        -0.02984  -0.02999  -0.02388
 108        8PX         0.00000   0.00000   0.00000
 109        8PY         1.38981   1.38977   0.40724
 110        8PZ         1.63365   1.02672   0.49109
 111        9PX         0.00000   0.00000   0.00000
 112        9PY         1.05331   0.68233  -0.03135
 113        9PZ        -0.90996   1.35948  -0.22070
 114       10D 0       -0.01959   0.00918  -0.00096
 115       10D+1        0.00000   0.00000   0.00000
 116       10D-1       -0.01243  -0.00389   0.00023
 117       10D+2        0.00114  -0.00217   0.00820
 118       10D-2        0.00000   0.00000   0.00000
 119       11D 0        0.07416  -0.04021  -0.00309
 120       11D+1        0.00000   0.00000   0.00000
 121       11D-1        0.08369   0.02667   0.00312
 122       11D+2       -0.01771  -0.00805  -0.02851
 123       11D-2        0.00000   0.00000   0.00000
 124       12D 0        0.01909   0.14020   0.03693
 125       12D+1        0.00000   0.00000   0.00000
 126       12D-1        0.41108   0.38448   0.23473
 127       12D+2       -0.06821  -0.25906  -0.06735
 128       12D-2        0.00000   0.00000   0.00000
 129       13F 0        0.00484   0.00702   0.00742
 130       13F+1        0.00000   0.00000   0.00000
 131       13F-1       -0.01594  -0.00240  -0.00663
 132       13F+2        0.00754   0.00406   0.01452
 133       13F-2        0.00000   0.00000   0.00000
 134       13F+3        0.00000   0.00000   0.00000
 135       13F-3       -0.02178  -0.00095   0.00739
 136       14F 0       -0.03057  -0.02751  -0.02968
 137       14F+1        0.00000   0.00000   0.00000
 138       14F-1        0.07394   0.01695   0.01625
 139       14F+2       -0.04760  -0.04379  -0.04770
 140       14F-2        0.00000   0.00000   0.00000
 141       14F+3        0.00000   0.00000   0.00000
 142       14F-3        0.04656  -0.01758  -0.02326
 143 4   F  1S         -0.02411  -0.03337   0.00301
 144        2S         -0.13918  -0.17377   0.00305
 145        3S         -0.01850   0.00067  -0.01556
 146        4S          2.48515   1.47036   0.13215
 147        5S          5.78818   5.77218   1.88516
 148        6PX         0.00000   0.00000   0.00000
 149        6PY        -0.00136  -0.01101  -0.00239
 150        6PZ         0.01042   0.00305   0.00179
 151        7PX         0.00000   0.00000   0.00000
 152        7PY        -0.00688   0.06200   0.01802
 153        7PZ        -0.02984  -0.02999  -0.02388
 154        8PX         0.00000   0.00000   0.00000
 155        8PY        -1.38981  -1.38977  -0.40724
 156        8PZ         1.63365   1.02672   0.49109
 157        9PX         0.00000   0.00000   0.00000
 158        9PY        -1.05331  -0.68233   0.03135
 159        9PZ        -0.90996   1.35948  -0.22070
 160       10D 0       -0.01959   0.00918  -0.00096
 161       10D+1        0.00000   0.00000   0.00000
 162       10D-1        0.01243   0.00389  -0.00023
 163       10D+2        0.00114  -0.00217   0.00820
 164       10D-2        0.00000   0.00000   0.00000
 165       11D 0        0.07416  -0.04021  -0.00309
 166       11D+1        0.00000   0.00000   0.00000
 167       11D-1       -0.08369  -0.02667  -0.00312
 168       11D+2       -0.01771  -0.00805  -0.02851
 169       11D-2        0.00000   0.00000   0.00000
 170       12D 0        0.01909   0.14020   0.03693
 171       12D+1        0.00000   0.00000   0.00000
 172       12D-1       -0.41108  -0.38448  -0.23473
 173       12D+2       -0.06821  -0.25906  -0.06735
 174       12D-2        0.00000   0.00000   0.00000
 175       13F 0        0.00484   0.00702   0.00742
 176       13F+1        0.00000   0.00000   0.00000
 177       13F-1        0.01594   0.00240   0.00663
 178       13F+2        0.00754   0.00406   0.01452
 179       13F-2        0.00000   0.00000   0.00000
 180       13F+3        0.00000   0.00000   0.00000
 181       13F-3        0.02178   0.00095  -0.00739
 182       14F 0       -0.03057  -0.02751  -0.02968
 183       14F+1        0.00000   0.00000   0.00000
 184       14F-1       -0.07394  -0.01695  -0.01625
 185       14F+2       -0.04760  -0.04379  -0.04770
 186       14F-2        0.00000   0.00000   0.00000
 187       14F+3        0.00000   0.00000   0.00000
 188       14F-3       -0.04656   0.01758   0.02326
          Condensed to atoms (all electrons):
              1          2          3          4
     1  C    5.194518   0.242986   0.110522   0.110522
     2  S    0.242986  15.949610  -0.066551  -0.066551
     3  F    0.110522  -0.066551   9.178400  -0.081392
     4  F    0.110522  -0.066551  -0.081392   9.178400
 Mulliken atomic charges:
              1
     1  C    0.341452
     2  S   -0.059494
     3  F   -0.140979
     4  F   -0.140979
 Sum of Mulliken atomic charges =   0.00000
 Mulliken charges with hydrogens summed into heavy atoms:
              1
     1  C    0.341452
     2  S   -0.059494
     3  F   -0.140979
     4  F   -0.140979
 Sum of Mulliken charges with hydrogens summed into heavy atoms =   0.00000
 Electronic spatial extent (au):  <R**2>=            315.2002
 Charge=              0.0000 electrons
 Dipole moment (field-independent basis, Debye):
    X=              0.0000    Y=              0.0000    Z=             -0.2243  Tot=              0.2243
 Quadrupole moment (field-independent basis, Debye-Ang):
   XX=            -27.2810   YY=            -30.1543   ZZ=            -27.9399
   XY=              0.0000   XZ=              0.0000   YZ=              0.0000
 Traceless Quadrupole moment (field-independent basis, Debye-Ang):
   XX=              1.1774   YY=             -1.6959   ZZ=              0.5185
   XY=              0.0000   XZ=              0.0000   YZ=              0.0000
 Octapole moment (field-independent basis, Debye-Ang**2):
  XXX=              0.0000  YYY=              0.0000  ZZZ=              8.7842  XYY=              0.0000
  XXY=              0.0000  XXZ=              0.7522  XZZ=              0.0000  YZZ=              0.0000
  YYZ=              0.8022  XYZ=              0.0000
 Hexadecapole moment (field-independent basis, Debye-Ang**3):
 XXXX=            -28.1326 YYYY=            -96.1674 ZZZZ=           -215.0424 XXXY=              0.0000
 XXXZ=              0.0000 YYYX=              0.0000 YYYZ=              0.0000 ZZZX=              0.0000
 ZZZY=              0.0000 XXYY=            -20.7177 XXZZ=            -40.5190 YYZZ=            -55.6371
 XXYZ=              0.0000 YYXZ=              0.0000 ZZXY=              0.0000
 N-N= 1.543928582966D+02 E-N=-1.820106243212D+03  KE= 6.349953469213D+02
 1\1\GINC-TRAPISTA\SP\RQCISD-FC\Aug-CC-pVTZ\C1F2S1\BRUNS\27-Nov-2021\0\
 \# qcisd/aug-cc-pvtz nosymm density=current output=wfn\\f2cs-wavefunct
 ion\\0,1\C,0,0.,0.,-0.520349\S,0,0.,0.,1.078525\F,0,0.,-1.055221,-1.29
 5538\F,0,0.,1.055221,-1.295538\\Version=EM64L-G09RevB.01\HF=-634.35687
 05\MP2=-635.1964052\MP3=-635.1997909\MP4D=-635.2167164\MP4DQ=-635.1973
 636\MP4SDQ=-635.2082211\QCISD=-635.2073238\RMSD=7.678e-09\Dipole=0.,0.
 ,-0.0882524\Quadrupole=0.875385,-1.2608882,0.3855032,0.,0.,0.\PG=C02V 
 [C2(C1S1),SGV(F2)]\\@

 Writing a WFN file to GAUSSIAN.wfn.


 EVANS BOLDLY PUT 50 ATM. OF ETHYLENE IN A CELL WITH 25 ATM. OF OXYGEN.
 THE APPARATUS SUBSEQUENTLY BLEW UP, BUT LUCKILY NOT BEFORE HE
 OBTAINED THE SPECTRA SHOWN IN FIGURE 8.
 A.J.MERER AND R.S.MULLIKEN, CHEM.REV. 69, 645 (1969)
 Job cpu time:  0 days  2 hours  1 minutes 46.9 seconds.
 File lengths (MBytes):  RWF=  17813 Int=      0 D2E=      0 Chk=      3 Scr=      1
 Normal termination of Gaussian 09 at Sat Nov 27 01:48:13 2021.
