 Entering Gaussian System, Link 0=/home/bruns/programas/chemistry/gaussian/g09/g09
 Input=GAUSSIAN.com
 Output=GAUSSIAN.log
 Initial command:
 /home/bruns/programas/chemistry/gaussian/g09/l1.exe /home/bruns/programas/chemistry/gaussian/work/Gau-40859.inp -scrdir=/home/bruns/programas/chemistry/gaussian/work/
 Entering Link 1 = /home/bruns/programas/chemistry/gaussian/g09/l1.exe PID=     40861.
  
 Copyright (c) 1988,1990,1992,1993,1995,1998,2003,2009,2010,
            Gaussian, Inc.  All Rights Reserved.
  
 This is part of the Gaussian(R) 09 program.  It is based on
 the Gaussian(R) 03 system (copyright 2003, Gaussian, Inc.),
 the Gaussian(R) 98 system (copyright 1998, Gaussian, Inc.),
 the Gaussian(R) 94 system (copyright 1995, Gaussian, Inc.),
 the Gaussian 92(TM) system (copyright 1992, Gaussian, Inc.),
 the Gaussian 90(TM) system (copyright 1990, Gaussian, Inc.),
 the Gaussian 88(TM) system (copyright 1988, Gaussian, Inc.),
 the Gaussian 86(TM) system (copyright 1986, Carnegie Mellon
 University), and the Gaussian 82(TM) system (copyright 1983,
 Carnegie Mellon University). Gaussian is a federally registered
 trademark of Gaussian, Inc.
  
 This software contains proprietary and confidential information,
 including trade secrets, belonging to Gaussian, Inc.
  
 This software is provided under written license and may be
 used, copied, transmitted, or stored only in accord with that
 written license.
  
 The following legend is applicable only to US Government
 contracts under FAR:
  
                    RESTRICTED RIGHTS LEGEND
  
 Use, reproduction and disclosure by the US Government is
 subject to restrictions as set forth in subparagraphs (a)
 and (c) of the Commercial Computer Software - Restricted
 Rights clause in FAR 52.227-19.
  
 Gaussian, Inc.
 340 Quinnipiac St., Bldg. 40, Wallingford CT 06492
  
  
 ---------------------------------------------------------------
 Warning -- This program may not be used in any manner that
 competes with the business of Gaussian, Inc. or will provide
 assistance to any competitor of Gaussian, Inc.  The licensee
 of this program is prohibited from giving any competitor of
 Gaussian, Inc. access to this program.  By using this program,
 the user acknowledges that Gaussian, Inc. is engaged in the
 business of creating and licensing software in the field of
 computational chemistry and represents and warrants to the
 licensee that it is not a competitor of Gaussian, Inc. and that
 it will not use this program in any manner prohibited above.
 ---------------------------------------------------------------
  

 Cite this work as:
 Gaussian 09, Revision B.01,
 M. J. Frisch, G. W. Trucks, H. B. Schlegel, G. E. Scuseria, 
 M. A. Robb, J. R. Cheeseman, G. Scalmani, V. Barone, B. Mennucci, 
 G. A. Petersson, H. Nakatsuji, M. Caricato, X. Li, H. P. Hratchian, 
 A. F. Izmaylov, J. Bloino, G. Zheng, J. L. Sonnenberg, M. Hada, 
 M. Ehara, K. Toyota, R. Fukuda, J. Hasegawa, M. Ishida, T. Nakajima, 
 Y. Honda, O. Kitao, H. Nakai, T. Vreven, J. A. Montgomery, Jr., 
 J. E. Peralta, F. Ogliaro, M. Bearpark, J. J. Heyd, E. Brothers, 
 K. N. Kudin, V. N. Staroverov, T. Keith, R. Kobayashi, J. Normand, 
 K. Raghavachari, A. Rendell, J. C. Burant, S. S. Iyengar, J. Tomasi, 
 M. Cossi, N. Rega, J. M. Millam, M. Klene, J. E. Knox, J. B. Cross, 
 V. Bakken, C. Adamo, J. Jaramillo, R. Gomperts, R. E. Stratmann, 
 O. Yazyev, A. J. Austin, R. Cammi, C. Pomelli, J. W. Ochterski, 
 R. L. Martin, K. Morokuma, V. G. Zakrzewski, G. A. Voth, 
 P. Salvador, J. J. Dannenberg, S. Dapprich, A. D. Daniels, 
 O. Farkas, J. B. Foresman, J. V. Ortiz, J. Cioslowski, 
 and D. J. Fox, Gaussian, Inc., Wallingford CT, 2010.
 
 ******************************************
 Gaussian 09:  EM64L-G09RevB.01 12-Aug-2010
                27-Nov-2021 
 ******************************************
 %nproc=8
 Will use up to    8 processors via shared memory.
 %mem=8GB
 -----------------------------------------------------
 # qcisd/aug-cc-pvtz nosymm density=current output=wfn
 -----------------------------------------------------
 1/30=1,38=1/1;
 2/12=2,15=1,17=6,18=5,40=1/2;
 3/5=16,6=1,7=10,11=9,16=1,25=1,30=1,71=1/1,2,3;
 4//1;
 5/5=2,38=5/2;
 8/6=4,9=120000,10=1/1,4;
 9/5=8,15=1/13;
 11/28=-7,31=1,32=3,42=3/11;
 10/5=6,13=10,31=1/2;
 6/7=2,8=2,9=2,10=2,22=-1,31=1/1;
 99/5=1,6=1100,9=1/99;
 -----------------
 f2cs-wavefunction
 -----------------
 Symbolic Z-matrix:
 Charge =  0 Multiplicity = 1
 C                     0.        0.       -0.52035 
 S                     0.        0.        1.07852 
 F                     0.       -1.05522  -1.29554 
 F                     0.        1.05522  -1.30554 
 
                          Input orientation:                          
 ---------------------------------------------------------------------
 Center     Atomic      Atomic             Coordinates (Angstroms)
 Number     Number       Type             X           Y           Z
 ---------------------------------------------------------------------
      1          6           0        0.000000    0.000000   -0.520349
      2         16           0        0.000000    0.000000    1.078525
      3          9           0        0.000000   -1.055221   -1.295538
      4          9           0        0.000000    1.055221   -1.305538
 ---------------------------------------------------------------------
                    Distance matrix (angstroms):
                    1          2          3          4
     1  C    0.000000
     2  S    1.598874   0.000000
     3  F    1.309355   2.598012   0.000000
     4  F    1.315300   2.607153   2.110466   0.000000
 Symmetry turned off by external request.
 Stoichiometry    CF2S
 Framework group  CS[SG(CF2S)]
 Deg. of freedom     5
 Full point group                 CS      NOp   2
 Rotational constants (GHZ):     11.9451194      5.0926249      3.5704264
 Standard basis: Aug-CC-pVTZ (5D, 7F)
 Integral buffers will be    131072 words long.
 Raffenetti 1 integral format.
 Two-electron integral symmetry is turned off.
   188 basis functions,   330 primitive gaussians,   224 cartesian basis functions
    20 alpha electrons       20 beta electrons
       nuclear repulsion energy       154.1911474243 Hartrees.
 NAtoms=    4 NActive=    4 NUniq=    4 SFac= 1.00D+00 NAtFMM=   50 NAOKFM=F Big=F
 One-electron integrals computed using PRISM.
 NBasis=   188 RedAO= T  NBF=   188
 NBsUse=   188 1.00D-06 NBFU=   188
 Harris functional with IExCor=  205 diagonalized for initial guess.
 ExpMin= 3.51D-02 ExpMax= 3.74D+05 ExpMxC= 1.18D+03 IAcc=3 IRadAn=         0 AccDes= 0.00D+00
 HarFok:  IExCor=  205 AccDes= 0.00D+00 IRadAn=         0 IDoV= 1
 ScaDFX=  1.000000  1.000000  1.000000  1.000000
 FoFCou: FMM=F IPFlag=           0 FMFlag=      100000 FMFlg1=           0
         NFxFlg=           0 DoJE=T BraDBF=F KetDBF=T FulRan=T
         Omega=  0.000000  0.000000  1.000000  0.000000  0.000000 ICntrl=     500 IOpCl=  0
         NMat0=    1 NMatS0=    1 NMatT0=    0 NMatD0=    1 NMtDS0=    0 NMtDT0=    0
         I1Cent=           4 NGrid=           0.
 Symmetry not used in FoFCou.
 Requested convergence on RMS density matrix=1.00D-08 within 128 cycles.
 Requested convergence on MAX density matrix=1.00D-06.
 Requested convergence on             energy=1.00D-06.
 No special actions if energy rises.
 Keep R1 ints in memory in canonical form, NReq=323399632.
 SCF Done:  E(RHF) =  -634.356478560     A.U. after   12 cycles
             Convg  =    0.7411D-08             -V/T =  2.0006
 ExpMin= 3.51D-02 ExpMax= 3.74D+05 ExpMxC= 1.18D+03 IAcc=3 IRadAn=         5 AccDes= 0.00D+00
 HarFok:  IExCor=  205 AccDes= 0.00D+00 IRadAn=         5 IDoV=-2
 ScaDFX=  1.000000  1.000000  1.000000  1.000000
 Range of M.O.s used for correlation:     9   188
 NBasis=   188 NAE=    20 NBE=    20 NFC=     8 NFV=     0
 NROrb=    180 NOA=    12 NOB=    12 NVA=   168 NVB=   168

 **** Warning!!: The largest alpha MO coefficient is  0.28279417D+02

 Semi-Direct transformation.
 ModeAB=           2 MOrb=            12 LenV=    1072746545
 LASXX=     33405819 LTotXX=    33405819 LenRXX=    33405819
 LTotAB=    33954012 MaxLAS=    54432000 LenRXY=    54432000
 NonZer=    66811638 LenScr=   100987392 LnRSAI=           0
 LnScr1=           0 LExtra=           0 Total=    188825211
 MaxDsk=          -1 SrtSym=           F ITran=            4
 JobTyp=0 Pass  1:  I=   1 to  12.
 (rs|ai) integrals will be sorted in core.
 Spin components of T(2) and E(2):
     alpha-alpha T2 =       0.3019417480D-01 E2=     -0.1104557518D+00
     alpha-beta  T2 =       0.1601039502D+00 E2=     -0.6190444936D+00
     beta-beta   T2 =       0.3019417480D-01 E2=     -0.1104557518D+00
 ANorm=    0.1104758933D+01
 E2 =    -0.8399559973D+00 EUMP2 =    -0.63519643455682D+03
 R2 and R3 integrals will be kept in memory, NReq=   640760400.
 Iterations=  50 Convergence= 0.100D-07
 Iteration Nr.   1
 **********************
 DD1Dir will call FoFMem   1 times, MxPair=       156
 NAB=    78 NAA=     0 NBB=     0.
 MP4(R+Q)=  0.19390985D-01
 E3=       -0.32512414D-02        EUMP3=      -0.63519968580D+03
 E4(DQ)=    0.24041478D-02        UMP4(DQ)=   -0.63519728165D+03
 E4(SDQ)=  -0.85111064D-02        UMP4(SDQ)=  -0.63520819690D+03
 DE(Corr)= -0.82381625     E(Corr)=     -635.18029481    
 NORM(A)=   0.11039920D+01
 Iteration Nr.   2
 **********************
 DD1Dir will call FoFMem   1 times, MxPair=       156
 NAB=    78 NAA=     0 NBB=     0.
 DE(Corr)= -0.84961441     E(CORR)=     -635.20609297     Delta=-2.58D-02
 NORM(A)=   0.11129582D+01
 Iteration Nr.   3
 **********************
 DD1Dir will call FoFMem   1 times, MxPair=       156
 NAB=    78 NAA=     0 NBB=     0.
 DE(Corr)= -0.84791368     E(CORR)=     -635.20439224     Delta= 1.70D-03
 NORM(A)=   0.11158193D+01
 Iteration Nr.   4
 **********************
 DD1Dir will call FoFMem   1 times, MxPair=       156
 NAB=    78 NAA=     0 NBB=     0.
 DE(Corr)= -0.85046115     E(CORR)=     -635.20693971     Delta=-2.55D-03
 NORM(A)=   0.11169370D+01
 Iteration Nr.   5
 **********************
 DD1Dir will call FoFMem   1 times, MxPair=       156
 NAB=    78 NAA=     0 NBB=     0.
 DE(Corr)= -0.85076483     E(CORR)=     -635.20724339     Delta=-3.04D-04
 NORM(A)=   0.11172648D+01
 Iteration Nr.   6
 **********************
 DD1Dir will call FoFMem   1 times, MxPair=       156
 NAB=    78 NAA=     0 NBB=     0.
 DE(Corr)= -0.85080465     E(CORR)=     -635.20728321     Delta=-3.98D-05
 NORM(A)=   0.11173138D+01
 Iteration Nr.   7
 **********************
 DD1Dir will call FoFMem   1 times, MxPair=       156
 NAB=    78 NAA=     0 NBB=     0.
 DE(Corr)= -0.85080900     E(CORR)=     -635.20728756     Delta=-4.35D-06
 NORM(A)=   0.11173132D+01
 Iteration Nr.   8
 **********************
 DD1Dir will call FoFMem   1 times, MxPair=       156
 NAB=    78 NAA=     0 NBB=     0.
 DE(Corr)= -0.85080776     E(CORR)=     -635.20728632     Delta= 1.24D-06
 NORM(A)=   0.11173183D+01
 Iteration Nr.   9
 **********************
 DD1Dir will call FoFMem   1 times, MxPair=       156
 NAB=    78 NAA=     0 NBB=     0.
 DE(Corr)= -0.85080733     E(CORR)=     -635.20728589     Delta= 4.30D-07
 NORM(A)=   0.11173183D+01
 Iteration Nr.  10
 **********************
 DD1Dir will call FoFMem   1 times, MxPair=       156
 NAB=    78 NAA=     0 NBB=     0.
 DE(Corr)= -0.85080751     E(CORR)=     -635.20728607     Delta=-1.78D-07
 NORM(A)=   0.11173198D+01
 Iteration Nr.  11
 **********************
 DD1Dir will call FoFMem   1 times, MxPair=       156
 NAB=    78 NAA=     0 NBB=     0.
 DE(Corr)= -0.85080815     E(CORR)=     -635.20728671     Delta=-6.42D-07
 NORM(A)=   0.11173211D+01
 Iteration Nr.  12
 **********************
 DD1Dir will call FoFMem   1 times, MxPair=       156
 NAB=    78 NAA=     0 NBB=     0.
 DE(Corr)= -0.85080841     E(CORR)=     -635.20728697     Delta=-2.62D-07
 NORM(A)=   0.11173218D+01
 Iteration Nr.  13
 **********************
 DD1Dir will call FoFMem   1 times, MxPair=       156
 NAB=    78 NAA=     0 NBB=     0.
 DE(Corr)= -0.85080866     E(CORR)=     -635.20728722     Delta=-2.42D-07
 NORM(A)=   0.11173223D+01
 Iteration Nr.  14
 **********************
 DD1Dir will call FoFMem   1 times, MxPair=       156
 NAB=    78 NAA=     0 NBB=     0.
 DE(Corr)= -0.85080872     E(CORR)=     -635.20728728     Delta=-6.36D-08
 NORM(A)=   0.11173224D+01
 Iteration Nr.  15
 **********************
 DD1Dir will call FoFMem   1 times, MxPair=       156
 NAB=    78 NAA=     0 NBB=     0.
 DE(Corr)= -0.85080876     E(CORR)=     -635.20728732     Delta=-3.84D-08
 NORM(A)=   0.11173225D+01
 Iteration Nr.  16
 **********************
 DD1Dir will call FoFMem   1 times, MxPair=       156
 NAB=    78 NAA=     0 NBB=     0.
 DE(Corr)= -0.85080877     E(CORR)=     -635.20728733     Delta=-9.69D-09
 NORM(A)=   0.11173225D+01
 Iteration Nr.  17
 **********************
 DD1Dir will call FoFMem   1 times, MxPair=       156
 NAB=    78 NAA=     0 NBB=     0.
 DE(Corr)= -0.85080877     E(CORR)=     -635.20728733     Delta= 8.85D-10
 NORM(A)=   0.11173225D+01
 Iteration Nr.  18
 **********************
 DD1Dir will call FoFMem   1 times, MxPair=       156
 NAB=    78 NAA=     0 NBB=     0.
 DE(Corr)= -0.85080877     E(CORR)=     -635.20728733     Delta=-1.33D-09
 NORM(A)=   0.11173225D+01
 Largest amplitude= 8.57D-02

 Z-AMPLITUDE ITERATIONS

 Iteration Nr.   1
 **********************
 DD1Dir will call FoFMem   1 times, MxPair=       156
 NAB=    78 NAA=     0 NBB=     0.
 DE(Z)  -0.82684925D+00          E(Z)=    -0.63518332781D+03
 NORM(A)=   0.11173114D+01
 Iteration Nr.   2
 **********************
 DD1Dir will call FoFMem   1 times, MxPair=       156
 NAB=    78 NAA=     0 NBB=     0.
 DE(Z)  -0.82684923D+00          E(Z)=    -0.63518332779D+03
 NORM(A)=   0.11173192D+01
 Iteration Nr.   3
 **********************
 DD1Dir will call FoFMem   1 times, MxPair=       156
 NAB=    78 NAA=     0 NBB=     0.
 DE(Z)  -0.82684920D+00          E(Z)=    -0.63518332776D+03
 NORM(A)=   0.11173345D+01
 Iteration Nr.   4
 **********************
 DD1Dir will call FoFMem   1 times, MxPair=       156
 NAB=    78 NAA=     0 NBB=     0.
 DE(Z)  -0.82684940D+00          E(Z)=    -0.63518332796D+03
 NORM(A)=   0.11173254D+01
 Iteration Nr.   5
 **********************
 DD1Dir will call FoFMem   1 times, MxPair=       156
 NAB=    78 NAA=     0 NBB=     0.
 DE(Z)  -0.82684931D+00          E(Z)=    -0.63518332787D+03
 NORM(A)=   0.11091128D+01
 Iteration Nr.   6
 **********************
 DD1Dir will call FoFMem   1 times, MxPair=       156
 NAB=    78 NAA=     0 NBB=     0.
 DE(Z)  -0.82673387D+00          E(Z)=    -0.63518321243D+03
 NORM(A)=   0.11090869D+01
 Iteration Nr.   7
 **********************
 DD1Dir will call FoFMem   1 times, MxPair=       156
 NAB=    78 NAA=     0 NBB=     0.
 DE(Z)  -0.82671765D+00          E(Z)=    -0.63518319621D+03
 NORM(A)=   0.11090534D+01
 Iteration Nr.   8
 **********************
 DD1Dir will call FoFMem   1 times, MxPair=       156
 NAB=    78 NAA=     0 NBB=     0.
 DE(Z)  -0.82670936D+00          E(Z)=    -0.63518318791D+03
 NORM(A)=   0.11090544D+01
 Iteration Nr.   9
 **********************
 DD1Dir will call FoFMem   1 times, MxPair=       156
 NAB=    78 NAA=     0 NBB=     0.
 DE(Z)  -0.82670956D+00          E(Z)=    -0.63518318812D+03
 NORM(A)=   0.11090552D+01
 Iteration Nr.  10
 **********************
 DD1Dir will call FoFMem   1 times, MxPair=       156
 NAB=    78 NAA=     0 NBB=     0.
 DE(Z)  -0.82671053D+00          E(Z)=    -0.63518318909D+03
 NORM(A)=   0.11090555D+01
 Iteration Nr.  11
 **********************
 DD1Dir will call FoFMem   1 times, MxPair=       156
 NAB=    78 NAA=     0 NBB=     0.
 DE(Z)  -0.82671056D+00          E(Z)=    -0.63518318912D+03
 NORM(A)=   0.11090554D+01
 Iteration Nr.  12
 **********************
 DD1Dir will call FoFMem   1 times, MxPair=       156
 NAB=    78 NAA=     0 NBB=     0.
 DE(Z)  -0.82671045D+00          E(Z)=    -0.63518318901D+03
 NORM(A)=   0.11090554D+01
 Iteration Nr.  13
 **********************
 DD1Dir will call FoFMem   1 times, MxPair=       156
 NAB=    78 NAA=     0 NBB=     0.
 DE(Z)  -0.82671058D+00          E(Z)=    -0.63518318914D+03
 NORM(A)=   0.11090555D+01
 Iteration Nr.  14
 **********************
 DD1Dir will call FoFMem   1 times, MxPair=       156
 NAB=    78 NAA=     0 NBB=     0.
 DE(Z)  -0.82671055D+00          E(Z)=    -0.63518318911D+03
 NORM(A)=   0.11090555D+01
 Iteration Nr.  15
 **********************
 DD1Dir will call FoFMem   1 times, MxPair=       156
 NAB=    78 NAA=     0 NBB=     0.
 DE(Z)  -0.82671057D+00          E(Z)=    -0.63518318913D+03
 NORM(A)=   0.11090555D+01
 Iteration Nr.  16
 **********************
 DD1Dir will call FoFMem   1 times, MxPair=       156
 NAB=    78 NAA=     0 NBB=     0.
 DE(Z)  -0.82671057D+00          E(Z)=    -0.63518318913D+03
 NORM(A)=   0.11090555D+01
 Discarding MO integrals.
          Differentiating once with respect to electric field.
                with respect to dipole field.
          Electric field/nuclear overlap derivatives assumed to be zero.
          Keep R1 ints in memory in canonical form, NReq=319473719.
          There are     1 degrees of freedom in the 1st order CPHF.  IDoFFX=0.
 LinEq1:  Iter=  0 NonCon=     1 RMS=2.86D-03 Max=7.78D-02
 AX will form     1 AO Fock derivatives at one time.
 LinEq1:  Iter=  1 NonCon=     1 RMS=8.88D-04 Max=1.07D-02
 LinEq1:  Iter=  2 NonCon=     1 RMS=4.05D-04 Max=1.29D-02
 LinEq1:  Iter=  3 NonCon=     1 RMS=1.09D-04 Max=2.38D-03
 LinEq1:  Iter=  4 NonCon=     1 RMS=2.67D-05 Max=6.35D-04
 LinEq1:  Iter=  5 NonCon=     1 RMS=6.78D-06 Max=1.05D-04
 LinEq1:  Iter=  6 NonCon=     1 RMS=2.69D-06 Max=5.82D-05
 LinEq1:  Iter=  7 NonCon=     1 RMS=8.41D-07 Max=1.57D-05
 LinEq1:  Iter=  8 NonCon=     1 RMS=1.69D-07 Max=2.30D-06
 LinEq1:  Iter=  9 NonCon=     1 RMS=3.26D-08 Max=3.69D-07
 LinEq1:  Iter= 10 NonCon=     1 RMS=8.75D-09 Max=1.13D-07
 LinEq1:  Iter= 11 NonCon=     1 RMS=3.75D-09 Max=5.33D-08
 LinEq1:  Iter= 12 NonCon=     1 RMS=8.45D-10 Max=1.40D-08
 LinEq1:  Iter= 13 NonCon=     1 RMS=1.17D-10 Max=1.53D-09
 LinEq1:  Iter= 14 NonCon=     0 RMS=2.16D-11 Max=2.10D-10
 Linear equations converged to 1.000D-10 1.000D-09 after    14 iterations.
 End of Minotr Frequency-dependent properties file   721 does not exist.
 End of Minotr Frequency-dependent properties file   722 does not exist.

 **********************************************************************

            Population analysis using the QCI/CC density.

 **********************************************************************

     Natural Orbital Coefficients:
                           1         2         3         4         5
     Eigenvalues --     2.00003   2.00002   2.00001   2.00001   2.00000
   1 1   C  1S         -0.00168  -0.17744   0.59625   0.00000   0.47984
   2        2S          0.00006   0.00325  -0.00928   0.00000  -0.00493
   3        3S         -0.00006  -0.00679   0.02399   0.00000   0.02005
   4        4S         -0.00009  -0.00906   0.00230   0.00000  -0.00203
   5        5S          0.00002  -0.00082   0.00194   0.00000   0.00044
   6        6PX         0.00000   0.00000   0.00000  -0.00182   0.00000
   7        6PY        -0.00140   0.00002  -0.00001   0.00000   0.00000
   8        6PZ         0.00003   0.00134  -0.00335   0.00000  -0.00037
   9        7PX         0.00000   0.00000   0.00000  -0.00183   0.00000
  10        7PY        -0.00364   0.00003  -0.00001   0.00000   0.00000
  11        7PZ         0.00001  -0.00098   0.00140   0.00000   0.00159
  12        8PX         0.00000   0.00000   0.00000  -0.00119   0.00000
  13        8PY         0.00596  -0.00004   0.00000   0.00000   0.00000
  14        8PZ        -0.00002  -0.00922   0.00523   0.00000  -0.00117
  15        9PX         0.00000   0.00000   0.00000   0.00009   0.00000
  16        9PY        -0.00061   0.00001   0.00000   0.00000   0.00000
  17        9PZ         0.00001   0.00036   0.00029   0.00000   0.00054
  18       10D 0        0.00000  -0.00008   0.00007   0.00000   0.00019
  19       10D+1        0.00000   0.00000   0.00000  -0.00030   0.00000
  20       10D-1       -0.00031   0.00000   0.00000   0.00000   0.00000
  21       10D+2        0.00000   0.00011  -0.00036   0.00000  -0.00018
  22       10D-2        0.00000   0.00000   0.00000   0.00000   0.00000
  23       11D 0       -0.00002  -0.00116   0.00017   0.00000  -0.00033
  24       11D+1        0.00000   0.00000   0.00000   0.00120   0.00000
  25       11D-1        0.00104   0.00000  -0.00001   0.00000   0.00000
  26       11D+2       -0.00001  -0.00013   0.00117   0.00000   0.00081
  27       11D-2        0.00000   0.00000   0.00000   0.00001   0.00000
  28       12D 0        0.00002  -0.00270   0.00162   0.00000  -0.00139
  29       12D+1        0.00000   0.00000   0.00000  -0.00054   0.00000
  30       12D-1       -0.00448   0.00003  -0.00002   0.00000  -0.00002
  31       12D+2        0.00000  -0.00088   0.00057   0.00000  -0.00055
  32       12D-2        0.00000   0.00000   0.00000   0.00000   0.00000
  33       13F 0        0.00000  -0.00005  -0.00001   0.00000   0.00040
  34       13F+1        0.00000   0.00000   0.00000  -0.00018   0.00000
  35       13F-1       -0.00055   0.00000   0.00000   0.00000   0.00000
  36       13F+2        0.00000  -0.00010   0.00016   0.00000   0.00001
  37       13F-2        0.00000   0.00000   0.00000   0.00000   0.00000
  38       13F+3        0.00000   0.00000   0.00000   0.00002   0.00000
  39       13F-3        0.00005   0.00000   0.00000   0.00000   0.00000
  40       14F 0        0.00001   0.00061  -0.00194   0.00000  -0.00024
  41       14F+1        0.00000   0.00000   0.00000   0.00089   0.00000
  42       14F-1        0.00287  -0.00003   0.00003   0.00000  -0.00006
  43       14F+2        0.00000   0.00065  -0.00150   0.00000  -0.00088
  44       14F-2        0.00000   0.00000   0.00000   0.00000   0.00000
  45       14F+3        0.00000   0.00000   0.00000   0.00017   0.00000
  46       14F-3        0.00003  -0.00001   0.00001   0.00000  -0.00002
  47 2   S  1S         -0.00109  -0.21728  -0.16944   0.00000   0.07181
  48        2S          0.00372   0.74295   0.58579   0.00000  -0.24928
  49        3S         -0.00013  -0.02145  -0.00887   0.00000   0.00218
  50        4S          0.00024   0.04964   0.04226   0.00000  -0.01820
  51        5S          0.00003   0.00998  -0.01123   0.00000   0.00423
  52        6S         -0.00002   0.00098  -0.00255   0.00000  -0.00080
  53        7PX         0.00000   0.00000   0.00000   0.97269   0.00000
  54        7PY         0.97643  -0.00781   0.00276   0.00000  -0.00147
  55        7PZ         0.00748   0.62269  -0.50314   0.00000   0.43770
  56        8PX         0.00000   0.00000   0.00000  -0.01224   0.00000
  57        8PY        -0.02018   0.00015  -0.00005   0.00000   0.00005
  58        8PZ        -0.00015  -0.01233   0.00873   0.00000  -0.00447
  59        9PX         0.00000   0.00000   0.00000   0.06131   0.00000
  60        9PY         0.05655  -0.00046   0.00017   0.00000  -0.00010
  61        9PZ         0.00045   0.03850  -0.03307   0.00000   0.02887
  62       10PX         0.00000   0.00000   0.00000   0.00021   0.00000
  63       10PY        -0.00414   0.00002   0.00001   0.00000   0.00002
  64       10PZ        -0.00008  -0.00879   0.00482   0.00000  -0.00070
  65       11PX         0.00000   0.00000   0.00000  -0.00082   0.00000
  66       11PY        -0.00032   0.00000   0.00000   0.00000   0.00000
  67       11PZ         0.00000  -0.00029   0.00029   0.00000  -0.00003
  68       12D 0        0.00003   0.00244  -0.00292   0.00000   0.00106
  69       12D+1        0.00000   0.00000   0.00000   0.00201   0.00000
  70       12D-1        0.00334  -0.00003   0.00002   0.00000  -0.00003
  71       12D+2        0.00000  -0.00039   0.00026   0.00000   0.00029
  72       12D-2        0.00000   0.00000   0.00000   0.00000   0.00000
  73       13D 0        0.00000   0.00019   0.00028   0.00000  -0.00069
  74       13D+1        0.00000   0.00000   0.00000  -0.00013   0.00000
  75       13D-1       -0.00027   0.00000   0.00000   0.00000   0.00000
  76       13D+2        0.00000   0.00026   0.00013   0.00000  -0.00008
  77       13D-2        0.00000   0.00000   0.00000   0.00000   0.00000
  78       14D 0        0.00002   0.00141  -0.00061   0.00000   0.00010
  79       14D+1        0.00000   0.00000   0.00000  -0.00039   0.00000
  80       14D-1       -0.00083   0.00001  -0.00001   0.00000   0.00000
  81       14D+2        0.00000   0.00024  -0.00002   0.00000   0.00014
  82       14D-2        0.00000   0.00000   0.00000   0.00000   0.00000
  83       15F 0        0.00000  -0.00022   0.00029   0.00000   0.00033
  84       15F+1        0.00000   0.00000   0.00000  -0.00023   0.00000
  85       15F-1       -0.00022   0.00000   0.00000   0.00000   0.00000
  86       15F+2        0.00000   0.00011  -0.00014   0.00000   0.00003
  87       15F-2        0.00000   0.00000   0.00000   0.00000   0.00000
  88       15F+3        0.00000   0.00000   0.00000   0.00009   0.00000
  89       15F-3        0.00006   0.00000   0.00000   0.00000   0.00000
  90       16F 0       -0.00001  -0.00046   0.00057   0.00000  -0.00046
  91       16F+1        0.00000   0.00000   0.00000  -0.00046   0.00000
  92       16F-1       -0.00102   0.00001  -0.00001   0.00000   0.00001
  93       16F+2        0.00000  -0.00001  -0.00017   0.00000  -0.00026
  94       16F-2        0.00000   0.00000   0.00000   0.00000   0.00000
  95       16F+3        0.00000   0.00000   0.00000  -0.00013   0.00000
  96       16F-3       -0.00012   0.00000   0.00000   0.00000   0.00000
  97 3   F  1S          0.00843   0.01076  -0.08493   0.00000  -0.48353
  98        2S          0.00018  -0.00044   0.00236   0.00000   0.00836
  99        3S          0.00045   0.00039  -0.00339   0.00000  -0.02055
 100        4S          0.00028  -0.00133   0.00375   0.00000   0.00177
 101        5S          0.00720  -0.00219   0.00123   0.00000  -0.00034
 102        6PX         0.00000   0.00000   0.00000   0.00095   0.00000
 103        6PY        -0.00019   0.00002  -0.00069   0.00000  -0.00170
 104        6PZ        -0.00059  -0.00013  -0.00018   0.00000  -0.00142
 105        7PX         0.00000   0.00000   0.00000   0.00118   0.00000
 106        7PY        -0.00030  -0.00007  -0.00039   0.00000  -0.00093
 107        7PZ        -0.00086  -0.00029   0.00017   0.00000  -0.00084
 108        8PX         0.00000   0.00000   0.00000   0.00127   0.00000
 109        8PY        -0.00055   0.00001  -0.00018   0.00000  -0.00114
 110        8PZ        -0.00273  -0.00027   0.00069   0.00000  -0.00138
 111        9PX         0.00000   0.00000   0.00000  -0.00001   0.00000
 112        9PY         0.00169  -0.00010  -0.00005   0.00000   0.00007
 113        9PZ         0.00020  -0.00110   0.00052   0.00000  -0.00069
 114       10D 0        0.00000   0.00001   0.00000   0.00000   0.00001
 115       10D+1        0.00000   0.00000   0.00000  -0.00001   0.00000
 116       10D-1        0.00001   0.00000   0.00002   0.00000   0.00002
 117       10D+2        0.00000   0.00001  -0.00002   0.00000   0.00002
 118       10D-2        0.00000   0.00000   0.00000  -0.00002   0.00000
 119       11D 0        0.00015   0.00001  -0.00006   0.00000  -0.00002
 120       11D+1        0.00000   0.00000   0.00000  -0.00003   0.00000
 121       11D-1       -0.00007   0.00004  -0.00013   0.00000  -0.00010
 122       11D+2        0.00004  -0.00002   0.00007   0.00000  -0.00001
 123       11D-2        0.00000   0.00000   0.00000   0.00005   0.00000
 124       12D 0       -0.00046   0.00020  -0.00030   0.00000  -0.00003
 125       12D+1        0.00000   0.00000   0.00000   0.00024   0.00000
 126       12D-1       -0.00084  -0.00006   0.00022   0.00000  -0.00052
 127       12D+2        0.00040  -0.00017   0.00033   0.00000   0.00021
 128       12D-2        0.00000   0.00000   0.00000   0.00004   0.00000
 129       13F 0       -0.00001  -0.00002   0.00004   0.00000  -0.00001
 130       13F+1        0.00000   0.00000   0.00000   0.00001   0.00000
 131       13F-1        0.00003   0.00001   0.00000   0.00000   0.00002
 132       13F+2       -0.00001  -0.00001   0.00001   0.00000  -0.00004
 133       13F-2        0.00000   0.00000   0.00000  -0.00002   0.00000
 134       13F+3        0.00000   0.00000   0.00000   0.00001   0.00000
 135       13F-3       -0.00001   0.00001  -0.00002   0.00000   0.00001
 136       14F 0        0.00013   0.00006  -0.00010   0.00000   0.00014
 137       14F+1        0.00000   0.00000   0.00000  -0.00003   0.00000
 138       14F-1       -0.00001   0.00003  -0.00014   0.00000  -0.00019
 139       14F+2        0.00007  -0.00001   0.00012   0.00000   0.00030
 140       14F-2        0.00000   0.00000   0.00000   0.00008   0.00000
 141       14F+3        0.00000   0.00000   0.00000  -0.00004   0.00000
 142       14F-3        0.00012  -0.00005   0.00015   0.00000   0.00000
 143 4   F  1S         -0.00802   0.01077  -0.08415   0.00000  -0.48905
 144        2S         -0.00020  -0.00043   0.00232   0.00000   0.00845
 145        3S         -0.00044   0.00040  -0.00336   0.00000  -0.02078
 146        4S         -0.00034  -0.00130   0.00372   0.00000   0.00180
 147        5S         -0.00717  -0.00206   0.00119   0.00000  -0.00034
 148        6PX         0.00000   0.00000   0.00000   0.00094   0.00000
 149        6PY        -0.00020  -0.00001   0.00068   0.00000   0.00169
 150        6PZ         0.00058  -0.00014  -0.00018   0.00000  -0.00143
 151        7PX         0.00000   0.00000   0.00000   0.00117   0.00000
 152        7PY        -0.00030   0.00007   0.00038   0.00000   0.00091
 153        7PZ         0.00085  -0.00031   0.00018   0.00000  -0.00085
 154        8PX         0.00000   0.00000   0.00000   0.00124   0.00000
 155        8PY        -0.00054  -0.00003   0.00021   0.00000   0.00107
 156        8PZ         0.00266  -0.00034   0.00078   0.00000  -0.00143
 157        9PX         0.00000   0.00000   0.00000  -0.00001   0.00000
 158        9PY         0.00168   0.00007   0.00005   0.00000  -0.00007
 159        9PZ        -0.00023  -0.00109   0.00052   0.00000  -0.00068
 160       10D 0        0.00000   0.00001   0.00000   0.00000   0.00001
 161       10D+1        0.00000   0.00000   0.00000  -0.00001   0.00000
 162       10D-1        0.00001   0.00000  -0.00002   0.00000  -0.00002
 163       10D+2        0.00000   0.00001  -0.00002   0.00000   0.00002
 164       10D-2        0.00000   0.00000   0.00000   0.00002   0.00000
 165       11D 0       -0.00014   0.00001  -0.00005   0.00000  -0.00003
 166       11D+1        0.00000   0.00000   0.00000  -0.00002   0.00000
 167       11D-1       -0.00007  -0.00004   0.00013   0.00000   0.00009
 168       11D+2       -0.00004  -0.00001   0.00006   0.00000  -0.00001
 169       11D-2        0.00000   0.00000   0.00000  -0.00005   0.00000
 170       12D 0        0.00046   0.00017  -0.00026   0.00000  -0.00006
 171       12D+1        0.00000   0.00000   0.00000   0.00024   0.00000
 172       12D-1       -0.00082   0.00007  -0.00023   0.00000   0.00051
 173       12D+2       -0.00040  -0.00017   0.00034   0.00000   0.00019
 174       12D-2        0.00000   0.00000   0.00000  -0.00003   0.00000
 175       13F 0        0.00001  -0.00002   0.00004   0.00000  -0.00001
 176       13F+1        0.00000   0.00000   0.00000   0.00001   0.00000
 177       13F-1        0.00002  -0.00001   0.00000   0.00000  -0.00002
 178       13F+2        0.00000  -0.00001   0.00001   0.00000  -0.00004
 179       13F-2        0.00000   0.00000   0.00000   0.00002   0.00000
 180       13F+3        0.00000   0.00000   0.00000   0.00001   0.00000
 181       13F-3       -0.00002  -0.00001   0.00002   0.00000  -0.00001
 182       14F 0       -0.00013   0.00006  -0.00010   0.00000   0.00013
 183       14F+1        0.00000   0.00000   0.00000  -0.00003   0.00000
 184       14F-1       -0.00001  -0.00003   0.00014   0.00000   0.00020
 185       14F+2       -0.00007  -0.00001   0.00012   0.00000   0.00030
 186       14F-2        0.00000   0.00000   0.00000  -0.00008   0.00000
 187       14F+3        0.00000   0.00000   0.00000  -0.00003   0.00000
 188       14F-3        0.00012   0.00005  -0.00015   0.00000   0.00000
                           6         7         8         9        10
     Eigenvalues --     2.00000   2.00000   2.00000   1.98610   1.98545
   1 1   C  1S          0.00589   0.58782   0.00016  -0.04771  -0.00060
   2        2S         -0.00007  -0.00560  -0.00003   0.09821   0.00136
   3        3S          0.00024   0.02381   0.00002   0.02041   0.00025
   4        4S         -0.00005  -0.00210  -0.00004   0.01097   0.00037
   5        5S          0.00000   0.00064  -0.00007   0.00485   0.00014
   6        6PX         0.00000   0.00000   0.00000   0.00000   0.00000
   7        6PY        -0.00002   0.00000   0.00000  -0.00108   0.03289
   8        6PZ        -0.00001  -0.00094   0.00001  -0.02059  -0.00034
   9        7PX         0.00000   0.00000   0.00000   0.00000   0.00000
  10        7PY         0.00068  -0.00006   0.00000  -0.00093   0.02695
  11        7PZ         0.00003   0.00020  -0.00013  -0.02468  -0.00056
  12        8PX         0.00000   0.00000   0.00000   0.00000   0.00000
  13        8PY        -0.00058  -0.00001   0.00000   0.00061  -0.01763
  14        8PZ         0.00004   0.00216   0.00003   0.03636   0.00079
  15        9PX         0.00000   0.00000   0.00000   0.00000   0.00000
  16        9PY         0.00033   0.00000   0.00000  -0.00002   0.00137
  17        9PZ         0.00000   0.00028  -0.00003   0.00130   0.00002
  18       10D 0        0.00000   0.00024  -0.00001   0.00313   0.00013
  19       10D+1        0.00000   0.00000   0.00000   0.00000   0.00000
  20       10D-1       -0.00019   0.00001   0.00000   0.00028  -0.01041
  21       10D+2        0.00000  -0.00050   0.00000  -0.00833  -0.00007
  22       10D-2        0.00000   0.00000   0.00000   0.00000   0.00000
  23       11D 0        0.00000  -0.00049  -0.00008   0.00252   0.00009
  24       11D+1        0.00000   0.00000   0.00000   0.00000   0.00000
  25       11D-1       -0.00121   0.00004   0.00000   0.00026  -0.01075
  26       11D+2        0.00001   0.00001  -0.00003  -0.01117  -0.00017
  27       11D-2        0.00000   0.00000   0.00000   0.00000   0.00000
  28       12D 0        0.00000  -0.00016  -0.00002   0.00667   0.00010
  29       12D+1        0.00000   0.00000   0.00000   0.00000   0.00000
  30       12D-1        0.00064   0.00000   0.00000  -0.00020   0.01325
  31       12D+2        0.00001   0.00026   0.00000   0.00834   0.00011
  32       12D-2        0.00000   0.00000   0.00000   0.00000   0.00000
  33       13F 0        0.00000   0.00061   0.00001   0.00270   0.00003
  34       13F+1        0.00000   0.00000   0.00000   0.00000   0.00000
  35       13F-1        0.00017   0.00000   0.00000   0.00000   0.00184
  36       13F+2        0.00000   0.00059   0.00001   0.00519   0.00010
  37       13F-2        0.00000   0.00000   0.00000   0.00000   0.00000
  38       13F+3        0.00000   0.00000   0.00000   0.00000   0.00000
  39       13F-3       -0.00021   0.00001   0.00000   0.00007  -0.00213
  40       14F 0       -0.00001   0.00053   0.00003   0.00414   0.00006
  41       14F+1        0.00000   0.00000   0.00000   0.00000   0.00000
  42       14F-1        0.00107  -0.00002   0.00000  -0.00001   0.00434
  43       14F+2       -0.00001  -0.00025   0.00001   0.00232   0.00004
  44       14F-2        0.00000   0.00000   0.00000   0.00000   0.00000
  45       14F+3        0.00000   0.00000   0.00000   0.00000   0.00000
  46       14F-3        0.00014  -0.00001   0.00000  -0.00001   0.00036
  47 2   S  1S          0.00072   0.04697   0.99640   0.00291   0.00004
  48        2S         -0.00250  -0.16452   0.01319  -0.01160  -0.00016
  49        3S          0.00002   0.00051   0.00031   0.02236   0.00029
  50        4S         -0.00018  -0.01226  -0.00003   0.00240   0.00002
  51        5S          0.00001   0.00123  -0.00005  -0.01813  -0.00040
  52        6S         -0.00001  -0.00092   0.00005  -0.01144  -0.00026
  53        7PX         0.00000   0.00000   0.00000   0.00000   0.00000
  54        7PY         0.01169  -0.00127   0.00000   0.00007  -0.00436
  55        7PZ         0.00460   0.33712   0.00171   0.00757   0.00013
  56        8PX         0.00000   0.00000   0.00000   0.00000   0.00000
  57        8PY        -0.00035   0.00001   0.00000  -0.00034   0.01611
  58        8PZ        -0.00004  -0.00291  -0.00018  -0.01282  -0.00030
  59        9PX         0.00000   0.00000   0.00000   0.00000   0.00000
  60        9PY         0.00073  -0.00008   0.00000  -0.00011   0.00666
  61        9PZ         0.00031   0.02253   0.00019  -0.00742  -0.00013
  62       10PX         0.00000   0.00000   0.00000   0.00000   0.00000
  63       10PY        -0.00048  -0.00001   0.00000  -0.00020   0.00418
  64       10PZ         0.00000  -0.00020   0.00003   0.00641   0.00008
  65       11PX         0.00000   0.00000   0.00000   0.00000   0.00000
  66       11PY        -0.00018   0.00000   0.00000   0.00001  -0.00053
  67       11PZ         0.00000   0.00007   0.00000   0.00187   0.00005
  68       12D 0        0.00001   0.00102   0.00008   0.00138   0.00008
  69       12D+1        0.00000   0.00000   0.00000   0.00000   0.00000
  70       12D-1        0.00013   0.00000   0.00000   0.00006   0.00013
  71       12D+2        0.00000   0.00010  -0.00001  -0.00019  -0.00001
  72       12D-2        0.00000   0.00000   0.00000   0.00000   0.00000
  73       13D 0       -0.00001  -0.00068   0.00001   0.00256   0.00004
  74       13D+1        0.00000   0.00000   0.00000   0.00000   0.00000
  75       13D-1        0.00000   0.00000   0.00000   0.00001  -0.00032
  76       13D+2        0.00000  -0.00005   0.00001  -0.00001   0.00001
  77       13D-2        0.00000   0.00000   0.00000   0.00000   0.00000
  78       14D 0        0.00000   0.00026  -0.00003  -0.00157  -0.00001
  79       14D+1        0.00000   0.00000   0.00000   0.00000   0.00000
  80       14D-1        0.00013   0.00000   0.00000   0.00001   0.00197
  81       14D+2        0.00000  -0.00008   0.00000  -0.00267  -0.00003
  82       14D-2        0.00000   0.00000   0.00000   0.00000   0.00000
  83       15F 0        0.00000   0.00035  -0.00002  -0.00045  -0.00002
  84       15F+1        0.00000   0.00000   0.00000   0.00000   0.00000
  85       15F-1        0.00000   0.00000   0.00000  -0.00001   0.00020
  86       15F+2        0.00000   0.00009   0.00000   0.00001   0.00000
  87       15F-2        0.00000   0.00000   0.00000   0.00000   0.00000
  88       15F+3        0.00000   0.00000   0.00000   0.00000   0.00000
  89       15F-3       -0.00001   0.00000   0.00000   0.00000   0.00000
  90       16F 0       -0.00001  -0.00051  -0.00001   0.00034  -0.00003
  91       16F+1        0.00000   0.00000   0.00000   0.00000   0.00000
  92       16F-1       -0.00002   0.00000   0.00000  -0.00001  -0.00018
  93       16F+2        0.00000  -0.00009   0.00000   0.00087   0.00002
  94       16F-2        0.00000   0.00000   0.00000   0.00000   0.00000
  95       16F+3        0.00000   0.00000   0.00000   0.00000   0.00000
  96       16F-3        0.00003   0.00000   0.00000  -0.00001   0.00023
  97 3   F  1S         -0.69037   0.49015   0.00015  -0.14950   0.14708
  98        2S          0.01115  -0.00694  -0.00001   0.38228  -0.37643
  99        3S         -0.02974   0.02146   0.00001   0.11652  -0.11539
 100        4S          0.00071   0.00120  -0.00003   0.23958  -0.24884
 101        5S         -0.00065   0.00029   0.00004   0.01904  -0.03110
 102        6PX         0.00000   0.00000   0.00000   0.00000   0.00000
 103        6PY        -0.00144   0.00045   0.00000  -0.00636   0.03760
 104        6PZ        -0.00110   0.00002   0.00000  -0.02220   0.00757
 105        7PX         0.00000   0.00000   0.00000   0.00000   0.00000
 106        7PY         0.00013  -0.00074  -0.00001  -0.00331   0.04116
 107        7PZ        -0.00013  -0.00097  -0.00001  -0.02420   0.00557
 108        8PX         0.00000   0.00000   0.00000   0.00000   0.00000
 109        8PY        -0.00068   0.00056   0.00000  -0.01407   0.03408
 110        8PZ        -0.00155  -0.00062  -0.00004  -0.02921   0.00396
 111        9PX         0.00000   0.00000   0.00000   0.00000   0.00000
 112        9PY        -0.00039   0.00008   0.00001  -0.00164  -0.00105
 113        9PZ        -0.00005  -0.00015   0.00001  -0.00062   0.00043
 114       10D 0        0.00000   0.00001   0.00000  -0.00013  -0.00014
 115       10D+1        0.00000   0.00000   0.00000   0.00000   0.00000
 116       10D-1       -0.00001   0.00005   0.00000   0.00065  -0.00040
 117       10D+2        0.00001  -0.00001   0.00000  -0.00065   0.00008
 118       10D-2        0.00000   0.00000   0.00000   0.00000   0.00000
 119       11D 0       -0.00007  -0.00007   0.00000  -0.00076  -0.00096
 120       11D+1        0.00000   0.00000   0.00000   0.00000   0.00000
 121       11D-1        0.00024  -0.00053  -0.00001   0.00367  -0.00377
 122       11D+2       -0.00017   0.00022   0.00000  -0.00340   0.00186
 123       11D-2        0.00000   0.00000   0.00000   0.00000   0.00000
 124       12D 0       -0.00031  -0.00011   0.00000  -0.00135  -0.00131
 125       12D+1        0.00000   0.00000   0.00000   0.00000   0.00000
 126       12D-1       -0.00039  -0.00029  -0.00002  -0.00525  -0.00008
 127       12D+2        0.00018  -0.00012  -0.00001   0.00189  -0.00125
 128       12D-2        0.00000   0.00000   0.00000   0.00000   0.00000
 129       13F 0        0.00000  -0.00002   0.00000  -0.00034   0.00011
 130       13F+1        0.00000   0.00000   0.00000   0.00000   0.00000
 131       13F-1        0.00001  -0.00001   0.00000   0.00015  -0.00028
 132       13F+2       -0.00001   0.00001   0.00000  -0.00054   0.00030
 133       13F-2        0.00000   0.00000   0.00000   0.00000   0.00000
 134       13F+3        0.00000   0.00000   0.00000   0.00000   0.00000
 135       13F-3       -0.00006   0.00002   0.00000  -0.00042   0.00002
 136       14F 0       -0.00004   0.00020   0.00001  -0.00036   0.00033
 137       14F+1        0.00000   0.00000   0.00000   0.00000   0.00000
 138       14F-1       -0.00003  -0.00020   0.00000  -0.00016  -0.00085
 139       14F+2        0.00000   0.00027   0.00000  -0.00077   0.00094
 140       14F-2        0.00000   0.00000   0.00000   0.00000   0.00000
 141       14F+3        0.00000   0.00000   0.00000   0.00000   0.00000
 142       14F-3        0.00013   0.00004   0.00000  -0.00047   0.00061
 143 4   F  1S          0.69376   0.47995   0.00015  -0.14349  -0.15294
 144        2S         -0.01120  -0.00679  -0.00001   0.36699   0.39147
 145        3S          0.02988   0.02101   0.00001   0.11188   0.12001
 146        4S         -0.00064   0.00130  -0.00003   0.22999   0.25852
 147        5S          0.00068   0.00035   0.00004   0.01788   0.03181
 148        6PX         0.00000   0.00000   0.00000   0.00000   0.00000
 149        6PY        -0.00141  -0.00043   0.00000   0.00492   0.03766
 150        6PZ         0.00109   0.00000   0.00000  -0.02189  -0.00895
 151        7PX         0.00000   0.00000   0.00000   0.00000   0.00000
 152        7PY         0.00015   0.00071   0.00001   0.00178   0.04111
 153        7PZ         0.00011  -0.00096  -0.00001  -0.02394  -0.00716
 154        8PX         0.00000   0.00000   0.00000   0.00000   0.00000
 155        8PY        -0.00068  -0.00064  -0.00001   0.01237   0.03432
 156        8PZ         0.00153  -0.00061  -0.00004  -0.02884  -0.00547
 157        9PX         0.00000   0.00000   0.00000   0.00000   0.00000
 158        9PY        -0.00040  -0.00009  -0.00001   0.00165  -0.00099
 159        9PZ         0.00005  -0.00014   0.00001  -0.00060  -0.00043
 160       10D 0        0.00000   0.00001   0.00000  -0.00013   0.00013
 161       10D+1        0.00000   0.00000   0.00000   0.00000   0.00000
 162       10D-1       -0.00001  -0.00005   0.00000  -0.00062  -0.00041
 163       10D+2       -0.00001  -0.00001   0.00000  -0.00063  -0.00009
 164       10D-2        0.00000   0.00000   0.00000   0.00000   0.00000
 165       11D 0        0.00007  -0.00008   0.00000  -0.00075   0.00095
 166       11D+1        0.00000   0.00000   0.00000   0.00000   0.00000
 167       11D-1        0.00024   0.00051   0.00001  -0.00349  -0.00385
 168       11D+2        0.00017   0.00020   0.00000  -0.00326  -0.00195
 169       11D-2        0.00000   0.00000   0.00000   0.00000   0.00000
 170       12D 0        0.00031  -0.00013  -0.00001  -0.00146   0.00123
 171       12D+1        0.00000   0.00000   0.00000   0.00000   0.00000
 172       12D-1       -0.00038   0.00027   0.00002   0.00517   0.00011
 173       12D+2       -0.00018  -0.00014  -0.00001   0.00175   0.00129
 174       12D-2        0.00000   0.00000   0.00000   0.00000   0.00000
 175       13F 0        0.00000  -0.00002   0.00000  -0.00032  -0.00012
 176       13F+1        0.00000   0.00000   0.00000   0.00000   0.00000
 177       13F-1        0.00001   0.00001   0.00000  -0.00014  -0.00028
 178       13F+2        0.00001   0.00001   0.00000  -0.00052  -0.00031
 179       13F-2        0.00000   0.00000   0.00000   0.00000   0.00000
 180       13F+3        0.00000   0.00000   0.00000   0.00000   0.00000
 181       13F-3       -0.00006  -0.00002   0.00000   0.00041   0.00003
 182       14F 0        0.00004   0.00019   0.00001  -0.00036  -0.00033
 183       14F+1        0.00000   0.00000   0.00000   0.00000   0.00000
 184       14F-1       -0.00003   0.00021   0.00000   0.00018  -0.00086
 185       14F+2        0.00000   0.00026   0.00000  -0.00073  -0.00097
 186       14F-2        0.00000   0.00000   0.00000   0.00000   0.00000
 187       14F+3        0.00000   0.00000   0.00000   0.00000   0.00000
 188       14F-3        0.00013  -0.00004   0.00000   0.00044   0.00062
                          11        12        13        14        15
     Eigenvalues --     1.97412   1.97115   1.97003   1.96727   1.96688
   1 1   C  1S         -0.05528  -0.10194   0.00079   0.00000   0.00000
   2        2S          0.14950   0.27502  -0.00213   0.00000   0.00000
   3        3S          0.03527   0.06766  -0.00050   0.00000   0.00000
   4        4S          0.01864   0.14378  -0.00101   0.00000   0.00000
   5        5S         -0.02039   0.04356  -0.00010   0.00000   0.00000
   6        6PX         0.00000   0.00000   0.00000   0.00465   0.10168
   7        6PY        -0.00063  -0.00081  -0.05113   0.00000   0.00000
   8        6PZ         0.09063   0.01071  -0.00025   0.00000   0.00000
   9        7PX         0.00000   0.00000   0.00000   0.00559   0.12469
  10        7PY        -0.00083  -0.00124  -0.07554   0.00000   0.00000
  11        7PZ         0.11630  -0.00239  -0.00020   0.00000   0.00000
  12        8PX         0.00000   0.00000   0.00000   0.00019   0.00524
  13        8PY         0.00020   0.00027   0.05614   0.00000   0.00000
  14        8PZ        -0.05357   0.03603  -0.00079   0.00000   0.00000
  15        9PX         0.00000   0.00000   0.00000   0.00002  -0.00086
  16        9PY         0.00000   0.00004  -0.00041   0.00000   0.00000
  17        9PZ        -0.00744   0.01371   0.00000   0.00000   0.00000
  18       10D 0       -0.00819   0.01911  -0.00019   0.00000   0.00000
  19       10D+1        0.00000   0.00000   0.00000  -0.00061  -0.01497
  20       10D-1       -0.00014   0.00013  -0.00901   0.00000   0.00000
  21       10D+2       -0.00978   0.00285  -0.00007   0.00000   0.00000
  22       10D-2        0.00000   0.00000   0.00000  -0.02003   0.00059
  23       11D 0       -0.01837   0.03225  -0.00019   0.00000   0.00000
  24       11D+1        0.00000   0.00000   0.00000  -0.00097  -0.02479
  25       11D-1       -0.00016   0.00040  -0.00637   0.00000   0.00000
  26       11D+2       -0.01794   0.00234  -0.00004   0.00000   0.00000
  27       11D-2        0.00000   0.00000   0.00000  -0.03228   0.00096
  28       12D 0       -0.00437  -0.00397  -0.00003   0.00000   0.00000
  29       12D+1        0.00000   0.00000   0.00000  -0.00010  -0.00220
  30       12D-1        0.00035  -0.00009   0.01076   0.00000   0.00000
  31       12D+2        0.00058  -0.00018  -0.00004   0.00000   0.00000
  32       12D-2        0.00000   0.00000   0.00000   0.00868  -0.00027
  33       13F 0        0.00840   0.00168  -0.00011   0.00000   0.00000
  34       13F+1        0.00000   0.00000   0.00000   0.00013   0.00418
  35       13F-1        0.00008   0.00001   0.00925   0.00000   0.00000
  36       13F+2        0.00161   0.00276  -0.00009   0.00000   0.00000
  37       13F-2        0.00000   0.00000   0.00000   0.00875  -0.00033
  38       13F+3        0.00000   0.00000   0.00000  -0.00036  -0.00775
  39       13F-3        0.00004   0.00004   0.00517   0.00000   0.00000
  40       14F 0        0.00668   0.00121  -0.00013   0.00000   0.00000
  41       14F+1        0.00000   0.00000   0.00000  -0.00011  -0.00146
  42       14F-1        0.00025  -0.00010   0.01887   0.00000   0.00000
  43       14F+2        0.00690   0.00234  -0.00008   0.00000   0.00000
  44       14F-2        0.00000   0.00000   0.00000   0.00931  -0.00025
  45       14F+3        0.00000   0.00000   0.00000  -0.00010  -0.00053
  46       14F-3        0.00005  -0.00005  -0.00001   0.00000   0.00000
  47 2   S  1S          0.03173   0.04409  -0.00051   0.00000   0.00000
  48        2S         -0.12371  -0.16914   0.00202   0.00000   0.00000
  49        3S          0.24967   0.35661  -0.00409   0.00000   0.00000
  50        4S          0.03190   0.04516  -0.00051   0.00000   0.00000
  51        5S          0.17406   0.15718  -0.00198   0.00000   0.00000
  52        6S          0.02768  -0.05493   0.00006   0.00000   0.00000
  53        7PX         0.00000   0.00000   0.00000   0.00044   0.01258
  54        7PY         0.00001   0.00007   0.00311   0.00000   0.00000
  55        7PZ         0.02892   0.03501  -0.00032   0.00000   0.00000
  56        8PX         0.00000   0.00000   0.00000  -0.00108  -0.03152
  57        8PY        -0.00015  -0.00026  -0.01908   0.00000   0.00000
  58        8PZ        -0.03343  -0.04139   0.00033   0.00000   0.00000
  59        9PX         0.00000   0.00000   0.00000  -0.00051  -0.01421
  60        9PY        -0.00002  -0.00009  -0.00138   0.00000   0.00000
  61        9PZ        -0.01837  -0.02396   0.00018   0.00000   0.00000
  62       10PX         0.00000   0.00000   0.00000  -0.00105  -0.02734
  63       10PY        -0.00021  -0.00024  -0.02301   0.00000   0.00000
  64       10PZ        -0.01499   0.03248  -0.00004   0.00000   0.00000
  65       11PX         0.00000   0.00000   0.00000  -0.00019  -0.00407
  66       11PY         0.00003  -0.00001   0.00443   0.00000   0.00000
  67       11PZ        -0.00073   0.00951  -0.00003   0.00000   0.00000
  68       12D 0        0.00564   0.00940  -0.00016   0.00000   0.00000
  69       12D+1        0.00000   0.00000   0.00000  -0.00038  -0.00819
  70       12D-1        0.00013   0.00012   0.01985   0.00000   0.00000
  71       12D+2       -0.00241   0.00191   0.00001   0.00000   0.00000
  72       12D-2        0.00000   0.00000   0.00000  -0.00415   0.00014
  73       13D 0        0.01655   0.01846  -0.00016   0.00000   0.00000
  74       13D+1        0.00000   0.00000   0.00000  -0.00023  -0.00464
  75       13D-1        0.00009   0.00003   0.00783   0.00000   0.00000
  76       13D+2       -0.00081   0.00160  -0.00003   0.00000   0.00000
  77       13D-2        0.00000   0.00000   0.00000  -0.00127   0.00004
  78       14D 0       -0.00187  -0.01048   0.00001   0.00000   0.00000
  79       14D+1        0.00000   0.00000   0.00000  -0.00009  -0.00273
  80       14D-1        0.00010   0.00010   0.01329   0.00000   0.00000
  81       14D+2       -0.00077  -0.00063   0.00004   0.00000   0.00000
  82       14D-2        0.00000   0.00000   0.00000  -0.00471   0.00016
  83       15F 0       -0.00516  -0.00702   0.00006   0.00000   0.00000
  84       15F+1        0.00000   0.00000   0.00000   0.00010   0.00180
  85       15F-1       -0.00004  -0.00003  -0.00509   0.00000   0.00000
  86       15F+2        0.00073  -0.00061   0.00000   0.00000   0.00000
  87       15F-2        0.00000   0.00000   0.00000   0.00135  -0.00005
  88       15F+3        0.00000   0.00000   0.00000  -0.00002  -0.00035
  89       15F-3        0.00000   0.00000   0.00027   0.00000   0.00000
  90       16F 0        0.00675   0.00100   0.00000   0.00000   0.00000
  91       16F+1        0.00000   0.00000   0.00000   0.00005   0.00203
  92       16F-1        0.00003  -0.00004  -0.00192   0.00000   0.00000
  93       16F+2       -0.00038  -0.00053  -0.00004   0.00000   0.00000
  94       16F-2        0.00000   0.00000   0.00000   0.00329  -0.00012
  95       16F+3        0.00000   0.00000   0.00000   0.00003   0.00030
  96       16F-3       -0.00001   0.00000  -0.00035   0.00000   0.00000
  97 3   F  1S          0.00002   0.02751   0.01553   0.00000   0.00000
  98        2S         -0.00169  -0.07752  -0.04056   0.00000   0.00000
  99        3S         -0.00025  -0.02631  -0.01357   0.00000   0.00000
 100        4S         -0.01485  -0.10141  -0.03869   0.00000   0.00000
 101        5S         -0.01584  -0.01902   0.00708   0.00000   0.00000
 102        6PX         0.00000   0.00000   0.00000   0.28524   0.24094
 103        6PY        -0.10989   0.15466  -0.15503   0.00000   0.00000
 104        6PZ         0.18145  -0.06545   0.22999   0.00000   0.00000
 105        7PX         0.00000   0.00000   0.00000   0.34726   0.29397
 106        7PY        -0.13415   0.18536  -0.18826   0.00000   0.00000
 107        7PZ         0.21856  -0.08091   0.27780   0.00000   0.00000
 108        8PX         0.00000   0.00000   0.00000   0.24275   0.20242
 109        8PY        -0.09098   0.10149  -0.14912   0.00000   0.00000
 110        8PZ         0.14829  -0.07547   0.18783   0.00000   0.00000
 111        9PX         0.00000   0.00000   0.00000   0.02790   0.01615
 112        9PY        -0.01257   0.00552  -0.01250   0.00000   0.00000
 113        9PZ         0.01066  -0.01439   0.02329   0.00000   0.00000
 114       10D 0        0.00242  -0.00121   0.00230   0.00000   0.00000
 115       10D+1        0.00000   0.00000   0.00000   0.00181   0.00179
 116       10D-1        0.00144   0.00159   0.00116   0.00000   0.00000
 117       10D+2        0.00133  -0.00236   0.00076   0.00000   0.00000
 118       10D-2        0.00000   0.00000   0.00000   0.00224   0.00291
 119       11D 0        0.00858  -0.00503   0.00858   0.00000   0.00000
 120       11D+1        0.00000   0.00000   0.00000   0.00746   0.00757
 121       11D-1        0.00384   0.00348   0.00411   0.00000   0.00000
 122       11D+2        0.00497  -0.00735   0.00351   0.00000   0.00000
 123       11D-2        0.00000   0.00000   0.00000   0.01004   0.01181
 124       12D 0        0.00558  -0.00304   0.00745   0.00000   0.00000
 125       12D+1        0.00000   0.00000   0.00000   0.00487   0.00414
 126       12D-1        0.00336  -0.00283  -0.00178   0.00000   0.00000
 127       12D+2       -0.00018  -0.00005   0.00901   0.00000   0.00000
 128       12D-2        0.00000   0.00000   0.00000   0.00601   0.00767
 129       13F 0        0.00040  -0.00080   0.00061   0.00000   0.00000
 130       13F+1        0.00000   0.00000   0.00000   0.00029   0.00028
 131       13F-1        0.00169  -0.00043   0.00172   0.00000   0.00000
 132       13F+2        0.00000  -0.00100   0.00000   0.00000   0.00000
 133       13F-2        0.00000   0.00000   0.00000   0.00156   0.00160
 134       13F+3        0.00000   0.00000   0.00000  -0.00091  -0.00148
 135       13F-3        0.00075  -0.00087   0.00032   0.00000   0.00000
 136       14F 0        0.00191  -0.00112   0.00070   0.00000   0.00000
 137       14F+1        0.00000   0.00000   0.00000   0.00071   0.00030
 138       14F-1        0.00223  -0.00153   0.00296   0.00000   0.00000
 139       14F+2        0.00030  -0.00091  -0.00020   0.00000   0.00000
 140       14F-2        0.00000   0.00000   0.00000   0.00280   0.00285
 141       14F+3        0.00000   0.00000   0.00000  -0.00264  -0.00200
 142       14F-3        0.00041  -0.00124   0.00154   0.00000   0.00000
 143 4   F  1S         -0.00038   0.02729  -0.01595   0.00000   0.00000
 144        2S         -0.00056  -0.07677   0.04165   0.00000   0.00000
 145        3S          0.00013  -0.02603   0.01392   0.00000   0.00000
 146        4S         -0.01353  -0.09923   0.03968   0.00000   0.00000
 147        5S         -0.01517  -0.01880  -0.00702   0.00000   0.00000
 148        6PX         0.00000   0.00000   0.00000  -0.26621   0.26214
 149        6PY         0.11045  -0.15509  -0.15657   0.00000   0.00000
 150        6PZ         0.17816  -0.06814  -0.22905   0.00000   0.00000
 151        7PX         0.00000   0.00000   0.00000  -0.32394   0.31969
 152        7PY         0.13475  -0.18595  -0.19010   0.00000   0.00000
 153        7PZ         0.21456  -0.08409  -0.27659   0.00000   0.00000
 154        8PX         0.00000   0.00000   0.00000  -0.22729   0.22120
 155        8PY         0.09136  -0.10338  -0.15072   0.00000   0.00000
 156        8PZ         0.14614  -0.07769  -0.18702   0.00000   0.00000
 157        9PX         0.00000   0.00000   0.00000  -0.02684   0.01843
 158        9PY         0.01249  -0.00581  -0.01278   0.00000   0.00000
 159        9PZ         0.01048  -0.01458  -0.02330   0.00000   0.00000
 160       10D 0        0.00238  -0.00121  -0.00229   0.00000   0.00000
 161       10D+1        0.00000   0.00000   0.00000  -0.00166   0.00191
 162       10D-1       -0.00136  -0.00155   0.00113   0.00000   0.00000
 163       10D+2        0.00132  -0.00231  -0.00075   0.00000   0.00000
 164       10D-2        0.00000   0.00000   0.00000   0.00196  -0.00302
 165       11D 0        0.00841  -0.00508  -0.00853   0.00000   0.00000
 166       11D+1        0.00000   0.00000   0.00000  -0.00682   0.00811
 167       11D-1       -0.00358  -0.00340   0.00396   0.00000   0.00000
 168       11D+2        0.00495  -0.00724  -0.00348   0.00000   0.00000
 169       11D-2        0.00000   0.00000   0.00000   0.00895  -0.01236
 170       12D 0        0.00562  -0.00335  -0.00744   0.00000   0.00000
 171       12D+1        0.00000   0.00000   0.00000  -0.00465   0.00467
 172       12D-1       -0.00338   0.00275  -0.00195   0.00000   0.00000
 173       12D+2       -0.00018  -0.00035  -0.00907   0.00000   0.00000
 174       12D-2        0.00000   0.00000   0.00000   0.00550  -0.00827
 175       13F 0        0.00041  -0.00079  -0.00063   0.00000   0.00000
 176       13F+1        0.00000   0.00000   0.00000  -0.00028   0.00031
 177       13F-1       -0.00164   0.00043   0.00169   0.00000   0.00000
 178       13F+2        0.00003  -0.00098  -0.00001   0.00000   0.00000
 179       13F-2        0.00000   0.00000   0.00000   0.00141  -0.00169
 180       13F+3        0.00000   0.00000   0.00000   0.00077  -0.00150
 181       13F-3       -0.00074   0.00085   0.00030   0.00000   0.00000
 182       14F 0        0.00193  -0.00116  -0.00076   0.00000   0.00000
 183       14F+1        0.00000   0.00000   0.00000  -0.00072   0.00039
 184       14F-1       -0.00215   0.00158   0.00293   0.00000   0.00000
 185       14F+2        0.00033  -0.00091   0.00014   0.00000   0.00000
 186       14F-2        0.00000   0.00000   0.00000   0.00260  -0.00309
 187       14F+3        0.00000   0.00000   0.00000   0.00248  -0.00219
 188       14F-3       -0.00040   0.00125   0.00155   0.00000   0.00000
                          16        17        18        19        20
     Eigenvalues --     1.96277   1.95879   1.94244   1.93927   1.91694
   1 1   C  1S         -0.08249  -0.00357   0.07746  -0.00102   0.00000
   2        2S          0.21632   0.00976  -0.23056   0.00301   0.00000
   3        3S          0.05635   0.00239  -0.05934   0.00081   0.00000
   4        4S          0.09698   0.00523  -0.16588   0.00222   0.00000
   5        5S         -0.02004  -0.00068  -0.02283   0.00069   0.00000
   6        6PX         0.00000   0.00000   0.00000   0.00000   0.18219
   7        6PY        -0.00762   0.19188   0.00005   0.03427   0.00000
   8        6PZ        -0.13653  -0.00462  -0.18033   0.00185   0.00000
   9        7PX         0.00000   0.00000   0.00000   0.00000   0.25515
  10        7PY        -0.00904   0.23391   0.00029   0.04888   0.00000
  11        7PZ        -0.17105  -0.00625  -0.22293   0.00243   0.00000
  12        8PX         0.00000   0.00000   0.00000   0.00000   0.13702
  13        8PY        -0.00205   0.05719   0.00047   0.04939   0.00000
  14        8PZ        -0.01429  -0.00063  -0.06804   0.00105   0.00000
  15        9PX         0.00000   0.00000   0.00000   0.00000   0.02098
  16        9PY         0.00003  -0.00001  -0.00004  -0.00353   0.00000
  17        9PZ        -0.00548  -0.00021  -0.00556   0.00011   0.00000
  18       10D 0       -0.00703  -0.00009  -0.00999   0.00001   0.00000
  19       10D+1        0.00000   0.00000   0.00000   0.00000   0.01558
  20       10D-1        0.00101  -0.02640   0.00017   0.02087   0.00000
  21       10D+2       -0.01472  -0.00043  -0.00767   0.00003   0.00000
  22       10D-2        0.00000   0.00000   0.00000   0.00000   0.00005
  23       11D 0       -0.01825  -0.00041  -0.01777  -0.00005   0.00000
  24       11D+1        0.00000   0.00000   0.00000   0.00000   0.04759
  25       11D-1        0.00189  -0.05782   0.00016   0.05125   0.00000
  26       11D+2       -0.03559  -0.00121  -0.01926   0.00009   0.00000
  27       11D-2        0.00000   0.00000   0.00000   0.00000   0.00019
  28       12D 0        0.00264   0.00020  -0.00607   0.00021   0.00000
  29       12D+1        0.00000   0.00000   0.00000   0.00000   0.01863
  30       12D-1        0.00014  -0.00410  -0.00028  -0.02358   0.00000
  31       12D+2        0.00437   0.00020  -0.00245   0.00000   0.00000
  32       12D-2        0.00000   0.00000   0.00000   0.00000   0.00001
  33       13F 0        0.00207   0.00005  -0.00397   0.00005   0.00000
  34       13F+1        0.00000   0.00000   0.00000   0.00000   0.00671
  35       13F-1       -0.00025   0.00781   0.00012   0.00699   0.00000
  36       13F+2        0.00539   0.00019   0.00174  -0.00002   0.00000
  37       13F-2        0.00000   0.00000   0.00000   0.00000  -0.00003
  38       13F+3        0.00000   0.00000   0.00000   0.00000   0.00042
  39       13F-3        0.00011  -0.00256   0.00003   0.00203   0.00000
  40       14F 0        0.01007   0.00038   0.00132   0.00005   0.00000
  41       14F+1        0.00000   0.00000   0.00000   0.00000   0.00048
  42       14F-1       -0.00032   0.01880   0.00044  -0.00030   0.00000
  43       14F+2        0.01092   0.00050   0.00046   0.00002   0.00000
  44       14F-2        0.00000   0.00000   0.00000   0.00000  -0.00006
  45       14F+3        0.00000   0.00000   0.00000   0.00000   0.00394
  46       14F-3        0.00017  -0.00215   0.00012   0.00044   0.00000
  47 2   S  1S         -0.03613  -0.00121   0.02962  -0.00033   0.00000
  48        2S          0.13776   0.00461  -0.11367   0.00128   0.00000
  49        3S         -0.29836  -0.01014   0.26156  -0.00294   0.00000
  50        4S         -0.04114  -0.00147   0.03774  -0.00042   0.00000
  51        5S         -0.18744  -0.00682   0.32676  -0.00416   0.00000
  52        6S          0.01540   0.00045   0.05478  -0.00103   0.00000
  53        7PX         0.00000   0.00000   0.00000   0.00000  -0.18864
  54        7PY         0.00041  -0.01452  -0.00239  -0.21580   0.00000
  55        7PZ        -0.00910   0.00017  -0.17377   0.00167   0.00000
  56        8PX         0.00000   0.00000   0.00000   0.00000   0.43249
  57        8PY        -0.00087   0.02945   0.00568   0.52203   0.00000
  58        8PZ         0.00525  -0.00081   0.35946  -0.00323   0.00000
  59        9PX         0.00000   0.00000   0.00000   0.00000   0.17756
  60        9PY        -0.00042   0.01488   0.00249   0.21967   0.00000
  61        9PZ         0.00455  -0.00024   0.16456  -0.00152   0.00000
  62       10PX         0.00000   0.00000   0.00000   0.00000   0.23756
  63       10PY         0.00005   0.00479   0.00415   0.36903   0.00000
  64       10PZ         0.00187  -0.00015   0.09553  -0.00034   0.00000
  65       11PX         0.00000   0.00000   0.00000   0.00000   0.00049
  66       11PY        -0.00001   0.00057   0.00035   0.02688   0.00000
  67       11PZ        -0.00296  -0.00007  -0.00452   0.00015   0.00000
  68       12D 0       -0.00032   0.00020  -0.02721   0.00032   0.00000
  69       12D+1        0.00000   0.00000   0.00000   0.00000  -0.03394
  70       12D-1        0.00020  -0.00539   0.00001  -0.01322   0.00000
  71       12D+2       -0.00155  -0.00011  -0.00084   0.00004   0.00000
  72       12D-2        0.00000   0.00000   0.00000   0.00000   0.00000
  73       13D 0       -0.00615  -0.00003  -0.04841   0.00054   0.00000
  74       13D+1        0.00000   0.00000   0.00000   0.00000  -0.03417
  75       13D-1        0.00033  -0.00882  -0.00010  -0.01495   0.00000
  76       13D+2       -0.00097  -0.00003  -0.00094   0.00001   0.00000
  77       13D-2        0.00000   0.00000   0.00000   0.00000   0.00000
  78       14D 0        0.00136   0.00005   0.00519  -0.00004   0.00000
  79       14D+1        0.00000   0.00000   0.00000   0.00000  -0.00467
  80       14D-1       -0.00012   0.00175  -0.00018  -0.01768   0.00000
  81       14D+2       -0.00084  -0.00005  -0.00193   0.00006   0.00000
  82       14D-2        0.00000   0.00000   0.00000   0.00000  -0.00002
  83       15F 0        0.00388   0.00006   0.01569  -0.00015   0.00000
  84       15F+1        0.00000   0.00000   0.00000   0.00000   0.01207
  85       15F-1       -0.00011   0.00320   0.00005   0.00820   0.00000
  86       15F+2        0.00020   0.00001   0.00215  -0.00001   0.00000
  87       15F-2        0.00000   0.00000   0.00000   0.00000  -0.00001
  88       15F+3        0.00000   0.00000   0.00000   0.00000   0.00241
  89       15F-3        0.00000   0.00010   0.00003   0.00263   0.00000
  90       16F 0       -0.00185  -0.00007  -0.00538   0.00006   0.00000
  91       16F+1        0.00000   0.00000   0.00000   0.00000  -0.00064
  92       16F-1        0.00004  -0.00055   0.00001   0.00223   0.00000
  93       16F+2        0.00073   0.00007   0.00081  -0.00001   0.00000
  94       16F-2        0.00000   0.00000   0.00000   0.00000  -0.00002
  95       16F+3        0.00000   0.00000   0.00000   0.00000   0.00187
  96       16F-3       -0.00005   0.00141   0.00003   0.00237   0.00000
  97 3   F  1S          0.00631   0.00904  -0.01351  -0.01557   0.00000
  98        2S         -0.02515  -0.01485   0.03750   0.04244   0.00000
  99        3S         -0.01190  -0.00055   0.01085   0.01334   0.00000
 100        4S         -0.10248   0.07496   0.02067   0.03659   0.00000
 101        5S         -0.02274   0.03519  -0.00501   0.05507   0.00000
 102        6PX         0.00000   0.00000   0.00000   0.00000  -0.05370
 103        6PY         0.12611  -0.21268   0.02782   0.01976   0.00000
 104        6PZ         0.16697  -0.10045   0.06430   0.05199   0.00000
 105        7PX         0.00000   0.00000   0.00000   0.00000  -0.06497
 106        7PY         0.15250  -0.25808   0.03550   0.02618   0.00000
 107        7PZ         0.20206  -0.12241   0.07981   0.06442   0.00000
 108        8PX         0.00000   0.00000   0.00000   0.00000  -0.06090
 109        8PY         0.06492  -0.13975   0.01576   0.00884   0.00000
 110        8PZ         0.10883  -0.06183   0.05343   0.05222   0.00000
 111        9PX         0.00000   0.00000   0.00000   0.00000  -0.02565
 112        9PY        -0.00434  -0.00878   0.00014   0.01491   0.00000
 113        9PZ         0.00805   0.00471   0.01094   0.01784   0.00000
 114       10D 0        0.00000  -0.00038  -0.00067  -0.00038   0.00000
 115       10D+1        0.00000   0.00000   0.00000   0.00000   0.00108
 116       10D-1        0.00441  -0.00467   0.00051   0.00043   0.00000
 117       10D+2       -0.00296   0.00279  -0.00098  -0.00021   0.00000
 118       10D-2        0.00000   0.00000   0.00000   0.00000   0.00112
 119       11D 0       -0.00018  -0.00218  -0.00223  -0.00225   0.00000
 120       11D+1        0.00000   0.00000   0.00000   0.00000   0.00387
 121       11D-1        0.01477  -0.01605   0.00309   0.00203   0.00000
 122       11D+2       -0.00967   0.00913  -0.00355  -0.00202   0.00000
 123       11D-2        0.00000   0.00000   0.00000   0.00000   0.00305
 124       12D 0       -0.00161  -0.00500  -0.00349  -0.00043   0.00000
 125       12D+1        0.00000   0.00000   0.00000   0.00000   0.00213
 126       12D-1        0.00009  -0.00374  -0.00251  -0.00167   0.00000
 127       12D+2       -0.00188   0.00095  -0.00013   0.00225   0.00000
 128       12D-2        0.00000   0.00000   0.00000   0.00000   0.00381
 129       13F 0       -0.00117   0.00114  -0.00036  -0.00027   0.00000
 130       13F+1        0.00000   0.00000   0.00000   0.00000   0.00024
 131       13F-1        0.00111  -0.00115  -0.00007   0.00010   0.00000
 132       13F+2       -0.00202   0.00217  -0.00049  -0.00028   0.00000
 133       13F-2        0.00000   0.00000   0.00000   0.00000   0.00054
 134       13F+3        0.00000   0.00000   0.00000   0.00000  -0.00036
 135       13F-3       -0.00111   0.00090  -0.00056  -0.00009   0.00000
 136       14F 0       -0.00162   0.00115  -0.00135  -0.00091   0.00000
 137       14F+1        0.00000   0.00000   0.00000   0.00000   0.00051
 138       14F-1        0.00105  -0.00311   0.00000  -0.00066   0.00000
 139       14F+2       -0.00324   0.00328  -0.00136  -0.00030   0.00000
 140       14F-2        0.00000   0.00000   0.00000   0.00000   0.00056
 141       14F+3        0.00000   0.00000   0.00000   0.00000  -0.00019
 142       14F-3       -0.00161   0.00173  -0.00025  -0.00054   0.00000
 143 4   F  1S          0.00700  -0.00832  -0.01319   0.01581   0.00000
 144        2S         -0.02621   0.01232   0.03649  -0.04308   0.00000
 145        3S         -0.01189  -0.00052   0.01052  -0.01349   0.00000
 146        4S         -0.09571  -0.08226   0.01937  -0.03693   0.00000
 147        5S         -0.01986  -0.03683  -0.00621  -0.05455   0.00000
 148        6PX         0.00000   0.00000   0.00000   0.00000  -0.05286
 149        6PY        -0.10789  -0.22112  -0.02824   0.02058   0.00000
 150        6PZ         0.16019   0.11410   0.06367  -0.05372   0.00000
 151        7PX         0.00000   0.00000   0.00000   0.00000  -0.06391
 152        7PY        -0.13041  -0.26828  -0.03592   0.02722   0.00000
 153        7PZ         0.19381   0.13891   0.07899  -0.06657   0.00000
 154        8PX         0.00000   0.00000   0.00000   0.00000  -0.06001
 155        8PY        -0.05310  -0.14463  -0.01585   0.00941   0.00000
 156        8PZ         0.10549   0.07106   0.05311  -0.05371   0.00000
 157        9PX         0.00000   0.00000   0.00000   0.00000  -0.02533
 158        9PY         0.00488  -0.00846   0.00004   0.01484   0.00000
 159        9PZ         0.00843  -0.00397   0.01045  -0.01808   0.00000
 160       10D 0        0.00003   0.00043  -0.00065   0.00038   0.00000
 161       10D+1        0.00000   0.00000   0.00000   0.00000   0.00107
 162       10D-1       -0.00402  -0.00496  -0.00052   0.00044   0.00000
 163       10D+2       -0.00267  -0.00294  -0.00096   0.00023   0.00000
 164       10D-2        0.00000   0.00000   0.00000   0.00000  -0.00109
 165       11D 0       -0.00011   0.00232  -0.00206   0.00222   0.00000
 166       11D+1        0.00000   0.00000   0.00000   0.00000   0.00384
 167       11D-1       -0.01349  -0.01703  -0.00314   0.00215   0.00000
 168       11D+2       -0.00876  -0.00966  -0.00348   0.00209   0.00000
 169       11D-2        0.00000   0.00000   0.00000   0.00000  -0.00299
 170       12D 0       -0.00174   0.00489  -0.00320   0.00042   0.00000
 171       12D+1        0.00000   0.00000   0.00000   0.00000   0.00211
 172       12D-1        0.00002  -0.00377   0.00236  -0.00175   0.00000
 173       12D+2       -0.00171  -0.00118  -0.00005  -0.00230   0.00000
 174       12D-2        0.00000   0.00000   0.00000   0.00000  -0.00372
 175       13F 0       -0.00105  -0.00121  -0.00036   0.00028   0.00000
 176       13F+1        0.00000   0.00000   0.00000   0.00000   0.00024
 177       13F-1       -0.00106  -0.00126   0.00004   0.00011   0.00000
 178       13F+2       -0.00183  -0.00231  -0.00050   0.00030   0.00000
 179       13F-2        0.00000   0.00000   0.00000   0.00000  -0.00053
 180       13F+3        0.00000   0.00000   0.00000   0.00000  -0.00036
 181       13F-3        0.00100   0.00096   0.00055  -0.00011   0.00000
 182       14F 0       -0.00150  -0.00119  -0.00131   0.00094   0.00000
 183       14F+1        0.00000   0.00000   0.00000   0.00000   0.00050
 184       14F-1       -0.00091  -0.00324  -0.00009  -0.00063   0.00000
 185       14F+2       -0.00298  -0.00349  -0.00135   0.00034   0.00000
 186       14F-2        0.00000   0.00000   0.00000   0.00000  -0.00054
 187       14F+3        0.00000   0.00000   0.00000   0.00000  -0.00018
 188       14F-3        0.00146   0.00182   0.00024  -0.00052   0.00000
                          21        22        23        24        25
     Eigenvalues --     0.07418   0.04136   0.03953   0.03219   0.01915
   1 1   C  1S          0.00000   0.17587   0.01803  -0.03305   0.03166
   2        2S          0.00000  -0.59814  -0.06288   0.08780  -0.09155
   3        3S          0.00000  -0.21226  -0.02295  -0.01260  -0.03943
   4        4S          0.00000  -0.63726  -0.06915  -0.05430   0.08920
   5        5S          0.00000  -0.12047  -0.01360  -0.03168   0.10035
   6        6PX         0.31826   0.00000   0.00000   0.00000   0.00000
   7        6PY         0.00000  -0.03237   0.30325  -0.00512   0.00006
   8        6PZ         0.00000  -0.04137  -0.01097  -0.37235   0.05501
   9        7PX         0.44554   0.00000   0.00000   0.00000   0.00000
  10        7PY         0.00000  -0.06039   0.58131  -0.01121   0.00099
  11        7PZ         0.00000  -0.03935  -0.01467  -0.66872   0.05879
  12        8PX         0.15473   0.00000   0.00000   0.00000   0.00000
  13        8PY         0.00000  -0.01104   0.10853  -0.00183  -0.00023
  14        8PZ         0.00000  -0.21133  -0.02656  -0.27795   0.30532
  15        9PX         0.00782   0.00000   0.00000   0.00000   0.00000
  16        9PY         0.00000  -0.00153   0.01530  -0.00025   0.00010
  17        9PZ         0.00000  -0.00748  -0.00087   0.00468   0.03422
  18       10D 0        0.00000  -0.00097  -0.00048  -0.00968   0.05738
  19       10D+1        0.01622   0.00000   0.00000   0.00000   0.00000
  20       10D-1        0.00000  -0.00298   0.02975  -0.00075   0.00075
  21       10D+2        0.00000  -0.00919  -0.00108  -0.00363   0.04695
  22       10D-2        0.00008   0.00000   0.00000   0.00000   0.00000
  23       11D 0        0.00000  -0.04274  -0.00574  -0.07351   0.15539
  24       11D+1        0.07189   0.00000   0.00000   0.00000   0.00000
  25       11D-1        0.00000   0.00713  -0.06177   0.00083   0.00192
  26       11D+2        0.00000   0.02899   0.00216  -0.06568   0.14274
  27       11D-2        0.00015   0.00000   0.00000   0.00000   0.00000
  28       12D 0        0.00000  -0.05302  -0.00595  -0.02394   0.01489
  29       12D+1        0.02792   0.00000   0.00000   0.00000   0.00000
  30       12D-1        0.00000   0.00312  -0.02987   0.00031  -0.00072
  31       12D+2        0.00000   0.00687   0.00052  -0.01995   0.02321
  32       12D-2        0.00003   0.00000   0.00000   0.00000   0.00000
  33       13F 0        0.00000  -0.00745  -0.00108  -0.01386  -0.00185
  34       13F+1        0.01183   0.00000   0.00000   0.00000   0.00000
  35       13F-1        0.00000  -0.00352   0.03308  -0.00057   0.00008
  36       13F+2        0.00000  -0.02218  -0.00210   0.02092   0.01223
  37       13F-2        0.00005   0.00000   0.00000   0.00000   0.00000
  38       13F+3       -0.00125   0.00000   0.00000   0.00000   0.00000
  39       13F-3        0.00000   0.00111  -0.01149   0.00023  -0.00004
  40       14F 0        0.00000  -0.02536  -0.00328   0.00848  -0.02524
  41       14F+1        0.02842   0.00000   0.00000   0.00000   0.00000
  42       14F-1        0.00000  -0.01329   0.11640  -0.00141  -0.00339
  43       14F+2        0.00000  -0.01567  -0.00155   0.04110  -0.02703
  44       14F-2        0.00009   0.00000   0.00000   0.00000   0.00000
  45       14F+3        0.00934   0.00000   0.00000   0.00000   0.00000
  46       14F-3        0.00000  -0.00327   0.02800  -0.00039  -0.00083
  47 2   S  1S          0.00000   0.02041   0.00236   0.01298   0.01054
  48        2S          0.00000  -0.05541  -0.00626  -0.02942  -0.05231
  49        3S          0.00000   0.21401   0.02503   0.14440   0.09164
  50        4S          0.00000   0.00905   0.00078  -0.02691   0.08172
  51        5S          0.00000   0.50783   0.06187   0.53074  -0.38787
  52        6S          0.00000   0.15259   0.01865   0.13148  -0.18228
  53        7PX         0.18338   0.00000   0.00000   0.00000   0.00000
  54        7PY         0.00000  -0.01114   0.10404  -0.00175   0.00004
  55        7PZ         0.00000   0.18006   0.02022   0.09623   0.03021
  56        8PX        -0.48827   0.00000   0.00000   0.00000   0.00000
  57        8PY         0.00000   0.03202  -0.29355   0.00474   0.00144
  58        8PZ         0.00000  -0.59410  -0.06964  -0.48271   0.02833
  59        9PX        -0.20109   0.00000   0.00000   0.00000   0.00000
  60        9PY         0.00000   0.01480  -0.14074   0.00243  -0.00011
  61        9PZ         0.00000  -0.19618  -0.02200  -0.09106  -0.04462
  62       10PX        -0.12711   0.00000   0.00000   0.00000   0.00000
  63       10PY         0.00000  -0.00332   0.03713  -0.00119   0.00055
  64       10PZ         0.00000  -0.31124  -0.03843  -0.35574   0.20126
  65       11PX        -0.00350   0.00000   0.00000   0.00000   0.00000
  66       11PY         0.00000   0.00012  -0.00191   0.00003  -0.00021
  67       11PZ         0.00000  -0.02139  -0.00268  -0.02400   0.02281
  68       12D 0        0.00000  -0.07219  -0.00918  -0.05223   0.11308
  69       12D+1       -0.05858   0.00000   0.00000   0.00000   0.00000
  70       12D-1        0.00000   0.01795  -0.18366   0.00452  -0.00393
  71       12D+2        0.00000  -0.04426  -0.00550  -0.02631   0.40213
  72       12D-2        0.00006   0.00000   0.00000   0.00000   0.00000
  73       13D 0        0.00000  -0.09531  -0.01290  -0.14057   0.10973
  74       13D+1       -0.06987   0.00000   0.00000   0.00000   0.00000
  75       13D-1        0.00000   0.01538  -0.15484   0.00354  -0.00242
  76       13D+2        0.00000  -0.03120  -0.00381  -0.01507   0.28579
  77       13D-2        0.00004   0.00000   0.00000   0.00000   0.00000
  78       14D 0        0.00000   0.03794   0.00515   0.07049  -0.03428
  79       14D+1        0.01263   0.00000   0.00000   0.00000   0.00000
  80       14D-1        0.00000   0.00346  -0.03304   0.00071  -0.00028
  81       14D+2        0.00000  -0.00840  -0.00106  -0.00371   0.02592
  82       14D-2       -0.00001   0.00000   0.00000   0.00000   0.00000
  83       15F 0        0.00000   0.01758   0.00238   0.02314  -0.02395
  84       15F+1        0.01915   0.00000   0.00000   0.00000   0.00000
  85       15F-1        0.00000  -0.00317   0.03120  -0.00077   0.00046
  86       15F+2        0.00000   0.00263   0.00035   0.00294  -0.03390
  87       15F-2       -0.00001   0.00000   0.00000   0.00000   0.00000
  88       15F+3       -0.00369   0.00000   0.00000   0.00000   0.00000
  89       15F-3        0.00000   0.00020  -0.00163  -0.00001   0.00001
  90       16F 0        0.00000   0.00654   0.00032  -0.02704  -0.01134
[...]
  94       16F-2        0.00000   0.00000   0.00000   0.00102   0.00000
  95       16F+3        0.00000   0.00000   0.00000  -0.04385   0.00000
  96       16F-3       -0.01574  -0.07213  -0.00264   0.00000  -0.00327
  97 3   F  1S         -0.04818   0.00468  -0.04652   0.00000   0.08961
  98        2S         -0.19634  -0.02146  -0.20305   0.00000   0.41946
  99        3S          0.06190  -0.04852   0.04781   0.00000  -0.05395
 100        4S          1.94840   0.54891   0.86149   0.00000  -3.24914
 101        5S          6.62990   0.54079   7.06434   0.00000 -17.21014
 102        6PX         0.00000   0.00000   0.00000   0.01992   0.00000
 103        6PY         0.00204   0.01154   0.00549   0.00000  -0.01244
 104        6PZ        -0.02158   0.00612   0.00263   0.00000  -0.00514
 105        7PX         0.00000   0.00000   0.00000  -0.07529   0.00000
 106        7PY         0.04307  -0.06893  -0.04705   0.00000   0.05008
 107        7PZ         0.15260  -0.04769  -0.02363   0.00000   0.01432
 108        8PX         0.00000   0.00000   0.00000   0.08143   0.00000
 109        8PY         0.75626   0.90829   0.36411   0.00000  -2.52611
 110        8PZ        -1.54772   1.17484   0.06016   0.00000  -0.77617
 111        9PX         0.00000   0.00000   0.00000  -1.15379   0.00000
 112        9PY        -0.02789  -1.67377   0.67554   0.00000  -4.93182
 113        9PZ        -1.80902   0.10726   4.75107   0.00000  -1.70575
 114       10D 0       -0.01747  -0.00678   0.00093   0.00000   0.00256
 115       10D+1        0.00000   0.00000   0.00000  -0.01460   0.00000
 116       10D-1       -0.00688  -0.00752   0.02596   0.00000  -0.00037
 117       10D+2        0.04821   0.01891   0.00578   0.00000   0.00326
 118       10D-2        0.00000   0.00000   0.00000  -0.00439   0.00000
 119       11D 0        0.04793   0.01674   0.00151   0.00000  -0.00705
 120       11D+1        0.00000   0.00000   0.00000   0.05456   0.00000
 121       11D-1        0.02971   0.04862  -0.09030   0.00000  -0.03170
 122       11D+2       -0.17944  -0.06636  -0.01380   0.00000   0.01882
 123       11D-2        0.00000   0.00000   0.00000   0.01680   0.00000
 124       12D 0       -0.76812   0.15760  -0.11426   0.00000   0.44835
 125       12D+1        0.00000   0.00000   0.00000  -0.18013   0.00000
 126       12D-1       -0.25715   0.36089   0.12106   0.00000  -0.42405
 127       12D+2        0.35912  -0.11303  -0.02096   0.00000   0.49987
 128       12D-2        0.00000   0.00000   0.00000  -0.09470   0.00000
 129       13F 0        0.00958   0.01694   0.00429   0.00000  -0.00991
 130       13F+1        0.00000   0.00000   0.00000  -0.00948   0.00000
 131       13F-1       -0.00118  -0.01749   0.02641   0.00000  -0.01002
 132       13F+2        0.02951   0.01714  -0.02170   0.00000  -0.00280
 133       13F-2        0.00000   0.00000   0.00000   0.00892   0.00000
 134       13F+3        0.00000   0.00000   0.00000  -0.00011   0.00000
 135       13F-3       -0.02131   0.01955   0.00912   0.00000   0.00500
 136       14F 0       -0.05410  -0.04904  -0.00713   0.00000   0.06469
 137       14F+1        0.00000   0.00000   0.00000   0.01487   0.00000
 138       14F-1       -0.04385   0.06168  -0.05275   0.00000   0.02781
 139       14F+2       -0.05051  -0.07291   0.03743   0.00000   0.05288
 140       14F-2        0.00000   0.00000   0.00000  -0.01019   0.00000
 141       14F+3        0.00000   0.00000   0.00000  -0.00030   0.00000
 142       14F-3        0.05908  -0.05877  -0.02365   0.00000   0.02185
 143 4   F  1S          0.03162  -0.00237  -0.04775   0.00000  -0.08883
 144        2S          0.12530   0.03166  -0.20666   0.00000  -0.41700
 145        3S         -0.04544   0.04646   0.05075   0.00000   0.05198
 146        4S         -1.39032  -0.63181   0.86616   0.00000   3.25020
 147        5S         -6.38045  -1.02072   7.24379   0.00000  17.22755
 148        6PX         0.00000   0.00000   0.00000   0.02017   0.00000
 149        6PY         0.00289   0.01236  -0.00518   0.00000  -0.01281
 150        6PZ         0.02266  -0.00672   0.00270   0.00000   0.00558
 151        7PX         0.00000   0.00000   0.00000  -0.07603   0.00000
 152        7PY         0.03356  -0.07268   0.04448   0.00000   0.05269
 153        7PZ        -0.15763   0.05108  -0.02337   0.00000  -0.01625
 154        8PX         0.00000   0.00000   0.00000   0.07938   0.00000
 155        8PY         0.54580   0.94472  -0.33447   0.00000  -2.53987
 156        8PZ         1.92048  -1.21644   0.03730   0.00000   0.82077
 157        9PX         0.00000   0.00000   0.00000  -1.16127   0.00000
 158        9PY        -0.13255  -1.61328  -0.83203   0.00000  -4.92676
 159        9PZ         1.80397  -0.35045   4.75045   0.00000   1.67878
 160       10D 0        0.01948   0.00650   0.00148   0.00000  -0.00329
 161       10D+1        0.00000   0.00000   0.00000  -0.01492   0.00000
 162       10D-1       -0.00931  -0.00565  -0.02658   0.00000  -0.00026
 163       10D+2       -0.05076  -0.01866   0.00462   0.00000  -0.00338
 164       10D-2        0.00000   0.00000   0.00000   0.00443   0.00000
 165       11D 0       -0.05626  -0.01607  -0.00005   0.00000   0.01002
 166       11D+1        0.00000   0.00000   0.00000   0.05531   0.00000
 167       11D-1        0.03372   0.04233   0.09323   0.00000  -0.03297
 168       11D+2        0.18456   0.06512  -0.01012   0.00000  -0.01823
 169       11D-2        0.00000   0.00000   0.00000  -0.01660   0.00000
 170       12D 0        0.83627  -0.16348  -0.11638   0.00000  -0.44528
 171       12D+1        0.00000   0.00000   0.00000  -0.18447   0.00000
 172       12D-1       -0.41490   0.37776  -0.11223   0.00000  -0.43558
 173       12D+2       -0.36871   0.11205  -0.01702   0.00000  -0.50121
 174       12D-2        0.00000   0.00000   0.00000   0.09706   0.00000
 175       13F 0       -0.00610  -0.01726   0.00402   0.00000   0.01029
 176       13F+1        0.00000   0.00000   0.00000  -0.00950   0.00000
 177       13F-1        0.00032  -0.01665  -0.02776   0.00000  -0.00938
 178       13F+2       -0.02916  -0.01585  -0.02279   0.00000   0.00328
 179       13F-2        0.00000   0.00000   0.00000  -0.00916   0.00000
 180       13F+3        0.00000   0.00000   0.00000  -0.00011   0.00000
 181       13F-3       -0.01682   0.01942  -0.00812   0.00000   0.00530
 182       14F 0        0.04225   0.04871  -0.00578   0.00000  -0.06587
 183       14F+1        0.00000   0.00000   0.00000   0.01479   0.00000
 184       14F-1       -0.05302   0.06077   0.05634   0.00000   0.02516
 185       14F+2        0.04200   0.07006   0.04111   0.00000  -0.05437
 186       14F-2        0.00000   0.00000   0.00000   0.01126   0.00000
 187       14F+3        0.00000   0.00000   0.00000   0.00021   0.00000
 188       14F-3        0.04826  -0.05774   0.02081   0.00000   0.02116
                         186       187       188
     Eigenvalues --     0.00000   0.00000   0.00000
   1 1   C  1S         -0.06751  -0.06798   0.00636
   2        2S         -0.32250  -0.36817  -0.01003
   3        3S          0.23478   0.16660  -0.01358
   4        4S        -12.59424 -15.32456 -13.52462
   5        5S         -4.26060  -9.67967 -21.58564
   6        6PX         0.00000   0.00000   0.00000
   7        6PY        -0.00064  -0.00023   0.00017
   8        6PZ        -0.01313   0.00131  -0.00992
   9        7PX         0.00000   0.00000   0.00000
  10        7PY         0.03190   0.02014   0.00606
  11        7PZ         0.72833   0.41869   0.27756
  12        8PX         0.00000   0.00000   0.00000
  13        8PY         0.13124   0.07056  -0.00712
  14        8PZ         1.85689  -2.52304  -7.31855
  15        9PX         0.00000   0.00000   0.00000
  16        9PY         0.01095   0.01288   0.01218
  17        9PZ         3.95196  -3.17964  -4.20489
  18       10D 0        0.01810   0.01383   0.01176
  19       10D+1        0.00000   0.00000   0.00000
  20       10D-1       -0.00070  -0.00055  -0.00023
  21       10D+2       -0.03448   0.01281   0.03526
  22       10D-2        0.00000   0.00000   0.00000
  23       11D 0        0.05563  -0.63728  -0.23594
  24       11D+1        0.00000   0.00000   0.00000
  25       11D-1       -0.01346  -0.00858  -0.00028
  26       11D+2        1.13998   0.60652   0.10344
  27       11D-2        0.00000   0.00000   0.00000
  28       12D 0       -0.94027  -1.59975  -1.50531
  29       12D+1        0.00000   0.00000   0.00000
  30       12D-1       -0.04826  -0.02672  -0.01832
  31       12D+2        0.67308   0.88014   0.31910
  32       12D-2        0.00000   0.00000   0.00000
  33       13F 0       -0.05447  -0.02980  -0.00818
  34       13F+1        0.00000   0.00000   0.00000
  35       13F-1       -0.00072   0.00002  -0.00006
  36       13F+2       -0.06404  -0.04492  -0.01387
  37       13F-2        0.00000   0.00000   0.00000
  38       13F+3        0.00000   0.00000   0.00000
  39       13F-3       -0.00084   0.00017   0.00020
  40       14F 0       -0.68121  -0.33030  -0.12690
  41       14F+1        0.00000   0.00000   0.00000
  42       14F-1       -0.00082   0.00472  -0.00433
  43       14F+2       -0.40813  -0.09857   0.02864
  44       14F-2        0.00000   0.00000   0.00000
  45       14F+3        0.00000   0.00000   0.00000
  46       14F-3       -0.00085  -0.00031  -0.00094
  47 2   S  1S          0.00872  -0.00206  -0.00675
  48        2S          0.13310  -0.02087  -0.07800
  49        3S          0.38197  -0.08759  -0.27758
  50        4S         -0.03322  -0.10772  -0.09623
  51        5S          2.39166   7.72245   7.15872
  52        6S          0.18506   5.93172  23.33864
  53        7PX         0.00000   0.00000   0.00000
  54        7PY        -0.00009  -0.00028   0.00005
  55        7PZ        -0.02541  -0.04919   0.00029
  56        8PX         0.00000   0.00000   0.00000
  57        8PY        -0.00154  -0.00506   0.00133
  58        8PZ        -0.61122  -1.19683  -0.12111
  59        9PX         0.00000   0.00000   0.00000
  60        9PY         0.00035   0.00088  -0.00012
  61        9PZ         0.03542   0.12929  -0.02112
  62       10PX         0.00000   0.00000   0.00000
  63       10PY         0.01681   0.01707   0.01873
  64       10PZ        -1.43497  -4.25463  -9.45553
  65       11PX         0.00000   0.00000   0.00000
  66       11PY         0.00178   0.00028  -0.00712
  67       11PZ        -1.58939   1.53520  -4.97094
  68       12D 0        0.06358   1.04890   0.43516
  69       12D+1        0.00000   0.00000   0.00000
  70       12D-1        0.00049   0.00153  -0.00388
  71       12D+2        0.10088  -0.04897  -0.01848
  72       12D-2        0.00000   0.00000   0.00000
  73       13D 0        0.05727  -0.08293  -0.02009
  74       13D+1        0.00000   0.00000   0.00000
  75       13D-1       -0.00032   0.00020   0.00027
  76       13D+2       -0.01979   0.00605   0.00169
  77       13D-2        0.00000   0.00000   0.00000
  78       14D 0        0.74650  -0.35564   2.70168
  79       14D+1        0.00000   0.00000   0.00000
  80       14D-1       -0.00536  -0.00730  -0.00687
  81       14D+2       -0.28026   0.01847  -0.05447
  82       14D-2        0.00000   0.00000   0.00000
  83       15F 0       -0.01070  -0.06178   0.03576
  84       15F+1        0.00000   0.00000   0.00000
  85       15F-1        0.00075  -0.00003  -0.00005
  86       15F+2       -0.01931   0.01474   0.00142
  87       15F-2        0.00000   0.00000   0.00000
  88       15F+3        0.00000   0.00000   0.00000
  89       15F-3       -0.00003   0.00003   0.00003
  90       16F 0       -0.05430  -0.04133  -0.31221
  91       16F+1        0.00000   0.00000   0.00000
  92       16F-1       -0.00128   0.00000   0.00231
  93       16F+2        0.04429  -0.00636   0.02008
  94       16F-2        0.00000   0.00000   0.00000
  95       16F+3        0.00000   0.00000   0.00000
  96       16F-3       -0.00025  -0.00037  -0.00003
  97 3   F  1S         -0.02358  -0.03438   0.00267
  98        2S         -0.13619  -0.17958   0.00157
  99        3S         -0.01833  -0.00008  -0.01524
 100        4S          2.46429   1.56628   0.13529
 101        5S          5.73135   6.04473   1.91660
 102        6PX         0.00000   0.00000   0.00000
 103        6PY         0.00125   0.01119   0.00246
 104        6PZ         0.01039   0.00347   0.00182
 105        7PX         0.00000   0.00000   0.00000
 106        7PY         0.00806  -0.06235  -0.01842
 107        7PZ        -0.02923  -0.03127  -0.02405
 108        8PX         0.00000   0.00000   0.00000
 109        8PY         1.36420   1.45223   0.40765
 110        8PZ         1.62230   1.08501   0.49324
 111        9PX         0.00000   0.00000   0.00000
 112        9PY         1.07130   0.73533  -0.03544
 113        9PZ        -0.95938   1.32624  -0.21094
 114       10D 0       -0.01994   0.00850  -0.00102
 115       10D+1        0.00000   0.00000   0.00000
 116       10D-1       -0.01226  -0.00438   0.00030
 117       10D+2        0.00111  -0.00211   0.00832
 118       10D-2        0.00000   0.00000   0.00000
 119       11D 0        0.07569  -0.03767  -0.00290
 120       11D+1        0.00000   0.00000   0.00000
 121       11D-1        0.08323   0.02991   0.00296
 122       11D+2       -0.01729  -0.00898  -0.02899
 123       11D-2        0.00000   0.00000   0.00000
 124       12D 0        0.01540   0.13776   0.03678
 125       12D+1        0.00000   0.00000   0.00000
 126       12D-1        0.40766   0.40019   0.23554
 127       12D+2       -0.06238  -0.26523  -0.06643
 128       12D-2        0.00000   0.00000   0.00000
 129       13F 0        0.00491   0.00720   0.00745
 130       13F+1        0.00000   0.00000   0.00000
 131       13F-1       -0.01609  -0.00289  -0.00656
 132       13F+2        0.00753   0.00450   0.01449
 133       13F-2        0.00000   0.00000   0.00000
 134       13F+3        0.00000   0.00000   0.00000
 135       13F-3       -0.02176  -0.00140   0.00754
 136       14F 0       -0.03075  -0.02886  -0.02976
 137       14F+1        0.00000   0.00000   0.00000
 138       14F-1        0.07428   0.01922   0.01609
 139       14F+2       -0.04703  -0.04608  -0.04774
 140       14F-2        0.00000   0.00000   0.00000
 141       14F+3        0.00000   0.00000   0.00000
 142       14F-3        0.04711  -0.01688  -0.02363
 143 4   F  1S         -0.02157  -0.03299   0.00344
 144        2S         -0.12684  -0.17283   0.00513
 145        3S         -0.01948  -0.00068  -0.01581
 146        4S          2.36306   1.49822   0.11746
 147        5S          5.34635   5.81808   1.89811
 148        6PX         0.00000   0.00000   0.00000
 149        6PY        -0.00099  -0.01110  -0.00243
 150        6PZ         0.01038   0.00341   0.00183
 151        7PX         0.00000   0.00000   0.00000
 152        7PY        -0.00800   0.06235   0.01819
 153        7PZ        -0.03007  -0.03146  -0.02402
 154        8PX         0.00000   0.00000   0.00000
 155        8PY        -1.29908  -1.40293  -0.40041
 156        8PZ         1.59506   1.07404   0.48454
 157        9PX         0.00000   0.00000   0.00000
 158        9PY        -0.97230  -0.69071   0.02530
 159        9PZ        -0.98604   1.31468  -0.19199
 160       10D 0       -0.02001   0.00876  -0.00093
 161       10D+1        0.00000   0.00000   0.00000
 162       10D-1        0.01198   0.00421  -0.00033
 163       10D+2        0.00103  -0.00233   0.00814
 164       10D-2        0.00000   0.00000   0.00000
 165       11D 0        0.07602  -0.03818  -0.00317
 166       11D+1        0.00000   0.00000   0.00000
 167       11D-1       -0.08067  -0.02852  -0.00267
 168       11D+2       -0.01595  -0.00740  -0.02806
 169       11D-2        0.00000   0.00000   0.00000
 170       12D 0        0.02492   0.14940   0.03779
 171       12D+1        0.00000   0.00000   0.00000
 172       12D-1       -0.39638  -0.39647  -0.23299
 173       12D+2       -0.05216  -0.25602  -0.06688
 174       12D-2        0.00000   0.00000   0.00000
 175       13F 0        0.00441   0.00702   0.00749
 176       13F+1        0.00000   0.00000   0.00000
 177       13F-1        0.01631   0.00335   0.00675
 178       13F+2        0.00724   0.00445   0.01448
 179       13F-2        0.00000   0.00000   0.00000
 180       13F+3        0.00000   0.00000   0.00000
 181       13F-3        0.02182   0.00169  -0.00749
 182       14F 0       -0.02817  -0.02767  -0.02969
 183       14F+1        0.00000   0.00000   0.00000
 184       14F-1       -0.07486  -0.02083  -0.01657
 185       14F+2       -0.04469  -0.04505  -0.04742
 186       14F-2        0.00000   0.00000   0.00000
 187       14F+3        0.00000   0.00000   0.00000
 188       14F-3       -0.04801   0.01538   0.02328
          Condensed to atoms (all electrons):
              1          2          3          4
     1  C    5.192195   0.243134   0.110798   0.110184
     2  S    0.243134  15.945633  -0.066926  -0.064900
     3  F    0.110798  -0.066926   9.178310  -0.081541
     4  F    0.110184  -0.064900  -0.081541   9.182361
 Mulliken atomic charges:
              1
     1  C    0.343688
     2  S   -0.056942
     3  F   -0.140642
     4  F   -0.146105
 Sum of Mulliken atomic charges =   0.00000
 Mulliken charges with hydrogens summed into heavy atoms:
              1
     1  C    0.343688
     2  S   -0.056942
     3  F   -0.140642
     4  F   -0.146105
 Sum of Mulliken charges with hydrogens summed into heavy atoms =   0.00000
 Electronic spatial extent (au):  <R**2>=            316.0558
 Charge=              0.0000 electrons
 Dipole moment (field-independent basis, Debye):
    X=              0.0000    Y=             -0.0209    Z=             -0.1799  Tot=              0.1811
 Quadrupole moment (field-independent basis, Debye-Ang):
   XX=            -27.2807   YY=            -30.1689   ZZ=            -27.9520
   XY=              0.0000   XZ=              0.0000   YZ=              0.0224
 Traceless Quadrupole moment (field-independent basis, Debye-Ang):
   XX=              1.1865   YY=             -1.7017   ZZ=              0.5152
   XY=              0.0000   XZ=              0.0000   YZ=              0.0224
 Octapole moment (field-independent basis, Debye-Ang**2):
  XXX=              0.0000  YYY=             -0.0555  ZZZ=              9.0704  XYY=              0.0000
  XXY=             -0.0165  XXZ=              0.8332  XZZ=              0.0000  YZZ=             -0.0592
  YYZ=              0.9064  XYZ=              0.0000
 Hexadecapole moment (field-independent basis, Debye-Ang**3):
 XXXX=            -28.1127 YYYY=            -96.2342 ZZZZ=           -215.7992 XXXY=              0.0000
 XXXZ=              0.0000 YYYX=              0.0000 YYYZ=              0.2030 ZZZX=              0.0000
 ZZZY=              0.2033 XXYY=            -20.7227 XXZZ=            -40.6388 YYZZ=            -55.7704
 XXYZ=              0.0644 YYXZ=              0.0000 ZZXY=              0.0000
 N-N= 1.541911474243D+02 E-N=-1.819699486550D+03  KE= 6.349811067700D+02
 1\1\GINC-TRAPISTA\SP\RQCISD-FC\Aug-CC-pVTZ\C1F2S1\BRUNS\27-Nov-2021\0\
 \# qcisd/aug-cc-pvtz nosymm density=current output=wfn\\f2cs-wavefunct
 ion\\0,1\C,0,0.,0.,-0.520349\S,0,0.,0.,1.078525\F,0,0.,-1.055221,-1.29
 5538\F,0,0.,1.055221,-1.305538\\Version=EM64L-G09RevB.01\HF=-634.35647
 86\MP2=-635.1964346\MP3=-635.1996858\MP4D=-635.2166726\MP4DQ=-635.1972
 817\MP4SDQ=-635.2081969\QCISD=-635.2072873\RMSD=7.411e-09\Dipole=0.,-0
 .0082266,-0.0707728\Quadrupole=0.8821284,-1.2651612,0.3830328,0.,0.,0.
 0166862\PG=CS [SG(C1F2S1)]\\@

 Writing a WFN file to GAUSSIAN.wfn.


 DIATOMIC MOLECULES ARE PECULIAR BECAUSE THEY ONLY HAVE TWO ENDS,
 AND THESE ENDS ARE VERY CLOSE TOGETHER.
 KLAUS RUEDENBERG, REV.MOD.PHYS. PG 176, 32, (1960)
 Job cpu time:  0 days  1 hours 59 minutes 13.6 seconds.
 File lengths (MBytes):  RWF=  17813 Int=      0 D2E=      0 Chk=      3 Scr=      1
 Normal termination of Gaussian 09 at Sat Nov 27 09:59:53 2021.
