 Entering Gaussian System, Link 0=/home/bruns/programas/chemistry/gaussian/g09/g09
 Input=GAUSSIAN.com
 Output=GAUSSIAN.log
 Initial command:
 /home/bruns/programas/chemistry/gaussian/g09/l1.exe /home/bruns/programas/chemistry/gaussian/work/Gau-31141.inp -scrdir=/home/bruns/programas/chemistry/gaussian/work/
 Entering Link 1 = /home/bruns/programas/chemistry/gaussian/g09/l1.exe PID=     31143.
  
 Copyright (c) 1988,1990,1992,1993,1995,1998,2003,2009,2010,
            Gaussian, Inc.  All Rights Reserved.
  
 This is part of the Gaussian(R) 09 program.  It is based on
 the Gaussian(R) 03 system (copyright 2003, Gaussian, Inc.),
 the Gaussian(R) 98 system (copyright 1998, Gaussian, Inc.),
 the Gaussian(R) 94 system (copyright 1995, Gaussian, Inc.),
 the Gaussian 92(TM) system (copyright 1992, Gaussian, Inc.),
 the Gaussian 90(TM) system (copyright 1990, Gaussian, Inc.),
 the Gaussian 88(TM) system (copyright 1988, Gaussian, Inc.),
 the Gaussian 86(TM) system (copyright 1986, Carnegie Mellon
 University), and the Gaussian 82(TM) system (copyright 1983,
 Carnegie Mellon University). Gaussian is a federally registered
 trademark of Gaussian, Inc.
  
 This software contains proprietary and confidential information,
 including trade secrets, belonging to Gaussian, Inc.
  
 This software is provided under written license and may be
 used, copied, transmitted, or stored only in accord with that
 written license.
  
 The following legend is applicable only to US Government
 contracts under FAR:
  
                    RESTRICTED RIGHTS LEGEND
  
 Use, reproduction and disclosure by the US Government is
 subject to restrictions as set forth in subparagraphs (a)
 and (c) of the Commercial Computer Software - Restricted
 Rights clause in FAR 52.227-19.
  
 Gaussian, Inc.
 340 Quinnipiac St., Bldg. 40, Wallingford CT 06492
  
  
 ---------------------------------------------------------------
 Warning -- This program may not be used in any manner that
 competes with the business of Gaussian, Inc. or will provide
 assistance to any competitor of Gaussian, Inc.  The licensee
 of this program is prohibited from giving any competitor of
 Gaussian, Inc. access to this program.  By using this program,
 the user acknowledges that Gaussian, Inc. is engaged in the
 business of creating and licensing software in the field of
 computational chemistry and represents and warrants to the
 licensee that it is not a competitor of Gaussian, Inc. and that
 it will not use this program in any manner prohibited above.
 ---------------------------------------------------------------
  

 Cite this work as:
 Gaussian 09, Revision B.01,
 M. J. Frisch, G. W. Trucks, H. B. Schlegel, G. E. Scuseria, 
 M. A. Robb, J. R. Cheeseman, G. Scalmani, V. Barone, B. Mennucci, 
 G. A. Petersson, H. Nakatsuji, M. Caricato, X. Li, H. P. Hratchian, 
 A. F. Izmaylov, J. Bloino, G. Zheng, J. L. Sonnenberg, M. Hada, 
 M. Ehara, K. Toyota, R. Fukuda, J. Hasegawa, M. Ishida, T. Nakajima, 
 Y. Honda, O. Kitao, H. Nakai, T. Vreven, J. A. Montgomery, Jr., 
 J. E. Peralta, F. Ogliaro, M. Bearpark, J. J. Heyd, E. Brothers, 
 K. N. Kudin, V. N. Staroverov, T. Keith, R. Kobayashi, J. Normand, 
 K. Raghavachari, A. Rendell, J. C. Burant, S. S. Iyengar, J. Tomasi, 
 M. Cossi, N. Rega, J. M. Millam, M. Klene, J. E. Knox, J. B. Cross, 
 V. Bakken, C. Adamo, J. Jaramillo, R. Gomperts, R. E. Stratmann, 
 O. Yazyev, A. J. Austin, R. Cammi, C. Pomelli, J. W. Ochterski, 
 R. L. Martin, K. Morokuma, V. G. Zakrzewski, G. A. Voth, 
 P. Salvador, J. J. Dannenberg, S. Dapprich, A. D. Daniels, 
 O. Farkas, J. B. Foresman, J. V. Ortiz, J. Cioslowski, 
 and D. J. Fox, Gaussian, Inc., Wallingford CT, 2010.
 
 ******************************************
 Gaussian 09:  EM64L-G09RevB.01 12-Aug-2010
                27-Nov-2021 
 ******************************************
 %nproc=8
 Will use up to    8 processors via shared memory.
 %mem=8GB
 -----------------------------------------------------
 # qcisd/aug-cc-pvtz nosymm density=current output=wfn
 -----------------------------------------------------
 1/30=1,38=1/1;
 2/12=2,15=1,17=6,18=5,40=1/2;
 3/5=16,6=1,7=10,11=9,16=1,25=1,30=1,71=1/1,2,3;
 4//1;
 5/5=2,38=5/2;
 8/6=4,9=120000,10=1/1,4;
 9/5=8,15=1/13;
 11/28=-7,31=1,32=3,42=3/11;
 10/5=6,13=10,31=1/2;
 6/7=2,8=2,9=2,10=2,22=-1,31=1/1;
 99/5=1,6=1100,9=1/99;
 -----------------
 f2cs-wavefunction
 -----------------
 Symbolic Z-matrix:
 Charge =  0 Multiplicity = 1
 C                     0.        0.       -0.51035 
 S                     0.        0.        1.07852 
 F                     0.       -1.05522  -1.29554 
 F                     0.        1.05522  -1.29554 
 
                          Input orientation:                          
 ---------------------------------------------------------------------
 Center     Atomic      Atomic             Coordinates (Angstroms)
 Number     Number       Type             X           Y           Z
 ---------------------------------------------------------------------
      1          6           0        0.000000    0.000000   -0.510349
      2         16           0        0.000000    0.000000    1.078525
      3          9           0        0.000000   -1.055221   -1.295538
      4          9           0        0.000000    1.055221   -1.295538
 ---------------------------------------------------------------------
                    Distance matrix (angstroms):
                    1          2          3          4
     1  C    0.000000
     2  S    1.588874   0.000000
     3  F    1.315300   2.598012   0.000000
     4  F    1.315300   2.598012   2.110442   0.000000
 Symmetry turned off by external request.
 Stoichiometry    CF2S
 Framework group  C2V[C2(CS),SGV(F2)]
 Deg. of freedom     3
 Full point group                 C2V     NOp   4
 Rotational constants (GHZ):     11.9449201      5.1163175      3.5820381
 Standard basis: Aug-CC-pVTZ (5D, 7F)
 Integral buffers will be    131072 words long.
 Raffenetti 1 integral format.
 Two-electron integral symmetry is turned off.
   188 basis functions,   330 primitive gaussians,   224 cartesian basis functions
    20 alpha electrons       20 beta electrons
       nuclear repulsion energy       154.3955420628 Hartrees.
 NAtoms=    4 NActive=    4 NUniq=    4 SFac= 1.00D+00 NAtFMM=   50 NAOKFM=F Big=F
 One-electron integrals computed using PRISM.
 NBasis=   188 RedAO= T  NBF=   188
 NBsUse=   188 1.00D-06 NBFU=   188
 Harris functional with IExCor=  205 diagonalized for initial guess.
 ExpMin= 3.51D-02 ExpMax= 3.74D+05 ExpMxC= 1.18D+03 IAcc=3 IRadAn=         0 AccDes= 0.00D+00
 HarFok:  IExCor=  205 AccDes= 0.00D+00 IRadAn=         0 IDoV= 1
 ScaDFX=  1.000000  1.000000  1.000000  1.000000
 FoFCou: FMM=F IPFlag=           0 FMFlag=      100000 FMFlg1=           0
         NFxFlg=           0 DoJE=T BraDBF=F KetDBF=T FulRan=T
         Omega=  0.000000  0.000000  1.000000  0.000000  0.000000 ICntrl=     500 IOpCl=  0
         NMat0=    1 NMatS0=    1 NMatT0=    0 NMatD0=    1 NMtDS0=    0 NMtDT0=    0
         I1Cent=           4 NGrid=           0.
 Symmetry not used in FoFCou.
 Requested convergence on RMS density matrix=1.00D-08 within 128 cycles.
 Requested convergence on MAX density matrix=1.00D-06.
 Requested convergence on             energy=1.00D-06.
 No special actions if energy rises.
 Keep R1 ints in memory in canonical form, NReq=323399632.
 SCF Done:  E(RHF) =  -634.356306251     A.U. after   12 cycles
             Convg  =    0.7022D-08             -V/T =  2.0005
 ExpMin= 3.51D-02 ExpMax= 3.74D+05 ExpMxC= 1.18D+03 IAcc=3 IRadAn=         5 AccDes= 0.00D+00
 HarFok:  IExCor=  205 AccDes= 0.00D+00 IRadAn=         5 IDoV=-2
 ScaDFX=  1.000000  1.000000  1.000000  1.000000
 DSYEVD returned Info=          93 IAlg= 4 N=    46 NDim=    46 NE2=    21472498 trying DSYEV.
 DSYEVD returned Info=          93 IAlg= 4 N=    46 NDim=    46 NE2=    21472498 trying DSYEV.
 Range of M.O.s used for correlation:     9   188
 NBasis=   188 NAE=    20 NBE=    20 NFC=     8 NFV=     0
 NROrb=    180 NOA=    12 NOB=    12 NVA=   168 NVB=   168

 **** Warning!!: The largest alpha MO coefficient is  0.28786557D+02

 Semi-Direct transformation.
 ModeAB=           2 MOrb=            12 LenV=    1072746489
 LASXX=     33405819 LTotXX=    33405819 LenRXX=    33405819
 LTotAB=    33954012 MaxLAS=    54432000 LenRXY=    54432000
 NonZer=    66811638 LenScr=   100987392 LnRSAI=           0
 LnScr1=           0 LExtra=           0 Total=    188825211
 MaxDsk=          -1 SrtSym=           F ITran=            4
 JobTyp=0 Pass  1:  I=   1 to  12.
 (rs|ai) integrals will be sorted in core.
 Spin components of T(2) and E(2):
     alpha-alpha T2 =       0.3017608075D-01 E2=     -0.1104929893D+00
     alpha-beta  T2 =       0.1599334821D+00 E2=     -0.6191389653D+00
     beta-beta   T2 =       0.3017608075D-01 E2=     -0.1104929893D+00
 ANorm=    0.1104665399D+01
 E2 =    -0.8401249439D+00 EUMP2 =    -0.63519643119456D+03
 R2 and R3 integrals will be kept in memory, NReq=   640760400.
 Iterations=  50 Convergence= 0.100D-07
 Iteration Nr.   1
 **********************
 DD1Dir will call FoFMem   1 times, MxPair=       156
 NAB=    78 NAA=     0 NBB=     0.
 MP4(R+Q)=  0.19359610D-01
 E3=       -0.31973827D-02        EUMP3=      -0.63519962858D+03
 E4(DQ)=    0.23725559D-02        UMP4(DQ)=   -0.63519725602D+03
 E4(SDQ)=  -0.84993092D-02        UMP4(SDQ)=  -0.63520812789D+03
 DE(Corr)= -0.82396272     E(Corr)=     -635.18026897    
 NORM(A)=   0.11038747D+01
 Iteration Nr.   2
 **********************
 DD1Dir will call FoFMem   1 times, MxPair=       156
 NAB=    78 NAA=     0 NBB=     0.
 DE(Corr)= -0.84970831     E(CORR)=     -635.20601456     Delta=-2.57D-02
 NORM(A)=   0.11127898D+01
 Iteration Nr.   3
 **********************
 DD1Dir will call FoFMem   1 times, MxPair=       156
 NAB=    78 NAA=     0 NBB=     0.
 DE(Corr)= -0.84801660     E(CORR)=     -635.20432285     Delta= 1.69D-03
 NORM(A)=   0.11156044D+01
 Iteration Nr.   4
 **********************
 DD1Dir will call FoFMem   1 times, MxPair=       156
 NAB=    78 NAA=     0 NBB=     0.
 DE(Corr)= -0.85054423     E(CORR)=     -635.20685048     Delta=-2.53D-03
 NORM(A)=   0.11166874D+01
 Iteration Nr.   5
 **********************
 DD1Dir will call FoFMem   1 times, MxPair=       156
 NAB=    78 NAA=     0 NBB=     0.
 DE(Corr)= -0.85084307     E(CORR)=     -635.20714932     Delta=-2.99D-04
 NORM(A)=   0.11170007D+01
 Iteration Nr.   6
 **********************
 DD1Dir will call FoFMem   1 times, MxPair=       156
 NAB=    78 NAA=     0 NBB=     0.
 DE(Corr)= -0.85088179     E(CORR)=     -635.20718805     Delta=-3.87D-05
 NORM(A)=   0.11170476D+01
 Iteration Nr.   7
 **********************
 DD1Dir will call FoFMem   1 times, MxPair=       156
 NAB=    78 NAA=     0 NBB=     0.
 DE(Corr)= -0.85088609     E(CORR)=     -635.20719234     Delta=-4.30D-06
 NORM(A)=   0.11170456D+01
 Iteration Nr.   8
 **********************
 DD1Dir will call FoFMem   1 times, MxPair=       156
 NAB=    78 NAA=     0 NBB=     0.
 DE(Corr)= -0.85088538     E(CORR)=     -635.20719163     Delta= 7.17D-07
 NORM(A)=   0.11170500D+01
 Iteration Nr.   9
 **********************
 DD1Dir will call FoFMem   1 times, MxPair=       156
 NAB=    78 NAA=     0 NBB=     0.
 DE(Corr)= -0.85088463     E(CORR)=     -635.20719088     Delta= 7.46D-07
 NORM(A)=   0.11170497D+01
 Iteration Nr.  10
 **********************
 DD1Dir will call FoFMem   1 times, MxPair=       156
 NAB=    78 NAA=     0 NBB=     0.
 DE(Corr)= -0.85088508     E(CORR)=     -635.20719133     Delta=-4.49D-07
 NORM(A)=   0.11170508D+01
 Iteration Nr.  11
 **********************
 DD1Dir will call FoFMem   1 times, MxPair=       156
 NAB=    78 NAA=     0 NBB=     0.
 DE(Corr)= -0.85088538     E(CORR)=     -635.20719163     Delta=-3.01D-07
 NORM(A)=   0.11170518D+01
 Iteration Nr.  12
 **********************
 DD1Dir will call FoFMem   1 times, MxPair=       156
 NAB=    78 NAA=     0 NBB=     0.
 DE(Corr)= -0.85088570     E(CORR)=     -635.20719195     Delta=-3.22D-07
 NORM(A)=   0.11170524D+01
 Iteration Nr.  13
 **********************
 DD1Dir will call FoFMem   1 times, MxPair=       156
 NAB=    78 NAA=     0 NBB=     0.
 DE(Corr)= -0.85088583     E(CORR)=     -635.20719208     Delta=-1.26D-07
 NORM(A)=   0.11170528D+01
 Iteration Nr.  14
 **********************
 DD1Dir will call FoFMem   1 times, MxPair=       156
 NAB=    78 NAA=     0 NBB=     0.
 DE(Corr)= -0.85088590     E(CORR)=     -635.20719215     Delta=-7.44D-08
 NORM(A)=   0.11170529D+01
 Iteration Nr.  15
 **********************
 DD1Dir will call FoFMem   1 times, MxPair=       156
 NAB=    78 NAA=     0 NBB=     0.
 DE(Corr)= -0.85088593     E(CORR)=     -635.20719218     Delta=-2.75D-08
 NORM(A)=   0.11170529D+01
 Iteration Nr.  16
 **********************
 DD1Dir will call FoFMem   1 times, MxPair=       156
 NAB=    78 NAA=     0 NBB=     0.
 DE(Corr)= -0.85088594     E(CORR)=     -635.20719219     Delta=-5.17D-09
 NORM(A)=   0.11170529D+01
 Iteration Nr.  17
 **********************
 DD1Dir will call FoFMem   1 times, MxPair=       156
 NAB=    78 NAA=     0 NBB=     0.
 DE(Corr)= -0.85088594     E(CORR)=     -635.20719219     Delta=-2.99D-09
 NORM(A)=   0.11170529D+01
 Iteration Nr.  18
 **********************
 DD1Dir will call FoFMem   1 times, MxPair=       156
 NAB=    78 NAA=     0 NBB=     0.
 DE(Corr)= -0.85088594     E(CORR)=     -635.20719219     Delta= 1.22D-09
 NORM(A)=   0.11170529D+01
 Largest amplitude= 8.44D-02

 Z-AMPLITUDE ITERATIONS

 Iteration Nr.   1
 **********************
 DD1Dir will call FoFMem   1 times, MxPair=       156
 NAB=    78 NAA=     0 NBB=     0.
 DE(Z)  -0.82699403D+00          E(Z)=    -0.63518330028D+03
 NORM(A)=   0.11170288D+01
 Iteration Nr.   2
 **********************
 DD1Dir will call FoFMem   1 times, MxPair=       156
 NAB=    78 NAA=     0 NBB=     0.
 DE(Z)  -0.82699396D+00          E(Z)=    -0.63518330021D+03
 NORM(A)=   0.11170388D+01
 Iteration Nr.   3
 **********************
 DD1Dir will call FoFMem   1 times, MxPair=       156
 NAB=    78 NAA=     0 NBB=     0.
 DE(Z)  -0.82699380D+00          E(Z)=    -0.63518330006D+03
 NORM(A)=   0.11170463D+01
 Iteration Nr.   4
 **********************
 DD1Dir will call FoFMem   1 times, MxPair=       156
 NAB=    78 NAA=     0 NBB=     0.
 DE(Z)  -0.82699394D+00          E(Z)=    -0.63518330019D+03
 NORM(A)=   0.11170511D+01
 Iteration Nr.   5
 **********************
 DD1Dir will call FoFMem   1 times, MxPair=       156
 NAB=    78 NAA=     0 NBB=     0.
 DE(Z)  -0.82699400D+00          E(Z)=    -0.63518330025D+03
 NORM(A)=   0.11088849D+01
 Iteration Nr.   6
 **********************
 DD1Dir will call FoFMem   1 times, MxPair=       156
 NAB=    78 NAA=     0 NBB=     0.
 DE(Z)  -0.82682887D+00          E(Z)=    -0.63518313513D+03
 NORM(A)=   0.11088734D+01
 Iteration Nr.   7
 **********************
 DD1Dir will call FoFMem   1 times, MxPair=       156
 NAB=    78 NAA=     0 NBB=     0.
 DE(Z)  -0.82684438D+00          E(Z)=    -0.63518315063D+03
 NORM(A)=   0.11088966D+01
 Iteration Nr.   8
 **********************
 DD1Dir will call FoFMem   1 times, MxPair=       156
 NAB=    78 NAA=     0 NBB=     0.
 DE(Z)  -0.82684111D+00          E(Z)=    -0.63518314736D+03
 NORM(A)=   0.11088578D+01
 Iteration Nr.   9
 **********************
 DD1Dir will call FoFMem   1 times, MxPair=       156
 NAB=    78 NAA=     0 NBB=     0.
 DE(Z)  -0.82684990D+00          E(Z)=    -0.63518315615D+03
 NORM(A)=   0.11088580D+01
 Iteration Nr.  10
 **********************
 DD1Dir will call FoFMem   1 times, MxPair=       156
 NAB=    78 NAA=     0 NBB=     0.
 DE(Z)  -0.82685054D+00          E(Z)=    -0.63518315679D+03
 NORM(A)=   0.11088597D+01
 Iteration Nr.  11
 **********************
 DD1Dir will call FoFMem   1 times, MxPair=       156
 NAB=    78 NAA=     0 NBB=     0.
 DE(Z)  -0.82685057D+00          E(Z)=    -0.63518315682D+03
 NORM(A)=   0.11088599D+01
 Iteration Nr.  12
 **********************
 DD1Dir will call FoFMem   1 times, MxPair=       156
 NAB=    78 NAA=     0 NBB=     0.
 DE(Z)  -0.82685070D+00          E(Z)=    -0.63518315695D+03
 NORM(A)=   0.11088598D+01
 Iteration Nr.  13
 **********************
 DD1Dir will call FoFMem   1 times, MxPair=       156
 NAB=    78 NAA=     0 NBB=     0.
 DE(Z)  -0.82685065D+00          E(Z)=    -0.63518315690D+03
 NORM(A)=   0.11088598D+01
 Iteration Nr.  14
 **********************
 DD1Dir will call FoFMem   1 times, MxPair=       156
 NAB=    78 NAA=     0 NBB=     0.
 DE(Z)  -0.82685068D+00          E(Z)=    -0.63518315693D+03
 NORM(A)=   0.11088598D+01
 Iteration Nr.  15
 **********************
 DD1Dir will call FoFMem   1 times, MxPair=       156
 NAB=    78 NAA=     0 NBB=     0.
 DE(Z)  -0.82685067D+00          E(Z)=    -0.63518315692D+03
 NORM(A)=   0.11088598D+01
 Iteration Nr.  16
 **********************
 DD1Dir will call FoFMem   1 times, MxPair=       156
 NAB=    78 NAA=     0 NBB=     0.
 DE(Z)  -0.82685067D+00          E(Z)=    -0.63518315692D+03
 NORM(A)=   0.11088598D+01
 Discarding MO integrals.
          Differentiating once with respect to electric field.
                with respect to dipole field.
          Electric field/nuclear overlap derivatives assumed to be zero.
          Keep R1 ints in memory in canonical form, NReq=319473719.
          There are     1 degrees of freedom in the 1st order CPHF.  IDoFFX=0.
 LinEq1:  Iter=  0 NonCon=     1 RMS=2.85D-03 Max=7.74D-02
 AX will form     1 AO Fock derivatives at one time.
 LinEq1:  Iter=  1 NonCon=     1 RMS=8.86D-04 Max=1.23D-02
 LinEq1:  Iter=  2 NonCon=     1 RMS=3.99D-04 Max=1.23D-02
 LinEq1:  Iter=  3 NonCon=     1 RMS=1.06D-04 Max=2.28D-03
 LinEq1:  Iter=  4 NonCon=     1 RMS=2.49D-05 Max=5.71D-04
 LinEq1:  Iter=  5 NonCon=     1 RMS=6.29D-06 Max=1.10D-04
 LinEq1:  Iter=  6 NonCon=     1 RMS=2.45D-06 Max=5.54D-05
 LinEq1:  Iter=  7 NonCon=     1 RMS=7.89D-07 Max=1.52D-05
 LinEq1:  Iter=  8 NonCon=     1 RMS=1.64D-07 Max=2.26D-06
 LinEq1:  Iter=  9 NonCon=     1 RMS=3.09D-08 Max=3.74D-07
 LinEq1:  Iter= 10 NonCon=     1 RMS=6.16D-09 Max=7.23D-08
 LinEq1:  Iter= 11 NonCon=     1 RMS=9.74D-10 Max=1.53D-08
 LinEq1:  Iter= 12 NonCon=     1 RMS=1.38D-10 Max=1.92D-09
 LinEq1:  Iter= 13 NonCon=     0 RMS=2.55D-11 Max=3.00D-10
 Linear equations converged to 1.000D-10 1.000D-09 after    13 iterations.
 End of Minotr Frequency-dependent properties file   721 does not exist.
 End of Minotr Frequency-dependent properties file   722 does not exist.

 **********************************************************************

            Population analysis using the QCI/CC density.

 **********************************************************************

     Natural Orbital Coefficients:
                           1         2         3         4         5
     Eigenvalues --     2.00003   2.00002   2.00001   2.00001   2.00000
   1 1   C  1S          0.00000  -0.18260   0.58487   0.00000   0.48841
   2        2S          0.00000   0.00339  -0.00923   0.00000  -0.00502
   3        3S          0.00000  -0.00699   0.02352   0.00000   0.02039
   4        4S          0.00000  -0.00945   0.00226   0.00000  -0.00178
   5        5S          0.00000  -0.00091   0.00192   0.00000   0.00052
   6        6PX         0.00000   0.00000   0.00000  -0.00186   0.00000
   7        6PY        -0.00144   0.00000   0.00000   0.00000   0.00000
   8        6PZ         0.00000   0.00141  -0.00337   0.00000  -0.00040
   9        7PX         0.00000   0.00000   0.00000  -0.00185   0.00000
  10        7PY        -0.00369   0.00000   0.00000   0.00000   0.00000
  11        7PZ         0.00000  -0.00103   0.00137   0.00000   0.00169
  12        8PX         0.00000   0.00000   0.00000  -0.00118   0.00000
  13        8PY         0.00596   0.00000   0.00000   0.00000   0.00000
  14        8PZ         0.00000  -0.00936   0.00498   0.00000  -0.00097
  15        9PX         0.00000   0.00000   0.00000   0.00009   0.00000
  16        9PY        -0.00063   0.00000   0.00000   0.00000   0.00000
  17        9PZ         0.00000   0.00035   0.00029   0.00000   0.00056
  18       10D 0        0.00000  -0.00008   0.00007   0.00000   0.00021
  19       10D+1        0.00000   0.00000   0.00000  -0.00030   0.00000
  20       10D-1       -0.00032   0.00000   0.00000   0.00000   0.00000
  21       10D+2        0.00000   0.00011  -0.00035   0.00000  -0.00018
  22       10D-2        0.00000   0.00000   0.00000   0.00000   0.00000
  23       11D 0        0.00000  -0.00115   0.00012   0.00000  -0.00027
  24       11D+1        0.00000   0.00000   0.00000   0.00124   0.00000
  25       11D-1        0.00112   0.00000   0.00000   0.00000   0.00000
  26       11D+2        0.00000  -0.00014   0.00115   0.00000   0.00081
  27       11D-2        0.00000   0.00000   0.00000   0.00000   0.00000
  28       12D 0        0.00000  -0.00271   0.00155   0.00000  -0.00133
  29       12D+1        0.00000   0.00000   0.00000  -0.00053   0.00000
  30       12D-1       -0.00455   0.00000   0.00000   0.00000   0.00000
  31       12D+2        0.00000  -0.00087   0.00053   0.00000  -0.00054
  32       12D-2        0.00000   0.00000   0.00000   0.00000   0.00000
  33       13F 0        0.00000  -0.00005  -0.00001   0.00000   0.00040
  34       13F+1        0.00000   0.00000   0.00000  -0.00018   0.00000
  35       13F-1       -0.00056   0.00000   0.00000   0.00000   0.00000
  36       13F+2        0.00000  -0.00010   0.00015   0.00000   0.00001
  37       13F-2        0.00000   0.00000   0.00000   0.00000   0.00000
  38       13F+3        0.00000   0.00000   0.00000   0.00003   0.00000
  39       13F-3        0.00005   0.00000   0.00000   0.00000   0.00000
  40       14F 0        0.00000   0.00065  -0.00195   0.00000  -0.00025
  41       14F+1        0.00000   0.00000   0.00000   0.00089   0.00000
  42       14F-1        0.00286   0.00000   0.00000   0.00000   0.00000
  43       14F+2        0.00000   0.00066  -0.00147   0.00000  -0.00090
  44       14F-2        0.00000   0.00000   0.00000   0.00000   0.00000
  45       14F+3        0.00000   0.00000   0.00000   0.00017   0.00000
  46       14F-3        0.00002   0.00000   0.00000   0.00000   0.00000
  47 2   S  1S          0.00000  -0.21390  -0.17401   0.00000   0.07089
  48        2S          0.00000   0.73131   0.60162   0.00000  -0.24612
  49        3S          0.00000  -0.02131  -0.00927   0.00000   0.00213
  50        4S          0.00000   0.04883   0.04338   0.00000  -0.01795
  51        5S          0.00000   0.01045  -0.01112   0.00000   0.00388
  52        6S          0.00000   0.00110  -0.00252   0.00000  -0.00092
  53        7PX         0.00000   0.00000   0.00000   0.97268   0.00000
  54        7PY         0.97644   0.00000   0.00000   0.00000   0.00000
  55        7PZ         0.00000   0.63443  -0.49967   0.00000   0.42824
  56        8PX         0.00000   0.00000   0.00000  -0.01231   0.00000
  57        8PY        -0.02025   0.00000   0.00000   0.00000   0.00000
  58        8PZ         0.00000  -0.01266   0.00872   0.00000  -0.00426
  59        9PX         0.00000   0.00000   0.00000   0.06134   0.00000
  60        9PY         0.05659   0.00000   0.00000   0.00000   0.00000
  61        9PZ         0.00000   0.03922  -0.03284   0.00000   0.02824
  62       10PX         0.00000   0.00000   0.00000   0.00020   0.00000
  63       10PY        -0.00405   0.00000   0.00000   0.00000   0.00000
  64       10PZ         0.00000  -0.00904   0.00473   0.00000  -0.00053
  65       11PX         0.00000   0.00000   0.00000  -0.00082   0.00000
  66       11PY        -0.00030   0.00000   0.00000   0.00000   0.00000
  67       11PZ         0.00000  -0.00030   0.00028   0.00000  -0.00002
  68       12D 0        0.00000   0.00254  -0.00293   0.00000   0.00098
  69       12D+1        0.00000   0.00000   0.00000   0.00203   0.00000
  70       12D-1        0.00337   0.00000   0.00000   0.00000   0.00000
  71       12D+2        0.00000  -0.00040   0.00025   0.00000   0.00030
  72       12D-2        0.00000   0.00000   0.00000   0.00000   0.00000
  73       13D 0        0.00000   0.00019   0.00027   0.00000  -0.00070
  74       13D+1        0.00000   0.00000   0.00000  -0.00011   0.00000
  75       13D-1       -0.00026   0.00000   0.00000   0.00000   0.00000
  76       13D+2        0.00000   0.00026   0.00014   0.00000  -0.00008
  77       13D-2        0.00000   0.00000   0.00000   0.00000   0.00000
  78       14D 0        0.00000   0.00145  -0.00061   0.00000   0.00007
  79       14D+1        0.00000   0.00000   0.00000  -0.00038   0.00000
  80       14D-1       -0.00085   0.00000   0.00000   0.00000   0.00000
  81       14D+2        0.00000   0.00024  -0.00001   0.00000   0.00014
  82       14D-2        0.00000   0.00000   0.00000   0.00000   0.00000
  83       15F 0        0.00000  -0.00023   0.00028   0.00000   0.00035
  84       15F+1        0.00000   0.00000   0.00000  -0.00023   0.00000
  85       15F-1       -0.00022   0.00000   0.00000   0.00000   0.00000
  86       15F+2        0.00000   0.00011  -0.00013   0.00000   0.00003
  87       15F-2        0.00000   0.00000   0.00000   0.00000   0.00000
  88       15F+3        0.00000   0.00000   0.00000   0.00009   0.00000
  89       15F-3        0.00006   0.00000   0.00000   0.00000   0.00000
  90       16F 0        0.00000  -0.00048   0.00058   0.00000  -0.00045
  91       16F+1        0.00000   0.00000   0.00000  -0.00047   0.00000
  92       16F-1       -0.00102   0.00000   0.00000   0.00000   0.00000
  93       16F+2        0.00000  -0.00001  -0.00017   0.00000  -0.00027
  94       16F-2        0.00000   0.00000   0.00000   0.00000   0.00000
  95       16F+3        0.00000   0.00000   0.00000  -0.00013   0.00000
  96       16F-3       -0.00012   0.00000   0.00000   0.00000   0.00000
  97 3   F  1S          0.00832   0.01095  -0.08041   0.00000  -0.48713
  98        2S          0.00020  -0.00044   0.00224   0.00000   0.00844
  99        3S          0.00045   0.00040  -0.00321   0.00000  -0.02070
 100        4S          0.00028  -0.00135   0.00368   0.00000   0.00183
 101        5S          0.00723  -0.00213   0.00116   0.00000  -0.00031
 102        6PX         0.00000   0.00000   0.00000   0.00094   0.00000
 103        6PY        -0.00019   0.00001  -0.00065   0.00000  -0.00169
 104        6PZ        -0.00059  -0.00014  -0.00016   0.00000  -0.00143
 105        7PX         0.00000   0.00000   0.00000   0.00117   0.00000
 106        7PY        -0.00031  -0.00007  -0.00036   0.00000  -0.00091
 107        7PZ        -0.00087  -0.00031   0.00019   0.00000  -0.00084
 108        8PX         0.00000   0.00000   0.00000   0.00125   0.00000
 109        8PY        -0.00059   0.00000  -0.00015   0.00000  -0.00110
 110        8PZ        -0.00270  -0.00034   0.00079   0.00000  -0.00139
 111        9PX         0.00000   0.00000   0.00000  -0.00001   0.00000
 112        9PY         0.00169  -0.00010  -0.00005   0.00000   0.00007
 113        9PZ         0.00022  -0.00111   0.00050   0.00000  -0.00067
 114       10D 0        0.00000   0.00001   0.00000   0.00000   0.00001
 115       10D+1        0.00000   0.00000   0.00000  -0.00001   0.00000
 116       10D-1        0.00001   0.00000   0.00002   0.00000   0.00002
 117       10D+2        0.00000   0.00001  -0.00002   0.00000   0.00002
 118       10D-2        0.00000   0.00000   0.00000  -0.00002   0.00000
 119       11D 0        0.00015   0.00001  -0.00006   0.00000  -0.00003
 120       11D+1        0.00000   0.00000   0.00000  -0.00003   0.00000
 121       11D-1       -0.00007   0.00004  -0.00012   0.00000  -0.00009
 122       11D+2        0.00004  -0.00001   0.00006   0.00000  -0.00001
 123       11D-2        0.00000   0.00000   0.00000   0.00005   0.00000
 124       12D 0       -0.00046   0.00019  -0.00027   0.00000  -0.00005
 125       12D+1        0.00000   0.00000   0.00000   0.00024   0.00000
 126       12D-1       -0.00084  -0.00008   0.00025   0.00000  -0.00051
 127       12D+2        0.00041  -0.00017   0.00031   0.00000   0.00020
 128       12D-2        0.00000   0.00000   0.00000   0.00004   0.00000
 129       13F 0       -0.00001  -0.00002   0.00004   0.00000   0.00000
 130       13F+1        0.00000   0.00000   0.00000   0.00001   0.00000
 131       13F-1        0.00003   0.00001   0.00000   0.00000   0.00002
 132       13F+2       -0.00001  -0.00001   0.00001   0.00000  -0.00004
 133       13F-2        0.00000   0.00000   0.00000  -0.00002   0.00000
 134       13F+3        0.00000   0.00000   0.00000   0.00001   0.00000
 135       13F-3       -0.00002   0.00001  -0.00002   0.00000   0.00001
 136       14F 0        0.00013   0.00007  -0.00010   0.00000   0.00013
 137       14F+1        0.00000   0.00000   0.00000  -0.00003   0.00000
 138       14F-1       -0.00001   0.00003  -0.00013   0.00000  -0.00020
 139       14F+2        0.00007   0.00000   0.00011   0.00000   0.00030
 140       14F-2        0.00000   0.00000   0.00000   0.00008   0.00000
 141       14F+3        0.00000   0.00000   0.00000  -0.00004   0.00000
 142       14F-3        0.00012  -0.00005   0.00014   0.00000   0.00000
 143 4   F  1S         -0.00832   0.01095  -0.08041   0.00000  -0.48713
 144        2S         -0.00020  -0.00044   0.00224   0.00000   0.00844
 145        3S         -0.00045   0.00040  -0.00321   0.00000  -0.02070
 146        4S         -0.00028  -0.00135   0.00368   0.00000   0.00183
 147        5S         -0.00723  -0.00213   0.00116   0.00000  -0.00031
 148        6PX         0.00000   0.00000   0.00000   0.00094   0.00000
 149        6PY        -0.00019  -0.00001   0.00065   0.00000   0.00169
 150        6PZ         0.00059  -0.00014  -0.00016   0.00000  -0.00143
 151        7PX         0.00000   0.00000   0.00000   0.00117   0.00000
 152        7PY        -0.00031   0.00007   0.00036   0.00000   0.00091
 153        7PZ         0.00087  -0.00031   0.00019   0.00000  -0.00084
 154        8PX         0.00000   0.00000   0.00000   0.00125   0.00000
 155        8PY        -0.00059   0.00000   0.00015   0.00000   0.00110
 156        8PZ         0.00270  -0.00034   0.00079   0.00000  -0.00139
 157        9PX         0.00000   0.00000   0.00000  -0.00001   0.00000
 158        9PY         0.00169   0.00010   0.00005   0.00000  -0.00007
 159        9PZ        -0.00022  -0.00111   0.00050   0.00000  -0.00067
 160       10D 0        0.00000   0.00001   0.00000   0.00000   0.00001
 161       10D+1        0.00000   0.00000   0.00000  -0.00001   0.00000
 162       10D-1        0.00001   0.00000  -0.00002   0.00000  -0.00002
 163       10D+2        0.00000   0.00001  -0.00002   0.00000   0.00002
 164       10D-2        0.00000   0.00000   0.00000   0.00002   0.00000
 165       11D 0       -0.00015   0.00001  -0.00006   0.00000  -0.00003
 166       11D+1        0.00000   0.00000   0.00000  -0.00003   0.00000
 167       11D-1       -0.00007  -0.00004   0.00012   0.00000   0.00009
 168       11D+2       -0.00004  -0.00001   0.00006   0.00000  -0.00001
 169       11D-2        0.00000   0.00000   0.00000  -0.00005   0.00000
 170       12D 0        0.00046   0.00019  -0.00027   0.00000  -0.00005
 171       12D+1        0.00000   0.00000   0.00000   0.00024   0.00000
 172       12D-1       -0.00084   0.00008  -0.00025   0.00000   0.00051
 173       12D+2       -0.00041  -0.00017   0.00031   0.00000   0.00020
 174       12D-2        0.00000   0.00000   0.00000  -0.00004   0.00000
 175       13F 0        0.00001  -0.00002   0.00004   0.00000   0.00000
 176       13F+1        0.00000   0.00000   0.00000   0.00001   0.00000
 177       13F-1        0.00003  -0.00001   0.00000   0.00000  -0.00002
 178       13F+2        0.00001  -0.00001   0.00001   0.00000  -0.00004
 179       13F-2        0.00000   0.00000   0.00000   0.00002   0.00000
 180       13F+3        0.00000   0.00000   0.00000   0.00001   0.00000
 181       13F-3       -0.00002  -0.00001   0.00002   0.00000  -0.00001
 182       14F 0       -0.00013   0.00007  -0.00010   0.00000   0.00013
 183       14F+1        0.00000   0.00000   0.00000  -0.00003   0.00000
 184       14F-1       -0.00001  -0.00003   0.00013   0.00000   0.00020
 185       14F+2       -0.00007   0.00000   0.00011   0.00000   0.00030
 186       14F-2        0.00000   0.00000   0.00000  -0.00008   0.00000
 187       14F+3        0.00000   0.00000   0.00000  -0.00004   0.00000
 188       14F-3        0.00012   0.00005  -0.00014   0.00000   0.00000
                           6         7         8         9        10
     Eigenvalues --     2.00000   2.00000   2.00000   1.98609   1.98543
   1 1   C  1S          0.00000   0.59066   0.00016  -0.04750   0.00000
   2        2S          0.00000  -0.00565  -0.00003   0.09792   0.00000
   3        3S          0.00000   0.02392   0.00001   0.02029   0.00000
   4        4S          0.00000  -0.00198  -0.00003   0.01152   0.00000
   5        5S          0.00000   0.00068  -0.00007   0.00503   0.00000
   6        6PX         0.00000   0.00000   0.00000   0.00000   0.00000
   7        6PY        -0.00002   0.00000   0.00000   0.00000   0.03256
   8        6PZ         0.00000  -0.00095   0.00001  -0.02026   0.00000
   9        7PX         0.00000   0.00000   0.00000   0.00000   0.00000
  10        7PY         0.00064   0.00000   0.00000   0.00000   0.02691
  11        7PZ         0.00000   0.00031  -0.00013  -0.02424   0.00000
  12        8PX         0.00000   0.00000   0.00000   0.00000   0.00000
  13        8PY        -0.00056   0.00000   0.00000   0.00000  -0.01713
  14        8PZ         0.00000   0.00230   0.00004   0.03617   0.00000
  15        9PX         0.00000   0.00000   0.00000   0.00000   0.00000
  16        9PY         0.00032   0.00000   0.00000   0.00000   0.00134
  17        9PZ         0.00000   0.00029  -0.00003   0.00136   0.00000
  18       10D 0        0.00000   0.00025  -0.00001   0.00323   0.00000
  19       10D+1        0.00000   0.00000   0.00000   0.00000   0.00000
  20       10D-1       -0.00019   0.00000   0.00000   0.00000  -0.01036
  21       10D+2        0.00000  -0.00049   0.00000  -0.00823   0.00000
  22       10D-2        0.00000   0.00000   0.00000   0.00000   0.00000
  23       11D 0        0.00000  -0.00042  -0.00008   0.00285   0.00000
  24       11D+1        0.00000   0.00000   0.00000   0.00000   0.00000
  25       11D-1       -0.00118   0.00000   0.00000   0.00000  -0.01073
  26       11D+2        0.00000   0.00004  -0.00003  -0.01097   0.00000
  27       11D-2        0.00000   0.00000   0.00000   0.00000   0.00000
  28       12D 0        0.00000  -0.00012  -0.00002   0.00645   0.00000
  29       12D+1        0.00000   0.00000   0.00000   0.00000   0.00000
  30       12D-1        0.00064   0.00000   0.00000   0.00000   0.01322
  31       12D+2        0.00000   0.00027   0.00000   0.00821   0.00000
  32       12D-2        0.00000   0.00000   0.00000   0.00000   0.00000
  33       13F 0        0.00000   0.00061   0.00001   0.00268   0.00000
  34       13F+1        0.00000   0.00000   0.00000   0.00000   0.00000
  35       13F-1        0.00017   0.00000   0.00000   0.00000   0.00188
  36       13F+2        0.00000   0.00059   0.00001   0.00516   0.00000
  37       13F-2        0.00000   0.00000   0.00000   0.00000   0.00000
  38       13F+3        0.00000   0.00000   0.00000   0.00000   0.00000
  39       13F-3       -0.00021   0.00000   0.00000   0.00000  -0.00211
  40       14F 0        0.00000   0.00052   0.00003   0.00408   0.00000
  41       14F+1        0.00000   0.00000   0.00000   0.00000   0.00000
  42       14F-1        0.00109   0.00000   0.00000   0.00000   0.00451
  43       14F+2        0.00000  -0.00027   0.00001   0.00234   0.00000
  44       14F-2        0.00000   0.00000   0.00000   0.00000   0.00000
  45       14F+3        0.00000   0.00000   0.00000   0.00000   0.00000
  46       14F-3        0.00014   0.00000   0.00000   0.00000   0.00039
  47 2   S  1S          0.00000   0.04687   0.99642   0.00296   0.00000
  48        2S          0.00000  -0.16421   0.01313  -0.01184   0.00000
  49        3S          0.00000   0.00048   0.00031   0.02276   0.00000
  50        4S          0.00000  -0.01222  -0.00003   0.00246   0.00000
  51        5S          0.00000   0.00101  -0.00006  -0.01827   0.00000
  52        6S          0.00000  -0.00098   0.00005  -0.01173   0.00000
  53        7PX         0.00000   0.00000   0.00000   0.00000   0.00000
  54        7PY         0.01183   0.00000   0.00000   0.00000  -0.00443
  55        7PZ         0.00000   0.33284   0.00173   0.00768   0.00000
  56        8PX         0.00000   0.00000   0.00000   0.00000   0.00000
  57        8PY        -0.00038   0.00000   0.00000   0.00000   0.01618
  58        8PZ         0.00000  -0.00279  -0.00018  -0.01286   0.00000
  59        9PX         0.00000   0.00000   0.00000   0.00000   0.00000
  60        9PY         0.00074   0.00000   0.00000   0.00000   0.00675
  61        9PZ         0.00000   0.02225   0.00019  -0.00754   0.00000
  62       10PX         0.00000   0.00000   0.00000   0.00000   0.00000
  63       10PY        -0.00049   0.00000   0.00000   0.00000   0.00416
  64       10PZ         0.00000  -0.00011   0.00003   0.00668   0.00000
  65       11PX         0.00000   0.00000   0.00000   0.00000   0.00000
  66       11PY        -0.00018   0.00000   0.00000   0.00000  -0.00051
  67       11PZ         0.00000   0.00008   0.00000   0.00190   0.00000
  68       12D 0        0.00000   0.00097   0.00008   0.00126   0.00000
  69       12D+1        0.00000   0.00000   0.00000   0.00000   0.00000
  70       12D-1        0.00014   0.00000   0.00000   0.00000   0.00024
  71       12D+2        0.00000   0.00010  -0.00001  -0.00021   0.00000
  72       12D-2        0.00000   0.00000   0.00000   0.00000   0.00000
  73       13D 0        0.00000  -0.00069   0.00001   0.00263   0.00000
  74       13D+1        0.00000   0.00000   0.00000   0.00000   0.00000
  75       13D-1        0.00000   0.00000   0.00000   0.00000  -0.00032
  76       13D+2        0.00000  -0.00006   0.00001  -0.00001   0.00000
  77       13D-2        0.00000   0.00000   0.00000   0.00000   0.00000
  78       14D 0        0.00000   0.00025  -0.00003  -0.00167   0.00000
  79       14D+1        0.00000   0.00000   0.00000   0.00000   0.00000
  80       14D-1        0.00013   0.00000   0.00000   0.00000   0.00200
  81       14D+2        0.00000  -0.00008   0.00000  -0.00266   0.00000
  82       14D-2        0.00000   0.00000   0.00000   0.00000   0.00000
  83       15F 0        0.00000   0.00037  -0.00002  -0.00045   0.00000
  84       15F+1        0.00000   0.00000   0.00000   0.00000   0.00000
  85       15F-1       -0.00001   0.00000   0.00000   0.00000   0.00019
  86       15F+2        0.00000   0.00009   0.00000   0.00004   0.00000
  87       15F-2        0.00000   0.00000   0.00000   0.00000   0.00000
  88       15F+3        0.00000   0.00000   0.00000   0.00000   0.00000
  89       15F-3       -0.00001   0.00000   0.00000   0.00000   0.00000
  90       16F 0        0.00000  -0.00050  -0.00001   0.00042   0.00000
  91       16F+1        0.00000   0.00000   0.00000   0.00000   0.00000
  92       16F-1       -0.00002   0.00000   0.00000   0.00000  -0.00022
  93       16F+2        0.00000  -0.00009   0.00000   0.00085   0.00000
  94       16F-2        0.00000   0.00000   0.00000   0.00000   0.00000
  95       16F+3        0.00000   0.00000   0.00000   0.00000   0.00000
  96       16F-3        0.00003   0.00000   0.00000   0.00000   0.00023
  97 3   F  1S         -0.69209   0.48492   0.00015  -0.14650   0.15003
  98        2S          0.01118  -0.00686  -0.00001   0.37467  -0.38400
  99        3S         -0.02980   0.02123   0.00001   0.11422  -0.11773
 100        4S          0.00065   0.00130  -0.00003   0.23517  -0.25369
 101        5S         -0.00066   0.00036   0.00004   0.01843  -0.03121
 102        6PX         0.00000   0.00000   0.00000   0.00000   0.00000
 103        6PY        -0.00141   0.00043   0.00000  -0.00552   0.03759
 104        6PZ        -0.00110   0.00001   0.00000  -0.02219   0.00841
 105        7PX         0.00000   0.00000   0.00000   0.00000   0.00000
 106        7PY         0.00014  -0.00071  -0.00001  -0.00240   0.04112
 107        7PZ        -0.00012  -0.00096  -0.00001  -0.02422   0.00657
 108        8PX         0.00000   0.00000   0.00000   0.00000   0.00000
 109        8PY        -0.00069   0.00061   0.00000  -0.01296   0.03428
 110        8PZ        -0.00156  -0.00058  -0.00004  -0.02891   0.00478
 111        9PX         0.00000   0.00000   0.00000   0.00000   0.00000
 112        9PY        -0.00039   0.00009   0.00001  -0.00160  -0.00091
 113        9PZ        -0.00005  -0.00013   0.00001  -0.00069   0.00044
 114       10D 0        0.00001   0.00001   0.00000  -0.00012  -0.00014
 115       10D+1        0.00000   0.00000   0.00000   0.00000   0.00000
 116       10D-1       -0.00001   0.00005   0.00000   0.00063  -0.00040
 117       10D+2        0.00001  -0.00001   0.00000  -0.00064   0.00008
 118       10D-2        0.00000   0.00000   0.00000   0.00000   0.00000
 119       11D 0       -0.00007  -0.00008   0.00000  -0.00073  -0.00098
 120       11D+1        0.00000   0.00000   0.00000   0.00000   0.00000
 121       11D-1        0.00024  -0.00051  -0.00001   0.00358  -0.00378
 122       11D+2       -0.00017   0.00020   0.00000  -0.00330   0.00188
 123       11D-2        0.00000   0.00000   0.00000   0.00000   0.00000
 124       12D 0       -0.00032  -0.00012   0.00000  -0.00137  -0.00132
 125       12D+1        0.00000   0.00000   0.00000   0.00000   0.00000
 126       12D-1       -0.00039  -0.00026  -0.00002  -0.00511   0.00002
 127       12D+2        0.00018  -0.00013  -0.00001   0.00180  -0.00129
 128       12D-2        0.00000   0.00000   0.00000   0.00000   0.00000
 129       13F 0        0.00000  -0.00002   0.00000  -0.00032   0.00011
 130       13F+1        0.00000   0.00000   0.00000   0.00000   0.00000
 131       13F-1        0.00001  -0.00001   0.00000   0.00015  -0.00028
 132       13F+2       -0.00001   0.00001   0.00000  -0.00052   0.00030
 133       13F-2        0.00000   0.00000   0.00000   0.00000   0.00000
 134       13F+3        0.00000   0.00000   0.00000   0.00000   0.00000
 135       13F-3       -0.00006   0.00002   0.00000  -0.00041   0.00002
 136       14F 0       -0.00004   0.00019   0.00001  -0.00037   0.00031
 137       14F+1        0.00000   0.00000   0.00000   0.00000   0.00000
 138       14F-1       -0.00003  -0.00021   0.00000  -0.00015  -0.00087
 139       14F+2        0.00000   0.00027   0.00000  -0.00076   0.00094
 140       14F-2        0.00000   0.00000   0.00000   0.00000   0.00000
 141       14F+3        0.00000   0.00000   0.00000   0.00000   0.00000
 142       14F-3        0.00013   0.00004   0.00000  -0.00045   0.00061
 143 4   F  1S          0.69209   0.48492   0.00015  -0.14650  -0.15003
 144        2S         -0.01118  -0.00686  -0.00001   0.37467   0.38400
 145        3S          0.02980   0.02123   0.00001   0.11422   0.11773
 146        4S         -0.00065   0.00130  -0.00003   0.23517   0.25369
 147        5S          0.00066   0.00036   0.00004   0.01843   0.03121
 148        6PX         0.00000   0.00000   0.00000   0.00000   0.00000
 149        6PY        -0.00141  -0.00043   0.00000   0.00552   0.03759
 150        6PZ         0.00110   0.00001   0.00000  -0.02219  -0.00841
 151        7PX         0.00000   0.00000   0.00000   0.00000   0.00000
 152        7PY         0.00014   0.00071   0.00001   0.00240   0.04112
 153        7PZ         0.00012  -0.00096  -0.00001  -0.02422  -0.00657
 154        8PX         0.00000   0.00000   0.00000   0.00000   0.00000
 155        8PY        -0.00069  -0.00061   0.00000   0.01296   0.03428
 156        8PZ         0.00156  -0.00058  -0.00004  -0.02891  -0.00478
 157        9PX         0.00000   0.00000   0.00000   0.00000   0.00000
 158        9PY        -0.00039  -0.00009  -0.00001   0.00160  -0.00091
 159        9PZ         0.00005  -0.00013   0.00001  -0.00069  -0.00044
 160       10D 0       -0.00001   0.00001   0.00000  -0.00012   0.00014
 161       10D+1        0.00000   0.00000   0.00000   0.00000   0.00000
 162       10D-1       -0.00001  -0.00005   0.00000  -0.00063  -0.00040
 163       10D+2       -0.00001  -0.00001   0.00000  -0.00064  -0.00008
 164       10D-2        0.00000   0.00000   0.00000   0.00000   0.00000
 165       11D 0        0.00007  -0.00008   0.00000  -0.00073   0.00098
 166       11D+1        0.00000   0.00000   0.00000   0.00000   0.00000
 167       11D-1        0.00024   0.00051   0.00001  -0.00358  -0.00378
 168       11D+2        0.00017   0.00020   0.00000  -0.00330  -0.00188
 169       11D-2        0.00000   0.00000   0.00000   0.00000   0.00000
 170       12D 0        0.00032  -0.00012   0.00000  -0.00137   0.00132
 171       12D+1        0.00000   0.00000   0.00000   0.00000   0.00000
 172       12D-1       -0.00039   0.00026   0.00002   0.00511   0.00002
 173       12D+2       -0.00018  -0.00013  -0.00001   0.00180   0.00129
 174       12D-2        0.00000   0.00000   0.00000   0.00000   0.00000
 175       13F 0        0.00000  -0.00002   0.00000  -0.00032  -0.00011
 176       13F+1        0.00000   0.00000   0.00000   0.00000   0.00000
 177       13F-1        0.00001   0.00001   0.00000  -0.00015  -0.00028
 178       13F+2        0.00001   0.00001   0.00000  -0.00052  -0.00030
 179       13F-2        0.00000   0.00000   0.00000   0.00000   0.00000
 180       13F+3        0.00000   0.00000   0.00000   0.00000   0.00000
 181       13F-3       -0.00006  -0.00002   0.00000   0.00041   0.00002
 182       14F 0        0.00004   0.00019   0.00001  -0.00037  -0.00031
 183       14F+1        0.00000   0.00000   0.00000   0.00000   0.00000
 184       14F-1       -0.00003   0.00021   0.00000   0.00015  -0.00087
 185       14F+2        0.00000   0.00027   0.00000  -0.00076  -0.00094
 186       14F-2        0.00000   0.00000   0.00000   0.00000   0.00000
 187       14F+3        0.00000   0.00000   0.00000   0.00000   0.00000
 188       14F-3        0.00013  -0.00004   0.00000   0.00045   0.00061
                          11        12        13        14        15
     Eigenvalues --     1.97417   1.97123   1.97001   1.96728   1.96687
   1 1   C  1S         -0.05785  -0.10033   0.00000   0.00000   0.00000
   2        2S          0.15648   0.27073   0.00000   0.00000   0.00000
   3        3S          0.03698   0.06658   0.00000   0.00000   0.00000
   4        4S          0.02104   0.14248   0.00000   0.00000   0.00000
   5        5S         -0.01922   0.04438   0.00000   0.00000   0.00000
   6        6PX         0.00000   0.00000   0.00000   0.00000   0.10139
   7        6PY         0.00000   0.00000  -0.05075   0.00000   0.00000
   8        6PZ         0.09167   0.01145   0.00000   0.00000   0.00000
   9        7PX         0.00000   0.00000   0.00000   0.00000   0.12454
  10        7PY         0.00000   0.00000  -0.07502   0.00000   0.00000
  11        7PZ         0.11676  -0.00245   0.00000   0.00000   0.00000
  12        8PX         0.00000   0.00000   0.00000   0.00000   0.00554
  13        8PY         0.00000   0.00000   0.05610   0.00000   0.00000
  14        8PZ        -0.05273   0.03710   0.00000   0.00000   0.00000
  15        9PX         0.00000   0.00000   0.00000   0.00000  -0.00093
  16        9PY         0.00000   0.00000  -0.00036   0.00000   0.00000
  17        9PZ        -0.00716   0.01397   0.00000   0.00000   0.00000
  18       10D 0       -0.00745   0.01948   0.00000   0.00000   0.00000
  19       10D+1        0.00000   0.00000   0.00000   0.00000  -0.01486
  20       10D-1        0.00000   0.00000  -0.00893   0.00000   0.00000
  21       10D+2       -0.00958   0.00323   0.00000   0.00000   0.00000
  22       10D-2        0.00000   0.00000   0.00000  -0.01986   0.00000
  23       11D 0       -0.01769   0.03290   0.00000   0.00000   0.00000
  24       11D+1        0.00000   0.00000   0.00000   0.00000  -0.02455
  25       11D-1        0.00000   0.00000  -0.00570   0.00000   0.00000
  26       11D+2       -0.01781   0.00329   0.00000   0.00000   0.00000
  27       11D-2        0.00000   0.00000   0.00000  -0.03199   0.00000
  28       12D 0       -0.00460  -0.00414   0.00000   0.00000   0.00000
  29       12D+1        0.00000   0.00000   0.00000   0.00000  -0.00206
  30       12D-1        0.00000   0.00000   0.01068   0.00000   0.00000
  31       12D+2        0.00047  -0.00009   0.00000   0.00000   0.00000
  32       12D-2        0.00000   0.00000   0.00000   0.00853   0.00000
  33       13F 0        0.00849   0.00146   0.00000   0.00000   0.00000
  34       13F+1        0.00000   0.00000   0.00000   0.00000   0.00425
  35       13F-1        0.00000   0.00000   0.00921   0.00000   0.00000
  36       13F+2        0.00171   0.00265   0.00000   0.00000   0.00000
  37       13F-2        0.00000   0.00000   0.00000   0.00873   0.00000
  38       13F+3        0.00000   0.00000   0.00000   0.00000  -0.00770
  39       13F-3        0.00000   0.00000   0.00514   0.00000   0.00000
  40       14F 0        0.00683   0.00083   0.00000   0.00000   0.00000
  41       14F+1        0.00000   0.00000   0.00000   0.00000  -0.00139
  42       14F-1        0.00000   0.00000   0.01844   0.00000   0.00000
  43       14F+2        0.00691   0.00201   0.00000   0.00000   0.00000
  44       14F-2        0.00000   0.00000   0.00000   0.00922   0.00000
  45       14F+3        0.00000   0.00000   0.00000   0.00000  -0.00045
  46       14F-3        0.00000   0.00000  -0.00014   0.00000   0.00000
  47 2   S  1S          0.03288   0.04356   0.00000   0.00000   0.00000
  48        2S         -0.12819  -0.16710   0.00000   0.00000   0.00000
  49        3S          0.25859   0.35222   0.00000   0.00000   0.00000
  50        4S          0.03297   0.04455   0.00000   0.00000   0.00000
  51        5S          0.17777   0.15266   0.00000   0.00000   0.00000
  52        6S          0.02609  -0.05642   0.00000   0.00000   0.00000
  53        7PX         0.00000   0.00000   0.00000   0.00000   0.01213
  54        7PY         0.00000   0.00000   0.00315   0.00000   0.00000
  55        7PZ         0.03056   0.03530   0.00000   0.00000   0.00000
  56        8PX         0.00000   0.00000   0.00000   0.00000  -0.03057
  57        8PY         0.00000   0.00000  -0.01916   0.00000   0.00000
  58        8PZ        -0.03552  -0.04192   0.00000   0.00000   0.00000
  59        9PX         0.00000   0.00000   0.00000   0.00000  -0.01374
  60        9PY         0.00000   0.00000  -0.00142   0.00000   0.00000
  61        9PZ        -0.01963  -0.02442   0.00000   0.00000   0.00000
  62       10PX         0.00000   0.00000   0.00000   0.00000  -0.02700
  63       10PY         0.00000   0.00000  -0.02292   0.00000   0.00000
  64       10PZ        -0.01417   0.03315   0.00000   0.00000   0.00000
  65       11PX         0.00000   0.00000   0.00000   0.00000  -0.00399
  66       11PY         0.00000   0.00000   0.00445   0.00000   0.00000
  67       11PZ        -0.00039   0.00960   0.00000   0.00000   0.00000
  68       12D 0        0.00586   0.00937   0.00000   0.00000   0.00000
  69       12D+1        0.00000   0.00000   0.00000   0.00000  -0.00823
  70       12D-1        0.00000   0.00000   0.01987   0.00000   0.00000
  71       12D+2       -0.00239   0.00200   0.00000   0.00000   0.00000
  72       12D-2        0.00000   0.00000   0.00000  -0.00421   0.00000
  73       13D 0        0.01738   0.01863   0.00000   0.00000   0.00000
  74       13D+1        0.00000   0.00000   0.00000   0.00000  -0.00482
  75       13D-1        0.00000   0.00000   0.00800   0.00000   0.00000
  76       13D+2       -0.00079   0.00165   0.00000   0.00000   0.00000
  77       13D-2        0.00000   0.00000   0.00000  -0.00132   0.00000
  78       14D 0       -0.00233  -0.01059   0.00000   0.00000   0.00000
  79       14D+1        0.00000   0.00000   0.00000   0.00000  -0.00274
  80       14D-1        0.00000   0.00000   0.01327   0.00000   0.00000
  81       14D+2       -0.00079  -0.00062   0.00000   0.00000   0.00000
  82       14D-2        0.00000   0.00000   0.00000  -0.00470   0.00000
  83       15F 0       -0.00548  -0.00710   0.00000   0.00000   0.00000
  84       15F+1        0.00000   0.00000   0.00000   0.00000   0.00183
  85       15F-1        0.00000   0.00000  -0.00514   0.00000   0.00000
  86       15F+2        0.00071  -0.00064   0.00000   0.00000   0.00000
  87       15F-2        0.00000   0.00000   0.00000   0.00140   0.00000
  88       15F+3        0.00000   0.00000   0.00000   0.00000  -0.00034
  89       15F-3        0.00000   0.00000   0.00027   0.00000   0.00000
  90       16F 0        0.00692   0.00098   0.00000   0.00000   0.00000
  91       16F+1        0.00000   0.00000   0.00000   0.00000   0.00198
  92       16F-1        0.00000   0.00000  -0.00181   0.00000   0.00000
  93       16F+2       -0.00040  -0.00053   0.00000   0.00000   0.00000
  94       16F-2        0.00000   0.00000   0.00000   0.00325   0.00000
  95       16F+3        0.00000   0.00000   0.00000   0.00000   0.00029
  96       16F-3        0.00000   0.00000  -0.00033   0.00000   0.00000
  97 3   F  1S          0.00051   0.02748   0.01576   0.00000   0.00000
  98        2S         -0.00302  -0.07711  -0.04119   0.00000   0.00000
  99        3S         -0.00069  -0.02611  -0.01377   0.00000   0.00000
 100        4S         -0.01628  -0.09875  -0.03937   0.00000   0.00000
 101        5S         -0.01573  -0.01830   0.00682   0.00000   0.00000
 102        6PX         0.00000   0.00000   0.00000   0.27591   0.25175
 103        6PY        -0.10755   0.15628  -0.15694   0.00000   0.00000
 104        6PZ         0.17703  -0.07264   0.22881   0.00000   0.00000
 105        7PX         0.00000   0.00000   0.00000   0.33577   0.30704
 106        7PY        -0.13129   0.18739  -0.19054   0.00000   0.00000
 107        7PZ         0.21313  -0.08951   0.27630   0.00000   0.00000
 108        8PX         0.00000   0.00000   0.00000   0.23558   0.21235
 109        8PY        -0.08951   0.10423  -0.15135   0.00000   0.00000
 110        8PZ         0.14446  -0.08114   0.18747   0.00000   0.00000
 111        9PX         0.00000   0.00000   0.00000   0.02751   0.01749
 112        9PY        -0.01239   0.00606  -0.01297   0.00000   0.00000
 113        9PZ         0.01024  -0.01491   0.02341   0.00000   0.00000
 114       10D 0        0.00236  -0.00125   0.00228   0.00000   0.00000
 115       10D+1        0.00000   0.00000   0.00000   0.00173   0.00185
 116       10D-1        0.00140   0.00150   0.00111   0.00000   0.00000
 117       10D+2        0.00128  -0.00231   0.00075   0.00000   0.00000
 118       10D-2        0.00000   0.00000   0.00000   0.00207   0.00294
 119       11D 0        0.00831  -0.00520   0.00854   0.00000   0.00000
 120       11D+1        0.00000   0.00000   0.00000   0.00714   0.00784
 121       11D-1        0.00362   0.00321   0.00390   0.00000   0.00000
 122       11D+2        0.00479  -0.00724   0.00349   0.00000   0.00000
 123       11D-2        0.00000   0.00000   0.00000   0.00940   0.01199
 124       12D 0        0.00550  -0.00332   0.00769   0.00000   0.00000
 125       12D+1        0.00000   0.00000   0.00000   0.00484   0.00454
 126       12D-1        0.00315  -0.00288  -0.00189   0.00000   0.00000
 127       12D+2       -0.00020  -0.00013   0.00915   0.00000   0.00000
 128       12D-2        0.00000   0.00000   0.00000   0.00580   0.00800
 129       13F 0        0.00040  -0.00079   0.00063   0.00000   0.00000
 130       13F+1        0.00000   0.00000   0.00000   0.00029   0.00030
 131       13F-1        0.00163  -0.00046   0.00169   0.00000   0.00000
 132       13F+2        0.00001  -0.00097   0.00002   0.00000   0.00000
 133       13F-2        0.00000   0.00000   0.00000   0.00148   0.00164
 134       13F+3        0.00000   0.00000   0.00000  -0.00083  -0.00148
 135       13F-3        0.00073  -0.00086   0.00031   0.00000   0.00000
 136       14F 0        0.00192  -0.00116   0.00079   0.00000   0.00000
 137       14F+1        0.00000   0.00000   0.00000   0.00073   0.00038
 138       14F-1        0.00210  -0.00161   0.00296   0.00000   0.00000
 139       14F+2        0.00033  -0.00086  -0.00014   0.00000   0.00000
 140       14F-2        0.00000   0.00000   0.00000   0.00272   0.00299
 141       14F+3        0.00000   0.00000   0.00000  -0.00255  -0.00208
 142       14F-3        0.00037  -0.00122   0.00154   0.00000   0.00000
 143 4   F  1S          0.00051   0.02748  -0.01576   0.00000   0.00000
 144        2S         -0.00302  -0.07711   0.04119   0.00000   0.00000
 145        3S         -0.00069  -0.02611   0.01377   0.00000   0.00000
 146        4S         -0.01628  -0.09875   0.03937   0.00000   0.00000
 147        5S         -0.01573  -0.01830  -0.00682   0.00000   0.00000
 148        6PX         0.00000   0.00000   0.00000  -0.27591   0.25175
 149        6PY         0.10755  -0.15628  -0.15694   0.00000   0.00000
 150        6PZ         0.17703  -0.07264  -0.22881   0.00000   0.00000
 151        7PX         0.00000   0.00000   0.00000  -0.33577   0.30704
 152        7PY         0.13129  -0.18739  -0.19054   0.00000   0.00000
 153        7PZ         0.21313  -0.08951  -0.27630   0.00000   0.00000
 154        8PX         0.00000   0.00000   0.00000  -0.23558   0.21235
 155        8PY         0.08951  -0.10423  -0.15135   0.00000   0.00000
 156        8PZ         0.14446  -0.08114  -0.18747   0.00000   0.00000
 157        9PX         0.00000   0.00000   0.00000  -0.02751   0.01749
 158        9PY         0.01239  -0.00606  -0.01297   0.00000   0.00000
 159        9PZ         0.01024  -0.01491  -0.02341   0.00000   0.00000
 160       10D 0        0.00236  -0.00125  -0.00228   0.00000   0.00000
 161       10D+1        0.00000   0.00000   0.00000  -0.00173   0.00185
 162       10D-1       -0.00140  -0.00150   0.00111   0.00000   0.00000
 163       10D+2        0.00128  -0.00231  -0.00075   0.00000   0.00000
 164       10D-2        0.00000   0.00000   0.00000   0.00207  -0.00294
 165       11D 0        0.00831  -0.00520  -0.00854   0.00000   0.00000
 166       11D+1        0.00000   0.00000   0.00000  -0.00714   0.00784
 167       11D-1       -0.00362  -0.00321   0.00390   0.00000   0.00000
 168       11D+2        0.00479  -0.00724  -0.00349   0.00000   0.00000
 169       11D-2        0.00000   0.00000   0.00000   0.00940  -0.01199
 170       12D 0        0.00550  -0.00332  -0.00769   0.00000   0.00000
 171       12D+1        0.00000   0.00000   0.00000  -0.00484   0.00454
 172       12D-1       -0.00315   0.00288  -0.00189   0.00000   0.00000
 173       12D+2       -0.00020  -0.00013  -0.00915   0.00000   0.00000
 174       12D-2        0.00000   0.00000   0.00000   0.00580  -0.00800
 175       13F 0        0.00040  -0.00079  -0.00063   0.00000   0.00000
 176       13F+1        0.00000   0.00000   0.00000  -0.00029   0.00030
 177       13F-1       -0.00163   0.00046   0.00169   0.00000   0.00000
 178       13F+2        0.00001  -0.00097  -0.00002   0.00000   0.00000
 179       13F-2        0.00000   0.00000   0.00000   0.00148  -0.00164
 180       13F+3        0.00000   0.00000   0.00000   0.00083  -0.00148
 181       13F-3       -0.00073   0.00086   0.00031   0.00000   0.00000
 182       14F 0        0.00192  -0.00116  -0.00079   0.00000   0.00000
 183       14F+1        0.00000   0.00000   0.00000  -0.00073   0.00038
 184       14F-1       -0.00210   0.00161   0.00296   0.00000   0.00000
 185       14F+2        0.00033  -0.00086   0.00014   0.00000   0.00000
 186       14F-2        0.00000   0.00000   0.00000   0.00272  -0.00299
 187       14F+3        0.00000   0.00000   0.00000   0.00255  -0.00208
 188       14F-3       -0.00037   0.00122   0.00154   0.00000   0.00000
                          16        17        18        19        20
     Eigenvalues --     1.96267   1.95863   1.94275   1.93923   1.91754
   1 1   C  1S         -0.08324   0.00000   0.07715   0.00000   0.00000
   2        2S          0.21847   0.00000  -0.22962   0.00000   0.00000
   3        3S          0.05666   0.00000  -0.05927   0.00000   0.00000
   4        4S          0.10018   0.00000  -0.16339   0.00000   0.00000
   5        5S         -0.01949   0.00000  -0.02224   0.00000   0.00000
   6        6PX         0.00000   0.00000   0.00000   0.00000   0.18310
   7        6PY         0.00000   0.19179   0.00000   0.03513   0.00000
   8        6PZ        -0.13722   0.00000  -0.17979   0.00000   0.00000
   9        7PX         0.00000   0.00000   0.00000   0.00000   0.25625
  10        7PY         0.00000   0.23470   0.00000   0.05014   0.00000
  11        7PZ        -0.17148   0.00000  -0.22071   0.00000   0.00000
  12        8PX         0.00000   0.00000   0.00000   0.00000   0.13671
  13        8PY         0.00000   0.05805   0.00000   0.04888   0.00000
  14        8PZ        -0.01372   0.00000  -0.06790   0.00000   0.00000
  15        9PX         0.00000   0.00000   0.00000   0.00000   0.02087
  16        9PY         0.00000   0.00006   0.00000  -0.00364   0.00000
  17        9PZ        -0.00535   0.00000  -0.00530   0.00000   0.00000
  18       10D 0       -0.00684   0.00000  -0.01003   0.00000   0.00000
  19       10D+1        0.00000   0.00000   0.00000   0.00000   0.01591
  20       10D-1        0.00000  -0.02620   0.00000   0.02134   0.00000
  21       10D+2       -0.01463   0.00000  -0.00753   0.00000   0.00000
  22       10D-2        0.00000   0.00000   0.00000   0.00000   0.00000
  23       11D 0       -0.01741   0.00000  -0.01690   0.00000   0.00000
  24       11D+1        0.00000   0.00000   0.00000   0.00000   0.04775
  25       11D-1        0.00000  -0.05768   0.00000   0.05178   0.00000
  26       11D+2       -0.03537   0.00000  -0.01881   0.00000   0.00000
  27       11D-2        0.00000   0.00000   0.00000   0.00000   0.00000
  28       12D 0        0.00283   0.00000  -0.00596   0.00000   0.00000
  29       12D+1        0.00000   0.00000   0.00000   0.00000   0.01866
  30       12D-1        0.00000  -0.00421   0.00000  -0.02412   0.00000
  31       12D+2        0.00437   0.00000  -0.00255   0.00000   0.00000
  32       12D-2        0.00000   0.00000   0.00000   0.00000   0.00000
  33       13F 0        0.00206   0.00000  -0.00397   0.00000   0.00000
  34       13F+1        0.00000   0.00000   0.00000   0.00000   0.00683
  35       13F-1        0.00000   0.00794   0.00000   0.00707   0.00000
  36       13F+2        0.00540   0.00000   0.00169   0.00000   0.00000
  37       13F-2        0.00000   0.00000   0.00000   0.00000   0.00000
  38       13F+3        0.00000   0.00000   0.00000   0.00000   0.00041
  39       13F-3        0.00000  -0.00256   0.00000   0.00202   0.00000
  40       14F 0        0.01017   0.00000   0.00119   0.00000   0.00000
  41       14F+1        0.00000   0.00000   0.00000   0.00000   0.00026
  42       14F-1        0.00000   0.01874   0.00000  -0.00072   0.00000
  43       14F+2        0.01113   0.00000   0.00059   0.00000   0.00000
  44       14F-2        0.00000   0.00000   0.00000   0.00000   0.00000
  45       14F+3        0.00000   0.00000   0.00000   0.00000   0.00388
  46       14F-3        0.00000  -0.00218   0.00000   0.00043   0.00000
  47 2   S  1S         -0.03555   0.00000   0.02982   0.00000   0.00000
  48        2S          0.13549   0.00000  -0.11429   0.00000   0.00000
  49        3S         -0.29370   0.00000   0.26348   0.00000   0.00000
  50        4S         -0.04051   0.00000   0.03788   0.00000   0.00000
  51        5S         -0.18572   0.00000   0.32970   0.00000   0.00000
  52        6S          0.01487   0.00000   0.05449   0.00000   0.00000
  53        7PX         0.00000   0.00000   0.00000   0.00000  -0.18842
  54        7PY         0.00000  -0.01527   0.00000  -0.21572   0.00000
  55        7PZ        -0.00877   0.00000  -0.17446   0.00000   0.00000
  56        8PX         0.00000   0.00000   0.00000   0.00000   0.43185
  57        8PY         0.00000   0.03110   0.00000   0.52188   0.00000
  58        8PZ         0.00487   0.00000   0.36074   0.00000   0.00000
  59        9PX         0.00000   0.00000   0.00000   0.00000   0.17737
  60        9PY         0.00000   0.01564   0.00000   0.21952   0.00000
  61        9PZ         0.00438   0.00000   0.16550   0.00000   0.00000
  62       10PX         0.00000   0.00000   0.00000   0.00000   0.23517
  63       10PY         0.00000   0.00536   0.00000   0.36849   0.00000
  64       10PZ         0.00237   0.00000   0.09529   0.00000   0.00000
  65       11PX         0.00000   0.00000   0.00000   0.00000   0.00001
  66       11PY         0.00000   0.00054   0.00000   0.02657   0.00000
  67       11PZ        -0.00284   0.00000  -0.00454   0.00000   0.00000
  68       12D 0       -0.00032   0.00000  -0.02722   0.00000   0.00000
  69       12D+1        0.00000   0.00000   0.00000   0.00000  -0.03412
  70       12D-1        0.00000  -0.00567   0.00000  -0.01343   0.00000
  71       12D+2       -0.00163   0.00000  -0.00086   0.00000   0.00000
  72       12D-2        0.00000   0.00000   0.00000   0.00000   0.00000
  73       13D 0       -0.00614   0.00000  -0.04883   0.00000   0.00000
  74       13D+1        0.00000   0.00000   0.00000   0.00000  -0.03481
  75       13D-1        0.00000  -0.00917   0.00000  -0.01532   0.00000
  76       13D+2       -0.00097   0.00000  -0.00093   0.00000   0.00000
  77       13D-2        0.00000   0.00000   0.00000   0.00000   0.00000
  78       14D 0        0.00123   0.00000   0.00535   0.00000   0.00000
  79       14D+1        0.00000   0.00000   0.00000   0.00000  -0.00430
  80       14D-1        0.00000   0.00175   0.00000  -0.01779   0.00000
  81       14D+2       -0.00086   0.00000  -0.00187   0.00000   0.00000
  82       14D-2        0.00000   0.00000   0.00000   0.00000   0.00000
  83       15F 0        0.00393   0.00000   0.01581   0.00000   0.00000
  84       15F+1        0.00000   0.00000   0.00000   0.00000   0.01221
  85       15F-1        0.00000   0.00333   0.00000   0.00828   0.00000
  86       15F+2        0.00022   0.00000   0.00217   0.00000   0.00000
  87       15F-2        0.00000   0.00000   0.00000   0.00000   0.00000
  88       15F+3        0.00000   0.00000   0.00000   0.00000   0.00241
  89       15F-3        0.00000   0.00012   0.00000   0.00263   0.00000
  90       16F 0       -0.00183   0.00000  -0.00550   0.00000   0.00000
  91       16F+1        0.00000   0.00000   0.00000   0.00000  -0.00092
  92       16F-1        0.00000  -0.00056   0.00000   0.00208   0.00000
  93       16F+2        0.00075   0.00000   0.00080   0.00000   0.00000
  94       16F-2        0.00000   0.00000   0.00000   0.00000   0.00000
  95       16F+3        0.00000   0.00000   0.00000   0.00000   0.00188
  96       16F-3        0.00000   0.00143   0.00000   0.00238   0.00000
  97 3   F  1S          0.00688   0.00863  -0.01316  -0.01590   0.00000
  98        2S         -0.02630  -0.01353   0.03636   0.04326   0.00000
  99        3S         -0.01211  -0.00002   0.01048   0.01356   0.00000
 100        4S         -0.09955   0.07830   0.01958   0.03707   0.00000
 101        5S         -0.02145   0.03647  -0.00581   0.05547   0.00000
 102        6PX         0.00000   0.00000   0.00000   0.00000  -0.05386
 103        6PY         0.11773  -0.21634   0.02810   0.02111   0.00000
 104        6PZ         0.16393  -0.10813   0.06364   0.05386   0.00000
 105        7PX         0.00000   0.00000   0.00000   0.00000  -0.06512
 106        7PY         0.14237  -0.26247   0.03578   0.02788   0.00000
 107        7PZ         0.19836  -0.13167   0.07895   0.06676   0.00000
 108        8PX         0.00000   0.00000   0.00000   0.00000  -0.06086
 109        8PY         0.05981  -0.14226   0.01605   0.00997   0.00000
 110        8PZ         0.10760  -0.06700   0.05336   0.05412   0.00000
 111        9PX         0.00000   0.00000   0.00000   0.00000  -0.02536
 112        9PY        -0.00457  -0.00869   0.00006   0.01515   0.00000
 113        9PZ         0.00826   0.00439   0.01052   0.01825   0.00000
 114       10D 0        0.00004  -0.00044  -0.00065  -0.00037   0.00000
 115       10D+1        0.00000   0.00000   0.00000   0.00000   0.00107
 116       10D-1        0.00422  -0.00480   0.00052   0.00044   0.00000
 117       10D+2       -0.00281   0.00283  -0.00096  -0.00022   0.00000
 118       10D-2        0.00000   0.00000   0.00000   0.00000   0.00109
 119       11D 0       -0.00008  -0.00236  -0.00208  -0.00223   0.00000
 120       11D+1        0.00000   0.00000   0.00000   0.00000   0.00383
 121       11D-1        0.01420  -0.01647   0.00317   0.00217   0.00000
 122       11D+2       -0.00921   0.00926  -0.00348  -0.00210   0.00000
 123       11D-2        0.00000   0.00000   0.00000   0.00000   0.00296
 124       12D 0       -0.00161  -0.00494  -0.00320  -0.00036   0.00000
 125       12D+1        0.00000   0.00000   0.00000   0.00000   0.00202
 126       12D-1        0.00020  -0.00371  -0.00210  -0.00164   0.00000
 127       12D+2       -0.00183   0.00108  -0.00012   0.00226   0.00000
 128       12D-2        0.00000   0.00000   0.00000   0.00000   0.00373
 129       13F 0       -0.00110   0.00116  -0.00035  -0.00028   0.00000
 130       13F+1        0.00000   0.00000   0.00000   0.00000   0.00024
 131       13F-1        0.00110  -0.00122  -0.00005   0.00011   0.00000
 132       13F+2       -0.00193   0.00223  -0.00049  -0.00030   0.00000
 133       13F-2        0.00000   0.00000   0.00000   0.00000   0.00053
 134       13F+3        0.00000   0.00000   0.00000   0.00000  -0.00035
 135       13F-3       -0.00105   0.00092  -0.00055  -0.00010   0.00000
 136       14F 0       -0.00157   0.00113  -0.00134  -0.00094   0.00000
 137       14F+1        0.00000   0.00000   0.00000   0.00000   0.00050
 138       14F-1        0.00103  -0.00320   0.00011  -0.00064   0.00000
 139       14F+2       -0.00314   0.00337  -0.00139  -0.00034   0.00000
 140       14F-2        0.00000   0.00000   0.00000   0.00000   0.00052
 141       14F+3        0.00000   0.00000   0.00000   0.00000  -0.00017
 142       14F-3       -0.00153   0.00175  -0.00024  -0.00054   0.00000
 143 4   F  1S          0.00688  -0.00863  -0.01316   0.01590   0.00000
 144        2S         -0.02630   0.01353   0.03636  -0.04326   0.00000
 145        3S         -0.01211   0.00002   0.01048  -0.01356   0.00000
 146        4S         -0.09955  -0.07830   0.01958  -0.03707   0.00000
 147        5S         -0.02145  -0.03647  -0.00581  -0.05547   0.00000
 148        6PX         0.00000   0.00000   0.00000   0.00000  -0.05386
 149        6PY        -0.11773  -0.21634  -0.02810   0.02111   0.00000
 150        6PZ         0.16393   0.10813   0.06364  -0.05386   0.00000
 151        7PX         0.00000   0.00000   0.00000   0.00000  -0.06512
 152        7PY        -0.14237  -0.26247  -0.03578   0.02788   0.00000
 153        7PZ         0.19836   0.13167   0.07895  -0.06676   0.00000
 154        8PX         0.00000   0.00000   0.00000   0.00000  -0.06086
 155        8PY        -0.05981  -0.14226  -0.01605   0.00997   0.00000
 156        8PZ         0.10760   0.06700   0.05336  -0.05412   0.00000
 157        9PX         0.00000   0.00000   0.00000   0.00000  -0.02536
 158        9PY         0.00457  -0.00869  -0.00006   0.01515   0.00000
 159        9PZ         0.00826  -0.00439   0.01052  -0.01825   0.00000
 160       10D 0        0.00004   0.00044  -0.00065   0.00037   0.00000
 161       10D+1        0.00000   0.00000   0.00000   0.00000   0.00107
 162       10D-1       -0.00422  -0.00480  -0.00052   0.00044   0.00000
 163       10D+2       -0.00281  -0.00283  -0.00096   0.00022   0.00000
 164       10D-2        0.00000   0.00000   0.00000   0.00000  -0.00109
 165       11D 0       -0.00008   0.00236  -0.00208   0.00223   0.00000
 166       11D+1        0.00000   0.00000   0.00000   0.00000   0.00383
 167       11D-1       -0.01420  -0.01647  -0.00317   0.00217   0.00000
 168       11D+2       -0.00921  -0.00926  -0.00348   0.00210   0.00000
 169       11D-2        0.00000   0.00000   0.00000   0.00000  -0.00296
 170       12D 0       -0.00161   0.00494  -0.00320   0.00036   0.00000
 171       12D+1        0.00000   0.00000   0.00000   0.00000   0.00202
 172       12D-1       -0.00020  -0.00371   0.00210  -0.00164   0.00000
 173       12D+2       -0.00183  -0.00108  -0.00012  -0.00226   0.00000
 174       12D-2        0.00000   0.00000   0.00000   0.00000  -0.00373
 175       13F 0       -0.00110  -0.00116  -0.00035   0.00028   0.00000
 176       13F+1        0.00000   0.00000   0.00000   0.00000   0.00024
 177       13F-1       -0.00110  -0.00122   0.00005   0.00011   0.00000
 178       13F+2       -0.00193  -0.00223  -0.00049   0.00030   0.00000
 179       13F-2        0.00000   0.00000   0.00000   0.00000  -0.00053
 180       13F+3        0.00000   0.00000   0.00000   0.00000  -0.00035
 181       13F-3        0.00105   0.00092   0.00055  -0.00010   0.00000
 182       14F 0       -0.00157  -0.00113  -0.00134   0.00094   0.00000
 183       14F+1        0.00000   0.00000   0.00000   0.00000   0.00050
 184       14F-1       -0.00103  -0.00320  -0.00011  -0.00064   0.00000
 185       14F+2       -0.00314  -0.00337  -0.00139   0.00034   0.00000
 186       14F-2        0.00000   0.00000   0.00000   0.00000  -0.00052
 187       14F+3        0.00000   0.00000   0.00000   0.00000  -0.00017
 188       14F-3        0.00153   0.00175   0.00024  -0.00054   0.00000
                          21        22        23        24        25
     Eigenvalues --     0.07370   0.04108   0.03984   0.03213   0.01919
   1 1   C  1S          0.00000   0.17797   0.00000   0.02594   0.03100
   2        2S          0.00000  -0.60475   0.00000  -0.06115  -0.08893
   3        3S          0.00000  -0.21379   0.00000   0.02293  -0.03793
   4        4S          0.00000  -0.63910   0.00000   0.09091   0.09653
   5        5S          0.00000  -0.11859   0.00000   0.03894   0.10363
   6        6PX         0.31785   0.00000   0.00000   0.00000   0.00000
   7        6PY         0.00000   0.00000   0.30539   0.00000   0.00000
   8        6PZ         0.00000  -0.02751   0.00000   0.37408   0.05555
   9        7PX         0.44579   0.00000   0.00000   0.00000   0.00000
  10        7PY         0.00000   0.00000   0.58295   0.00000   0.00000
  11        7PZ         0.00000  -0.01582   0.00000   0.67198   0.05723
  12        8PX         0.15563   0.00000   0.00000   0.00000   0.00000
  13        8PY         0.00000   0.00000   0.11263   0.00000   0.00000
  14        8PZ         0.00000  -0.20300   0.00000   0.28953   0.30954
  15        9PX         0.00761   0.00000   0.00000   0.00000   0.00000
  16        9PY         0.00000   0.00000   0.01505   0.00000   0.00000
  17        9PZ         0.00000  -0.00696   0.00000  -0.00432   0.03502
  18       10D 0        0.00000  -0.00068   0.00000   0.01065   0.05840
  19       10D+1        0.01631   0.00000   0.00000   0.00000   0.00000
  20       10D-1        0.00000   0.00000   0.03027   0.00000   0.00000
  21       10D+2        0.00000  -0.00902   0.00000   0.00402   0.04721
  22       10D-2        0.00000   0.00000   0.00000   0.00000   0.00000
  23       11D 0        0.00000  -0.04037   0.00000   0.07474   0.15609
  24       11D+1        0.07290   0.00000   0.00000   0.00000   0.00000
  25       11D-1        0.00000   0.00000  -0.06121   0.00000   0.00000
  26       11D+2        0.00000   0.03145   0.00000   0.06343   0.14262
  27       11D-2        0.00000   0.00000   0.00000   0.00000   0.00000
  28       12D 0        0.00000  -0.05239   0.00000   0.02507   0.01415
  29       12D+1        0.02842   0.00000   0.00000   0.00000   0.00000
  30       12D-1        0.00000   0.00000  -0.03036   0.00000   0.00000
  31       12D+2        0.00000   0.00727   0.00000   0.01904   0.02320
  32       12D-2        0.00000   0.00000   0.00000   0.00000   0.00000
  33       13F 0        0.00000  -0.00704   0.00000   0.01444  -0.00192
  34       13F+1        0.01201   0.00000   0.00000   0.00000   0.00000
  35       13F-1        0.00000   0.00000   0.03354   0.00000   0.00000
  36       13F+2        0.00000  -0.02304   0.00000  -0.01999   0.01238
  37       13F-2        0.00000   0.00000   0.00000   0.00000   0.00000
  38       13F+3       -0.00123   0.00000   0.00000   0.00000   0.00000
  39       13F-3        0.00000   0.00000  -0.01137   0.00000   0.00000
  40       14F 0        0.00000  -0.02560   0.00000  -0.00736  -0.02603
  41       14F+1        0.02899   0.00000   0.00000   0.00000   0.00000
  42       14F-1        0.00000   0.00000   0.11802   0.00000   0.00000
  43       14F+2        0.00000  -0.01709   0.00000  -0.04064  -0.02797
  44       14F-2        0.00000   0.00000   0.00000   0.00000   0.00000
  45       14F+3        0.00923   0.00000   0.00000   0.00000   0.00000
  46       14F-3        0.00000   0.00000   0.02793   0.00000   0.00000
  47 2   S  1S          0.00000   0.02019   0.00000  -0.01373   0.01077
  48        2S          0.00000  -0.05468   0.00000   0.03047  -0.05302
  49        3S          0.00000   0.21258   0.00000  -0.15431   0.09423
  50        4S          0.00000   0.01073   0.00000   0.02726   0.08247
  51        5S          0.00000   0.49630   0.00000  -0.56226  -0.39583
  52        6S          0.00000   0.14771   0.00000  -0.14172  -0.18754
  53        7PX         0.18380   0.00000   0.00000   0.00000   0.00000
  54        7PY         0.00000   0.00000   0.10491   0.00000   0.00000
  55        7PZ         0.00000   0.17657   0.00000  -0.10165   0.03104
  56        8PX        -0.49167   0.00000   0.00000   0.00000   0.00000
  57        8PY         0.00000   0.00000  -0.29910   0.00000   0.00000
  58        8PZ         0.00000  -0.57921   0.00000   0.50811   0.02792
  59        9PX        -0.20144   0.00000   0.00000   0.00000   0.00000
  60        9PY         0.00000   0.00000  -0.14141   0.00000   0.00000
  61        9PZ         0.00000  -0.19366   0.00000   0.09740  -0.04595
  62       10PX        -0.13031   0.00000   0.00000   0.00000   0.00000
  63       10PY         0.00000   0.00000   0.03344   0.00000   0.00000
  64       10PZ         0.00000  -0.30035   0.00000   0.37419   0.20590
  65       11PX        -0.00356   0.00000   0.00000   0.00000   0.00000
  66       11PY         0.00000   0.00000  -0.00206   0.00000   0.00000
  67       11PZ         0.00000  -0.02062   0.00000   0.02564   0.02339
  68       12D 0        0.00000  -0.07341   0.00000   0.05613   0.11178
  69       12D+1       -0.05766   0.00000   0.00000   0.00000   0.00000
  70       12D-1        0.00000   0.00000  -0.18272   0.00000   0.00000
  71       12D+2        0.00000  -0.04420   0.00000   0.02962   0.39443
  72       12D-2        0.00000   0.00000   0.00000   0.00000   0.00000
  73       13D 0        0.00000  -0.09317   0.00000   0.14713   0.10960
  74       13D+1       -0.07082   0.00000   0.00000   0.00000   0.00000
  75       13D-1        0.00000   0.00000  -0.15582   0.00000   0.00000
  76       13D+2        0.00000  -0.03135   0.00000   0.01718   0.28039
  77       13D-2        0.00000   0.00000   0.00000   0.00000   0.00000
  78       14D 0        0.00000   0.03578   0.00000  -0.07379  -0.03547
  79       14D+1        0.01360   0.00000   0.00000   0.00000   0.00000
  80       14D-1        0.00000   0.00000  -0.03245   0.00000   0.00000
  81       14D+2        0.00000  -0.00827   0.00000   0.00428   0.02484
  82       14D-2        0.00000   0.00000   0.00000   0.00000   0.00000
  83       15F 0        0.00000   0.01722   0.00000  -0.02451  -0.02433
  84       15F+1        0.01923   0.00000   0.00000   0.00000   0.00000
  85       15F-1        0.00000   0.00000   0.03146   0.00000   0.00000
  86       15F+2        0.00000   0.00269   0.00000  -0.00329  -0.03398
  87       15F-2        0.00000   0.00000   0.00000   0.00000   0.00000
  88       15F+3       -0.00358   0.00000   0.00000   0.00000   0.00000
[...]
  92       16F-1        0.66569  -0.17963   0.00000   0.00000   0.00203
  93       16F+2        0.00000   0.00000   0.04906   0.00000   0.00000
  94       16F-2        0.00000   0.00000   0.00000   0.00000   0.00000
  95       16F+3        0.00000   0.00000   0.00000  -0.04363   0.00000
  96       16F-3       -0.01720  -0.07244   0.00000   0.00000   0.00348
  97 3   F  1S         -0.03816   0.00212  -0.04679   0.00000  -0.08852
  98        2S         -0.15314  -0.03320  -0.20389   0.00000  -0.41433
  99        3S          0.05210  -0.04674   0.04831   0.00000   0.05330
 100        4S          1.63097   0.63857   0.87266   0.00000   3.21819
 101        5S          6.42384   1.12190   7.22251   0.00000  17.19721
 102        6PX         0.00000   0.00000   0.00000   0.02009   0.00000
 103        6PY         0.00242   0.01233   0.00561   0.00000   0.01256
 104        6PZ        -0.02213   0.00658   0.00281   0.00000   0.00527
 105        7PX         0.00000   0.00000   0.00000  -0.07555   0.00000
 106        7PY         0.03841  -0.07228  -0.04705   0.00000  -0.05109
 107        7PZ         0.15500  -0.05024  -0.02412   0.00000  -0.01478
 108        8PX         0.00000   0.00000   0.00000   0.07710   0.00000
 109        8PY         0.61654   0.96241   0.36746   0.00000   2.49149
 110        8PZ        -1.73265   1.21525   0.05711   0.00000   0.77519
 111        9PX         0.00000   0.00000   0.00000  -1.14583   0.00000
 112        9PY        -0.12581  -1.54358   0.77859   0.00000   4.93713
 113        9PZ        -1.77772   0.26184   4.74517   0.00000   1.69639
 114       10D 0       -0.01827  -0.00654   0.00132   0.00000  -0.00310
 115       10D+1        0.00000   0.00000   0.00000  -0.01524   0.00000
 116       10D-1       -0.00802  -0.00617   0.02601   0.00000   0.00056
 117       10D+2        0.05000   0.01876   0.00494   0.00000  -0.00336
 118       10D-2        0.00000   0.00000   0.00000  -0.00442   0.00000
 119       11D 0        0.05170   0.01613   0.00049   0.00000   0.00944
 120       11D+1        0.00000   0.00000   0.00000   0.05635   0.00000
 121       11D-1        0.03137   0.04454  -0.09063   0.00000   0.03079
 122       11D+2       -0.18321  -0.06605  -0.01125   0.00000  -0.01778
 123       11D-2        0.00000   0.00000   0.00000   0.01649   0.00000
 124       12D 0       -0.79453   0.16018  -0.11453   0.00000  -0.44708
 125       12D+1        0.00000   0.00000   0.00000  -0.18609   0.00000
 126       12D-1       -0.33910   0.37964   0.11639   0.00000   0.42084
 127       12D+2        0.37416  -0.11590  -0.02334   0.00000  -0.48837
 128       12D-2        0.00000   0.00000   0.00000  -0.09748   0.00000
 129       13F 0        0.00783   0.01704   0.00404   0.00000   0.00990
 130       13F+1        0.00000   0.00000   0.00000  -0.00997   0.00000
 131       13F-1       -0.00059  -0.01735   0.02700   0.00000   0.00965
 132       13F+2        0.02948   0.01641  -0.02209   0.00000   0.00290
 133       13F-2        0.00000   0.00000   0.00000   0.00914   0.00000
 134       13F+3        0.00000   0.00000   0.00000  -0.00028   0.00000
 135       13F-3       -0.01874   0.01888   0.00831   0.00000  -0.00563
 136       14F 0       -0.04791  -0.04904  -0.00612   0.00000  -0.06424
 137       14F+1        0.00000   0.00000   0.00000   0.01577   0.00000
 138       14F-1       -0.04777   0.06210  -0.05404   0.00000  -0.02629
 139       14F+2       -0.04635  -0.07171   0.03877   0.00000  -0.05226
 140       14F-2        0.00000   0.00000   0.00000  -0.01116   0.00000
 141       14F+3        0.00000   0.00000   0.00000   0.00071   0.00000
 142       14F-3        0.05326  -0.05710  -0.02173   0.00000  -0.01954
 143 4   F  1S          0.03816  -0.00212  -0.04679   0.00000   0.08852
 144        2S          0.15314   0.03320  -0.20389   0.00000   0.41433
 145        3S         -0.05210   0.04674   0.04831   0.00000  -0.05330
 146        4S         -1.63097  -0.63857   0.87266   0.00000  -3.21819
 147        5S         -6.42384  -1.12190   7.22251   0.00000 -17.19721
 148        6PX         0.00000   0.00000   0.00000   0.02009   0.00000
 149        6PY         0.00242   0.01233  -0.00561   0.00000   0.01256
 150        6PZ         0.02213  -0.00658   0.00281   0.00000  -0.00527
 151        7PX         0.00000   0.00000   0.00000  -0.07555   0.00000
 152        7PY         0.03841  -0.07228   0.04705   0.00000  -0.05109
 153        7PZ        -0.15500   0.05024  -0.02412   0.00000   0.01478
 154        8PX         0.00000   0.00000   0.00000   0.07710   0.00000
 155        8PY         0.61654   0.96241  -0.36746   0.00000   2.49149
 156        8PZ         1.73265  -1.21525   0.05711   0.00000  -0.77519
 157        9PX         0.00000   0.00000   0.00000  -1.14583   0.00000
 158        9PY        -0.12581  -1.54358  -0.77859   0.00000   4.93713
 159        9PZ         1.77772  -0.26184   4.74517   0.00000  -1.69639
 160       10D 0        0.01827   0.00654   0.00132   0.00000   0.00310
 161       10D+1        0.00000   0.00000   0.00000  -0.01524   0.00000
 162       10D-1       -0.00802  -0.00617  -0.02601   0.00000   0.00056
 163       10D+2       -0.05000  -0.01876   0.00494   0.00000   0.00336
 164       10D-2        0.00000   0.00000   0.00000   0.00442   0.00000
 165       11D 0       -0.05170  -0.01613   0.00049   0.00000  -0.00944
 166       11D+1        0.00000   0.00000   0.00000   0.05635   0.00000
 167       11D-1        0.03137   0.04454   0.09063   0.00000   0.03079
 168       11D+2        0.18321   0.06605  -0.01125   0.00000   0.01778
 169       11D-2        0.00000   0.00000   0.00000  -0.01649   0.00000
 170       12D 0        0.79453  -0.16018  -0.11453   0.00000   0.44708
 171       12D+1        0.00000   0.00000   0.00000  -0.18609   0.00000
 172       12D-1       -0.33910   0.37964  -0.11639   0.00000   0.42084
 173       12D+2       -0.37416   0.11590  -0.02334   0.00000   0.48837
 174       12D-2        0.00000   0.00000   0.00000   0.09748   0.00000
 175       13F 0       -0.00783  -0.01704   0.00404   0.00000  -0.00990
 176       13F+1        0.00000   0.00000   0.00000  -0.00997   0.00000
 177       13F-1       -0.00059  -0.01735  -0.02700   0.00000   0.00965
 178       13F+2       -0.02948  -0.01641  -0.02209   0.00000  -0.00290
 179       13F-2        0.00000   0.00000   0.00000  -0.00914   0.00000
 180       13F+3        0.00000   0.00000   0.00000  -0.00028   0.00000
 181       13F-3       -0.01874   0.01888  -0.00831   0.00000  -0.00563
 182       14F 0        0.04791   0.04904  -0.00612   0.00000   0.06424
 183       14F+1        0.00000   0.00000   0.00000   0.01577   0.00000
 184       14F-1       -0.04777   0.06210   0.05404   0.00000  -0.02629
 185       14F+2        0.04635   0.07171   0.03877   0.00000   0.05226
 186       14F-2        0.00000   0.00000   0.00000   0.01116   0.00000
 187       14F+3        0.00000   0.00000   0.00000   0.00071   0.00000
 188       14F-3        0.05326  -0.05710   0.02173   0.00000  -0.01954
                         186       187       188
     Eigenvalues --     0.00000   0.00000   0.00000
   1 1   C  1S         -0.06358  -0.06547   0.00713
   2        2S         -0.29971  -0.35472  -0.00537
   3        3S          0.24234   0.16244  -0.01253
   4        4S        -13.15299 -15.02990 -13.76823
   5        5S         -4.52411  -9.60077 -21.72907
   6        6PX         0.00000   0.00000   0.00000
   7        6PY         0.00000   0.00000   0.00000
   8        6PZ        -0.01252   0.00192  -0.00988
   9        7PX         0.00000   0.00000   0.00000
  10        7PY         0.00000   0.00000   0.00000
  11        7PZ         0.73289   0.37362   0.27612
  12        8PX         0.00000   0.00000   0.00000
  13        8PY         0.00000   0.00000   0.00000
  14        8PZ         1.57920  -2.65930  -7.38029
  15        9PX         0.00000   0.00000   0.00000
  16        9PY         0.00000   0.00000   0.00000
  17        9PZ         3.91281  -3.24054  -4.20948
  18       10D 0        0.01923   0.01280   0.01217
  19       10D+1        0.00000   0.00000   0.00000
  20       10D-1        0.00000   0.00000   0.00000
  21       10D+2       -0.03593   0.01356   0.03497
  22       10D-2        0.00000   0.00000   0.00000
  23       11D 0        0.01373  -0.65608  -0.24182
  24       11D+1        0.00000   0.00000   0.00000
  25       11D-1        0.00000   0.00000   0.00000
  26       11D+2        1.15746   0.56505   0.10486
  27       11D-2        0.00000   0.00000   0.00000
  28       12D 0       -1.06385  -1.61616  -1.49004
  29       12D+1        0.00000   0.00000   0.00000
  30       12D-1        0.00000   0.00000   0.00000
  31       12D+2        0.67261   0.84714   0.32159
  32       12D-2        0.00000   0.00000   0.00000
  33       13F 0       -0.05527  -0.02890  -0.00776
  34       13F+1        0.00000   0.00000   0.00000
  35       13F-1        0.00000   0.00000   0.00000
  36       13F+2       -0.06476  -0.04256  -0.01419
  37       13F-2        0.00000   0.00000   0.00000
  38       13F+3        0.00000   0.00000   0.00000
  39       13F-3        0.00000   0.00000   0.00000
  40       14F 0       -0.71051  -0.30339  -0.13031
  41       14F+1        0.00000   0.00000   0.00000
  42       14F-1        0.00000   0.00000   0.00000
  43       14F+2       -0.41804  -0.08738   0.02834
  44       14F-2        0.00000   0.00000   0.00000
  45       14F+3        0.00000   0.00000   0.00000
  46       14F-3        0.00000   0.00000   0.00000
  47 2   S  1S          0.00907  -0.00217  -0.00669
  48        2S          0.13762  -0.02293  -0.07713
  49        3S          0.39677  -0.09267  -0.27476
  50        4S         -0.03256  -0.10695  -0.09530
  51        5S          2.88494   7.86025   7.33803
  52        6S          0.41088   5.96836  23.53071
  53        7PX         0.00000   0.00000   0.00000
  54        7PY         0.00000   0.00000   0.00000
  55        7PZ        -0.02774  -0.04948  -0.00013
  56        8PX         0.00000   0.00000   0.00000
  57        8PY         0.00000   0.00000   0.00000
  58        8PZ        -0.67591  -1.20428  -0.13331
  59        9PX         0.00000   0.00000   0.00000
  60        9PY         0.00000   0.00000   0.00000
  61        9PZ         0.03818   0.12999  -0.02111
  62       10PX         0.00000   0.00000   0.00000
  63       10PY         0.00000   0.00000   0.00000
  64       10PZ        -1.67486  -4.28261  -9.54884
  65       11PX         0.00000   0.00000   0.00000
  66       11PY         0.00000   0.00000   0.00000
  67       11PZ        -1.58700   1.57889  -4.97783
  68       12D 0        0.09213   1.04997   0.43644
  69       12D+1        0.00000   0.00000   0.00000
  70       12D-1        0.00000   0.00000   0.00000
  71       12D+2        0.10324  -0.04998  -0.01898
  72       12D-2        0.00000   0.00000   0.00000
  73       13D 0        0.05825  -0.08199  -0.01976
  74       13D+1        0.00000   0.00000   0.00000
  75       13D-1        0.00000   0.00000   0.00000
  76       13D+2       -0.02006   0.00608   0.00173
  77       13D-2        0.00000   0.00000   0.00000
  78       14D 0        0.76272  -0.36781   2.71243
  79       14D+1        0.00000   0.00000   0.00000
  80       14D-1        0.00000   0.00000   0.00000
  81       14D+2       -0.28000   0.02249  -0.05545
  82       14D-2        0.00000   0.00000   0.00000
  83       15F 0       -0.01311  -0.06340   0.03587
  84       15F+1        0.00000   0.00000   0.00000
  85       15F-1        0.00000   0.00000   0.00000
  86       15F+2       -0.01873   0.01492   0.00127
  87       15F-2        0.00000   0.00000   0.00000
  88       15F+3        0.00000   0.00000   0.00000
  89       15F-3        0.00000   0.00000   0.00000
  90       16F 0       -0.05237  -0.03713  -0.30999
  91       16F+1        0.00000   0.00000   0.00000
  92       16F-1        0.00000   0.00000   0.00000
  93       16F+2        0.04132  -0.00719   0.02072
  94       16F-2        0.00000   0.00000   0.00000
  95       16F+3        0.00000   0.00000   0.00000
  96       16F-3        0.00000   0.00000   0.00000
  97 3   F  1S         -0.02333  -0.03196   0.00295
  98        2S         -0.13524  -0.16783   0.00300
  99        3S         -0.01874  -0.00099  -0.01533
 100        4S          2.44480   1.43561   0.12755
 101        5S          5.59650   5.72711   1.90227
 102        6PX         0.00000   0.00000   0.00000
 103        6PY         0.00155   0.01124   0.00246
 104        6PZ         0.01051   0.00328   0.00189
 105        7PX         0.00000   0.00000   0.00000
 106        7PY         0.00584  -0.06348  -0.01829
 107        7PZ        -0.03072  -0.03123  -0.02430
 108        8PX         0.00000   0.00000   0.00000
 109        8PY         1.35855   1.38120   0.40303
 110        8PZ         1.64528   1.02397   0.49210
 111        9PX         0.00000   0.00000   0.00000
 112        9PY         1.03224   0.67610  -0.03334
 113        9PZ        -0.98041   1.30164  -0.19602
 114       10D 0       -0.01985   0.00888  -0.00103
 115       10D+1        0.00000   0.00000   0.00000
 116       10D-1       -0.01206  -0.00406   0.00045
 117       10D+2        0.00070  -0.00212   0.00827
 118       10D-2        0.00000   0.00000   0.00000
 119       11D 0        0.07519  -0.03897  -0.00294
 120       11D+1        0.00000   0.00000   0.00000
 121       11D-1        0.08183   0.02692   0.00232
 122       11D+2       -0.01549  -0.00779  -0.02860
 123       11D-2        0.00000   0.00000   0.00000
 124       12D 0        0.02794   0.14021   0.03771
 125       12D+1        0.00000   0.00000   0.00000
 126       12D-1        0.41498   0.38126   0.23633
 127       12D+2       -0.06180  -0.25821  -0.06590
 128       12D-2        0.00000   0.00000   0.00000
 129       13F 0        0.00505   0.00679   0.00747
 130       13F+1        0.00000   0.00000   0.00000
 131       13F-1       -0.01655  -0.00281  -0.00662
 132       13F+2        0.00747   0.00449   0.01449
 133       13F-2        0.00000   0.00000   0.00000
 134       13F+3        0.00000   0.00000   0.00000
 135       13F-3       -0.02203  -0.00067   0.00753
 136       14F 0       -0.03034  -0.02676  -0.02978
 137       14F+1        0.00000   0.00000   0.00000
 138       14F-1        0.07582   0.01802   0.01624
 139       14F+2       -0.04647  -0.04419  -0.04755
 140       14F-2        0.00000   0.00000   0.00000
 141       14F+3        0.00000   0.00000   0.00000
 142       14F-3        0.04801  -0.01788  -0.02341
 143 4   F  1S         -0.02333  -0.03196   0.00295
 144        2S         -0.13524  -0.16783   0.00300
 145        3S         -0.01874  -0.00099  -0.01533
 146        4S          2.44480   1.43561   0.12755
 147        5S          5.59650   5.72711   1.90227
 148        6PX         0.00000   0.00000   0.00000
 149        6PY        -0.00155  -0.01124  -0.00246
 150        6PZ         0.01051   0.00328   0.00189
 151        7PX         0.00000   0.00000   0.00000
 152        7PY        -0.00584   0.06348   0.01829
 153        7PZ        -0.03072  -0.03123  -0.02430
 154        8PX         0.00000   0.00000   0.00000
 155        8PY        -1.35855  -1.38120  -0.40303
 156        8PZ         1.64528   1.02397   0.49210
 157        9PX         0.00000   0.00000   0.00000
 158        9PY        -1.03224  -0.67610   0.03334
 159        9PZ        -0.98041   1.30164  -0.19602
 160       10D 0       -0.01985   0.00888  -0.00103
 161       10D+1        0.00000   0.00000   0.00000
 162       10D-1        0.01206   0.00406  -0.00045
 163       10D+2        0.00070  -0.00212   0.00827
 164       10D-2        0.00000   0.00000   0.00000
 165       11D 0        0.07519  -0.03897  -0.00294
 166       11D+1        0.00000   0.00000   0.00000
 167       11D-1       -0.08183  -0.02692  -0.00232
 168       11D+2       -0.01549  -0.00779  -0.02860
 169       11D-2        0.00000   0.00000   0.00000
 170       12D 0        0.02794   0.14021   0.03771
 171       12D+1        0.00000   0.00000   0.00000
 172       12D-1       -0.41498  -0.38126  -0.23633
 173       12D+2       -0.06180  -0.25821  -0.06590
 174       12D-2        0.00000   0.00000   0.00000
 175       13F 0        0.00505   0.00679   0.00747
 176       13F+1        0.00000   0.00000   0.00000
 177       13F-1        0.01655   0.00281   0.00662
 178       13F+2        0.00747   0.00449   0.01449
 179       13F-2        0.00000   0.00000   0.00000
 180       13F+3        0.00000   0.00000   0.00000
 181       13F-3        0.02203   0.00067  -0.00753
 182       14F 0       -0.03034  -0.02676  -0.02978
 183       14F+1        0.00000   0.00000   0.00000
 184       14F-1       -0.07582  -0.01802  -0.01624
 185       14F+2       -0.04647  -0.04419  -0.04755
 186       14F-2        0.00000   0.00000   0.00000
 187       14F+3        0.00000   0.00000   0.00000
 188       14F-3       -0.04801   0.01788   0.02341
          Condensed to atoms (all electrons):
              1          2          3          4
     1  C    5.194355   0.240909   0.110114   0.110114
     2  S    0.240909  15.946187  -0.067233  -0.067233
     3  F    0.110114  -0.067233   9.185412  -0.082354
     4  F    0.110114  -0.067233  -0.082354   9.185412
 Mulliken atomic charges:
              1
     1  C    0.344508
     2  S   -0.052630
     3  F   -0.145939
     4  F   -0.145939
 Sum of Mulliken atomic charges =   0.00000
 Mulliken charges with hydrogens summed into heavy atoms:
              1
     1  C    0.344508
     2  S   -0.052630
     3  F   -0.145939
     4  F   -0.145939
 Sum of Mulliken charges with hydrogens summed into heavy atoms =   0.00000
 Electronic spatial extent (au):  <R**2>=            314.9877
 Charge=              0.0000 electrons
 Dipole moment (field-independent basis, Debye):
    X=              0.0000    Y=              0.0000    Z=             -0.1018  Tot=              0.1018
 Quadrupole moment (field-independent basis, Debye-Ang):
   XX=            -27.2398   YY=            -30.1685   ZZ=            -27.9780
   XY=              0.0000   XZ=              0.0000   YZ=              0.0000
 Traceless Quadrupole moment (field-independent basis, Debye-Ang):
   XX=              1.2223   YY=             -1.7064   ZZ=              0.4841
   XY=              0.0000   XZ=              0.0000   YZ=              0.0000
 Octapole moment (field-independent basis, Debye-Ang**2):
  XXX=              0.0000  YYY=              0.0000  ZZZ=              8.9229  XYY=              0.0000
  XXY=              0.0000  XXZ=              0.8087  XZZ=              0.0000  YZZ=              0.0000
  YYZ=              0.9059  XYZ=              0.0000
 Hexadecapole moment (field-independent basis, Debye-Ang**3):
 XXXX=            -27.9682 YYYY=            -96.2663 ZZZZ=           -214.7985 XXXY=              0.0000
 XXXZ=              0.0000 YYYX=              0.0000 YYYZ=              0.0000 ZZZX=              0.0000
 ZZZY=              0.0000 XXYY=            -20.6992 XXZZ=            -40.4313 YYZZ=            -55.5883
 XXYZ=              0.0000 YYXZ=              0.0000 ZZXY=              0.0000
 N-N= 1.543955420628D+02 E-N=-1.820146090627D+03  KE= 6.349985288547D+02
 1\1\GINC-TRAPISTA\SP\RQCISD-FC\Aug-CC-pVTZ\C1F2S1\BRUNS\27-Nov-2021\0\
 \# qcisd/aug-cc-pvtz nosymm density=current output=wfn\\f2cs-wavefunct
 ion\\0,1\C,0,0.,0.,-0.510349\S,0,0.,0.,1.078525\F,0,0.,-1.055221,-1.29
 5538\F,0,0.,1.055221,-1.295538\\Version=EM64L-G09RevB.01\HF=-634.35630
 63\MP2=-635.1964312\MP3=-635.1996286\MP4D=-635.2166156\MP4DQ=-635.1972
 56\MP4SDQ=-635.2081279\QCISD=-635.2071922\RMSD=7.022e-09\Dipole=0.,0.,
 -0.0400561\Quadrupole=0.9087855,-1.2686775,0.359892,0.,0.,0.\PG=C02V [
 C2(C1S1),SGV(F2)]\\@

 Writing a WFN file to GAUSSIAN.wfn.


 WOMEN HOLD UP HALF THE SKY. -- MAO TSE TUNG
 Job cpu time:  0 days  2 hours  6 minutes 11.8 seconds.
 File lengths (MBytes):  RWF=  17813 Int=      0 D2E=      0 Chk=      3 Scr=      1
 Normal termination of Gaussian 09 at Sat Nov 27 03:32:21 2021.
