 f2cs-wavefunction
GAUSSIAN            188 MOL ORBITALS    330 PRIMITIVES        4 NUCLEI
  C    1    (CENTRE  1)   0.00000000  0.00000000 -0.98331710  CHARGE =  6.0
  S    2    (CENTRE  2)   0.00000000  0.00000000  2.03811688  CHARGE = 16.0
  F    3    (CENTRE  3)   0.00000000 -1.99407870 -2.44821201  CHARGE =  9.0
  F    4    (CENTRE  4)   0.00000000  1.99407870 -2.42931475  CHARGE =  9.0
CENTRE ASSIGNMENTS    1  1  1  1  1  1  1  1  1  1  1  1  1  1  1  1  1  1  1  1
CENTRE ASSIGNMENTS    1  1  1  1  1  1  1  1  1  1  1  1  1  1  1  1  1  1  1  1
CENTRE ASSIGNMENTS    1  1  1  1  1  1  1  1  1  1  1  1  1  1  1  1  1  1  1  1
CENTRE ASSIGNMENTS    1  1  1  1  1  1  1  1  1  1  1  1  2  2  2  2  2  2  2  2
CENTRE ASSIGNMENTS    2  2  2  2  2  2  2  2  2  2  2  2  2  2  2  2  2  2  2  2
CENTRE ASSIGNMENTS    2  2  2  2  2  2  2  2  2  2  2  2  2  2  2  2  2  2  2  2
CENTRE ASSIGNMENTS    2  2  2  2  2  2  2  2  2  2  2  2  2  2  2  2  2  2  2  2
CENTRE ASSIGNMENTS    2  2  2  2  2  2  2  2  2  2  2  2  2  2  2  2  2  2  2  2
CENTRE ASSIGNMENTS    2  2  2  2  2  2  2  2  2  2  2  2  2  2  2  2  2  2  2  2
CENTRE ASSIGNMENTS    2  2  2  2  2  2  3  3  3  3  3  3  3  3  3  3  3  3  3  3
CENTRE ASSIGNMENTS    3  3  3  3  3  3  3  3  3  3  3  3  3  3  3  3  3  3  3  3
CENTRE ASSIGNMENTS    3  3  3  3  3  3  3  3  3  3  3  3  3  3  3  3  3  3  3  3
CENTRE ASSIGNMENTS    3  3  3  3  3  3  3  3  3  3  3  3  3  3  3  3  3  3  4  4
CENTRE ASSIGNMENTS    4  4  4  4  4  4  4  4  4  4  4  4  4  4  4  4  4  4  4  4
CENTRE ASSIGNMENTS    4  4  4  4  4  4  4  4  4  4  4  4  4  4  4  4  4  4  4  4
CENTRE ASSIGNMENTS    4  4  4  4  4  4  4  4  4  4  4  4  4  4  4  4  4  4  4  4
CENTRE ASSIGNMENTS    4  4  4  4  4  4  4  4  4  4
TYPE ASSIGNMENTS      1  1  1  1  1  1  1  1  1  1  1  1  1  1  1  1  2  2  2  3
TYPE ASSIGNMENTS      3  3  4  4  4  2  3  4  2  3  4  2  3  4  5  6  7  8  9 10
TYPE ASSIGNMENTS      5  6  7  8  9 10  5  6  7  8  9 10 11 12 13 17 14 15 18 19
TYPE ASSIGNMENTS     16 20 11 12 13 17 14 15 18 19 16 20  1  1  1  1  1  1  1  1
TYPE ASSIGNMENTS      1  1  1  1  1  1  1  1  1  1  1  1  1  1  1  1  1  1  1  1
TYPE ASSIGNMENTS      1  1  1  2  2  2  2  2  2  3  3  3  3  3  3  4  4  4  4  4
TYPE ASSIGNMENTS      4  2  2  2  2  2  2  3  3  3  3  3  3  4  4  4  4  4  4  2
TYPE ASSIGNMENTS      3  4  2  3  4  2  3  4  5  6  7  8  9 10  5  6  7  8  9 10
TYPE ASSIGNMENTS      5  6  7  8  9 10 11 12 13 17 14 15 18 19 16 20 11 12 13 17
TYPE ASSIGNMENTS     14 15 18 19 16 20  1  1  1  1  1  1  1  1  1  1  1  1  1  1
TYPE ASSIGNMENTS      1  1  2  2  2  3  3  3  4  4  4  2  3  4  2  3  4  2  3  4
TYPE ASSIGNMENTS      5  6  7  8  9 10  5  6  7  8  9 10  5  6  7  8  9 10 11 12
TYPE ASSIGNMENTS     13 17 14 15 18 19 16 20 11 12 13 17 14 15 18 19 16 20  1  1
TYPE ASSIGNMENTS      1  1  1  1  1  1  1  1  1  1  1  1  1  1  2  2  2  3  3  3
TYPE ASSIGNMENTS      4  4  4  2  3  4  2  3  4  2  3  4  5  6  7  8  9 10  5  6
TYPE ASSIGNMENTS      7  8  9 10  5  6  7  8  9 10 11 12 13 17 14 15 18 19 16 20
TYPE ASSIGNMENTS     11 12 13 17 14 15 18 19 16 20
EXPONENTS  0.8236000D+04 0.1235000D+04 0.2808000D+03 0.7927000D+02 0.2559000D+02
EXPONENTS  0.8997000D+01 0.3319000D+01 0.2808000D+03 0.7927000D+02 0.2559000D+02
EXPONENTS  0.8997000D+01 0.3319000D+01 0.3643000D+00 0.9059000D+00 0.1285000D+00
EXPONENTS  0.4402000D-01 0.1871000D+02 0.4133000D+01 0.1200000D+01 0.1871000D+02
EXPONENTS  0.4133000D+01 0.1200000D+01 0.1871000D+02 0.4133000D+01 0.1200000D+01
EXPONENTS  0.3827000D+00 0.3827000D+00 0.3827000D+00 0.1209000D+00 0.1209000D+00
EXPONENTS  0.1209000D+00 0.3569000D-01 0.3569000D-01 0.3569000D-01 0.1097000D+01
EXPONENTS  0.1097000D+01 0.1097000D+01 0.1097000D+01 0.1097000D+01 0.1097000D+01
EXPONENTS  0.3180000D+00 0.3180000D+00 0.3180000D+00 0.3180000D+00 0.3180000D+00
EXPONENTS  0.3180000D+00 0.1000000D+00 0.1000000D+00 0.1000000D+00 0.1000000D+00
EXPONENTS  0.1000000D+00 0.1000000D+00 0.7610000D+00 0.7610000D+00 0.7610000D+00
EXPONENTS  0.7610000D+00 0.7610000D+00 0.7610000D+00 0.7610000D+00 0.7610000D+00
EXPONENTS  0.7610000D+00 0.7610000D+00 0.2680000D+00 0.2680000D+00 0.2680000D+00
EXPONENTS  0.2680000D+00 0.2680000D+00 0.2680000D+00 0.2680000D+00 0.2680000D+00
EXPONENTS  0.2680000D+00 0.2680000D+00 0.3741000D+06 0.5605000D+05 0.1276000D+05
EXPONENTS  0.3615000D+04 0.1183000D+04 0.4288000D+03 0.1678000D+03 0.6947000D+02
EXPONENTS  0.2984000D+02 0.1272000D+02 0.5244000D+01 0.3615000D+04 0.1183000D+04
EXPONENTS  0.4288000D+03 0.1678000D+03 0.6947000D+02 0.2984000D+02 0.1272000D+02
EXPONENTS  0.5244000D+01 0.2219000D+01 0.1183000D+04 0.1678000D+03 0.6947000D+02
EXPONENTS  0.2984000D+02 0.1272000D+02 0.5244000D+01 0.2219000D+01 0.3490000D+00
EXPONENTS  0.7767000D+00 0.1322000D+00 0.4970000D-01 0.5744000D+03 0.1358000D+03
EXPONENTS  0.4319000D+02 0.1587000D+02 0.6208000D+01 0.2483000D+01 0.5744000D+03
EXPONENTS  0.1358000D+03 0.4319000D+02 0.1587000D+02 0.6208000D+01 0.2483000D+01
EXPONENTS  0.5744000D+03 0.1358000D+03 0.4319000D+02 0.1587000D+02 0.6208000D+01
EXPONENTS  0.2483000D+01 0.1358000D+03 0.4319000D+02 0.1587000D+02 0.6208000D+01
EXPONENTS  0.2483000D+01 0.3229000D+00 0.1358000D+03 0.4319000D+02 0.1587000D+02
EXPONENTS  0.6208000D+01 0.2483000D+01 0.3229000D+00 0.1358000D+03 0.4319000D+02
EXPONENTS  0.1587000D+02 0.6208000D+01 0.2483000D+01 0.3229000D+00 0.8688000D+00
EXPONENTS  0.8688000D+00 0.8688000D+00 0.1098000D+00 0.1098000D+00 0.1098000D+00
EXPONENTS  0.3510000D-01 0.3510000D-01 0.3510000D-01 0.2690000D+00 0.2690000D+00
EXPONENTS  0.2690000D+00 0.2690000D+00 0.2690000D+00 0.2690000D+00 0.8190000D+00
EXPONENTS  0.8190000D+00 0.8190000D+00 0.8190000D+00 0.8190000D+00 0.8190000D+00
EXPONENTS  0.1010000D+00 0.1010000D+00 0.1010000D+00 0.1010000D+00 0.1010000D+00
EXPONENTS  0.1010000D+00 0.5570000D+00 0.5570000D+00 0.5570000D+00 0.5570000D+00
EXPONENTS  0.5570000D+00 0.5570000D+00 0.5570000D+00 0.5570000D+00 0.5570000D+00
EXPONENTS  0.5570000D+00 0.2180000D+00 0.2180000D+00 0.2180000D+00 0.2180000D+00
EXPONENTS  0.2180000D+00 0.2180000D+00 0.2180000D+00 0.2180000D+00 0.2180000D+00
EXPONENTS  0.2180000D+00 0.1950000D+05 0.2923000D+04 0.6645000D+03 0.1875000D+03
EXPONENTS  0.6062000D+02 0.2142000D+02 0.7950000D+01 0.6645000D+03 0.1875000D+03
EXPONENTS  0.6062000D+02 0.2142000D+02 0.7950000D+01 0.8815000D+00 0.2257000D+01
EXPONENTS  0.3041000D+00 0.9158000D-01 0.4388000D+02 0.9926000D+01 0.2930000D+01
EXPONENTS  0.4388000D+02 0.9926000D+01 0.2930000D+01 0.4388000D+02 0.9926000D+01
EXPONENTS  0.2930000D+01 0.9132000D+00 0.9132000D+00 0.9132000D+00 0.2672000D+00
EXPONENTS  0.2672000D+00 0.2672000D+00 0.7361000D-01 0.7361000D-01 0.7361000D-01
EXPONENTS  0.3107000D+01 0.3107000D+01 0.3107000D+01 0.3107000D+01 0.3107000D+01
EXPONENTS  0.3107000D+01 0.8550000D+00 0.8550000D+00 0.8550000D+00 0.8550000D+00
EXPONENTS  0.8550000D+00 0.8550000D+00 0.2920000D+00 0.2920000D+00 0.2920000D+00
EXPONENTS  0.2920000D+00 0.2920000D+00 0.2920000D+00 0.1917000D+01 0.1917000D+01
EXPONENTS  0.1917000D+01 0.1917000D+01 0.1917000D+01 0.1917000D+01 0.1917000D+01
EXPONENTS  0.1917000D+01 0.1917000D+01 0.1917000D+01 0.7240000D+00 0.7240000D+00
EXPONENTS  0.7240000D+00 0.7240000D+00 0.7240000D+00 0.7240000D+00 0.7240000D+00
EXPONENTS  0.7240000D+00 0.7240000D+00 0.7240000D+00 0.1950000D+05 0.2923000D+04
EXPONENTS  0.6645000D+03 0.1875000D+03 0.6062000D+02 0.2142000D+02 0.7950000D+01
EXPONENTS  0.6645000D+03 0.1875000D+03 0.6062000D+02 0.2142000D+02 0.7950000D+01
EXPONENTS  0.8815000D+00 0.2257000D+01 0.3041000D+00 0.9158000D-01 0.4388000D+02
EXPONENTS  0.9926000D+01 0.2930000D+01 0.4388000D+02 0.9926000D+01 0.2930000D+01
EXPONENTS  0.4388000D+02 0.9926000D+01 0.2930000D+01 0.9132000D+00 0.9132000D+00
EXPONENTS  0.9132000D+00 0.2672000D+00 0.2672000D+00 0.2672000D+00 0.7361000D-01
EXPONENTS  0.7361000D-01 0.7361000D-01 0.3107000D+01 0.3107000D+01 0.3107000D+01
EXPONENTS  0.3107000D+01 0.3107000D+01 0.3107000D+01 0.8550000D+00 0.8550000D+00
EXPONENTS  0.8550000D+00 0.8550000D+00 0.8550000D+00 0.8550000D+00 0.2920000D+00
EXPONENTS  0.2920000D+00 0.2920000D+00 0.2920000D+00 0.2920000D+00 0.2920000D+00
EXPONENTS  0.1917000D+01 0.1917000D+01 0.1917000D+01 0.1917000D+01 0.1917000D+01
EXPONENTS  0.1917000D+01 0.1917000D+01 0.1917000D+01 0.1917000D+01 0.1917000D+01
EXPONENTS  0.7240000D+00 0.7240000D+00 0.7240000D+00 0.7240000D+00 0.7240000D+00
EXPONENTS  0.7240000D+00 0.7240000D+00 0.7240000D+00 0.7240000D+00 0.7240000D+00
MO    1     MO 0.0        OCC NO =    2.0000305  ORB. ENERGY =    0.000000
  0.54369434D-03  0.10135558D-02  0.17130473D-02  0.25750297D-02  0.31629627D-02
  0.26694290D-02  0.10037750D-02  0.15885496D-06  0.11873424D-05  0.44373697D-05
  0.12379571D-04  0.16585212D-04 -0.19584042D-04  0.36577984D-04  0.13953894D-04
 -0.11213740D-05  0.45176140D-12  0.42355503D-12  0.30159641D-12 -0.30266368D-02
 -0.28376644D-02 -0.20205861D-02 -0.64700849D-04 -0.60661158D-04 -0.43194359D-04
  0.83526481D-13 -0.15663072D-02 -0.44219063D-05  0.61726880D-14  0.61568132D-03
  0.16074169D-05 -0.41729436D-15 -0.13510159D-04 -0.21156718D-06 -0.10725095D-05
  0.58584145D-05 -0.47859050D-05  0.16350945D-14  0.11335698D-12 -0.10158674D-02
 -0.55616198D-06 -0.42231604D-05  0.47793224D-05 -0.17494283D-14 -0.48297890D-13
  0.39369253D-03  0.16240316D-06  0.34186863D-06 -0.50427179D-06 -0.20980272D-15
  0.11580196D-14 -0.22463427D-03 -0.10948053D-13  0.24174879D-03 -0.11236521D-05
 -0.10036959D-13  0.35772551D-03  0.29070176D-05  0.42881118D-13 -0.10829719D-02
  0.46393879D-06  0.16707018D-14  0.42668183D-14 -0.13902576D-03 -0.50464062D-06
  0.76128886D-14 -0.12911812D-03  0.36200796D-06 -0.20413344D-13  0.54619539D-03
  0.11519139D-05  0.16762758D-14  0.60053863D-03  0.11227675D-02  0.19404759D-02
  0.31386398D-02  0.47439490D-02  0.65333999D-02  0.76367489D-02  0.66001948D-02
  0.30803453D-02  0.41731920D-03 -0.30523327D-05  0.74433957D-05  0.95684103D-04
  0.34904185D-03  0.11776586D-02  0.25866666D-02  0.33412677D-02 -0.53697016D-03
 -0.45045414D-02 -0.24720342D-02  0.74842594D-07  0.85250368D-06  0.17701049D-05
  0.48673390D-05 -0.63110640D-06 -0.22007891D-04 -0.54891174D-04  0.45438119D-04
 -0.13347292D-03 -0.53449827D-05  0.11820930D-05 -0.10908840D-08 -0.14311777D-08
 -0.15696923D-08 -0.12914955D-08 -0.68080299D-09 -0.17713213D-09  0.97651145D+01
  0.12811275D+02  0.14051196D+02  0.11560901D+02  0.60942495D+01  0.15856091D+01
 -0.73077382D-01 -0.95873370D-01 -0.10515234D+00 -0.86516176D-01 -0.45606409D-01
 -0.11865930D-01 -0.64323424D-14 -0.23089299D-12 -0.36631752D-12 -0.43499081D-12
 -0.65825576D-13  0.47906620D-12  0.94933254D-04  0.34076891D-02  0.54063841D-02
  0.64199153D-02  0.97150240D-03 -0.70704124D-02 -0.70177886D-06 -0.25190795D-04
 -0.39965828D-04 -0.47458195D-04 -0.71816757D-05  0.52266890D-04 -0.82128413D-11
  0.67595460D-01 -0.52502588D-03  0.44890347D-14 -0.38577133D-03  0.70132488D-05
  0.22241771D-14 -0.72881067D-05  0.36578272D-07  0.31188174D-05  0.25308767D-05
 -0.56496942D-05 -0.68855847D-15 -0.66471165D-13  0.96752215D-03 -0.10119599D-05
  0.87187982D-06  0.14008005D-06  0.16699708D-14  0.28759400D-13 -0.56301075D-03
  0.26936992D-06  0.19627997D-06 -0.46564989D-06  0.54454149D-16  0.28740618D-15
 -0.41106333D-04 -0.90067895D-14  0.35150340D-04  0.66575287D-06  0.43748607D-14
  0.10975460D-03 -0.14342663D-05  0.22645508D-13 -0.21520562D-03 -0.56299231D-06
  0.87382523D-15 -0.13113450D-14  0.35040275D-04  0.51607080D-06 -0.33726253D-14
  0.16623439D-04 -0.81042542D-06  0.73066603D-14 -0.12174426D-03 -0.73778698D-06
  0.27769646D-15  0.50009354D-02  0.93217522D-02  0.15802447D-01  0.23927041D-01
  0.29914072D-01  0.25731466D-01  0.98685710D-02 -0.67224230D-06 -0.88992293D-05
 -0.32323620D-04 -0.95887410D-04 -0.11049087D-03  0.13420762D-03  0.58173885D-03
  0.93181483D-04  0.85267323D-03 -0.72904116D-12 -0.71298634D-12 -0.47110022D-12
 -0.13299081D-02 -0.13006211D-02 -0.85937533D-03 -0.38559319D-02 -0.37710172D-02
 -0.24916705D-02 -0.17285055D-12 -0.39277539D-03 -0.10700671D-02 -0.37065726D-13
 -0.14536956D-03 -0.74856483D-03 -0.32196535D-15  0.92235549D-04  0.11621476D-04
  0.21697359D-04  0.29021781D-04 -0.50719140D-04  0.40993586D-13  0.24013042D-13
  0.26363036D-03 -0.53002450D-04 -0.13292111D-03  0.18592356D-03 -0.70436540D-14
  0.56717105D-14 -0.15018566D-03  0.11056487D-03 -0.20714362D-04 -0.89850512D-04
 -0.47532761D-15 -0.76685172D-14 -0.27938779D-03  0.35983583D-14 -0.25843063D-04
 -0.54222314D-04  0.64406667D-14 -0.33478972D-03  0.21274486D-04 -0.17235742D-13
  0.41231891D-03  0.14139246D-03  0.64208679D-13 -0.61322685D-15 -0.63927993D-04
  0.94977163D-04 -0.53754800D-14  0.20207003D-03 -0.41591587D-04  0.72151606D-14
 -0.10286052D-04 -0.24333990D-03 -0.20424545D-13 -0.52492294D-02 -0.97845726D-02
 -0.16587030D-01 -0.25115007D-01 -0.31399291D-01 -0.27009021D-01 -0.10358541D-01
  0.59466946D-06  0.78723102D-05  0.28593663D-04  0.84822562D-04  0.97740871D-04
 -0.11872085D-03 -0.59896536D-03 -0.74067861D-04 -0.85551966D-03 -0.73773719D-12
 -0.72149085D-12 -0.47671951D-12 -0.12798352D-02 -0.12516509D-02 -0.82701865D-03
  0.38941222D-02  0.38083664D-02  0.25163487D-02 -0.17540439D-12 -0.38918815D-03
  0.10783540D-02 -0.34133430D-13 -0.14818078D-03  0.76603526D-03  0.62977065D-17
  0.92649205D-04 -0.10373251D-04 -0.26982956D-04 -0.25740343D-04  0.52723299D-04
 -0.41164748D-13  0.18174800D-13  0.26174329D-03  0.58140558D-04  0.13726956D-03
 -0.19541012D-03  0.10321786D-13  0.63896589D-14 -0.14211291D-03 -0.11006542D-03
  0.20681713D-04  0.89383702D-04 -0.22745988D-14 -0.64160752D-14 -0.28625314D-03
  0.29705500D-14 -0.35561647D-04  0.53957556D-04  0.51039076D-14 -0.33073027D-03
 -0.13351958D-04 -0.14015558D-13  0.43741521D-03 -0.14852071D-03 -0.58554585D-13
 -0.14360214D-14 -0.63462295D-04 -0.95912927D-04 -0.38932652D-14  0.19833376D-03
  0.44120109D-04  0.82013293D-14 -0.79468776D-05  0.24361867D-03  0.17317792D-13
MO    2     MO 0.0        OCC NO =    2.0000247  ORB. ENERGY =    0.000000
 -0.59405801D-01 -0.11074438D+00 -0.18717309D+00 -0.28135607D+00 -0.34559553D+00
 -0.29167044D+00 -0.10967570D+00 -0.94711928D-05 -0.70791298D-04 -0.26456324D-03
 -0.73809026D-03 -0.98883746D-03  0.11676327D-02 -0.45077650D-02 -0.13825119D-02
 -0.57012518D-04 -0.23506063D-12 -0.22038428D-12 -0.15692674D-12 -0.35715772D-04
 -0.33485806D-04 -0.23843889D-04  0.29670168D-02  0.27817668D-02  0.19807837D-02
 -0.29349039D-13 -0.10532308D-04 -0.41969691D-03  0.94618828D-14  0.33674501D-05
 -0.93951808D-03  0.25885764D-15 -0.10885467D-06  0.77860167D-05  0.26241786D-03
 -0.10852999D-03 -0.15388787D-03 -0.23724784D-15 -0.68604384D-13 -0.22486120D-05
  0.10287428D-03  0.15590562D-03 -0.25877990D-03 -0.72846220D-14  0.30019109D-13
 -0.10495924D-05  0.17081869D-04  0.62153026D-04 -0.79234895D-04  0.95436260D-16
  0.60051152D-15 -0.16028516D-05  0.81876655D-14  0.13913787D-05 -0.36177341D-04
 -0.38177568D-15  0.31216454D-05 -0.10243629D-03 -0.24181221D-13 -0.72957814D-05
  0.21096831D-03  0.12176319D-14 -0.43224243D-14 -0.19154257D-05  0.47525007D-04
 -0.28632253D-14 -0.44750843D-06  0.26211447D-04  0.15830498D-13  0.61937856D-05
 -0.16878647D-03  0.49023814D-14 -0.12682806D+00 -0.23711783D+00 -0.40981008D+00
 -0.66285092D+00 -0.10018770D+01 -0.13797920D+01 -0.16128089D+01 -0.13938985D+01
 -0.65053968D+00 -0.88133852D-01  0.64462369D-03 -0.15811801D-02 -0.20325911D-01
 -0.74146000D-01 -0.25016677D+00 -0.54947847D+00 -0.70977631D+00  0.11406709D+00
  0.95688732D+00  0.52512742D+00 -0.13247372D-04 -0.15089581D-03 -0.31331409D-03
 -0.86153417D-03  0.11170780D-03  0.38954652D-02  0.97159088D-02 -0.80426886D-02
  0.29214097D-01  0.15675246D-02  0.76360492D-04  0.55691015D-09  0.73063445D-09
  0.80134787D-09  0.65932488D-09  0.34755859D-09  0.90428208D-10  0.75307794D-01
  0.98799543D-01  0.10836172D+00  0.89156756D-01  0.46998372D-01  0.12228092D-01
  0.62427464D+01  0.81901282D+01  0.89827981D+01  0.73907757D+01  0.38959967D+01
  0.10136651D+01  0.33773018D-14  0.12123038D-12  0.19233503D-12  0.22839195D-12
  0.34561722D-13 -0.25153374D-12  0.69017650D-06  0.24774321D-04  0.39305081D-04
  0.46673578D-04  0.70629426D-05 -0.51402773D-04  0.57927862D-04  0.20793572D-02
  0.32989523D-02  0.39174046D-02  0.59280657D-03 -0.43143351D-02  0.42079523D-11
  0.53505211D-03  0.46149827D-01 -0.81102278D-14 -0.13817720D-05 -0.79575557D-03
 -0.11935379D-14 -0.13695920D-07 -0.64450671D-05 -0.25978044D-03 -0.14634525D-03
  0.40612570D-03 -0.15704070D-14  0.43111358D-13  0.75966174D-05  0.15184963D-03
 -0.37157058D-03  0.21972096D-03  0.15882430D-14 -0.19619392D-13  0.40839568D-06
 -0.14779988D-04 -0.27429629D-04  0.42209616D-04 -0.46860256D-16  0.16139205D-14
 -0.45904954D-06  0.54246402D-14  0.33367321D-06 -0.88915106D-04 -0.17408805D-14
  0.70253909D-06  0.21844449D-03 -0.14533040D-13 -0.17035587D-05  0.48300831D-04
  0.58679045D-15  0.12264537D-14  0.26266662D-06 -0.22293888D-04  0.20450271D-14
  0.11403463D-06  0.32180506D-04 -0.57243883D-14 -0.90203449D-06  0.34701158D-04
  0.10236154D-14  0.67056245D-02  0.12499296D-01  0.21189091D-01  0.32083149D-01
  0.40111002D-01  0.34502655D-01  0.13232511D-01  0.15546383D-05  0.20580500D-04
  0.74752122D-04  0.22175076D-03  0.25552296D-03 -0.31037070D-03  0.52765041D-03
 -0.38893351D-03 -0.24885188D-03  0.36142436D-12  0.35346513D-12  0.23354936D-12
  0.13319170D-03  0.13025857D-03  0.86067347D-04 -0.97039544D-03 -0.94902554D-03
 -0.62706130D-03  0.94234433D-13 -0.86215694D-04 -0.39333304D-03  0.42070261D-14
  0.87160495D-05 -0.91671599D-04 -0.24578905D-15 -0.40438657D-05 -0.60265764D-04
  0.36259314D-04 -0.10576962D-03  0.69510305D-04 -0.38469243D-13 -0.72705883D-14
 -0.25081579D-04 -0.22634525D-04  0.91722548D-05  0.13462271D-04  0.88726908D-14
 -0.85829035D-15  0.92454426D-04 -0.45721205D-04  0.12096449D-04  0.33624756D-04
 -0.86543438D-14 -0.61790434D-15 -0.24671814D-04 -0.77688740D-14 -0.81039213D-04
 -0.10809919D-03  0.32581725D-13  0.11068588D-03  0.20467854D-04 -0.92751032D-14
  0.13243176D-03  0.30382970D-03 -0.57946594D-14  0.37639302D-14  0.16315072D-04
  0.44845134D-04 -0.71982032D-14 -0.97160028D-04 -0.76555117D-04 -0.40935873D-14
  0.48214813D-04 -0.57980287D-04  0.22150196D-14  0.67028532D-02  0.12494130D-01
  0.21180334D-01  0.32069889D-01  0.40094425D-01  0.34488396D-01  0.13227042D-01
  0.15949172D-05  0.21113718D-04  0.76688864D-04  0.22749607D-03  0.26214327D-03
 -0.31841205D-03  0.52222917D-03 -0.39617280D-03 -0.26340525D-03  0.34954519D-12
  0.34184756D-12  0.22587313D-12 -0.17276013D-03 -0.16895563D-03 -0.11163613D-03
 -0.88182076D-03 -0.86240144D-03 -0.56982510D-03  0.91343294D-13  0.76520002D-04
 -0.36747022D-03  0.14746730D-13 -0.25203160D-05 -0.71700329D-04 -0.46225062D-15
  0.56051993D-05 -0.60383822D-04  0.36941831D-04 -0.10309556D-03  0.66153725D-04
  0.12677467D-13 -0.27741247D-13  0.20237080D-04 -0.24616734D-04  0.97237143D-05
  0.14893020D-04 -0.84189172D-14  0.30132727D-14 -0.98960009D-04 -0.47042387D-04
  0.92015218D-05  0.37840865D-04  0.16753439D-14  0.27688439D-14  0.21465058D-04
 -0.53852179D-14  0.79904315D-04 -0.10566927D-03 -0.40113643D-14 -0.11798976D-03
  0.13103568D-04  0.20167018D-13 -0.12172319D-03  0.30390425D-03  0.70299191D-13
  0.20129263D-14 -0.16541173D-04  0.43384977D-04  0.41715666D-15  0.10071009D-03
 -0.73498197D-04 -0.64559354D-14 -0.51086571D-04 -0.56656732D-04 -0.17456169D-13
MO    3     MO 0.0        OCC NO =    2.0000101  ORB. ENERGY =    0.000000
  0.19801052D+00  0.36913150D+00  0.62388252D+00  0.93781179D+00  0.11519338D+01
  0.97219150D+00  0.36556939D+00  0.26825439D-04  0.20050353D-03  0.74932749D-03
  0.20905070D-02  0.28007030D-02 -0.33071081D-02  0.15806412D-01  0.35019510D-03
  0.13437524D-03  0.57369619D-11  0.53787664D-11  0.38300021D-11  0.30839919D-04
  0.28914384D-04  0.20588764D-04 -0.73494628D-02 -0.68905886D-02 -0.49065096D-02
  0.11489957D-11  0.59583806D-05  0.59426631D-03  0.18313901D-12 -0.20694032D-07
  0.54037723D-03 -0.28357087D-14  0.21624661D-07  0.65235979D-05 -0.68743143D-03
  0.56337156D-03  0.12405987D-03 -0.46325438D-14  0.14375305D-11 -0.14708514D-04
  0.20595827D-03 -0.24636636D-03  0.40408093D-04 -0.33172115D-14 -0.66142442D-12
  0.32356419D-05 -0.91984451D-05 -0.38661032D-04  0.47859478D-04 -0.28717448D-15
  0.39572052D-13  0.11082555D-05 -0.14513288D-12  0.56092845D-06 -0.72907093D-05
 -0.63924333D-13 -0.45405343D-05  0.26378063D-03  0.49932297D-12  0.28577489D-05
 -0.24190850D-03  0.49347009D-14  0.43298220D-13  0.20828537D-05 -0.14829853D-03
  0.10460076D-12 -0.32861632D-06 -0.74988797D-06 -0.23449542D-12 -0.59199447D-05
  0.44564548D-03  0.33323472D-14 -0.99529001D-01 -0.18607949D+00 -0.32160067D+00
 -0.52017583D+00 -0.78622836D+00 -0.10827992D+01 -0.12656604D+01 -0.10938693D+01
 -0.51051452D+00 -0.69163515D-01  0.50587191D-03 -0.12546054D-02 -0.16127826D-01
 -0.58831991D-01 -0.19849768D+00 -0.43598997D+00 -0.56318012D+00  0.90507837D-01
  0.75925317D+00  0.41666835D+00 -0.55147168D-05 -0.62816052D-04 -0.13042877D-03
 -0.35864599D-03  0.46502571D-04  0.16216338D-02  0.40446123D-02 -0.33480715D-02
  0.25028655D-01 -0.17673255D-02 -0.19427823D-03 -0.13945869D-07 -0.18296187D-07
 -0.20066957D-07 -0.16510488D-07 -0.87033905D-08 -0.22644585D-08 -0.27604913D-01
 -0.36216076D-01 -0.39721198D-01 -0.32681405D-01 -0.17227778D-01 -0.44823439D-02
 -0.50396719D+01 -0.66117629D+01 -0.72516730D+01 -0.59664581D+01 -0.31451774D+01
 -0.81831601D+00 -0.82357025D-13 -0.29562574D-11 -0.46901765D-11 -0.55694407D-11
 -0.84280317D-12  0.61337635D-11 -0.24705081D-06 -0.88680448D-05 -0.14069375D-04
 -0.16706952D-04 -0.25282021D-05  0.18399781D-04 -0.40978960D-04 -0.14709656D-02
 -0.23337238D-02 -0.27712255D-02 -0.41935946D-03  0.30520195D-02 -0.10506480D-09
 -0.20753944D-03 -0.39609018D-01 -0.26567426D-13 -0.71358456D-06  0.43650088D-03
  0.25537972D-13 -0.14368455D-07  0.63938783D-05  0.27916950D-03  0.20484170D-03
 -0.48401121D-03 -0.17209711D-14 -0.82163472D-12 -0.50270919D-05 -0.31605218D-04
 -0.29614184D-03  0.32774706D-03  0.38843728D-14  0.36417517D-12  0.35180907D-05
  0.85462002D-05  0.97584831D-05 -0.18304683D-04  0.12063879D-15  0.29397147D-13
  0.29003734D-06 -0.11896484D-12 -0.27100291D-06  0.11278205D-03  0.43783956D-13
  0.71965669D-08 -0.27386374D-03  0.31311056D-12  0.80581218D-06 -0.64482411D-04
  0.87337942D-15 -0.12513710D-13 -0.17273406D-06  0.27168778D-04 -0.39833586D-13
 -0.14901300D-06 -0.56009955D-04  0.77374716D-13  0.66721519D-06 -0.25496380D-04
  0.33349558D-15 -0.51681010D-01 -0.96333492D-01 -0.16330673D+00 -0.24726848D+00
 -0.30914006D+00 -0.26591588D+00 -0.10198446D+00 -0.81867127D-05 -0.10837675D-03
 -0.39364406D-03 -0.11677377D-02 -0.13455818D-02  0.16344096D-02 -0.44371802D-02
  0.10964550D-02  0.14413808D-03 -0.90171147D-11 -0.88185412D-11 -0.58267830D-11
 -0.46227114D-02 -0.45209108D-02 -0.29871569D-02 -0.11533758D-02 -0.11279763D-02
 -0.74530163D-03 -0.21154803D-11 -0.49013024D-03  0.22961861D-03 -0.50155582D-12
 -0.59474310D-04  0.20510331D-03  0.54642680D-15 -0.29144700D-05  0.28907003D-04
 -0.15197530D-03  0.17262537D-03 -0.20650068D-04  0.49287089D-12  0.22299185D-12
  0.41182329D-03  0.10851321D-03 -0.36350908D-04 -0.72162298D-04 -0.13963647D-12
  0.83435230D-13 -0.28940593D-03  0.82557099D-04 -0.30559290D-04 -0.51997809D-04
 -0.22260754D-13 -0.11641924D-12  0.75546178D-04 -0.17039602D-13  0.11450116D-03
  0.22749193D-03  0.19625649D-12 -0.34777275D-03 -0.22393927D-03 -0.14513769D-12
  0.42692710D-05 -0.45853653D-03  0.87620165D-12  0.81679690D-14 -0.24931948D-04
 -0.66965843D-04 -0.11273844D-12  0.31352783D-03  0.26956181D-03  0.88234529D-13
 -0.23873199D-03 -0.68664283D-04 -0.31467555D-12 -0.52157104D-01 -0.97220932D-01
 -0.16481114D+00 -0.24954635D+00 -0.31198791D+00 -0.26836555D+00 -0.10292396D+00
 -0.83028907D-05 -0.10991473D-03 -0.39923029D-03 -0.11843091D-02 -0.13646771D-02
  0.16576036D-02 -0.44738611D-02  0.11055214D-02  0.14830237D-03 -0.91816736D-11
 -0.89794763D-11 -0.59331196D-11  0.47211742D-02  0.46172052D-02  0.30507827D-02
 -0.11673930D-02 -0.11416849D-02 -0.75435947D-03 -0.21557954D-11  0.51109103D-03
  0.21543714D-03 -0.50391654D-12  0.51787410D-04  0.17938233D-03  0.61521834D-15
  0.26358397D-05  0.28696226D-04 -0.14985186D-03  0.16807459D-03 -0.18222735D-04
 -0.50982079D-12  0.18857457D-12 -0.39945176D-03  0.11554484D-03 -0.37518763D-04
 -0.78026079D-04  0.13948513D-12  0.92971924D-13  0.30752580D-03  0.84949006D-04
 -0.25268289D-04 -0.59680717D-04  0.20727593D-13 -0.11499628D-12 -0.70767351D-04
 -0.11900823D-13 -0.11345972D-03  0.22088209D-03  0.18601023D-12  0.36124685D-03
 -0.21501125D-03 -0.15030777D-12 -0.20867696D-04 -0.44763501D-03 -0.85032251D-12
  0.59665467D-14  0.25085360D-04 -0.65055170D-04 -0.11050300D-12 -0.31946256D-03
  0.26672140D-03  0.92603356D-13  0.24420648D-03 -0.71555886D-04  0.30121674D-12
MO    4     MO 0.0        OCC NO =    2.0000090  ORB. ENERGY =    0.000000
  0.24311539D-09  0.45321606D-09  0.76599688D-09  0.11514362D-08  0.14143331D-08
  0.11936473D-08  0.44884254D-09  0.35365471D-13  0.26433498D-12  0.98788019D-12
  0.27560319D-11  0.36923229D-11 -0.43599449D-11  0.19358708D-10  0.67958809D-12
  0.19118998D-12 -0.39871644D-02 -0.37382201D-02 -0.26618354D-02 -0.31294321D-12
 -0.29340415D-12 -0.20892124D-12 -0.10266172D-10 -0.96251889D-11 -0.68537079D-11
 -0.79366645D-03 -0.14815089D-12  0.78701977D-12 -0.12304405D-03  0.58533823D-13
  0.83321917D-12  0.20550703D-05 -0.18823351D-14  0.74571862D-14 -0.76859519D-12
  0.67669743D-12  0.91897766D-13  0.34626528D-05 -0.10093413D-02 -0.11756846D-12
  0.26992973D-12 -0.35267845D-12  0.82748722D-13 -0.30353905D-05  0.46310955D-03
 -0.12418596D-14 -0.16415185D-13 -0.61845692D-13  0.78260877D-13  0.58283783D-07
 -0.27629302D-04 -0.31775502D-13  0.10209186D-03  0.25120874D-13 -0.12351445D-12
  0.43897225D-04  0.25315485D-13  0.38580734D-12 -0.35017280D-03 -0.10067811D-12
 -0.15263979D-13  0.69280902D-06 -0.31051001D-04 -0.19971584D-13 -0.21955317D-12
 -0.72955685D-04 -0.11746327D-13  0.13787141D-13  0.16610869D-03  0.71661080D-13
  0.64487236D-12  0.11444423D-05 -0.18120641D-09 -0.33878363D-09 -0.58551881D-09
 -0.94705254D-09 -0.14314382D-08 -0.19713868D-08 -0.23043111D-08 -0.19915415D-08
 -0.92946277D-09 -0.12592181D-09  0.92101026D-12 -0.17937251D-11 -0.23058156D-10
 -0.84112839D-10 -0.28379464D-09 -0.62334036D-09 -0.80518572D-09  0.12940020D-09
  0.10855138D-08  0.59571599D-09 -0.72282121D-14 -0.82333830D-13 -0.17095471D-12
 -0.47008204D-12  0.60951535D-13  0.21254969D-11  0.53013268D-11 -0.43883616D-11
  0.35992309D-10 -0.27362046D-11 -0.27644887D-12  0.97276193D+01  0.12762083D+02
  0.13997243D+02  0.11516510D+02  0.60708494D+01  0.15795208D+01  0.10475741D-08
  0.13743576D-08  0.15073729D-08  0.12402210D-08  0.65377398D-09  0.17009969D-09
 -0.84115837D-08 -0.11035519D-07 -0.12103577D-07 -0.99584582D-08 -0.52495329D-08
 -0.13658297D-08  0.57462694D-04  0.20626597D-02  0.32724613D-02  0.38859474D-02
  0.58804627D-03 -0.42796905D-02  0.10358665D-13  0.37183083D-12  0.58991893D-12
  0.70051063D-12  0.10600572D-12 -0.77148979D-12 -0.65496176D-13 -0.23510266D-11
 -0.37299626D-11 -0.44292162D-11 -0.67025715D-12  0.48780060D-11  0.73293482D-01
  0.72316764D-11 -0.66014407D-10  0.17479951D-04 -0.26658838D-13  0.69004192D-12
 -0.17813798D-04 -0.44425158D-15  0.96648040D-14  0.42820773D-12  0.32147445D-12
 -0.74968219D-12 -0.12484345D-06  0.57617021D-03  0.96295350D-13 -0.13293191D-12
 -0.50822177D-12  0.64115368D-12 -0.84550214D-06 -0.25612897D-03 -0.38868699D-13
  0.14051488D-13  0.16568906D-13 -0.30620394D-13 -0.45050081D-07 -0.20092978D-04
 -0.86010075D-14  0.83257097D-04  0.47732201D-14  0.13068147D-12 -0.30879337D-04
  0.11078792D-13 -0.37004244D-12 -0.21889196D-03 -0.25398452D-13 -0.22001969D-13
  0.66004705D-07  0.88981476D-05  0.29727852D-14  0.44744618D-13  0.27933921D-04
  0.72482734D-15 -0.86023474D-13 -0.54628364D-04 -0.96431830D-14 -0.48210381D-13
  0.19754398D-06 -0.11549384D-09 -0.21528072D-09 -0.36494878D-09 -0.55258181D-09
 -0.69084898D-09 -0.59425400D-09 -0.22790920D-09 -0.14822634D-13 -0.19622392D-12
 -0.71272098D-12 -0.21142734D-11 -0.24362730D-11  0.29592165D-11 -0.10304838D-10
  0.15367701D-11  0.34005453D-12  0.63897553D-02  0.62490411D-02  0.41290057D-02
 -0.67552374D-11 -0.66064747D-11 -0.43651771D-11 -0.16853647D-11 -0.16482498D-11
 -0.10890684D-11  0.15015165D-02 -0.49281501D-12  0.52261027D-12  0.34629069D-03
 -0.76944344D-13  0.22110217D-12 -0.76694140D-06  0.78562018D-14  0.50115122D-13
 -0.18612301D-12  0.25199081D-12 -0.65867796D-13 -0.36704743D-03 -0.14618967D-03
  0.42169640D-12  0.94467857D-13 -0.27575363D-13 -0.66892494D-13  0.10242900D-03
 -0.58274430D-04 -0.21123545D-12  0.13596837D-12 -0.36318277D-13 -0.99650093D-13
  0.11247409D-04  0.79998898D-04  0.93450592D-13  0.78677029D-05  0.16953538D-12
  0.37145898D-12 -0.12406745D-03 -0.61767721D-12 -0.40305650D-12  0.10046435D-03
  0.10907107D-12 -0.71132044D-12 -0.60283092D-03 -0.44745677D-05 -0.53113260D-13
 -0.12570708D-12  0.74286445D-04  0.44692439D-12  0.35808759D-12 -0.60862741D-04
 -0.28758461D-12  0.19033637D-13  0.21754004D-03 -0.12227180D-09 -0.22791485D-09
 -0.38636645D-09 -0.58501106D-09 -0.73139268D-09 -0.62912886D-09 -0.24128446D-09
 -0.15580789D-13 -0.20626048D-12 -0.74917558D-12 -0.22224152D-11 -0.25608847D-11
  0.31105759D-11 -0.10919984D-10  0.14738851D-11  0.11986048D-12  0.64192188D-02
  0.62778558D-02  0.41480447D-02  0.66294791D-11  0.64834858D-11  0.42839132D-11
 -0.11360957D-11 -0.11110768D-11 -0.73413540D-12  0.15101904D-02  0.43545192D-12
  0.64588009D-12  0.35275333D-03  0.11202940D-12  0.38391534D-12 -0.82584079D-06
  0.16399173D-13  0.48506007D-13 -0.18437887D-12  0.25663427D-12 -0.72255408D-13
  0.37102159D-03 -0.14441119D-03 -0.36116057D-12  0.11993252D-12 -0.58810846D-14
 -0.11405143D-12 -0.10258451D-03 -0.60758384D-04  0.21774935D-12  0.11469586D-12
 -0.48871619D-13 -0.65824243D-13 -0.14300250D-04  0.81189761D-04 -0.14622718D-12
  0.87809617D-05 -0.19047972D-12  0.33349803D-12 -0.13207188D-03  0.52880532D-12
 -0.33115390D-12  0.10572899D-03  0.42633854D-13 -0.66934018D-12  0.60765894D-03