 f2cs-wavefunction
GAUSSIAN            188 MOL ORBITALS    330 PRIMITIVES        4 NUCLEI
  C    1    (CENTRE  1)   0.01889726  0.00000000 -0.98331710  CHARGE =  6.0
  S    2    (CENTRE  2)   0.00000000  0.00000000  2.03811688  CHARGE = 16.0
  F    3    (CENTRE  3)   0.00000000 -1.99407870 -2.44821201  CHARGE =  9.0
  F    4    (CENTRE  4)   0.00000000  1.99407870 -2.44821201  CHARGE =  9.0
CENTRE ASSIGNMENTS    1  1  1  1  1  1  1  1  1  1  1  1  1  1  1  1  1  1  1  1
CENTRE ASSIGNMENTS    1  1  1  1  1  1  1  1  1  1  1  1  1  1  1  1  1  1  1  1
CENTRE ASSIGNMENTS    1  1  1  1  1  1  1  1  1  1  1  1  1  1  1  1  1  1  1  1
CENTRE ASSIGNMENTS    1  1  1  1  1  1  1  1  1  1  1  1  2  2  2  2  2  2  2  2
CENTRE ASSIGNMENTS    2  2  2  2  2  2  2  2  2  2  2  2  2  2  2  2  2  2  2  2
CENTRE ASSIGNMENTS    2  2  2  2  2  2  2  2  2  2  2  2  2  2  2  2  2  2  2  2
CENTRE ASSIGNMENTS    2  2  2  2  2  2  2  2  2  2  2  2  2  2  2  2  2  2  2  2
CENTRE ASSIGNMENTS    2  2  2  2  2  2  2  2  2  2  2  2  2  2  2  2  2  2  2  2
CENTRE ASSIGNMENTS    2  2  2  2  2  2  2  2  2  2  2  2  2  2  2  2  2  2  2  2
CENTRE ASSIGNMENTS    2  2  2  2  2  2  3  3  3  3  3  3  3  3  3  3  3  3  3  3
CENTRE ASSIGNMENTS    3  3  3  3  3  3  3  3  3  3  3  3  3  3  3  3  3  3  3  3
CENTRE ASSIGNMENTS    3  3  3  3  3  3  3  3  3  3  3  3  3  3  3  3  3  3  3  3
CENTRE ASSIGNMENTS    3  3  3  3  3  3  3  3  3  3  3  3  3  3  3  3  3  3  4  4
CENTRE ASSIGNMENTS    4  4  4  4  4  4  4  4  4  4  4  4  4  4  4  4  4  4  4  4
CENTRE ASSIGNMENTS    4  4  4  4  4  4  4  4  4  4  4  4  4  4  4  4  4  4  4  4
CENTRE ASSIGNMENTS    4  4  4  4  4  4  4  4  4  4  4  4  4  4  4  4  4  4  4  4
CENTRE ASSIGNMENTS    4  4  4  4  4  4  4  4  4  4
TYPE ASSIGNMENTS      1  1  1  1  1  1  1  1  1  1  1  1  1  1  1  1  2  2  2  3
TYPE ASSIGNMENTS      3  3  4  4  4  2  3  4  2  3  4  2  3  4  5  6  7  8  9 10
TYPE ASSIGNMENTS      5  6  7  8  9 10  5  6  7  8  9 10 11 12 13 17 14 15 18 19
TYPE ASSIGNMENTS     16 20 11 12 13 17 14 15 18 19 16 20  1  1  1  1  1  1  1  1
TYPE ASSIGNMENTS      1  1  1  1  1  1  1  1  1  1  1  1  1  1  1  1  1  1  1  1
TYPE ASSIGNMENTS      1  1  1  2  2  2  2  2  2  3  3  3  3  3  3  4  4  4  4  4
TYPE ASSIGNMENTS      4  2  2  2  2  2  2  3  3  3  3  3  3  4  4  4  4  4  4  2
TYPE ASSIGNMENTS      3  4  2  3  4  2  3  4  5  6  7  8  9 10  5  6  7  8  9 10
TYPE ASSIGNMENTS      5  6  7  8  9 10 11 12 13 17 14 15 18 19 16 20 11 12 13 17
TYPE ASSIGNMENTS     14 15 18 19 16 20  1  1  1  1  1  1  1  1  1  1  1  1  1  1
TYPE ASSIGNMENTS      1  1  2  2  2  3  3  3  4  4  4  2  3  4  2  3  4  2  3  4
TYPE ASSIGNMENTS      5  6  7  8  9 10  5  6  7  8  9 10  5  6  7  8  9 10 11 12
TYPE ASSIGNMENTS     13 17 14 15 18 19 16 20 11 12 13 17 14 15 18 19 16 20  1  1
TYPE ASSIGNMENTS      1  1  1  1  1  1  1  1  1  1  1  1  1  1  2  2  2  3  3  3
TYPE ASSIGNMENTS      4  4  4  2  3  4  2  3  4  2  3  4  5  6  7  8  9 10  5  6
TYPE ASSIGNMENTS      7  8  9 10  5  6  7  8  9 10 11 12 13 17 14 15 18 19 16 20
TYPE ASSIGNMENTS     11 12 13 17 14 15 18 19 16 20
EXPONENTS  0.8236000D+04 0.1235000D+04 0.2808000D+03 0.7927000D+02 0.2559000D+02
EXPONENTS  0.8997000D+01 0.3319000D+01 0.2808000D+03 0.7927000D+02 0.2559000D+02
EXPONENTS  0.8997000D+01 0.3319000D+01 0.3643000D+00 0.9059000D+00 0.1285000D+00
EXPONENTS  0.4402000D-01 0.1871000D+02 0.4133000D+01 0.1200000D+01 0.1871000D+02
EXPONENTS  0.4133000D+01 0.1200000D+01 0.1871000D+02 0.4133000D+01 0.1200000D+01
EXPONENTS  0.3827000D+00 0.3827000D+00 0.3827000D+00 0.1209000D+00 0.1209000D+00
EXPONENTS  0.1209000D+00 0.3569000D-01 0.3569000D-01 0.3569000D-01 0.1097000D+01
EXPONENTS  0.1097000D+01 0.1097000D+01 0.1097000D+01 0.1097000D+01 0.1097000D+01
EXPONENTS  0.3180000D+00 0.3180000D+00 0.3180000D+00 0.3180000D+00 0.3180000D+00
EXPONENTS  0.3180000D+00 0.1000000D+00 0.1000000D+00 0.1000000D+00 0.1000000D+00
EXPONENTS  0.1000000D+00 0.1000000D+00 0.7610000D+00 0.7610000D+00 0.7610000D+00
EXPONENTS  0.7610000D+00 0.7610000D+00 0.7610000D+00 0.7610000D+00 0.7610000D+00
EXPONENTS  0.7610000D+00 0.7610000D+00 0.2680000D+00 0.2680000D+00 0.2680000D+00
EXPONENTS  0.2680000D+00 0.2680000D+00 0.2680000D+00 0.2680000D+00 0.2680000D+00
EXPONENTS  0.2680000D+00 0.2680000D+00 0.3741000D+06 0.5605000D+05 0.1276000D+05
EXPONENTS  0.3615000D+04 0.1183000D+04 0.4288000D+03 0.1678000D+03 0.6947000D+02
EXPONENTS  0.2984000D+02 0.1272000D+02 0.5244000D+01 0.3615000D+04 0.1183000D+04
EXPONENTS  0.4288000D+03 0.1678000D+03 0.6947000D+02 0.2984000D+02 0.1272000D+02
EXPONENTS  0.5244000D+01 0.2219000D+01 0.1183000D+04 0.1678000D+03 0.6947000D+02
EXPONENTS  0.2984000D+02 0.1272000D+02 0.5244000D+01 0.2219000D+01 0.3490000D+00
EXPONENTS  0.7767000D+00 0.1322000D+00 0.4970000D-01 0.5744000D+03 0.1358000D+03
EXPONENTS  0.4319000D+02 0.1587000D+02 0.6208000D+01 0.2483000D+01 0.5744000D+03
EXPONENTS  0.1358000D+03 0.4319000D+02 0.1587000D+02 0.6208000D+01 0.2483000D+01
EXPONENTS  0.5744000D+03 0.1358000D+03 0.4319000D+02 0.1587000D+02 0.6208000D+01
EXPONENTS  0.2483000D+01 0.1358000D+03 0.4319000D+02 0.1587000D+02 0.6208000D+01
EXPONENTS  0.2483000D+01 0.3229000D+00 0.1358000D+03 0.4319000D+02 0.1587000D+02
EXPONENTS  0.6208000D+01 0.2483000D+01 0.3229000D+00 0.1358000D+03 0.4319000D+02
EXPONENTS  0.1587000D+02 0.6208000D+01 0.2483000D+01 0.3229000D+00 0.8688000D+00
EXPONENTS  0.8688000D+00 0.8688000D+00 0.1098000D+00 0.1098000D+00 0.1098000D+00
EXPONENTS  0.3510000D-01 0.3510000D-01 0.3510000D-01 0.2690000D+00 0.2690000D+00
EXPONENTS  0.2690000D+00 0.2690000D+00 0.2690000D+00 0.2690000D+00 0.8190000D+00
EXPONENTS  0.8190000D+00 0.8190000D+00 0.8190000D+00 0.8190000D+00 0.8190000D+00
EXPONENTS  0.1010000D+00 0.1010000D+00 0.1010000D+00 0.1010000D+00 0.1010000D+00
EXPONENTS  0.1010000D+00 0.5570000D+00 0.5570000D+00 0.5570000D+00 0.5570000D+00
EXPONENTS  0.5570000D+00 0.5570000D+00 0.5570000D+00 0.5570000D+00 0.5570000D+00
EXPONENTS  0.5570000D+00 0.2180000D+00 0.2180000D+00 0.2180000D+00 0.2180000D+00
EXPONENTS  0.2180000D+00 0.2180000D+00 0.2180000D+00 0.2180000D+00 0.2180000D+00
EXPONENTS  0.2180000D+00 0.1950000D+05 0.2923000D+04 0.6645000D+03 0.1875000D+03
EXPONENTS  0.6062000D+02 0.2142000D+02 0.7950000D+01 0.6645000D+03 0.1875000D+03
EXPONENTS  0.6062000D+02 0.2142000D+02 0.7950000D+01 0.8815000D+00 0.2257000D+01
EXPONENTS  0.3041000D+00 0.9158000D-01 0.4388000D+02 0.9926000D+01 0.2930000D+01
EXPONENTS  0.4388000D+02 0.9926000D+01 0.2930000D+01 0.4388000D+02 0.9926000D+01
EXPONENTS  0.2930000D+01 0.9132000D+00 0.9132000D+00 0.9132000D+00 0.2672000D+00
EXPONENTS  0.2672000D+00 0.2672000D+00 0.7361000D-01 0.7361000D-01 0.7361000D-01
EXPONENTS  0.3107000D+01 0.3107000D+01 0.3107000D+01 0.3107000D+01 0.3107000D+01
EXPONENTS  0.3107000D+01 0.8550000D+00 0.8550000D+00 0.8550000D+00 0.8550000D+00
EXPONENTS  0.8550000D+00 0.8550000D+00 0.2920000D+00 0.2920000D+00 0.2920000D+00
EXPONENTS  0.2920000D+00 0.2920000D+00 0.2920000D+00 0.1917000D+01 0.1917000D+01
EXPONENTS  0.1917000D+01 0.1917000D+01 0.1917000D+01 0.1917000D+01 0.1917000D+01
EXPONENTS  0.1917000D+01 0.1917000D+01 0.1917000D+01 0.7240000D+00 0.7240000D+00
EXPONENTS  0.7240000D+00 0.7240000D+00 0.7240000D+00 0.7240000D+00 0.7240000D+00
EXPONENTS  0.7240000D+00 0.7240000D+00 0.7240000D+00 0.1950000D+05 0.2923000D+04
EXPONENTS  0.6645000D+03 0.1875000D+03 0.6062000D+02 0.2142000D+02 0.7950000D+01
EXPONENTS  0.6645000D+03 0.1875000D+03 0.6062000D+02 0.2142000D+02 0.7950000D+01
EXPONENTS  0.8815000D+00 0.2257000D+01 0.3041000D+00 0.9158000D-01 0.4388000D+02
EXPONENTS  0.9926000D+01 0.2930000D+01 0.4388000D+02 0.9926000D+01 0.2930000D+01
EXPONENTS  0.4388000D+02 0.9926000D+01 0.2930000D+01 0.9132000D+00 0.9132000D+00
EXPONENTS  0.9132000D+00 0.2672000D+00 0.2672000D+00 0.2672000D+00 0.7361000D-01
EXPONENTS  0.7361000D-01 0.7361000D-01 0.3107000D+01 0.3107000D+01 0.3107000D+01
EXPONENTS  0.3107000D+01 0.3107000D+01 0.3107000D+01 0.8550000D+00 0.8550000D+00
EXPONENTS  0.8550000D+00 0.8550000D+00 0.8550000D+00 0.8550000D+00 0.2920000D+00
EXPONENTS  0.2920000D+00 0.2920000D+00 0.2920000D+00 0.2920000D+00 0.2920000D+00
EXPONENTS  0.1917000D+01 0.1917000D+01 0.1917000D+01 0.1917000D+01 0.1917000D+01
EXPONENTS  0.1917000D+01 0.1917000D+01 0.1917000D+01 0.1917000D+01 0.1917000D+01
EXPONENTS  0.7240000D+00 0.7240000D+00 0.7240000D+00 0.7240000D+00 0.7240000D+00
EXPONENTS  0.7240000D+00 0.7240000D+00 0.7240000D+00 0.7240000D+00 0.7240000D+00
MO    1     MO 0.0        OCC NO =    2.0000305  ORB. ENERGY =    0.000000
  0.13625792D-10  0.25401221D-10  0.42931525D-10  0.64534089D-10  0.79268570D-10
  0.66899876D-10  0.25156101D-10  0.91822089D-15  0.68631323D-14  0.25649092D-13
  0.71556974D-13  0.95866617D-13 -0.11320060D-12  0.11619163D-11 -0.22777799D-12
  0.20124927D-13  0.83875242D-13  0.78638371D-13  0.55995205D-13 -0.30466363D-02
 -0.28564152D-02 -0.20339378D-02  0.35367501D-13  0.33159280D-13  0.23611383D-13
  0.24903481D-13 -0.15629123D-02  0.31239647D-14  0.10173184D-13  0.61038928D-03
 -0.18234443D-12  0.80044408D-16 -0.13534934D-04  0.48276512D-14 -0.32185550D-13
  0.31017225D-13  0.11683244D-14  0.67161879D-05  0.22276547D-13 -0.10199555D-02
  0.41846389D-13  0.63859332D-14 -0.48232323D-13  0.31487584D-05 -0.11425265D-13
  0.39739780D-03  0.31378698D-14  0.14628822D-13 -0.17766692D-13 -0.15770539D-05
  0.20902928D-14 -0.22563121D-03 -0.23463630D-14  0.24069326D-03  0.24323900D-13
  0.18089414D-14  0.35904893D-03 -0.39788917D-13  0.52301475D-14 -0.10811287D-02
 -0.33182784D-13 -0.27267350D-05 -0.19713309D-16 -0.13702912D-03  0.12895470D-14
  0.38810853D-14 -0.12875144D-03  0.17798724D-14 -0.38219454D-14  0.53983879D-03
 -0.56485135D-14 -0.44669534D-05 -0.21930013D-10 -0.41000367D-10 -0.70860822D-10
 -0.11461446D-09 -0.17323592D-09 -0.23858173D-09 -0.27887299D-09 -0.24102089D-09
 -0.11248570D-09 -0.15239345D-10  0.11146276D-12 -0.45796986D-12 -0.58871565D-11
 -0.21475501D-10 -0.72457807D-10 -0.15914986D-09 -0.20557820D-09  0.33038167D-10
  0.27715095D-09  0.15209687D-09 -0.36835804D-14 -0.41958270D-13 -0.87120495D-13
 -0.23955923D-12  0.31061606D-13  0.10831778D-11  0.27016174D-11 -0.22363597D-11
  0.85280769D-11  0.23496174D-12 -0.29627043D-13 -0.21750898D-09 -0.28535942D-09
 -0.31297752D-09 -0.25750848D-09 -0.13574383D-09 -0.35317990D-10  0.97653950D+01
  0.12811643D+02  0.14051600D+02  0.11561233D+02  0.60944246D+01  0.15856546D+01
  0.15124477D-08  0.19842454D-08  0.21762878D-08  0.17905840D-08  0.94389408D-09
  0.24558349D-09 -0.13721911D-14 -0.49255666D-13 -0.78145349D-13 -0.92795205D-13
 -0.14042360D-13  0.10219767D-12  0.94735192D-04  0.34005795D-02  0.53951046D-02
  0.64065213D-02  0.96947553D-03 -0.70556612D-02  0.12367386D-13  0.44393513D-12
  0.70431421D-12  0.83635152D-12  0.12656203D-12 -0.92109474D-12 -0.16458472D-11
  0.67602784D-01  0.11160920D-10 -0.45243416D-14 -0.37991318D-03 -0.13870085D-12
  0.23569477D-15 -0.71215994D-05  0.68282899D-16 -0.42435491D-13 -0.22548455D-13
  0.64983946D-13 -0.81292679D-05 -0.12887536D-13  0.96150138D-03  0.65228257D-13
 -0.75604239D-13  0.10375983D-13  0.77492121D-05 -0.98644632D-15 -0.55565107D-03
 -0.16968131D-14 -0.52545556D-14  0.69513687D-14  0.11504670D-05  0.19265712D-14
 -0.41925809D-04 -0.27185364D-14  0.34986573D-04  0.15701261D-14  0.55187475D-15
  0.10981845D-03  0.15489702D-13  0.76037346D-14 -0.21477816D-03 -0.20200081D-13
  0.84975312D-05  0.17942580D-15  0.34763128D-04 -0.42075291D-14 -0.65082162D-15
  0.16375861D-04  0.37584751D-14  0.11254423D-15 -0.12066524D-03  0.88641123D-14
  0.11736750D-05  0.50719667D-02  0.94541547D-02  0.16026898D-01  0.24266892D-01
  0.30338959D-01  0.26096946D-01  0.10008740D-01 -0.65353319D-06 -0.86515558D-05
 -0.31424025D-04 -0.93218777D-04 -0.10741581D-03  0.13047250D-03  0.58771266D-03
  0.86910666D-04  0.85266641D-03 -0.39306952D-04 -0.38441341D-04 -0.25399819D-04
 -0.13025516D-02 -0.12738670D-02 -0.84169782D-03 -0.39047417D-02 -0.38187521D-02
 -0.25232110D-02 -0.14542708D-04 -0.38876677D-03 -0.10831644D-02  0.36636072D-05
 -0.14844891D-03 -0.74695255D-03  0.41834152D-06  0.92137197D-04  0.11401632D-04
  0.24128121D-04  0.27411254D-04 -0.51539374D-04  0.65262169D-05 -0.80201476D-06
  0.26300778D-03 -0.54424660D-04 -0.13266687D-03  0.18709153D-03 -0.49551237D-05
  0.82161923D-06 -0.14898308D-03  0.11017546D-03 -0.21572673D-04 -0.88602791D-04
  0.24548137D-05 -0.48257526D-05 -0.27891194D-03 -0.16451466D-05 -0.27138982D-04
 -0.54693339D-04 -0.56786459D-05 -0.33131104D-03  0.20265929D-04  0.10614086D-04
  0.41272798D-03  0.14381409D-03  0.74981312D-05  0.15219705D-05 -0.63284236D-04
  0.95246009D-04 -0.16416894D-05  0.19961556D-03 -0.42184040D-04 -0.29242221D-05
 -0.97628473D-05 -0.24355399D-03 -0.65297218D-05 -0.50719667D-02 -0.94541547D-02
 -0.16026898D-01 -0.24266892D-01 -0.30338960D-01 -0.26096946D-01 -0.10008740D-01
  0.65353319D-06  0.86515557D-05  0.31424025D-04  0.93218777D-04  0.10741581D-03
 -0.13047250D-03 -0.58771266D-03 -0.86910666D-04 -0.85266641D-03  0.39306952D-04
  0.38441341D-04  0.25399819D-04 -0.13025516D-02 -0.12738670D-02 -0.84169782D-03
  0.39047417D-02  0.38187521D-02  0.25232110D-02  0.14542708D-04 -0.38876677D-03
  0.10831644D-02 -0.36636073D-05 -0.14844891D-03  0.74695255D-03 -0.41834152D-06
  0.92137197D-04 -0.11401632D-04 -0.24128121D-04 -0.27411254D-04  0.51539374D-04
  0.65262169D-05  0.80201478D-06  0.26300778D-03  0.54424660D-04  0.13266687D-03
 -0.18709153D-03 -0.49551237D-05 -0.82161922D-06 -0.14898308D-03 -0.11017546D-03
  0.21572673D-04  0.88602791D-04  0.24548137D-05  0.48257526D-05 -0.27891194D-03
  0.16451465D-05 -0.27138982D-04  0.54693339D-04  0.56786459D-05 -0.33131104D-03
 -0.20265929D-04 -0.10614086D-04  0.41272798D-03 -0.14381409D-03  0.74981311D-05
 -0.15219705D-05 -0.63284236D-04 -0.95246009D-04  0.16416894D-05  0.19961556D-03
  0.42184040D-04  0.29242221D-05 -0.97628472D-05  0.24355399D-03 -0.65297218D-05
MO    2     MO 0.0        OCC NO =    2.0000247  ORB. ENERGY =    0.000000
 -0.59329186D-01 -0.11060156D+00 -0.18693170D+00 -0.28099321D+00 -0.34514983D+00
 -0.29129428D+00 -0.10953425D+00 -0.94601176D-05 -0.70708518D-04 -0.26425388D-03
 -0.73722717D-03 -0.98768115D-03  0.11662673D-02 -0.44991331D-02 -0.13848450D-02
 -0.56636455D-04 -0.39697037D-04 -0.37218495D-04 -0.26501786D-04  0.71662393D-12
  0.67188048D-12  0.47841893D-12  0.29467930D-02  0.27628058D-02  0.19672823D-02
 -0.12509283D-05  0.41718365D-12 -0.41996305D-03  0.12788972D-05 -0.16822266D-12
 -0.93786473D-03 -0.11635810D-07  0.34968599D-14  0.78111352D-05  0.25964346D-03
 -0.10451351D-03 -0.15512994D-03 -0.12469626D-14 -0.10229704D-04  0.25667224D-12
  0.10323888D-03  0.15459343D-03 -0.25783231D-03  0.30260369D-14  0.61102275D-05
 -0.13110569D-12  0.17123737D-04  0.61846826D-04 -0.78970562D-04  0.63632068D-15
  0.69558592D-06  0.59470746D-13  0.29717467D-06 -0.61053079D-13 -0.36058990D-04
  0.23377124D-05 -0.10684508D-12 -0.10102403D-03 -0.32292364D-05  0.29000432D-12
  0.20920100D-03  0.17462966D-14 -0.30256764D-06  0.38542640D-13  0.46873076D-04
  0.23685648D-05  0.34640647D-13  0.26110455D-04 -0.14608619D-05 -0.15026857D-12
 -0.16672968D-03 -0.17827001D-14 -0.12695097D+00 -0.23734762D+00 -0.41020724D+00
 -0.66349331D+00 -0.10028479D+01 -0.13811292D+01 -0.16143719D+01 -0.13952493D+01
 -0.65117014D+00 -0.88219265D-01  0.64524841D-03 -0.15826944D-02 -0.20345378D-01
 -0.74217013D-01 -0.25040636D+00 -0.55000473D+00 -0.71045609D+00  0.11417634D+00
  0.95780377D+00  0.52563036D+00 -0.13253641D-04 -0.15096721D-03 -0.31346234D-03
 -0.86194184D-03  0.11176066D-03  0.38973085D-02  0.97205062D-02 -0.80464943D-02
  0.29240878D-01  0.15624283D-02  0.75198399D-04  0.23454693D-01  0.30771224D-01
  0.33749373D-01  0.27767968D-01  0.14637694D-01  0.38084525D-02 -0.24634066D-08
 -0.32318494D-08 -0.35446393D-08 -0.29164224D-08 -0.15373721D-08 -0.39999530D-09
  0.62357786D+01  0.81809870D+01  0.89727721D+01  0.73825266D+01  0.38916483D+01
  0.10125337D+01  0.11470532D-06  0.41174199D-05  0.65323898D-05  0.77570125D-05
  0.11738405D-05 -0.85429909D-05 -0.24336303D-13 -0.87356695D-12 -0.13859359D-11
 -0.16457563D-11 -0.24904631D-12  0.18125124D-11  0.57865165D-04  0.20771066D-02
  0.32953817D-02  0.39131647D-02  0.59216496D-03 -0.43096656D-02  0.14579544D-03
 -0.17068476D-10  0.46093175D-01  0.38150411D-05  0.97855590D-13 -0.79372413D-03
 -0.20307461D-06  0.16639480D-14 -0.63627687D-05 -0.25908513D-03 -0.14597949D-03
  0.40506462D-03  0.31476800D-14 -0.61125453D-05 -0.26370416D-12  0.15174134D-03
 -0.37154963D-03  0.21980829D-03 -0.25689825D-14 -0.62392450D-05  0.14674991D-12
 -0.14734853D-04 -0.27372284D-04  0.42107137D-04 -0.32768911D-15 -0.98681809D-06
  0.10615896D-13 -0.65887674D-06 -0.10972937D-13 -0.88643683D-04 -0.12480124D-08
 -0.29642019D-13  0.21767563D-03  0.19778782D-05  0.62560830D-13  0.48255423D-04
 -0.26964644D-14 -0.23840433D-06 -0.94682463D-14 -0.22223118D-04 -0.30144567D-06
 -0.47994047D-14  0.32029368D-04  0.10166587D-05  0.33204144D-13  0.34639986D-04
 -0.85522017D-15  0.66392905D-02  0.12375649D-01  0.20979482D-01  0.31765773D-01
  0.39714212D-01  0.34161344D-01  0.13101611D-01  0.15494486D-05  0.20511798D-04
  0.74502584D-04  0.22101051D-03  0.25466997D-03 -0.30933462D-03  0.52108247D-03
 -0.38774022D-03 -0.25375657D-03  0.42506508D-04  0.41570437D-04  0.27467345D-04
  0.13372628D-03  0.13078138D-03  0.86412788D-04 -0.92746750D-03 -0.90704296D-03
 -0.59932163D-03  0.86457081D-05 -0.84416459D-04 -0.38196318D-03 -0.15552219D-05
  0.51464314D-05 -0.81932422D-04 -0.28186251D-07 -0.48223912D-05 -0.60027331D-04
  0.36490929D-04 -0.10488967D-03  0.68398739D-04 -0.17348430D-05 -0.23121518D-05
 -0.26605509D-04 -0.22398244D-04  0.96956235D-05  0.12702621D-04 -0.22393082D-05
  0.16499333D-06  0.92820789D-04 -0.46026564D-04  0.10412066D-04  0.35614498D-04
  0.21064498D-05 -0.33938444D-05 -0.22218859D-04  0.42189228D-05 -0.79029631D-04
 -0.10795789D-03 -0.20008688D-04  0.11132189D-03  0.21356714D-04  0.73519192D-05
  0.12576700D-03  0.30251695D-03  0.16393469D-04 -0.18301268D-05  0.16030294D-04
  0.44381317D-04  0.85227300D-05 -0.97720225D-04 -0.76473342D-04 -0.30323495D-05
  0.49629344D-04 -0.56670609D-04 -0.46567532D-05  0.66392905D-02  0.12375649D-01
  0.20979482D-01  0.31765773D-01  0.39714213D-01  0.34161344D-01  0.13101611D-01
  0.15494486D-05  0.20511798D-04  0.74502584D-04  0.22101051D-03  0.25466997D-03
 -0.30933462D-03  0.52108247D-03 -0.38774022D-03 -0.25375657D-03  0.42506508D-04
  0.41570437D-04  0.27467345D-04 -0.13372628D-03 -0.13078138D-03 -0.86412788D-04
 -0.92746750D-03 -0.90704296D-03 -0.59932164D-03  0.86457081D-05  0.84416459D-04
 -0.38196318D-03 -0.15552219D-05 -0.51464313D-05 -0.81932422D-04 -0.28186251D-07
  0.48223911D-05 -0.60027331D-04  0.36490929D-04 -0.10488967D-03  0.68398739D-04
  0.17348430D-05 -0.23121518D-05  0.26605509D-04 -0.22398244D-04  0.96956235D-05
  0.12702621D-04  0.22393082D-05  0.16499333D-06 -0.92820789D-04 -0.46026564D-04
  0.10412066D-04  0.35614498D-04 -0.21064498D-05 -0.33938444D-05  0.22218859D-04
  0.42189228D-05  0.79029631D-04 -0.10795789D-03 -0.20008688D-04 -0.11132189D-03
  0.21356714D-04  0.73519192D-05 -0.12576700D-03  0.30251695D-03 -0.16393469D-04
 -0.18301268D-05 -0.16030294D-04  0.44381317D-04  0.85227299D-05  0.97720224D-04
 -0.76473342D-04 -0.30323495D-05 -0.49629344D-04 -0.56670609D-04  0.46567532D-05
MO    3     MO 0.0        OCC NO =    2.0000101  ORB. ENERGY =    0.000000
  0.19773900D+00  0.36862534D+00  0.62302704D+00  0.93652585D+00  0.11503543D+01
  0.97085841D+00  0.36506812D+00  0.26815273D-04  0.20042755D-03  0.74904352D-03
  0.20897148D-02  0.27996417D-02 -0.33058548D-02  0.15774870D-01  0.34728860D-03
  0.13277070D-03  0.32491389D-03  0.30462743D-03  0.21691288D-03  0.23202686D-12
  0.21753993D-12  0.15490139D-12 -0.73149994D-02 -0.68582769D-02 -0.48835017D-02
  0.57879430D-04  0.15067187D-13  0.59472000D-03  0.87604275D-05 -0.33400279D-13
  0.53099100D-03 -0.11662993D-06 -0.93598910D-15  0.65009217D-05 -0.67873766D-03
  0.55069242D-03  0.12804524D-03 -0.61023155D-14  0.91919758D-04  0.19720214D-12
  0.20586468D-03 -0.24437708D-03  0.38512397D-04  0.10115455D-13 -0.38629691D-04
  0.96229582D-14 -0.91827048D-05 -0.38063315D-04  0.47246019D-04  0.79194694D-15
  0.18478861D-05 -0.97208387D-14 -0.69086928D-05 -0.28639382D-13 -0.75858131D-05
 -0.10761776D-04  0.33776933D-13  0.25867364D-03  0.31487855D-04  0.52141214D-13
 -0.23591620D-03 -0.61217446D-14  0.25816103D-05  0.76735031D-14 -0.14778831D-03
  0.26059812D-05  0.11717159D-13  0.83341469D-06 -0.10350812D-04 -0.34737668D-13
  0.44253152D-03 -0.53742201D-14 -0.99132595D-01 -0.18533837D+00 -0.32031979D+00
 -0.51810406D+00 -0.78309695D+00 -0.10784866D+01 -0.12606195D+01 -0.10895127D+01
 -0.50848123D+00 -0.68888049D-01  0.50385711D-03 -0.12495753D-02 -0.16063165D-01
 -0.58596116D-01 -0.19770184D+00 -0.43424195D+00 -0.56092216D+00  0.90144964D-01
  0.75620910D+00  0.41499780D+00 -0.54933849D-05 -0.62573069D-04 -0.12992425D-03
 -0.35725868D-03  0.46322691D-04  0.16153611D-02  0.40289671D-02 -0.33351206D-02
  0.24925419D-01 -0.17503985D-02 -0.19144795D-03 -0.71357406D+00 -0.93616859D+00
 -0.10267743D+01 -0.84479900D+00 -0.44533000D+00 -0.11586649D+00 -0.76956972D-09
 -0.10096317D-08 -0.11073475D-08 -0.91109214D-09 -0.48027597D-09 -0.12495877D-09
 -0.50272613D+01 -0.65954809D+01 -0.72338152D+01 -0.59517652D+01 -0.31374322D+01
 -0.81630085D+00 -0.42637614D-05 -0.15305041D-03 -0.24281830D-03 -0.28833929D-03
 -0.43633334D-04  0.31755523D-03 -0.68835442D-14 -0.24708916D-12 -0.39201315D-12
 -0.46550359D-12 -0.70442963D-13  0.51267068D-12 -0.40841312D-04 -0.14660247D-02
 -0.23258849D-02 -0.27619170D-02 -0.41795084D-03  0.30417679D-02 -0.53385671D-02
 -0.53140248D-11 -0.39501162D-01 -0.37598622D-05  0.68286996D-13  0.43248509D-03
  0.13148886D-05  0.19579617D-14  0.62590943D-05  0.27816763D-03  0.20442926D-03
 -0.48259688D-03  0.19960796D-14 -0.34448012D-04 -0.68034341D-13 -0.31135301D-04
 -0.29480658D-03  0.32594188D-03 -0.35775911D-14  0.92365632D-08  0.61053516D-13
  0.85186878D-05  0.96420649D-05 -0.18160753D-04 -0.13658151D-15  0.21832753D-05
 -0.58838186D-14 -0.56496681D-05 -0.83441024D-15  0.11263947D-03  0.21131260D-05
 -0.78931594D-14 -0.27270064D-03  0.14835878D-04  0.10396390D-13 -0.65217755D-04
 -0.16680700D-14 -0.18653503D-06 -0.29365271D-14  0.27181048D-04 -0.19733025D-05
 -0.17169820D-14 -0.56020944D-04  0.25329075D-05  0.10526563D-13 -0.25522199D-04
 -0.51790380D-15 -0.51542607D-01 -0.96075507D-01 -0.16286939D+00 -0.24660628D+00
 -0.30831217D+00 -0.26520375D+00 -0.10171135D+00 -0.81692577D-05 -0.10814568D-03
 -0.39280477D-03 -0.11652480D-02 -0.13427129D-02  0.16309248D-02 -0.44248129D-02
  0.10917772D-02  0.14337379D-03 -0.58568970D-03 -0.57279173D-03 -0.37846772D-03
 -0.46180188D-02 -0.45163215D-02 -0.29841246D-02 -0.11781627D-02 -0.11522174D-02
 -0.76131872D-03 -0.12849659D-03 -0.49138310D-03  0.22227647D-03 -0.21087238D-04
 -0.54087418D-04  0.19696459D-03 -0.18138617D-07 -0.27966247D-05  0.28308409D-04
 -0.15269883D-03  0.17160543D-03 -0.18906596D-04  0.29316579D-04  0.88046411D-05
  0.41006000D-03  0.10893332D-03 -0.36109803D-04 -0.72823522D-04 -0.59399587D-05
  0.56267875D-05 -0.28900277D-03  0.82327121D-04 -0.27942484D-04 -0.54384637D-04
 -0.19322862D-05 -0.51683479D-06  0.74486472D-04 -0.75915802D-05  0.11191546D-03
  0.22871219D-03  0.37228102D-04 -0.34700084D-03 -0.22548886D-03 -0.14453361D-04
  0.11254458D-04 -0.46064770D-03  0.11618272D-04  0.42072602D-05 -0.24171670D-04
 -0.67444363D-04 -0.19474980D-04  0.31318642D-03  0.26972562D-03  0.68531997D-05
 -0.24067141D-03 -0.67392535D-04 -0.10539451D-04 -0.51542607D-01 -0.96075507D-01
 -0.16286939D+00 -0.24660628D+00 -0.30831217D+00 -0.26520375D+00 -0.10171135D+00
 -0.81692577D-05 -0.10814568D-03 -0.39280477D-03 -0.11652480D-02 -0.13427129D-02
  0.16309248D-02 -0.44248129D-02  0.10917772D-02  0.14337379D-03 -0.58568970D-03
 -0.57279173D-03 -0.37846772D-03  0.46180188D-02  0.45163215D-02  0.29841246D-02
 -0.11781627D-02 -0.11522174D-02 -0.76131873D-03 -0.12849659D-03  0.49138310D-03
  0.22227647D-03 -0.21087238D-04  0.54087418D-04  0.19696459D-03 -0.18138618D-07
  0.27966247D-05  0.28308409D-04 -0.15269883D-03  0.17160543D-03 -0.18906596D-04
 -0.29316579D-04  0.88046411D-05 -0.41006000D-03  0.10893332D-03 -0.36109802D-04
 -0.72823522D-04  0.59399587D-05  0.56267875D-05  0.28900277D-03  0.82327121D-04
 -0.27942484D-04 -0.54384637D-04  0.19322862D-05 -0.51683479D-06 -0.74486472D-04
 -0.75915802D-05 -0.11191546D-03  0.22871219D-03  0.37228102D-04  0.34700084D-03
 -0.22548886D-03 -0.14453361D-04 -0.11254458D-04 -0.46064770D-03 -0.11618272D-04
  0.42072602D-05  0.24171670D-04 -0.67444363D-04 -0.19474980D-04 -0.31318642D-03
  0.26972562D-03  0.68531997D-05  0.24067141D-03 -0.67392535D-04  0.10539451D-04
MO    4     MO 0.0        OCC NO =    2.0000090  ORB. ENERGY =    0.000000
  0.18708472D-01  0.34876361D-01  0.58945802D-01  0.88606534D-01  0.10883726D+00
  0.91854805D-01  0.34539806D-01  0.22585323D-05  0.16881129D-04  0.63088635D-04
  0.17600747D-03  0.23580148D-03 -0.27843758D-03  0.14988844D-02  0.77612436D-04
  0.17148027D-04 -0.39716964D-02 -0.37237179D-02 -0.26515089D-02 -0.44076837D-13
 -0.41324837D-13 -0.29425746D-13 -0.56041598D-03 -0.52542561D-03 -0.37413433D-03
 -0.78818881D-03 -0.18713151D-12  0.58334985D-04 -0.12162265D-03  0.37192737D-13
  0.91635311D-04  0.20030020D-05 -0.45362039D-14  0.71317984D-06 -0.66318993D-04
  0.44602067D-04  0.21716926D-04  0.30217868D-14 -0.10024071D-02  0.35256094D-12
  0.10380418D-04 -0.15946031D-04  0.55656130D-05  0.44398790D-15  0.46068578D-03
  0.25865496D-12 -0.13096953D-05 -0.52771300D-05  0.65868254D-05 -0.23283245D-15
 -0.27531153D-04 -0.26389948D-13  0.10221368D-03 -0.27019989D-13  0.37279913D-05
  0.42563198D-04  0.27272097D-12  0.26853416D-04 -0.34920423D-03 -0.19166101D-12
 -0.38037390D-04  0.35330594D-15 -0.31145438D-04  0.27517291D-13 -0.78062865D-05
 -0.72565508D-04  0.13887805D-13 -0.96996730D-05  0.16600182D-03 -0.96439677D-13
  0.33118532D-04 -0.54109366D-14 -0.61452903D-02 -0.11489239D-01 -0.19856820D-01
 -0.32117588D-01 -0.48544660D-01 -0.66856047D-01 -0.78146578D-01 -0.67539557D-01
 -0.31521063D-01 -0.42704124D-02  0.31234411D-04 -0.77578733D-04 -0.99726681D-03
 -0.36378860D-02 -0.12274137D-01 -0.26959513D-01 -0.34824337D-01  0.55965672D-02
  0.46948547D-01  0.25764757D-01 -0.31346873D-06 -0.35706037D-05 -0.74138604D-05
 -0.20386233D-04  0.26433093D-05  0.92177263D-04  0.22990473D-03 -0.19031181D-03
  0.15637531D-02 -0.21197380D-03 -0.27882705D-04  0.97000206D+01  0.12725875D+02
  0.13957531D+02  0.11483836D+02  0.60536255D+01  0.15750395D+01  0.92520251D-10
  0.12138131D-09  0.13312902D-09  0.10953455D-09  0.57740387D-10  0.15022963D-10
 -0.29354728D+00 -0.38511734D+00 -0.42239038D+00 -0.34753008D+00 -0.18319810D+00
 -0.47664699D-01  0.57243198D-04  0.20547807D-02  0.32599611D-02  0.38711038D-02
  0.58580004D-03 -0.42633429D-02  0.75095403D-15  0.26955969D-13  0.42766320D-13
  0.50783694D-13  0.76849114D-14 -0.55929345D-13 -0.28965891D-05 -0.10397489D-03
 -0.16495877D-03 -0.19588348D-03 -0.29642334D-04  0.21573135D-03  0.73092000D-01
  0.61151464D-12 -0.23744852D-02  0.17735599D-04  0.28185489D-13  0.53953440D-04
 -0.17713997D-04  0.22309809D-14  0.93820642D-06  0.18739948D-04  0.14805779D-04
 -0.33545727D-04  0.24555678D-14  0.57479544D-03 -0.52917290D-14  0.48615088D-05
 -0.17290693D-04  0.12429184D-04  0.37454876D-14 -0.25564085D-03  0.73942252D-14
  0.11322884D-05  0.13107844D-05 -0.24430727D-05  0.20043696D-15 -0.19919757D-04
 -0.71110122D-14  0.83175171D-04  0.42931174D-15  0.10797704D-04 -0.30932564D-04
  0.50403143D-14 -0.25162366D-04 -0.21859295D-03 -0.63282495D-14 -0.72307446D-05
 -0.30572874D-14  0.88869677D-05  0.67805650D-15  0.93243079D-06  0.27807231D-04
 -0.26489752D-14 -0.21846809D-05 -0.54468134D-04  0.61480565D-15 -0.61261148D-06
 -0.13025541D-14 -0.50360077D-02 -0.93871271D-02 -0.15913272D-01 -0.24094846D-01
 -0.30123864D-01 -0.25911925D-01 -0.99377809D-02 -0.75108733D-06 -0.99429898D-05
 -0.36114748D-04 -0.10713372D-03 -0.12344997D-03  0.14994838D-03 -0.43400089D-03
  0.90053274D-04  0.23584377D-04  0.63606104D-02  0.62205381D-02  0.41101725D-02
 -0.44878273D-03 -0.43889970D-03 -0.28999959D-03 -0.22230628D-03 -0.21741068D-03
 -0.14365243D-03  0.14958768D-02 -0.59233822D-04 -0.57461531D-05  0.34599443D-03
 -0.72961510D-05 -0.78047488D-05 -0.77916837D-06  0.21046516D-06  0.39737869D-05
 -0.11615453D-04  0.13905463D-04 -0.22900093D-05 -0.36468445D-03 -0.14644749D-03
  0.50295599D-04  0.87040863D-05 -0.54502875D-05 -0.32537988D-05  0.10198985D-03
 -0.56923325D-04 -0.32669714D-04  0.84767250D-05 -0.94286532D-06 -0.75338597D-05
  0.11846130D-04  0.80307657D-04 -0.57335239D-05  0.75641529D-05  0.45831289D-05
  0.17097015D-04 -0.12293437D-03 -0.23321595D-04 -0.38566412D-04  0.10024191D-03
  0.95722085D-05 -0.12724633D-04 -0.60577955D-03 -0.42816025D-05 -0.42195147D-06
 -0.27573162D-05  0.73404961D-04  0.27207784D-04  0.31340790D-04 -0.60560154D-04
 -0.25941929D-04 -0.23068842D-04  0.21843603D-03 -0.50360082D-02 -0.93871280D-02
 -0.15913273D-01 -0.24094848D-01 -0.30123867D-01 -0.25911927D-01 -0.99377818D-02
 -0.75108737D-06 -0.99429904D-05 -0.36114750D-04 -0.10713373D-03 -0.12344998D-03
  0.14994839D-03 -0.43400094D-03  0.90053274D-04  0.23584377D-04  0.63606104D-02
  0.62205381D-02  0.41101725D-02  0.44878274D-03  0.43889971D-03  0.28999960D-03
 -0.22230629D-03 -0.21741069D-03 -0.14365244D-03  0.14958768D-02  0.59233822D-04
 -0.57461533D-05  0.34599443D-03  0.72961512D-05 -0.78047492D-05 -0.77916837D-06
 -0.21046513D-06  0.39737869D-05 -0.11615453D-04  0.13905462D-04 -0.22900093D-05
  0.36468445D-03 -0.14644749D-03 -0.50295599D-04  0.87040861D-05 -0.54502872D-05
 -0.32537989D-05 -0.10198985D-03 -0.56923325D-04  0.32669713D-04  0.84767251D-05
 -0.94286533D-06 -0.75338598D-05 -0.11846130D-04  0.80307657D-04  0.57335240D-05
  0.75641529D-05 -0.45831293D-05  0.17097015D-04 -0.12293437D-03  0.23321596D-04
 -0.38566412D-04  0.10024191D-03 -0.95722086D-05 -0.12724633D-04  0.60577955D-03