 f2cs-wavefunction
GAUSSIAN            188 MOL ORBITALS    330 PRIMITIVES        4 NUCLEI
  C    1    (CENTRE  1)   0.00000000  0.00000000 -0.98331710  CHARGE =  6.0
  S    2    (CENTRE  2)   0.00000000  0.00000000  2.03811688  CHARGE = 16.0
  F    3    (CENTRE  3)   0.00000000 -1.99407870 -2.44821201  CHARGE =  9.0
  F    4    (CENTRE  4)  -0.01889726  1.99407870 -2.44821201  CHARGE =  9.0
CENTRE ASSIGNMENTS    1  1  1  1  1  1  1  1  1  1  1  1  1  1  1  1  1  1  1  1
CENTRE ASSIGNMENTS    1  1  1  1  1  1  1  1  1  1  1  1  1  1  1  1  1  1  1  1
CENTRE ASSIGNMENTS    1  1  1  1  1  1  1  1  1  1  1  1  1  1  1  1  1  1  1  1
CENTRE ASSIGNMENTS    1  1  1  1  1  1  1  1  1  1  1  1  2  2  2  2  2  2  2  2
CENTRE ASSIGNMENTS    2  2  2  2  2  2  2  2  2  2  2  2  2  2  2  2  2  2  2  2
CENTRE ASSIGNMENTS    2  2  2  2  2  2  2  2  2  2  2  2  2  2  2  2  2  2  2  2
CENTRE ASSIGNMENTS    2  2  2  2  2  2  2  2  2  2  2  2  2  2  2  2  2  2  2  2
CENTRE ASSIGNMENTS    2  2  2  2  2  2  2  2  2  2  2  2  2  2  2  2  2  2  2  2
CENTRE ASSIGNMENTS    2  2  2  2  2  2  2  2  2  2  2  2  2  2  2  2  2  2  2  2
CENTRE ASSIGNMENTS    2  2  2  2  2  2  3  3  3  3  3  3  3  3  3  3  3  3  3  3
CENTRE ASSIGNMENTS    3  3  3  3  3  3  3  3  3  3  3  3  3  3  3  3  3  3  3  3
CENTRE ASSIGNMENTS    3  3  3  3  3  3  3  3  3  3  3  3  3  3  3  3  3  3  3  3
CENTRE ASSIGNMENTS    3  3  3  3  3  3  3  3  3  3  3  3  3  3  3  3  3  3  4  4
CENTRE ASSIGNMENTS    4  4  4  4  4  4  4  4  4  4  4  4  4  4  4  4  4  4  4  4
CENTRE ASSIGNMENTS    4  4  4  4  4  4  4  4  4  4  4  4  4  4  4  4  4  4  4  4
CENTRE ASSIGNMENTS    4  4  4  4  4  4  4  4  4  4  4  4  4  4  4  4  4  4  4  4
CENTRE ASSIGNMENTS    4  4  4  4  4  4  4  4  4  4
TYPE ASSIGNMENTS      1  1  1  1  1  1  1  1  1  1  1  1  1  1  1  1  2  2  2  3
TYPE ASSIGNMENTS      3  3  4  4  4  2  3  4  2  3  4  2  3  4  5  6  7  8  9 10
TYPE ASSIGNMENTS      5  6  7  8  9 10  5  6  7  8  9 10 11 12 13 17 14 15 18 19
TYPE ASSIGNMENTS     16 20 11 12 13 17 14 15 18 19 16 20  1  1  1  1  1  1  1  1
TYPE ASSIGNMENTS      1  1  1  1  1  1  1  1  1  1  1  1  1  1  1  1  1  1  1  1
TYPE ASSIGNMENTS      1  1  1  2  2  2  2  2  2  3  3  3  3  3  3  4  4  4  4  4
TYPE ASSIGNMENTS      4  2  2  2  2  2  2  3  3  3  3  3  3  4  4  4  4  4  4  2
TYPE ASSIGNMENTS      3  4  2  3  4  2  3  4  5  6  7  8  9 10  5  6  7  8  9 10
TYPE ASSIGNMENTS      5  6  7  8  9 10 11 12 13 17 14 15 18 19 16 20 11 12 13 17
TYPE ASSIGNMENTS     14 15 18 19 16 20  1  1  1  1  1  1  1  1  1  1  1  1  1  1
TYPE ASSIGNMENTS      1  1  2  2  2  3  3  3  4  4  4  2  3  4  2  3  4  2  3  4
TYPE ASSIGNMENTS      5  6  7  8  9 10  5  6  7  8  9 10  5  6  7  8  9 10 11 12
TYPE ASSIGNMENTS     13 17 14 15 18 19 16 20 11 12 13 17 14 15 18 19 16 20  1  1
TYPE ASSIGNMENTS      1  1  1  1  1  1  1  1  1  1  1  1  1  1  2  2  2  3  3  3
TYPE ASSIGNMENTS      4  4  4  2  3  4  2  3  4  2  3  4  5  6  7  8  9 10  5  6
TYPE ASSIGNMENTS      7  8  9 10  5  6  7  8  9 10 11 12 13 17 14 15 18 19 16 20
TYPE ASSIGNMENTS     11 12 13 17 14 15 18 19 16 20
EXPONENTS  0.8236000D+04 0.1235000D+04 0.2808000D+03 0.7927000D+02 0.2559000D+02
EXPONENTS  0.8997000D+01 0.3319000D+01 0.2808000D+03 0.7927000D+02 0.2559000D+02
EXPONENTS  0.8997000D+01 0.3319000D+01 0.3643000D+00 0.9059000D+00 0.1285000D+00
EXPONENTS  0.4402000D-01 0.1871000D+02 0.4133000D+01 0.1200000D+01 0.1871000D+02
EXPONENTS  0.4133000D+01 0.1200000D+01 0.1871000D+02 0.4133000D+01 0.1200000D+01
EXPONENTS  0.3827000D+00 0.3827000D+00 0.3827000D+00 0.1209000D+00 0.1209000D+00
EXPONENTS  0.1209000D+00 0.3569000D-01 0.3569000D-01 0.3569000D-01 0.1097000D+01
EXPONENTS  0.1097000D+01 0.1097000D+01 0.1097000D+01 0.1097000D+01 0.1097000D+01
EXPONENTS  0.3180000D+00 0.3180000D+00 0.3180000D+00 0.3180000D+00 0.3180000D+00
EXPONENTS  0.3180000D+00 0.1000000D+00 0.1000000D+00 0.1000000D+00 0.1000000D+00
EXPONENTS  0.1000000D+00 0.1000000D+00 0.7610000D+00 0.7610000D+00 0.7610000D+00
EXPONENTS  0.7610000D+00 0.7610000D+00 0.7610000D+00 0.7610000D+00 0.7610000D+00
EXPONENTS  0.7610000D+00 0.7610000D+00 0.2680000D+00 0.2680000D+00 0.2680000D+00
EXPONENTS  0.2680000D+00 0.2680000D+00 0.2680000D+00 0.2680000D+00 0.2680000D+00
EXPONENTS  0.2680000D+00 0.2680000D+00 0.3741000D+06 0.5605000D+05 0.1276000D+05
EXPONENTS  0.3615000D+04 0.1183000D+04 0.4288000D+03 0.1678000D+03 0.6947000D+02
EXPONENTS  0.2984000D+02 0.1272000D+02 0.5244000D+01 0.3615000D+04 0.1183000D+04
EXPONENTS  0.4288000D+03 0.1678000D+03 0.6947000D+02 0.2984000D+02 0.1272000D+02
EXPONENTS  0.5244000D+01 0.2219000D+01 0.1183000D+04 0.1678000D+03 0.6947000D+02
EXPONENTS  0.2984000D+02 0.1272000D+02 0.5244000D+01 0.2219000D+01 0.3490000D+00
EXPONENTS  0.7767000D+00 0.1322000D+00 0.4970000D-01 0.5744000D+03 0.1358000D+03
EXPONENTS  0.4319000D+02 0.1587000D+02 0.6208000D+01 0.2483000D+01 0.5744000D+03
EXPONENTS  0.1358000D+03 0.4319000D+02 0.1587000D+02 0.6208000D+01 0.2483000D+01
EXPONENTS  0.5744000D+03 0.1358000D+03 0.4319000D+02 0.1587000D+02 0.6208000D+01
EXPONENTS  0.2483000D+01 0.1358000D+03 0.4319000D+02 0.1587000D+02 0.6208000D+01
EXPONENTS  0.2483000D+01 0.3229000D+00 0.1358000D+03 0.4319000D+02 0.1587000D+02
EXPONENTS  0.6208000D+01 0.2483000D+01 0.3229000D+00 0.1358000D+03 0.4319000D+02
EXPONENTS  0.1587000D+02 0.6208000D+01 0.2483000D+01 0.3229000D+00 0.8688000D+00
EXPONENTS  0.8688000D+00 0.8688000D+00 0.1098000D+00 0.1098000D+00 0.1098000D+00
EXPONENTS  0.3510000D-01 0.3510000D-01 0.3510000D-01 0.2690000D+00 0.2690000D+00
EXPONENTS  0.2690000D+00 0.2690000D+00 0.2690000D+00 0.2690000D+00 0.8190000D+00
EXPONENTS  0.8190000D+00 0.8190000D+00 0.8190000D+00 0.8190000D+00 0.8190000D+00
EXPONENTS  0.1010000D+00 0.1010000D+00 0.1010000D+00 0.1010000D+00 0.1010000D+00
EXPONENTS  0.1010000D+00 0.5570000D+00 0.5570000D+00 0.5570000D+00 0.5570000D+00
EXPONENTS  0.5570000D+00 0.5570000D+00 0.5570000D+00 0.5570000D+00 0.5570000D+00
EXPONENTS  0.5570000D+00 0.2180000D+00 0.2180000D+00 0.2180000D+00 0.2180000D+00
EXPONENTS  0.2180000D+00 0.2180000D+00 0.2180000D+00 0.2180000D+00 0.2180000D+00
EXPONENTS  0.2180000D+00 0.1950000D+05 0.2923000D+04 0.6645000D+03 0.1875000D+03
EXPONENTS  0.6062000D+02 0.2142000D+02 0.7950000D+01 0.6645000D+03 0.1875000D+03
EXPONENTS  0.6062000D+02 0.2142000D+02 0.7950000D+01 0.8815000D+00 0.2257000D+01
EXPONENTS  0.3041000D+00 0.9158000D-01 0.4388000D+02 0.9926000D+01 0.2930000D+01
EXPONENTS  0.4388000D+02 0.9926000D+01 0.2930000D+01 0.4388000D+02 0.9926000D+01
EXPONENTS  0.2930000D+01 0.9132000D+00 0.9132000D+00 0.9132000D+00 0.2672000D+00
EXPONENTS  0.2672000D+00 0.2672000D+00 0.7361000D-01 0.7361000D-01 0.7361000D-01
EXPONENTS  0.3107000D+01 0.3107000D+01 0.3107000D+01 0.3107000D+01 0.3107000D+01
EXPONENTS  0.3107000D+01 0.8550000D+00 0.8550000D+00 0.8550000D+00 0.8550000D+00
EXPONENTS  0.8550000D+00 0.8550000D+00 0.2920000D+00 0.2920000D+00 0.2920000D+00
EXPONENTS  0.2920000D+00 0.2920000D+00 0.2920000D+00 0.1917000D+01 0.1917000D+01
EXPONENTS  0.1917000D+01 0.1917000D+01 0.1917000D+01 0.1917000D+01 0.1917000D+01
EXPONENTS  0.1917000D+01 0.1917000D+01 0.1917000D+01 0.7240000D+00 0.7240000D+00
EXPONENTS  0.7240000D+00 0.7240000D+00 0.7240000D+00 0.7240000D+00 0.7240000D+00
EXPONENTS  0.7240000D+00 0.7240000D+00 0.7240000D+00 0.1950000D+05 0.2923000D+04
EXPONENTS  0.6645000D+03 0.1875000D+03 0.6062000D+02 0.2142000D+02 0.7950000D+01
EXPONENTS  0.6645000D+03 0.1875000D+03 0.6062000D+02 0.2142000D+02 0.7950000D+01
EXPONENTS  0.8815000D+00 0.2257000D+01 0.3041000D+00 0.9158000D-01 0.4388000D+02
EXPONENTS  0.9926000D+01 0.2930000D+01 0.4388000D+02 0.9926000D+01 0.2930000D+01
EXPONENTS  0.4388000D+02 0.9926000D+01 0.2930000D+01 0.9132000D+00 0.9132000D+00
EXPONENTS  0.9132000D+00 0.2672000D+00 0.2672000D+00 0.2672000D+00 0.7361000D-01
EXPONENTS  0.7361000D-01 0.7361000D-01 0.3107000D+01 0.3107000D+01 0.3107000D+01
EXPONENTS  0.3107000D+01 0.3107000D+01 0.3107000D+01 0.8550000D+00 0.8550000D+00
EXPONENTS  0.8550000D+00 0.8550000D+00 0.8550000D+00 0.8550000D+00 0.2920000D+00
EXPONENTS  0.2920000D+00 0.2920000D+00 0.2920000D+00 0.2920000D+00 0.2920000D+00
EXPONENTS  0.1917000D+01 0.1917000D+01 0.1917000D+01 0.1917000D+01 0.1917000D+01
EXPONENTS  0.1917000D+01 0.1917000D+01 0.1917000D+01 0.1917000D+01 0.1917000D+01
EXPONENTS  0.7240000D+00 0.7240000D+00 0.7240000D+00 0.7240000D+00 0.7240000D+00
EXPONENTS  0.7240000D+00 0.7240000D+00 0.7240000D+00 0.7240000D+00 0.7240000D+00
MO    1     MO 0.0        OCC NO =    2.0000305  ORB. ENERGY =    0.000000
 -0.99531800D-06 -0.18554733D-05 -0.31360026D-05 -0.47139968D-05 -0.57903008D-05
 -0.48868096D-05 -0.18375680D-05 -0.41024620D-09 -0.30663361D-08 -0.11459598D-07
 -0.31970495D-07 -0.42831649D-07  0.50576191D-07 -0.54403326D-07 -0.66104459D-07
  0.19692864D-08  0.14436751D-04  0.13535372D-04  0.96379910D-05 -0.30467532D-02
 -0.28565248D-02 -0.20340158D-02  0.14225838D-06  0.13337627D-06  0.94971851D-07
  0.74073080D-05 -0.15633215D-02 -0.46421723D-07 -0.28927234D-05  0.61049848D-03
  0.25255730D-07  0.64225675D-07 -0.13554287D-04  0.37004045D-09 -0.36388331D-08
 -0.18569595D-07  0.22208428D-07  0.11440104D-06  0.48319488D-05 -0.10197400D-02
 -0.30030059D-08  0.16961586D-07 -0.13958580D-07  0.18984587D-05 -0.18826575D-05
  0.39734578D-03  0.45298063D-08 -0.28606710D-08 -0.16691352D-08 -0.10067569D-05
  0.10702152D-05 -0.22587199D-03 -0.17016899D-05  0.24075067D-03 -0.13339176D-07
 -0.18621474D-07  0.35912177D-03  0.47783680D-07  0.51236911D-05 -0.10813738D-02
 -0.77661519D-08 -0.69875685D-05  0.61017556D-06 -0.13714723D-03  0.28497209D-08
  0.72919288D-06 -0.12877267D-03 -0.95851475D-08 -0.25597196D-05  0.54021436D-03
  0.10359849D-08  0.13133052D-05 -0.21030143D-05 -0.39317970D-05 -0.67953138D-05
 -0.10991140D-04 -0.16612740D-04 -0.22879183D-04 -0.26742979D-04 -0.23113091D-04
 -0.10787000D-04 -0.14614018D-05  0.10688903D-07 -0.26185339D-07 -0.33660990D-06
 -0.12279045D-05 -0.41429195D-05 -0.90997101D-05 -0.11754343D-04  0.18890230D-05
  0.15846658D-04  0.86964413D-05 -0.22793740D-09 -0.25963486D-08 -0.53909557D-08
 -0.14823759D-07  0.19220706D-08  0.67026288D-07  0.16717421D-06 -0.13838439D-06
  0.45931754D-06  0.34574694D-08 -0.49903389D-08 -0.46270556D-01 -0.60704338D-01
 -0.66579521D-01 -0.54779625D-01 -0.28876703D-01 -0.75131751D-02  0.97652838D+01
  0.12811497D+02  0.14051440D+02  0.11561101D+02  0.60943552D+01  0.15856366D+01
  0.14793853D-03  0.19408694D-03  0.21287137D-03  0.17514415D-03  0.92326036D-04
  0.24021498D-04 -0.44891512D-06 -0.16114092D-04 -0.25565410D-04 -0.30358141D-04
 -0.45939869D-05  0.33434175D-04  0.94742276D-04  0.34008338D-02  0.53955081D-02
  0.64070003D-02  0.96954802D-03 -0.70561888D-02  0.16757263D-08  0.60151252D-07
  0.95431470D-07  0.11332194D-06  0.17148597D-07 -0.12480427D-06 -0.32031909D-03
  0.67602524D-01  0.10805024D-05  0.17984926D-05 -0.37955880D-03 -0.11399806D-07
  0.33677561D-07 -0.71076362D-05  0.21945845D-09 -0.68321186D-08 -0.10712943D-07
  0.17545062D-07 -0.71309055D-06 -0.45569340D-05  0.96172356D-03 -0.81689713D-08
  0.20157084D-09  0.79674005D-08  0.14396671D-05  0.26317232D-05 -0.55543868D-03
 -0.18135488D-08  0.98951056D-09  0.82403820D-09  0.29935680D-06  0.19905571D-06
 -0.42011726D-04 -0.52055257D-06  0.35006734D-04 -0.47537382D-08  0.54347842D-06
  0.10985495D-03  0.21706569D-08  0.10181793D-05 -0.21487515D-03  0.12090558D-07
  0.14961890D-05 -0.77605500D-07  0.34764944D-04 -0.18235519D-08 -0.33896918D-06
  0.16379491D-04  0.35616535D-08  0.57178568D-06 -0.12067432D-03  0.19090023D-08
 -0.18236428D-06  0.50729831D-02  0.94560492D-02  0.16030110D-01  0.24271755D-01
  0.30345039D-01  0.26102175D-01  0.10010746D-01 -0.65352790D-06 -0.86514857D-05
 -0.31423770D-04 -0.93218023D-04 -0.10741494D-03  0.13047145D-03  0.58780090D-03
  0.87201959D-04  0.85327517D-03 -0.15286639D-04 -0.14949999D-04 -0.98780965D-05
 -0.13025532D-02 -0.12738686D-02 -0.84169886D-03 -0.39047396D-02 -0.38187501D-02
 -0.25232096D-02 -0.53368305D-05 -0.38871699D-03 -0.10831568D-02  0.36378970D-06
 -0.14824110D-03 -0.74746908D-03 -0.27183113D-06  0.92212728D-04  0.11396481D-04
  0.24111680D-04  0.27383499D-04 -0.51495180D-04  0.27208912D-05 -0.18377403D-05
  0.26331770D-03 -0.54404690D-04 -0.13268065D-03  0.18708534D-03 -0.12410502D-05
  0.20015892D-05 -0.14917137D-03  0.11021791D-03 -0.21481759D-04 -0.88736153D-04
  0.14883071D-05 -0.11424402D-05 -0.27901755D-03  0.10575692D-05 -0.27214290D-04
 -0.54617625D-04 -0.43660220D-05 -0.33125757D-03  0.20185860D-04  0.11933143D-05
  0.41290044D-03  0.14366701D-03  0.44892335D-05 -0.52207010D-06 -0.63292041D-04
  0.95233755D-04  0.17273361D-05  0.19969562D-03 -0.42115570D-04 -0.16112575D-06
 -0.98194948D-05 -0.24358570D-03 -0.11726195D-05 -0.50723543D-02 -0.94548772D-02
 -0.16028123D-01 -0.24268746D-01 -0.30341278D-01 -0.26098940D-01 -0.10009505D-01
  0.65378305D-06  0.86548634D-05  0.31436038D-04  0.93254416D-04  0.10745688D-03
 -0.13052238D-03 -0.58776118D-03 -0.87214692D-04 -0.85324347D-03  0.27633423D-04
  0.27024884D-04  0.17856483D-04 -0.13029652D-02 -0.12742715D-02 -0.84196504D-03
  0.39045971D-02  0.38186107D-02  0.25231175D-02  0.90208426D-05 -0.38876498D-03
  0.10830938D-02  0.10411710D-05 -0.14824719D-03  0.74741555D-03 -0.60202607D-06
  0.92210082D-04 -0.11396034D-04 -0.24131126D-04 -0.27360904D-04  0.51492030D-04
  0.27827521D-05 -0.65754348D-06  0.26333539D-03  0.54421825D-04  0.13263905D-03
 -0.18706087D-03 -0.27239600D-05 -0.58803091D-06 -0.14916575D-03 -0.11021393D-03
  0.21485444D-04  0.88728488D-04 -0.10079225D-05  0.37863732D-05 -0.27899377D-03
  0.20820021D-05 -0.27183624D-04  0.54646397D-04 -0.11404836D-05 -0.33129559D-03
 -0.20234197D-04 -0.51055228D-05  0.41284646D-03 -0.14370499D-03  0.68300489D-05
 -0.13703506D-05 -0.63279507D-04 -0.95234921D-04  0.38568438D-05  0.19966673D-03
  0.42134157D-04  0.25420808D-06 -0.98282132D-05  0.24357061D-03 -0.49909739D-05
MO    2     MO 0.0        OCC NO =    2.0000247  ORB. ENERGY =    0.000000
 -0.59334275D-01 -0.11061104D+00 -0.18694773D+00 -0.28101731D+00 -0.34517943D+00
 -0.29131926D+00 -0.10954365D+00 -0.94595987D-05 -0.70704640D-04 -0.26423938D-03
 -0.73718673D-03 -0.98762698D-03  0.11662033D-02 -0.44996516D-02 -0.13845990D-02
 -0.56526843D-04 -0.71657022D-05 -0.67183012D-05 -0.47838307D-05  0.60485996D-07
  0.56709466D-07  0.40380518D-07  0.29468339D-02  0.27628441D-02  0.19673096D-02
 -0.13063386D-05  0.29511530D-07 -0.42011983D-03 -0.15469173D-05 -0.25132064D-07
 -0.93826629D-03  0.12617808D-07  0.11173523D-09  0.78383290D-05  0.25975822D-03
 -0.10468790D-03 -0.15507032D-03  0.34534891D-05 -0.51926617D-05 -0.48399834D-07
  0.10321384D-03  0.15494381D-03 -0.25815765D-03 -0.49024530D-06  0.53487252D-06
 -0.37043027D-08  0.17127170D-04  0.61926061D-04 -0.79053231D-04 -0.42451988D-06
 -0.17147021D-06  0.43148637D-08 -0.11277222D-06  0.32315053D-08 -0.36042927D-04
  0.12272744D-05 -0.28808705D-07 -0.10105259D-03 -0.88895777D-06  0.19114189D-07
  0.20918137D-03 -0.29398219D-05 -0.46849373D-07  0.19054034D-08  0.46924370D-04
  0.44601059D-06 -0.21083670D-08  0.26125798D-04 -0.30546247D-06 -0.36078432D-08
 -0.16689891D-03  0.18292458D-05 -0.12695403D+00 -0.23735334D+00 -0.41021713D+00
 -0.66350930D+00 -0.10028721D+01 -0.13811625D+01 -0.16144108D+01 -0.13952830D+01
 -0.65118583D+00 -0.88221391D-01  0.64526396D-03 -0.15827337D-02 -0.20345883D-01
 -0.74218857D-01 -0.25041258D+00 -0.55001839D+00 -0.71047374D+00  0.11417918D+00
  0.95782757D+00  0.52564341D+00 -0.13254220D-04 -0.15097381D-03 -0.31347605D-03
 -0.86197952D-03  0.11176554D-03  0.38974789D-02  0.97209312D-02 -0.80468461D-02
  0.29241563D-01  0.15634243D-02  0.75120684D-04  0.21035398D-01  0.27597246D-01
  0.30268206D-01  0.24903768D-01  0.13127851D-01  0.34156198D-02 -0.90375697D-04
 -0.11856777D-03 -0.13004319D-03 -0.10699562D-03 -0.56402006D-04 -0.14674741D-04
  0.62355311D+01  0.81806621D+01  0.89724159D+01  0.73822335D+01  0.38914938D+01
  0.10124935D+01  0.16053036D-06  0.57623386D-05  0.91420946D-05  0.10855957D-04
  0.16427924D-05 -0.11955935D-04 -0.83788269D-09 -0.30076328D-07 -0.47716848D-07
 -0.56662293D-07 -0.85744985D-08  0.62403593D-07  0.57868397D-04  0.20772226D-02
  0.32955658D-02  0.39133832D-02  0.59219803D-03 -0.43099063D-02  0.14620096D-03
 -0.64653096D-06  0.46091980D-01 -0.38522914D-06  0.22902201D-08 -0.79388209D-03
 -0.81859959D-07 -0.19434764D-09 -0.63635864D-05 -0.25911687D-03 -0.14599918D-03
  0.40511605D-03 -0.10719910D-05  0.73821748D-06 -0.85873346D-08  0.15159208D-03
 -0.37155091D-03  0.21995883D-03  0.49577002D-05 -0.18116410D-05  0.28778658D-09
 -0.14740587D-04 -0.27378864D-04  0.42119452D-04  0.11976354D-06 -0.93212368D-07
  0.55033362D-09  0.23653591D-06  0.89947414D-09 -0.88655086D-04  0.10151536D-06
  0.57336986D-09  0.21771072D-03 -0.81112310D-06 -0.32717923D-08  0.48254538D-04
  0.16059021D-05 -0.12850397D-07 -0.59860079D-09 -0.22227140D-04 -0.28674491D-07
 -0.81875143D-10  0.32041089D-04  0.67225683D-07  0.18776775D-08  0.34640332D-04
 -0.24627270D-07  0.66390419D-02  0.12375186D-01  0.20978697D-01  0.31764584D-01
  0.39712726D-01  0.34160066D-01  0.13101120D-01  0.15496714D-05  0.20514747D-04
  0.74513294D-04  0.22104228D-03  0.25470658D-03 -0.30937908D-03  0.52106135D-03
 -0.38824554D-03 -0.25410391D-03  0.11728248D-04  0.11469971D-04  0.75786947D-05
  0.13375772D-03  0.13081213D-03  0.86433103D-04 -0.92699568D-03 -0.90658153D-03
 -0.59901674D-03  0.25071067D-05 -0.84540034D-04 -0.38201184D-03 -0.72339762D-06
  0.52683112D-05 -0.82274688D-04 -0.11352398D-06 -0.48148829D-05 -0.60115420D-04
  0.36524813D-04 -0.10519002D-03  0.68665203D-04  0.70346688D-06 -0.51703322D-06
 -0.26464966D-04 -0.22374963D-04  0.98402567D-05  0.12534706D-04 -0.86511394D-06
 -0.23744510D-06  0.92676865D-04 -0.46058914D-04  0.10505321D-04  0.35553594D-04
  0.12685191D-06 -0.69449442D-06 -0.22304720D-04  0.93746418D-06 -0.79274519D-04
 -0.10798167D-03 -0.39211599D-05  0.11175017D-03  0.21347297D-04  0.11087673D-05
  0.12607339D-03  0.30259773D-03  0.29199767D-05 -0.31377688D-06  0.16163827D-04
  0.44381554D-04  0.15955178D-05 -0.97916918D-04 -0.76454495D-04 -0.65418720D-06
  0.49425437D-04 -0.56690166D-04 -0.11369455D-05  0.66388937D-02  0.12374909D-01
  0.20978228D-01  0.31763874D-01  0.39711839D-01  0.34159303D-01  0.13100828D-01
  0.15495057D-05  0.20512554D-04  0.74505327D-04  0.22101865D-03  0.25467935D-03
 -0.30934601D-03  0.52106654D-03 -0.38824367D-03 -0.25405777D-03  0.12992873D-04
  0.12706746D-04  0.83958843D-05 -0.13347572D-03 -0.13053634D-03 -0.86250877D-04
 -0.92723524D-03 -0.90681581D-03 -0.59917155D-03  0.17051132D-05  0.84619633D-04
 -0.38207656D-03 -0.67385460D-06 -0.52237487D-05 -0.82285792D-04 -0.15913699D-06
  0.48122647D-05 -0.60111414D-04  0.36526289D-04 -0.10518011D-03  0.68653824D-04
  0.19822363D-05 -0.76802512D-06  0.26471740D-04 -0.22375590D-04  0.98400596D-05
  0.12535531D-04  0.25474204D-06  0.64069746D-06 -0.92651401D-04 -0.46045622D-04
  0.10487462D-04  0.35558160D-04 -0.11984345D-05 -0.90589724D-06  0.22306106D-04
  0.19955394D-05  0.79205901D-04 -0.10799622D-03 -0.82897211D-05 -0.11156871D-03
  0.21387000D-04  0.23031027D-05 -0.12604899D-03  0.30260165D-03 -0.82513166D-05
 -0.12413043D-05 -0.16135004D-04  0.44384641D-04  0.39095572D-05  0.97836896D-04
 -0.76459447D-04 -0.18564426D-06 -0.49431886D-04 -0.56694476D-04  0.76268982D-06
MO    3     MO 0.0        OCC NO =    2.0000101  ORB. ENERGY =    0.000000
  0.19846896D+00  0.36998612D+00  0.62532695D+00  0.93998304D+00  0.11546008D+01
  0.97444235D+00  0.36641577D+00  0.26896274D-04  0.20103298D-03  0.75130616D-03
  0.20960272D-02  0.28080986D-02 -0.33158408D-02  0.15833744D-01  0.35041547D-03
  0.13339419D-03  0.94951418D-04  0.89022990D-04  0.63389672D-04  0.36585560D-06
  0.34301288D-06  0.24424561D-06 -0.73344661D-02 -0.68765282D-02 -0.48964977D-02
  0.20931174D-04  0.82178075D-07  0.59730367D-03  0.41079703D-05  0.28982274D-07
  0.53551660D-03 -0.26151781D-07 -0.35079088D-09  0.65096410D-05 -0.68155297D-03
  0.55250864D-03  0.12904432D-03 -0.11693897D-04  0.34626649D-04  0.30278404D-06
  0.20613867D-03 -0.24526807D-03  0.39129401D-04  0.42774600D-05 -0.13824300D-04
 -0.76792912D-07 -0.92368898D-05 -0.38354770D-04  0.47591660D-04  0.27590873D-06
  0.86806149D-06 -0.41329847D-09 -0.18014838D-05 -0.19571610D-07 -0.73812684D-05
 -0.41430498D-05  0.39681264D-07  0.25984126D-03  0.95475011D-05  0.19033565D-07
 -0.23769745D-03  0.47151015D-05  0.87733971D-06  0.14355497D-07 -0.14804087D-03
  0.18264148D-05 -0.65247706D-08  0.23464086D-06 -0.44584339D-05 -0.36541721D-07
  0.44388798D-03 -0.42043166D-05 -0.99296310D-01 -0.18564445D+00 -0.32084879D+00
 -0.51895970D+00 -0.78439022D+00 -0.10802677D+01 -0.12627014D+01 -0.10913120D+01
 -0.50932098D+00 -0.69001816D-01  0.50468922D-03 -0.12516495D-02 -0.16089828D-01
 -0.58693381D-01 -0.19803001D+00 -0.43496277D+00 -0.56185325D+00  0.90294598D-01
  0.75746435D+00  0.41568667D+00 -0.55001170D-05 -0.62649751D-04 -0.13008347D-03
 -0.35769650D-03  0.46379459D-04  0.16173407D-02  0.40339045D-02 -0.33392077D-02
  0.24968154D-01 -0.17600128D-02 -0.19260472D-03 -0.25320655D+00 -0.33219260D+00
 -0.36434339D+00 -0.29977076D+00 -0.15802210D+00 -0.41114378D-01 -0.11753335D-02
 -0.15419707D-02 -0.16912082D-02 -0.13914751D-02 -0.73350657D-03 -0.19084461D-03
 -0.50342187D+01 -0.66046086D+01 -0.72438263D+01 -0.59600020D+01 -0.31417742D+01
 -0.81743055D+00 -0.15356601D-05 -0.55123490D-04 -0.87454798D-04 -0.10384989D-03
 -0.15715226D-04  0.11437247D-03 -0.73733248D-08 -0.26467015D-06 -0.41990582D-06
 -0.49862528D-06 -0.75455148D-07  0.54914843D-06 -0.40931280D-04 -0.14692541D-02
 -0.23310085D-02 -0.27680011D-02 -0.41887152D-03  0.30484685D-02 -0.18984196D-02
 -0.88226420D-05 -0.39561037D-01 -0.36242066D-06  0.47651846D-08  0.43488364D-03
  0.46038599D-06  0.22677373D-08  0.62985077D-05  0.27875998D-03  0.20492372D-03
 -0.48368370D-03  0.69971443D-06 -0.14936450D-04 -0.84224806D-07 -0.30890564D-04
 -0.29522616D-03  0.32611673D-03  0.25051303D-05  0.15496483D-05 -0.62201695D-08
  0.85745112D-05  0.97032798D-05 -0.18277791D-04 -0.10692171D-07  0.62855864D-06
  0.17046624D-08 -0.24967031D-05 -0.31915913D-09  0.11304860D-03  0.58037460D-06
 -0.41846399D-07 -0.27360831D-03  0.69097347D-05  0.42803877D-07 -0.65537497D-04
 -0.19718721D-05 -0.18255217D-06 -0.38655785D-08  0.27188071D-04 -0.72465756D-06
  0.38040346D-08 -0.56061068D-04  0.12723141D-05  0.77927009D-08 -0.25503145D-04
 -0.28959075D-06 -0.51734958D-01 -0.96434050D-01 -0.16347720D+00 -0.24752659D+00
 -0.30946275D+00 -0.26619346D+00 -0.10209092D+00 -0.81980159D-05 -0.10852638D-03
 -0.39418756D-03 -0.11693500D-02 -0.13474397D-02  0.16366662D-02 -0.44414165D-02
  0.10956685D-02  0.14476823D-03 -0.17940310D-03 -0.17545231D-03 -0.11592876D-03
 -0.46368949D-02 -0.45347819D-02 -0.29963221D-02 -0.11894545D-02 -0.11632606D-02
 -0.76861543D-03 -0.40840836D-04 -0.49405875D-03  0.22166567D-03 -0.65039398D-05
 -0.54559251D-04  0.19661167D-03  0.67780931D-07 -0.27811013D-05  0.28550073D-04
 -0.15320023D-03  0.17249627D-03 -0.19296031D-04  0.77459591D-05  0.16129329D-05
  0.41200657D-03  0.10926254D-03 -0.36563562D-04 -0.72698979D-04 -0.12542213D-05
  0.25172784D-05 -0.29020237D-03  0.82677905D-04 -0.28054327D-04 -0.54623578D-04
  0.55146140D-06 -0.11182379D-05  0.74146275D-04 -0.13932366D-05  0.11229166D-03
  0.22930764D-03  0.67247939D-05 -0.34819275D-03 -0.22732042D-03 -0.25450841D-05
  0.11317772D-04 -0.46060251D-03  0.77597890D-05  0.50301340D-06 -0.24336142D-04
 -0.67481209D-04 -0.34092658D-05  0.31445941D-03  0.27105311D-03  0.19002256D-05
 -0.24145099D-03 -0.68609481D-04 -0.27261378D-05 -0.51732675D-01 -0.96429795D-01
 -0.16346999D+00 -0.24751567D+00 -0.30944910D+00 -0.26618172D+00 -0.10208642D+00
 -0.81974702D-05 -0.10851916D-03 -0.39416132D-03 -0.11692721D-02 -0.13473500D-02
  0.16365572D-02 -0.44412370D-02  0.10956660D-02  0.14475058D-03 -0.22332748D-03
 -0.21840939D-03 -0.14431232D-03  0.46345280D-02  0.45324672D-02  0.29947927D-02
 -0.11890526D-02 -0.11628675D-02 -0.76835570D-03 -0.45518433D-04  0.49350688D-03
  0.22175325D-03 -0.70191544D-05  0.54373515D-04  0.19659068D-03  0.41428324D-07
  0.27815638D-05  0.28548950D-04 -0.15312640D-03  0.17239566D-03 -0.19269267D-04
 -0.13916366D-04  0.55174706D-05 -0.41203113D-03  0.10920974D-03 -0.36514613D-04
 -0.72695127D-04  0.40160311D-05 -0.23214512D-06  0.29012706D-03  0.82659611D-04
 -0.28018862D-04 -0.54640749D-04  0.15461718D-05 -0.41528622D-06 -0.74163867D-04
 -0.46908016D-05 -0.11215207D-03  0.22934466D-03  0.16509449D-04  0.34782422D-03
 -0.22721871D-03 -0.24370443D-05 -0.11368016D-04 -0.46081527D-03 -0.33319854D-05
  0.34819455D-05  0.24265788D-04 -0.67486944D-04 -0.10057618D-04 -0.31425666D-03
  0.27097456D-03 -0.38821868D-06  0.24145930D-03 -0.68513729D-04  0.91609319D-05
MO    4     MO 0.0        OCC NO =    2.0000090  ORB. ENERGY =    0.000000
  0.63495368D-02  0.11836816D-01  0.20005831D-01  0.30072496D-01  0.36938675D-01
  0.31174938D-01  0.11722591D-01  0.76703764D-06  0.57331311D-05  0.21426020D-04
  0.59775260D-04  0.80082368D-04 -0.94562345D-04  0.50870670D-03  0.26236103D-04
  0.58071295D-05 -0.39844280D-02 -0.37356545D-02 -0.26600085D-02 -0.18881778D-04
 -0.17702867D-04 -0.12605496D-04 -0.18207659D-03 -0.17070838D-03 -0.12155454D-03
 -0.78989550D-03 -0.37437652D-05  0.21463169D-04 -0.12185701D-03 -0.57700889D-06
  0.31287691D-04  0.20121923D-05  0.95308024D-08  0.23690034D-06 -0.24631151D-04
  0.15159687D-04  0.94714643D-05 -0.38170074D-06 -0.10061660D-02 -0.47629321D-05
  0.45158538D-05 -0.54369734D-05  0.92111959D-06  0.11323106D-06  0.46210691D-03
  0.21893562D-05 -0.50163623D-06 -0.17899544D-05  0.22915906D-05  0.12557724D-07
 -0.27553494D-04 -0.13064182D-06  0.10237776D-03  0.20505130D-06  0.19934846D-05
  0.43258205D-04  0.10461018D-05  0.69892929D-05 -0.35039150D-03 -0.16612557D-05
 -0.12969747D-04  0.16497562D-06 -0.31233733D-04 -0.34339832D-06 -0.30136726D-05
 -0.72494296D-04  0.24291827D-06 -0.23760084D-05  0.16619550D-03  0.78727669D-06
  0.11417026D-04 -0.13658482D-06 -0.20918611D-02 -0.39109450D-02 -0.67592754D-02
 -0.10932849D-01 -0.16524636D-01 -0.22757845D-01 -0.26601150D-01 -0.22990512D-01
 -0.10729792D-01 -0.14536514D-02  0.10632215D-04 -0.26407600D-04 -0.33946704D-03
 -0.12383270D-02 -0.41780845D-02 -0.91769483D-02 -0.11854114D-01  0.19050570D-02
  0.15981164D-01  0.87702566D-02 -0.10676394D-06 -0.12161076D-05 -0.25250778D-05
 -0.69433226D-05  0.90028152D-06  0.31394543D-04  0.78302976D-04 -0.64818069D-04
  0.53225950D-03 -0.71878348D-04 -0.94410812D-05  0.97240593D+01  0.12757413D+02
  0.13992121D+02  0.11512296D+02  0.60686276D+01  0.15789428D+01  0.46076166D-01
  0.60449310D-01  0.66299810D-01  0.54549487D-01  0.28755388D-01  0.74816110D-02
 -0.12047037D+00 -0.15805028D+00 -0.17334695D+00 -0.14262465D+00 -0.75183604D-01
 -0.19561360D-01  0.57384909D-04  0.20598675D-02  0.32680315D-02  0.38806871D-02
  0.58725025D-03 -0.42738973D-02  0.27190709D-06  0.97602765D-05  0.15484923D-04
  0.18387872D-04  0.27825696D-05 -0.20251020D-04 -0.11059588D-05 -0.39699088D-04
 -0.62983599D-04 -0.74791092D-04 -0.11317863D-04  0.82369290D-04  0.73269752D-01
  0.34717884D-03 -0.96294024D-03  0.18188852D-04  0.86240605D-07  0.18251326D-04
 -0.17761147D-04 -0.84156545D-07  0.35511318D-06  0.75889037D-05  0.50340414D-05
 -0.12622945D-04  0.25629252D-07  0.57540416D-03  0.27262620D-05  0.10950888D-05
 -0.58885387D-05  0.47934499D-05  0.63724776D-07 -0.25505574D-03 -0.12089395D-05
  0.34153391D-06  0.44423804D-06 -0.78577196D-06 -0.89325420D-09 -0.20057733D-04
 -0.95044885D-07  0.83263837D-04 -0.14700880D-06  0.41253496D-05 -0.31003684D-04
  0.14774579D-05 -0.99900937D-05 -0.21878783D-03 -0.10364316D-05 -0.23859550D-05
 -0.73295508D-07  0.88762646D-05  0.13205533D-06  0.43459559D-06  0.27869809D-04
 -0.13795070D-06 -0.10338054D-05 -0.54498603D-04 -0.25821530D-06 -0.26998139D-06
 -0.77635705D-08 -0.17085953D-02 -0.31848246D-02 -0.53989871D-02 -0.81747967D-02
 -0.10220296D-01 -0.87912876D-02 -0.33716480D-02 -0.25494711D-06 -0.33750224D-05
 -0.12258695D-04 -0.36365189D-04 -0.41903535D-04  0.50898085D-04 -0.14724190D-03
  0.30609256D-04  0.79953780D-05  0.63857586D-02  0.62451324D-02  0.41264230D-02
 -0.12203921D-03 -0.11935168D-03 -0.78860701D-04 -0.88695993D-04 -0.86742744D-04
 -0.57314598D-04  0.15012009D-02 -0.12962940D-04 -0.50562539D-05  0.34652776D-03
 -0.83341052D-06 -0.33153442D-05 -0.78413745D-06  0.66656923D-07  0.13501812D-05
 -0.25250010D-05  0.30001936D-05 -0.47519258D-06 -0.36597011D-03 -0.14700635D-03
  0.17115850D-04  0.23529884D-05 -0.13669209D-05 -0.98606743D-06  0.10227714D-03
 -0.56997977D-04 -0.11559372D-04  0.29885483D-05 -0.26958163D-06 -0.27189666D-05
  0.11956947D-04  0.80189091D-04 -0.15633279D-05  0.80187590D-05  0.98236445D-06
  0.55995793D-05 -0.12499767D-03 -0.79215597D-05 -0.98127946D-05  0.10094140D-03
  0.49744663D-05 -0.69859433D-05 -0.60558409D-03 -0.46025858D-05  0.20210823D-06
 -0.81490151D-06  0.74616134D-04  0.89346171D-05  0.93609870D-05 -0.60808377D-04
 -0.95409418D-05 -0.69162825D-05  0.21911662D-03 -0.17085112D-02 -0.31846679D-02
 -0.53987215D-02 -0.81743945D-02 -0.10219794D-01 -0.87908551D-02 -0.33714821D-02
 -0.25492929D-06 -0.33747865D-05 -0.12257839D-04 -0.36362647D-04 -0.41900606D-04
  0.50894527D-04 -0.14723509D-03  0.30609492D-04  0.79949474D-05  0.63841874D-02
  0.62435958D-02  0.41254077D-02  0.18253269D-03  0.17851298D-03  0.11795108D-03
 -0.88681566D-04 -0.86728635D-04 -0.57305276D-04  0.15009678D-02  0.27183643D-04
 -0.50526188D-05  0.34647228D-03  0.41135833D-05 -0.33147976D-05 -0.78340570D-06
 -0.74129303D-07  0.13501169D-05 -0.59930284D-05  0.64677277D-05 -0.47469923D-06
  0.36575760D-03 -0.14680655D-03 -0.18509918D-04  0.33207210D-05 -0.23348811D-05
 -0.98583991D-06 -0.10216915D-03 -0.57111329D-04  0.11015596D-04  0.31010290D-05
 -0.38180570D-06 -0.27192233D-05 -0.11882857D-04  0.80156937D-04  0.23224154D-05
  0.79236278D-05 -0.21651284D-05  0.56005783D-05 -0.12476359D-03  0.10513001D-04
 -0.15548855D-04  0.10099271D-03 -0.40176161D-05 -0.12528795D-05  0.60535837D-03