 f2cs-wavefunction
GAUSSIAN            188 MOL ORBITALS    330 PRIMITIVES        4 NUCLEI
  C    1    (CENTRE  1)   0.00000000  0.01889726 -0.98331710  CHARGE =  6.0
  S    2    (CENTRE  2)   0.00000000  0.00000000  2.03811688  CHARGE = 16.0
  F    3    (CENTRE  3)   0.00000000 -1.99407870 -2.44821201  CHARGE =  9.0
  F    4    (CENTRE  4)   0.00000000  1.99407870 -2.44821201  CHARGE =  9.0
CENTRE ASSIGNMENTS    1  1  1  1  1  1  1  1  1  1  1  1  1  1  1  1  1  1  1  1
CENTRE ASSIGNMENTS    1  1  1  1  1  1  1  1  1  1  1  1  1  1  1  1  1  1  1  1
CENTRE ASSIGNMENTS    1  1  1  1  1  1  1  1  1  1  1  1  1  1  1  1  1  1  1  1
CENTRE ASSIGNMENTS    1  1  1  1  1  1  1  1  1  1  1  1  2  2  2  2  2  2  2  2
CENTRE ASSIGNMENTS    2  2  2  2  2  2  2  2  2  2  2  2  2  2  2  2  2  2  2  2
CENTRE ASSIGNMENTS    2  2  2  2  2  2  2  2  2  2  2  2  2  2  2  2  2  2  2  2
CENTRE ASSIGNMENTS    2  2  2  2  2  2  2  2  2  2  2  2  2  2  2  2  2  2  2  2
CENTRE ASSIGNMENTS    2  2  2  2  2  2  2  2  2  2  2  2  2  2  2  2  2  2  2  2
CENTRE ASSIGNMENTS    2  2  2  2  2  2  2  2  2  2  2  2  2  2  2  2  2  2  2  2
CENTRE ASSIGNMENTS    2  2  2  2  2  2  3  3  3  3  3  3  3  3  3  3  3  3  3  3
CENTRE ASSIGNMENTS    3  3  3  3  3  3  3  3  3  3  3  3  3  3  3  3  3  3  3  3
CENTRE ASSIGNMENTS    3  3  3  3  3  3  3  3  3  3  3  3  3  3  3  3  3  3  3  3
CENTRE ASSIGNMENTS    3  3  3  3  3  3  3  3  3  3  3  3  3  3  3  3  3  3  4  4
CENTRE ASSIGNMENTS    4  4  4  4  4  4  4  4  4  4  4  4  4  4  4  4  4  4  4  4
CENTRE ASSIGNMENTS    4  4  4  4  4  4  4  4  4  4  4  4  4  4  4  4  4  4  4  4
CENTRE ASSIGNMENTS    4  4  4  4  4  4  4  4  4  4  4  4  4  4  4  4  4  4  4  4
CENTRE ASSIGNMENTS    4  4  4  4  4  4  4  4  4  4
TYPE ASSIGNMENTS      1  1  1  1  1  1  1  1  1  1  1  1  1  1  1  1  2  2  2  3
TYPE ASSIGNMENTS      3  3  4  4  4  2  3  4  2  3  4  2  3  4  5  6  7  8  9 10
TYPE ASSIGNMENTS      5  6  7  8  9 10  5  6  7  8  9 10 11 12 13 17 14 15 18 19
TYPE ASSIGNMENTS     16 20 11 12 13 17 14 15 18 19 16 20  1  1  1  1  1  1  1  1
TYPE ASSIGNMENTS      1  1  1  1  1  1  1  1  1  1  1  1  1  1  1  1  1  1  1  1
TYPE ASSIGNMENTS      1  1  1  2  2  2  2  2  2  3  3  3  3  3  3  4  4  4  4  4
TYPE ASSIGNMENTS      4  2  2  2  2  2  2  3  3  3  3  3  3  4  4  4  4  4  4  2
TYPE ASSIGNMENTS      3  4  2  3  4  2  3  4  5  6  7  8  9 10  5  6  7  8  9 10
TYPE ASSIGNMENTS      5  6  7  8  9 10 11 12 13 17 14 15 18 19 16 20 11 12 13 17
TYPE ASSIGNMENTS     14 15 18 19 16 20  1  1  1  1  1  1  1  1  1  1  1  1  1  1
TYPE ASSIGNMENTS      1  1  2  2  2  3  3  3  4  4  4  2  3  4  2  3  4  2  3  4
TYPE ASSIGNMENTS      5  6  7  8  9 10  5  6  7  8  9 10  5  6  7  8  9 10 11 12
TYPE ASSIGNMENTS     13 17 14 15 18 19 16 20 11 12 13 17 14 15 18 19 16 20  1  1
TYPE ASSIGNMENTS      1  1  1  1  1  1  1  1  1  1  1  1  1  1  2  2  2  3  3  3
TYPE ASSIGNMENTS      4  4  4  2  3  4  2  3  4  2  3  4  5  6  7  8  9 10  5  6
TYPE ASSIGNMENTS      7  8  9 10  5  6  7  8  9 10 11 12 13 17 14 15 18 19 16 20
TYPE ASSIGNMENTS     11 12 13 17 14 15 18 19 16 20
EXPONENTS  0.8236000D+04 0.1235000D+04 0.2808000D+03 0.7927000D+02 0.2559000D+02
EXPONENTS  0.8997000D+01 0.3319000D+01 0.2808000D+03 0.7927000D+02 0.2559000D+02
EXPONENTS  0.8997000D+01 0.3319000D+01 0.3643000D+00 0.9059000D+00 0.1285000D+00
EXPONENTS  0.4402000D-01 0.1871000D+02 0.4133000D+01 0.1200000D+01 0.1871000D+02
EXPONENTS  0.4133000D+01 0.1200000D+01 0.1871000D+02 0.4133000D+01 0.1200000D+01
EXPONENTS  0.3827000D+00 0.3827000D+00 0.3827000D+00 0.1209000D+00 0.1209000D+00
EXPONENTS  0.1209000D+00 0.3569000D-01 0.3569000D-01 0.3569000D-01 0.1097000D+01
EXPONENTS  0.1097000D+01 0.1097000D+01 0.1097000D+01 0.1097000D+01 0.1097000D+01
EXPONENTS  0.3180000D+00 0.3180000D+00 0.3180000D+00 0.3180000D+00 0.3180000D+00
EXPONENTS  0.3180000D+00 0.1000000D+00 0.1000000D+00 0.1000000D+00 0.1000000D+00
EXPONENTS  0.1000000D+00 0.1000000D+00 0.7610000D+00 0.7610000D+00 0.7610000D+00
EXPONENTS  0.7610000D+00 0.7610000D+00 0.7610000D+00 0.7610000D+00 0.7610000D+00
EXPONENTS  0.7610000D+00 0.7610000D+00 0.2680000D+00 0.2680000D+00 0.2680000D+00
EXPONENTS  0.2680000D+00 0.2680000D+00 0.2680000D+00 0.2680000D+00 0.2680000D+00
EXPONENTS  0.2680000D+00 0.2680000D+00 0.3741000D+06 0.5605000D+05 0.1276000D+05
EXPONENTS  0.3615000D+04 0.1183000D+04 0.4288000D+03 0.1678000D+03 0.6947000D+02
EXPONENTS  0.2984000D+02 0.1272000D+02 0.5244000D+01 0.3615000D+04 0.1183000D+04
EXPONENTS  0.4288000D+03 0.1678000D+03 0.6947000D+02 0.2984000D+02 0.1272000D+02
EXPONENTS  0.5244000D+01 0.2219000D+01 0.1183000D+04 0.1678000D+03 0.6947000D+02
EXPONENTS  0.2984000D+02 0.1272000D+02 0.5244000D+01 0.2219000D+01 0.3490000D+00
EXPONENTS  0.7767000D+00 0.1322000D+00 0.4970000D-01 0.5744000D+03 0.1358000D+03
EXPONENTS  0.4319000D+02 0.1587000D+02 0.6208000D+01 0.2483000D+01 0.5744000D+03
EXPONENTS  0.1358000D+03 0.4319000D+02 0.1587000D+02 0.6208000D+01 0.2483000D+01
EXPONENTS  0.5744000D+03 0.1358000D+03 0.4319000D+02 0.1587000D+02 0.6208000D+01
EXPONENTS  0.2483000D+01 0.1358000D+03 0.4319000D+02 0.1587000D+02 0.6208000D+01
EXPONENTS  0.2483000D+01 0.3229000D+00 0.1358000D+03 0.4319000D+02 0.1587000D+02
EXPONENTS  0.6208000D+01 0.2483000D+01 0.3229000D+00 0.1358000D+03 0.4319000D+02
EXPONENTS  0.1587000D+02 0.6208000D+01 0.2483000D+01 0.3229000D+00 0.8688000D+00
EXPONENTS  0.8688000D+00 0.8688000D+00 0.1098000D+00 0.1098000D+00 0.1098000D+00
EXPONENTS  0.3510000D-01 0.3510000D-01 0.3510000D-01 0.2690000D+00 0.2690000D+00
EXPONENTS  0.2690000D+00 0.2690000D+00 0.2690000D+00 0.2690000D+00 0.8190000D+00
EXPONENTS  0.8190000D+00 0.8190000D+00 0.8190000D+00 0.8190000D+00 0.8190000D+00
EXPONENTS  0.1010000D+00 0.1010000D+00 0.1010000D+00 0.1010000D+00 0.1010000D+00
EXPONENTS  0.1010000D+00 0.5570000D+00 0.5570000D+00 0.5570000D+00 0.5570000D+00
EXPONENTS  0.5570000D+00 0.5570000D+00 0.5570000D+00 0.5570000D+00 0.5570000D+00
EXPONENTS  0.5570000D+00 0.2180000D+00 0.2180000D+00 0.2180000D+00 0.2180000D+00
EXPONENTS  0.2180000D+00 0.2180000D+00 0.2180000D+00 0.2180000D+00 0.2180000D+00
EXPONENTS  0.2180000D+00 0.1950000D+05 0.2923000D+04 0.6645000D+03 0.1875000D+03
EXPONENTS  0.6062000D+02 0.2142000D+02 0.7950000D+01 0.6645000D+03 0.1875000D+03
EXPONENTS  0.6062000D+02 0.2142000D+02 0.7950000D+01 0.8815000D+00 0.2257000D+01
EXPONENTS  0.3041000D+00 0.9158000D-01 0.4388000D+02 0.9926000D+01 0.2930000D+01
EXPONENTS  0.4388000D+02 0.9926000D+01 0.2930000D+01 0.4388000D+02 0.9926000D+01
EXPONENTS  0.2930000D+01 0.9132000D+00 0.9132000D+00 0.9132000D+00 0.2672000D+00
EXPONENTS  0.2672000D+00 0.2672000D+00 0.7361000D-01 0.7361000D-01 0.7361000D-01
EXPONENTS  0.3107000D+01 0.3107000D+01 0.3107000D+01 0.3107000D+01 0.3107000D+01
EXPONENTS  0.3107000D+01 0.8550000D+00 0.8550000D+00 0.8550000D+00 0.8550000D+00
EXPONENTS  0.8550000D+00 0.8550000D+00 0.2920000D+00 0.2920000D+00 0.2920000D+00
EXPONENTS  0.2920000D+00 0.2920000D+00 0.2920000D+00 0.1917000D+01 0.1917000D+01
EXPONENTS  0.1917000D+01 0.1917000D+01 0.1917000D+01 0.1917000D+01 0.1917000D+01
EXPONENTS  0.1917000D+01 0.1917000D+01 0.1917000D+01 0.7240000D+00 0.7240000D+00
EXPONENTS  0.7240000D+00 0.7240000D+00 0.7240000D+00 0.7240000D+00 0.7240000D+00
EXPONENTS  0.7240000D+00 0.7240000D+00 0.7240000D+00 0.1950000D+05 0.2923000D+04
EXPONENTS  0.6645000D+03 0.1875000D+03 0.6062000D+02 0.2142000D+02 0.7950000D+01
EXPONENTS  0.6645000D+03 0.1875000D+03 0.6062000D+02 0.2142000D+02 0.7950000D+01
EXPONENTS  0.8815000D+00 0.2257000D+01 0.3041000D+00 0.9158000D-01 0.4388000D+02
EXPONENTS  0.9926000D+01 0.2930000D+01 0.4388000D+02 0.9926000D+01 0.2930000D+01
EXPONENTS  0.4388000D+02 0.9926000D+01 0.2930000D+01 0.9132000D+00 0.9132000D+00
EXPONENTS  0.9132000D+00 0.2672000D+00 0.2672000D+00 0.2672000D+00 0.7361000D-01
EXPONENTS  0.7361000D-01 0.7361000D-01 0.3107000D+01 0.3107000D+01 0.3107000D+01
EXPONENTS  0.3107000D+01 0.3107000D+01 0.3107000D+01 0.8550000D+00 0.8550000D+00
EXPONENTS  0.8550000D+00 0.8550000D+00 0.8550000D+00 0.8550000D+00 0.2920000D+00
EXPONENTS  0.2920000D+00 0.2920000D+00 0.2920000D+00 0.2920000D+00 0.2920000D+00
EXPONENTS  0.1917000D+01 0.1917000D+01 0.1917000D+01 0.1917000D+01 0.1917000D+01
EXPONENTS  0.1917000D+01 0.1917000D+01 0.1917000D+01 0.1917000D+01 0.1917000D+01
EXPONENTS  0.7240000D+00 0.7240000D+00 0.7240000D+00 0.7240000D+00 0.7240000D+00
EXPONENTS  0.7240000D+00 0.7240000D+00 0.7240000D+00 0.7240000D+00 0.7240000D+00
MO    1     MO 0.0        OCC NO =    2.0000305  ORB. ENERGY =    0.000000
 -0.10532345D-03 -0.19634413D-03 -0.33184832D-03 -0.49882993D-03 -0.61272322D-03
 -0.51711678D-03 -0.19444941D-03  0.45672945D-07  0.34137697D-06  0.12758037D-05
  0.35592936D-05  0.47684721D-05 -0.56306764D-05 -0.15118074D-04  0.22967849D-04
  0.26946355D-06  0.28444992D-12  0.26668988D-12  0.18989908D-12 -0.30466837D-02
 -0.28564597D-02 -0.20339694D-02 -0.22301508D-04 -0.20909081D-04 -0.14888512D-04
  0.58107396D-13 -0.15629125D-02  0.24762580D-04  0.14252290D-13  0.61047583D-03
 -0.14180400D-04 -0.11779605D-15 -0.13550932D-04 -0.36220718D-07  0.33284223D-05
  0.10696086D-04 -0.14024508D-04 -0.17874213D-15  0.75106441D-13 -0.10195620D-02
 -0.30395166D-05 -0.19651871D-05  0.50047037D-05  0.10386435D-14 -0.32671560D-13
  0.39698333D-03 -0.63268692D-07 -0.22641415D-06  0.28968284D-06 -0.18320466D-15
  0.31101275D-14 -0.22577812D-03 -0.58073800D-14  0.24069718D-03  0.30609314D-05
 -0.50427298D-14  0.35917915D-03 -0.10721169D-04  0.22464870D-13 -0.10812707D-02
  0.15383745D-05 -0.44072337D-14  0.15913405D-14 -0.13702141D-03  0.22991351D-05
  0.56773119D-14 -0.12876052D-03  0.80659153D-06 -0.10451333D-13  0.53982474D-03
 -0.77039969D-05  0.61317952D-15  0.49973624D-03  0.93430723D-03  0.16147606D-02
  0.26118087D-02  0.39476615D-02  0.54367472D-02  0.63548954D-02  0.54923303D-02
  0.25632992D-02  0.34727079D-03 -0.25399886D-05  0.62673951D-05  0.80566733D-04
  0.29389586D-03  0.99159736D-03  0.21779927D-02  0.28133725D-02 -0.45213290D-03
 -0.37928576D-02 -0.20814714D-02  0.41169000D-07  0.46894051D-06  0.97368954D-06
  0.26773989D-05 -0.34715552D-06 -0.12105979D-04 -0.30194234D-04  0.24994349D-04
 -0.10585636D-03  0.48951264D-05  0.15313672D-05 -0.69436742D-09 -0.91097056D-09
 -0.99913755D-09 -0.82206028D-09 -0.43334344D-09 -0.11274781D-09  0.97651253D+01
  0.12811289D+02  0.14051211D+02  0.11560914D+02  0.60942563D+01  0.15856109D+01
  0.65931468D-01  0.86498336D-01  0.94869955D-01  0.78056141D-01  0.41146759D-01
  0.10705613D-01 -0.41518598D-14 -0.14903363D-12 -0.23644558D-12 -0.28077188D-12
 -0.42488186D-13  0.30922105D-12  0.94730761D-04  0.34004205D-02  0.53948523D-02
  0.64062216D-02  0.96943019D-03 -0.70553312D-02  0.47680356D-06  0.17115165D-04
  0.27153638D-04  0.32244112D-04  0.48793840D-05 -0.35511243D-04 -0.52263939D-11
  0.67601649D-01  0.44684413D-03 -0.46020212D-14 -0.37957663D-03 -0.45408395D-05
  0.12229457D-14 -0.71108832D-05 -0.22832484D-06  0.22446915D-05 -0.47656336D-05
  0.25209421D-05  0.25999986D-15 -0.39468475D-13  0.96142195D-03  0.21926022D-05
  0.64032163D-05 -0.85958185D-05  0.17911611D-14  0.15798690D-13 -0.55552198D-03
 -0.10715084D-06  0.26901630D-06 -0.16186546D-06 -0.27111096D-16  0.25813719D-14
 -0.41998084D-04 -0.65006525D-14  0.34979526D-04  0.73977442D-06  0.23670561D-14
  0.10988509D-03 -0.31643074D-05  0.17134901D-13 -0.21482366D-03  0.94498411D-06
 -0.60273228D-15 -0.42273439D-15  0.34753346D-04 -0.29492210D-06 -0.19044262D-14
  0.16369394D-04 -0.51606870D-06  0.31726294D-14 -0.12062943D-03  0.14008350D-05
 -0.18238458D-16  0.50397733D-02  0.93941461D-02  0.15925171D-01  0.24112862D-01
  0.30146388D-01  0.25931300D-01  0.99452116D-02 -0.68200845D-06 -0.90285149D-05
 -0.32793209D-04 -0.97280437D-04 -0.11209605D-03  0.13615735D-03  0.58672756D-03
  0.78590531D-04  0.84508688D-03 -0.50145658D-12 -0.49041359D-12 -0.32403699D-12
 -0.14371006D-02 -0.14054530D-02 -0.92864220D-03 -0.38935492D-02 -0.38078061D-02
 -0.25159785D-02 -0.11760635D-12 -0.41601279D-03 -0.10716048D-02 -0.28851947D-13
 -0.14858481D-03 -0.74252178D-03 -0.47625917D-16  0.92056608D-04  0.11023053D-04
  0.25639400D-04  0.24738466D-04 -0.50377866D-04  0.15528452D-13 -0.20586936D-14
  0.26629325D-03 -0.57243108D-04 -0.12754710D-03  0.18479021D-03 -0.62219755D-14
  0.70159745D-14 -0.14230391D-03  0.10789690D-03 -0.20260577D-04 -0.87636326D-04
 -0.22225360D-14 -0.65338549D-14 -0.28230708D-03  0.11740778D-14 -0.29598772D-04
 -0.60839264D-04  0.17616234D-13 -0.33524011D-03  0.11424827D-04 -0.21138468D-13
  0.42403643D-03  0.17109296D-03  0.38266773D-13 -0.18865637D-16 -0.60719780D-04
  0.96194237D-04 -0.57082809D-14  0.19838427D-03 -0.39310746D-04  0.57648778D-14
 -0.16224929D-04 -0.24927197D-03 -0.14112086D-13 -0.51044132D-02 -0.95146350D-02
 -0.16129426D-01 -0.24422132D-01 -0.30533044D-01 -0.26263894D-01 -0.10072768D-01
  0.62520057D-06  0.82764849D-05  0.30061699D-04  0.89177464D-04  0.10275902D-03
 -0.12481613D-03 -0.58871901D-03 -0.95829776D-04 -0.86125896D-03 -0.56421000D-12
 -0.55178506D-12 -0.36458772D-12 -0.11671817D-02 -0.11414782D-02 -0.75422288D-03
  0.39160489D-02  0.38298103D-02  0.25305176D-02 -0.13274610D-12 -0.36161003D-03
  0.10947558D-02 -0.31060625D-13 -0.14844212D-03  0.75132036D-03  0.19074361D-15
  0.92330585D-04 -0.11799737D-04 -0.22708042D-04 -0.30000033D-04  0.52708075D-04
 -0.22312069D-13  0.24764687D-14  0.25963374D-03  0.51578224D-04  0.13789615D-03
 -0.18947438D-03  0.11404449D-13  0.33125421D-14 -0.15588394D-03 -0.11248024D-03
  0.22901389D-04  0.89578848D-04  0.17756307D-14 -0.71078739D-14 -0.27530318D-03
  0.29866990D-14 -0.24767439D-04  0.48156907D-04 -0.83195851D-15 -0.32656613D-03
 -0.28695248D-04 -0.81281386D-14  0.40086845D-03 -0.11577547D-03 -0.26967874D-13
  0.72174159D-15 -0.65829133D-04 -0.94201034D-04 -0.77885676D-14  0.20067432D-03
  0.44850300D-04  0.56233428D-14 -0.31869236D-05  0.23775280D-03  0.16582137D-13
MO    2     MO 0.0        OCC NO =    2.0000247  ORB. ENERGY =    0.000000
 -0.59326904D-01 -0.11059730D+00 -0.18692451D+00 -0.28098240D+00 -0.34513655D+00
 -0.29128307D+00 -0.10953004D+00 -0.94572741D-05 -0.70687265D-04 -0.26417445D-03
 -0.73700558D-03 -0.98738428D-03  0.11659167D-02 -0.44993235D-02 -0.13843168D-02
 -0.56467060D-04  0.20174357D-12  0.18914742D-12  0.13468423D-12 -0.29890016D-04
 -0.28023790D-04 -0.19954608D-04  0.29459821D-02  0.27620455D-02  0.19667409D-02
  0.50806976D-13 -0.54343875D-05 -0.42011874D-03  0.11796754D-13  0.12445426D-04
 -0.93797365D-03  0.18755389D-15  0.66029206D-07  0.78442780D-05  0.25985864D-03
 -0.10475256D-03 -0.15510607D-03 -0.76024085D-15  0.40729101D-13  0.18687015D-04
  0.10320495D-03  0.15531681D-03 -0.25852177D-03  0.27601040D-14 -0.25386854D-13
  0.10360208D-04  0.17130987D-04  0.61905235D-04 -0.79036222D-04 -0.29383199D-15
  0.14119799D-14  0.73344443D-06 -0.70260232D-14 -0.15518110D-05 -0.36060652D-04
  0.37224061D-14  0.61747940D-05 -0.10097514D-03  0.17355663D-13 -0.15193610D-05
  0.20915709D-03 -0.19584607D-14  0.80072899D-15  0.37267263D-05  0.46938414D-04
  0.38914552D-14 -0.12871706D-05  0.26115872D-04 -0.62936422D-14 -0.98930083D-05
 -0.16693111D-03 -0.18811052D-14 -0.12696574D+00 -0.23737524D+00 -0.41025497D+00
 -0.66357050D+00 -0.10029646D+01 -0.13812899D+01 -0.16145597D+01 -0.13954117D+01
 -0.65124590D+00 -0.88229529D-01  0.64532348D-03 -0.15828804D-02 -0.20347769D-01
 -0.74225735D-01 -0.25043579D+00 -0.55006937D+00 -0.71053959D+00  0.11418976D+00
  0.95791634D+00  0.52569213D+00 -0.13254981D-04 -0.15098247D-03 -0.31349404D-03
 -0.86202899D-03  0.11177196D-03  0.38977025D-02  0.97214891D-02 -0.80473079D-02
  0.29244214D-01  0.15630597D-02  0.75038889D-04 -0.45018184D-09 -0.59061298D-09
 -0.64777461D-09 -0.53296944D-09 -0.28095118D-09 -0.73098213D-10 -0.21112996D-01
 -0.27699050D-01 -0.30379863D-01 -0.24995636D-01 -0.13176278D-01 -0.34282197D-02
  0.62348024D+01  0.81797062D+01  0.89713675D+01  0.73813709D+01  0.38910390D+01
  0.10123752D+01 -0.26457317D-14 -0.94970209D-13 -0.15067262D-12 -0.17891911D-12
 -0.27075177D-13  0.19704807D-12 -0.28745351D-06 -0.10318325D-04 -0.16370282D-04
 -0.19439207D-04 -0.29416644D-05  0.21408883D-04  0.57861732D-04  0.20769834D-02
  0.32951862D-02  0.39129325D-02  0.59212983D-03 -0.43094099D-02 -0.33918585D-11
 -0.16784625D-03  0.46086815D-01 -0.32439536D-14  0.42196820D-05 -0.79378519D-03
  0.68277154D-15 -0.64309548D-07 -0.63613123D-05 -0.25912806D-03 -0.14593945D-03
  0.40506751D-03  0.76119496D-15 -0.24838878D-13 -0.94954150D-05  0.15155520D-03
 -0.37149307D-03  0.21993787D-03 -0.62833304D-15  0.10195506D-13 -0.13456465D-04
 -0.14744528D-04 -0.27374022D-04  0.42118551D-04  0.13043431D-15  0.17031977D-14
 -0.86763810D-06 -0.41421726D-14 -0.10080594D-05 -0.88632840D-04  0.44222910D-15
 -0.11666510D-05  0.21770860D-03  0.11984289D-13  0.41908293D-05  0.48189914D-04
  0.18152483D-15 -0.17566067D-15 -0.27844261D-06 -0.22225607D-04 -0.10226014D-14
 -0.24328478D-06  0.32054154D-04  0.15495834D-14  0.10786126D-05  0.34622668D-04
 -0.64287323D-15  0.65905428D-02  0.12284783D-01  0.20825444D-01  0.31532539D-01
  0.39422619D-01  0.33910522D-01  0.13005415D-01  0.15241341D-05  0.20176682D-04
  0.73285381D-04  0.21739970D-03  0.25050925D-03 -0.30428079D-03  0.51907290D-03
 -0.39237174D-03 -0.24942668D-03 -0.16189929D-12 -0.15833397D-12 -0.10461795D-12
  0.11337268D-03  0.11087601D-03  0.73260465D-04 -0.94089669D-03 -0.92017642D-03
 -0.60799946D-03 -0.35412113D-13 -0.94472316D-04 -0.38541222D-03 -0.14910405D-13
 -0.14154476D-04 -0.72689716D-04 -0.78337975D-15 -0.50707839D-05 -0.58976036D-04
  0.39313622D-04 -0.10206528D-03  0.62751658D-04  0.93999188D-14  0.54672038D-14
 -0.29566522D-04 -0.22178620D-04  0.78693933D-05  0.14309227D-04 -0.45661173D-15
  0.75205044D-14  0.89497778D-04 -0.44709341D-04  0.51175411D-05  0.39591800D-04
 -0.32693542D-14 -0.50087697D-14 -0.23237729D-04 -0.30714804D-14 -0.76880700D-04
 -0.11005390D-03  0.12526718D-13  0.10900379D-03  0.13350293D-04 -0.33122771D-14
  0.12163831D-03  0.31681140D-03  0.41307849D-13  0.14253372D-14  0.15740569D-04
  0.44688724D-04 -0.75054218D-14 -0.97927573D-04 -0.73839354D-04  0.32294100D-14
  0.50705867D-04 -0.60226818D-04 -0.14310926D-13  0.66879462D-02  0.12466343D-01
  0.21133229D-01  0.31998567D-01  0.40005256D-01  0.34411694D-01  0.13197625D-01
  0.15735946D-05  0.20831446D-04  0.75663602D-04  0.22445465D-03  0.25863865D-03
 -0.31415516D-03  0.52315300D-03 -0.38378529D-03 -0.25873234D-03 -0.12146997D-12
 -0.11879497D-12 -0.78492862D-13 -0.15306786D-03 -0.14969702D-03 -0.98911151D-04
 -0.91123135D-03 -0.89116436D-03 -0.58882997D-03 -0.26580577D-13  0.74616857D-04
 -0.37819611D-03 -0.17229883D-13 -0.25006928D-04 -0.92319610D-04 -0.20333972D-15
  0.45515786D-05 -0.61253884D-04  0.33652550D-04 -0.10832547D-03  0.74672918D-04
 -0.98679664D-14  0.21759263D-13  0.23326702D-04 -0.22479032D-04  0.11766450D-04
  0.10712582D-04  0.97911284D-15  0.23256543D-14 -0.95650937D-04 -0.47278167D-04
  0.15922955D-04  0.31355212D-04  0.57032703D-14 -0.57609782D-14  0.21282666D-04
 -0.72413036D-14  0.81392648D-04 -0.10544651D-03  0.18428569D-13 -0.11484688D-03
  0.29828227D-04  0.32953422D-14 -0.12933107D-03  0.28651130D-03 -0.62243304D-13
  0.20885262D-14 -0.16477371D-04  0.43983456D-04 -0.80183357D-14  0.97707614D-04
 -0.78994389D-04  0.17527570D-14 -0.48275499D-04 -0.52955980D-04  0.17389976D-13
MO    3     MO 0.0        OCC NO =    2.0000101  ORB. ENERGY =    0.000000
  0.19859631D+00  0.37022354D+00  0.62572822D+00  0.94058621D+00  0.11553417D+01
  0.97506763D+00  0.36665089D+00  0.26908423D-04  0.20112379D-03  0.75164553D-03
  0.20969740D-02  0.28093670D-02 -0.33173386D-02  0.15844755D-01  0.35075280D-03
  0.13339072D-03 -0.47752291D-12 -0.44770809D-12 -0.31879483D-12  0.58174444D-04
  0.54542239D-04  0.38837323D-04 -0.73370074D-02 -0.68789108D-02 -0.48981943D-02
 -0.88962415D-13 -0.11229259D-05  0.59762713D-03 -0.74036106D-14 -0.92413764D-05
  0.53558834D-03  0.56061978D-15  0.69238601D-07  0.65104819D-05 -0.68244778D-03
  0.55288568D-03  0.12956210D-03  0.79676268D-15 -0.12998996D-12 -0.62068809D-04
  0.20629755D-03 -0.24610199D-03  0.39804440D-04 -0.50728922D-14  0.57113969D-13
 -0.74187430D-06 -0.92406877D-05 -0.38352557D-04  0.47593245D-04 -0.59276492D-15
 -0.20632049D-14  0.24799412D-06  0.12545931D-13  0.70315652D-06 -0.73506388D-05
  0.52757533D-14 -0.11904984D-04  0.25998931D-03 -0.42913547D-13  0.97955146D-05
 -0.23793739D-03  0.39665671D-14 -0.46708696D-14 -0.90747173D-05 -0.14812616D-03
 -0.77722241D-14  0.14793951D-05  0.20460777D-06  0.21784833D-13  0.25744757D-04
  0.44417387D-03  0.88646957D-15 -0.99299382D-01 -0.18565020D+00 -0.32085872D+00
 -0.51897576D+00 -0.78441449D+00 -0.10803012D+01 -0.12627405D+01 -0.10913457D+01
 -0.50933673D+00 -0.69003951D-01  0.50470484D-03 -0.12516902D-02 -0.16090352D-01
 -0.58695291D-01 -0.19803646D+00 -0.43497692D+00 -0.56187154D+00  0.90297537D-01
  0.75748901D+00  0.41570020D+00 -0.54990057D-05 -0.62637094D-04 -0.13005719D-03
 -0.35762423D-03  0.46370089D-04  0.16170139D-02  0.40330895D-02 -0.33385331D-02
  0.24969522D-01 -0.17606986D-02 -0.19266497D-03  0.12022503D-08  0.15772840D-08
  0.17299392D-08  0.14233418D-08  0.75030488D-09  0.19521522D-09  0.52576468D-01
  0.68977336D-01  0.75653210D-01  0.62245182D-01  0.32812121D-01  0.85370966D-02
 -0.50354293D+01 -0.66061969D+01 -0.72455682D+01 -0.59614353D+01 -0.31425297D+01
 -0.81762712D+00  0.70826157D-14  0.25423496D-12  0.40335014D-12  0.47896592D-12
  0.72480168D-13 -0.52749708D-12  0.64159465D-06  0.23030445D-04  0.36538378D-04
  0.43388203D-04  0.65657787D-05 -0.47784507D-04 -0.40942621D-04 -0.14696612D-02
 -0.23316544D-02 -0.27687680D-02 -0.41898758D-03  0.30493131D-02  0.90621800D-11
  0.41286989D-03 -0.39571531D-01 -0.23393847D-14 -0.57504775D-05  0.43514212D-03
 -0.24345234D-14 -0.72144906D-07  0.63005258D-05  0.27897785D-03  0.20484616D-03
 -0.48382401D-03 -0.78204747D-15  0.73867201D-13  0.23571250D-04 -0.31033359D-04
 -0.29528234D-03  0.32631570D-03  0.13275025D-14 -0.36208181D-13 -0.38843935D-05
  0.85886751D-05  0.97113647D-05 -0.18300040D-04  0.23082833D-15 -0.93531327D-15
  0.74599378D-06  0.98956282D-14  0.26750988D-05  0.11306521D-03 -0.43574600D-14
  0.22291920D-05 -0.27383540D-03 -0.25329425D-13 -0.10254488D-04 -0.65360221D-04
  0.23094440D-14  0.14313505D-14  0.65400548D-06  0.27191021D-04  0.37554746D-14
  0.83466964D-06 -0.56109347D-04 -0.80495261D-14 -0.27966861D-05 -0.25463715D-04
 -0.40205080D-15 -0.51375844D-01 -0.95764662D-01 -0.16234244D+00 -0.24580840D+00
 -0.30731464D+00 -0.26434570D+00 -0.10138227D+00 -0.81083951D-05 -0.10733997D-03
 -0.38987830D-03 -0.11565666D-02 -0.13327094D-02  0.16187741D-02 -0.44130722D-02
  0.11013160D-02  0.14219240D-03  0.85657995D-12  0.83771648D-12  0.55351470D-12
 -0.45528917D-02 -0.44526286D-02 -0.29420400D-02 -0.11068200D-02 -0.10824457D-02
 -0.71521767D-03  0.20287386D-12 -0.46516381D-03  0.23623727D-03  0.37977755D-13
 -0.13028098D-04  0.17310510D-03 -0.59427617D-15 -0.27470360D-05  0.28048134D-04
 -0.16083198D-03  0.16768764D-03 -0.68556590D-05 -0.33583942D-13 -0.15684699D-13
  0.42512385D-03  0.10521612D-03 -0.28021304D-04 -0.77194819D-04  0.13036223D-13
 -0.55418795D-14 -0.27508021D-03  0.79982775D-04 -0.15419922D-04 -0.64562853D-04
 -0.16551666D-14  0.58159792D-14  0.74357848D-04 -0.18312602D-14  0.10467121D-03
  0.23651002D-03 -0.15224283D-13 -0.33677606D-03 -0.20943668D-03  0.20718064D-13
  0.22762445D-04 -0.50009337D-03 -0.47657815D-13  0.13262129D-14 -0.21742461D-04
 -0.69507431D-04  0.56773250D-14  0.31096640D-03  0.26459033D-03 -0.96559639D-14
 -0.24573901D-03 -0.56068035D-04  0.18655320D-13 -0.52177807D-01 -0.97259521D-01
 -0.16487656D+00 -0.24964540D+00 -0.31211174D+00 -0.26847207D+00 -0.10296482D+00
 -0.82956271D-05 -0.10981857D-03 -0.39888103D-03 -0.11832730D-02 -0.13634832D-02
  0.16561534D-02 -0.44771361D-02  0.10907043D-02  0.14750342D-03  0.85587672D-12
  0.83702874D-12  0.55306028D-12  0.47261317D-02  0.46220536D-02  0.30539862D-02
 -0.12816765D-02 -0.12534517D-02 -0.82820851D-03  0.20280795D-12  0.52446387D-03
  0.20580927D-03  0.44788270D-13  0.96857359D-04  0.22065156D-03  0.65669314D-16
  0.28244445D-05  0.29058112D-04 -0.14542792D-03  0.17758732D-03 -0.32159394D-04
  0.37925856D-13 -0.22231624D-13 -0.39985776D-03  0.11331230D-03 -0.45217558D-04
 -0.68094739D-04 -0.13526745D-13 -0.34152442D-14  0.30596709D-03  0.85268510D-04
 -0.40736279D-04 -0.44532231D-04 -0.14872620D-14  0.91983354D-14 -0.73471120D-04
 -0.28816936D-14 -0.11909357D-03  0.22117627D-03 -0.71490146D-14  0.36131128D-03
 -0.24742585D-03  0.15794096D-13 -0.40305854D-05 -0.41610297D-03  0.68634763D-13
 -0.37302348D-15  0.26611395D-04 -0.65229232D-04  0.91343899D-14 -0.31801582D-03
  0.27792370D-03 -0.80153195D-14  0.23818164D-03 -0.82236004D-04 -0.28623558D-13
MO    4     MO 0.0        OCC NO =    2.0000090  ORB. ENERGY =    0.000000
 -0.94386403D-10 -0.17595527D-09 -0.29738838D-09 -0.44703020D-09 -0.54909654D-09
 -0.46341810D-09 -0.17425731D-09 -0.94272699D-14 -0.70463002D-13 -0.26333633D-12
 -0.73466735D-12 -0.98425170D-12  0.11622177D-11 -0.75997734D-11 -0.11746638D-12
 -0.57202563D-13 -0.39854339D-02 -0.37365976D-02 -0.26606801D-02 -0.21009589D-12
 -0.19697826D-12 -0.14026025D-12  0.16601528D-11  0.15564988D-11  0.11083199D-11
 -0.79052639D-03 -0.95328669D-13 -0.18869207D-12 -0.12200340D-03  0.52775230D-13
 -0.18173338D-12  0.20116773D-05 -0.23063897D-15 -0.52148500D-14  0.40861439D-12
 -0.24324960D-12 -0.16536479D-12  0.46756560D-05 -0.10066420D-02 -0.97064210D-13
 -0.45112531D-13  0.33922039D-13  0.11190492D-13 -0.10790065D-04  0.46239765D-03
 -0.41484373D-13 -0.14726367D-15  0.49993851D-14 -0.48521214D-14 -0.12359701D-06
 -0.27572906D-04 -0.12577170D-13  0.10245349D-03  0.22938367D-13 -0.16060739D-12
  0.43320754D-04 -0.25310299D-13 -0.19234125D-13 -0.35068122D-03 -0.43504801D-13
  0.50105630D-12  0.19159405D-04 -0.31237432D-04 -0.28539913D-13  0.10817371D-13
 -0.72513559D-04 -0.14756175D-13  0.39704708D-13  0.16622586D-03  0.10037591D-12
 -0.72156821D-13 -0.81489095D-06 -0.15682019D-10 -0.29319114D-10 -0.50672143D-10
 -0.81960103D-10 -0.12387995D-09 -0.17060834D-09 -0.19942038D-09 -0.17235258D-09
 -0.80437844D-10 -0.10897563D-10  0.79706345D-13 -0.69073996D-13 -0.88793927D-12
 -0.32390748D-11 -0.10928558D-10 -0.24004018D-10 -0.31006643D-10  0.49830314D-11
  0.41801711D-10  0.22940240D-10 -0.12359749D-15 -0.14078523D-14 -0.29232088D-14
 -0.80380817D-14  0.10422296D-14  0.36344545D-13  0.90649068D-13 -0.75037985D-13
  0.13376560D-11  0.23373193D-12  0.83170519D-13  0.97275832D+01  0.12762036D+02
  0.13997191D+02  0.11516467D+02  0.60708268D+01  0.15795150D+01  0.71434932D-09
  0.93718569D-09  0.10278899D-08  0.84571682D-09  0.44581382D-09  0.11599237D-09
 -0.44504025D-09 -0.58386750D-09 -0.64037628D-09 -0.52688232D-09 -0.27774240D-09
 -0.72263348D-10  0.57407618D-04  0.20606827D-02  0.32693247D-02  0.38822229D-02
  0.58748264D-03 -0.42755886D-02  0.73070409D-14  0.26229084D-12  0.41613100D-12
  0.49414280D-12  0.74776830D-13 -0.54421175D-12  0.22256133D-14  0.79889795D-13
  0.12674716D-12  0.15050837D-12  0.22775883D-13 -0.16575861D-12  0.73295191D-01
  0.49885178D-11 -0.37541128D-11  0.18170533D-04 -0.36888540D-13 -0.10862697D-12
 -0.17767589D-04 -0.80015985D-15 -0.25274969D-14 -0.26647708D-13  0.44523345D-14
  0.22195374D-13 -0.43242521D-05  0.57557106D-03  0.96551409D-13 -0.11283247D-12
 -0.15221796D-12  0.26505043D-12  0.42663106D-05 -0.25512369D-03 -0.42292769D-13
 -0.13976221D-14 -0.26372528D-14  0.40348749D-14  0.13468556D-06 -0.20072525D-04
 -0.56727483D-15  0.83285778D-04  0.39029704D-14 -0.69307835D-13 -0.31021137D-04
  0.57207588D-14  0.10357386D-12 -0.21883620D-03 -0.17429670D-13  0.10434965D-12
  0.30177293D-05  0.88780921D-05  0.33615318D-14  0.41149302D-14  0.27876111D-04
  0.25703808D-14 -0.69656531D-16 -0.54510388D-04 -0.12654976D-13 -0.12275134D-13
  0.11015222D-05 -0.75197038D-10 -0.14016741D-09 -0.23761498D-09 -0.35978122D-09
 -0.44980577D-09 -0.38691362D-09 -0.14838970D-09 -0.54092803D-14 -0.71608743D-13
 -0.26009598D-12 -0.77156984D-12 -0.88907839D-12  0.10799181D-11 -0.71641405D-11
 -0.23651706D-12  0.34757111D-13  0.63678065D-02  0.62275757D-02  0.41148226D-02
  0.71657851D-13  0.70079813D-13  0.46304696D-13  0.36167168D-13  0.35370700D-13
  0.23370917D-13  0.14942270D-02  0.42178792D-12  0.24769707D-12  0.34087836D-03
  0.10165050D-13 -0.66815541D-13 -0.80394811D-06  0.44818441D-14  0.19435697D-14
  0.59531088D-13 -0.49385830D-13 -0.10145258D-13 -0.35475982D-03 -0.13861902D-03
 -0.33864489D-12 -0.93760385D-13  0.69764280D-13  0.23996105D-13  0.96913051D-04
 -0.59897475D-04  0.36876168D-12  0.27531422D-15  0.99308977D-14 -0.10206212D-13
  0.10258100D-04  0.76801803D-04 -0.55199741D-14  0.61822931D-05  0.37580507D-13
 -0.35141091D-14 -0.12188737D-03 -0.18026782D-12 -0.10666741D-13  0.10334049D-03
  0.67526295D-13  0.21209069D-13 -0.59155987D-03 -0.32492424D-05 -0.28092236D-13
 -0.34254585D-13  0.71406513D-04 -0.45470742D-13 -0.10313581D-12 -0.61658786D-04
  0.12974745D-12  0.20589957D-12  0.21085463D-03  0.27206824D-10  0.50713567D-10
  0.85970793D-10  0.13017141D-09  0.16274293D-09  0.13998810D-09  0.53688451D-10
  0.43619176D-14  0.57743622D-13  0.20973534D-12  0.62217594D-12  0.71693210D-12
 -0.87082082D-12  0.22963260D-11 -0.33170416D-12 -0.84725683D-13  0.64090181D-02
  0.62678797D-02  0.41414532D-02 -0.27874390D-11 -0.27260544D-11 -0.18012194D-11
  0.25881769D-11  0.25311805D-11  0.16724580D-11  0.15095898D-02 -0.46454783D-12
  0.49326279D-12  0.35250813D-03 -0.36849127D-13  0.23101019D-12 -0.76567847D-06
  0.59018924D-14  0.58414392D-15  0.28108536D-13  0.15538223D-13 -0.43646759D-13
  0.37774723D-03 -0.15575269D-03  0.31421702D-12 -0.66053510D-13  0.28600312D-13
  0.37453198D-13 -0.10797982D-03 -0.53970982D-04 -0.29871996D-12 -0.35527731D-13
 -0.10469418D-13  0.45997149D-13 -0.13677904D-04  0.83688802D-04 -0.91437186D-13
  0.99495855D-05  0.30187664D-14 -0.17003734D-13 -0.12813272D-03 -0.99422805D-13
  0.97699022D-13  0.98283960D-04  0.90366506D-13 -0.46687820D-13  0.61942112D-03