 f2cs-wavefunction
GAUSSIAN            188 MOL ORBITALS    330 PRIMITIVES        4 NUCLEI
  C    1    (CENTRE  1)   0.00000000  0.00000000 -0.98331710  CHARGE =  6.0
  S    2    (CENTRE  2)   0.00000000  0.00000000  2.03811688  CHARGE = 16.0
  F    3    (CENTRE  3)   0.00000000 -1.99407870 -2.42931475  CHARGE =  9.0
  F    4    (CENTRE  4)   0.00000000  1.99407870 -2.44821201  CHARGE =  9.0
CENTRE ASSIGNMENTS    1  1  1  1  1  1  1  1  1  1  1  1  1  1  1  1  1  1  1  1
CENTRE ASSIGNMENTS    1  1  1  1  1  1  1  1  1  1  1  1  1  1  1  1  1  1  1  1
CENTRE ASSIGNMENTS    1  1  1  1  1  1  1  1  1  1  1  1  1  1  1  1  1  1  1  1
CENTRE ASSIGNMENTS    1  1  1  1  1  1  1  1  1  1  1  1  2  2  2  2  2  2  2  2
CENTRE ASSIGNMENTS    2  2  2  2  2  2  2  2  2  2  2  2  2  2  2  2  2  2  2  2
CENTRE ASSIGNMENTS    2  2  2  2  2  2  2  2  2  2  2  2  2  2  2  2  2  2  2  2
CENTRE ASSIGNMENTS    2  2  2  2  2  2  2  2  2  2  2  2  2  2  2  2  2  2  2  2
CENTRE ASSIGNMENTS    2  2  2  2  2  2  2  2  2  2  2  2  2  2  2  2  2  2  2  2
CENTRE ASSIGNMENTS    2  2  2  2  2  2  2  2  2  2  2  2  2  2  2  2  2  2  2  2
CENTRE ASSIGNMENTS    2  2  2  2  2  2  3  3  3  3  3  3  3  3  3  3  3  3  3  3
CENTRE ASSIGNMENTS    3  3  3  3  3  3  3  3  3  3  3  3  3  3  3  3  3  3  3  3
CENTRE ASSIGNMENTS    3  3  3  3  3  3  3  3  3  3  3  3  3  3  3  3  3  3  3  3
CENTRE ASSIGNMENTS    3  3  3  3  3  3  3  3  3  3  3  3  3  3  3  3  3  3  4  4
CENTRE ASSIGNMENTS    4  4  4  4  4  4  4  4  4  4  4  4  4  4  4  4  4  4  4  4
CENTRE ASSIGNMENTS    4  4  4  4  4  4  4  4  4  4  4  4  4  4  4  4  4  4  4  4
CENTRE ASSIGNMENTS    4  4  4  4  4  4  4  4  4  4  4  4  4  4  4  4  4  4  4  4
CENTRE ASSIGNMENTS    4  4  4  4  4  4  4  4  4  4
TYPE ASSIGNMENTS      1  1  1  1  1  1  1  1  1  1  1  1  1  1  1  1  2  2  2  3
TYPE ASSIGNMENTS      3  3  4  4  4  2  3  4  2  3  4  2  3  4  5  6  7  8  9 10
TYPE ASSIGNMENTS      5  6  7  8  9 10  5  6  7  8  9 10 11 12 13 17 14 15 18 19
TYPE ASSIGNMENTS     16 20 11 12 13 17 14 15 18 19 16 20  1  1  1  1  1  1  1  1
TYPE ASSIGNMENTS      1  1  1  1  1  1  1  1  1  1  1  1  1  1  1  1  1  1  1  1
TYPE ASSIGNMENTS      1  1  1  2  2  2  2  2  2  3  3  3  3  3  3  4  4  4  4  4
TYPE ASSIGNMENTS      4  2  2  2  2  2  2  3  3  3  3  3  3  4  4  4  4  4  4  2
TYPE ASSIGNMENTS      3  4  2  3  4  2  3  4  5  6  7  8  9 10  5  6  7  8  9 10
TYPE ASSIGNMENTS      5  6  7  8  9 10 11 12 13 17 14 15 18 19 16 20 11 12 13 17
TYPE ASSIGNMENTS     14 15 18 19 16 20  1  1  1  1  1  1  1  1  1  1  1  1  1  1
TYPE ASSIGNMENTS      1  1  2  2  2  3  3  3  4  4  4  2  3  4  2  3  4  2  3  4
TYPE ASSIGNMENTS      5  6  7  8  9 10  5  6  7  8  9 10  5  6  7  8  9 10 11 12
TYPE ASSIGNMENTS     13 17 14 15 18 19 16 20 11 12 13 17 14 15 18 19 16 20  1  1
TYPE ASSIGNMENTS      1  1  1  1  1  1  1  1  1  1  1  1  1  1  2  2  2  3  3  3
TYPE ASSIGNMENTS      4  4  4  2  3  4  2  3  4  2  3  4  5  6  7  8  9 10  5  6
TYPE ASSIGNMENTS      7  8  9 10  5  6  7  8  9 10 11 12 13 17 14 15 18 19 16 20
TYPE ASSIGNMENTS     11 12 13 17 14 15 18 19 16 20
EXPONENTS  0.8236000D+04 0.1235000D+04 0.2808000D+03 0.7927000D+02 0.2559000D+02
EXPONENTS  0.8997000D+01 0.3319000D+01 0.2808000D+03 0.7927000D+02 0.2559000D+02
EXPONENTS  0.8997000D+01 0.3319000D+01 0.3643000D+00 0.9059000D+00 0.1285000D+00
EXPONENTS  0.4402000D-01 0.1871000D+02 0.4133000D+01 0.1200000D+01 0.1871000D+02
EXPONENTS  0.4133000D+01 0.1200000D+01 0.1871000D+02 0.4133000D+01 0.1200000D+01
EXPONENTS  0.3827000D+00 0.3827000D+00 0.3827000D+00 0.1209000D+00 0.1209000D+00
EXPONENTS  0.1209000D+00 0.3569000D-01 0.3569000D-01 0.3569000D-01 0.1097000D+01
EXPONENTS  0.1097000D+01 0.1097000D+01 0.1097000D+01 0.1097000D+01 0.1097000D+01
EXPONENTS  0.3180000D+00 0.3180000D+00 0.3180000D+00 0.3180000D+00 0.3180000D+00
EXPONENTS  0.3180000D+00 0.1000000D+00 0.1000000D+00 0.1000000D+00 0.1000000D+00
EXPONENTS  0.1000000D+00 0.1000000D+00 0.7610000D+00 0.7610000D+00 0.7610000D+00
EXPONENTS  0.7610000D+00 0.7610000D+00 0.7610000D+00 0.7610000D+00 0.7610000D+00
EXPONENTS  0.7610000D+00 0.7610000D+00 0.2680000D+00 0.2680000D+00 0.2680000D+00
EXPONENTS  0.2680000D+00 0.2680000D+00 0.2680000D+00 0.2680000D+00 0.2680000D+00
EXPONENTS  0.2680000D+00 0.2680000D+00 0.3741000D+06 0.5605000D+05 0.1276000D+05
EXPONENTS  0.3615000D+04 0.1183000D+04 0.4288000D+03 0.1678000D+03 0.6947000D+02
EXPONENTS  0.2984000D+02 0.1272000D+02 0.5244000D+01 0.3615000D+04 0.1183000D+04
EXPONENTS  0.4288000D+03 0.1678000D+03 0.6947000D+02 0.2984000D+02 0.1272000D+02
EXPONENTS  0.5244000D+01 0.2219000D+01 0.1183000D+04 0.1678000D+03 0.6947000D+02
EXPONENTS  0.2984000D+02 0.1272000D+02 0.5244000D+01 0.2219000D+01 0.3490000D+00
EXPONENTS  0.7767000D+00 0.1322000D+00 0.4970000D-01 0.5744000D+03 0.1358000D+03
EXPONENTS  0.4319000D+02 0.1587000D+02 0.6208000D+01 0.2483000D+01 0.5744000D+03
EXPONENTS  0.1358000D+03 0.4319000D+02 0.1587000D+02 0.6208000D+01 0.2483000D+01
EXPONENTS  0.5744000D+03 0.1358000D+03 0.4319000D+02 0.1587000D+02 0.6208000D+01
EXPONENTS  0.2483000D+01 0.1358000D+03 0.4319000D+02 0.1587000D+02 0.6208000D+01
EXPONENTS  0.2483000D+01 0.3229000D+00 0.1358000D+03 0.4319000D+02 0.1587000D+02
EXPONENTS  0.6208000D+01 0.2483000D+01 0.3229000D+00 0.1358000D+03 0.4319000D+02
EXPONENTS  0.1587000D+02 0.6208000D+01 0.2483000D+01 0.3229000D+00 0.8688000D+00
EXPONENTS  0.8688000D+00 0.8688000D+00 0.1098000D+00 0.1098000D+00 0.1098000D+00
EXPONENTS  0.3510000D-01 0.3510000D-01 0.3510000D-01 0.2690000D+00 0.2690000D+00
EXPONENTS  0.2690000D+00 0.2690000D+00 0.2690000D+00 0.2690000D+00 0.8190000D+00
EXPONENTS  0.8190000D+00 0.8190000D+00 0.8190000D+00 0.8190000D+00 0.8190000D+00
EXPONENTS  0.1010000D+00 0.1010000D+00 0.1010000D+00 0.1010000D+00 0.1010000D+00
EXPONENTS  0.1010000D+00 0.5570000D+00 0.5570000D+00 0.5570000D+00 0.5570000D+00
EXPONENTS  0.5570000D+00 0.5570000D+00 0.5570000D+00 0.5570000D+00 0.5570000D+00
EXPONENTS  0.5570000D+00 0.2180000D+00 0.2180000D+00 0.2180000D+00 0.2180000D+00
EXPONENTS  0.2180000D+00 0.2180000D+00 0.2180000D+00 0.2180000D+00 0.2180000D+00
EXPONENTS  0.2180000D+00 0.1950000D+05 0.2923000D+04 0.6645000D+03 0.1875000D+03
EXPONENTS  0.6062000D+02 0.2142000D+02 0.7950000D+01 0.6645000D+03 0.1875000D+03
EXPONENTS  0.6062000D+02 0.2142000D+02 0.7950000D+01 0.8815000D+00 0.2257000D+01
EXPONENTS  0.3041000D+00 0.9158000D-01 0.4388000D+02 0.9926000D+01 0.2930000D+01
EXPONENTS  0.4388000D+02 0.9926000D+01 0.2930000D+01 0.4388000D+02 0.9926000D+01
EXPONENTS  0.2930000D+01 0.9132000D+00 0.9132000D+00 0.9132000D+00 0.2672000D+00
EXPONENTS  0.2672000D+00 0.2672000D+00 0.7361000D-01 0.7361000D-01 0.7361000D-01
EXPONENTS  0.3107000D+01 0.3107000D+01 0.3107000D+01 0.3107000D+01 0.3107000D+01
EXPONENTS  0.3107000D+01 0.8550000D+00 0.8550000D+00 0.8550000D+00 0.8550000D+00
EXPONENTS  0.8550000D+00 0.8550000D+00 0.2920000D+00 0.2920000D+00 0.2920000D+00
EXPONENTS  0.2920000D+00 0.2920000D+00 0.2920000D+00 0.1917000D+01 0.1917000D+01
EXPONENTS  0.1917000D+01 0.1917000D+01 0.1917000D+01 0.1917000D+01 0.1917000D+01
EXPONENTS  0.1917000D+01 0.1917000D+01 0.1917000D+01 0.7240000D+00 0.7240000D+00
EXPONENTS  0.7240000D+00 0.7240000D+00 0.7240000D+00 0.7240000D+00 0.7240000D+00
EXPONENTS  0.7240000D+00 0.7240000D+00 0.7240000D+00 0.1950000D+05 0.2923000D+04
EXPONENTS  0.6645000D+03 0.1875000D+03 0.6062000D+02 0.2142000D+02 0.7950000D+01
EXPONENTS  0.6645000D+03 0.1875000D+03 0.6062000D+02 0.2142000D+02 0.7950000D+01
EXPONENTS  0.8815000D+00 0.2257000D+01 0.3041000D+00 0.9158000D-01 0.4388000D+02
EXPONENTS  0.9926000D+01 0.2930000D+01 0.4388000D+02 0.9926000D+01 0.2930000D+01
EXPONENTS  0.4388000D+02 0.9926000D+01 0.2930000D+01 0.9132000D+00 0.9132000D+00
EXPONENTS  0.9132000D+00 0.2672000D+00 0.2672000D+00 0.2672000D+00 0.7361000D-01
EXPONENTS  0.7361000D-01 0.7361000D-01 0.3107000D+01 0.3107000D+01 0.3107000D+01
EXPONENTS  0.3107000D+01 0.3107000D+01 0.3107000D+01 0.8550000D+00 0.8550000D+00
EXPONENTS  0.8550000D+00 0.8550000D+00 0.8550000D+00 0.8550000D+00 0.2920000D+00
EXPONENTS  0.2920000D+00 0.2920000D+00 0.2920000D+00 0.2920000D+00 0.2920000D+00
EXPONENTS  0.1917000D+01 0.1917000D+01 0.1917000D+01 0.1917000D+01 0.1917000D+01
EXPONENTS  0.1917000D+01 0.1917000D+01 0.1917000D+01 0.1917000D+01 0.1917000D+01
EXPONENTS  0.7240000D+00 0.7240000D+00 0.7240000D+00 0.7240000D+00 0.7240000D+00
EXPONENTS  0.7240000D+00 0.7240000D+00 0.7240000D+00 0.7240000D+00 0.7240000D+00
MO    1     MO 0.0        OCC NO =    2.0000305  ORB. ENERGY =    0.000000
 -0.54369438D-03 -0.10135559D-02 -0.17130475D-02 -0.25750299D-02 -0.31629630D-02
 -0.26694292D-02 -0.10037751D-02 -0.15885498D-06 -0.11873426D-05 -0.44373703D-05
 -0.12379572D-04 -0.16585214D-04  0.19584045D-04 -0.36577987D-04 -0.13953895D-04
  0.11213740D-05 -0.20844734D-12 -0.19543263D-12 -0.13915968D-12 -0.30266368D-02
 -0.28376644D-02 -0.20205861D-02  0.64700852D-04  0.60661162D-04  0.43194361D-04
 -0.39469540D-13 -0.15663072D-02  0.44219051D-05 -0.11440519D-13  0.61568131D-03
 -0.16074184D-05 -0.67287752D-16 -0.13510159D-04  0.21156720D-06  0.10725097D-05
 -0.58584148D-05  0.47859051D-05 -0.72596785D-15 -0.35166142D-13 -0.10158674D-02
  0.55616207D-06  0.42231607D-05 -0.47793228D-05 -0.79545766D-14  0.10824848D-13
  0.39369252D-03 -0.16240313D-06 -0.34186852D-06  0.50427165D-06 -0.81006044D-15
 -0.27659715D-14 -0.22463428D-03  0.31358904D-14  0.24174879D-03  0.11236523D-05
  0.57995012D-14  0.35772550D-03 -0.29070179D-05 -0.15207172D-13 -0.10829719D-02
 -0.46393903D-06  0.80538782D-14 -0.87178759D-15 -0.13902576D-03  0.50464074D-06
 -0.10734974D-14 -0.12911812D-03 -0.36200796D-06  0.36888602D-14  0.54619540D-03
 -0.11519143D-05  0.22843227D-14 -0.60053873D-03 -0.11227676D-02 -0.19404762D-02
 -0.31386403D-02 -0.47439497D-02 -0.65334010D-02 -0.76367502D-02 -0.66001959D-02
 -0.30803458D-02 -0.41731926D-03  0.30523332D-05 -0.74433971D-05 -0.95684121D-04
 -0.34904192D-03 -0.11776588D-02 -0.25866671D-02 -0.33412684D-02  0.53697026D-03
  0.45045422D-02  0.24720347D-02 -0.74842610D-07 -0.85250385D-06 -0.17701053D-05
 -0.48673400D-05  0.63110654D-06  0.22007895D-04  0.54891186D-04 -0.45438128D-04
  0.13347294D-03  0.53449855D-05 -0.11820930D-05  0.47565858D-09  0.62403701D-09
  0.68443354D-09  0.56313130D-09  0.29685080D-09  0.77234995D-10  0.97651145D+01
  0.12811275D+02  0.14051196D+02  0.11560901D+02  0.60942495D+01  0.15856091D+01
  0.73077395D-01  0.95873386D-01  0.10515236D+00  0.86516191D-01  0.45606417D-01
  0.11865932D-01  0.26672951D-14  0.95744241D-13  0.15190064D-12  0.18037735D-12
  0.27295847D-13 -0.19865406D-12  0.94933253D-04  0.34076890D-02  0.54063841D-02
  0.64199152D-02  0.97150239D-03 -0.70704123D-02  0.70177896D-06  0.25190799D-04
  0.39965834D-04  0.47458202D-04  0.71816768D-05 -0.52266898D-04  0.35778064D-11
  0.67595460D-01  0.52502597D-03  0.55882576D-14 -0.38577131D-03 -0.70132500D-05
 -0.71047985D-15 -0.72881064D-05 -0.36578276D-07 -0.31188179D-05 -0.25308771D-05
  0.56496950D-05  0.25319949D-15  0.20169434D-13  0.96752214D-03  0.10119603D-05
 -0.87188026D-06 -0.14008006D-06 -0.16899889D-14 -0.99294155D-14 -0.56301070D-03
 -0.26936993D-06 -0.19628001D-06  0.46564994D-06  0.19403447D-15 -0.21607957D-14
 -0.41106334D-04  0.31149982D-14  0.35150340D-04 -0.66575298D-06 -0.20108867D-14
  0.10975460D-03  0.14342666D-05 -0.73341078D-14 -0.21520562D-03  0.56299230D-06
  0.24710862D-14  0.80782383D-16  0.35040275D-04 -0.51607085D-06  0.94451588D-15
  0.16623438D-04  0.81042549D-06 -0.11868630D-14 -0.12174426D-03  0.73778705D-06
 -0.63587296D-15  0.52492298D-02  0.97845734D-02  0.16587032D-01  0.25115009D-01
  0.31399293D-01  0.27009023D-01  0.10358542D-01 -0.59466928D-06 -0.78723078D-05
 -0.28593654D-04 -0.84822537D-04 -0.97740841D-04  0.11872081D-03  0.59896539D-03
  0.74067856D-04  0.85551966D-03  0.27824505D-12  0.27211758D-12  0.17979959D-12
 -0.12798352D-02 -0.12516509D-02 -0.82701866D-03 -0.38941222D-02 -0.38083664D-02
 -0.25163487D-02  0.64276961D-13 -0.38918816D-03 -0.10783540D-02  0.78780185D-14
 -0.14818078D-03 -0.76603526D-03 -0.48788151D-15  0.92649205D-04  0.10373250D-04
  0.26982956D-04  0.25740340D-04 -0.52723296D-04 -0.72357239D-15 -0.76550406D-14
  0.26174330D-03 -0.58140558D-04 -0.13726956D-03  0.19541012D-03 -0.23731756D-14
 -0.80001243D-14 -0.14211291D-03  0.11006541D-03 -0.20681711D-04 -0.89383703D-04
 -0.28061338D-14 -0.96418891D-15 -0.28625314D-03 -0.40950675D-14 -0.35561648D-04
 -0.53957556D-04 -0.10797844D-13 -0.33073027D-03  0.13351961D-04  0.23083046D-13
  0.43741521D-03  0.14852071D-03  0.28023244D-13  0.20669140D-14 -0.63462294D-04
  0.95912926D-04  0.19823127D-14  0.19833376D-03 -0.44120109D-04 -0.81830547D-14
 -0.79468804D-05 -0.24361867D-03 -0.89779781D-14 -0.50009358D-02 -0.93217529D-02
 -0.15802448D-01 -0.23927043D-01 -0.29914074D-01 -0.25731468D-01 -0.98685717D-02
  0.67224213D-06  0.88992271D-05  0.32323612D-04  0.95887386D-04  0.11049085D-03
 -0.13420759D-03 -0.58173887D-03 -0.93181480D-04 -0.85267323D-03  0.12320581D-12
  0.12049259D-12  0.79614549D-13 -0.13299081D-02 -0.13006211D-02 -0.85937535D-03
  0.38559319D-02  0.37710172D-02  0.24916705D-02  0.26874566D-13 -0.39277539D-03
  0.10700671D-02  0.12814257D-13 -0.14536956D-03  0.74856483D-03  0.36114085D-15
  0.92235549D-04 -0.11621476D-04 -0.21697359D-04 -0.29021777D-04  0.50719136D-04
  0.26381741D-13 -0.14058305D-14  0.26363036D-03  0.53002449D-04  0.13292111D-03
 -0.18592356D-03 -0.26256948D-14 -0.93677497D-14 -0.15018566D-03 -0.11056487D-03
  0.20714361D-04  0.89850513D-04 -0.23562517D-14  0.39850109D-14 -0.27938779D-03
  0.24796630D-14 -0.25843064D-04  0.54222314D-04 -0.13084517D-13 -0.33478972D-03
 -0.21274489D-04  0.56455281D-14  0.41231891D-03 -0.14139245D-03  0.13411107D-13
  0.16818845D-16 -0.63927991D-04 -0.94977162D-04  0.57833877D-14  0.20207003D-03
  0.41591586D-04 -0.58338442D-14 -0.10286055D-04  0.24333990D-03 -0.47565613D-14
MO    2     MO 0.0        OCC NO =    2.0000247  ORB. ENERGY =    0.000000
 -0.59405801D-01 -0.11074438D+00 -0.18717309D+00 -0.28135606D+00 -0.34559553D+00
 -0.29167044D+00 -0.10967570D+00 -0.94711925D-05 -0.70791296D-04 -0.26456324D-03
 -0.73809024D-03 -0.98883743D-03  0.11676326D-02 -0.45077650D-02 -0.13825119D-02
 -0.57012518D-04  0.37726640D-12  0.35371123D-12  0.25186347D-12  0.35715775D-04
  0.33485809D-04  0.23843891D-04  0.29670167D-02  0.27817667D-02  0.19807836D-02
  0.74742053D-13  0.10532309D-04 -0.41969693D-03  0.17113612D-13 -0.33674509D-05
 -0.93951808D-03  0.10738642D-15  0.10885469D-06  0.77860168D-05  0.26241786D-03
 -0.10852998D-03 -0.15388788D-03 -0.36489584D-14  0.92356580D-13  0.22486134D-05
  0.10287428D-03  0.15590562D-03 -0.25877991D-03  0.89654329D-14 -0.37667294D-13
  0.10495920D-05  0.17081869D-04  0.62153026D-04 -0.79234895D-04  0.14893670D-15
  0.32360436D-14  0.16028519D-05 -0.79045007D-14 -0.13913790D-05 -0.36177342D-04
 -0.91950307D-14 -0.31216457D-05 -0.10243629D-03  0.32908533D-13  0.72957826D-05
  0.21096832D-03 -0.25980415D-14  0.23804752D-14  0.19154259D-05  0.47525007D-04
  0.64030894D-14  0.44750859D-06  0.26211447D-04 -0.13544515D-13 -0.61937863D-05
 -0.16878647D-03 -0.48101217D-14 -0.12682806D+00 -0.23711783D+00 -0.40981008D+00
 -0.66285092D+00 -0.10018770D+01 -0.13797920D+01 -0.16128089D+01 -0.13938985D+01
 -0.65053968D+00 -0.88133852D-01  0.64462369D-03 -0.15811801D-02 -0.20325910D-01
 -0.74146000D-01 -0.25016677D+00 -0.54947847D+00 -0.70977631D+00  0.11406709D+00
  0.95688732D+00  0.52512742D+00 -0.13247372D-04 -0.15089581D-03 -0.31331409D-03
 -0.86153417D-03  0.11170780D-03  0.38954652D-02  0.97159088D-02 -0.80426886D-02
  0.29214097D-01  0.15675246D-02  0.76360492D-04 -0.95251862D-09 -0.12496503D-08
 -0.13705959D-08 -0.11276850D-08 -0.59445142D-09 -0.15466508D-09 -0.75307807D-01
 -0.98799560D-01 -0.10836173D+00 -0.89156771D-01 -0.46998380D-01 -0.12228095D-01
  0.62427464D+01  0.81901282D+01  0.89827981D+01  0.73907757D+01  0.38959967D+01
  0.10136651D+01 -0.55152880D-14 -0.19797474D-12 -0.31409190D-12 -0.37297449D-12
 -0.56440871D-13  0.41076608D-12 -0.69017661D-06 -0.24774325D-04 -0.39305088D-04
 -0.46673586D-04 -0.70629437D-05  0.51402781D-04  0.57927862D-04  0.20793572D-02
  0.32989523D-02  0.39174046D-02  0.59280657D-03 -0.43143351D-02 -0.71725451D-11
 -0.53505220D-03  0.46149827D-01 -0.46961160D-14  0.13817723D-05 -0.79575557D-03
  0.15210547D-14  0.13695928D-07 -0.64450671D-05 -0.25978044D-03 -0.14634525D-03
  0.40612570D-03  0.16638840D-14 -0.51078996D-13 -0.75966186D-05  0.15184964D-03
 -0.37157059D-03  0.21972095D-03 -0.24096679D-14  0.25413985D-13 -0.40839508D-06
 -0.14779987D-04 -0.27429629D-04  0.42209616D-04 -0.36780647D-16  0.29944777D-14
  0.45904960D-06 -0.74417083D-14 -0.33367324D-06 -0.88915106D-04  0.34284462D-14
 -0.70253927D-06  0.21844449D-03  0.18896679D-13  0.17035590D-05  0.48300830D-04
 -0.61699278D-15 -0.56845966D-15 -0.26266666D-06 -0.22293888D-04 -0.23964747D-14
 -0.11403465D-06  0.32180506D-04  0.41018537D-14  0.90203463D-06  0.34701158D-04
 -0.55160412D-15  0.67028533D-02  0.12494130D-01  0.21180334D-01  0.32069890D-01
  0.40094426D-01  0.34488396D-01  0.13227042D-01  0.15949174D-05  0.21113719D-04
  0.76688871D-04  0.22749609D-03  0.26214329D-03 -0.31841208D-03  0.52222917D-03
 -0.39617280D-03 -0.26340525D-03 -0.70676093D-12 -0.69119675D-12 -0.45670292D-12
  0.17276026D-03  0.16895576D-03  0.11163622D-03 -0.88182082D-03 -0.86240150D-03
 -0.56982514D-03 -0.16492796D-12 -0.76519973D-04 -0.36747023D-03 -0.30942091D-13
  0.25203206D-05 -0.71700330D-04 -0.46629407D-15 -0.56051994D-05 -0.60383822D-04
  0.36941832D-04 -0.10309555D-03  0.66153720D-04  0.18543547D-13  0.16181877D-14
 -0.20237085D-04 -0.24616733D-04  0.97237153D-05  0.14893018D-04 -0.52233576D-14
  0.85836439D-14  0.98960006D-04 -0.47042387D-04  0.92015218D-05  0.37840865D-04
  0.14948331D-14 -0.52389038D-14 -0.21465058D-04  0.37285440D-14 -0.79904314D-04
 -0.10566927D-03 -0.61788713D-14  0.11798976D-03  0.13103568D-04 -0.50067607D-14
  0.12172319D-03  0.30390425D-03  0.36103456D-14 -0.12322350D-14  0.16541173D-04
  0.43384977D-04 -0.36522771D-14 -0.10071009D-03 -0.73498197D-04  0.73489821D-14
  0.51086570D-04 -0.56656733D-04 -0.62437530D-14  0.67056245D-02  0.12499296D-01
  0.21189091D-01  0.32083149D-01  0.40111002D-01  0.34502655D-01  0.13232511D-01
  0.15546384D-05  0.20580502D-04  0.74752128D-04  0.22175078D-03  0.25552298D-03
 -0.31037072D-03  0.52765039D-03 -0.38893351D-03 -0.24885187D-03 -0.64111246D-12
 -0.62699399D-12 -0.41428144D-12 -0.13319183D-03 -0.13025870D-03 -0.86067429D-04
 -0.97039551D-03 -0.94902561D-03 -0.62706135D-03 -0.14627205D-12  0.86215666D-04
 -0.39333305D-03 -0.41050802D-13 -0.87160538D-05 -0.91671602D-04 -0.26015617D-15
  0.40438655D-05 -0.60265764D-04  0.36259315D-04 -0.10576962D-03  0.69510300D-04
 -0.34109960D-13  0.17226548D-13  0.25081584D-04 -0.22634525D-04  0.91722555D-05
  0.13462269D-04  0.94723354D-14  0.57123427D-14 -0.92454424D-04 -0.45721205D-04
  0.12096449D-04  0.33624756D-04  0.49263058D-14 -0.91036773D-14  0.24671814D-04
 -0.41292770D-15  0.81039212D-04 -0.10809919D-03  0.20796859D-13 -0.11068588D-03
  0.20467854D-04 -0.19558076D-13 -0.13243176D-03  0.30382970D-03 -0.72336915D-13
  0.10293147D-14 -0.16315072D-04  0.44845135D-04 -0.87219176D-14  0.97160027D-04
 -0.76555116D-04  0.56339735D-14 -0.48214812D-04 -0.57980288D-04  0.24974682D-13
MO    3     MO 0.0        OCC NO =    2.0000101  ORB. ENERGY =    0.000000
  0.19801052D+00  0.36913150D+00  0.62388253D+00  0.93781180D+00  0.11519338D+01
  0.97219151D+00  0.36556940D+00  0.26825439D-04  0.20050353D-03  0.74932749D-03
  0.20905070D-02  0.28007031D-02 -0.33071081D-02  0.15806413D-01  0.35019510D-03
  0.13437524D-03 -0.33730091D-11 -0.31624105D-11 -0.22518246D-11 -0.30839918D-04
 -0.28914384D-04 -0.20588764D-04 -0.73494628D-02 -0.68905886D-02 -0.49065095D-02
 -0.67618292D-12 -0.59583806D-05  0.59426631D-03 -0.10674608D-12  0.20694214D-07
  0.54037723D-03  0.16504021D-14 -0.21624659D-07  0.65235978D-05 -0.68743144D-03
  0.56337157D-03  0.12405987D-03 -0.12671111D-13 -0.84238538D-12  0.14708513D-04
  0.20595826D-03 -0.24636636D-03  0.40408094D-04  0.14892022D-13  0.38635865D-12
 -0.32356422D-05 -0.91984450D-05 -0.38661032D-04  0.47859477D-04  0.31975484D-15
 -0.23838350D-13 -0.11082556D-05  0.86485975D-13 -0.56092839D-06 -0.72906983D-05
  0.36896039D-13  0.45405340D-05  0.26378062D-03 -0.29635396D-12 -0.28577488D-05
 -0.24190853D-03 -0.20747550D-16 -0.25804738D-13 -0.20828537D-05 -0.14829853D-03
 -0.62375549D-13  0.32861625D-06 -0.74988991D-06  0.13978976D-12  0.59199450D-05
  0.44564548D-03 -0.84466319D-14 -0.99529001D-01 -0.18607949D+00 -0.32160067D+00
 -0.52017583D+00 -0.78622835D+00 -0.10827992D+01 -0.12656604D+01 -0.10938693D+01
 -0.51051451D+00 -0.69163515D-01  0.50587191D-03 -0.12546054D-02 -0.16127826D-01
 -0.58831990D-01 -0.19849768D+00 -0.43598997D+00 -0.56318012D+00  0.90507837D-01
  0.75925317D+00  0.41666835D+00 -0.55147167D-05 -0.62816052D-04 -0.13042877D-03
 -0.35864599D-03  0.46502571D-04  0.16216338D-02  0.40446123D-02 -0.33480715D-02
  0.25028655D-01 -0.17673255D-02 -0.19427822D-03  0.81719593D-08  0.10721146D-07
  0.11758777D-07  0.96747673D-08  0.50999872D-08  0.13269207D-08  0.27604917D-01
  0.36216081D-01  0.39721203D-01  0.32681409D-01  0.17227781D-01  0.44823445D-02
 -0.50396718D+01 -0.66117628D+01 -0.72516729D+01 -0.59664580D+01 -0.31451774D+01
 -0.81831600D+00  0.48348986D-13  0.17355174D-11  0.27534418D-11  0.32696277D-11
  0.49478085D-12 -0.36009223D-11  0.24705084D-06  0.88680457D-05  0.14069377D-04
  0.16706953D-04  0.25282024D-05 -0.18399783D-04 -0.40978960D-04 -0.14709656D-02
 -0.23337238D-02 -0.27712255D-02 -0.41935945D-03  0.30520195D-02  0.61565285D-10
  0.20753947D-03 -0.39609017D-01  0.16247452D-13  0.71358455D-06  0.43650087D-03
 -0.14949924D-13  0.14368451D-07  0.63938783D-05  0.27916950D-03  0.20484170D-03
 -0.48401120D-03  0.21630935D-14  0.48234875D-12  0.50270921D-05 -0.31605191D-04
 -0.29614182D-03  0.32774701D-03 -0.81433993D-15 -0.20857596D-12 -0.35180907D-05
  0.85462001D-05  0.97584829D-05 -0.18304683D-04  0.73325398D-17 -0.17464868D-13
 -0.29003736D-06  0.69907242D-13  0.27100291D-06  0.11278205D-03 -0.25200888D-13
 -0.71965188D-08 -0.27386374D-03 -0.18452084D-12 -0.80581222D-06 -0.64482415D-04
 -0.98810151D-15  0.72905336D-14  0.17273407D-06  0.27168777D-04  0.23307201D-13
  0.14901301D-06 -0.56009954D-04 -0.45178802D-13 -0.66721522D-06 -0.25496378D-04
 -0.11730986D-14 -0.52157105D-01 -0.97220934D-01 -0.16481114D+00 -0.24954636D+00
 -0.31198791D+00 -0.26836555D+00 -0.10292396D+00 -0.83028908D-05 -0.10991473D-03
 -0.39923029D-03 -0.11843091D-02 -0.13646771D-02  0.16576036D-02 -0.44738612D-02
  0.11055214D-02  0.14830237D-03  0.54203785D-11  0.53010117D-11  0.35026026D-11
 -0.47211743D-02 -0.46172053D-02 -0.30507828D-02 -0.11673930D-02 -0.11416849D-02
 -0.75435946D-03  0.12739140D-11 -0.51109105D-03  0.21543714D-03  0.30813279D-12
 -0.51787414D-04  0.17938233D-03 -0.45440166D-15 -0.26358397D-05  0.28696226D-04
 -0.14985186D-03  0.16807459D-03 -0.18222733D-04 -0.31253623D-12 -0.12239048D-12
  0.39945178D-03  0.11554484D-03 -0.37518764D-04 -0.78026079D-04  0.89313965D-13
 -0.51726750D-13 -0.30752581D-03  0.84949006D-04 -0.25268289D-04 -0.59680717D-04
  0.17028676D-13  0.73220428D-13  0.70767348D-04  0.11835907D-13  0.11345971D-03
  0.22088208D-03 -0.12228447D-12 -0.36124684D-03 -0.21501125D-03  0.86776750D-13
  0.20867699D-04 -0.44763500D-03 -0.55612052D-12 -0.57224067D-14 -0.25085358D-04
 -0.65055168D-04  0.69360624D-13  0.31946255D-03  0.26672140D-03 -0.52193404D-13
 -0.24420648D-03 -0.71555895D-04  0.19917182D-12 -0.51681010D-01 -0.96333492D-01
 -0.16330673D+00 -0.24726848D+00 -0.30914006D+00 -0.26591588D+00 -0.10198446D+00
 -0.81867127D-05 -0.10837675D-03 -0.39364406D-03 -0.11677377D-02 -0.13455818D-02
  0.16344096D-02 -0.44371802D-02  0.10964550D-02  0.14413808D-03  0.52134846D-11
  0.50986741D-11  0.33689095D-11  0.46227115D-02  0.45209109D-02  0.29871570D-02
 -0.11533757D-02 -0.11279763D-02 -0.74530161D-03  0.12274647D-11  0.49013027D-03
  0.22961861D-03  0.27732442D-12  0.59474313D-04  0.20510330D-03 -0.85807427D-15
  0.29144700D-05  0.28907003D-04 -0.15197530D-03  0.17262536D-03 -0.20650065D-04
  0.30393278D-12 -0.12618379D-12 -0.41182331D-03  0.10851321D-03 -0.36350909D-04
 -0.72162298D-04 -0.81814955D-13 -0.54405117D-13  0.28940594D-03  0.82557099D-04
 -0.30559290D-04 -0.51997809D-04 -0.34043814D-14  0.65466205D-13 -0.75546176D-04
  0.43765789D-14 -0.11450116D-03  0.22749193D-03 -0.85544769D-13  0.34777275D-03
 -0.22393927D-03  0.72415032D-13 -0.42692737D-05 -0.45853653D-03  0.48479518D-12
 -0.25810433D-14  0.24931946D-04 -0.66965840D-04  0.56111803D-13 -0.31352783D-03
  0.26956181D-03 -0.48368673D-13  0.23873200D-03 -0.68664292D-04 -0.17268596D-12
MO    4     MO 0.0        OCC NO =    2.0000090  ORB. ENERGY =    0.000000
 -0.17420789D-09 -0.32475861D-09 -0.54888629D-09 -0.82507847D-09 -0.10134611D-08
 -0.85532543D-09 -0.32162470D-09 -0.24014464D-13 -0.17949324D-12 -0.67080722D-12
 -0.18714477D-11 -0.25072240D-11  0.29605640D-11 -0.13994358D-10 -0.56130885D-12
 -0.14869608D-12 -0.39871651D-02 -0.37382207D-02 -0.26618359D-02  0.13672748D-12
  0.12819070D-12  0.91279414D-13  0.62329454D-11  0.58437825D-11  0.41611213D-11
 -0.79366665D-03  0.12927132D-12 -0.75908585D-12 -0.12304407D-03 -0.29366630D-13
 -0.53083799D-12  0.20550694D-05  0.19337411D-14 -0.78792001D-14  0.49519423D-12
 -0.37095038D-12 -0.12424385D-12 -0.34626513D-05 -0.10093413D-02 -0.54008841D-13
 -0.19302403D-12  0.27297971D-12 -0.79955680D-13  0.30353908D-05  0.46310954D-03
 -0.10989226D-12  0.11546933D-13  0.31131480D-13 -0.42678413D-13 -0.58283791D-07
 -0.27629304D-04  0.11313479D-13  0.10209187D-03 -0.61388456D-14  0.17472592D-13
  0.43897218D-04 -0.93577178D-13 -0.53315289D-13 -0.35017282D-03  0.11199371D-12
  0.89751230D-15 -0.69280941D-06 -0.31051001D-04 -0.69480779D-14  0.14142562D-12
 -0.72955686D-04  0.97933491D-15  0.13371206D-13  0.16610869D-03  0.19864899D-13
 -0.43764806D-12 -0.11444423D-05  0.15078797D-09  0.28191330D-09  0.48722998D-09
  0.78807440D-09  0.11911481D-08  0.16404575D-08  0.19174951D-08  0.16572289D-08
  0.77343737D-09  0.10478379D-09 -0.76640375D-12  0.82139981D-12  0.10559012D-10
  0.38517758D-10  0.12995796D-09  0.28544599D-09  0.36871836D-09 -0.59256178D-10
 -0.49708890D-09 -0.27279598D-09  0.30042117D-14  0.34219839D-13  0.71052722D-13
  0.19537694D-12 -0.25332864D-13 -0.88340555D-12 -0.22033537D-11  0.18239043D-11
 -0.16714445D-10  0.16441358D-11  0.21466659D-12  0.97276193D+01  0.12762083D+02
  0.13997243D+02  0.11516510D+02  0.60708494D+01  0.15795208D+01 -0.48881200D-09
 -0.64129354D-09 -0.70336022D-09 -0.57870360D-09 -0.30505964D-09 -0.79370779D-10
  0.43428618D-08  0.56975877D-08  0.62490206D-08  0.51415059D-08  0.27103096D-08
  0.70517157D-09  0.57462697D-04  0.20626598D-02  0.32724614D-02  0.38859476D-02
  0.58804629D-03 -0.42796907D-02 -0.43532425D-14 -0.15626239D-12 -0.24791419D-12
 -0.29439050D-12 -0.44549042D-13  0.32421958D-12  0.37893171D-13  0.13601993D-11
  0.21579902D-11  0.25625472D-11  0.38778094D-12 -0.28221970D-11  0.73293482D-01
 -0.33744407D-11  0.33963844D-10  0.17479930D-04  0.17797771D-13 -0.48254417D-12
 -0.17813798D-04 -0.10549210D-15 -0.74269864D-14 -0.26962438D-12 -0.17852608D-12
  0.44815046D-12  0.12484349D-06  0.57617023D-03 -0.36209052D-13  0.24220482D-13
  0.17100152D-12 -0.19522201D-12  0.84550204D-06 -0.25612878D-03  0.37889650D-13
 -0.12203830D-13 -0.11671763D-13  0.23875592D-13  0.45050087D-07 -0.20092978D-04
  0.19179903D-14  0.83257105D-04  0.19935566D-15 -0.11367190D-12 -0.30879330D-04
 -0.64085069D-14  0.27596295D-12 -0.21889198D-03  0.58104399D-14  0.65052750D-13
 -0.66004691D-07  0.88981472D-05 -0.18518036D-14 -0.24835468D-13  0.27933921D-04
 -0.14871893D-15  0.54677786D-13 -0.54628363D-04  0.57041297D-14  0.19828618D-13
 -0.19754400D-06  0.13205723D-09  0.24615491D-09  0.41728740D-09  0.63182956D-09
  0.78992612D-09  0.67947811D-09  0.26059448D-09  0.15273240D-13  0.20218910D-12
  0.73438761D-12  0.21785470D-11  0.25103354D-11 -0.30491763D-11  0.11898606D-10
 -0.98595744D-12 -0.17231352D-12  0.64192180D-02  0.62778550D-02  0.41480442D-02
  0.66317958D-11  0.64857515D-11  0.42854102D-11  0.29485836D-11  0.28836503D-11
  0.19053497D-11  0.15101902D-02  0.61579645D-12 -0.10976440D-12  0.35275331D-03
  0.17502302D-12 -0.11718453D-12 -0.82583966D-06 -0.52088370D-14 -0.25107699D-13
  0.43961636D-13 -0.92340147D-13  0.48378511D-13 -0.37102168D-03 -0.14441125D-03
 -0.25707670D-12 -0.59447954D-13  0.32475106D-13  0.26972848D-13  0.10258448D-03
 -0.60758409D-04  0.15944063D-12 -0.85030359D-13  0.44398911D-13  0.40631448D-13
  0.14300245D-04  0.81189761D-04 -0.40944904D-13  0.87809705D-05 -0.35587705D-13
 -0.20354627D-12 -0.13207189D-03  0.22855209D-12  0.33791781D-12  0.10572898D-03
 -0.12178897D-12  0.27272099D-12 -0.60765900D-03 -0.43329868D-05  0.99214092D-14
  0.53460100D-13  0.77688782D-04 -0.24033763D-12 -0.26347251D-12 -0.64689821D-04
  0.21057340D-12  0.10309221D-12  0.21672657D-03  0.25846517D-09  0.48177953D-09
  0.81672363D-09  0.12366300D-08  0.15460599D-08  0.13298888D-08  0.51004097D-09
  0.26733370D-13  0.35389976D-12  0.12854283D-11  0.38131989D-11  0.43939415D-11
 -0.53370965D-11  0.23618610D-10 -0.10913078D-11 -0.96905524D-13  0.63897546D-02
  0.62490404D-02  0.41290052D-02 -0.92738908D-11 -0.90696626D-11 -0.59927096D-11
  0.45414599D-11  0.44414486D-11  0.29346529D-11  0.15015163D-02 -0.47661644D-12
 -0.24702268D-12  0.34629067D-03 -0.17228703D-12 -0.57897851D-13 -0.76694027D-06
 -0.83954013D-14 -0.23609480D-13  0.53000248D-14 -0.94110794D-14  0.41110547D-14
  0.36704751D-03 -0.14618973D-03  0.17282724D-12 -0.74546511D-14 -0.68509283D-13
  0.75963934D-13 -0.10242897D-03 -0.58274455D-04  0.38432288D-13 -0.92383239D-13
  0.32742254D-13  0.59640985D-13 -0.11247405D-04  0.79998898D-04  0.28860180D-13
  0.78677113D-05  0.10083043D-12 -0.23369137D-12 -0.12406747D-03 -0.44173863D-12
  0.41261551D-12  0.10046433D-03  0.13924733D-12  0.28845860D-12  0.60283098D-03