 Entering Gaussian System, Link 0=/home/bruns/programas/chemistry/gaussian/g09/g09
 Input=GAUSSIAN.com
 Output=GAUSSIAN.log
 Initial command:
 /home/bruns/programas/chemistry/gaussian/g09/l1.exe /home/bruns/programas/chemistry/gaussian/work/Gau-30116.inp -scrdir=/home/bruns/programas/chemistry/gaussian/work/
 Entering Link 1 = /home/bruns/programas/chemistry/gaussian/g09/l1.exe PID=     30118.
  
 Copyright (c) 1988,1990,1992,1993,1995,1998,2003,2009,2010,
            Gaussian, Inc.  All Rights Reserved.
  
 This is part of the Gaussian(R) 09 program.  It is based on
 the Gaussian(R) 03 system (copyright 2003, Gaussian, Inc.),
 the Gaussian(R) 98 system (copyright 1998, Gaussian, Inc.),
 the Gaussian(R) 94 system (copyright 1995, Gaussian, Inc.),
 the Gaussian 92(TM) system (copyright 1992, Gaussian, Inc.),
 the Gaussian 90(TM) system (copyright 1990, Gaussian, Inc.),
 the Gaussian 88(TM) system (copyright 1988, Gaussian, Inc.),
 the Gaussian 86(TM) system (copyright 1986, Carnegie Mellon
 University), and the Gaussian 82(TM) system (copyright 1983,
 Carnegie Mellon University). Gaussian is a federally registered
 trademark of Gaussian, Inc.
  
 This software contains proprietary and confidential information,
 including trade secrets, belonging to Gaussian, Inc.
  
 This software is provided under written license and may be
 used, copied, transmitted, or stored only in accord with that
 written license.
  
 The following legend is applicable only to US Government
 contracts under FAR:
  
                    RESTRICTED RIGHTS LEGEND
  
 Use, reproduction and disclosure by the US Government is
 subject to restrictions as set forth in subparagraphs (a)
 and (c) of the Commercial Computer Software - Restricted
 Rights clause in FAR 52.227-19.
  
 Gaussian, Inc.
 340 Quinnipiac St., Bldg. 40, Wallingford CT 06492
  
  
 ---------------------------------------------------------------
 Warning -- This program may not be used in any manner that
 competes with the business of Gaussian, Inc. or will provide
 assistance to any competitor of Gaussian, Inc.  The licensee
 of this program is prohibited from giving any competitor of
 Gaussian, Inc. access to this program.  By using this program,
 the user acknowledges that Gaussian, Inc. is engaged in the
 business of creating and licensing software in the field of
 computational chemistry and represents and warrants to the
 licensee that it is not a competitor of Gaussian, Inc. and that
 it will not use this program in any manner prohibited above.
 ---------------------------------------------------------------
  

 Cite this work as:
 Gaussian 09, Revision B.01,
 M. J. Frisch, G. W. Trucks, H. B. Schlegel, G. E. Scuseria, 
 M. A. Robb, J. R. Cheeseman, G. Scalmani, V. Barone, B. Mennucci, 
 G. A. Petersson, H. Nakatsuji, M. Caricato, X. Li, H. P. Hratchian, 
 A. F. Izmaylov, J. Bloino, G. Zheng, J. L. Sonnenberg, M. Hada, 
 M. Ehara, K. Toyota, R. Fukuda, J. Hasegawa, M. Ishida, T. Nakajima, 
 Y. Honda, O. Kitao, H. Nakai, T. Vreven, J. A. Montgomery, Jr., 
 J. E. Peralta, F. Ogliaro, M. Bearpark, J. J. Heyd, E. Brothers, 
 K. N. Kudin, V. N. Staroverov, T. Keith, R. Kobayashi, J. Normand, 
 K. Raghavachari, A. Rendell, J. C. Burant, S. S. Iyengar, J. Tomasi, 
 M. Cossi, N. Rega, J. M. Millam, M. Klene, J. E. Knox, J. B. Cross, 
 V. Bakken, C. Adamo, J. Jaramillo, R. Gomperts, R. E. Stratmann, 
 O. Yazyev, A. J. Austin, R. Cammi, C. Pomelli, J. W. Ochterski, 
 R. L. Martin, K. Morokuma, V. G. Zakrzewski, G. A. Voth, 
 P. Salvador, J. J. Dannenberg, S. Dapprich, A. D. Daniels, 
 O. Farkas, J. B. Foresman, J. V. Ortiz, J. Cioslowski, 
 and D. J. Fox, Gaussian, Inc., Wallingford CT, 2010.
 
 ******************************************
 Gaussian 09:  EM64L-G09RevB.01 12-Aug-2010
                27-Nov-2021 
 ******************************************
 %nproc=8
 Will use up to    8 processors via shared memory.
 %mem=8GB
 -----------------------------------------------------
 # qcisd/aug-cc-pvtz nosymm density=current output=wfn
 -----------------------------------------------------
 1/30=1,38=1/1;
 2/12=2,15=1,17=6,18=5,40=1/2;
 3/5=16,6=1,7=10,11=9,16=1,25=1,30=1,71=1/1,2,3;
 4//1;
 5/5=2,38=5/2;
 8/6=4,9=120000,10=1/1,4;
 9/5=8,15=1/13;
 11/28=-7,31=1,32=3,42=3/11;
 10/5=6,13=10,31=1/2;
 6/7=2,8=2,9=2,10=2,22=-1,31=1/1;
 99/5=1,6=1100,9=1/99;
 -----------------
 f2cs-wavefunction
 -----------------
 Symbolic Z-matrix:
 Charge =  0 Multiplicity = 1
 C                     0.        0.01     -0.52035 
 S                     0.        0.        1.07852 
 F                     0.       -1.05522  -1.29554 
 F                     0.        1.05522  -1.29554 
 
                          Input orientation:                          
 ---------------------------------------------------------------------
 Center     Atomic      Atomic             Coordinates (Angstroms)
 Number     Number       Type             X           Y           Z
 ---------------------------------------------------------------------
      1          6           0        0.000000    0.010000   -0.520349
      2         16           0        0.000000    0.000000    1.078525
      3          9           0        0.000000   -1.055221   -1.295538
      4          9           0        0.000000    1.055221   -1.295538
 ---------------------------------------------------------------------
                    Distance matrix (angstroms):
                    1          2          3          4
     1  C    0.000000
     2  S    1.598905   0.000000
     3  F    1.317427   2.598012   0.000000
     4  F    1.301309   2.598012   2.110442   0.000000
 Symmetry turned off by external request.
 Stoichiometry    CF2S
 Framework group  CS[SG(CF2S)]
 Deg. of freedom     5
 Full point group                 CS      NOp   2
 Rotational constants (GHZ):     11.9446359      5.1130861      3.5804284
 Standard basis: Aug-CC-pVTZ (5D, 7F)
 Integral buffers will be    131072 words long.
 Raffenetti 1 integral format.
 Two-electron integral symmetry is turned off.
   188 basis functions,   330 primitive gaussians,   224 cartesian basis functions
    20 alpha electrons       20 beta electrons
       nuclear repulsion energy       154.3934442290 Hartrees.
 NAtoms=    4 NActive=    4 NUniq=    4 SFac= 1.00D+00 NAtFMM=   50 NAOKFM=F Big=F
 One-electron integrals computed using PRISM.
 NBasis=   188 RedAO= T  NBF=   188
 NBsUse=   188 1.00D-06 NBFU=   188
 Harris functional with IExCor=  205 diagonalized for initial guess.
 ExpMin= 3.51D-02 ExpMax= 3.74D+05 ExpMxC= 1.18D+03 IAcc=3 IRadAn=         0 AccDes= 0.00D+00
 HarFok:  IExCor=  205 AccDes= 0.00D+00 IRadAn=         0 IDoV= 1
 ScaDFX=  1.000000  1.000000  1.000000  1.000000
 FoFCou: FMM=F IPFlag=           0 FMFlag=      100000 FMFlg1=           0
         NFxFlg=           0 DoJE=T BraDBF=F KetDBF=T FulRan=T
         Omega=  0.000000  0.000000  1.000000  0.000000  0.000000 ICntrl=     500 IOpCl=  0
         NMat0=    1 NMatS0=    1 NMatT0=    0 NMatD0=    1 NMtDS0=    0 NMtDT0=    0
         I1Cent=           4 NGrid=           0.
 Symmetry not used in FoFCou.
 Requested convergence on RMS density matrix=1.00D-08 within 128 cycles.
 Requested convergence on MAX density matrix=1.00D-06.
 Requested convergence on             energy=1.00D-06.
 No special actions if energy rises.
 Keep R1 ints in memory in canonical form, NReq=323399632.
 SCF Done:  E(RHF) =  -634.356776871     A.U. after   12 cycles
             Convg  =    0.8563D-08             -V/T =  2.0005
 ExpMin= 3.51D-02 ExpMax= 3.74D+05 ExpMxC= 1.18D+03 IAcc=3 IRadAn=         5 AccDes= 0.00D+00
 HarFok:  IExCor=  205 AccDes= 0.00D+00 IRadAn=         5 IDoV=-2
 ScaDFX=  1.000000  1.000000  1.000000  1.000000
 DSYEVD returned Info=          93 IAlg= 4 N=    46 NDim=    46 NE2=    21472498 trying DSYEV.
 Range of M.O.s used for correlation:     9   188
 NBasis=   188 NAE=    20 NBE=    20 NFC=     8 NFV=     0
 NROrb=    180 NOA=    12 NOB=    12 NVA=   168 NVB=   168

 **** Warning!!: The largest alpha MO coefficient is  0.28165929D+02

 Semi-Direct transformation.
 ModeAB=           2 MOrb=            12 LenV=    1072746531
 LASXX=     33405819 LTotXX=    33405819 LenRXX=    33405819
 LTotAB=    33954012 MaxLAS=    54432000 LenRXY=    54432000
 NonZer=    66811638 LenScr=   100987392 LnRSAI=           0
 LnScr1=           0 LExtra=           0 Total=    188825211
 MaxDsk=          -1 SrtSym=           F ITran=            4
 JobTyp=0 Pass  1:  I=   1 to  12.
 (rs|ai) integrals will be sorted in core.
 Spin components of T(2) and E(2):
     alpha-alpha T2 =       0.3014421120D-01 E2=     -0.1104091814D+00
     alpha-beta  T2 =       0.1598262152D+00 E2=     -0.6187206528D+00
     beta-beta   T2 =       0.3014421120D-01 E2=     -0.1104091814D+00
 ANorm=    0.1104587994D+01
 E2 =    -0.8395390156D+00 EUMP2 =    -0.63519631588636D+03
 R2 and R3 integrals will be kept in memory, NReq=   640760400.
 Iterations=  50 Convergence= 0.100D-07
 Iteration Nr.   1
 **********************
 DD1Dir will call FoFMem   1 times, MxPair=       156
 NAB=    78 NAA=     0 NBB=     0.
 MP4(R+Q)=  0.19353820D-01
 E3=       -0.33823284D-02        EUMP3=      -0.63519969821D+03
 E4(DQ)=    0.24275923D-02        UMP4(DQ)=   -0.63519727062D+03
 E4(SDQ)=  -0.84312576D-02        UMP4(SDQ)=  -0.63520812947D+03
 DE(Corr)= -0.82356752     E(Corr)=     -635.18034439    
 NORM(A)=   0.11038533D+01
 Iteration Nr.   2
 **********************
 DD1Dir will call FoFMem   1 times, MxPair=       156
 NAB=    78 NAA=     0 NBB=     0.
 DE(Corr)= -0.84925389     E(CORR)=     -635.20603076     Delta=-2.57D-02
 NORM(A)=   0.11127851D+01
 Iteration Nr.   3
 **********************
 DD1Dir will call FoFMem   1 times, MxPair=       156
 NAB=    78 NAA=     0 NBB=     0.
 DE(Corr)= -0.84757888     E(CORR)=     -635.20435575     Delta= 1.68D-03
 NORM(A)=   0.11156276D+01
 Iteration Nr.   4
 **********************
 DD1Dir will call FoFMem   1 times, MxPair=       156
 NAB=    78 NAA=     0 NBB=     0.
 DE(Corr)= -0.85011037     E(CORR)=     -635.20688724     Delta=-2.53D-03
 NORM(A)=   0.11167389D+01
 Iteration Nr.   5
 **********************
 DD1Dir will call FoFMem   1 times, MxPair=       156
 NAB=    78 NAA=     0 NBB=     0.
 DE(Corr)= -0.85041167     E(CORR)=     -635.20718854     Delta=-3.01D-04
 NORM(A)=   0.11170651D+01
 Iteration Nr.   6
 **********************
 DD1Dir will call FoFMem   1 times, MxPair=       156
 NAB=    78 NAA=     0 NBB=     0.
 DE(Corr)= -0.85045118     E(CORR)=     -635.20722805     Delta=-3.95D-05
 NORM(A)=   0.11171138D+01
 Iteration Nr.   7
 **********************
 DD1Dir will call FoFMem   1 times, MxPair=       156
 NAB=    78 NAA=     0 NBB=     0.
 DE(Corr)= -0.85045550     E(CORR)=     -635.20723237     Delta=-4.31D-06
 NORM(A)=   0.11171136D+01
 Iteration Nr.   8
 **********************
 DD1Dir will call FoFMem   1 times, MxPair=       156
 NAB=    78 NAA=     0 NBB=     0.
 DE(Corr)= -0.85045412     E(CORR)=     -635.20723099     Delta= 1.38D-06
 NORM(A)=   0.11171188D+01
 Iteration Nr.   9
 **********************
 DD1Dir will call FoFMem   1 times, MxPair=       156
 NAB=    78 NAA=     0 NBB=     0.
 DE(Corr)= -0.85045380     E(CORR)=     -635.20723067     Delta= 3.20D-07
 NORM(A)=   0.11171189D+01
 Iteration Nr.  10
 **********************
 DD1Dir will call FoFMem   1 times, MxPair=       156
 NAB=    78 NAA=     0 NBB=     0.
 DE(Corr)= -0.85045390     E(CORR)=     -635.20723077     Delta=-1.04D-07
 NORM(A)=   0.11171204D+01
 Iteration Nr.  11
 **********************
 DD1Dir will call FoFMem   1 times, MxPair=       156
 NAB=    78 NAA=     0 NBB=     0.
 DE(Corr)= -0.85045463     E(CORR)=     -635.20723150     Delta=-7.29D-07
 NORM(A)=   0.11171218D+01
 Iteration Nr.  12
 **********************
 DD1Dir will call FoFMem   1 times, MxPair=       156
 NAB=    78 NAA=     0 NBB=     0.
 DE(Corr)= -0.85045487     E(CORR)=     -635.20723174     Delta=-2.41D-07
 NORM(A)=   0.11171225D+01
 Iteration Nr.  13
 **********************
 DD1Dir will call FoFMem   1 times, MxPair=       156
 NAB=    78 NAA=     0 NBB=     0.
 DE(Corr)= -0.85045514     E(CORR)=     -635.20723201     Delta=-2.63D-07
 NORM(A)=   0.11171229D+01
 Iteration Nr.  14
 **********************
 DD1Dir will call FoFMem   1 times, MxPair=       156
 NAB=    78 NAA=     0 NBB=     0.
 DE(Corr)= -0.85045520     E(CORR)=     -635.20723207     Delta=-6.03D-08
 NORM(A)=   0.11171231D+01
 Iteration Nr.  15
 **********************
 DD1Dir will call FoFMem   1 times, MxPair=       156
 NAB=    78 NAA=     0 NBB=     0.
 DE(Corr)= -0.85045524     E(CORR)=     -635.20723211     Delta=-3.88D-08
 NORM(A)=   0.11171231D+01
 Iteration Nr.  16
 **********************
 DD1Dir will call FoFMem   1 times, MxPair=       156
 NAB=    78 NAA=     0 NBB=     0.
 DE(Corr)= -0.85045525     E(CORR)=     -635.20723212     Delta=-1.08D-08
 NORM(A)=   0.11171232D+01
 Iteration Nr.  17
 **********************
 DD1Dir will call FoFMem   1 times, MxPair=       156
 NAB=    78 NAA=     0 NBB=     0.
 DE(Corr)= -0.85045524     E(CORR)=     -635.20723212     Delta= 1.77D-09
 NORM(A)=   0.11171232D+01
 Iteration Nr.  18
 **********************
 DD1Dir will call FoFMem   1 times, MxPair=       156
 NAB=    78 NAA=     0 NBB=     0.
 DE(Corr)= -0.85045525     E(CORR)=     -635.20723212     Delta=-1.64D-09
 NORM(A)=   0.11171232D+01
 Largest amplitude= 8.51D-02

 Z-AMPLITUDE ITERATIONS

 Iteration Nr.   1
 **********************
 DD1Dir will call FoFMem   1 times, MxPair=       156
 NAB=    78 NAA=     0 NBB=     0.
 DE(Z)  -0.82655082D+00          E(Z)=    -0.63518332769D+03
 NORM(A)=   0.11170958D+01
 Iteration Nr.   2
 **********************
 DD1Dir will call FoFMem   1 times, MxPair=       156
 NAB=    78 NAA=     0 NBB=     0.
 DE(Z)  -0.82655077D+00          E(Z)=    -0.63518332764D+03
 NORM(A)=   0.11170254D+01
 Iteration Nr.   3
 **********************
 DD1Dir will call FoFMem   1 times, MxPair=       156
 NAB=    78 NAA=     0 NBB=     0.
 DE(Z)  -0.82654928D+00          E(Z)=    -0.63518332615D+03
 NORM(A)=   0.11170731D+01
 Iteration Nr.   4
 **********************
 DD1Dir will call FoFMem   1 times, MxPair=       156
 NAB=    78 NAA=     0 NBB=     0.
 DE(Z)  -0.82655018D+00          E(Z)=    -0.63518332705D+03
 NORM(A)=   0.11170717D+01
 Iteration Nr.   5
 **********************
 DD1Dir will call FoFMem   1 times, MxPair=       156
 NAB=    78 NAA=     0 NBB=     0.
 DE(Z)  -0.82654994D+00          E(Z)=    -0.63518332681D+03
 NORM(A)=   0.11088857D+01
 Iteration Nr.   6
 **********************
 DD1Dir will call FoFMem   1 times, MxPair=       156
 NAB=    78 NAA=     0 NBB=     0.
 DE(Z)  -0.82641194D+00          E(Z)=    -0.63518318881D+03
 NORM(A)=   0.11088825D+01
 Iteration Nr.   7
 **********************
 DD1Dir will call FoFMem   1 times, MxPair=       156
 NAB=    78 NAA=     0 NBB=     0.
 DE(Z)  -0.82641040D+00          E(Z)=    -0.63518318727D+03
 NORM(A)=   0.11088811D+01
 Iteration Nr.   8
 **********************
 DD1Dir will call FoFMem   1 times, MxPair=       156
 NAB=    78 NAA=     0 NBB=     0.
 DE(Z)  -0.82641034D+00          E(Z)=    -0.63518318721D+03
 NORM(A)=   0.11088807D+01
 Iteration Nr.   9
 **********************
 DD1Dir will call FoFMem   1 times, MxPair=       156
 NAB=    78 NAA=     0 NBB=     0.
 DE(Z)  -0.82641028D+00          E(Z)=    -0.63518318715D+03
 NORM(A)=   0.11088810D+01
 Iteration Nr.  10
 **********************
 DD1Dir will call FoFMem   1 times, MxPair=       156
 NAB=    78 NAA=     0 NBB=     0.
 DE(Z)  -0.82641019D+00          E(Z)=    -0.63518318707D+03
 NORM(A)=   0.11088810D+01
 Iteration Nr.  11
 **********************
 DD1Dir will call FoFMem   1 times, MxPair=       156
 NAB=    78 NAA=     0 NBB=     0.
 DE(Z)  -0.82641037D+00          E(Z)=    -0.63518318724D+03
 NORM(A)=   0.11088811D+01
 Iteration Nr.  12
 **********************
 DD1Dir will call FoFMem   1 times, MxPair=       156
 NAB=    78 NAA=     0 NBB=     0.
 DE(Z)  -0.82641034D+00          E(Z)=    -0.63518318721D+03
 NORM(A)=   0.11088811D+01
 Iteration Nr.  13
 **********************
 DD1Dir will call FoFMem   1 times, MxPair=       156
 NAB=    78 NAA=     0 NBB=     0.
 DE(Z)  -0.82641035D+00          E(Z)=    -0.63518318722D+03
 NORM(A)=   0.11088810D+01
 Iteration Nr.  14
 **********************
 DD1Dir will call FoFMem   1 times, MxPair=       156
 NAB=    78 NAA=     0 NBB=     0.
 DE(Z)  -0.82641035D+00          E(Z)=    -0.63518318722D+03
 NORM(A)=   0.11088810D+01
 Discarding MO integrals.
          Differentiating once with respect to electric field.
                with respect to dipole field.
          Electric field/nuclear overlap derivatives assumed to be zero.
          Keep R1 ints in memory in canonical form, NReq=319473719.
          There are     1 degrees of freedom in the 1st order CPHF.  IDoFFX=0.
 LinEq1:  Iter=  0 NonCon=     1 RMS=2.85D-03 Max=7.73D-02
 AX will form     1 AO Fock derivatives at one time.
 LinEq1:  Iter=  1 NonCon=     1 RMS=8.84D-04 Max=1.06D-02
 LinEq1:  Iter=  2 NonCon=     1 RMS=4.03D-04 Max=1.29D-02
 LinEq1:  Iter=  3 NonCon=     1 RMS=1.09D-04 Max=2.38D-03
 LinEq1:  Iter=  4 NonCon=     1 RMS=2.69D-05 Max=6.37D-04
 LinEq1:  Iter=  5 NonCon=     1 RMS=6.82D-06 Max=1.04D-04
 LinEq1:  Iter=  6 NonCon=     1 RMS=2.72D-06 Max=5.76D-05
 LinEq1:  Iter=  7 NonCon=     1 RMS=8.49D-07 Max=1.53D-05
 LinEq1:  Iter=  8 NonCon=     1 RMS=1.71D-07 Max=2.25D-06
 LinEq1:  Iter=  9 NonCon=     1 RMS=3.62D-08 Max=4.10D-07
 LinEq1:  Iter= 10 NonCon=     1 RMS=1.33D-08 Max=1.72D-07
 LinEq1:  Iter= 11 NonCon=     1 RMS=4.67D-09 Max=4.42D-08
 LinEq1:  Iter= 12 NonCon=     1 RMS=8.54D-10 Max=1.42D-08
 LinEq1:  Iter= 13 NonCon=     1 RMS=1.19D-10 Max=1.44D-09
 LinEq1:  Iter= 14 NonCon=     0 RMS=2.22D-11 Max=2.05D-10
 Linear equations converged to 1.000D-10 1.000D-09 after    14 iterations.
 End of Minotr Frequency-dependent properties file   721 does not exist.
 End of Minotr Frequency-dependent properties file   722 does not exist.

 **********************************************************************

            Population analysis using the QCI/CC density.

 **********************************************************************

     Natural Orbital Coefficients:
                           1         2         3         4         5
     Eigenvalues --     2.00003   2.00002   2.00001   2.00001   2.00000
   1 1   C  1S         -0.00032  -0.17765   0.59469   0.00000   0.48277
   2        2S         -0.00002   0.00325  -0.00925   0.00000  -0.00495
   3        3S         -0.00002  -0.00680   0.02394   0.00000   0.02018
   4        4S          0.00015  -0.00905   0.00229   0.00000  -0.00205
   5        5S          0.00000  -0.00082   0.00195   0.00000   0.00044
   6        6PX         0.00000   0.00000   0.00000  -0.00182   0.00000
   7        6PY        -0.00139  -0.00001   0.00003   0.00000   0.00001
   8        6PZ        -0.00001   0.00135  -0.00336   0.00000  -0.00038
   9        7PX         0.00000   0.00000   0.00000  -0.00184   0.00000
  10        7PY        -0.00364  -0.00001   0.00000   0.00000   0.00001
  11        7PZ         0.00006  -0.00098   0.00139   0.00000   0.00160
  12        8PX         0.00000   0.00000   0.00000  -0.00120   0.00000
  13        8PY         0.00601   0.00012  -0.00009   0.00000  -0.00009
  14        8PZ        -0.00014  -0.00923   0.00527   0.00000  -0.00109
  15        9PX         0.00000   0.00000   0.00000   0.00009   0.00000
  16        9PY        -0.00061   0.00000   0.00000   0.00000   0.00001
  17        9PZ         0.00000   0.00035   0.00029   0.00000   0.00054
  18       10D 0       -0.00001  -0.00008   0.00007   0.00000   0.00019
  19       10D+1        0.00000   0.00000   0.00000  -0.00030   0.00000
  20       10D-1       -0.00030   0.00001  -0.00002   0.00000  -0.00001
  21       10D+2        0.00000   0.00011  -0.00037   0.00000  -0.00019
  22       10D-2        0.00000   0.00000   0.00000   0.00000   0.00000
  23       11D 0        0.00002  -0.00117   0.00018   0.00000  -0.00032
  24       11D+1        0.00000   0.00000   0.00000   0.00120   0.00000
  25       11D-1        0.00103   0.00003   0.00000   0.00000   0.00003
  26       11D+2        0.00000  -0.00014   0.00118   0.00000   0.00082
  27       11D-2        0.00000   0.00000   0.00000  -0.00003   0.00000
  28       12D 0        0.00001  -0.00270   0.00163   0.00000  -0.00137
  29       12D+1        0.00000   0.00000   0.00000  -0.00054   0.00000
  30       12D-1       -0.00445   0.00001   0.00000   0.00000   0.00006
  31       12D+2        0.00000  -0.00088   0.00057   0.00000  -0.00054
  32       12D-2        0.00000   0.00000   0.00000   0.00000   0.00000
  33       13F 0        0.00000  -0.00005  -0.00001   0.00000   0.00041
  34       13F+1        0.00000   0.00000   0.00000  -0.00018   0.00000
  35       13F-1       -0.00055   0.00000   0.00001   0.00000   0.00000
  36       13F+2        0.00000  -0.00010   0.00016   0.00000   0.00002
  37       13F-2        0.00000   0.00000   0.00000   0.00001   0.00000
  38       13F+3        0.00000   0.00000   0.00000   0.00002   0.00000
  39       13F-3        0.00005   0.00000  -0.00001   0.00000   0.00000
  40       14F 0        0.00003   0.00062  -0.00195   0.00000  -0.00024
  41       14F+1        0.00000   0.00000   0.00000   0.00089   0.00000
  42       14F-1        0.00290  -0.00005   0.00014   0.00000  -0.00013
  43       14F+2        0.00003   0.00066  -0.00151   0.00000  -0.00089
  44       14F-2        0.00000   0.00000   0.00000   0.00000   0.00000
  45       14F+3        0.00000   0.00000   0.00000   0.00017   0.00000
  46       14F-3        0.00003  -0.00002   0.00004   0.00000  -0.00002
  47 2   S  1S          0.00085  -0.21708  -0.16978   0.00000   0.07189
  48        2S         -0.00294   0.74228   0.58697   0.00000  -0.24957
  49        3S          0.00007  -0.02144  -0.00889   0.00000   0.00218
  50        4S         -0.00018   0.04960   0.04235   0.00000  -0.01822
  51        5S          0.00003   0.01000  -0.01127   0.00000   0.00417
  52        6S          0.00002   0.00100  -0.00257   0.00000  -0.00081
  53        7PX         0.00000   0.00000   0.00000   0.97269   0.00000
  54        7PY         0.97644  -0.00211   0.00526   0.00000  -0.00357
  55        7PZ         0.00659   0.62344  -0.50351   0.00000   0.43834
  56        8PX         0.00000   0.00000   0.00000  -0.01225   0.00000
  57        8PY        -0.02021   0.00006  -0.00014   0.00000   0.00012
  58        8PZ        -0.00010  -0.01235   0.00874   0.00000  -0.00447
  59        9PX         0.00000   0.00000   0.00000   0.06130   0.00000
  60        9PY         0.05654  -0.00014   0.00035   0.00000  -0.00025
  61        9PZ         0.00037   0.03855  -0.03310   0.00000   0.02892
  62       10PX         0.00000   0.00000   0.00000   0.00020   0.00000
  63       10PY        -0.00421   0.00005  -0.00006   0.00000   0.00002
  64       10PZ        -0.00005  -0.00881   0.00483   0.00000  -0.00069
  65       11PX         0.00000   0.00000   0.00000  -0.00082   0.00000
  66       11PY        -0.00033   0.00000   0.00000   0.00000  -0.00001
  67       11PZ        -0.00001  -0.00029   0.00029   0.00000  -0.00003
  68       12D 0        0.00002   0.00245  -0.00293   0.00000   0.00107
  69       12D+1        0.00000   0.00000   0.00000   0.00201   0.00000
  70       12D-1        0.00336  -0.00003   0.00008   0.00000  -0.00007
  71       12D+2        0.00002  -0.00040   0.00026   0.00000   0.00029
  72       12D-2        0.00000   0.00000   0.00000  -0.00002   0.00000
  73       13D 0       -0.00001   0.00019   0.00028   0.00000  -0.00069
  74       13D+1        0.00000   0.00000   0.00000  -0.00013   0.00000
  75       13D-1       -0.00028  -0.00001   0.00000   0.00000   0.00000
  76       13D+2        0.00000   0.00026   0.00013   0.00000  -0.00008
  77       13D-2        0.00000   0.00000   0.00000   0.00000   0.00000
  78       14D 0       -0.00001   0.00141  -0.00061   0.00000   0.00010
  79       14D+1        0.00000   0.00000   0.00000  -0.00039   0.00000
  80       14D-1       -0.00081  -0.00002   0.00001   0.00000   0.00000
  81       14D+2       -0.00001   0.00024  -0.00002   0.00000   0.00014
  82       14D-2        0.00000   0.00000   0.00000   0.00000   0.00000
  83       15F 0        0.00000  -0.00022   0.00029   0.00000   0.00033
  84       15F+1        0.00000   0.00000   0.00000  -0.00023   0.00000
  85       15F-1       -0.00022   0.00000  -0.00001   0.00000   0.00000
  86       15F+2        0.00000   0.00011  -0.00014   0.00000   0.00003
  87       15F-2        0.00000   0.00000   0.00000   0.00000   0.00000
  88       15F+3        0.00000   0.00000   0.00000   0.00009   0.00000
  89       15F-3        0.00006   0.00000   0.00000   0.00000   0.00000
  90       16F 0       -0.00001  -0.00046   0.00057   0.00000  -0.00046
  91       16F+1        0.00000   0.00000   0.00000  -0.00047   0.00000
  92       16F-1       -0.00103   0.00001  -0.00002   0.00000   0.00002
  93       16F+2       -0.00001  -0.00001  -0.00017   0.00000  -0.00026
  94       16F-2        0.00000   0.00000   0.00000   0.00001   0.00000
  95       16F+3        0.00000   0.00000   0.00000  -0.00013   0.00000
  96       16F-3       -0.00012   0.00000   0.00000   0.00000   0.00000
  97 3   F  1S          0.00826   0.01080  -0.08417   0.00000  -0.48492
  98        2S          0.00020  -0.00044   0.00233   0.00000   0.00838
  99        3S          0.00045   0.00040  -0.00336   0.00000  -0.02061
 100        4S          0.00027  -0.00134   0.00377   0.00000   0.00175
 101        5S          0.00712  -0.00210   0.00120   0.00000  -0.00039
 102        6PX         0.00000   0.00000   0.00000   0.00094   0.00000
 103        6PY        -0.00021   0.00002  -0.00067   0.00000  -0.00169
 104        6PZ        -0.00058  -0.00014  -0.00016   0.00000  -0.00140
 105        7PX         0.00000   0.00000   0.00000   0.00117   0.00000
 106        7PY        -0.00033  -0.00007  -0.00037   0.00000  -0.00092
 107        7PZ        -0.00084  -0.00030   0.00019   0.00000  -0.00082
 108        8PX         0.00000   0.00000   0.00000   0.00124   0.00000
 109        8PY        -0.00054  -0.00005  -0.00005   0.00000  -0.00115
 110        8PZ        -0.00271  -0.00027   0.00063   0.00000  -0.00130
 111        9PX         0.00000   0.00000   0.00000  -0.00001   0.00000
 112        9PY         0.00168  -0.00009  -0.00005   0.00000   0.00005
 113        9PZ         0.00020  -0.00108   0.00051   0.00000  -0.00067
 114       10D 0        0.00000   0.00001   0.00000   0.00000   0.00001
 115       10D+1        0.00000   0.00000   0.00000  -0.00001   0.00000
 116       10D-1        0.00001   0.00000   0.00002   0.00000   0.00002
 117       10D+2        0.00000   0.00001  -0.00002   0.00000   0.00002
 118       10D-2        0.00000   0.00000   0.00000  -0.00002   0.00000
 119       11D 0        0.00015   0.00001  -0.00006   0.00000  -0.00002
 120       11D+1        0.00000   0.00000   0.00000  -0.00003   0.00000
 121       11D-1       -0.00007   0.00004  -0.00013   0.00000  -0.00009
 122       11D+2        0.00003  -0.00001   0.00006   0.00000  -0.00001
 123       11D-2        0.00000   0.00000   0.00000   0.00004   0.00000
 124       12D 0       -0.00046   0.00021  -0.00034   0.00000  -0.00001
 125       12D+1        0.00000   0.00000   0.00000   0.00023   0.00000
 126       12D-1       -0.00085  -0.00007   0.00022   0.00000  -0.00049
 127       12D+2        0.00039  -0.00015   0.00029   0.00000   0.00021
 128       12D-2        0.00000   0.00000   0.00000   0.00003   0.00000
 129       13F 0       -0.00001  -0.00002   0.00004   0.00000   0.00000
 130       13F+1        0.00000   0.00000   0.00000   0.00001   0.00000
 131       13F-1        0.00003   0.00001   0.00000   0.00000   0.00002
 132       13F+2       -0.00001  -0.00001   0.00001   0.00000  -0.00004
 133       13F-2        0.00000   0.00000   0.00000  -0.00002   0.00000
 134       13F+3        0.00000   0.00000   0.00000   0.00001   0.00000
 135       13F-3       -0.00002   0.00001  -0.00002   0.00000   0.00001
 136       14F 0        0.00014   0.00006  -0.00010   0.00000   0.00014
 137       14F+1        0.00000   0.00000   0.00000  -0.00004   0.00000
 138       14F-1       -0.00001   0.00003  -0.00014   0.00000  -0.00018
 139       14F+2        0.00008   0.00000   0.00012   0.00000   0.00030
 140       14F-2        0.00000   0.00000   0.00000   0.00008   0.00000
 141       14F+3        0.00000   0.00000   0.00000  -0.00003   0.00000
 142       14F-3        0.00012  -0.00005   0.00015   0.00000   0.00001
 143 4   F  1S         -0.00836   0.01096  -0.08548   0.00000  -0.48403
 144        2S         -0.00018  -0.00045   0.00238   0.00000   0.00838
 145        3S         -0.00045   0.00040  -0.00341   0.00000  -0.02058
 146        4S         -0.00033  -0.00131   0.00374   0.00000   0.00187
 147        5S         -0.00726  -0.00218   0.00124   0.00000  -0.00026
 148        6PX         0.00000   0.00000   0.00000   0.00095   0.00000
 149        6PY        -0.00017  -0.00002   0.00070   0.00000   0.00172
 150        6PZ         0.00058  -0.00014  -0.00019   0.00000  -0.00146
 151        7PX         0.00000   0.00000   0.00000   0.00119   0.00000
 152        7PY        -0.00028   0.00006   0.00041   0.00000   0.00093
 153        7PZ         0.00086  -0.00030   0.00016   0.00000  -0.00087
 154        8PX         0.00000   0.00000   0.00000   0.00129   0.00000
 155        8PY        -0.00054  -0.00009   0.00035   0.00000   0.00108
 156        8PZ         0.00274  -0.00034   0.00081   0.00000  -0.00153
 157        9PX         0.00000   0.00000   0.00000  -0.00001   0.00000
 158        9PY         0.00169   0.00008   0.00005   0.00000  -0.00009
 159        9PZ        -0.00022  -0.00112   0.00053   0.00000  -0.00069
 160       10D 0        0.00000   0.00001   0.00000   0.00000   0.00001
 161       10D+1        0.00000   0.00000   0.00000  -0.00001   0.00000
 162       10D-1        0.00001   0.00000  -0.00002   0.00000  -0.00002
 163       10D+2        0.00000   0.00001  -0.00002   0.00000   0.00002
 164       10D-2        0.00000   0.00000   0.00000   0.00002   0.00000
 165       11D 0       -0.00015   0.00001  -0.00005   0.00000  -0.00003
 166       11D+1        0.00000   0.00000   0.00000  -0.00002   0.00000
 167       11D-1       -0.00007  -0.00004   0.00014   0.00000   0.00011
 168       11D+2       -0.00004  -0.00002   0.00007   0.00000  -0.00001
 169       11D-2        0.00000   0.00000   0.00000  -0.00005   0.00000
 170       12D 0        0.00047   0.00016  -0.00023   0.00000  -0.00009
 171       12D+1        0.00000   0.00000   0.00000   0.00025   0.00000
 172       12D-1       -0.00083   0.00006  -0.00022   0.00000   0.00055
 173       12D+2       -0.00041  -0.00019   0.00038   0.00000   0.00019
 174       12D-2        0.00000   0.00000   0.00000  -0.00004   0.00000
 175       13F 0        0.00001  -0.00002   0.00003   0.00000  -0.00001
 176       13F+1        0.00000   0.00000   0.00000   0.00001   0.00000
 177       13F-1        0.00003  -0.00001   0.00000   0.00000  -0.00002
 178       13F+2        0.00000  -0.00001   0.00001   0.00000  -0.00004
 179       13F-2        0.00000   0.00000   0.00000   0.00003   0.00000
 180       13F+3        0.00000   0.00000   0.00000   0.00001   0.00000
 181       13F-3       -0.00001  -0.00001   0.00002   0.00000  -0.00001
 182       14F 0       -0.00013   0.00006  -0.00009   0.00000   0.00014
 183       14F+1        0.00000   0.00000   0.00000  -0.00003   0.00000
 184       14F-1        0.00000  -0.00003   0.00014   0.00000   0.00020
 185       14F+2       -0.00007  -0.00001   0.00013   0.00000   0.00030
 186       14F-2        0.00000   0.00000   0.00000  -0.00008   0.00000
 187       14F+3        0.00000   0.00000   0.00000  -0.00004   0.00000
 188       14F-3        0.00012   0.00005  -0.00015   0.00000   0.00000
                           6         7         8         9        10
     Eigenvalues --     2.00000   2.00000   2.00000   1.98612   1.98546
   1 1   C  1S         -0.01156   0.58685   0.00016  -0.04808   0.00162
   2        2S          0.00016  -0.00555  -0.00003   0.09891  -0.00370
   3        3S         -0.00048   0.02378   0.00002   0.02060  -0.00071
   4        4S          0.00018  -0.00203  -0.00004   0.01127  -0.00046
   5        5S          0.00000   0.00065  -0.00007   0.00488  -0.00024
   6        6PX         0.00000   0.00000   0.00000   0.00000   0.00000
   7        6PY        -0.00002   0.00002   0.00000   0.00240   0.03325
   8        6PZ         0.00001  -0.00095   0.00001  -0.02075   0.00038
   9        7PX         0.00000   0.00000   0.00000   0.00000   0.00000
  10        7PY         0.00072   0.00014   0.00000   0.00178   0.02708
  11        7PZ        -0.00008   0.00017  -0.00013  -0.02473   0.00086
  12        8PX         0.00000   0.00000   0.00000   0.00000   0.00000
  13        8PY        -0.00059   0.00003   0.00000  -0.00088  -0.01792
  14        8PZ        -0.00009   0.00218   0.00003   0.03655  -0.00117
  15        9PX         0.00000   0.00000   0.00000   0.00000   0.00000
  16        9PY         0.00033   0.00001   0.00000   0.00014   0.00139
  17        9PZ         0.00000   0.00028  -0.00003   0.00128  -0.00006
  18       10D 0        0.00000   0.00023  -0.00001   0.00308  -0.00009
  19       10D+1        0.00000   0.00000   0.00000   0.00000   0.00000
  20       10D-1       -0.00020  -0.00004   0.00000  -0.00083  -0.01042
  21       10D+2        0.00000  -0.00051   0.00000  -0.00842   0.00032
  22       10D-2        0.00000   0.00000   0.00000   0.00000   0.00000
  23       11D 0        0.00003  -0.00049  -0.00008   0.00234   0.00001
  24       11D+1        0.00000   0.00000   0.00000   0.00000   0.00000
  25       11D-1       -0.00124  -0.00005   0.00000  -0.00060  -0.01068
  26       11D+2       -0.00002   0.00000  -0.00003  -0.01132   0.00057
  27       11D-2        0.00000   0.00000   0.00000   0.00000   0.00000
  28       12D 0       -0.00001  -0.00014  -0.00002   0.00684  -0.00036
  29       12D+1        0.00000   0.00000   0.00000   0.00000   0.00000
  30       12D-1        0.00064   0.00007   0.00000   0.00164   0.01323
  31       12D+2       -0.00002   0.00026   0.00000   0.00845  -0.00028
  32       12D-2        0.00000   0.00000   0.00000   0.00000   0.00000
  33       13F 0       -0.00001   0.00061   0.00001   0.00274  -0.00012
  34       13F+1        0.00000   0.00000   0.00000   0.00000   0.00000
  35       13F-1        0.00017   0.00001   0.00000   0.00015   0.00180
  36       13F+2       -0.00001   0.00060   0.00001   0.00521  -0.00022
  37       13F-2        0.00000   0.00000   0.00000   0.00000   0.00000
  38       13F+3        0.00000   0.00000   0.00000   0.00000   0.00000
  39       13F-3       -0.00021  -0.00001   0.00000  -0.00008  -0.00214
  40       14F 0       -0.00002   0.00053   0.00003   0.00419  -0.00025
  41       14F+1        0.00000   0.00000   0.00000   0.00000   0.00000
  42       14F-1        0.00106  -0.00002  -0.00001   0.00059   0.00420
  43       14F+2        0.00001  -0.00025   0.00001   0.00233  -0.00017
  44       14F-2        0.00000   0.00000   0.00000   0.00000   0.00000
  45       14F+3        0.00000   0.00000   0.00000   0.00000   0.00000
  46       14F-3        0.00013  -0.00001   0.00000   0.00009   0.00033
  47 2   S  1S         -0.00111   0.04649   0.99640   0.00292  -0.00016
  48        2S          0.00388  -0.16285   0.01318  -0.01165   0.00066
  49        3S         -0.00001   0.00050   0.00031   0.02246  -0.00123
  50        4S          0.00029  -0.01214  -0.00003   0.00241  -0.00010
  51        5S         -0.00002   0.00117  -0.00005  -0.01836   0.00027
  52        6S          0.00001  -0.00093   0.00005  -0.01150   0.00034
  53        7PX         0.00000   0.00000   0.00000   0.00000   0.00000
  54        7PY         0.01188  -0.00226  -0.00001  -0.00021  -0.00434
  55        7PZ        -0.00749   0.33434   0.00171   0.00757  -0.00043
  56        8PX         0.00000   0.00000   0.00000   0.00000   0.00000
  57        8PY        -0.00034   0.00003   0.00000   0.00045   0.01612
  58        8PZ         0.00006  -0.00288  -0.00018  -0.01276   0.00095
  59        9PX         0.00000   0.00000   0.00000   0.00000   0.00000
  60        9PY         0.00074  -0.00015   0.00000   0.00030   0.00662
  61        9PZ        -0.00050   0.02235   0.00019  -0.00741   0.00041
  62       10PX         0.00000   0.00000   0.00000   0.00000   0.00000
  63       10PY        -0.00048  -0.00005   0.00000  -0.00106   0.00421
  64       10PZ         0.00001  -0.00018   0.00003   0.00654   0.00020
  65       11PX         0.00000   0.00000   0.00000   0.00000   0.00000
  66       11PY        -0.00018  -0.00001   0.00000  -0.00012  -0.00054
  67       11PZ         0.00000   0.00007   0.00000   0.00188  -0.00004
  68       12D 0       -0.00002   0.00101   0.00008   0.00138  -0.00016
  69       12D+1        0.00000   0.00000   0.00000   0.00000   0.00000
  70       12D-1        0.00012  -0.00002   0.00000   0.00026   0.00008
  71       12D+2        0.00000   0.00009  -0.00001  -0.00019   0.00003
  72       12D-2        0.00000   0.00000   0.00000   0.00000   0.00000
  73       13D 0        0.00002  -0.00067   0.00001   0.00257  -0.00013
  74       13D+1        0.00000   0.00000   0.00000   0.00000   0.00000
  75       13D-1       -0.00001   0.00001   0.00000  -0.00002  -0.00034
  76       13D+2        0.00000  -0.00005   0.00001  -0.00001   0.00000
  77       13D-2        0.00000   0.00000   0.00000   0.00000   0.00000
  78       14D 0       -0.00001   0.00026  -0.00003  -0.00159  -0.00001
  79       14D+1        0.00000   0.00000   0.00000   0.00000   0.00000
  80       14D-1        0.00013   0.00001   0.00000   0.00052   0.00194
  81       14D+2        0.00000  -0.00008   0.00000  -0.00269   0.00011
  82       14D-2        0.00000   0.00000   0.00000   0.00000   0.00000
  83       15F 0       -0.00001   0.00035  -0.00002  -0.00045   0.00005
  84       15F+1        0.00000   0.00000   0.00000   0.00000   0.00000
  85       15F-1        0.00000  -0.00001   0.00000  -0.00004   0.00021
  86       15F+2        0.00000   0.00009   0.00000   0.00001  -0.00001
  87       15F-2        0.00000   0.00000   0.00000   0.00000   0.00000
  88       15F+3        0.00000   0.00000   0.00000   0.00000   0.00000
  89       15F-3       -0.00001   0.00000   0.00000   0.00000   0.00000
  90       16F 0        0.00001  -0.00050  -0.00001   0.00034   0.00001
  91       16F+1        0.00000   0.00000   0.00000   0.00000   0.00000
  92       16F-1       -0.00002   0.00001   0.00000  -0.00009  -0.00019
  93       16F+2        0.00000  -0.00009   0.00000   0.00088  -0.00003
  94       16F-2        0.00000   0.00000   0.00000   0.00000   0.00000
  95       16F+3        0.00000   0.00000   0.00000   0.00000   0.00000
  96       16F-3        0.00003   0.00000   0.00000  -0.00001   0.00024
  97 3   F  1S         -0.70154   0.47277   0.00014  -0.13865   0.15730
  98        2S          0.01130  -0.00668  -0.00001   0.35458  -0.40258
  99        3S         -0.03021   0.02070   0.00001   0.10808  -0.12340
 100        4S          0.00060   0.00128  -0.00003   0.22177  -0.26576
 101        5S         -0.00071   0.00031   0.00004   0.01611  -0.03242
 102        6PX         0.00000   0.00000   0.00000   0.00000   0.00000
 103        6PY        -0.00143   0.00042   0.00000  -0.00425   0.03787
 104        6PZ        -0.00107  -0.00001   0.00000  -0.02125   0.00910
 105        7PX         0.00000   0.00000   0.00000   0.00000   0.00000
 106        7PY         0.00015  -0.00071  -0.00001  -0.00111   0.04118
 107        7PZ        -0.00010  -0.00094  -0.00001  -0.02335   0.00732
 108        8PX         0.00000   0.00000   0.00000   0.00000   0.00000
 109        8PY        -0.00071   0.00061   0.00000  -0.01169   0.03452
 110        8PZ        -0.00151  -0.00058  -0.00004  -0.02856   0.00585
 111        9PX         0.00000   0.00000   0.00000   0.00000   0.00000
 112        9PY        -0.00040   0.00008   0.00001  -0.00193  -0.00103
 113        9PZ        -0.00005  -0.00013   0.00001  -0.00051   0.00047
 114       10D 0        0.00000   0.00001   0.00000  -0.00014  -0.00012
 115       10D+1        0.00000   0.00000   0.00000   0.00000   0.00000
 116       10D-1       -0.00001   0.00004   0.00000   0.00060  -0.00042
 117       10D+2        0.00001  -0.00001   0.00000  -0.00063   0.00012
 118       10D-2        0.00000   0.00000   0.00000   0.00000   0.00000
 119       11D 0       -0.00007  -0.00006   0.00000  -0.00083  -0.00085
 120       11D+1        0.00000   0.00000   0.00000   0.00000   0.00000
 121       11D-1        0.00024  -0.00050  -0.00001   0.00330  -0.00396
 122       11D+2       -0.00017   0.00021   0.00000  -0.00320   0.00210
 123       11D-2        0.00000   0.00000   0.00000   0.00000   0.00000
 124       12D 0       -0.00030  -0.00011   0.00000  -0.00152  -0.00119
 125       12D+1        0.00000   0.00000   0.00000   0.00000   0.00000
 126       12D-1       -0.00038  -0.00027  -0.00002  -0.00526   0.00015
 127       12D+2        0.00018  -0.00013   0.00000   0.00166  -0.00130
 128       12D-2        0.00000   0.00000   0.00000   0.00000   0.00000
 129       13F 0        0.00000  -0.00002   0.00000  -0.00032   0.00013
 130       13F+1        0.00000   0.00000   0.00000   0.00000   0.00000
 131       13F-1        0.00001  -0.00001   0.00000   0.00012  -0.00027
 132       13F+2       -0.00001   0.00001   0.00000  -0.00050   0.00032
 133       13F-2        0.00000   0.00000   0.00000   0.00000   0.00000
 134       13F+3        0.00000   0.00000   0.00000   0.00000   0.00000
 135       13F-3       -0.00006   0.00002   0.00000  -0.00041   0.00005
 136       14F 0       -0.00004   0.00019   0.00001  -0.00033   0.00038
 137       14F+1        0.00000   0.00000   0.00000   0.00000   0.00000
 138       14F-1       -0.00002  -0.00019   0.00000  -0.00024  -0.00084
 139       14F+2       -0.00001   0.00027   0.00000  -0.00068   0.00102
 140       14F-2        0.00000   0.00000   0.00000   0.00000   0.00000
 141       14F+3        0.00000   0.00000   0.00000   0.00000   0.00000
 142       14F-3        0.00013   0.00004   0.00000  -0.00044   0.00065
 143 4   F  1S          0.68234   0.50065   0.00015  -0.15403  -0.14239
 144        2S         -0.01101  -0.00709  -0.00001   0.39375   0.36438
 145        3S          0.02940   0.02193   0.00001   0.11998   0.11167
 146        4S         -0.00078   0.00117  -0.00003   0.24646   0.24106
 147        5S          0.00063   0.00032   0.00004   0.02082   0.03083
 148        6PX         0.00000   0.00000   0.00000   0.00000   0.00000
 149        6PY        -0.00144  -0.00048   0.00000   0.00725   0.03741
 150        6PZ         0.00112   0.00004   0.00000  -0.02241  -0.00701
 151        7PX         0.00000   0.00000   0.00000   0.00000   0.00000
 152        7PY         0.00013   0.00075   0.00001   0.00423   0.04103
 153        7PZ         0.00014  -0.00100  -0.00001  -0.02431  -0.00491
 154        8PX         0.00000   0.00000   0.00000   0.00000   0.00000
 155        8PY        -0.00063  -0.00056  -0.00001   0.01531   0.03374
 156        8PZ         0.00154  -0.00069  -0.00005  -0.02952  -0.00336
 157        9PX         0.00000   0.00000   0.00000   0.00000   0.00000
 158        9PY        -0.00039  -0.00009  -0.00001   0.00147  -0.00117
 159        9PZ         0.00004  -0.00015   0.00001  -0.00060  -0.00037
 160       10D 0        0.00000   0.00001   0.00000  -0.00012   0.00015
 161       10D+1        0.00000   0.00000   0.00000   0.00000   0.00000
 162       10D-1       -0.00001  -0.00005   0.00000  -0.00070  -0.00040
 163       10D+2       -0.00001  -0.00001   0.00000  -0.00067  -0.00007
 164       10D-2        0.00000   0.00000   0.00000   0.00000   0.00000
 165       11D 0        0.00007  -0.00008   0.00000  -0.00070   0.00103
 166       11D+1        0.00000   0.00000   0.00000   0.00000   0.00000
 167       11D-1        0.00024   0.00055   0.00001  -0.00388  -0.00371
 168       11D+2        0.00017   0.00022   0.00000  -0.00351  -0.00176
 169       11D-2        0.00000   0.00000   0.00000   0.00000   0.00000
 170       12D 0        0.00031  -0.00013  -0.00001  -0.00129   0.00129
 171       12D+1        0.00000   0.00000   0.00000   0.00000   0.00000
 172       12D-1       -0.00038   0.00031   0.00002   0.00531  -0.00015
 173       12D+2       -0.00017  -0.00012  -0.00001   0.00201   0.00121
 174       12D-2        0.00000   0.00000   0.00000   0.00000   0.00000
 175       13F 0        0.00000  -0.00002   0.00000  -0.00035  -0.00010
 176       13F+1        0.00000   0.00000   0.00000   0.00000   0.00000
 177       13F-1        0.00001   0.00001   0.00000  -0.00017  -0.00029
 178       13F+2        0.00001   0.00001   0.00000  -0.00057  -0.00029
 179       13F-2        0.00000   0.00000   0.00000   0.00000   0.00000
 180       13F+3        0.00000   0.00000   0.00000   0.00000   0.00000
 181       13F-3       -0.00006  -0.00002   0.00000   0.00043   0.00001
 182       14F 0        0.00003   0.00020   0.00001  -0.00037  -0.00031
 183       14F+1        0.00000   0.00000   0.00000   0.00000   0.00000
 184       14F-1       -0.00003   0.00021   0.00000   0.00012  -0.00086
 185       14F+2        0.00000   0.00028   0.00000  -0.00081  -0.00090
 186       14F-2        0.00000   0.00000   0.00000   0.00000   0.00000
 187       14F+3        0.00000   0.00000   0.00000   0.00000   0.00000
 188       14F-3        0.00012  -0.00004   0.00000   0.00049   0.00058
                          11        12        13        14        15
     Eigenvalues --     1.97415   1.97117   1.97006   1.96730   1.96693
   1 1   C  1S         -0.05548  -0.10230  -0.00001   0.00000   0.00000
   2        2S          0.15003   0.27590  -0.00004   0.00000   0.00000
   3        3S          0.03539   0.06789   0.00000   0.00000   0.00000
   4        4S          0.01904   0.14475  -0.00223   0.00000   0.00000
   5        5S         -0.02044   0.04367  -0.00118   0.00000   0.00000
   6        6PX         0.00000   0.00000   0.00000  -0.01594   0.10114
   7        6PY         0.00140   0.00075  -0.05186   0.00000   0.00000
   8        6PZ         0.09085   0.00954  -0.00053   0.00000   0.00000
   9        7PX         0.00000   0.00000   0.00000  -0.01923   0.12399
  10        7PY         0.00178   0.00100  -0.07642   0.00000   0.00000
  11        7PZ         0.11660  -0.00388  -0.00013   0.00000   0.00000
  12        8PX         0.00000   0.00000   0.00000  -0.00139   0.00510
  13        8PY        -0.00014   0.00082   0.05616   0.00000   0.00000
  14        8PZ        -0.05414   0.03678  -0.00332   0.00000   0.00000
  15        9PX         0.00000   0.00000   0.00000   0.00000  -0.00079
  16        9PY        -0.00009  -0.00009  -0.00045   0.00000   0.00000
  17        9PZ        -0.00741   0.01369  -0.00010   0.00000   0.00000
  18       10D 0       -0.00828   0.01912   0.00041   0.00000   0.00000
  19       10D+1        0.00000   0.00000   0.00000   0.00240  -0.01484
  20       10D-1       -0.00010  -0.00039  -0.00908   0.00000   0.00000
  21       10D+2       -0.00987   0.00281   0.00023   0.00000   0.00000
  22       10D-2        0.00000   0.00000   0.00000  -0.02005  -0.00248
  23       11D 0       -0.01822   0.03204   0.00006   0.00000   0.00000
  24       11D+1        0.00000   0.00000   0.00000   0.00378  -0.02458
  25       11D-1       -0.00062  -0.00040  -0.00676   0.00000   0.00000
  26       11D+2       -0.01790   0.00204   0.00030   0.00000   0.00000
  27       11D-2        0.00000   0.00000   0.00000  -0.03236  -0.00396
  28       12D 0       -0.00461  -0.00376  -0.00106   0.00000   0.00000
  29       12D+1        0.00000   0.00000   0.00000  -0.00038  -0.00239
  30       12D-1       -0.00007  -0.00027   0.01130   0.00000   0.00000
  31       12D+2        0.00057  -0.00018  -0.00007   0.00000   0.00000
  32       12D-2        0.00000   0.00000   0.00000   0.00877   0.00102
  33       13F 0        0.00838   0.00171  -0.00013   0.00000   0.00000
  34       13F+1        0.00000   0.00000   0.00000  -0.00067   0.00410
  35       13F-1       -0.00010   0.00005   0.00929   0.00000   0.00000
  36       13F+2        0.00157   0.00283  -0.00012   0.00000   0.00000
  37       13F-2        0.00000   0.00000   0.00000   0.00869   0.00110
  38       13F+3        0.00000   0.00000   0.00000   0.00108  -0.00774
  39       13F-3       -0.00006   0.00001   0.00520   0.00000   0.00000
  40       14F 0        0.00657   0.00138  -0.00030   0.00000   0.00000
  41       14F+1        0.00000   0.00000   0.00000   0.00002  -0.00151
  42       14F-1       -0.00098   0.00045   0.01953   0.00000   0.00000
  43       14F+2        0.00688   0.00240   0.00004   0.00000   0.00000
  44       14F-2        0.00000   0.00000   0.00000   0.00944   0.00086
  45       14F+3        0.00000   0.00000   0.00000   0.00027  -0.00060
  46       14F-3       -0.00025   0.00004   0.00021   0.00000   0.00000
  47 2   S  1S          0.03175   0.04384   0.00028   0.00000   0.00000
  48        2S         -0.12375  -0.16819  -0.00093   0.00000   0.00000
  49        3S          0.24979   0.35445   0.00253   0.00000   0.00000
  50        4S          0.03192   0.04484   0.00031   0.00000   0.00000
  51        5S          0.17437   0.15546   0.00526   0.00000   0.00000
  52        6S          0.02756  -0.05489   0.00121   0.00000   0.00000
  53        7PX         0.00000   0.00000   0.00000  -0.00161   0.01241
  54        7PY        -0.00009  -0.00058   0.00322   0.00000   0.00000
  55        7PZ         0.02895   0.03484   0.00015   0.00000   0.00000
  56        8PX         0.00000   0.00000   0.00000   0.00413  -0.03108
  57        8PY         0.00048   0.00082  -0.01961   0.00000   0.00000
  58        8PZ        -0.03337  -0.04122  -0.00094   0.00000   0.00000
  59        9PX         0.00000   0.00000   0.00000   0.00182  -0.01404
  60        9PY        -0.00008   0.00054  -0.00149   0.00000   0.00000
  61        9PZ        -0.01840  -0.02384  -0.00011   0.00000   0.00000
  62       10PX         0.00000   0.00000   0.00000   0.00441  -0.02689
  63       10PY         0.00071   0.00020  -0.02350   0.00000   0.00000
  64       10PZ        -0.01467   0.03258  -0.00155   0.00000   0.00000
  65       11PX         0.00000   0.00000   0.00000   0.00064  -0.00407
  66       11PY         0.00011  -0.00004   0.00445   0.00000   0.00000
  67       11PZ        -0.00069   0.00948  -0.00010   0.00000   0.00000
  68       12D 0        0.00551   0.00945   0.00021   0.00000   0.00000
  69       12D+1        0.00000   0.00000   0.00000   0.00097  -0.00816
  70       12D-1       -0.00067   0.00005   0.02003   0.00000   0.00000
  71       12D+2       -0.00241   0.00192   0.00010   0.00000   0.00000
  72       12D-2        0.00000   0.00000   0.00000  -0.00417  -0.00044
  73       13D 0        0.01658   0.01835   0.00021   0.00000   0.00000
  74       13D+1        0.00000   0.00000   0.00000   0.00066  -0.00463
  75       13D-1       -0.00020  -0.00029   0.00792   0.00000   0.00000
  76       13D+2       -0.00082   0.00161   0.00000   0.00000   0.00000
  77       13D-2        0.00000   0.00000   0.00000  -0.00127  -0.00019
  78       14D 0       -0.00203  -0.01043   0.00016   0.00000   0.00000
  79       14D+1        0.00000   0.00000   0.00000  -0.00002  -0.00276
  80       14D-1       -0.00032   0.00013   0.01339   0.00000   0.00000
  81       14D+2       -0.00075  -0.00064   0.00011   0.00000   0.00000
  82       14D-2        0.00000   0.00000   0.00000  -0.00471  -0.00055
  83       15F 0       -0.00516  -0.00699  -0.00011   0.00000   0.00000
  84       15F+1        0.00000   0.00000   0.00000  -0.00023   0.00182
  85       15F-1        0.00016   0.00010  -0.00513   0.00000   0.00000
  86       15F+2        0.00074  -0.00062  -0.00004   0.00000   0.00000
  87       15F-2        0.00000   0.00000   0.00000   0.00134   0.00017
  88       15F+3        0.00000   0.00000   0.00000   0.00005  -0.00035
  89       15F-3        0.00000   0.00000   0.00027   0.00000   0.00000
  90       16F 0        0.00681   0.00093   0.00009   0.00000   0.00000
  91       16F+1        0.00000   0.00000   0.00000  -0.00020   0.00200
  92       16F-1        0.00017  -0.00011  -0.00190   0.00000   0.00000
  93       16F+2       -0.00042  -0.00052  -0.00009   0.00000   0.00000
  94       16F-2        0.00000   0.00000   0.00000   0.00331   0.00029
  95       16F+3        0.00000   0.00000   0.00000  -0.00004   0.00032
  96       16F-3        0.00000   0.00001  -0.00038   0.00000   0.00000
  97 3   F  1S         -0.00018   0.02763   0.01586   0.00000   0.00000
  98        2S         -0.00108  -0.07767  -0.04133   0.00000   0.00000
  99        3S         -0.00003  -0.02630  -0.01381   0.00000   0.00000
 100        4S         -0.01393  -0.09984  -0.03910   0.00000   0.00000
 101        5S         -0.01532  -0.01799   0.00577   0.00000   0.00000
 102        6PX         0.00000   0.00000   0.00000   0.23908   0.28714
 103        6PY        -0.10754   0.15255  -0.15465   0.00000   0.00000
 104        6PZ         0.17913  -0.06835   0.23199   0.00000   0.00000
 105        7PX         0.00000   0.00000   0.00000   0.29081   0.35008
 106        7PY        -0.13125   0.18280  -0.18770   0.00000   0.00000
 107        7PZ         0.21575  -0.08432   0.28013   0.00000   0.00000
 108        8PX         0.00000   0.00000   0.00000   0.20467   0.24309
 109        8PY        -0.08966   0.10106  -0.14874   0.00000   0.00000
 110        8PZ         0.14801  -0.07800   0.18976   0.00000   0.00000
 111        9PX         0.00000   0.00000   0.00000   0.02497   0.02106
 112        9PY        -0.01239   0.00578  -0.01287   0.00000   0.00000
 113        9PZ         0.01074  -0.01446   0.02323   0.00000   0.00000
 114       10D 0        0.00233  -0.00122   0.00226   0.00000   0.00000
 115       10D+1        0.00000   0.00000   0.00000   0.00142   0.00201
 116       10D-1        0.00142   0.00150   0.00120   0.00000   0.00000
 117       10D+2        0.00129  -0.00231   0.00074   0.00000   0.00000
 118       10D-2        0.00000   0.00000   0.00000   0.00166   0.00320
 119       11D 0        0.00834  -0.00503   0.00840   0.00000   0.00000
 120       11D+1        0.00000   0.00000   0.00000   0.00584   0.00856
 121       11D-1        0.00382   0.00321   0.00423   0.00000   0.00000
 122       11D+2        0.00490  -0.00722   0.00342   0.00000   0.00000
 123       11D-2        0.00000   0.00000   0.00000   0.00773   0.01324
 124       12D 0        0.00594  -0.00336   0.00731   0.00000   0.00000
 125       12D+1        0.00000   0.00000   0.00000   0.00414   0.00500
 126       12D-1        0.00368  -0.00297  -0.00160   0.00000   0.00000
 127       12D+2       -0.00001  -0.00027   0.00895   0.00000   0.00000
 128       12D-2        0.00000   0.00000   0.00000   0.00474   0.00901
 129       13F 0        0.00036  -0.00077   0.00058   0.00000   0.00000
 130       13F+1        0.00000   0.00000   0.00000   0.00022   0.00031
 131       13F-1        0.00164  -0.00045   0.00171   0.00000   0.00000
 132       13F+2       -0.00001  -0.00096  -0.00002   0.00000   0.00000
 133       13F-2        0.00000   0.00000   0.00000   0.00123   0.00180
 134       13F+3        0.00000   0.00000   0.00000  -0.00062  -0.00159
 135       13F-3        0.00074  -0.00086   0.00030   0.00000   0.00000
 136       14F 0        0.00189  -0.00110   0.00066   0.00000   0.00000
 137       14F+1        0.00000   0.00000   0.00000   0.00065   0.00037
 138       14F-1        0.00226  -0.00161   0.00295   0.00000   0.00000
 139       14F+2        0.00030  -0.00087  -0.00024   0.00000   0.00000
 140       14F-2        0.00000   0.00000   0.00000   0.00225   0.00332
 141       14F+3        0.00000   0.00000   0.00000  -0.00229  -0.00249
 142       14F-3        0.00043  -0.00125   0.00155   0.00000   0.00000
 143 4   F  1S          0.00018   0.02732  -0.01560   0.00000   0.00000
 144        2S         -0.00216  -0.07728   0.04081   0.00000   0.00000
 145        3S         -0.00041  -0.02629   0.01368   0.00000   0.00000
 146        4S         -0.01552  -0.10307   0.03944   0.00000   0.00000
 147        5S         -0.01630  -0.01996  -0.00758   0.00000   0.00000
 148        6PX         0.00000   0.00000   0.00000  -0.30754   0.21139
 149        6PY         0.11042  -0.15878  -0.15375   0.00000   0.00000
 150        6PZ         0.18152  -0.06477  -0.22884   0.00000   0.00000
 151        7PX         0.00000   0.00000   0.00000  -0.37462   0.25809
 152        7PY         0.13484  -0.19035  -0.18682   0.00000   0.00000
 153        7PZ         0.21867  -0.08021  -0.27646   0.00000   0.00000
 154        8PX         0.00000   0.00000   0.00000  -0.26027   0.17628
 155        8PY         0.09084  -0.10411  -0.14752   0.00000   0.00000
 156        8PZ         0.14727  -0.07546  -0.18507   0.00000   0.00000
 157        9PX         0.00000   0.00000   0.00000  -0.02912   0.01293
 158        9PY         0.01261  -0.00550  -0.01210   0.00000   0.00000
 159        9PZ         0.01019  -0.01439  -0.02333   0.00000   0.00000
 160       10D 0        0.00248  -0.00124  -0.00236   0.00000   0.00000
 161       10D+1        0.00000   0.00000   0.00000  -0.00203   0.00165
 162       10D-1       -0.00145  -0.00167   0.00119   0.00000   0.00000
 163       10D+2        0.00136  -0.00243  -0.00076   0.00000   0.00000
 164       10D-2        0.00000   0.00000   0.00000   0.00256  -0.00272
 165       11D 0        0.00875  -0.00519  -0.00871   0.00000   0.00000
 166       11D+1        0.00000   0.00000   0.00000  -0.00837   0.00693
 167       11D-1       -0.00385  -0.00373   0.00416   0.00000   0.00000
 168       11D+2        0.00503  -0.00760  -0.00353   0.00000   0.00000
 169       11D-2        0.00000   0.00000   0.00000   0.01129  -0.01087
 170       12D 0        0.00531  -0.00312  -0.00697   0.00000   0.00000
 171       12D+1        0.00000   0.00000   0.00000  -0.00512   0.00351
 172       12D-1       -0.00327   0.00284  -0.00214   0.00000   0.00000
 173       12D+2       -0.00033  -0.00016  -0.00877   0.00000   0.00000
 174       12D-2        0.00000   0.00000   0.00000   0.00644  -0.00678
 175       13F 0        0.00043  -0.00083  -0.00064   0.00000   0.00000
 176       13F+1        0.00000   0.00000   0.00000  -0.00034   0.00027
 177       13F-1       -0.00172   0.00043   0.00176   0.00000   0.00000
 178       13F+2        0.00001  -0.00104   0.00000   0.00000   0.00000
 179       13F-2        0.00000   0.00000   0.00000   0.00175  -0.00148
 180       13F+3        0.00000   0.00000   0.00000   0.00108  -0.00140
 181       13F-3       -0.00076   0.00090   0.00032   0.00000   0.00000
 182       14F 0        0.00193  -0.00117  -0.00069   0.00000   0.00000
 183       14F+1        0.00000   0.00000   0.00000  -0.00077   0.00023
 184       14F-1       -0.00219   0.00152   0.00292   0.00000   0.00000
 185       14F+2        0.00030  -0.00098   0.00019   0.00000   0.00000
 186       14F-2        0.00000   0.00000   0.00000   0.00306  -0.00253
 187       14F+3        0.00000   0.00000   0.00000   0.00277  -0.00169
 188       14F-3       -0.00038   0.00128   0.00151   0.00000   0.00000
                          16        17        18        19        20
     Eigenvalues --     1.96292   1.95895   1.94248   1.93934   1.91706
   1 1   C  1S         -0.08144   0.00896   0.07738   0.00121   0.00000
   2        2S          0.21322  -0.02450  -0.23041  -0.00353   0.00000
   3        3S          0.05567  -0.00603  -0.05924  -0.00111   0.00000
   4        4S          0.09519  -0.01257  -0.16598  -0.00043   0.00000
   5        5S         -0.02000   0.00162  -0.02284   0.00029   0.00000
   6        6PX         0.00000   0.00000   0.00000   0.00000   0.18186
   7        6PY         0.01881   0.19127  -0.00124   0.03390   0.00000
   8        6PZ        -0.13648   0.01014  -0.18046  -0.00189   0.00000
   9        7PX         0.00000   0.00000   0.00000   0.00000   0.25477
  10        7PY         0.02217   0.23259  -0.00186   0.04834   0.00000
  11        7PZ        -0.17054   0.01375  -0.22299  -0.00290   0.00000
  12        8PX         0.00000   0.00000   0.00000   0.00000   0.13719
  13        8PY         0.00414   0.05657  -0.00213   0.04955   0.00000
  14        8PZ        -0.01446   0.00120  -0.06787   0.00005   0.00000
  15        9PX         0.00000   0.00000   0.00000   0.00000   0.02111
  16        9PY        -0.00028   0.00001   0.00000  -0.00355   0.00000
  17        9PZ        -0.00549   0.00052  -0.00566  -0.00022   0.00000
  18       10D 0       -0.00720   0.00075  -0.01003  -0.00007   0.00000
  19       10D+1        0.00000   0.00000   0.00000   0.00000   0.01560
  20       10D-1       -0.00275  -0.02637  -0.00004   0.02079   0.00000
  21       10D+2       -0.01478   0.00138  -0.00772  -0.00010   0.00000
  22       10D-2        0.00000   0.00000   0.00000   0.00000  -0.00013
  23       11D 0       -0.01862   0.00237  -0.01803  -0.00013   0.00000
  24       11D+1        0.00000   0.00000   0.00000   0.00000   0.04768
  25       11D-1       -0.00578  -0.05754  -0.00029   0.05102   0.00000
  26       11D+2       -0.03567   0.00377  -0.01945  -0.00053   0.00000
  27       11D-2        0.00000   0.00000   0.00000   0.00000  -0.00046
  28       12D 0        0.00254  -0.00014  -0.00601   0.00045   0.00000
  29       12D+1        0.00000   0.00000   0.00000   0.00000   0.01867
  30       12D-1       -0.00062  -0.00374   0.00093  -0.02353   0.00000
  31       12D+2        0.00429  -0.00030  -0.00247  -0.00006   0.00000
  32       12D-2        0.00000   0.00000   0.00000   0.00000   0.00000
  33       13F 0        0.00207  -0.00023  -0.00394   0.00000   0.00000
  34       13F+1        0.00000   0.00000   0.00000   0.00000   0.00670
  35       13F-1        0.00084   0.00778  -0.00007   0.00703   0.00000
  36       13F+2        0.00537  -0.00047   0.00175   0.00012   0.00000
  37       13F-2        0.00000   0.00000   0.00000   0.00000  -0.00008
  38       13F+3        0.00000   0.00000   0.00000   0.00000   0.00043
  39       13F-3       -0.00020  -0.00254  -0.00002   0.00205   0.00000
  40       14F 0        0.00994  -0.00147   0.00131   0.00022   0.00000
  41       14F+1        0.00000   0.00000   0.00000   0.00000   0.00053
  42       14F-1        0.00160   0.01870   0.00043  -0.00018   0.00000
  43       14F+2        0.01072  -0.00143   0.00040   0.00009   0.00000
  44       14F-2        0.00000   0.00000   0.00000   0.00000   0.00025
  45       14F+3        0.00000   0.00000   0.00000   0.00000   0.00397
  46       14F-3       -0.00018  -0.00213   0.00023   0.00044   0.00000
  47 2   S  1S         -0.03629   0.00334   0.02961   0.00022   0.00000
  48        2S          0.13841  -0.01269  -0.11361  -0.00092   0.00000
  49        3S         -0.29945   0.02805   0.26145   0.00187   0.00000
  50        4S         -0.04118   0.00406   0.03772   0.00021   0.00000
  51        5S         -0.18764   0.01887   0.32659   0.00210   0.00000
  52        6S          0.01542  -0.00084   0.05490   0.00095   0.00000
  53        7PX         0.00000   0.00000   0.00000   0.00000  -0.18868
  54        7PY        -0.00078  -0.01418   0.00404  -0.21579   0.00000
  55        7PZ        -0.00961  -0.00101  -0.17377  -0.00382   0.00000
  56        8PX         0.00000   0.00000   0.00000   0.00000   0.43252
  57        8PY         0.00154   0.02864  -0.00957   0.52203   0.00000
  58        8PZ         0.00618   0.00326   0.35942   0.00847   0.00000
  59        9PX         0.00000   0.00000   0.00000   0.00000   0.17761
  60        9PY         0.00086   0.01454  -0.00401   0.21969   0.00000
  61        9PZ         0.00494   0.00115   0.16455   0.00376   0.00000
  62       10PX         0.00000   0.00000   0.00000   0.00000   0.23797
  63       10PY         0.00048   0.00408  -0.00544   0.36953   0.00000
  64       10PZ         0.00197   0.00049   0.09579   0.00400   0.00000
  65       11PX         0.00000   0.00000   0.00000   0.00000   0.00060
  66       11PY         0.00027   0.00054  -0.00024   0.02711   0.00000
  67       11PZ        -0.00298   0.00011  -0.00447   0.00012   0.00000
  68       12D 0       -0.00054  -0.00068  -0.02725  -0.00043   0.00000
  69       12D+1        0.00000   0.00000   0.00000   0.00000  -0.03390
  70       12D-1       -0.00042  -0.00518   0.00082  -0.01318   0.00000
  71       12D+2       -0.00149   0.00018  -0.00083  -0.00024   0.00000
  72       12D-2        0.00000   0.00000   0.00000   0.00000   0.00018
  73       13D 0       -0.00637  -0.00023  -0.04843  -0.00085   0.00000
  74       13D+1        0.00000   0.00000   0.00000   0.00000  -0.03415
  75       13D-1       -0.00053  -0.00872   0.00095  -0.01487   0.00000
  76       13D+2       -0.00098   0.00002  -0.00095  -0.00017   0.00000
  77       13D-2        0.00000   0.00000   0.00000   0.00000   0.00024
  78       14D 0        0.00138  -0.00008   0.00514  -0.00013   0.00000
  79       14D+1        0.00000   0.00000   0.00000   0.00000  -0.00473
  80       14D-1       -0.00014   0.00194   0.00024  -0.01767   0.00000
  81       14D+2       -0.00081   0.00004  -0.00193  -0.00038   0.00000
  82       14D-2        0.00000   0.00000   0.00000   0.00000   0.00010
  83       15F 0        0.00397  -0.00004   0.01571   0.00033   0.00000
  84       15F+1        0.00000   0.00000   0.00000   0.00000   0.01205
  85       15F-1        0.00014   0.00316  -0.00047   0.00817   0.00000
  86       15F+2        0.00019   0.00002   0.00214   0.00014   0.00000
  87       15F-2        0.00000   0.00000   0.00000   0.00000  -0.00013
  88       15F+3        0.00000   0.00000   0.00000   0.00000   0.00241
  89       15F-3        0.00000   0.00010  -0.00006   0.00262   0.00000
  90       16F 0       -0.00185   0.00015  -0.00538  -0.00003   0.00000
  91       16F+1        0.00000   0.00000   0.00000   0.00000  -0.00064
  92       16F-1        0.00011  -0.00062   0.00002   0.00225   0.00000
  93       16F+2        0.00068  -0.00009   0.00079   0.00016   0.00000
  94       16F-2        0.00000   0.00000   0.00000   0.00000   0.00001
  95       16F+3        0.00000   0.00000   0.00000   0.00000   0.00187
  96       16F-3        0.00010   0.00140  -0.00006   0.00237   0.00000
  97 3   F  1S          0.00719   0.00768  -0.01330  -0.01602   0.00000
  98        2S         -0.02597  -0.01017   0.03678   0.04369   0.00000
  99        3S         -0.01151   0.00143   0.01060   0.01371   0.00000
 100        4S         -0.08924   0.08773   0.01961   0.03742   0.00000
 101        5S         -0.01749   0.03751  -0.00729   0.05486   0.00000
 102        6PX         0.00000   0.00000   0.00000   0.00000  -0.05273
 103        6PY         0.09532  -0.22968   0.03040   0.02088   0.00000
 104        6PZ         0.15226  -0.11958   0.06361   0.05423   0.00000
 105        7PX         0.00000   0.00000   0.00000   0.00000  -0.06373
 106        7PY         0.11517  -0.27871   0.03861   0.02751   0.00000
 107        7PZ         0.18416  -0.14556   0.07887   0.06714   0.00000
 108        8PX         0.00000   0.00000   0.00000   0.00000  -0.06012
 109        8PY         0.04536  -0.14980   0.01859   0.00969   0.00000
 110        8PZ         0.10114  -0.07474   0.05249   0.05415   0.00000
 111        9PX         0.00000   0.00000   0.00000   0.00000  -0.02540
 112        9PY        -0.00505  -0.00832   0.00003   0.01508   0.00000
 113        9PZ         0.00875   0.00356   0.01053   0.01859   0.00000
 114       10D 0       -0.00006  -0.00030  -0.00065  -0.00039   0.00000
 115       10D+1        0.00000   0.00000   0.00000   0.00000   0.00106
 116       10D-1        0.00366  -0.00513   0.00051   0.00043   0.00000
 117       10D+2       -0.00250   0.00317  -0.00097  -0.00023   0.00000
 118       10D-2        0.00000   0.00000   0.00000   0.00000   0.00109
 119       11D 0       -0.00049  -0.00186  -0.00221  -0.00229   0.00000
 120       11D+1        0.00000   0.00000   0.00000   0.00000   0.00383
 121       11D-1        0.01225  -0.01770   0.00309   0.00207   0.00000
 122       11D+2       -0.00821   0.01044  -0.00357  -0.00208   0.00000
 123       11D-2        0.00000   0.00000   0.00000   0.00000   0.00304
 124       12D 0       -0.00204  -0.00463  -0.00356  -0.00050   0.00000
 125       12D+1        0.00000   0.00000   0.00000   0.00000   0.00207
 126       12D-1       -0.00023  -0.00391  -0.00239  -0.00179   0.00000
 127       12D+2       -0.00172   0.00144  -0.00040   0.00233   0.00000
 128       12D-2        0.00000   0.00000   0.00000   0.00000   0.00363
 129       13F 0       -0.00099   0.00131  -0.00036  -0.00028   0.00000
 130       13F+1        0.00000   0.00000   0.00000   0.00000   0.00023
 131       13F-1        0.00093  -0.00123  -0.00006   0.00010   0.00000
 132       13F+2       -0.00168   0.00242  -0.00049  -0.00029   0.00000
 133       13F-2        0.00000   0.00000   0.00000   0.00000   0.00053
 134       13F+3        0.00000   0.00000   0.00000   0.00000  -0.00036
 135       13F-3       -0.00095   0.00106  -0.00056  -0.00011   0.00000
 136       14F 0       -0.00144   0.00138  -0.00134  -0.00093   0.00000
 137       14F+1        0.00000   0.00000   0.00000   0.00000   0.00051
 138       14F-1        0.00060  -0.00317  -0.00002  -0.00066   0.00000
 139       14F+2       -0.00275   0.00371  -0.00138  -0.00033   0.00000
 140       14F-2        0.00000   0.00000   0.00000   0.00000   0.00056
 141       14F+3        0.00000   0.00000   0.00000   0.00000  -0.00021
 142       14F-3       -0.00140   0.00196  -0.00030  -0.00054   0.00000
 143 4   F  1S          0.00564  -0.00967  -0.01351   0.01533   0.00000
 144        2S         -0.02403   0.01696   0.03760  -0.04186   0.00000
 145        3S         -0.01181   0.00146   0.01091  -0.01316   0.00000
 146        4S         -0.10809  -0.06934   0.02070  -0.03642   0.00000
 147        5S         -0.02506  -0.03326  -0.00382  -0.05507   0.00000
 148        6PX         0.00000   0.00000   0.00000   0.00000  -0.05443
 149        6PY        -0.13733  -0.20438  -0.02551   0.01867   0.00000
 150        6PZ         0.17403   0.09116   0.06410  -0.05104   0.00000
 151        7PX         0.00000   0.00000   0.00000   0.00000  -0.06591
 152        7PY        -0.16604  -0.24798  -0.03266   0.02492   0.00000
 153        7PZ         0.21064   0.11115   0.07960  -0.06332   0.00000
 154        8PX         0.00000   0.00000   0.00000   0.00000  -0.06160
 155        8PY        -0.07124  -0.13436  -0.01279   0.00779   0.00000
 156        8PZ         0.11243   0.05543   0.05371  -0.05139   0.00000
 157        9PX         0.00000   0.00000   0.00000   0.00000  -0.02594
 158        9PY         0.00418  -0.00899  -0.00008   0.01461   0.00000
 159        9PZ         0.00771  -0.00512   0.01110  -0.01730   0.00000
 160       10D 0        0.00006   0.00042  -0.00069   0.00037   0.00000
 161       10D+1        0.00000   0.00000   0.00000   0.00000   0.00111
 162       10D-1       -0.00475  -0.00447  -0.00050   0.00043   0.00000
 163       10D+2       -0.00314  -0.00262  -0.00098   0.00020   0.00000
 164       10D-2        0.00000   0.00000   0.00000   0.00000  -0.00114
 165       11D 0        0.00010   0.00235  -0.00221   0.00225   0.00000
 166       11D+1        0.00000   0.00000   0.00000   0.00000   0.00391
 167       11D-1       -0.01589  -0.01531  -0.00305   0.00203   0.00000
 168       11D+2       -0.01022  -0.00852  -0.00351   0.00202   0.00000
 169       11D-2        0.00000   0.00000   0.00000   0.00000  -0.00304
 170       12D 0       -0.00134   0.00517  -0.00323   0.00043   0.00000
 171       12D+1        0.00000   0.00000   0.00000   0.00000   0.00220
 172       12D-1       -0.00013  -0.00364   0.00261  -0.00166   0.00000
 173       12D+2       -0.00183  -0.00068   0.00019  -0.00226   0.00000
 174       12D-2        0.00000   0.00000   0.00000   0.00000  -0.00389
 175       13F 0       -0.00123  -0.00105  -0.00036   0.00027   0.00000
 176       13F+1        0.00000   0.00000   0.00000   0.00000   0.00025
 177       13F-1       -0.00122  -0.00111   0.00008   0.00010   0.00000
 178       13F+2       -0.00216  -0.00205  -0.00048   0.00027   0.00000
 179       13F-2        0.00000   0.00000   0.00000   0.00000  -0.00055
 180       13F+3        0.00000   0.00000   0.00000   0.00000  -0.00037
 181       13F-3        0.00116   0.00082   0.00055  -0.00009   0.00000
 182       14F 0       -0.00167  -0.00103  -0.00133   0.00092   0.00000
 183       14F+1        0.00000   0.00000   0.00000   0.00000   0.00052
 184       14F-1       -0.00128  -0.00310  -0.00002  -0.00067   0.00000
 185       14F+2       -0.00343  -0.00306  -0.00132   0.00030   0.00000
 186       14F-2        0.00000   0.00000   0.00000   0.00000  -0.00056
 187       14F+3        0.00000   0.00000   0.00000   0.00000  -0.00016
 188       14F-3        0.00169   0.00161   0.00021  -0.00052   0.00000
                          21        22        23        24        25
     Eigenvalues --     0.07401   0.04125   0.03928   0.03210   0.01913
   1 1   C  1S          0.00000   0.17396  -0.02869   0.03577   0.03247
   2        2S          0.00000  -0.59218   0.10154  -0.09805  -0.09451
   3        3S          0.00000  -0.21023   0.03800   0.00899  -0.04064
   4        4S          0.00000  -0.63131   0.12498   0.03983   0.08128
   5        5S          0.00000  -0.11984   0.02522   0.02875   0.09768
   6        6PX         0.31817   0.00000   0.00000   0.00000   0.00000
   7        6PY         0.00000   0.05434   0.29911  -0.01582  -0.00383
   8        6PZ         0.00000  -0.04373   0.02929   0.37095   0.05463
   9        7PX         0.44552   0.00000   0.00000   0.00000   0.00000
  10        7PY         0.00000   0.10086   0.57619  -0.03498  -0.00648
  11        7PZ         0.00000  -0.04372   0.04108   0.66768   0.05785
  12        8PX         0.15485   0.00000   0.00000   0.00000   0.00000
  13        8PY         0.00000   0.02057   0.10322  -0.01017  -0.00670
  14        8PZ         0.00000  -0.21134   0.04936   0.27417   0.30426
  15        9PX         0.00800   0.00000   0.00000   0.00000   0.00000
  16        9PY         0.00000   0.00307   0.01542  -0.00037   0.00058
  17        9PZ         0.00000  -0.00759   0.00153  -0.00503   0.03363
  18       10D 0        0.00000  -0.00123   0.00089   0.00945   0.05680
  19       10D+1        0.01627   0.00000   0.00000   0.00000   0.00000
  20       10D-1        0.00000   0.00465   0.02972  -0.00252   0.00030
  21       10D+2        0.00000  -0.00915   0.00194   0.00335   0.04694
  22       10D-2       -0.00014   0.00000   0.00000   0.00000   0.00000
  23       11D 0        0.00000  -0.04190   0.01644   0.07329   0.15441
  24       11D+1        0.07197   0.00000   0.00000   0.00000   0.00000
  25       11D-1        0.00000  -0.01076  -0.06160   0.00161   0.00213
  26       11D+2        0.00000   0.02895   0.00024   0.06684   0.14333
  27       11D-2        0.00000   0.00000   0.00000   0.00000   0.00000
  28       12D 0        0.00000  -0.05219   0.01086   0.02356   0.01597
  29       12D+1        0.02797   0.00000   0.00000   0.00000   0.00000
  30       12D-1        0.00000  -0.00252  -0.02991   0.00492   0.00164
  31       12D+2        0.00000   0.00687  -0.00128   0.02071   0.02383
  32       12D-2       -0.00011   0.00000   0.00000   0.00000   0.00000
  33       13F 0        0.00000  -0.00754   0.00204   0.01364  -0.00185
  34       13F+1        0.01186   0.00000   0.00000   0.00000   0.00000
  35       13F-1        0.00000   0.00548   0.03272  -0.00288  -0.00079
  36       13F+2        0.00000  -0.02189   0.00311  -0.02141   0.01243
  37       13F-2       -0.00023   0.00000   0.00000   0.00000   0.00000
  38       13F+3       -0.00129   0.00000   0.00000   0.00000   0.00000
  39       13F-3        0.00000  -0.00201  -0.01148   0.00053  -0.00016
  40       14F 0        0.00000  -0.02523   0.00365  -0.00934  -0.02520
  41       14F+1        0.02838   0.00000   0.00000   0.00000   0.00000
  42       14F-1        0.00000   0.01830   0.11385  -0.00961   0.00037
  43       14F+2        0.00000  -0.01534   0.00068  -0.04157  -0.02692
  44       14F-2       -0.00086   0.00000   0.00000   0.00000   0.00000
  45       14F+3        0.00935   0.00000   0.00000   0.00000   0.00000
  46       14F-3        0.00000   0.00429   0.02772  -0.00198   0.00068
  47 2   S  1S          0.00000   0.02029  -0.00428  -0.01265   0.01055
  48        2S          0.00000  -0.05504   0.01126   0.02858  -0.05259
  49        3S          0.00000   0.21280  -0.04527  -0.14073   0.09126
  50        4S          0.00000   0.00882   0.00012   0.02713   0.08160
  51        5S          0.00000   0.50599  -0.11952  -0.52238  -0.38405
  52        6S          0.00000   0.15268  -0.03525  -0.12852  -0.17822
  53        7PX         0.18325   0.00000   0.00000   0.00000   0.00000
  54        7PY         0.00000   0.01685   0.10284  -0.00530  -0.00045
  55        7PZ         0.00000   0.17883  -0.03632  -0.09347   0.03037
  56        8PX        -0.48796   0.00000   0.00000   0.00000   0.00000
  57        8PY         0.00000  -0.04530  -0.28948   0.01596   0.00007
  58        8PZ         0.00000  -0.59126   0.12950   0.47336   0.02641
  59        9PX        -0.20100   0.00000   0.00000   0.00000   0.00000
  60        9PY         0.00000  -0.02306  -0.13929   0.00770   0.00077
  61        9PZ         0.00000  -0.19481   0.03878   0.08796  -0.04461
  62       10PX        -0.12687   0.00000   0.00000   0.00000   0.00000
  63       10PY         0.00000   0.00609   0.03795  -0.00818  -0.00475
  64       10PZ         0.00000  -0.31077   0.07452   0.35069   0.19679
  65       11PX        -0.00355   0.00000   0.00000   0.00000   0.00000
  66       11PY         0.00000  -0.00052  -0.00205  -0.00043  -0.00121
  67       11PZ         0.00000  -0.02145   0.00505   0.02365   0.02216
  68       12D 0        0.00000  -0.07284   0.01300   0.05090   0.11384
  69       12D+1       -0.05891   0.00000   0.00000   0.00000   0.00000
  70       12D-1        0.00000  -0.02966  -0.18421   0.01221  -0.00436
  71       12D+2        0.00000  -0.04464   0.00879   0.02511   0.40633
  72       12D-2        0.00044   0.00000   0.00000   0.00000   0.00000
  73       13D 0        0.00000  -0.09609   0.02215   0.13885   0.10915
  74       13D+1       -0.07006   0.00000   0.00000   0.00000   0.00000
  75       13D-1        0.00000  -0.02413  -0.15469   0.00998  -0.00421
  76       13D+2        0.00000  -0.03139   0.00568   0.01427   0.28881
  77       13D-2        0.00036   0.00000   0.00000   0.00000   0.00000
  78       14D 0        0.00000   0.03794  -0.01099  -0.06975  -0.03286
  79       14D+1        0.01260   0.00000   0.00000   0.00000   0.00000
  80       14D-1        0.00000  -0.00528  -0.03309   0.00392   0.00116
  81       14D+2        0.00000  -0.00847   0.00178   0.00351   0.02620
  82       14D-2       -0.00007   0.00000   0.00000   0.00000   0.00000
  83       15F 0        0.00000   0.01773  -0.00392  -0.02277  -0.02378
  84       15F+1        0.01921   0.00000   0.00000   0.00000   0.00000
  85       15F-1        0.00000   0.00505   0.03121  -0.00133   0.00073
  86       15F+2        0.00000   0.00274  -0.00034  -0.00279  -0.03409
  87       15F-2       -0.00020   0.00000   0.00000   0.00000   0.00000
  88       15F+3       -0.00369   0.00000   0.00000   0.00000   0.00000
  89       15F-3        0.00000  -0.00032  -0.00159   0.00014   0.00024
  90       16F 0        0.00000   0.00639   0.00031   0.02718  -0.01164
  91       16F+1       -0.00605   0.00000   0.00000   0.00000   0.00000
  92       16F-1        0.00000   0.00119   0.00785  -0.00075  -0.00022
  93       16F+2        0.00000   0.00466  -0.00123  -0.00661  -0.02365
  94       16F-2       -0.00009   0.00000   0.00000   0.00000   0.00000
  95       16F+3       -0.00304   0.00000   0.00000   0.00000   0.00000
[...]
  93       16F+2        0.04103   0.00641   0.04788   0.00000  -0.00023
  94       16F-2        0.00000   0.00000   0.00000   0.00368   0.00000
  95       16F+3        0.00000   0.00000   0.00000  -0.04405   0.00000
  96       16F-3        0.01275  -0.07172   0.00901   0.00000   0.00318
  97 3   F  1S          0.12223  -0.00135  -0.04818   0.00000  -0.09031
  98        2S          0.51964  -0.04632  -0.20220   0.00000  -0.42577
  99        3S         -0.12974  -0.04103   0.05790   0.00000   0.05055
 100        4S         -4.08367   0.72144   0.75310   0.00000   3.34994
 101        5S         -6.52940   1.89979   6.89124   0.00000  17.57814
 102        6PX         0.00000   0.00000   0.00000   0.01998   0.00000
 103        6PY         0.00183   0.01296   0.00334   0.00000   0.01383
 104        6PZ         0.01319   0.00686   0.00108   0.00000   0.00589
 105        7PX         0.00000   0.00000   0.00000  -0.07526   0.00000
 106        7PY        -0.06845  -0.07654  -0.03337   0.00000  -0.05811
 107        7PZ        -0.10111  -0.05055  -0.01240   0.00000  -0.01856
 108        8PX         0.00000   0.00000   0.00000   0.08228   0.00000
 109        8PY        -1.66402   0.94795   0.18414   0.00000   2.65201
 110        8PZ        -0.47993   1.16843  -0.14768   0.00000   0.89482
 111        9PX         0.00000   0.00000   0.00000  -1.15236   0.00000
 112        9PY        -0.44421  -1.52832   0.98892   0.00000   5.00104
 113        9PZ         1.22584   0.93813   4.58577   0.00000   1.72911
 114       10D 0        0.00775  -0.00743   0.00186   0.00000  -0.00275
 115       10D+1        0.00000   0.00000   0.00000  -0.01455   0.00000
 116       10D-1       -0.00447  -0.00192   0.02740   0.00000   0.00006
 117       10D+2       -0.03033   0.01934   0.00306   0.00000  -0.00396
 118       10D-2        0.00000   0.00000   0.00000  -0.00475   0.00000
 119       11D 0       -0.01210   0.02001  -0.00077   0.00000   0.00781
 120       11D+1        0.00000   0.00000   0.00000   0.05428   0.00000
 121       11D-1       -0.01334   0.02910  -0.09878   0.00000   0.03484
 122       11D+2        0.13156  -0.06598  -0.00449   0.00000  -0.01753
 123       11D-2        0.00000   0.00000   0.00000   0.01752   0.00000
 124       12D 0        0.37789   0.12769  -0.13525   0.00000  -0.43478
 125       12D+1        0.00000   0.00000   0.00000  -0.17867   0.00000
 126       12D-1       -0.53310   0.37238   0.06831   0.00000   0.45795
 127       12D+2       -0.19949  -0.10025   0.01120   0.00000  -0.52336
 128       12D-2        0.00000   0.00000   0.00000  -0.09593   0.00000
 129       13F 0       -0.03044   0.01818   0.00131   0.00000   0.01014
 130       13F+1        0.00000   0.00000   0.00000  -0.00973   0.00000
 131       13F-1        0.00674  -0.01256   0.02852   0.00000   0.00932
 132       13F+2       -0.02474   0.01249  -0.02373   0.00000   0.00319
 133       13F-2        0.00000   0.00000   0.00000   0.00878   0.00000
 134       13F+3        0.00000   0.00000   0.00000   0.00006   0.00000
 135       13F-3        0.03424   0.02046   0.00509   0.00000  -0.00600
 136       14F 0        0.11606  -0.05024   0.00101   0.00000  -0.06580
 137       14F+1        0.00000   0.00000   0.00000   0.01536   0.00000
 138       14F-1       -0.00451   0.05100  -0.06055   0.00000  -0.02446
 139       14F+2        0.08429  -0.06159   0.04762   0.00000  -0.05606
 140       14F-2        0.00000   0.00000   0.00000  -0.01006   0.00000
 141       14F+3        0.00000   0.00000   0.00000  -0.00032   0.00000
 142       14F-3       -0.08416  -0.05885  -0.01165   0.00000  -0.02123
 143 4   F  1S          0.05310  -0.00772  -0.04657   0.00000   0.08893
 144        2S          0.23946   0.00811  -0.20926   0.00000   0.41484
 145        3S         -0.03874   0.05166   0.04164   0.00000  -0.05539
 146        4S         -1.30410  -0.43169   0.96215   0.00000  -3.16803
 147        5S          4.27979   0.67072   7.22435   0.00000 -16.86366
 148        6PX         0.00000   0.00000   0.00000   0.01980   0.00000
 149        6PY        -0.00574   0.01010  -0.00687   0.00000   0.01145
 150        6PZ        -0.02334  -0.00522   0.00396   0.00000  -0.00477
 151        7PX         0.00000   0.00000   0.00000  -0.07485   0.00000
 152        7PY         0.00589  -0.06110   0.05574   0.00000  -0.04478
 153        7PZ         0.15354   0.04334  -0.03350   0.00000   0.01213
 154        8PX         0.00000   0.00000   0.00000   0.07172   0.00000
 155        8PY         0.45686   0.87034  -0.49077   0.00000   2.45748
 156        8PZ        -3.44333  -1.18218   0.26125   0.00000  -0.69990
 157        9PX         0.00000   0.00000   0.00000  -1.15881   0.00000
 158        9PY         0.57785  -1.80343  -0.46488   0.00000   4.84680
 159        9PZ        -1.79923   0.56847   4.84897   0.00000  -1.62835
 160       10D 0       -0.02199   0.00629   0.00054   0.00000   0.00277
 161       10D+1        0.00000   0.00000   0.00000  -0.01481   0.00000
 162       10D-1        0.01815  -0.01183  -0.02466   0.00000   0.00021
 163       10D+2        0.05107  -0.01806   0.00768   0.00000   0.00255
 164       10D-2        0.00000   0.00000   0.00000   0.00417   0.00000
 165       11D 0        0.06998  -0.01435   0.00215   0.00000  -0.00745
 166       11D+1        0.00000   0.00000   0.00000   0.05545   0.00000
 167       11D-1       -0.04066   0.06372   0.08301   0.00000   0.03136
 168       11D+2       -0.16973   0.06520  -0.02056   0.00000   0.02071
 169       11D-2        0.00000   0.00000   0.00000  -0.01635   0.00000
 170       12D 0       -0.99339  -0.18181  -0.08487   0.00000   0.46071
 171       12D+1        0.00000   0.00000   0.00000  -0.18485   0.00000
 172       12D-1        1.09225   0.35603  -0.17623   0.00000   0.40650
 173       12D+2        0.35645   0.12270  -0.04281   0.00000   0.49152
 174       12D-2        0.00000   0.00000   0.00000   0.09816   0.00000
 175       13F 0       -0.01706  -0.01592   0.00709   0.00000  -0.00987
 176       13F+1        0.00000   0.00000   0.00000  -0.00942   0.00000
 177       13F-1       -0.00741  -0.02096  -0.02440   0.00000   0.01010
 178       13F+2        0.02425  -0.02042  -0.01973   0.00000  -0.00329
 179       13F-2        0.00000   0.00000   0.00000  -0.00902   0.00000
 180       13F+3        0.00000   0.00000   0.00000  -0.00065   0.00000
 181       13F-3       -0.00267   0.01862  -0.01217   0.00000  -0.00384
 182       14F 0        0.03340   0.04793  -0.01509   0.00000   0.06482
 183       14F+1        0.00000   0.00000   0.00000   0.01480   0.00000
 184       14F-1        0.08934   0.06941   0.04515   0.00000  -0.02884
 185       14F+2        0.00428   0.08103   0.02785   0.00000   0.05312
 186       14F-2        0.00000   0.00000   0.00000   0.01041   0.00000
 187       14F+3        0.00000   0.00000   0.00000   0.00079   0.00000
 188       14F-3       -0.00275  -0.05803   0.03275   0.00000  -0.02386
                         186       187       188
     Eigenvalues --     0.00000   0.00000   0.00000
   1 1   C  1S         -0.07326  -0.06854   0.00545
   2        2S         -0.35504  -0.37302  -0.01514
   3        3S          0.23648   0.15892  -0.01429
   4        4S        -12.92710 -15.01158 -13.55684
   5        5S         -4.49025  -9.53456 -21.60039
   6        6PX         0.00000   0.00000   0.00000
   7        6PY         0.00196   0.00056  -0.00099
   8        6PZ        -0.01311   0.00196  -0.00974
   9        7PX         0.00000   0.00000   0.00000
  10        7PY        -0.09359  -0.06493  -0.01228
  11        7PZ         0.73874   0.40398   0.27788
  12        8PX         0.00000   0.00000   0.00000
  13        8PY        -0.38407  -0.31292   0.10041
  14        8PZ         1.93276  -2.53639  -7.37162
  15        9PX         0.00000   0.00000   0.00000
  16        9PY        -0.01862   0.04899   0.01733
  17        9PZ         3.85245  -3.27519  -4.20217
  18       10D 0        0.01819   0.01333   0.01199
  19       10D+1        0.00000   0.00000   0.00000
  20       10D-1        0.00266   0.00106   0.00160
  21       10D+2       -0.03292   0.01395   0.03520
  22       10D-2        0.00000   0.00000   0.00000
  23       11D 0        0.05159  -0.63294  -0.23333
  24       11D+1        0.00000   0.00000   0.00000
  25       11D-1        0.05128   0.06984  -0.00359
  26       11D+2        1.15320   0.57983   0.10637
  27       11D-2        0.00000   0.00000   0.00000
  28       12D 0       -0.92647  -1.56162  -1.53045
  29       12D+1        0.00000   0.00000   0.00000
  30       12D-1        0.12185   0.32373   0.01407
  31       12D+2        0.70729   0.86861   0.31097
  32       12D-2        0.00000   0.00000   0.00000
  33       13F 0       -0.05536  -0.02808  -0.00819
  34       13F+1        0.00000   0.00000   0.00000
  35       13F-1        0.00044  -0.00191  -0.00063
  36       13F+2       -0.06487  -0.04305  -0.01379
  37       13F-2        0.00000   0.00000   0.00000
  38       13F+3        0.00000   0.00000   0.00000
  39       13F-3        0.00141   0.00118   0.00007
  40       14F 0       -0.67542  -0.31472  -0.12859
  41       14F+1        0.00000   0.00000   0.00000
  42       14F-1        0.00381  -0.01663   0.02692
  43       14F+2       -0.40792  -0.08791   0.02836
  44       14F-2        0.00000   0.00000   0.00000
  45       14F+3        0.00000   0.00000   0.00000
  46       14F-3        0.00775  -0.00436   0.00214
  47 2   S  1S          0.00859  -0.00210  -0.00686
  48        2S          0.13160  -0.02116  -0.07980
  49        3S          0.37620  -0.08904  -0.28235
  50        4S         -0.03620  -0.10789  -0.09530
  51        5S          2.40934   7.60991   7.23018
  52        6S          0.31620   5.87306  23.36883
  53        7PX         0.00000   0.00000   0.00000
  54        7PY         0.00066   0.00122  -0.00039
  55        7PZ        -0.02575  -0.04855   0.00020
  56        8PX         0.00000   0.00000   0.00000
  57        8PY         0.01275   0.02599  -0.00948
  58        8PZ        -0.61832  -1.18009  -0.12395
  59        9PX         0.00000   0.00000   0.00000
  60        9PY        -0.00215  -0.00368   0.00091
  61        9PZ         0.03748   0.12836  -0.02097
  62       10PX         0.00000   0.00000   0.00000
  63       10PY        -0.02165  -0.17555   0.03715
  64       10PZ        -1.47219  -4.17785  -9.49255
  65       11PX         0.00000   0.00000   0.00000
  66       11PY        -0.03115  -0.06331   0.04384
  67       11PZ        -1.54984   1.58168  -4.97418
  68       12D 0        0.08444   1.04271   0.43703
  69       12D+1        0.00000   0.00000   0.00000
  70       12D-1       -0.01216  -0.01382   0.00890
  71       12D+2        0.09891  -0.05161  -0.01756
  72       12D-2        0.00000   0.00000   0.00000
  73       13D 0        0.05401  -0.08404  -0.02035
  74       13D+1        0.00000   0.00000   0.00000
  75       13D-1        0.00195   0.00164  -0.00024
  76       13D+2       -0.01954   0.00653   0.00147
  77       13D-2        0.00000   0.00000   0.00000
  78       14D 0        0.73193  -0.37951   2.70606
  79       14D+1        0.00000   0.00000   0.00000
  80       14D-1        0.01220   0.09683  -0.02318
  81       14D+2       -0.28149   0.02703  -0.05429
  82       14D-2        0.00000   0.00000   0.00000
  83       15F 0       -0.01134  -0.06097   0.03563
  84       15F+1        0.00000   0.00000   0.00000
  85       15F-1       -0.00144   0.00046  -0.00047
  86       15F+2       -0.01907   0.01522   0.00155
  87       15F-2        0.00000   0.00000   0.00000
  88       15F+3        0.00000   0.00000   0.00000
  89       15F-3       -0.00047   0.00084  -0.00021
  90       16F 0       -0.05803  -0.03996  -0.31183
  91       16F+1        0.00000   0.00000   0.00000
  92       16F-1        0.00510  -0.00453  -0.00141
  93       16F+2        0.04537  -0.00770   0.01929
  94       16F-2        0.00000   0.00000   0.00000
  95       16F+3        0.00000   0.00000   0.00000
  96       16F-3        0.00097  -0.00150   0.00005
  97 3   F  1S         -0.02090  -0.02918   0.00363
  98        2S         -0.12355  -0.15453   0.00588
  99        3S         -0.01966  -0.00225  -0.01602
 100        4S          2.32970   1.32963   0.13696
 101        5S          5.12997   5.03227   1.91104
 102        6PX         0.00000   0.00000   0.00000
 103        6PY         0.00073   0.01064   0.00244
 104        6PZ         0.01029   0.00312   0.00177
 105        7PX         0.00000   0.00000   0.00000
 106        7PY         0.00855  -0.06141  -0.01804
 107        7PZ        -0.02946  -0.03122  -0.02347
 108        8PX         0.00000   0.00000   0.00000
 109        8PY         1.31470   1.30323   0.41597
 110        8PZ         1.53226   0.98763   0.46804
 111        9PX         0.00000   0.00000   0.00000
 112        9PY         0.91240   0.48256  -0.01160
 113        9PZ        -0.99333   1.28565  -0.21443
 114       10D 0       -0.01956   0.00922  -0.00103
 115       10D+1        0.00000   0.00000   0.00000
 116       10D-1       -0.01239  -0.00369   0.00040
 117       10D+2        0.00094  -0.00222   0.00802
 118       10D-2        0.00000   0.00000   0.00000
 119       11D 0        0.07323  -0.04047  -0.00296
 120       11D+1        0.00000   0.00000   0.00000
 121       11D-1        0.08105   0.02428   0.00218
 122       11D+2       -0.01600  -0.00637  -0.02776
 123       11D-2        0.00000   0.00000   0.00000
 124       12D 0        0.00340   0.15032   0.02548
 125       12D+1        0.00000   0.00000   0.00000
 126       12D-1        0.38462   0.36890   0.22838
 127       12D+2       -0.06412  -0.24640  -0.07114
 128       12D-2        0.00000   0.00000   0.00000
 129       13F 0        0.00503   0.00690   0.00747
 130       13F+1        0.00000   0.00000   0.00000
 131       13F-1       -0.01531  -0.00276  -0.00615
 132       13F+2        0.00751   0.00425   0.01461
 133       13F-2        0.00000   0.00000   0.00000
 134       13F+3        0.00000   0.00000   0.00000
 135       13F-3       -0.02178  -0.00036   0.00757
 136       14F 0       -0.03075  -0.02587  -0.02988
 137       14F+1        0.00000   0.00000   0.00000
 138       14F-1        0.06993   0.01747   0.01411
 139       14F+2       -0.04559  -0.04252  -0.04732
 140       14F-2        0.00000   0.00000   0.00000
 141       14F+3        0.00000   0.00000   0.00000
 142       14F-3        0.04709  -0.01766  -0.02349
 143 4   F  1S         -0.02688  -0.03797   0.00236
 144        2S         -0.15234  -0.19527   0.00010
 145        3S         -0.01707   0.00341  -0.01509
 146        4S          2.61257   1.65233   0.12776
 147        5S          6.33570   6.60230   1.85591
 148        6PX         0.00000   0.00000   0.00000
 149        6PY        -0.00174  -0.01135  -0.00232
 150        6PZ         0.01045   0.00314   0.00181
 151        7PX         0.00000   0.00000   0.00000
 152        7PY        -0.00653   0.06207   0.01793
 153        7PZ        -0.02951  -0.02906  -0.02428
 154        8PX         0.00000   0.00000   0.00000
 155        8PY        -1.43594  -1.49616  -0.39806
 156        8PZ         1.71523   1.09078   0.51623
 157        9PX         0.00000   0.00000   0.00000
 158        9PY        -1.17935  -0.89647   0.05143
 159        9PZ        -0.84770   1.41159  -0.22919
 160       10D 0       -0.01977   0.00875  -0.00092
 161       10D+1        0.00000   0.00000   0.00000
 162       10D-1        0.01241   0.00430  -0.00005
 163       10D+2        0.00141  -0.00206   0.00836
 164       10D-2        0.00000   0.00000   0.00000
 165       11D 0        0.07587  -0.03850  -0.00313
 166       11D+1        0.00000   0.00000   0.00000
 167       11D-1       -0.08583  -0.03045  -0.00411
 168       11D+2       -0.01934  -0.01015  -0.02922
 169       11D-2        0.00000   0.00000   0.00000
 170       12D 0        0.03265   0.12962   0.04897
 171       12D+1        0.00000   0.00000   0.00000
 172       12D-1       -0.43003  -0.40620  -0.24148
 173       12D+2       -0.06726  -0.27193  -0.06337
 174       12D-2        0.00000   0.00000   0.00000
 175       13F 0        0.00447   0.00722   0.00736
 176       13F+1        0.00000   0.00000   0.00000
 177       13F-1        0.01649   0.00230   0.00712
 178       13F+2        0.00747   0.00401   0.01440
 179       13F-2        0.00000   0.00000   0.00000
 180       13F+3        0.00000   0.00000   0.00000
 181       13F-3        0.02170   0.00186  -0.00718
 182       14F 0       -0.02973  -0.02967  -0.02943
 183       14F+1        0.00000   0.00000   0.00000
 184       14F-1       -0.07760  -0.01766  -0.01846
 185       14F+2       -0.04879  -0.04580  -0.04804
 186       14F-2        0.00000   0.00000   0.00000
 187       14F+3        0.00000   0.00000   0.00000
 188       14F-3       -0.04619   0.01672   0.02296
          Condensed to atoms (all electrons):
              1          2          3          4
     1  C    5.194482   0.243030   0.109843   0.111429
     2  S    0.243030  15.949553  -0.065700  -0.067474
     3  F    0.109843  -0.065700   9.186423  -0.081368
     4  F    0.111429  -0.067474  -0.081368   9.170023
 Mulliken atomic charges:
              1
     1  C    0.341215
     2  S   -0.059408
     3  F   -0.149198
     4  F   -0.132610
 Sum of Mulliken atomic charges =   0.00000
 Mulliken charges with hydrogens summed into heavy atoms:
              1
     1  C    0.341215
     2  S   -0.059408
     3  F   -0.149198
     4  F   -0.132610
 Sum of Mulliken charges with hydrogens summed into heavy atoms =   0.00000
 Electronic spatial extent (au):  <R**2>=            315.2022
 Charge=              0.0000 electrons
 Dipole moment (field-independent basis, Debye):
    X=              0.0000    Y=              0.0703    Z=             -0.2245  Tot=              0.2353
 Quadrupole moment (field-independent basis, Debye-Ang):
   XX=            -27.2812   YY=            -30.1537   ZZ=            -27.9400
   XY=              0.0000   XZ=              0.0000   YZ=             -0.1265
 Traceless Quadrupole moment (field-independent basis, Debye-Ang):
   XX=              1.1771   YY=             -1.6954   ZZ=              0.5183
   XY=              0.0000   XZ=              0.0000   YZ=             -0.1265
 Octapole moment (field-independent basis, Debye-Ang**2):
  XXX=              0.0000  YYY=             -0.0328  ZZZ=              8.7835  XYY=              0.0000
  XXY=             -0.0159  XXZ=              0.7518  XZZ=              0.0000  YZZ=              0.0355
  YYZ=              0.8019  XYZ=              0.0000
 Hexadecapole moment (field-independent basis, Debye-Ang**3):
 XXXX=            -28.1336 YYYY=            -96.1696 ZZZZ=           -215.0441 XXXY=              0.0000
 XXXZ=              0.0000 YYYX=              0.0000 YYYZ=             -0.1477 ZZZX=              0.0000
 ZZZY=             -0.3204 XXYY=            -20.7182 XXZZ=            -40.5195 YYZZ=            -55.6377
 XXYZ=             -0.0503 YYXZ=              0.0000 ZZXY=              0.0000
 N-N= 1.543934442290D+02 E-N=-1.820107338573D+03  KE= 6.349957895396D+02
 1\1\GINC-TRAPISTA\SP\RQCISD-FC\Aug-CC-pVTZ\C1F2S1\BRUNS\27-Nov-2021\0\
 \# qcisd/aug-cc-pvtz nosymm density=current output=wfn\\f2cs-wavefunct
 ion\\0,1\C,0,0.,0.01,-0.520349\S,0,0.,0.,1.078525\F,0,0.,-1.055221,-1.
 295538\F,0,0.,1.055221,-1.295538\\Version=EM64L-G09RevB.01\HF=-634.356
 7769\MP2=-635.1963159\MP3=-635.1996982\MP4D=-635.2166244\MP4DQ=-635.19
 72706\MP4SDQ=-635.2081295\QCISD=-635.2072321\RMSD=8.563e-09\Dipole=0.,
 0.0276577,-0.0883306\Quadrupole=0.8751508,-1.2605122,0.3853614,0.,0.,-
 0.094025\PG=CS [SG(C1F2S1)]\\@

 Writing a WFN file to GAUSSIAN.wfn.


 EVERY WORD THAT YOU WRITE IS A BLOW THAT SMITES THE DEVIL.
     -- ST. BERNARD OF CLAIRVAUX
 Job cpu time:  0 days  2 hours  1 minutes 23.7 seconds.
 File lengths (MBytes):  RWF=  17813 Int=      0 D2E=      0 Chk=      3 Scr=      1
 Normal termination of Gaussian 09 at Sat Nov 27 02:50:33 2021.
