 f2cs-wavefunction
GAUSSIAN            188 MOL ORBITALS    330 PRIMITIVES        4 NUCLEI
  C    1    (CENTRE  1)   0.00000000  0.00000000 -0.98331710  CHARGE =  6.0
  S    2    (CENTRE  2)   0.00000000  0.00000000  2.03811688  CHARGE = 16.0
  F    3    (CENTRE  3)   0.00000000 -1.99407870 -2.44821201  CHARGE =  9.0
  F    4    (CENTRE  4)   0.01889726  1.99407870 -2.44821201  CHARGE =  9.0
CENTRE ASSIGNMENTS    1  1  1  1  1  1  1  1  1  1  1  1  1  1  1  1  1  1  1  1
CENTRE ASSIGNMENTS    1  1  1  1  1  1  1  1  1  1  1  1  1  1  1  1  1  1  1  1
CENTRE ASSIGNMENTS    1  1  1  1  1  1  1  1  1  1  1  1  1  1  1  1  1  1  1  1
CENTRE ASSIGNMENTS    1  1  1  1  1  1  1  1  1  1  1  1  2  2  2  2  2  2  2  2
CENTRE ASSIGNMENTS    2  2  2  2  2  2  2  2  2  2  2  2  2  2  2  2  2  2  2  2
CENTRE ASSIGNMENTS    2  2  2  2  2  2  2  2  2  2  2  2  2  2  2  2  2  2  2  2
CENTRE ASSIGNMENTS    2  2  2  2  2  2  2  2  2  2  2  2  2  2  2  2  2  2  2  2
CENTRE ASSIGNMENTS    2  2  2  2  2  2  2  2  2  2  2  2  2  2  2  2  2  2  2  2
CENTRE ASSIGNMENTS    2  2  2  2  2  2  2  2  2  2  2  2  2  2  2  2  2  2  2  2
CENTRE ASSIGNMENTS    2  2  2  2  2  2  3  3  3  3  3  3  3  3  3  3  3  3  3  3
CENTRE ASSIGNMENTS    3  3  3  3  3  3  3  3  3  3  3  3  3  3  3  3  3  3  3  3
CENTRE ASSIGNMENTS    3  3  3  3  3  3  3  3  3  3  3  3  3  3  3  3  3  3  3  3
CENTRE ASSIGNMENTS    3  3  3  3  3  3  3  3  3  3  3  3  3  3  3  3  3  3  4  4
CENTRE ASSIGNMENTS    4  4  4  4  4  4  4  4  4  4  4  4  4  4  4  4  4  4  4  4
CENTRE ASSIGNMENTS    4  4  4  4  4  4  4  4  4  4  4  4  4  4  4  4  4  4  4  4
CENTRE ASSIGNMENTS    4  4  4  4  4  4  4  4  4  4  4  4  4  4  4  4  4  4  4  4
CENTRE ASSIGNMENTS    4  4  4  4  4  4  4  4  4  4
TYPE ASSIGNMENTS      1  1  1  1  1  1  1  1  1  1  1  1  1  1  1  1  2  2  2  3
TYPE ASSIGNMENTS      3  3  4  4  4  2  3  4  2  3  4  2  3  4  5  6  7  8  9 10
TYPE ASSIGNMENTS      5  6  7  8  9 10  5  6  7  8  9 10 11 12 13 17 14 15 18 19
TYPE ASSIGNMENTS     16 20 11 12 13 17 14 15 18 19 16 20  1  1  1  1  1  1  1  1
TYPE ASSIGNMENTS      1  1  1  1  1  1  1  1  1  1  1  1  1  1  1  1  1  1  1  1
TYPE ASSIGNMENTS      1  1  1  2  2  2  2  2  2  3  3  3  3  3  3  4  4  4  4  4
TYPE ASSIGNMENTS      4  2  2  2  2  2  2  3  3  3  3  3  3  4  4  4  4  4  4  2
TYPE ASSIGNMENTS      3  4  2  3  4  2  3  4  5  6  7  8  9 10  5  6  7  8  9 10
TYPE ASSIGNMENTS      5  6  7  8  9 10 11 12 13 17 14 15 18 19 16 20 11 12 13 17
TYPE ASSIGNMENTS     14 15 18 19 16 20  1  1  1  1  1  1  1  1  1  1  1  1  1  1
TYPE ASSIGNMENTS      1  1  2  2  2  3  3  3  4  4  4  2  3  4  2  3  4  2  3  4
TYPE ASSIGNMENTS      5  6  7  8  9 10  5  6  7  8  9 10  5  6  7  8  9 10 11 12
TYPE ASSIGNMENTS     13 17 14 15 18 19 16 20 11 12 13 17 14 15 18 19 16 20  1  1
TYPE ASSIGNMENTS      1  1  1  1  1  1  1  1  1  1  1  1  1  1  2  2  2  3  3  3
TYPE ASSIGNMENTS      4  4  4  2  3  4  2  3  4  2  3  4  5  6  7  8  9 10  5  6
TYPE ASSIGNMENTS      7  8  9 10  5  6  7  8  9 10 11 12 13 17 14 15 18 19 16 20
TYPE ASSIGNMENTS     11 12 13 17 14 15 18 19 16 20
EXPONENTS  0.8236000D+04 0.1235000D+04 0.2808000D+03 0.7927000D+02 0.2559000D+02
EXPONENTS  0.8997000D+01 0.3319000D+01 0.2808000D+03 0.7927000D+02 0.2559000D+02
EXPONENTS  0.8997000D+01 0.3319000D+01 0.3643000D+00 0.9059000D+00 0.1285000D+00
EXPONENTS  0.4402000D-01 0.1871000D+02 0.4133000D+01 0.1200000D+01 0.1871000D+02
EXPONENTS  0.4133000D+01 0.1200000D+01 0.1871000D+02 0.4133000D+01 0.1200000D+01
EXPONENTS  0.3827000D+00 0.3827000D+00 0.3827000D+00 0.1209000D+00 0.1209000D+00
EXPONENTS  0.1209000D+00 0.3569000D-01 0.3569000D-01 0.3569000D-01 0.1097000D+01
EXPONENTS  0.1097000D+01 0.1097000D+01 0.1097000D+01 0.1097000D+01 0.1097000D+01
EXPONENTS  0.3180000D+00 0.3180000D+00 0.3180000D+00 0.3180000D+00 0.3180000D+00
EXPONENTS  0.3180000D+00 0.1000000D+00 0.1000000D+00 0.1000000D+00 0.1000000D+00
EXPONENTS  0.1000000D+00 0.1000000D+00 0.7610000D+00 0.7610000D+00 0.7610000D+00
EXPONENTS  0.7610000D+00 0.7610000D+00 0.7610000D+00 0.7610000D+00 0.7610000D+00
EXPONENTS  0.7610000D+00 0.7610000D+00 0.2680000D+00 0.2680000D+00 0.2680000D+00
EXPONENTS  0.2680000D+00 0.2680000D+00 0.2680000D+00 0.2680000D+00 0.2680000D+00
EXPONENTS  0.2680000D+00 0.2680000D+00 0.3741000D+06 0.5605000D+05 0.1276000D+05
EXPONENTS  0.3615000D+04 0.1183000D+04 0.4288000D+03 0.1678000D+03 0.6947000D+02
EXPONENTS  0.2984000D+02 0.1272000D+02 0.5244000D+01 0.3615000D+04 0.1183000D+04
EXPONENTS  0.4288000D+03 0.1678000D+03 0.6947000D+02 0.2984000D+02 0.1272000D+02
EXPONENTS  0.5244000D+01 0.2219000D+01 0.1183000D+04 0.1678000D+03 0.6947000D+02
EXPONENTS  0.2984000D+02 0.1272000D+02 0.5244000D+01 0.2219000D+01 0.3490000D+00
EXPONENTS  0.7767000D+00 0.1322000D+00 0.4970000D-01 0.5744000D+03 0.1358000D+03
EXPONENTS  0.4319000D+02 0.1587000D+02 0.6208000D+01 0.2483000D+01 0.5744000D+03
EXPONENTS  0.1358000D+03 0.4319000D+02 0.1587000D+02 0.6208000D+01 0.2483000D+01
EXPONENTS  0.5744000D+03 0.1358000D+03 0.4319000D+02 0.1587000D+02 0.6208000D+01
EXPONENTS  0.2483000D+01 0.1358000D+03 0.4319000D+02 0.1587000D+02 0.6208000D+01
EXPONENTS  0.2483000D+01 0.3229000D+00 0.1358000D+03 0.4319000D+02 0.1587000D+02
EXPONENTS  0.6208000D+01 0.2483000D+01 0.3229000D+00 0.1358000D+03 0.4319000D+02
EXPONENTS  0.1587000D+02 0.6208000D+01 0.2483000D+01 0.3229000D+00 0.8688000D+00
EXPONENTS  0.8688000D+00 0.8688000D+00 0.1098000D+00 0.1098000D+00 0.1098000D+00
EXPONENTS  0.3510000D-01 0.3510000D-01 0.3510000D-01 0.2690000D+00 0.2690000D+00
EXPONENTS  0.2690000D+00 0.2690000D+00 0.2690000D+00 0.2690000D+00 0.8190000D+00
EXPONENTS  0.8190000D+00 0.8190000D+00 0.8190000D+00 0.8190000D+00 0.8190000D+00
EXPONENTS  0.1010000D+00 0.1010000D+00 0.1010000D+00 0.1010000D+00 0.1010000D+00
EXPONENTS  0.1010000D+00 0.5570000D+00 0.5570000D+00 0.5570000D+00 0.5570000D+00
EXPONENTS  0.5570000D+00 0.5570000D+00 0.5570000D+00 0.5570000D+00 0.5570000D+00
EXPONENTS  0.5570000D+00 0.2180000D+00 0.2180000D+00 0.2180000D+00 0.2180000D+00
EXPONENTS  0.2180000D+00 0.2180000D+00 0.2180000D+00 0.2180000D+00 0.2180000D+00
EXPONENTS  0.2180000D+00 0.1950000D+05 0.2923000D+04 0.6645000D+03 0.1875000D+03
EXPONENTS  0.6062000D+02 0.2142000D+02 0.7950000D+01 0.6645000D+03 0.1875000D+03
EXPONENTS  0.6062000D+02 0.2142000D+02 0.7950000D+01 0.8815000D+00 0.2257000D+01
EXPONENTS  0.3041000D+00 0.9158000D-01 0.4388000D+02 0.9926000D+01 0.2930000D+01
EXPONENTS  0.4388000D+02 0.9926000D+01 0.2930000D+01 0.4388000D+02 0.9926000D+01
EXPONENTS  0.2930000D+01 0.9132000D+00 0.9132000D+00 0.9132000D+00 0.2672000D+00
EXPONENTS  0.2672000D+00 0.2672000D+00 0.7361000D-01 0.7361000D-01 0.7361000D-01
EXPONENTS  0.3107000D+01 0.3107000D+01 0.3107000D+01 0.3107000D+01 0.3107000D+01
EXPONENTS  0.3107000D+01 0.8550000D+00 0.8550000D+00 0.8550000D+00 0.8550000D+00
EXPONENTS  0.8550000D+00 0.8550000D+00 0.2920000D+00 0.2920000D+00 0.2920000D+00
EXPONENTS  0.2920000D+00 0.2920000D+00 0.2920000D+00 0.1917000D+01 0.1917000D+01
EXPONENTS  0.1917000D+01 0.1917000D+01 0.1917000D+01 0.1917000D+01 0.1917000D+01
EXPONENTS  0.1917000D+01 0.1917000D+01 0.1917000D+01 0.7240000D+00 0.7240000D+00
EXPONENTS  0.7240000D+00 0.7240000D+00 0.7240000D+00 0.7240000D+00 0.7240000D+00
EXPONENTS  0.7240000D+00 0.7240000D+00 0.7240000D+00 0.1950000D+05 0.2923000D+04
EXPONENTS  0.6645000D+03 0.1875000D+03 0.6062000D+02 0.2142000D+02 0.7950000D+01
EXPONENTS  0.6645000D+03 0.1875000D+03 0.6062000D+02 0.2142000D+02 0.7950000D+01
EXPONENTS  0.8815000D+00 0.2257000D+01 0.3041000D+00 0.9158000D-01 0.4388000D+02
EXPONENTS  0.9926000D+01 0.2930000D+01 0.4388000D+02 0.9926000D+01 0.2930000D+01
EXPONENTS  0.4388000D+02 0.9926000D+01 0.2930000D+01 0.9132000D+00 0.9132000D+00
EXPONENTS  0.9132000D+00 0.2672000D+00 0.2672000D+00 0.2672000D+00 0.7361000D-01
EXPONENTS  0.7361000D-01 0.7361000D-01 0.3107000D+01 0.3107000D+01 0.3107000D+01
EXPONENTS  0.3107000D+01 0.3107000D+01 0.3107000D+01 0.8550000D+00 0.8550000D+00
EXPONENTS  0.8550000D+00 0.8550000D+00 0.8550000D+00 0.8550000D+00 0.2920000D+00
EXPONENTS  0.2920000D+00 0.2920000D+00 0.2920000D+00 0.2920000D+00 0.2920000D+00
EXPONENTS  0.1917000D+01 0.1917000D+01 0.1917000D+01 0.1917000D+01 0.1917000D+01
EXPONENTS  0.1917000D+01 0.1917000D+01 0.1917000D+01 0.1917000D+01 0.1917000D+01
EXPONENTS  0.7240000D+00 0.7240000D+00 0.7240000D+00 0.7240000D+00 0.7240000D+00
EXPONENTS  0.7240000D+00 0.7240000D+00 0.7240000D+00 0.7240000D+00 0.7240000D+00
MO    1     MO 0.0        OCC NO =    2.0000305  ORB. ENERGY =    0.000000
 -0.99531562D-06 -0.18554688D-05 -0.31359951D-05 -0.47139856D-05 -0.57902869D-05
 -0.48867979D-05 -0.18375636D-05 -0.41024643D-09 -0.30663379D-08 -0.11459605D-07
 -0.31970513D-07 -0.42831674D-07  0.50576220D-07 -0.54403114D-07 -0.66104471D-07
  0.19692799D-08 -0.14436750D-04 -0.13535371D-04 -0.96379903D-05 -0.30467529D-02
 -0.28565245D-02 -0.20340156D-02  0.14225851D-06  0.13337639D-06  0.94971938D-07
 -0.74073077D-05 -0.15633215D-02 -0.46421726D-07  0.28927234D-05  0.61049848D-03
  0.25255716D-07 -0.64225675D-07 -0.13554287D-04  0.37004029D-09 -0.36388501D-08
 -0.18569593D-07  0.22208443D-07 -0.11440142D-06 -0.48319484D-05 -0.10197400D-02
 -0.30030097D-08  0.16961595D-07 -0.13958586D-07 -0.18984588D-05  0.18826575D-05
  0.39734580D-03  0.45298066D-08 -0.28606692D-08 -0.16691374D-08  0.10067569D-05
 -0.10702152D-05 -0.22587200D-03  0.17016898D-05  0.24075067D-03 -0.13339159D-07
  0.18621493D-07  0.35912176D-03  0.47783670D-07 -0.51236910D-05 -0.10813738D-02
 -0.77661929D-08  0.69875687D-05 -0.61017556D-06 -0.13714723D-03  0.28497261D-08
 -0.72919288D-06 -0.12877267D-03 -0.95851518D-08  0.25597196D-05  0.54021436D-03
  0.10359735D-08 -0.13133052D-05 -0.21030236D-05 -0.39318145D-05 -0.67953441D-05
 -0.10991189D-04 -0.16612814D-04 -0.22879285D-04 -0.26743098D-04 -0.23113194D-04
 -0.10787048D-04 -0.14614083D-05  0.10688951D-07 -0.26185325D-07 -0.33660972D-06
 -0.12279039D-05 -0.41429173D-05 -0.90997053D-05 -0.11754337D-04  0.18890220D-05
  0.15846649D-04  0.86964367D-05 -0.22793749D-09 -0.25963497D-08 -0.53909579D-08
 -0.14823765D-07  0.19220714D-08  0.67026315D-07  0.16717428D-06 -0.13838444D-06
  0.45931723D-06  0.34575161D-08 -0.49903327D-08  0.46270556D-01  0.60704339D-01
  0.66579522D-01  0.54779625D-01  0.28876703D-01  0.75131751D-02  0.97652838D+01
  0.12811497D+02  0.14051440D+02  0.11561101D+02  0.60943552D+01  0.15856366D+01
  0.14793888D-03  0.19408739D-03  0.21287186D-03  0.17514456D-03  0.92326252D-04
  0.24021554D-04  0.44891511D-06  0.16114091D-04  0.25565409D-04  0.30358140D-04
  0.45939867D-05 -0.33434174D-04  0.94742273D-04  0.34008337D-02  0.53955079D-02
  0.64070001D-02  0.96954799D-03 -0.70561886D-02  0.16757286D-08  0.60151336D-07
  0.95431603D-07  0.11332210D-06  0.17148621D-07 -0.12480445D-06  0.32031910D-03
  0.67602524D-01  0.10805051D-05 -0.17984924D-05 -0.37955875D-03 -0.11399825D-07
 -0.33677560D-07 -0.71076360D-05  0.21945786D-09 -0.68321294D-08 -0.10712953D-07
  0.17545082D-07  0.71309052D-06  0.45569340D-05  0.96172356D-03 -0.81689571D-08
  0.20158648D-09  0.79673706D-08 -0.14396671D-05 -0.26317235D-05 -0.55543874D-03
 -0.18135492D-08  0.98950977D-09  0.82403942D-09 -0.29935681D-06 -0.19905572D-06
 -0.42011729D-04  0.52055257D-06  0.35006729D-04 -0.47537364D-08 -0.54347847D-06
  0.10985495D-03  0.21706590D-08 -0.10181792D-05 -0.21487514D-03  0.12090550D-07
 -0.14961889D-05  0.77605504D-07  0.34764944D-04 -0.18235538D-08  0.33896917D-06
  0.16379492D-04  0.35616560D-08 -0.57178569D-06 -0.12067432D-03  0.19090053D-08
  0.18236428D-06  0.50729831D-02  0.94560493D-02  0.16030110D-01  0.24271755D-01
  0.30345039D-01  0.26102175D-01  0.10010746D-01 -0.65352786D-06 -0.86514852D-05
 -0.31423768D-04 -0.93218017D-04 -0.10741494D-03  0.13047144D-03  0.58780090D-03
  0.87201969D-04  0.85327519D-03  0.15286651D-04  0.14950011D-04  0.98781043D-05
 -0.13025529D-02 -0.12738683D-02 -0.84169866D-03 -0.39047400D-02 -0.38187505D-02
 -0.25232099D-02  0.53368333D-05 -0.38871691D-03 -0.10831569D-02 -0.36378929D-06
 -0.14824109D-03 -0.74746909D-03  0.27183114D-06  0.92212731D-04  0.11396481D-04
  0.24111692D-04  0.27383507D-04 -0.51495199D-04 -0.27208909D-05  0.18377406D-05
  0.26331768D-03 -0.54404687D-04 -0.13268064D-03  0.18708533D-03  0.12410504D-05
 -0.20015891D-05 -0.14917138D-03  0.11021791D-03 -0.21481758D-04 -0.88736155D-04
 -0.14883071D-05  0.11424403D-05 -0.27901755D-03 -0.10575693D-05 -0.27214286D-04
 -0.54617627D-04  0.43660221D-05 -0.33125757D-03  0.20185867D-04 -0.11933143D-05
  0.41290042D-03  0.14366701D-03 -0.44892332D-05  0.52207009D-06 -0.63292039D-04
  0.95233754D-04 -0.17273360D-05  0.19969562D-03 -0.42115567D-04  0.16112577D-06
 -0.98195012D-05 -0.24358570D-03  0.11726196D-05 -0.50723544D-02 -0.94548772D-02
 -0.16028123D-01 -0.24268746D-01 -0.30341278D-01 -0.26098940D-01 -0.10009505D-01
  0.65378301D-06  0.86548629D-05  0.31436037D-04  0.93254411D-04  0.10745687D-03
 -0.13052238D-03 -0.58776118D-03 -0.87214702D-04 -0.85324348D-03 -0.27633432D-04
 -0.27024893D-04 -0.17856489D-04 -0.13029648D-02 -0.12742712D-02 -0.84196483D-03
  0.39045975D-02  0.38186111D-02  0.25231178D-02 -0.90208447D-05 -0.38876490D-03
  0.10830939D-02 -0.10411712D-05 -0.14824717D-03  0.74741556D-03  0.60202608D-06
  0.92210084D-04 -0.11396034D-04 -0.24131138D-04 -0.27360912D-04  0.51492049D-04
 -0.27827516D-05  0.65754286D-06  0.26333537D-03  0.54421822D-04  0.13263904D-03
 -0.18706086D-03  0.27239601D-05  0.58803069D-06 -0.14916576D-03 -0.11021393D-03
  0.21485443D-04  0.88728490D-04  0.10079225D-05 -0.37863732D-05 -0.27899378D-03
 -0.20820020D-05 -0.27183621D-04  0.54646399D-04  0.11404835D-05 -0.33129558D-03
 -0.20234204D-04  0.51055226D-05  0.41284645D-03 -0.14370499D-03 -0.68300485D-05
  0.13703506D-05 -0.63279505D-04 -0.95234920D-04 -0.38568437D-05  0.19966673D-03
  0.42134154D-04 -0.25420816D-06 -0.98282196D-05  0.24357061D-03  0.49909740D-05
MO    2     MO 0.0        OCC NO =    2.0000247  ORB. ENERGY =    0.000000
 -0.59334277D-01 -0.11061105D+00 -0.18694774D+00 -0.28101732D+00 -0.34517944D+00
 -0.29131927D+00 -0.10954365D+00 -0.94595984D-05 -0.70704638D-04 -0.26423937D-03
 -0.73718671D-03 -0.98762695D-03  0.11662033D-02 -0.44996518D-02 -0.13845990D-02
 -0.56526846D-04  0.71657171D-05  0.67183152D-05  0.47838407D-05  0.60485975D-07
  0.56709446D-07  0.40380504D-07  0.29468338D-02  0.27628440D-02  0.19673095D-02
  0.13063419D-05  0.29511571D-07 -0.42011985D-03  0.15469176D-05 -0.25132092D-07
 -0.93826629D-03 -0.12617806D-07  0.11173668D-09  0.78383287D-05  0.25975825D-03
 -0.10468791D-03 -0.15507034D-03 -0.34534895D-05  0.51926633D-05 -0.48399944D-07
  0.10321384D-03  0.15494381D-03 -0.25815766D-03  0.49024531D-06 -0.53487304D-06
 -0.37043678D-08  0.17127169D-04  0.61926061D-04 -0.79053230D-04  0.42451989D-06
  0.17147027D-06  0.43148750D-08  0.11277192D-06  0.32315112D-08 -0.36042941D-04
 -0.12272745D-05 -0.28808783D-07 -0.10105258D-03  0.88895871D-06  0.19114249D-07
  0.20918141D-03  0.29398221D-05  0.46849418D-07  0.19053952D-08  0.46924368D-04
 -0.44601049D-06 -0.21083683D-08  0.26125800D-04  0.30546223D-06 -0.36078173D-08
 -0.16689890D-03 -0.18292458D-05 -0.12695403D+00 -0.23735335D+00 -0.41021713D+00
 -0.66350930D+00 -0.10028721D+01 -0.13811625D+01 -0.16144108D+01 -0.13952830D+01
 -0.65118583D+00 -0.88221392D-01  0.64526397D-03 -0.15827338D-02 -0.20345883D-01
 -0.74218857D-01 -0.25041259D+00 -0.55001840D+00 -0.71047375D+00  0.11417918D+00
  0.95782758D+00  0.52564342D+00 -0.13254220D-04 -0.15097381D-03 -0.31347605D-03
 -0.86197953D-03  0.11176555D-03  0.38974789D-02  0.97209314D-02 -0.80468462D-02
  0.29241563D-01  0.15634243D-02  0.75120686D-04 -0.21035413D-01 -0.27597265D-01
 -0.30268227D-01 -0.24903785D-01 -0.13127860D-01 -0.34156222D-02 -0.90375771D-04
 -0.11856787D-03 -0.13004329D-03 -0.10699571D-03 -0.56402052D-04 -0.14674753D-04
  0.62355309D+01  0.81806620D+01  0.89724157D+01  0.73822334D+01  0.38914937D+01
  0.10124935D+01 -0.16053047D-06 -0.57623426D-05 -0.91421010D-05 -0.10855965D-04
 -0.16427936D-05  0.11955944D-04 -0.83788320D-09 -0.30076346D-07 -0.47716877D-07
 -0.56662328D-07 -0.85745037D-08  0.62403631D-07  0.57868396D-04  0.20772226D-02
  0.32955657D-02  0.39133832D-02  0.59219803D-03 -0.43099063D-02 -0.14620106D-03
 -0.64653146D-06  0.46091979D-01  0.38522947D-06  0.22902104D-08 -0.79388208D-03
  0.81859989D-07 -0.19434841D-09 -0.63635866D-05 -0.25911686D-03 -0.14599918D-03
  0.40511604D-03  0.10719910D-05 -0.73821857D-06 -0.85873347D-08  0.15159209D-03
 -0.37155092D-03  0.21995883D-03 -0.49577003D-05  0.18116404D-05  0.28780065D-09
 -0.14740587D-04 -0.27378864D-04  0.42119452D-04 -0.11976354D-06  0.93212388D-07
  0.55033632D-09 -0.23653607D-06  0.89947471D-09 -0.88655087D-04 -0.10151538D-06
  0.57336931D-09  0.21771072D-03  0.81112359D-06 -0.32717934D-08  0.48254542D-04
 -0.16059021D-05  0.12850383D-07 -0.59860098D-09 -0.22227140D-04  0.28674445D-07
 -0.81874720D-10  0.32041089D-04 -0.67225592D-07  0.18776777D-08  0.34640331D-04
  0.24627266D-07  0.66390411D-02  0.12375184D-01  0.20978694D-01  0.31764580D-01
  0.39712721D-01  0.34160062D-01  0.13101119D-01  0.15496716D-05  0.20514751D-04
  0.74513307D-04  0.22104232D-03  0.25470663D-03 -0.30937914D-03  0.52106123D-03
 -0.38824556D-03 -0.25410391D-03 -0.11728230D-04 -0.11469953D-04 -0.75786827D-05
  0.13375799D-03  0.13081239D-03  0.86433279D-04 -0.92699584D-03 -0.90658169D-03
 -0.59901685D-03 -0.25071025D-05 -0.84539967D-04 -0.38201188D-03  0.72339804D-06
  0.52683217D-05 -0.82274690D-04  0.11352398D-06 -0.48148825D-05 -0.60115420D-04
  0.36524818D-04 -0.10519001D-03  0.68665196D-04 -0.70346486D-06  0.51703441D-06
 -0.26465000D-04 -0.22374963D-04  0.98402579D-05  0.12534705D-04  0.86511433D-06
  0.23744561D-06  0.92676870D-04 -0.46058914D-04  0.10505321D-04  0.35553593D-04
 -0.12685184D-06  0.69449435D-06 -0.22304717D-04 -0.93746433D-06 -0.79274514D-04
 -0.10798167D-03  0.39211604D-05  0.11175016D-03  0.21347301D-04 -0.11087674D-05
  0.12607338D-03  0.30259771D-03 -0.29199749D-05  0.31377684D-06  0.16163825D-04
  0.44381551D-04 -0.15955178D-05 -0.97916919D-04 -0.76454498D-04  0.65418733D-06
  0.49425443D-04 -0.56690154D-04  0.11369454D-05  0.66388930D-02  0.12374908D-01
  0.20978226D-01  0.31763871D-01  0.39711835D-01  0.34159299D-01  0.13100827D-01
  0.15495060D-05  0.20512558D-04  0.74505341D-04  0.22101869D-03  0.25467940D-03
 -0.30934607D-03  0.52106643D-03 -0.38824369D-03 -0.25405777D-03 -0.12992857D-04
 -0.12706730D-04 -0.83958740D-05 -0.13347599D-03 -0.13053661D-03 -0.86251056D-04
 -0.92723540D-03 -0.90681597D-03 -0.59917165D-03 -0.17051097D-05  0.84619567D-04
 -0.38207660D-03  0.67385492D-06 -0.52237593D-05 -0.82285793D-04  0.15913699D-06
  0.48122643D-05 -0.60111414D-04  0.36526295D-04 -0.10518011D-03  0.68653817D-04
 -0.19822384D-05  0.76802664D-06  0.26471774D-04 -0.22375591D-04  0.98400607D-05
  0.12535530D-04 -0.25474240D-06 -0.64069700D-06 -0.92651406D-04 -0.46045621D-04
  0.10487462D-04  0.35558160D-04  0.11984344D-05  0.90589714D-06  0.22306103D-04
 -0.19955396D-05  0.79205897D-04 -0.10799621D-03  0.82897214D-05 -0.11156871D-03
  0.21387004D-04 -0.23031027D-05 -0.12604898D-03  0.30260163D-03  0.82513145D-05
  0.12413043D-05 -0.16135002D-04  0.44384638D-04 -0.39095572D-05  0.97836897D-04
 -0.76459449D-04  0.18564434D-06 -0.49431892D-04 -0.56694464D-04 -0.76268943D-06
MO    3     MO 0.0        OCC NO =    2.0000101  ORB. ENERGY =    0.000000
  0.19846898D+00  0.36998616D+00  0.62532702D+00  0.93998314D+00  0.11546009D+01
  0.97444245D+00  0.36641581D+00  0.26896276D-04  0.20103300D-03  0.75130622D-03
  0.20960274D-02  0.28080988D-02 -0.33158411D-02  0.15833746D-01  0.35041545D-03
  0.13339420D-03 -0.94952078D-04 -0.89023609D-04 -0.63390113D-04  0.36585869D-06
  0.34301578D-06  0.24424767D-06 -0.73344666D-02 -0.68765286D-02 -0.48964980D-02
 -0.20931309D-04  0.82178703D-07  0.59730371D-03 -0.41079904D-05  0.28982389D-07
  0.53551661D-03  0.26152020D-07 -0.35079212D-09  0.65096422D-05 -0.68155307D-03
  0.55250870D-03  0.12904437D-03  0.11693899D-04 -0.34626806D-04  0.30278478D-06
  0.20613868D-03 -0.24526808D-03  0.39129396D-04 -0.42774601D-05  0.13824367D-04
 -0.76793247D-07 -0.92368891D-05 -0.38354768D-04  0.47591657D-04 -0.27590871D-06
 -0.86806576D-06 -0.41328719D-09  0.18014998D-05 -0.19571640D-07 -0.73812207D-05
  0.41430567D-05  0.39681106D-07  0.25984123D-03 -0.95475560D-05  0.19033813D-07
 -0.23769757D-03 -0.47151024D-05 -0.87734439D-06  0.14355541D-07 -0.14804087D-03
 -0.18264256D-05 -0.65248097D-08  0.23462836D-06  0.44584588D-05 -0.36541814D-07
  0.44388798D-03  0.42043168D-05 -0.99296305D-01 -0.18564444D+00 -0.32084878D+00
 -0.51895967D+00 -0.78439017D+00 -0.10802677D+01 -0.12627014D+01 -0.10913119D+01
 -0.50932095D+00 -0.69001813D-01  0.50468919D-03 -0.12516494D-02 -0.16089827D-01
 -0.58693378D-01 -0.19803000D+00 -0.43496274D+00 -0.56185322D+00  0.90294593D-01
  0.75746431D+00  0.41568664D+00 -0.55001169D-05 -0.62649751D-04 -0.13008347D-03
 -0.35769650D-03  0.46379459D-04  0.16173407D-02  0.40339045D-02 -0.33392077D-02
  0.24968152D-01 -0.17600128D-02 -0.19260473D-03  0.25320801D+00  0.33219451D+00
  0.36434548D+00  0.29977249D+00  0.15802301D+00  0.41114615D-01 -0.11753402D-02
 -0.15419795D-02 -0.16912178D-02 -0.13914831D-02 -0.73351077D-03 -0.19084571D-03
 -0.50342182D+01 -0.66046080D+01 -0.72438256D+01 -0.59600015D+01 -0.31417739D+01
 -0.81743047D+00  0.15356690D-05  0.55123808D-04  0.87455303D-04  0.10385049D-03
  0.15715316D-04 -0.11437313D-03 -0.73733651D-08 -0.26467159D-06 -0.41990812D-06
 -0.49862801D-06 -0.75455561D-07  0.54915143D-06 -0.40931278D-04 -0.14692541D-02
 -0.23310084D-02 -0.27680010D-02 -0.41887151D-03  0.30484683D-02  0.18984306D-02
 -0.88226926D-05 -0.39561033D-01  0.36242030D-06  0.47651878D-08  0.43488365D-03
 -0.46038866D-06  0.22677498D-08  0.62985078D-05  0.27875997D-03  0.20492371D-03
 -0.48368369D-03 -0.69971452D-06  0.14936538D-04 -0.84225201D-07 -0.30890524D-04
 -0.29522609D-03  0.32611661D-03 -0.25051299D-05 -0.15496759D-05 -0.62200489D-08
  0.85745112D-05  0.97032797D-05 -0.18277791D-04  0.10692170D-07 -0.62856156D-06
  0.17046745D-08  0.24967159D-05 -0.31913990D-09  0.11304862D-03 -0.58037848D-06
 -0.41846616D-07 -0.27360833D-03 -0.69097691D-05  0.42804036D-07 -0.65537534D-04
  0.19718719D-05  0.18255350D-06 -0.38655977D-08  0.27188069D-04  0.72466177D-06
  0.38040557D-08 -0.56061067D-04 -0.12723223D-05  0.77927375D-08 -0.25503139D-04
  0.28959079D-06 -0.51734961D-01 -0.96434056D-01 -0.16347721D+00 -0.24752660D+00
 -0.30946277D+00 -0.26619348D+00 -0.10209093D+00 -0.81980166D-05 -0.10852639D-03
 -0.39418759D-03 -0.11693501D-02 -0.13474398D-02  0.16366663D-02 -0.44414167D-02
  0.10956686D-02  0.14476823D-03  0.17940401D-03  0.17545320D-03  0.11592935D-03
 -0.46368954D-02 -0.45347824D-02 -0.29963225D-02 -0.11894550D-02 -0.11632610D-02
 -0.76861573D-03  0.40841050D-04 -0.49405886D-03  0.22166557D-03  0.65039905D-05
 -0.54559257D-04  0.19661165D-03 -0.67780911D-07 -0.27811006D-05  0.28550071D-04
 -0.15320023D-03  0.17249626D-03 -0.19296023D-04 -0.77460205D-05 -0.16129597D-05
  0.41200664D-03  0.10926255D-03 -0.36563566D-04 -0.72698989D-04  0.12542345D-05
 -0.25172891D-05 -0.29020244D-03  0.82677906D-04 -0.28054326D-04 -0.54623580D-04
 -0.55146008D-06  0.11182497D-05  0.74146261D-04  0.13932385D-05  0.11229165D-03
  0.22930763D-03 -0.67248137D-05 -0.34819273D-03 -0.22732043D-03  0.25450983D-05
  0.11317786D-04 -0.46060246D-03 -0.77598830D-05 -0.50301394D-06 -0.24336132D-04
 -0.67481196D-04  0.34092766D-05  0.31445942D-03  0.27105313D-03 -0.19002348D-05
 -0.24145103D-03 -0.68609547D-04  0.27261698D-05 -0.51732678D-01 -0.96429801D-01
 -0.16347000D+00 -0.24751568D+00 -0.30944912D+00 -0.26618173D+00 -0.10208642D+00
 -0.81974709D-05 -0.10851917D-03 -0.39416135D-03 -0.11692722D-02 -0.13473501D-02
  0.16365573D-02 -0.44412373D-02  0.10956661D-02  0.14475058D-03  0.22332839D-03
  0.21841029D-03  0.14431291D-03  0.46345286D-02  0.45324677D-02  0.29947931D-02
 -0.11890531D-02 -0.11628679D-02 -0.76835600D-03  0.45518648D-04  0.49350699D-03
  0.22175315D-03  0.70192052D-05  0.54373520D-04  0.19659065D-03 -0.41428311D-07
  0.27815630D-05  0.28548948D-04 -0.15312640D-03  0.17239566D-03 -0.19269260D-04
  0.13916427D-04 -0.55174981D-05 -0.41203120D-03  0.10920975D-03 -0.36514617D-04
 -0.72695137D-04 -0.40160447D-05  0.23213513D-06  0.29012713D-03  0.82659612D-04
 -0.28018861D-04 -0.54640751D-04 -0.15461731D-05  0.41529815D-06 -0.74163853D-04
  0.46908033D-05 -0.11215206D-03  0.22934465D-03 -0.16509468D-04  0.34782420D-03
 -0.22721873D-03  0.24370583D-05 -0.11368030D-04 -0.46081522D-03  0.33320806D-05
 -0.34819462D-05  0.24265779D-04 -0.67486930D-04  0.10057629D-04 -0.31425667D-03
  0.27097459D-03  0.38820985D-06  0.24145934D-03 -0.68513795D-04 -0.91609656D-05
MO    4     MO 0.0        OCC NO =    2.0000090  ORB. ENERGY =    0.000000
 -0.63495665D-02 -0.11836871D-01 -0.20005925D-01 -0.30072636D-01 -0.36938847D-01
 -0.31175084D-01 -0.11722646D-01 -0.76704167D-06 -0.57331613D-05 -0.21426133D-04
 -0.59775574D-04 -0.80082789D-04  0.94562842D-04 -0.50870907D-03 -0.26236157D-04
 -0.58071496D-05 -0.39844302D-02 -0.37356566D-02 -0.26600100D-02  0.18881789D-04
  0.17702877D-04  0.12605503D-04  0.18207769D-03  0.17070941D-03  0.12155527D-03
 -0.78989612D-03  0.37437682D-05 -0.21463262D-04 -0.12185708D-03  0.57700920D-06
 -0.31287773D-04  0.20121900D-05 -0.95307896D-08 -0.23690132D-06  0.24631254D-04
 -0.15159769D-04 -0.94714846D-05 -0.38170247D-06 -0.10061662D-02  0.47629329D-05
 -0.45158842D-05  0.54370106D-05 -0.92112634D-06  0.11323170D-06  0.46210681D-03
 -0.21893559D-05  0.50163764D-06  0.17899602D-05 -0.22915979D-05  0.12557765D-07
 -0.27553500D-04  0.13064185D-06  0.10237779D-03 -0.20505128D-06 -0.19934836D-05
  0.43258203D-04 -0.10461023D-05 -0.69893315D-05 -0.35039158D-03  0.16612561D-05
  0.12969782D-04  0.16497632D-06 -0.31233734D-04  0.34339829D-06  0.30136948D-05
 -0.72494291D-04 -0.24291821D-06  0.23760083D-05  0.16619549D-03 -0.78727665D-06
 -0.11417093D-04 -0.13658545D-06  0.20918758D-02  0.39109724D-02  0.67593229D-02
  0.10932926D-01  0.16524752D-01  0.22758005D-01  0.26601336D-01  0.22990674D-01
  0.10729867D-01  0.14536615D-02 -0.10632290D-04  0.26407784D-04  0.33946941D-03
  0.12383356D-02  0.41781137D-02  0.91770124D-02  0.11854197D-01 -0.19050703D-02
 -0.15981275D-01 -0.87703178D-02  0.10676474D-06  0.12161168D-05  0.25250968D-05
  0.69433748D-05 -0.90028828D-06 -0.31394779D-04 -0.78303564D-04  0.64818556D-04
 -0.53226319D-03  0.71878614D-04  0.94411102D-05  0.97240593D+01  0.12757413D+02
  0.13992121D+02  0.11512296D+02  0.60686276D+01  0.15789428D+01 -0.46076166D-01
 -0.60449310D-01 -0.66299810D-01 -0.54549487D-01 -0.28755388D-01 -0.74816110D-02
  0.12047113D+00  0.15805128D+00  0.17334804D+00  0.14262555D+00  0.75184080D-01
  0.19561483D-01  0.57384919D-04  0.20598679D-02  0.32680320D-02  0.38806878D-02
  0.58725035D-03 -0.42738980D-02 -0.27190714D-06 -0.97602782D-05 -0.15484926D-04
 -0.18387875D-04 -0.27825701D-05  0.20251024D-04  0.11059650D-05  0.39699310D-04
  0.62983951D-04  0.74791510D-04  0.11317927D-04 -0.82369750D-04  0.73269751D-01
 -0.34717883D-03  0.96294623D-03  0.18188739D-04 -0.86240078D-07 -0.18251392D-04
 -0.17761147D-04  0.84156547D-07 -0.35511412D-06 -0.75889458D-05 -0.50340723D-05
  0.12623018D-04  0.25629359D-07  0.57540421D-03 -0.27262623D-05 -0.10950833D-05
  0.58885824D-05 -0.47934991D-05  0.63725143D-07 -0.25505534D-03  0.12089376D-05
 -0.34153523D-06 -0.44423954D-06  0.78577476D-06 -0.89325581D-09 -0.20057731D-04
  0.95044874D-07  0.83263847D-04  0.14700867D-06 -0.41253665D-05 -0.31003656D-04
 -0.14774578D-05  0.99901347D-05 -0.21878789D-03  0.10364318D-05  0.23859649D-05
 -0.73295804D-07  0.88762646D-05 -0.13205534D-06 -0.43459971D-06  0.27869810D-04
  0.13795070D-06  0.10338138D-05 -0.54498604D-04  0.25821530D-06  0.26998530D-06
 -0.77636138D-08  0.17086028D-02  0.31848386D-02  0.53990109D-02  0.81748327D-02
  0.10220341D-01  0.87913263D-02  0.33716629D-02  0.25494833D-06  0.33750386D-05
  0.12258754D-04  0.36365363D-04  0.41903736D-04 -0.50898329D-04  0.14724254D-03
 -0.30609421D-04 -0.79954000D-05  0.63857575D-02  0.62451313D-02  0.41264223D-02
  0.12203989D-03  0.11935235D-03  0.78861144D-04  0.88696179D-04  0.86742926D-04
  0.57314719D-04  0.15012006D-02  0.12963013D-04  0.50562231D-05  0.34652775D-03
  0.83341825D-06  0.33153148D-05 -0.78413199D-06 -0.66656557D-07 -0.13501855D-05
  0.25250240D-05 -0.30002192D-05  0.47519513D-06 -0.36597031D-03 -0.14700652D-03
 -0.17115911D-04 -0.23530047D-05  0.13669266D-05  0.98607813D-06  0.10227707D-03
 -0.56998046D-04  0.11559415D-04 -0.29885606D-05  0.26958587D-06  0.27189748D-05
  0.11956937D-04  0.80189084D-04  0.15633166D-05  0.80187857D-05 -0.98238133D-06
 -0.55996138D-05 -0.12499773D-03  0.79216118D-05  0.98128285D-05  0.10094137D-03
 -0.49744678D-05  0.69860128D-05 -0.60558421D-03 -0.46025821D-05 -0.20210452D-06
  0.81491169D-06  0.74616128D-04 -0.89346641D-05 -0.93610275D-05 -0.60808382D-04
  0.95409777D-05  0.69162924D-05  0.21911660D-03  0.17085189D-02  0.31846822D-02
  0.53987458D-02  0.81744313D-02  0.10219840D-01  0.87908946D-02  0.33714973D-02
  0.25493053D-06  0.33748028D-05  0.12257898D-04  0.36362823D-04  0.41900809D-04
 -0.50894774D-04  0.14723575D-03 -0.30609657D-04 -0.79949693D-05  0.63841863D-02
  0.62435948D-02  0.41254070D-02 -0.18253337D-03 -0.17851365D-03 -0.11795152D-03
  0.88681755D-04  0.86728819D-04  0.57305398D-04  0.15009676D-02 -0.27183714D-04
  0.50525881D-05  0.34647227D-03 -0.41135909D-05  0.33147683D-05 -0.78340025D-06
  0.74128873D-07 -0.13501212D-05  0.59930534D-05 -0.64677551D-05  0.47470176D-06
  0.36575781D-03 -0.14680673D-03  0.18509981D-04 -0.33207365D-05  0.23348859D-05
  0.98585065D-06 -0.10216907D-03 -0.57111398D-04 -0.11015639D-04 -0.31010413D-05
  0.38180983D-06  0.27192315D-05 -0.11882847D-04  0.80156930D-04 -0.23224041D-05
  0.79236539D-05  0.21651459D-05 -0.56006128D-05 -0.12476364D-03 -0.10513055D-04
  0.15548891D-04  0.10099268D-03  0.40176179D-05  0.12529479D-05  0.60535849D-03