 f2cs-wavefunction
GAUSSIAN            188 MOL ORBITALS    330 PRIMITIVES        4 NUCLEI
  C    1    (CENTRE  1)   0.00000000  0.00000000 -0.98331710  CHARGE =  6.0
  S    2    (CENTRE  2)   0.00000000  0.00000000  2.03811688  CHARGE = 16.0
  F    3    (CENTRE  3)   0.01889726 -1.99407870 -2.44821201  CHARGE =  9.0
  F    4    (CENTRE  4)   0.00000000  1.99407870 -2.44821201  CHARGE =  9.0
CENTRE ASSIGNMENTS    1  1  1  1  1  1  1  1  1  1  1  1  1  1  1  1  1  1  1  1
CENTRE ASSIGNMENTS    1  1  1  1  1  1  1  1  1  1  1  1  1  1  1  1  1  1  1  1
CENTRE ASSIGNMENTS    1  1  1  1  1  1  1  1  1  1  1  1  1  1  1  1  1  1  1  1
CENTRE ASSIGNMENTS    1  1  1  1  1  1  1  1  1  1  1  1  2  2  2  2  2  2  2  2
CENTRE ASSIGNMENTS    2  2  2  2  2  2  2  2  2  2  2  2  2  2  2  2  2  2  2  2
CENTRE ASSIGNMENTS    2  2  2  2  2  2  2  2  2  2  2  2  2  2  2  2  2  2  2  2
CENTRE ASSIGNMENTS    2  2  2  2  2  2  2  2  2  2  2  2  2  2  2  2  2  2  2  2
CENTRE ASSIGNMENTS    2  2  2  2  2  2  2  2  2  2  2  2  2  2  2  2  2  2  2  2
CENTRE ASSIGNMENTS    2  2  2  2  2  2  2  2  2  2  2  2  2  2  2  2  2  2  2  2
CENTRE ASSIGNMENTS    2  2  2  2  2  2  3  3  3  3  3  3  3  3  3  3  3  3  3  3
CENTRE ASSIGNMENTS    3  3  3  3  3  3  3  3  3  3  3  3  3  3  3  3  3  3  3  3
CENTRE ASSIGNMENTS    3  3  3  3  3  3  3  3  3  3  3  3  3  3  3  3  3  3  3  3
CENTRE ASSIGNMENTS    3  3  3  3  3  3  3  3  3  3  3  3  3  3  3  3  3  3  4  4
CENTRE ASSIGNMENTS    4  4  4  4  4  4  4  4  4  4  4  4  4  4  4  4  4  4  4  4
CENTRE ASSIGNMENTS    4  4  4  4  4  4  4  4  4  4  4  4  4  4  4  4  4  4  4  4
CENTRE ASSIGNMENTS    4  4  4  4  4  4  4  4  4  4  4  4  4  4  4  4  4  4  4  4
CENTRE ASSIGNMENTS    4  4  4  4  4  4  4  4  4  4
TYPE ASSIGNMENTS      1  1  1  1  1  1  1  1  1  1  1  1  1  1  1  1  2  2  2  3
TYPE ASSIGNMENTS      3  3  4  4  4  2  3  4  2  3  4  2  3  4  5  6  7  8  9 10
TYPE ASSIGNMENTS      5  6  7  8  9 10  5  6  7  8  9 10 11 12 13 17 14 15 18 19
TYPE ASSIGNMENTS     16 20 11 12 13 17 14 15 18 19 16 20  1  1  1  1  1  1  1  1
TYPE ASSIGNMENTS      1  1  1  1  1  1  1  1  1  1  1  1  1  1  1  1  1  1  1  1
TYPE ASSIGNMENTS      1  1  1  2  2  2  2  2  2  3  3  3  3  3  3  4  4  4  4  4
TYPE ASSIGNMENTS      4  2  2  2  2  2  2  3  3  3  3  3  3  4  4  4  4  4  4  2
TYPE ASSIGNMENTS      3  4  2  3  4  2  3  4  5  6  7  8  9 10  5  6  7  8  9 10
TYPE ASSIGNMENTS      5  6  7  8  9 10 11 12 13 17 14 15 18 19 16 20 11 12 13 17
TYPE ASSIGNMENTS     14 15 18 19 16 20  1  1  1  1  1  1  1  1  1  1  1  1  1  1
TYPE ASSIGNMENTS      1  1  2  2  2  3  3  3  4  4  4  2  3  4  2  3  4  2  3  4
TYPE ASSIGNMENTS      5  6  7  8  9 10  5  6  7  8  9 10  5  6  7  8  9 10 11 12
TYPE ASSIGNMENTS     13 17 14 15 18 19 16 20 11 12 13 17 14 15 18 19 16 20  1  1
TYPE ASSIGNMENTS      1  1  1  1  1  1  1  1  1  1  1  1  1  1  2  2  2  3  3  3
TYPE ASSIGNMENTS      4  4  4  2  3  4  2  3  4  2  3  4  5  6  7  8  9 10  5  6
TYPE ASSIGNMENTS      7  8  9 10  5  6  7  8  9 10 11 12 13 17 14 15 18 19 16 20
TYPE ASSIGNMENTS     11 12 13 17 14 15 18 19 16 20
EXPONENTS  0.8236000D+04 0.1235000D+04 0.2808000D+03 0.7927000D+02 0.2559000D+02
EXPONENTS  0.8997000D+01 0.3319000D+01 0.2808000D+03 0.7927000D+02 0.2559000D+02
EXPONENTS  0.8997000D+01 0.3319000D+01 0.3643000D+00 0.9059000D+00 0.1285000D+00
EXPONENTS  0.4402000D-01 0.1871000D+02 0.4133000D+01 0.1200000D+01 0.1871000D+02
EXPONENTS  0.4133000D+01 0.1200000D+01 0.1871000D+02 0.4133000D+01 0.1200000D+01
EXPONENTS  0.3827000D+00 0.3827000D+00 0.3827000D+00 0.1209000D+00 0.1209000D+00
EXPONENTS  0.1209000D+00 0.3569000D-01 0.3569000D-01 0.3569000D-01 0.1097000D+01
EXPONENTS  0.1097000D+01 0.1097000D+01 0.1097000D+01 0.1097000D+01 0.1097000D+01
EXPONENTS  0.3180000D+00 0.3180000D+00 0.3180000D+00 0.3180000D+00 0.3180000D+00
EXPONENTS  0.3180000D+00 0.1000000D+00 0.1000000D+00 0.1000000D+00 0.1000000D+00
EXPONENTS  0.1000000D+00 0.1000000D+00 0.7610000D+00 0.7610000D+00 0.7610000D+00
EXPONENTS  0.7610000D+00 0.7610000D+00 0.7610000D+00 0.7610000D+00 0.7610000D+00
EXPONENTS  0.7610000D+00 0.7610000D+00 0.2680000D+00 0.2680000D+00 0.2680000D+00
EXPONENTS  0.2680000D+00 0.2680000D+00 0.2680000D+00 0.2680000D+00 0.2680000D+00
EXPONENTS  0.2680000D+00 0.2680000D+00 0.3741000D+06 0.5605000D+05 0.1276000D+05
EXPONENTS  0.3615000D+04 0.1183000D+04 0.4288000D+03 0.1678000D+03 0.6947000D+02
EXPONENTS  0.2984000D+02 0.1272000D+02 0.5244000D+01 0.3615000D+04 0.1183000D+04
EXPONENTS  0.4288000D+03 0.1678000D+03 0.6947000D+02 0.2984000D+02 0.1272000D+02
EXPONENTS  0.5244000D+01 0.2219000D+01 0.1183000D+04 0.1678000D+03 0.6947000D+02
EXPONENTS  0.2984000D+02 0.1272000D+02 0.5244000D+01 0.2219000D+01 0.3490000D+00
EXPONENTS  0.7767000D+00 0.1322000D+00 0.4970000D-01 0.5744000D+03 0.1358000D+03
EXPONENTS  0.4319000D+02 0.1587000D+02 0.6208000D+01 0.2483000D+01 0.5744000D+03
EXPONENTS  0.1358000D+03 0.4319000D+02 0.1587000D+02 0.6208000D+01 0.2483000D+01
EXPONENTS  0.5744000D+03 0.1358000D+03 0.4319000D+02 0.1587000D+02 0.6208000D+01
EXPONENTS  0.2483000D+01 0.1358000D+03 0.4319000D+02 0.1587000D+02 0.6208000D+01
EXPONENTS  0.2483000D+01 0.3229000D+00 0.1358000D+03 0.4319000D+02 0.1587000D+02
EXPONENTS  0.6208000D+01 0.2483000D+01 0.3229000D+00 0.1358000D+03 0.4319000D+02
EXPONENTS  0.1587000D+02 0.6208000D+01 0.2483000D+01 0.3229000D+00 0.8688000D+00
EXPONENTS  0.8688000D+00 0.8688000D+00 0.1098000D+00 0.1098000D+00 0.1098000D+00
EXPONENTS  0.3510000D-01 0.3510000D-01 0.3510000D-01 0.2690000D+00 0.2690000D+00
EXPONENTS  0.2690000D+00 0.2690000D+00 0.2690000D+00 0.2690000D+00 0.8190000D+00
EXPONENTS  0.8190000D+00 0.8190000D+00 0.8190000D+00 0.8190000D+00 0.8190000D+00
EXPONENTS  0.1010000D+00 0.1010000D+00 0.1010000D+00 0.1010000D+00 0.1010000D+00
EXPONENTS  0.1010000D+00 0.5570000D+00 0.5570000D+00 0.5570000D+00 0.5570000D+00
EXPONENTS  0.5570000D+00 0.5570000D+00 0.5570000D+00 0.5570000D+00 0.5570000D+00
EXPONENTS  0.5570000D+00 0.2180000D+00 0.2180000D+00 0.2180000D+00 0.2180000D+00
EXPONENTS  0.2180000D+00 0.2180000D+00 0.2180000D+00 0.2180000D+00 0.2180000D+00
EXPONENTS  0.2180000D+00 0.1950000D+05 0.2923000D+04 0.6645000D+03 0.1875000D+03
EXPONENTS  0.6062000D+02 0.2142000D+02 0.7950000D+01 0.6645000D+03 0.1875000D+03
EXPONENTS  0.6062000D+02 0.2142000D+02 0.7950000D+01 0.8815000D+00 0.2257000D+01
EXPONENTS  0.3041000D+00 0.9158000D-01 0.4388000D+02 0.9926000D+01 0.2930000D+01
EXPONENTS  0.4388000D+02 0.9926000D+01 0.2930000D+01 0.4388000D+02 0.9926000D+01
EXPONENTS  0.2930000D+01 0.9132000D+00 0.9132000D+00 0.9132000D+00 0.2672000D+00
EXPONENTS  0.2672000D+00 0.2672000D+00 0.7361000D-01 0.7361000D-01 0.7361000D-01
EXPONENTS  0.3107000D+01 0.3107000D+01 0.3107000D+01 0.3107000D+01 0.3107000D+01
EXPONENTS  0.3107000D+01 0.8550000D+00 0.8550000D+00 0.8550000D+00 0.8550000D+00
EXPONENTS  0.8550000D+00 0.8550000D+00 0.2920000D+00 0.2920000D+00 0.2920000D+00
EXPONENTS  0.2920000D+00 0.2920000D+00 0.2920000D+00 0.1917000D+01 0.1917000D+01
EXPONENTS  0.1917000D+01 0.1917000D+01 0.1917000D+01 0.1917000D+01 0.1917000D+01
EXPONENTS  0.1917000D+01 0.1917000D+01 0.1917000D+01 0.7240000D+00 0.7240000D+00
EXPONENTS  0.7240000D+00 0.7240000D+00 0.7240000D+00 0.7240000D+00 0.7240000D+00
EXPONENTS  0.7240000D+00 0.7240000D+00 0.7240000D+00 0.1950000D+05 0.2923000D+04
EXPONENTS  0.6645000D+03 0.1875000D+03 0.6062000D+02 0.2142000D+02 0.7950000D+01
EXPONENTS  0.6645000D+03 0.1875000D+03 0.6062000D+02 0.2142000D+02 0.7950000D+01
EXPONENTS  0.8815000D+00 0.2257000D+01 0.3041000D+00 0.9158000D-01 0.4388000D+02
EXPONENTS  0.9926000D+01 0.2930000D+01 0.4388000D+02 0.9926000D+01 0.2930000D+01
EXPONENTS  0.4388000D+02 0.9926000D+01 0.2930000D+01 0.9132000D+00 0.9132000D+00
EXPONENTS  0.9132000D+00 0.2672000D+00 0.2672000D+00 0.2672000D+00 0.7361000D-01
EXPONENTS  0.7361000D-01 0.7361000D-01 0.3107000D+01 0.3107000D+01 0.3107000D+01
EXPONENTS  0.3107000D+01 0.3107000D+01 0.3107000D+01 0.8550000D+00 0.8550000D+00
EXPONENTS  0.8550000D+00 0.8550000D+00 0.8550000D+00 0.8550000D+00 0.2920000D+00
EXPONENTS  0.2920000D+00 0.2920000D+00 0.2920000D+00 0.2920000D+00 0.2920000D+00
EXPONENTS  0.1917000D+01 0.1917000D+01 0.1917000D+01 0.1917000D+01 0.1917000D+01
EXPONENTS  0.1917000D+01 0.1917000D+01 0.1917000D+01 0.1917000D+01 0.1917000D+01
EXPONENTS  0.7240000D+00 0.7240000D+00 0.7240000D+00 0.7240000D+00 0.7240000D+00
EXPONENTS  0.7240000D+00 0.7240000D+00 0.7240000D+00 0.7240000D+00 0.7240000D+00
MO    1     MO 0.0        OCC NO =    2.0000305  ORB. ENERGY =    0.000000
  0.99530460D-06  0.18554483D-05  0.31359604D-05  0.47139333D-05  0.57902228D-05
  0.48867438D-05  0.18375433D-05  0.41024499D-09  0.30663272D-08  0.11459565D-07
  0.31970401D-07  0.42831524D-07 -0.50576043D-07  0.54402299D-07  0.66104469D-07
 -0.19692681D-08  0.14436750D-04  0.13535371D-04  0.96379906D-05 -0.30467531D-02
 -0.28565247D-02 -0.20340158D-02 -0.14225817D-06 -0.13337608D-06 -0.94971715D-07
  0.74073079D-05 -0.15633215D-02  0.46421801D-07 -0.28927234D-05  0.61049848D-03
 -0.25255664D-07  0.64225675D-07 -0.13554287D-04 -0.37003806D-09  0.36389338D-08
  0.18569523D-07 -0.22208457D-07 -0.11440113D-06  0.48319486D-05 -0.10197400D-02
  0.30030277D-08 -0.16961613D-07  0.13958586D-07 -0.18984587D-05 -0.18826574D-05
  0.39734578D-03 -0.45298068D-08  0.28606695D-08  0.16691373D-08  0.10067569D-05
  0.10702152D-05 -0.22587200D-03 -0.17016898D-05  0.24075067D-03  0.13339136D-07
 -0.18621494D-07  0.35912176D-03 -0.47783753D-07  0.51236910D-05 -0.10813738D-02
  0.77663456D-08  0.69875686D-05  0.61017556D-06 -0.13714723D-03 -0.28497277D-08
  0.72919289D-06 -0.12877267D-03  0.95851371D-08 -0.25597196D-05  0.54021437D-03
 -0.10359540D-08 -0.13133052D-05  0.21029865D-05  0.39317450D-05  0.67952240D-05
  0.10990995D-04  0.16612521D-04  0.22878881D-04  0.26742625D-04  0.23112785D-04
  0.10786857D-04  0.14613825D-05 -0.10688762D-07  0.26185388D-07  0.33661053D-06
  0.12279068D-05  0.41429273D-05  0.90997272D-05  0.11754365D-04 -0.18890265D-05
 -0.15846687D-04 -0.86964576D-05  0.22793777D-09  0.25963529D-08  0.53909645D-08
  0.14823783D-07 -0.19220737D-08 -0.67026397D-07 -0.16717448D-06  0.13838461D-06
 -0.45931842D-06 -0.34575513D-08  0.49902985D-08 -0.46270556D-01 -0.60704338D-01
 -0.66579521D-01 -0.54779624D-01 -0.28876703D-01 -0.75131750D-02  0.97652838D+01
  0.12811497D+02  0.14051440D+02  0.11561101D+02  0.60943552D+01  0.15856366D+01
 -0.14793861D-03 -0.19408705D-03 -0.21287148D-03 -0.17514425D-03 -0.92326087D-04
 -0.24021511D-04 -0.44891511D-06 -0.16114091D-04 -0.25565410D-04 -0.30358140D-04
 -0.45939867D-05  0.33434175D-04  0.94742274D-04  0.34008337D-02  0.53955080D-02
  0.64070002D-02  0.96954801D-03 -0.70561887D-02 -0.16757269D-08 -0.60151274D-07
 -0.95431504D-07 -0.11332198D-06 -0.17148603D-07  0.12480432D-06 -0.32031909D-03
  0.67602524D-01 -0.10805031D-05  0.17984925D-05 -0.37955878D-03  0.11399851D-07
  0.33677560D-07 -0.71076362D-05 -0.21945649D-09  0.68321295D-08  0.10712942D-07
 -0.17545072D-07  0.71309057D-06 -0.45569340D-05  0.96172356D-03  0.81689560D-08
 -0.20157133D-09 -0.79673847D-08 -0.14396673D-05  0.26317231D-05 -0.55543867D-03
  0.18135507D-08 -0.98950902D-09 -0.82404169D-09 -0.29935680D-06  0.19905572D-06
 -0.42011728D-04 -0.52055257D-06  0.35006732D-04  0.47537340D-08  0.54347844D-06
  0.10985495D-03 -0.21706637D-08  0.10181793D-05 -0.21487515D-03 -0.12090538D-07
 -0.14961890D-05 -0.77605499D-07  0.34764944D-04  0.18235528D-08 -0.33896918D-06
  0.16379491D-04 -0.35616568D-08  0.57178568D-06 -0.12067432D-03 -0.19090017D-08
  0.18236427D-06  0.50723547D-02  0.94548778D-02  0.16028124D-01  0.24268748D-01
  0.30341280D-01  0.26098942D-01  0.10009506D-01 -0.65378266D-06 -0.86548583D-05
 -0.31436020D-04 -0.93254361D-04 -0.10745682D-03  0.13052231D-03  0.58776117D-03
  0.87214680D-04  0.85324347D-03  0.27633429D-04  0.27024890D-04  0.17856487D-04
 -0.13029650D-02 -0.12742713D-02 -0.84196495D-03 -0.39045972D-02 -0.38186108D-02
 -0.25231176D-02  0.90208440D-05 -0.38876495D-03 -0.10830939D-02  0.10411711D-05
 -0.14824718D-03 -0.74741556D-03 -0.60202607D-06  0.92210083D-04  0.11396033D-04
  0.24131130D-04  0.27360904D-04 -0.51492034D-04 -0.27827518D-05 -0.65754321D-06
  0.26333538D-03 -0.54421823D-04 -0.13263904D-03  0.18706087D-03  0.27239601D-05
 -0.58803080D-06 -0.14916576D-03  0.11021393D-03 -0.21485442D-04 -0.88728490D-04
  0.10079225D-05  0.37863732D-05 -0.27899377D-03  0.20820021D-05 -0.27183624D-04
 -0.54646397D-04 -0.11404835D-05 -0.33129559D-03  0.20234201D-04 -0.51055227D-05
  0.41284646D-03  0.14370499D-03 -0.68300487D-05 -0.13703506D-05 -0.63279505D-04
  0.95234920D-04  0.38568437D-05  0.19966673D-03 -0.42134155D-04  0.25420814D-06
 -0.98282176D-05 -0.24357060D-03  0.49909739D-05 -0.50729836D-02 -0.94560502D-02
 -0.16030112D-01 -0.24271757D-01 -0.30345042D-01 -0.26102178D-01 -0.10010747D-01
  0.65352751D-06  0.86514805D-05  0.31423751D-04  0.93217966D-04  0.10741488D-03
 -0.13047137D-03 -0.58780091D-03 -0.87201946D-04 -0.85327518D-03 -0.15286646D-04
 -0.14950006D-04 -0.98781008D-05 -0.13025531D-02 -0.12738685D-02 -0.84169878D-03
  0.39047398D-02  0.38187502D-02  0.25232097D-02 -0.53368321D-05 -0.38871696D-03
  0.10831569D-02  0.36378946D-06 -0.14824109D-03  0.74746909D-03 -0.27183114D-06
  0.92212730D-04 -0.11396481D-04 -0.24111685D-04 -0.27383499D-04  0.51495183D-04
 -0.27208910D-05 -0.18377404D-05  0.26331769D-03  0.54404688D-04  0.13268064D-03
 -0.18708533D-03  0.12410503D-05  0.20015891D-05 -0.14917137D-03 -0.11021791D-03
  0.21481757D-04  0.88736155D-04 -0.14883071D-05 -0.11424403D-05 -0.27901755D-03
  0.10575692D-05 -0.27214289D-04  0.54617625D-04 -0.43660221D-05 -0.33125757D-03
 -0.20185864D-04  0.11933144D-05  0.41290043D-03 -0.14366701D-03 -0.44892334D-05
 -0.52207009D-06 -0.63292040D-04 -0.95233754D-04  0.17273361D-05  0.19969562D-03
  0.42115569D-04 -0.16112578D-06 -0.98194992D-05  0.24358569D-03  0.11726196D-05
MO    2     MO 0.0        OCC NO =    2.0000247  ORB. ENERGY =    0.000000
 -0.59334274D-01 -0.11061104D+00 -0.18694773D+00 -0.28101730D+00 -0.34517942D+00
 -0.29131926D+00 -0.10954365D+00 -0.94595984D-05 -0.70704637D-04 -0.26423937D-03
 -0.73718671D-03 -0.98762695D-03  0.11662033D-02 -0.44996515D-02 -0.13845990D-02
 -0.56526844D-04  0.71657116D-05  0.67183101D-05  0.47838370D-05 -0.60485961D-07
 -0.56709433D-07 -0.40380495D-07  0.29468338D-02  0.27628440D-02  0.19673095D-02
  0.13063407D-05 -0.29511639D-07 -0.42011985D-03  0.15469175D-05  0.25132090D-07
 -0.93826630D-03 -0.12617806D-07 -0.11173422D-09  0.78383290D-05  0.25975822D-03
 -0.10468790D-03 -0.15507033D-03  0.34534892D-05  0.51926627D-05  0.48399797D-07
  0.10321384D-03  0.15494381D-03 -0.25815766D-03 -0.49024532D-06 -0.53487280D-06
  0.37043800D-08  0.17127170D-04  0.61926062D-04 -0.79053231D-04 -0.42451989D-06
  0.17147025D-06 -0.43148322D-08  0.11277203D-06 -0.32314943D-08 -0.36042928D-04
 -0.12272744D-05  0.28808721D-07 -0.10105259D-03  0.88895834D-06 -0.19114238D-07
  0.20918138D-03 -0.29398219D-05  0.46849409D-07 -0.19054227D-08  0.46924370D-04
 -0.44601054D-06  0.21083578D-08  0.26125798D-04  0.30546232D-06  0.36079104D-08
 -0.16689891D-03  0.18292458D-05 -0.12695403D+00 -0.23735334D+00 -0.41021713D+00
 -0.66350929D+00 -0.10028721D+01 -0.13811625D+01 -0.16144108D+01 -0.13952830D+01
 -0.65118582D+00 -0.88221391D-01  0.64526396D-03 -0.15827337D-02 -0.20345883D-01
 -0.74218856D-01 -0.25041258D+00 -0.55001839D+00 -0.71047374D+00  0.11417917D+00
  0.95782756D+00  0.52564341D+00 -0.13254220D-04 -0.15097381D-03 -0.31347605D-03
 -0.86197953D-03  0.11176555D-03  0.38974789D-02  0.97209313D-02 -0.80468462D-02
  0.29241563D-01  0.15634243D-02  0.75120684D-04 -0.21035407D-01 -0.27597258D-01
 -0.30268219D-01 -0.24903779D-01 -0.13127856D-01 -0.34156212D-02  0.90375835D-04
  0.11856796D-03  0.13004339D-03  0.10699578D-03  0.56402092D-04  0.14674764D-04
  0.62355311D+01  0.81806622D+01  0.89724160D+01  0.73822336D+01  0.38914938D+01
  0.10124935D+01 -0.16053043D-06 -0.57623411D-05 -0.91420987D-05 -0.10855962D-04
 -0.16427931D-05  0.11955941D-04  0.83788477D-09  0.30076402D-07  0.47716966D-07
  0.56662434D-07  0.85745197D-08 -0.62403748D-07  0.57868397D-04  0.20772226D-02
  0.32955658D-02  0.39133833D-02  0.59219804D-03 -0.43099063D-02 -0.14620102D-03
  0.64653192D-06  0.46091980D-01  0.38522936D-06 -0.22903026D-08 -0.79388209D-03
  0.81859977D-07  0.19434637D-09 -0.63635866D-05 -0.25911687D-03 -0.14599918D-03
  0.40511605D-03 -0.10719910D-05 -0.73821814D-06  0.85874184D-08  0.15159210D-03
 -0.37155092D-03  0.21995882D-03  0.49577004D-05  0.18116403D-05 -0.28782381D-09
 -0.14740587D-04 -0.27378865D-04  0.42119452D-04  0.11976355D-06  0.93212379D-07
 -0.55031571D-09 -0.23653602D-06 -0.89947063D-09 -0.88655085D-04 -0.10151538D-06
 -0.57336909D-09  0.21771072D-03  0.81112344D-06  0.32717810D-08  0.48254536D-04
  0.16059021D-05  0.12850389D-07  0.59860517D-09 -0.22227141D-04  0.28674465D-07
  0.81879636D-10  0.32041089D-04 -0.67225634D-07 -0.18776951D-08  0.34640333D-04
 -0.24627274D-07  0.66388934D-02  0.12374909D-01  0.20978227D-01  0.31763873D-01
  0.39711837D-01  0.34159301D-01  0.13100827D-01  0.15495060D-05  0.20512558D-04
  0.74505343D-04  0.22101870D-03  0.25467941D-03 -0.30934607D-03  0.52106647D-03
 -0.38824369D-03 -0.25405777D-03 -0.12992866D-04 -0.12706739D-04 -0.83958800D-05
  0.13347599D-03  0.13053661D-03  0.86251055D-04 -0.92723543D-03 -0.90681600D-03
 -0.59917167D-03 -0.17051117D-05 -0.84619574D-04 -0.38207661D-03  0.67385470D-06
  0.52237588D-05 -0.82285800D-04  0.15913699D-06 -0.48122644D-05 -0.60111415D-04
  0.36526292D-04 -0.10518011D-03  0.68653819D-04  0.19822375D-05  0.76802596D-06
 -0.26471748D-04 -0.22375589D-04  0.98400602D-05  0.12535529D-04  0.25474231D-06
 -0.64069709D-06  0.92651393D-04 -0.46045622D-04  0.10487462D-04  0.35558160D-04
 -0.11984345D-05  0.90589722D-06 -0.22306108D-04 -0.19955396D-05 -0.79205901D-04
 -0.10799622D-03  0.82897215D-05  0.11156871D-03  0.21387001D-04 -0.23031027D-05
  0.12604899D-03  0.30260165D-03 -0.82513156D-05  0.12413043D-05  0.16135004D-04
  0.44384642D-04 -0.39095573D-05 -0.97836897D-04 -0.76459445D-04  0.18564437D-06
  0.49431884D-04 -0.56694480D-04  0.76268984D-06  0.66390417D-02  0.12375185D-01
  0.20978696D-01  0.31764583D-01  0.39712725D-01  0.34160065D-01  0.13101120D-01
  0.15496717D-05  0.20514751D-04  0.74513310D-04  0.22104233D-03  0.25470664D-03
 -0.30937915D-03  0.52106128D-03 -0.38824556D-03 -0.25410391D-03 -0.11728239D-04
 -0.11469962D-04 -0.75786887D-05 -0.13375799D-03 -0.13081240D-03 -0.86433281D-04
 -0.92699587D-03 -0.90658171D-03 -0.59901687D-03 -0.25071046D-05  0.84539974D-04
 -0.38201189D-03  0.72339783D-06 -0.52683214D-05 -0.82274696D-04  0.11352398D-06
  0.48148826D-05 -0.60115420D-04  0.36524816D-04 -0.10519001D-03  0.68665198D-04
  0.70346576D-06  0.51703399D-06  0.26464973D-04 -0.22374961D-04  0.98402574D-05
  0.12534704D-04 -0.86511420D-06  0.23744540D-06 -0.92676857D-04 -0.46058914D-04
  0.10505321D-04  0.35553593D-04  0.12685187D-06  0.69449438D-06  0.22304722D-04
 -0.93746428D-06  0.79274518D-04 -0.10798168D-03  0.39211602D-05 -0.11175017D-03
  0.21347298D-04 -0.11087674D-05 -0.12607339D-03  0.30259773D-03  0.29199756D-05
  0.31377686D-06 -0.16163828D-04  0.44381555D-04 -0.15955179D-05  0.97916918D-04
 -0.76454494D-04  0.65418728D-06 -0.49425435D-04 -0.56690170D-04 -0.11369454D-05
MO    3     MO 0.0        OCC NO =    2.0000101  ORB. ENERGY =    0.000000
  0.19846896D+00  0.36998613D+00  0.62532697D+00  0.93998307D+00  0.11546008D+01
  0.97444238D+00  0.36641578D+00  0.26896274D-04  0.20103299D-03  0.75130617D-03
  0.20960272D-02  0.28080986D-02 -0.33158409D-02  0.15833745D-01  0.35041546D-03
  0.13339419D-03 -0.94951854D-04 -0.89023399D-04 -0.63389963D-04 -0.36585767D-06
 -0.34301482D-06 -0.24424699D-06 -0.73344663D-02 -0.68765283D-02 -0.48964978D-02
 -0.20931264D-04 -0.82178714D-07  0.59730368D-03 -0.41079836D-05 -0.28982310D-07
  0.53551660D-03  0.26151931D-07  0.35078788D-09  0.65096413D-05 -0.68155300D-03
  0.55250866D-03  0.12904434D-03 -0.11693898D-04 -0.34626752D-04 -0.30278432D-06
  0.20613867D-03 -0.24526807D-03  0.39129401D-04  0.42774600D-05  0.13824344D-04
  0.76793290D-07 -0.92368895D-05 -0.38354769D-04  0.47591659D-04  0.27590872D-06
 -0.86806433D-06  0.41326303D-09  0.18014942D-05  0.19571613D-07 -0.73812497D-05
  0.41430542D-05 -0.39680997D-07  0.25984125D-03 -0.95475369D-05 -0.19033843D-07
 -0.23769750D-03  0.47151018D-05 -0.87734279D-06 -0.14355527D-07 -0.14804087D-03
 -0.18264219D-05  0.65247961D-08  0.23463697D-06  0.44584503D-05  0.36541783D-07
  0.44388797D-03 -0.42043166D-05 -0.99296308D-01 -0.18564445D+00 -0.32084879D+00
 -0.51895969D+00 -0.78439021D+00 -0.10802677D+01 -0.12627014D+01 -0.10913119D+01
 -0.50932097D+00 -0.69001815D-01  0.50468921D-03 -0.12516495D-02 -0.16089828D-01
 -0.58693380D-01 -0.19803001D+00 -0.43496276D+00 -0.56185325D+00  0.90294597D-01
  0.75746434D+00  0.41568666D+00 -0.55001170D-05 -0.62649751D-04 -0.13008347D-03
 -0.35769650D-03  0.46379459D-04  0.16173407D-02  0.40339045D-02 -0.33392077D-02
  0.24968153D-01 -0.17600128D-02 -0.19260472D-03  0.25320751D+00  0.33219385D+00
  0.36434476D+00  0.29977189D+00  0.15802270D+00  0.41114533D-01  0.11753381D-02
  0.15419768D-02  0.16912148D-02  0.13914806D-02  0.73350944D-03  0.19084536D-03
 -0.50342185D+01 -0.66046084D+01 -0.72438260D+01 -0.59600018D+01 -0.31417741D+01
 -0.81743052D+00  0.15356660D-05  0.55123699D-04  0.87455130D-04  0.10385028D-03
  0.15715285D-04 -0.11437290D-03  0.73733536D-08  0.26467118D-06  0.41990746D-06
  0.49862723D-06  0.75455443D-07 -0.54915057D-06 -0.40931279D-04 -0.14692541D-02
 -0.23310085D-02 -0.27680010D-02 -0.41887152D-03  0.30484684D-02  0.18984268D-02
  0.88226765D-05 -0.39561035D-01  0.36242042D-06 -0.47651682D-08  0.43488364D-03
 -0.46038774D-06 -0.22677436D-08  0.62985077D-05  0.27875997D-03  0.20492372D-03
 -0.48368369D-03  0.69971444D-06  0.14936508D-04  0.84225109D-07 -0.30890544D-04
 -0.29522613D-03  0.32611668D-03  0.25051302D-05 -0.15496640D-05  0.62201000D-08
  0.85745110D-05  0.97032796D-05 -0.18277791D-04 -0.10692171D-07 -0.62856056D-06
 -0.17046768D-08  0.24967115D-05  0.31915023D-09  0.11304861D-03 -0.58037712D-06
  0.41846549D-07 -0.27360832D-03 -0.69097575D-05 -0.42803999D-07 -0.65537509D-04
 -0.19718720D-05  0.18255304D-06  0.38655928D-08  0.27188070D-04  0.72466032D-06
 -0.38040485D-08 -0.56061067D-04 -0.12723194D-05 -0.77927301D-08 -0.25503143D-04
 -0.28959076D-06 -0.51732675D-01 -0.96429794D-01 -0.16346998D+00 -0.24751566D+00
 -0.30944910D+00 -0.26618171D+00 -0.10208642D+00 -0.81974703D-05 -0.10851916D-03
 -0.39416133D-03 -0.11692721D-02 -0.13473500D-02  0.16365572D-02 -0.44412370D-02
  0.10956660D-02  0.14475058D-03  0.22332808D-03  0.21840999D-03  0.14431271D-03
 -0.46345281D-02 -0.45324673D-02 -0.29947928D-02 -0.11890526D-02 -0.11628675D-02
 -0.76835570D-03  0.45518576D-04 -0.49350691D-03  0.22175325D-03  0.70191881D-05
 -0.54373515D-04  0.19659068D-03 -0.41428301D-07 -0.27815636D-05  0.28548949D-04
 -0.15312640D-03  0.17239566D-03 -0.19269263D-04 -0.13916405D-04 -0.55174886D-05
  0.41203116D-03  0.10920974D-03 -0.36514613D-04 -0.72695130D-04  0.40160398D-05
  0.23213832D-06 -0.29012708D-03  0.82659610D-04 -0.28018861D-04 -0.54640749D-04
  0.15461726D-05  0.41529403D-06  0.74163863D-04  0.46908028D-05  0.11215206D-03
  0.22934465D-03 -0.16509462D-04 -0.34782422D-03 -0.22721871D-03  0.24370535D-05
  0.11368022D-04 -0.46081525D-03 -0.33320479D-05 -0.34819459D-05 -0.24265784D-04
 -0.67486939D-04  0.10057625D-04  0.31425666D-03  0.27097457D-03  0.38821277D-06
 -0.24145931D-03 -0.68513749D-04  0.91609535D-05 -0.51734958D-01 -0.96434050D-01
 -0.16347720D+00 -0.24752659D+00 -0.30946275D+00 -0.26619346D+00 -0.10209092D+00
 -0.81980161D-05 -0.10852638D-03 -0.39418757D-03 -0.11693500D-02 -0.13474397D-02
  0.16366662D-02 -0.44414164D-02  0.10956685D-02  0.14476823D-03  0.17940371D-03
  0.17545291D-03  0.11592915D-03  0.46368950D-02  0.45347820D-02  0.29963222D-02
 -0.11894545D-02 -0.11632606D-02 -0.76861543D-03  0.40840979D-04  0.49405878D-03
  0.22166567D-03  0.65039735D-05  0.54559252D-04  0.19661167D-03 -0.67780908D-07
  0.27811012D-05  0.28550072D-04 -0.15320024D-03  0.17249626D-03 -0.19296026D-04
  0.77459992D-05 -0.16129506D-05 -0.41200660D-03  0.10926254D-03 -0.36563562D-04
 -0.72698982D-04 -0.12542300D-05 -0.25172854D-05  0.29020239D-03  0.82677904D-04
 -0.28054326D-04 -0.54623578D-04  0.55146050D-06  0.11182457D-05 -0.74146271D-04
  0.13932378D-05 -0.11229165D-03  0.22930764D-03 -0.67248068D-05  0.34819274D-03
 -0.22732042D-03  0.25450934D-05 -0.11317778D-04 -0.46060249D-03  0.77598509D-05
 -0.50301374D-06  0.24336138D-04 -0.67481204D-04  0.34092729D-05 -0.31445941D-03
  0.27105311D-03 -0.19002316D-05  0.24145100D-03 -0.68609501D-04 -0.27261589D-05
MO    4     MO 0.0        OCC NO =    2.0000090  ORB. ENERGY =    0.000000
 -0.63495563D-02 -0.11836852D-01 -0.20005893D-01 -0.30072588D-01 -0.36938788D-01
 -0.31175034D-01 -0.11722627D-01 -0.76704029D-06 -0.57331509D-05 -0.21426094D-04
 -0.59775466D-04 -0.80082645D-04  0.94562671D-04 -0.50870825D-03 -0.26236139D-04
 -0.58071426D-05 -0.39844295D-02 -0.37356560D-02 -0.26600096D-02 -0.18881786D-04
 -0.17702874D-04 -0.12605501D-04  0.18207731D-03  0.17070905D-03  0.12155501D-03
 -0.78989593D-03 -0.37437674D-05 -0.21463231D-04 -0.12185706D-03 -0.57700915D-06
 -0.31287745D-04  0.20121906D-05  0.95307905D-08 -0.23690098D-06  0.24631218D-04
 -0.15159741D-04 -0.94714778D-05  0.38170187D-06 -0.10061662D-02 -0.47629323D-05
 -0.45158737D-05  0.54369978D-05 -0.92112406D-06 -0.11323149D-06  0.46210684D-03
  0.21893563D-05  0.50163716D-06  0.17899582D-05 -0.22915954D-05 -0.12557752D-07
 -0.27553499D-04 -0.13064185D-06  0.10237778D-03  0.20505124D-06 -0.19934840D-05
  0.43258203D-04  0.10461023D-05 -0.69893181D-05 -0.35039155D-03 -0.16612560D-05
  0.12969770D-04 -0.16497606D-06 -0.31233734D-04 -0.34339825D-06  0.30136871D-05
 -0.72494294D-04  0.24291826D-06  0.23760084D-05  0.16619550D-03  0.78727649D-06
 -0.11417070D-04  0.13658524D-06  0.20918706D-02  0.39109628D-02  0.67593063D-02
  0.10932899D-01  0.16524711D-01  0.22757949D-01  0.26601271D-01  0.22990617D-01
  0.10729841D-01  0.14536580D-02 -0.10632264D-04  0.26407722D-04  0.33946860D-03
  0.12383327D-02  0.41781037D-02  0.91769905D-02  0.11854169D-01 -0.19050658D-02
 -0.15981237D-01 -0.87702969D-02  0.10676446D-06  0.12161136D-05  0.25250903D-05
  0.69433569D-05 -0.90028596D-06 -0.31394698D-04 -0.78303362D-04  0.64818389D-04
 -0.53226193D-03  0.71878522D-04  0.94411002D-05  0.97240593D+01  0.12757413D+02
  0.13992121D+02  0.11512296D+02  0.60686276D+01  0.15789428D+01  0.46076166D-01
  0.60449309D-01  0.66299809D-01  0.54549486D-01  0.28755387D-01  0.74816109D-02
  0.12047087D+00  0.15805093D+00  0.17334767D+00  0.14262524D+00  0.75183916D-01
  0.19561441D-01  0.57384916D-04  0.20598678D-02  0.32680319D-02  0.38806876D-02
  0.58725032D-03 -0.42738978D-02  0.27190711D-06  0.97602774D-05  0.15484925D-04
  0.18387873D-04  0.27825699D-05 -0.20251022D-04  0.11059628D-05  0.39699234D-04
  0.62983830D-04  0.74791366D-04  0.11317905D-04 -0.82369592D-04  0.73269751D-01
  0.34717883D-03  0.96294417D-03  0.18188778D-04  0.86240310D-07 -0.18251370D-04
 -0.17761147D-04 -0.84156545D-07 -0.35511380D-06 -0.75889313D-05 -0.50340617D-05
  0.12622993D-04 -0.25629323D-07  0.57540420D-03  0.27262621D-05 -0.10950856D-05
  0.58885675D-05 -0.47934819D-05 -0.63725022D-07 -0.25505541D-03 -0.12089379D-05
 -0.34153477D-06 -0.44423902D-06  0.78577379D-06  0.89325536D-09 -0.20057731D-04
 -0.95044880D-07  0.83263847D-04 -0.14700871D-06 -0.41253607D-05 -0.31003665D-04
  0.14774579D-05  0.99901207D-05 -0.21878788D-03 -0.10364318D-05  0.23859615D-05
  0.73295705D-07  0.88762643D-05  0.13205533D-06 -0.43459828D-06  0.27869810D-04
 -0.13795071D-06  0.10338109D-05 -0.54498603D-04 -0.25821529D-06  0.26998394D-06
  0.77635993D-08  0.17085165D-02  0.31846778D-02  0.53987383D-02  0.81744200D-02
  0.10219825D-01  0.87908825D-02  0.33714926D-02  0.25493013D-06  0.33747976D-05
  0.12257879D-04  0.36362766D-04  0.41900744D-04 -0.50894694D-04  0.14723555D-03
 -0.30609600D-04 -0.79949619D-05  0.63841868D-02  0.62435952D-02  0.41254074D-02
  0.18253315D-03  0.17851343D-03  0.11795137D-03  0.88681697D-04  0.86728763D-04
  0.57305361D-04  0.15009677D-02  0.27183690D-04  0.50525993D-05  0.34647228D-03
  0.41135884D-05  0.33147789D-05 -0.78340186D-06 -0.74129017D-07 -0.13501197D-05
  0.59930446D-05 -0.64677454D-05  0.47470077D-06 -0.36575774D-03 -0.14680667D-03
 -0.18509959D-04 -0.33207311D-05  0.23348841D-05  0.98584697D-06  0.10216910D-03
 -0.57111377D-04  0.11015624D-04 -0.31010371D-05  0.38180838D-06  0.27192288D-05
  0.11882850D-04  0.80156934D-04  0.23224081D-05  0.79236444D-05 -0.21651398D-05
 -0.56006010D-05 -0.12476362D-03  0.10513037D-04  0.15548879D-04  0.10099269D-03
 -0.40176175D-05  0.12529242D-05 -0.60535846D-03 -0.45064865D-05  0.50394481D-06
  0.81506929D-06  0.74414566D-04 -0.10475780D-04 -0.11434938D-04 -0.60895106D-04
  0.89639457D-05  0.89897305D-05  0.21873835D-03  0.17086001D-02  0.31848335D-02
  0.53990024D-02  0.81748197D-02  0.10220325D-01  0.87913124D-02  0.33716575D-02
  0.25494790D-06  0.33750329D-05  0.12258733D-04  0.36365302D-04  0.41903665D-04
 -0.50898243D-04  0.14724231D-03 -0.30609365D-04 -0.79953925D-05  0.63857580D-02
  0.62451318D-02  0.41264226D-02 -0.12203966D-03 -0.11935212D-03 -0.78860991D-04
  0.88696114D-04  0.86742863D-04  0.57314677D-04  0.15012008D-02 -0.12962989D-04
  0.50562340D-05  0.34652776D-03 -0.83341563D-06  0.33153248D-05 -0.78413361D-06
  0.66656685D-07 -0.13501840D-05  0.25250160D-05 -0.30002102D-05  0.47519419D-06
  0.36597024D-03 -0.14700647D-03  0.17115890D-04 -0.23529991D-05  0.13669247D-05
  0.98607438D-06 -0.10227710D-03 -0.56998024D-04 -0.11559401D-04 -0.29885564D-05
  0.26958443D-06  0.27189719D-05 -0.11956940D-04  0.80189088D-04 -0.15633204D-05
  0.80187759D-05  0.98237535D-06 -0.55996019D-05 -0.12499770D-03 -0.79215934D-05
  0.98128168D-05  0.10094137D-03  0.49744673D-05  0.69859890D-05  0.60558418D-03