 Entering Gaussian System, Link 0=/home/bruns/programas/chemistry/gaussian/g09/g09
 Input=GAUSSIAN.com
 Output=GAUSSIAN.log
 Initial command:
 /home/bruns/programas/chemistry/gaussian/g09/l1.exe /home/bruns/programas/chemistry/gaussian/work/Gau-37323.inp -scrdir=/home/bruns/programas/chemistry/gaussian/work/
 Entering Link 1 = /home/bruns/programas/chemistry/gaussian/g09/l1.exe PID=     37325.
  
 Copyright (c) 1988,1990,1992,1993,1995,1998,2003,2009,2010,
            Gaussian, Inc.  All Rights Reserved.
  
 This is part of the Gaussian(R) 09 program.  It is based on
 the Gaussian(R) 03 system (copyright 2003, Gaussian, Inc.),
 the Gaussian(R) 98 system (copyright 1998, Gaussian, Inc.),
 the Gaussian(R) 94 system (copyright 1995, Gaussian, Inc.),
 the Gaussian 92(TM) system (copyright 1992, Gaussian, Inc.),
 the Gaussian 90(TM) system (copyright 1990, Gaussian, Inc.),
 the Gaussian 88(TM) system (copyright 1988, Gaussian, Inc.),
 the Gaussian 86(TM) system (copyright 1986, Carnegie Mellon
 University), and the Gaussian 82(TM) system (copyright 1983,
 Carnegie Mellon University). Gaussian is a federally registered
 trademark of Gaussian, Inc.
  
 This software contains proprietary and confidential information,
 including trade secrets, belonging to Gaussian, Inc.
  
 This software is provided under written license and may be
 used, copied, transmitted, or stored only in accord with that
 written license.
  
 The following legend is applicable only to US Government
 contracts under FAR:
  
                    RESTRICTED RIGHTS LEGEND
  
 Use, reproduction and disclosure by the US Government is
 subject to restrictions as set forth in subparagraphs (a)
 and (c) of the Commercial Computer Software - Restricted
 Rights clause in FAR 52.227-19.
  
 Gaussian, Inc.
 340 Quinnipiac St., Bldg. 40, Wallingford CT 06492
  
  
 ---------------------------------------------------------------
 Warning -- This program may not be used in any manner that
 competes with the business of Gaussian, Inc. or will provide
 assistance to any competitor of Gaussian, Inc.  The licensee
 of this program is prohibited from giving any competitor of
 Gaussian, Inc. access to this program.  By using this program,
 the user acknowledges that Gaussian, Inc. is engaged in the
 business of creating and licensing software in the field of
 computational chemistry and represents and warrants to the
 licensee that it is not a competitor of Gaussian, Inc. and that
 it will not use this program in any manner prohibited above.
 ---------------------------------------------------------------
  

 Cite this work as:
 Gaussian 09, Revision B.01,
 M. J. Frisch, G. W. Trucks, H. B. Schlegel, G. E. Scuseria, 
 M. A. Robb, J. R. Cheeseman, G. Scalmani, V. Barone, B. Mennucci, 
 G. A. Petersson, H. Nakatsuji, M. Caricato, X. Li, H. P. Hratchian, 
 A. F. Izmaylov, J. Bloino, G. Zheng, J. L. Sonnenberg, M. Hada, 
 M. Ehara, K. Toyota, R. Fukuda, J. Hasegawa, M. Ishida, T. Nakajima, 
 Y. Honda, O. Kitao, H. Nakai, T. Vreven, J. A. Montgomery, Jr., 
 J. E. Peralta, F. Ogliaro, M. Bearpark, J. J. Heyd, E. Brothers, 
 K. N. Kudin, V. N. Staroverov, T. Keith, R. Kobayashi, J. Normand, 
 K. Raghavachari, A. Rendell, J. C. Burant, S. S. Iyengar, J. Tomasi, 
 M. Cossi, N. Rega, J. M. Millam, M. Klene, J. E. Knox, J. B. Cross, 
 V. Bakken, C. Adamo, J. Jaramillo, R. Gomperts, R. E. Stratmann, 
 O. Yazyev, A. J. Austin, R. Cammi, C. Pomelli, J. W. Ochterski, 
 R. L. Martin, K. Morokuma, V. G. Zakrzewski, G. A. Voth, 
 P. Salvador, J. J. Dannenberg, S. Dapprich, A. D. Daniels, 
 O. Farkas, J. B. Foresman, J. V. Ortiz, J. Cioslowski, 
 and D. J. Fox, Gaussian, Inc., Wallingford CT, 2010.
 
 ******************************************
 Gaussian 09:  EM64L-G09RevB.01 12-Aug-2010
                27-Nov-2021 
 ******************************************
 %nproc=8
 Will use up to    8 processors via shared memory.
 %mem=8GB
 -----------------------------------------------------
 # qcisd/aug-cc-pvtz nosymm density=current output=wfn
 -----------------------------------------------------
 1/30=1,38=1/1;
 2/12=2,15=1,17=6,18=5,40=1/2;
 3/5=16,6=1,7=10,11=9,16=1,25=1,30=1,71=1/1,2,3;
 4//1;
 5/5=2,38=5/2;
 8/6=4,9=120000,10=1/1,4;
 9/5=8,15=1/13;
 11/28=-7,31=1,32=3,42=3/11;
 10/5=6,13=10,31=1/2;
 6/7=2,8=2,9=2,10=2,22=-1,31=1/1;
 99/5=1,6=1100,9=1/99;
 -----------------
 f2cs-wavefunction
 -----------------
 Symbolic Z-matrix:
 Charge =  0 Multiplicity = 1
 C                     0.        0.       -0.52035 
 S                     0.        0.        1.07852 
 F                     0.       -1.05522  -1.28554 
 F                     0.        1.05522  -1.29554 
 
                          Input orientation:                          
 ---------------------------------------------------------------------
 Center     Atomic      Atomic             Coordinates (Angstroms)
 Number     Number       Type             X           Y           Z
 ---------------------------------------------------------------------
      1          6           0        0.000000    0.000000   -0.520349
      2         16           0        0.000000    0.000000    1.078525
      3          9           0        0.000000   -1.055221   -1.285538
      4          9           0        0.000000    1.055221   -1.295538
 ---------------------------------------------------------------------
                    Distance matrix (angstroms):
                    1          2          3          4
     1  C    0.000000
     2  S    1.598874   0.000000
     3  F    1.303459   2.588877   0.000000
     4  F    1.309355   2.598012   2.110466   0.000000
 Symmetry turned off by external request.
 Stoichiometry    CF2S
 Framework group  CS[SG(CF2S)]
 Deg. of freedom     5
 Full point group                 CS      NOp   2
 Rotational constants (GHZ):     11.9451222      5.1334879      3.5904643
 Standard basis: Aug-CC-pVTZ (5D, 7F)
 Integral buffers will be    131072 words long.
 Raffenetti 1 integral format.
 Two-electron integral symmetry is turned off.
   188 basis functions,   330 primitive gaussians,   224 cartesian basis functions
    20 alpha electrons       20 beta electrons
       nuclear repulsion energy       154.5948327550 Hartrees.
 NAtoms=    4 NActive=    4 NUniq=    4 SFac= 1.00D+00 NAtFMM=   50 NAOKFM=F Big=F
 One-electron integrals computed using PRISM.
 NBasis=   188 RedAO= T  NBF=   188
 NBsUse=   188 1.00D-06 NBFU=   188
 Harris functional with IExCor=  205 diagonalized for initial guess.
 ExpMin= 3.51D-02 ExpMax= 3.74D+05 ExpMxC= 1.18D+03 IAcc=3 IRadAn=         0 AccDes= 0.00D+00
 HarFok:  IExCor=  205 AccDes= 0.00D+00 IRadAn=         0 IDoV= 1
 ScaDFX=  1.000000  1.000000  1.000000  1.000000
 FoFCou: FMM=F IPFlag=           0 FMFlag=      100000 FMFlg1=           0
         NFxFlg=           0 DoJE=T BraDBF=F KetDBF=T FulRan=T
         Omega=  0.000000  0.000000  1.000000  0.000000  0.000000 ICntrl=     500 IOpCl=  0
         NMat0=    1 NMatS0=    1 NMatT0=    0 NMatD0=    1 NMtDS0=    0 NMtDT0=    0
         I1Cent=           4 NGrid=           0.
 Symmetry not used in FoFCou.
 Requested convergence on RMS density matrix=1.00D-08 within 128 cycles.
 Requested convergence on MAX density matrix=1.00D-06.
 Requested convergence on             energy=1.00D-06.
 No special actions if energy rises.
 Keep R1 ints in memory in canonical form, NReq=323399632.
 SCF Done:  E(RHF) =  -634.357183855     A.U. after   12 cycles
             Convg  =    0.7240D-08             -V/T =  2.0005
 ExpMin= 3.51D-02 ExpMax= 3.74D+05 ExpMxC= 1.18D+03 IAcc=3 IRadAn=         5 AccDes= 0.00D+00
 HarFok:  IExCor=  205 AccDes= 0.00D+00 IRadAn=         5 IDoV=-2
 ScaDFX=  1.000000  1.000000  1.000000  1.000000
 Range of M.O.s used for correlation:     9   188
 NBasis=   188 NAE=    20 NBE=    20 NFC=     8 NFV=     0
 NROrb=    180 NOA=    12 NOB=    12 NVA=   168 NVB=   168

 **** Warning!!: The largest alpha MO coefficient is  0.28507623D+02

 Semi-Direct transformation.
 ModeAB=           2 MOrb=            12 LenV=    1072746503
 LASXX=     33405819 LTotXX=    33405819 LenRXX=    33405819
 LTotAB=    33954012 MaxLAS=    54432000 LenRXY=    54432000
 NonZer=    66811638 LenScr=   100987392 LnRSAI=           0
 LnScr1=           0 LExtra=           0 Total=    188825211
 MaxDsk=          -1 SrtSym=           F ITran=            4
 JobTyp=0 Pass  1:  I=   1 to  12.
 (rs|ai) integrals will be sorted in core.
 Spin components of T(2) and E(2):
     alpha-alpha T2 =       0.3009328877D-01 E2=     -0.1103614623D+00
     alpha-beta  T2 =       0.1595452636D+00 E2=     -0.6183958496D+00
     beta-beta   T2 =       0.3009328877D-01 E2=     -0.1103614623D+00
 ANorm=    0.1104414705D+01
 E2 =    -0.8391187742D+00 EUMP2 =    -0.63519630262929D+03
 R2 and R3 integrals will be kept in memory, NReq=   640760400.
 Iterations=  50 Convergence= 0.100D-07
 Iteration Nr.   1
 **********************
 DD1Dir will call FoFMem   1 times, MxPair=       156
 NAB=    78 NAA=     0 NBB=     0.
 MP4(R+Q)=  0.19315388D-01
 E3=       -0.35178770D-02        EUMP3=      -0.63519982051D+03
 E4(DQ)=    0.24501920D-02        UMP4(DQ)=   -0.63519737031D+03
 E4(SDQ)=  -0.83505156D-02        UMP4(SDQ)=  -0.63520817102D+03
 DE(Corr)= -0.82332126     E(Corr)=     -635.18050512    
 NORM(A)=   0.11037139D+01
 Iteration Nr.   2
 **********************
 DD1Dir will call FoFMem   1 times, MxPair=       156
 NAB=    78 NAA=     0 NBB=     0.
 DE(Corr)= -0.84889297     E(CORR)=     -635.20607682     Delta=-2.56D-02
 NORM(A)=   0.11126107D+01
 Iteration Nr.   3
 **********************
 DD1Dir will call FoFMem   1 times, MxPair=       156
 NAB=    78 NAA=     0 NBB=     0.
 DE(Corr)= -0.84724492     E(CORR)=     -635.20442878     Delta= 1.65D-03
 NORM(A)=   0.11154340D+01
 Iteration Nr.   4
 **********************
 DD1Dir will call FoFMem   1 times, MxPair=       156
 NAB=    78 NAA=     0 NBB=     0.
 DE(Corr)= -0.84976002     E(CORR)=     -635.20694387     Delta=-2.52D-03
 NORM(A)=   0.11165387D+01
 Iteration Nr.   5
 **********************
 DD1Dir will call FoFMem   1 times, MxPair=       156
 NAB=    78 NAA=     0 NBB=     0.
 DE(Corr)= -0.85005885     E(CORR)=     -635.20724271     Delta=-2.99D-04
 NORM(A)=   0.11168628D+01
 Iteration Nr.   6
 **********************
 DD1Dir will call FoFMem   1 times, MxPair=       156
 NAB=    78 NAA=     0 NBB=     0.
 DE(Corr)= -0.85009802     E(CORR)=     -635.20728188     Delta=-3.92D-05
 NORM(A)=   0.11169111D+01
 Iteration Nr.   7
 **********************
 DD1Dir will call FoFMem   1 times, MxPair=       156
 NAB=    78 NAA=     0 NBB=     0.
 DE(Corr)= -0.85010228     E(CORR)=     -635.20728614     Delta=-4.26D-06
 NORM(A)=   0.11169112D+01
 Iteration Nr.   8
 **********************
 DD1Dir will call FoFMem   1 times, MxPair=       156
 NAB=    78 NAA=     0 NBB=     0.
 DE(Corr)= -0.85010075     E(CORR)=     -635.20728460     Delta= 1.54D-06
 NORM(A)=   0.11169165D+01
 Iteration Nr.   9
 **********************
 DD1Dir will call FoFMem   1 times, MxPair=       156
 NAB=    78 NAA=     0 NBB=     0.
 DE(Corr)= -0.85010056     E(CORR)=     -635.20728442     Delta= 1.88D-07
 NORM(A)=   0.11169168D+01
 Iteration Nr.  10
 **********************
 DD1Dir will call FoFMem   1 times, MxPair=       156
 NAB=    78 NAA=     0 NBB=     0.
 DE(Corr)= -0.85010058     E(CORR)=     -635.20728443     Delta=-1.64D-08
 NORM(A)=   0.11169183D+01
 Iteration Nr.  11
 **********************
 DD1Dir will call FoFMem   1 times, MxPair=       156
 NAB=    78 NAA=     0 NBB=     0.
 DE(Corr)= -0.85010140     E(CORR)=     -635.20728525     Delta=-8.21D-07
 NORM(A)=   0.11169197D+01
 Iteration Nr.  12
 **********************
 DD1Dir will call FoFMem   1 times, MxPair=       156
 NAB=    78 NAA=     0 NBB=     0.
 DE(Corr)= -0.85010162     E(CORR)=     -635.20728547     Delta=-2.17D-07
 NORM(A)=   0.11169204D+01
 Iteration Nr.  13
 **********************
 DD1Dir will call FoFMem   1 times, MxPair=       156
 NAB=    78 NAA=     0 NBB=     0.
 DE(Corr)= -0.85010190     E(CORR)=     -635.20728575     Delta=-2.84D-07
 NORM(A)=   0.11169209D+01
 Iteration Nr.  14
 **********************
 DD1Dir will call FoFMem   1 times, MxPair=       156
 NAB=    78 NAA=     0 NBB=     0.
 DE(Corr)= -0.85010196     E(CORR)=     -635.20728581     Delta=-5.65D-08
 NORM(A)=   0.11169210D+01
 Iteration Nr.  15
 **********************
 DD1Dir will call FoFMem   1 times, MxPair=       156
 NAB=    78 NAA=     0 NBB=     0.
 DE(Corr)= -0.85010200     E(CORR)=     -635.20728585     Delta=-3.94D-08
 NORM(A)=   0.11169211D+01
 Iteration Nr.  16
 **********************
 DD1Dir will call FoFMem   1 times, MxPair=       156
 NAB=    78 NAA=     0 NBB=     0.
 DE(Corr)= -0.85010201     E(CORR)=     -635.20728586     Delta=-1.20D-08
 NORM(A)=   0.11169211D+01
 Iteration Nr.  17
 **********************
 DD1Dir will call FoFMem   1 times, MxPair=       156
 NAB=    78 NAA=     0 NBB=     0.
 DE(Corr)= -0.85010200     E(CORR)=     -635.20728586     Delta= 6.12D-09
 NORM(A)=   0.11169211D+01
 Iteration Nr.  18
 **********************
 DD1Dir will call FoFMem   1 times, MxPair=       156
 NAB=    78 NAA=     0 NBB=     0.
 DE(Corr)= -0.85010200     E(CORR)=     -635.20728586     Delta=-3.93D-09
 NORM(A)=   0.11169211D+01
 Iteration Nr.  19
 **********************
 DD1Dir will call FoFMem   1 times, MxPair=       156
 NAB=    78 NAA=     0 NBB=     0.
 DE(Corr)= -0.85010200     E(CORR)=     -635.20728586     Delta= 2.08D-09
 NORM(A)=   0.11169211D+01
 Largest amplitude= 8.46D-02

 Z-AMPLITUDE ITERATIONS

 Iteration Nr.   1
 **********************
 DD1Dir will call FoFMem   1 times, MxPair=       156
 NAB=    78 NAA=     0 NBB=     0.
 DE(Z)  -0.82625389D+00          E(Z)=    -0.63518343774D+03
 NORM(A)=   0.11168903D+01
 Iteration Nr.   2
 **********************
 DD1Dir will call FoFMem   1 times, MxPair=       156
 NAB=    78 NAA=     0 NBB=     0.
 DE(Z)  -0.82625382D+00          E(Z)=    -0.63518343768D+03
 NORM(A)=   0.11168186D+01
 Iteration Nr.   3
 **********************
 DD1Dir will call FoFMem   1 times, MxPair=       156
 NAB=    78 NAA=     0 NBB=     0.
 DE(Z)  -0.82625224D+00          E(Z)=    -0.63518343610D+03
 NORM(A)=   0.11168199D+01
 Iteration Nr.   4
 **********************
 DD1Dir will call FoFMem   1 times, MxPair=       156
 NAB=    78 NAA=     0 NBB=     0.
 DE(Z)  -0.82625255D+00          E(Z)=    -0.63518343641D+03
 NORM(A)=   0.11162387D+01
 Iteration Nr.   5
 **********************
 DD1Dir will call FoFMem   1 times, MxPair=       156
 NAB=    78 NAA=     0 NBB=     0.
 DE(Z)  -0.82624199D+00          E(Z)=    -0.63518342584D+03
 NORM(A)=   0.11087093D+01
 Iteration Nr.   6
 **********************
 DD1Dir will call FoFMem   1 times, MxPair=       156
 NAB=    78 NAA=     0 NBB=     0.
 DE(Z)  -0.82611286D+00          E(Z)=    -0.63518329671D+03
 NORM(A)=   0.11087085D+01
 Iteration Nr.   7
 **********************
 DD1Dir will call FoFMem   1 times, MxPair=       156
 NAB=    78 NAA=     0 NBB=     0.
 DE(Z)  -0.82611055D+00          E(Z)=    -0.63518329440D+03
 NORM(A)=   0.11087046D+01
 Iteration Nr.   8
 **********************
 DD1Dir will call FoFMem   1 times, MxPair=       156
 NAB=    78 NAA=     0 NBB=     0.
 DE(Z)  -0.82611124D+00          E(Z)=    -0.63518329509D+03
 NORM(A)=   0.11087039D+01
 Iteration Nr.   9
 **********************
 DD1Dir will call FoFMem   1 times, MxPair=       156
 NAB=    78 NAA=     0 NBB=     0.
 DE(Z)  -0.82611154D+00          E(Z)=    -0.63518329539D+03
 NORM(A)=   0.11087041D+01
 Iteration Nr.  10
 **********************
 DD1Dir will call FoFMem   1 times, MxPair=       156
 NAB=    78 NAA=     0 NBB=     0.
 DE(Z)  -0.82611118D+00          E(Z)=    -0.63518329503D+03
 NORM(A)=   0.11087042D+01
 Iteration Nr.  11
 **********************
 DD1Dir will call FoFMem   1 times, MxPair=       156
 NAB=    78 NAA=     0 NBB=     0.
 DE(Z)  -0.82611141D+00          E(Z)=    -0.63518329527D+03
 NORM(A)=   0.11087043D+01
 Iteration Nr.  12
 **********************
 DD1Dir will call FoFMem   1 times, MxPair=       156
 NAB=    78 NAA=     0 NBB=     0.
 DE(Z)  -0.82611140D+00          E(Z)=    -0.63518329525D+03
 NORM(A)=   0.11087044D+01
 Iteration Nr.  13
 **********************
 DD1Dir will call FoFMem   1 times, MxPair=       156
 NAB=    78 NAA=     0 NBB=     0.
 DE(Z)  -0.82611142D+00          E(Z)=    -0.63518329527D+03
 NORM(A)=   0.11087044D+01
 Iteration Nr.  14
 **********************
 DD1Dir will call FoFMem   1 times, MxPair=       156
 NAB=    78 NAA=     0 NBB=     0.
 DE(Z)  -0.82611142D+00          E(Z)=    -0.63518329527D+03
 NORM(A)=   0.11087044D+01
 Discarding MO integrals.
          Differentiating once with respect to electric field.
                with respect to dipole field.
          Electric field/nuclear overlap derivatives assumed to be zero.
          Keep R1 ints in memory in canonical form, NReq=319473719.
          There are     1 degrees of freedom in the 1st order CPHF.  IDoFFX=0.
 LinEq1:  Iter=  0 NonCon=     1 RMS=2.85D-03 Max=7.71D-02
 AX will form     1 AO Fock derivatives at one time.
 LinEq1:  Iter=  1 NonCon=     1 RMS=8.80D-04 Max=1.07D-02
 LinEq1:  Iter=  2 NonCon=     1 RMS=4.01D-04 Max=1.30D-02
 LinEq1:  Iter=  3 NonCon=     1 RMS=1.08D-04 Max=2.40D-03
 LinEq1:  Iter=  4 NonCon=     1 RMS=2.70D-05 Max=6.38D-04
 LinEq1:  Iter=  5 NonCon=     1 RMS=6.78D-06 Max=1.01D-04
 LinEq1:  Iter=  6 NonCon=     1 RMS=2.67D-06 Max=5.62D-05
 LinEq1:  Iter=  7 NonCon=     1 RMS=8.29D-07 Max=1.48D-05
 LinEq1:  Iter=  8 NonCon=     1 RMS=1.67D-07 Max=2.33D-06
 LinEq1:  Iter=  9 NonCon=     1 RMS=3.21D-08 Max=3.60D-07
 LinEq1:  Iter= 10 NonCon=     1 RMS=8.53D-09 Max=1.10D-07
 LinEq1:  Iter= 11 NonCon=     1 RMS=3.65D-09 Max=5.22D-08
 LinEq1:  Iter= 12 NonCon=     1 RMS=8.28D-10 Max=1.37D-08
 LinEq1:  Iter= 13 NonCon=     1 RMS=1.14D-10 Max=1.46D-09
 LinEq1:  Iter= 14 NonCon=     0 RMS=2.11D-11 Max=2.10D-10
 Linear equations converged to 1.000D-10 1.000D-09 after    14 iterations.
 End of Minotr Frequency-dependent properties file   721 does not exist.
 End of Minotr Frequency-dependent properties file   722 does not exist.

 **********************************************************************

            Population analysis using the QCI/CC density.

 **********************************************************************

     Natural Orbital Coefficients:
                           1         2         3         4         5
     Eigenvalues --     2.00003   2.00002   2.00001   2.00001   2.00000
   1 1   C  1S         -0.00163  -0.17789   0.59294   0.00000   0.48570
   2        2S          0.00005   0.00326  -0.00922   0.00000  -0.00498
   3        3S         -0.00006  -0.00681   0.02388   0.00000   0.02032
   4        4S         -0.00009  -0.00904   0.00229   0.00000  -0.00207
   5        5S          0.00002  -0.00083   0.00196   0.00000   0.00044
   6        6PX         0.00000   0.00000   0.00000  -0.00182   0.00000
   7        6PY        -0.00138   0.00002  -0.00001   0.00000   0.00000
   8        6PZ         0.00003   0.00136  -0.00336   0.00000  -0.00039
   9        7PX         0.00000   0.00000   0.00000  -0.00185   0.00000
  10        7PY        -0.00365   0.00002  -0.00001   0.00000   0.00000
  11        7PZ         0.00001  -0.00098   0.00139   0.00000   0.00162
  12        8PX         0.00000   0.00000   0.00000  -0.00121   0.00000
  13        8PY         0.00606  -0.00003   0.00000   0.00000   0.00000
  14        8PZ        -0.00002  -0.00925   0.00532   0.00000  -0.00102
  15        9PX         0.00000   0.00000   0.00000   0.00009   0.00000
  16        9PY        -0.00061   0.00000   0.00000   0.00000   0.00000
  17        9PZ         0.00001   0.00035   0.00030   0.00000   0.00054
  18       10D 0        0.00000  -0.00008   0.00006   0.00000   0.00019
  19       10D+1        0.00000   0.00000   0.00000  -0.00030   0.00000
  20       10D-1       -0.00030   0.00000   0.00000   0.00000   0.00000
  21       10D+2        0.00000   0.00011  -0.00037   0.00000  -0.00019
  22       10D-2        0.00000   0.00000   0.00000   0.00000   0.00000
  23       11D 0       -0.00002  -0.00117   0.00018   0.00000  -0.00031
  24       11D+1        0.00000   0.00000   0.00000   0.00121   0.00000
  25       11D-1        0.00103   0.00000  -0.00001   0.00000   0.00000
  26       11D+2       -0.00001  -0.00014   0.00118   0.00000   0.00084
  27       11D-2        0.00000   0.00000   0.00000   0.00001   0.00000
  28       12D 0        0.00002  -0.00271   0.00164   0.00000  -0.00135
  29       12D+1        0.00000   0.00000   0.00000  -0.00055   0.00000
  30       12D-1       -0.00443   0.00003  -0.00002   0.00000  -0.00002
  31       12D+2        0.00000  -0.00089   0.00058   0.00000  -0.00053
  32       12D-2        0.00000   0.00000   0.00000   0.00000   0.00000
  33       13F 0        0.00000  -0.00005  -0.00001   0.00000   0.00041
  34       13F+1        0.00000   0.00000   0.00000  -0.00018   0.00000
  35       13F-1       -0.00056   0.00000   0.00000   0.00000   0.00000
  36       13F+2        0.00000  -0.00010   0.00016   0.00000   0.00002
  37       13F-2        0.00000   0.00000   0.00000   0.00000   0.00000
  38       13F+3        0.00000   0.00000   0.00000   0.00002   0.00000
  39       13F-3        0.00005   0.00000   0.00000   0.00000   0.00000
  40       14F 0        0.00001   0.00062  -0.00195   0.00000  -0.00025
  41       14F+1        0.00000   0.00000   0.00000   0.00089   0.00000
  42       14F-1        0.00293  -0.00003   0.00003   0.00000  -0.00006
  43       14F+2        0.00000   0.00066  -0.00152   0.00000  -0.00090
  44       14F-2        0.00000   0.00000   0.00000   0.00000   0.00000
  45       14F+3        0.00000   0.00000   0.00000   0.00017   0.00000
  46       14F-3        0.00004  -0.00001   0.00001   0.00000  -0.00002
  47 2   S  1S         -0.00103  -0.21685  -0.17017   0.00000   0.07194
  48        2S          0.00349   0.74148   0.58834   0.00000  -0.24974
  49        3S         -0.00012  -0.02142  -0.00892   0.00000   0.00218
  50        4S          0.00023   0.04954   0.04245   0.00000  -0.01823
  51        5S          0.00003   0.01003  -0.01131   0.00000   0.00411
  52        6S         -0.00002   0.00102  -0.00259   0.00000  -0.00081
  53        7PX         0.00000   0.00000   0.00000   0.97269   0.00000
  54        7PY         0.97644  -0.00753   0.00276   0.00000  -0.00148
  55        7PZ         0.00731   0.62423  -0.50393   0.00000   0.43876
  56        8PX         0.00000   0.00000   0.00000  -0.01226   0.00000
  57        8PY        -0.02026   0.00015  -0.00005   0.00000   0.00005
  58        8PZ        -0.00015  -0.01236   0.00874   0.00000  -0.00446
  59        9PX         0.00000   0.00000   0.00000   0.06130   0.00000
  60        9PY         0.05654  -0.00045   0.00017   0.00000  -0.00010
  61        9PZ         0.00044   0.03860  -0.03313   0.00000   0.02894
  62       10PX         0.00000   0.00000   0.00000   0.00019   0.00000
  63       10PY        -0.00428   0.00002   0.00001   0.00000   0.00002
  64       10PZ        -0.00008  -0.00883   0.00484   0.00000  -0.00067
  65       11PX         0.00000   0.00000   0.00000  -0.00082   0.00000
  66       11PY        -0.00034   0.00000   0.00000   0.00000   0.00000
  67       11PZ         0.00000  -0.00030   0.00030   0.00000  -0.00003
  68       12D 0        0.00003   0.00246  -0.00293   0.00000   0.00107
  69       12D+1        0.00000   0.00000   0.00000   0.00201   0.00000
  70       12D-1        0.00338  -0.00003   0.00002   0.00000  -0.00003
  71       12D+2        0.00000  -0.00040   0.00026   0.00000   0.00030
  72       12D-2        0.00000   0.00000   0.00000   0.00000   0.00000
  73       13D 0        0.00000   0.00019   0.00028   0.00000  -0.00070
  74       13D+1        0.00000   0.00000   0.00000  -0.00013   0.00000
  75       13D-1       -0.00028   0.00000   0.00000   0.00000   0.00000
  76       13D+2        0.00000   0.00026   0.00013   0.00000  -0.00008
  77       13D-2        0.00000   0.00000   0.00000   0.00000   0.00000
  78       14D 0        0.00002   0.00142  -0.00061   0.00000   0.00010
  79       14D+1        0.00000   0.00000   0.00000  -0.00039   0.00000
  80       14D-1       -0.00080   0.00001  -0.00001   0.00000   0.00000
  81       14D+2        0.00000   0.00025  -0.00002   0.00000   0.00013
  82       14D-2        0.00000   0.00000   0.00000   0.00000   0.00000
  83       15F 0        0.00000  -0.00023   0.00029   0.00000   0.00033
  84       15F+1        0.00000   0.00000   0.00000  -0.00023   0.00000
  85       15F-1       -0.00022   0.00000   0.00000   0.00000   0.00000
  86       15F+2        0.00000   0.00011  -0.00014   0.00000   0.00003
  87       15F-2        0.00000   0.00000   0.00000   0.00000   0.00000
  88       15F+3        0.00000   0.00000   0.00000   0.00009   0.00000
  89       15F-3        0.00006   0.00000   0.00000   0.00000   0.00000
  90       16F 0       -0.00001  -0.00047   0.00057   0.00000  -0.00047
  91       16F+1        0.00000   0.00000   0.00000  -0.00047   0.00000
  92       16F-1       -0.00104   0.00001  -0.00001   0.00000   0.00001
  93       16F+2        0.00000  -0.00001  -0.00016   0.00000  -0.00026
  94       16F-2        0.00000   0.00000   0.00000   0.00000   0.00000
  95       16F+3        0.00000   0.00000   0.00000  -0.00013   0.00000
  96       16F-3       -0.00012   0.00000   0.00000   0.00000   0.00000
  97 3   F  1S          0.00860   0.01098  -0.08545   0.00000  -0.48006
  98        2S          0.00017  -0.00046   0.00238   0.00000   0.00831
  99        3S          0.00046   0.00040  -0.00341   0.00000  -0.02041
 100        4S          0.00025  -0.00136   0.00379   0.00000   0.00182
 101        5S          0.00721  -0.00222   0.00125   0.00000  -0.00031
 102        6PX         0.00000   0.00000   0.00000   0.00095   0.00000
 103        6PY        -0.00019   0.00003  -0.00070   0.00000  -0.00172
 104        6PZ        -0.00058  -0.00013  -0.00017   0.00000  -0.00142
 105        7PX         0.00000   0.00000   0.00000   0.00119   0.00000
 106        7PY        -0.00031  -0.00006  -0.00040   0.00000  -0.00095
 107        7PZ        -0.00085  -0.00029   0.00017   0.00000  -0.00085
 108        8PX         0.00000   0.00000   0.00000   0.00129   0.00000
 109        8PY        -0.00054   0.00001  -0.00019   0.00000  -0.00116
 110        8PZ        -0.00280  -0.00026   0.00066   0.00000  -0.00139
 111        9PX         0.00000   0.00000   0.00000  -0.00002   0.00000
 112        9PY         0.00170  -0.00010  -0.00005   0.00000   0.00007
 113        9PZ         0.00019  -0.00110   0.00053   0.00000  -0.00068
 114       10D 0        0.00000   0.00001   0.00000   0.00000   0.00001
 115       10D+1        0.00000   0.00000   0.00000  -0.00001   0.00000
 116       10D-1        0.00001   0.00000   0.00002   0.00000   0.00002
 117       10D+2        0.00000   0.00001  -0.00002   0.00000   0.00002
 118       10D-2        0.00000   0.00000   0.00000  -0.00002   0.00000
 119       11D 0        0.00016   0.00001  -0.00006   0.00000  -0.00002
 120       11D+1        0.00000   0.00000   0.00000  -0.00003   0.00000
 121       11D-1       -0.00007   0.00005  -0.00014   0.00000  -0.00010
 122       11D+2        0.00004  -0.00002   0.00007   0.00000   0.00000
 123       11D-2        0.00000   0.00000   0.00000   0.00005   0.00000
 124       12D 0       -0.00047   0.00020  -0.00031   0.00000  -0.00003
 125       12D+1        0.00000   0.00000   0.00000   0.00025   0.00000
 126       12D-1       -0.00087  -0.00006   0.00021   0.00000  -0.00053
 127       12D+2        0.00040  -0.00017   0.00033   0.00000   0.00022
 128       12D-2        0.00000   0.00000   0.00000   0.00004   0.00000
 129       13F 0       -0.00001  -0.00002   0.00003   0.00000  -0.00001
 130       13F+1        0.00000   0.00000   0.00000   0.00001   0.00000
 131       13F-1        0.00003   0.00001   0.00000   0.00000   0.00002
 132       13F+2       -0.00001  -0.00001   0.00001   0.00000  -0.00004
 133       13F-2        0.00000   0.00000   0.00000  -0.00002   0.00000
 134       13F+3        0.00000   0.00000   0.00000   0.00001   0.00000
 135       13F-3       -0.00001   0.00001  -0.00002   0.00000   0.00001
 136       14F 0        0.00013   0.00006  -0.00009   0.00000   0.00014
 137       14F+1        0.00000   0.00000   0.00000  -0.00004   0.00000
 138       14F-1        0.00000   0.00003  -0.00014   0.00000  -0.00019
 139       14F+2        0.00007  -0.00001   0.00012   0.00000   0.00031
 140       14F-2        0.00000   0.00000   0.00000   0.00008   0.00000
 141       14F+3        0.00000   0.00000   0.00000  -0.00004   0.00000
 142       14F-3        0.00012  -0.00005   0.00015   0.00000   0.00001
 143 4   F  1S         -0.00819   0.01099  -0.08467   0.00000  -0.48548
 144        2S         -0.00019  -0.00045   0.00235   0.00000   0.00840
 145        3S         -0.00044   0.00040  -0.00338   0.00000  -0.02063
 146        4S         -0.00032  -0.00133   0.00376   0.00000   0.00185
 147        5S         -0.00719  -0.00210   0.00121   0.00000  -0.00030
 148        6PX         0.00000   0.00000   0.00000   0.00095   0.00000
 149        6PY        -0.00020  -0.00002   0.00069   0.00000   0.00171
 150        6PZ         0.00057  -0.00014  -0.00017   0.00000  -0.00143
 151        7PX         0.00000   0.00000   0.00000   0.00118   0.00000
 152        7PY        -0.00031   0.00007   0.00039   0.00000   0.00093
 153        7PZ         0.00084  -0.00031   0.00018   0.00000  -0.00085
 154        8PX         0.00000   0.00000   0.00000   0.00126   0.00000
 155        8PY        -0.00053  -0.00003   0.00022   0.00000   0.00108
 156        8PZ         0.00273  -0.00033   0.00075   0.00000  -0.00144
 157        9PX         0.00000   0.00000   0.00000  -0.00001   0.00000
 158        9PY         0.00169   0.00007   0.00005   0.00000  -0.00007
 159        9PZ        -0.00021  -0.00110   0.00053   0.00000  -0.00067
 160       10D 0        0.00000   0.00001   0.00000   0.00000   0.00001
 161       10D+1        0.00000   0.00000   0.00000  -0.00001   0.00000
 162       10D-1        0.00001   0.00000  -0.00002   0.00000  -0.00002
 163       10D+2        0.00000   0.00001  -0.00002   0.00000   0.00002
 164       10D-2        0.00000   0.00000   0.00000   0.00002   0.00000
 165       11D 0       -0.00015   0.00001  -0.00006   0.00000  -0.00003
 166       11D+1        0.00000   0.00000   0.00000  -0.00003   0.00000
 167       11D-1       -0.00007  -0.00004   0.00013   0.00000   0.00010
 168       11D+2       -0.00004  -0.00001   0.00007   0.00000  -0.00001
 169       11D-2        0.00000   0.00000   0.00000  -0.00005   0.00000
 170       12D 0        0.00047   0.00018  -0.00027   0.00000  -0.00007
 171       12D+1        0.00000   0.00000   0.00000   0.00024   0.00000
 172       12D-1       -0.00084   0.00007  -0.00023   0.00000   0.00053
 173       12D+2       -0.00040  -0.00017   0.00034   0.00000   0.00020
 174       12D-2        0.00000   0.00000   0.00000  -0.00003   0.00000
 175       13F 0        0.00001  -0.00002   0.00004   0.00000   0.00000
 176       13F+1        0.00000   0.00000   0.00000   0.00001   0.00000
 177       13F-1        0.00003  -0.00001   0.00000   0.00000  -0.00002
 178       13F+2        0.00000  -0.00001   0.00001   0.00000  -0.00004
 179       13F-2        0.00000   0.00000   0.00000   0.00002   0.00000
 180       13F+3        0.00000   0.00000   0.00000   0.00001   0.00000
 181       13F-3       -0.00002  -0.00001   0.00002   0.00000  -0.00001
 182       14F 0       -0.00013   0.00006  -0.00009   0.00000   0.00014
 183       14F+1        0.00000   0.00000   0.00000  -0.00003   0.00000
 184       14F-1       -0.00001  -0.00003   0.00014   0.00000   0.00019
 185       14F+2       -0.00007  -0.00001   0.00012   0.00000   0.00030
 186       14F-2        0.00000   0.00000   0.00000  -0.00008   0.00000
 187       14F+3        0.00000   0.00000   0.00000  -0.00003   0.00000
 188       14F-3        0.00012   0.00005  -0.00015   0.00000   0.00000
                           6         7         8         9        10
     Eigenvalues --     2.00000   2.00000   2.00000   1.98613   1.98548
   1 1   C  1S          0.00593   0.58621   0.00016  -0.04846  -0.00062
   2        2S         -0.00007  -0.00551  -0.00003   0.09967   0.00139
   3        3S          0.00025   0.02377   0.00002   0.02079   0.00026
   4        4S         -0.00005  -0.00196  -0.00004   0.01159   0.00037
   5        5S          0.00000   0.00066  -0.00007   0.00492   0.00014
   6        6PX         0.00000   0.00000   0.00000   0.00000   0.00000
   7        6PY        -0.00002   0.00000   0.00000  -0.00111   0.03372
   8        6PZ        -0.00001  -0.00096   0.00001  -0.02085  -0.00035
   9        7PX         0.00000   0.00000   0.00000   0.00000   0.00000
  10        7PY         0.00077  -0.00006   0.00000  -0.00095   0.02726
  11        7PZ         0.00003   0.00016  -0.00013  -0.02476  -0.00056
  12        8PX         0.00000   0.00000   0.00000   0.00000   0.00000
  13        8PY        -0.00060  -0.00001   0.00000   0.00063  -0.01823
  14        8PZ         0.00004   0.00221   0.00003   0.03677   0.00079
  15        9PX         0.00000   0.00000   0.00000   0.00000   0.00000
  16        9PY         0.00033   0.00000   0.00000  -0.00002   0.00142
  17        9PZ         0.00000   0.00028  -0.00003   0.00125   0.00002
  18       10D 0        0.00000   0.00023  -0.00001   0.00301   0.00013
  19       10D+1        0.00000   0.00000   0.00000   0.00000   0.00000
  20       10D-1       -0.00020   0.00001   0.00000   0.00028  -0.01048
  21       10D+2        0.00000  -0.00052   0.00000  -0.00852  -0.00008
  22       10D-2        0.00000   0.00000   0.00000   0.00000   0.00000
  23       11D 0        0.00000  -0.00049  -0.00008   0.00214   0.00009
  24       11D+1        0.00000   0.00000   0.00000   0.00000   0.00000
  25       11D-1       -0.00127   0.00004   0.00000   0.00026  -0.01063
  26       11D+2        0.00001  -0.00001  -0.00003  -0.01152  -0.00018
  27       11D-2        0.00000   0.00000   0.00000   0.00000   0.00000
  28       12D 0        0.00000  -0.00012  -0.00002   0.00705   0.00011
  29       12D+1        0.00000   0.00000   0.00000   0.00000   0.00000
  30       12D-1        0.00064   0.00000   0.00000  -0.00019   0.01331
  31       12D+2        0.00001   0.00027   0.00000   0.00857   0.00011
  32       12D-2        0.00000   0.00000   0.00000   0.00000   0.00000
  33       13F 0        0.00000   0.00062   0.00001   0.00278   0.00003
  34       13F+1        0.00000   0.00000   0.00000   0.00000   0.00000
  35       13F-1        0.00017   0.00000   0.00000   0.00000   0.00178
  36       13F+2        0.00000   0.00060   0.00001   0.00523   0.00010
  37       13F-2        0.00000   0.00000   0.00000   0.00000   0.00000
  38       13F+3        0.00000   0.00000   0.00000   0.00000   0.00000
  39       13F-3       -0.00021   0.00001   0.00000   0.00007  -0.00215
  40       14F 0        0.00000   0.00053   0.00003   0.00425   0.00007
  41       14F+1        0.00000   0.00000   0.00000   0.00000   0.00000
  42       14F-1        0.00104  -0.00002   0.00000   0.00000   0.00411
  43       14F+2       -0.00001  -0.00025   0.00001   0.00236   0.00005
  44       14F-2        0.00000   0.00000   0.00000   0.00000   0.00000
  45       14F+3        0.00000   0.00000   0.00000   0.00000   0.00000
  46       14F-3        0.00013  -0.00001   0.00000  -0.00001   0.00031
  47 2   S  1S          0.00071   0.04603   0.99640   0.00294   0.00004
  48        2S         -0.00247  -0.16126   0.01318  -0.01173  -0.00016
  49        3S          0.00002   0.00049   0.00031   0.02261   0.00030
  50        4S         -0.00018  -0.01202  -0.00003   0.00243   0.00002
  51        5S          0.00001   0.00112  -0.00005  -0.01860  -0.00040
  52        6S         -0.00001  -0.00093   0.00005  -0.01154  -0.00026
  53        7PX         0.00000   0.00000   0.00000   0.00000   0.00000
  54        7PY         0.01193  -0.00126   0.00000   0.00007  -0.00432
  55        7PZ         0.00456   0.33170   0.00171   0.00759   0.00013
  56        8PX         0.00000   0.00000   0.00000   0.00000   0.00000
  57        8PY        -0.00033   0.00001   0.00000  -0.00034   0.01613
  58        8PZ        -0.00004  -0.00285  -0.00018  -0.01275  -0.00030
  59        9PX         0.00000   0.00000   0.00000   0.00000   0.00000
  60        9PY         0.00074  -0.00008   0.00000  -0.00011   0.00661
  61        9PZ         0.00030   0.02217   0.00019  -0.00742  -0.00013
  62       10PX         0.00000   0.00000   0.00000   0.00000   0.00000
  63       10PY        -0.00048  -0.00001   0.00000  -0.00020   0.00414
  64       10PZ         0.00000  -0.00017   0.00003   0.00662   0.00008
  65       11PX         0.00000   0.00000   0.00000   0.00000   0.00000
  66       11PY        -0.00018   0.00000   0.00000   0.00001  -0.00055
  67       11PZ         0.00000   0.00007   0.00000   0.00189   0.00005
  68       12D 0        0.00001   0.00101   0.00008   0.00139   0.00008
  69       12D+1        0.00000   0.00000   0.00000   0.00000   0.00000
  70       12D-1        0.00011   0.00000   0.00000   0.00006   0.00005
  71       12D+2        0.00000   0.00009  -0.00001  -0.00020  -0.00001
  72       12D-2        0.00000   0.00000   0.00000   0.00000   0.00000
  73       13D 0       -0.00001  -0.00067   0.00001   0.00257   0.00004
  74       13D+1        0.00000   0.00000   0.00000   0.00000   0.00000
  75       13D-1       -0.00001   0.00000   0.00000   0.00001  -0.00036
  76       13D+2        0.00000  -0.00005   0.00001  -0.00001   0.00001
  77       13D-2        0.00000   0.00000   0.00000   0.00000   0.00000
  78       14D 0        0.00000   0.00026  -0.00003  -0.00159  -0.00001
  79       14D+1        0.00000   0.00000   0.00000   0.00000   0.00000
  80       14D-1        0.00013   0.00000   0.00000   0.00002   0.00195
  81       14D+2        0.00000  -0.00008   0.00000  -0.00272  -0.00003
  82       14D-2        0.00000   0.00000   0.00000   0.00000   0.00000
  83       15F 0        0.00000   0.00035  -0.00002  -0.00044  -0.00002
  84       15F+1        0.00000   0.00000   0.00000   0.00000   0.00000
  85       15F-1        0.00000   0.00000   0.00000  -0.00002   0.00022
  86       15F+2        0.00000   0.00009   0.00000   0.00000   0.00000
  87       15F-2        0.00000   0.00000   0.00000   0.00000   0.00000
  88       15F+3        0.00000   0.00000   0.00000   0.00000   0.00000
  89       15F-3       -0.00001   0.00000   0.00000   0.00000   0.00000
  90       16F 0       -0.00001  -0.00050  -0.00001   0.00035  -0.00003
  91       16F+1        0.00000   0.00000   0.00000   0.00000   0.00000
  92       16F-1       -0.00002   0.00000   0.00000  -0.00001  -0.00020
  93       16F+2        0.00000  -0.00008   0.00000   0.00089   0.00002
  94       16F-2        0.00000   0.00000   0.00000   0.00000   0.00000
  95       16F+3        0.00000   0.00000   0.00000   0.00000   0.00000
  96       16F-3        0.00003   0.00000   0.00000  -0.00001   0.00024
  97 3   F  1S         -0.69023   0.49361   0.00014  -0.14953   0.14706
  98        2S          0.01112  -0.00698  -0.00001   0.38220  -0.37629
  99        3S         -0.02974   0.02163   0.00001   0.11645  -0.11530
 100        4S          0.00074   0.00115  -0.00003   0.23882  -0.24883
 101        5S         -0.00065   0.00028   0.00004   0.01909  -0.03157
 102        6PX         0.00000   0.00000   0.00000   0.00000   0.00000
 103        6PY        -0.00146   0.00047   0.00000  -0.00661   0.03766
 104        6PZ        -0.00110   0.00002   0.00000  -0.02179   0.00720
 105        7PX         0.00000   0.00000   0.00000   0.00000   0.00000
 106        7PY         0.00013  -0.00076  -0.00001  -0.00359   0.04114
 107        7PZ        -0.00013  -0.00098  -0.00001  -0.02375   0.00511
 108        8PX         0.00000   0.00000   0.00000   0.00000   0.00000
 109        8PY        -0.00066   0.00054   0.00000  -0.01464   0.03399
 110        8PZ        -0.00152  -0.00065  -0.00004  -0.02927   0.00375
 111        9PX         0.00000   0.00000   0.00000   0.00000   0.00000
 112        9PY        -0.00040   0.00007   0.00001  -0.00175  -0.00122
 113        9PZ        -0.00004  -0.00014   0.00001  -0.00051   0.00041
 114       10D 0        0.00000   0.00001   0.00000  -0.00013  -0.00014
 115       10D+1        0.00000   0.00000   0.00000   0.00000   0.00000
 116       10D-1       -0.00001   0.00005   0.00000   0.00067  -0.00042
 117       10D+2        0.00001  -0.00001   0.00000  -0.00067   0.00009
 118       10D-2        0.00000   0.00000   0.00000   0.00000   0.00000
 119       11D 0       -0.00007  -0.00006   0.00000  -0.00079  -0.00093
 120       11D+1        0.00000   0.00000   0.00000   0.00000   0.00000
 121       11D-1        0.00024  -0.00054  -0.00001   0.00369  -0.00383
 122       11D+2       -0.00018   0.00023   0.00000  -0.00347   0.00192
 123       11D-2        0.00000   0.00000   0.00000   0.00000   0.00000
 124       12D 0       -0.00030  -0.00012   0.00000  -0.00135  -0.00125
 125       12D+1        0.00000   0.00000   0.00000   0.00000   0.00000
 126       12D-1       -0.00038  -0.00030  -0.00002  -0.00540  -0.00012
 127       12D+2        0.00017  -0.00011  -0.00001   0.00192  -0.00123
 128       12D-2        0.00000   0.00000   0.00000   0.00000   0.00000
 129       13F 0        0.00000  -0.00002   0.00000  -0.00035   0.00011
 130       13F+1        0.00000   0.00000   0.00000   0.00000   0.00000
 131       13F-1        0.00001  -0.00001   0.00000   0.00014  -0.00028
 132       13F+2       -0.00001   0.00001   0.00000  -0.00055   0.00031
 133       13F-2        0.00000   0.00000   0.00000   0.00000   0.00000
 134       13F+3        0.00000   0.00000   0.00000   0.00000   0.00000
 135       13F-3       -0.00006   0.00002   0.00000  -0.00043   0.00002
 136       14F 0       -0.00003   0.00020   0.00001  -0.00035   0.00036
 137       14F+1        0.00000   0.00000   0.00000   0.00000   0.00000
 138       14F-1       -0.00003  -0.00020   0.00000  -0.00018  -0.00085
 139       14F+2        0.00000   0.00028   0.00000  -0.00076   0.00095
 140       14F-2        0.00000   0.00000   0.00000   0.00000   0.00000
 141       14F+3        0.00000   0.00000   0.00000   0.00000   0.00000
 142       14F-3        0.00012   0.00004   0.00000  -0.00049   0.00061
 143 4   F  1S          0.69387   0.48327   0.00014  -0.14348  -0.15296
 144        2S         -0.01117  -0.00683  -0.00001   0.36682   0.39142
 145        3S          0.02989   0.02117   0.00001   0.11179   0.11995
 146        4S         -0.00068   0.00125  -0.00003   0.22918   0.25855
 147        5S          0.00068   0.00034   0.00004   0.01791   0.03228
 148        6PX         0.00000   0.00000   0.00000   0.00000   0.00000
 149        6PY        -0.00143  -0.00045   0.00000   0.00517   0.03774
 150        6PZ         0.00109   0.00001   0.00000  -0.02151  -0.00858
 151        7PX         0.00000   0.00000   0.00000   0.00000   0.00000
 152        7PY         0.00015   0.00073   0.00001   0.00206   0.04111
 153        7PZ         0.00011  -0.00097  -0.00001  -0.02352  -0.00669
 154        8PX         0.00000   0.00000   0.00000   0.00000   0.00000
 155        8PY        -0.00067  -0.00062  -0.00001   0.01294   0.03426
 156        8PZ         0.00150  -0.00064  -0.00004  -0.02891  -0.00527
 157        9PX         0.00000   0.00000   0.00000   0.00000   0.00000
 158        9PY        -0.00040  -0.00008  -0.00001   0.00176  -0.00116
 159        9PZ         0.00005  -0.00013   0.00001  -0.00049  -0.00041
 160       10D 0        0.00000   0.00001   0.00000  -0.00013   0.00014
 161       10D+1        0.00000   0.00000   0.00000   0.00000   0.00000
 162       10D-1       -0.00001  -0.00005   0.00000  -0.00064  -0.00043
 163       10D+2       -0.00001  -0.00001   0.00000  -0.00064  -0.00011
 164       10D-2        0.00000   0.00000   0.00000   0.00000   0.00000
 165       11D 0        0.00007  -0.00007   0.00000  -0.00078   0.00092
 166       11D+1        0.00000   0.00000   0.00000   0.00000   0.00000
 167       11D-1        0.00025   0.00052   0.00001  -0.00351  -0.00392
 168       11D+2        0.00018   0.00021   0.00000  -0.00332  -0.00201
 169       11D-2        0.00000   0.00000   0.00000   0.00000   0.00000
 170       12D 0        0.00030  -0.00013  -0.00001  -0.00146   0.00118
 171       12D+1        0.00000   0.00000   0.00000   0.00000   0.00000
 172       12D-1       -0.00037   0.00029   0.00002   0.00532   0.00008
 173       12D+2       -0.00017  -0.00013  -0.00001   0.00178   0.00127
 174       12D-2        0.00000   0.00000   0.00000   0.00000   0.00000
 175       13F 0        0.00000  -0.00002   0.00000  -0.00033  -0.00012
 176       13F+1        0.00000   0.00000   0.00000   0.00000   0.00000
 177       13F-1        0.00001   0.00001   0.00000  -0.00014  -0.00028
 178       13F+2        0.00001   0.00001   0.00000  -0.00053  -0.00032
 179       13F-2        0.00000   0.00000   0.00000   0.00000   0.00000
 180       13F+3        0.00000   0.00000   0.00000   0.00000   0.00000
 181       13F-3       -0.00006  -0.00002   0.00000   0.00042   0.00004
 182       14F 0        0.00004   0.00020   0.00001  -0.00034  -0.00036
 183       14F+1        0.00000   0.00000   0.00000   0.00000   0.00000
 184       14F-1       -0.00002   0.00020   0.00000   0.00021  -0.00086
 185       14F+2        0.00000   0.00027   0.00000  -0.00072  -0.00099
 186       14F-2        0.00000   0.00000   0.00000   0.00000   0.00000
 187       14F+3        0.00000   0.00000   0.00000   0.00000   0.00000
 188       14F-3        0.00012  -0.00004   0.00000   0.00046   0.00063
                          11        12        13        14        15
     Eigenvalues --     1.97417   1.97119   1.97010   1.96732   1.96698
   1 1   C  1S         -0.05568  -0.10259   0.00084   0.00000   0.00000
   2        2S          0.15053   0.27663  -0.00225   0.00000   0.00000
   3        3S          0.03551   0.06808  -0.00053   0.00000   0.00000
   4        4S          0.01928   0.14577  -0.00108   0.00000   0.00000
   5        5S         -0.02057   0.04384  -0.00011   0.00000   0.00000
   6        6PX         0.00000   0.00000   0.00000   0.00537   0.10281
   7        6PY        -0.00064  -0.00088  -0.05255   0.00000   0.00000
   8        6PZ         0.09107   0.00852  -0.00026   0.00000   0.00000
   9        7PX         0.00000   0.00000   0.00000   0.00646   0.12590
  10        7PY        -0.00083  -0.00133  -0.07726   0.00000   0.00000
  11        7PZ         0.11691  -0.00521  -0.00019   0.00000   0.00000
  12        8PX         0.00000   0.00000   0.00000   0.00022   0.00518
  13        8PY         0.00018   0.00030   0.05614   0.00000   0.00000
  14        8PZ        -0.05493   0.03762  -0.00079   0.00000   0.00000
  15        9PX         0.00000   0.00000   0.00000   0.00002  -0.00070
  16        9PY         0.00000   0.00004  -0.00047   0.00000   0.00000
  17        9PZ        -0.00738   0.01368  -0.00001   0.00000   0.00000
  18       10D 0       -0.00836   0.01914  -0.00020   0.00000   0.00000
  19       10D+1        0.00000   0.00000   0.00000  -0.00070  -0.01505
  20       10D-1       -0.00014   0.00013  -0.00917   0.00000   0.00000
  21       10D+2       -0.00994   0.00277  -0.00007   0.00000   0.00000
  22       10D-2        0.00000   0.00000   0.00000  -0.02036   0.00074
  23       11D 0       -0.01803   0.03181  -0.00021   0.00000   0.00000
  24       11D+1        0.00000   0.00000   0.00000  -0.00114  -0.02489
  25       11D-1       -0.00017   0.00040  -0.00716   0.00000   0.00000
  26       11D+2       -0.01783   0.00174  -0.00004   0.00000   0.00000
  27       11D-2        0.00000   0.00000   0.00000  -0.03287   0.00119
  28       12D 0       -0.00492  -0.00353  -0.00004   0.00000   0.00000
  29       12D+1        0.00000   0.00000   0.00000  -0.00013  -0.00245
  30       12D-1        0.00035  -0.00008   0.01189   0.00000   0.00000
  31       12D+2        0.00055  -0.00018  -0.00004   0.00000   0.00000
  32       12D-2        0.00000   0.00000   0.00000   0.00896  -0.00034
  33       13F 0        0.00835   0.00174  -0.00012   0.00000   0.00000
  34       13F+1        0.00000   0.00000   0.00000   0.00016   0.00412
  35       13F-1        0.00008   0.00002   0.00933   0.00000   0.00000
  36       13F+2        0.00153   0.00289  -0.00010   0.00000   0.00000
  37       13F-2        0.00000   0.00000   0.00000   0.00875  -0.00039
  38       13F+3        0.00000   0.00000   0.00000  -0.00041  -0.00786
  39       13F-3        0.00004   0.00004   0.00523   0.00000   0.00000
  40       14F 0        0.00643   0.00156  -0.00015   0.00000   0.00000
  41       14F+1        0.00000   0.00000   0.00000  -0.00013  -0.00155
  42       14F-1        0.00026  -0.00008   0.02022   0.00000   0.00000
  43       14F+2        0.00686   0.00247  -0.00009   0.00000   0.00000
  44       14F-2        0.00000   0.00000   0.00000   0.00961  -0.00033
  45       14F+3        0.00000   0.00000   0.00000  -0.00012  -0.00072
  46       14F-3        0.00005  -0.00005   0.00043   0.00000   0.00000
  47 2   S  1S          0.03176   0.04360  -0.00053   0.00000   0.00000
  48        2S         -0.12378  -0.16733   0.00209   0.00000   0.00000
  49        3S          0.24994   0.35245  -0.00424   0.00000   0.00000
  50        4S          0.03196   0.04453  -0.00053   0.00000   0.00000
  51        5S          0.17489   0.15376  -0.00206   0.00000   0.00000
  52        6S          0.02754  -0.05493   0.00007   0.00000   0.00000
  53        7PX         0.00000   0.00000   0.00000   0.00052   0.01244
  54        7PY         0.00001   0.00007   0.00333   0.00000   0.00000
  55        7PZ         0.02898   0.03471  -0.00034   0.00000   0.00000
  56        8PX         0.00000   0.00000   0.00000  -0.00127  -0.03112
  57        8PY        -0.00015  -0.00027  -0.02016   0.00000   0.00000
  58        8PZ        -0.03333  -0.04109   0.00035   0.00000   0.00000
  59        9PX         0.00000   0.00000   0.00000  -0.00060  -0.01408
  60        9PY        -0.00002  -0.00009  -0.00161   0.00000   0.00000
  61        9PZ        -0.01844  -0.02376   0.00019   0.00000   0.00000
  62       10PX         0.00000   0.00000   0.00000  -0.00121  -0.02705
  63       10PY        -0.00020  -0.00026  -0.02408   0.00000   0.00000
  64       10PZ        -0.01444   0.03270  -0.00005   0.00000   0.00000
  65       11PX         0.00000   0.00000   0.00000  -0.00022  -0.00415
  66       11PY         0.00003  -0.00001   0.00446   0.00000   0.00000
  67       11PZ        -0.00067   0.00947  -0.00004   0.00000   0.00000
  68       12D 0        0.00537   0.00952  -0.00016   0.00000   0.00000
  69       12D+1        0.00000   0.00000   0.00000  -0.00043  -0.00824
  70       12D-1        0.00013   0.00013   0.02024   0.00000   0.00000
  71       12D+2       -0.00239   0.00193   0.00001   0.00000   0.00000
  72       12D-2        0.00000   0.00000   0.00000  -0.00422   0.00018
  73       13D 0        0.01662   0.01827  -0.00017   0.00000   0.00000
  74       13D+1        0.00000   0.00000   0.00000  -0.00027  -0.00471
  75       13D-1        0.00010   0.00003   0.00801   0.00000   0.00000
  76       13D+2       -0.00083   0.00162  -0.00003   0.00000   0.00000
  77       13D-2        0.00000   0.00000   0.00000  -0.00129   0.00005
  78       14D 0       -0.00219  -0.01039   0.00001   0.00000   0.00000
  79       14D+1        0.00000   0.00000   0.00000  -0.00011  -0.00275
  80       14D-1        0.00009   0.00011   0.01352   0.00000   0.00000
  81       14D+2       -0.00072  -0.00066   0.00004   0.00000   0.00000
  82       14D-2        0.00000   0.00000   0.00000  -0.00478   0.00019
  83       15F 0       -0.00516  -0.00696   0.00007   0.00000   0.00000
  84       15F+1        0.00000   0.00000   0.00000   0.00012   0.00185
  85       15F-1       -0.00004  -0.00003  -0.00517   0.00000   0.00000
  86       15F+2        0.00074  -0.00063   0.00000   0.00000   0.00000
  87       15F-2        0.00000   0.00000   0.00000   0.00136  -0.00006
  88       15F+3        0.00000   0.00000   0.00000  -0.00002  -0.00036
  89       15F-3        0.00000   0.00000   0.00027   0.00000   0.00000
  90       16F 0        0.00687   0.00086   0.00000   0.00000   0.00000
  91       16F+1        0.00000   0.00000   0.00000   0.00006   0.00198
  92       16F-1        0.00003  -0.00004  -0.00189   0.00000   0.00000
  93       16F+2       -0.00047  -0.00050  -0.00005   0.00000   0.00000
  94       16F-2        0.00000   0.00000   0.00000   0.00334  -0.00014
  95       16F+3        0.00000   0.00000   0.00000   0.00004   0.00035
  96       16F-3       -0.00001   0.00000  -0.00041   0.00000   0.00000
  97 3   F  1S          0.00038   0.02766   0.01549   0.00000   0.00000
  98        2S         -0.00270  -0.07816  -0.04045   0.00000   0.00000
  99        3S         -0.00058  -0.02657  -0.01356   0.00000   0.00000
 100        4S         -0.01591  -0.10363  -0.03880   0.00000   0.00000
 101        5S         -0.01649  -0.01913   0.00624   0.00000   0.00000
 102        6PX         0.00000   0.00000   0.00000   0.28678   0.23884
 103        6PY        -0.10746   0.15618  -0.15188   0.00000   0.00000
 104        6PZ         0.18252  -0.06507   0.23176   0.00000   0.00000
 105        7PX         0.00000   0.00000   0.00000   0.34923   0.29152
 106        7PY        -0.13129   0.18714  -0.18448   0.00000   0.00000
 107        7PZ         0.21990  -0.08055   0.27999   0.00000   0.00000
 108        8PX         0.00000   0.00000   0.00000   0.24334   0.20002
 109        8PY        -0.08913   0.10178  -0.14556   0.00000   0.00000
 110        8PZ         0.14922  -0.07584   0.18777   0.00000   0.00000
 111        9PX         0.00000   0.00000   0.00000   0.02788   0.01561
 112        9PY        -0.01252   0.00548  -0.01221   0.00000   0.00000
 113        9PZ         0.01043  -0.01426   0.02324   0.00000   0.00000
 114       10D 0        0.00242  -0.00125   0.00233   0.00000   0.00000
 115       10D+1        0.00000   0.00000   0.00000   0.00183   0.00178
 116       10D-1        0.00152   0.00161   0.00125   0.00000   0.00000
 117       10D+2        0.00132  -0.00243   0.00075   0.00000   0.00000
 118       10D-2        0.00000   0.00000   0.00000   0.00231   0.00295
 119       11D 0        0.00867  -0.00515   0.00858   0.00000   0.00000
 120       11D+1        0.00000   0.00000   0.00000   0.00751   0.00751
 121       11D-1        0.00410   0.00353   0.00444   0.00000   0.00000
 122       11D+2        0.00498  -0.00758   0.00347   0.00000   0.00000
 123       11D-2        0.00000   0.00000   0.00000   0.01029   0.01192
 124       12D 0        0.00565  -0.00313   0.00684   0.00000   0.00000
 125       12D+1        0.00000   0.00000   0.00000   0.00474   0.00387
 126       12D-1        0.00358  -0.00306  -0.00180   0.00000   0.00000
 127       12D+2       -0.00016  -0.00009   0.00865   0.00000   0.00000
 128       12D-2        0.00000   0.00000   0.00000   0.00592   0.00757
 129       13F 0        0.00037  -0.00081   0.00059   0.00000   0.00000
 130       13F+1        0.00000   0.00000   0.00000   0.00027   0.00027
 131       13F-1        0.00172  -0.00045   0.00177   0.00000   0.00000
 132       13F+2       -0.00004  -0.00102  -0.00004   0.00000   0.00000
 133       13F-2        0.00000   0.00000   0.00000   0.00159   0.00161
 134       13F+3        0.00000   0.00000   0.00000  -0.00095  -0.00151
 135       13F-3        0.00075  -0.00090   0.00032   0.00000   0.00000
 136       14F 0        0.00188  -0.00111   0.00058   0.00000   0.00000
 137       14F+1        0.00000   0.00000   0.00000   0.00070   0.00022
 138       14F-1        0.00230  -0.00155   0.00293   0.00000   0.00000
 139       14F+2        0.00026  -0.00093  -0.00030   0.00000   0.00000
 140       14F-2        0.00000   0.00000   0.00000   0.00278   0.00279
 141       14F+3        0.00000   0.00000   0.00000  -0.00266  -0.00200
 142       14F-3        0.00041  -0.00129   0.00152   0.00000   0.00000
 143 4   F  1S         -0.00002   0.02743  -0.01593   0.00000   0.00000
 144        2S         -0.00156  -0.07739   0.04161   0.00000   0.00000
 145        3S         -0.00020  -0.02627   0.01393   0.00000   0.00000
 146        4S         -0.01458  -0.10138   0.03989   0.00000   0.00000
 147        5S         -0.01581  -0.01891  -0.00617   0.00000   0.00000
 148        6PX         0.00000   0.00000   0.00000  -0.26448   0.26365
 149        6PY         0.10806  -0.15660  -0.15333   0.00000   0.00000
 150        6PZ         0.17918  -0.06795  -0.23082   0.00000   0.00000
 151        7PX         0.00000   0.00000   0.00000  -0.32192   0.32162
 152        7PY         0.13193  -0.18770  -0.18621   0.00000   0.00000
 153        7PZ         0.21585  -0.08396  -0.27877   0.00000   0.00000
 154        8PX         0.00000   0.00000   0.00000  -0.22521   0.22182
 155        8PY         0.08954  -0.10368  -0.14710   0.00000   0.00000
 156        8PZ         0.14705  -0.07819  -0.18697   0.00000   0.00000
 157        9PX         0.00000   0.00000   0.00000  -0.02664   0.01824
 158        9PY         0.01244  -0.00576  -0.01248   0.00000   0.00000
 159        9PZ         0.01024  -0.01447  -0.02324   0.00000   0.00000
 160       10D 0        0.00239  -0.00125  -0.00231   0.00000   0.00000
 161       10D+1        0.00000   0.00000   0.00000  -0.00165   0.00193
 162       10D-1       -0.00143  -0.00158   0.00122   0.00000   0.00000
 163       10D+2        0.00132  -0.00238  -0.00074   0.00000   0.00000
 164       10D-2        0.00000   0.00000   0.00000   0.00199  -0.00309
 165       11D 0        0.00851  -0.00520  -0.00853   0.00000   0.00000
 166       11D+1        0.00000   0.00000   0.00000  -0.00678   0.00815
 167       11D-1       -0.00382  -0.00344   0.00429   0.00000   0.00000
 168       11D+2        0.00495  -0.00747  -0.00344   0.00000   0.00000
 169       11D-2        0.00000   0.00000   0.00000   0.00904  -0.01261
 170       12D 0        0.00570  -0.00345  -0.00683   0.00000   0.00000
 171       12D+1        0.00000   0.00000   0.00000  -0.00449   0.00445
 172       12D-1       -0.00360   0.00298  -0.00195   0.00000   0.00000
 173       12D+2       -0.00015  -0.00038  -0.00871   0.00000   0.00000
 174       12D-2        0.00000   0.00000   0.00000   0.00531  -0.00824
 175       13F 0        0.00039  -0.00081  -0.00061   0.00000   0.00000
 176       13F+1        0.00000   0.00000   0.00000  -0.00026   0.00031
 177       13F-1       -0.00167   0.00045   0.00174   0.00000   0.00000
 178       13F+2        0.00000  -0.00100   0.00002   0.00000   0.00000
 179       13F-2        0.00000   0.00000   0.00000   0.00142  -0.00172
 180       13F+3        0.00000   0.00000   0.00000   0.00079  -0.00155
 181       13F-3       -0.00075   0.00088   0.00030   0.00000   0.00000
 182       14F 0        0.00190  -0.00115  -0.00064   0.00000   0.00000
 183       14F+1        0.00000   0.00000   0.00000  -0.00071   0.00032
 184       14F-1       -0.00222   0.00161   0.00291   0.00000   0.00000
 185       14F+2        0.00030  -0.00093   0.00024   0.00000   0.00000
 186       14F-2        0.00000   0.00000   0.00000   0.00255  -0.00306
 187       14F+3        0.00000   0.00000   0.00000   0.00247  -0.00223
 188       14F-3       -0.00040   0.00129   0.00153   0.00000   0.00000
                          16        17        18        19        20
     Eigenvalues --     1.96302   1.95918   1.94252   1.93942   1.91719
   1 1   C  1S         -0.08127  -0.00359   0.07732  -0.00101   0.00000
   2        2S          0.21261   0.00977  -0.23031   0.00297   0.00000
   3        3S          0.05557   0.00240  -0.05915   0.00080   0.00000
   4        4S          0.09478   0.00521  -0.16606   0.00222   0.00000
   5        5S         -0.02008  -0.00069  -0.02281   0.00069   0.00000
   6        6PX         0.00000   0.00000   0.00000   0.00000   0.18156
   7        6PY        -0.00775   0.19222   0.00002   0.03354   0.00000
   8        6PZ        -0.13699  -0.00474  -0.18059   0.00183   0.00000
   9        7PX         0.00000   0.00000   0.00000   0.00000   0.25442
  10        7PY        -0.00913   0.23301   0.00024   0.04779   0.00000
  11        7PZ        -0.17092  -0.00637  -0.22305   0.00241   0.00000
  12        8PX         0.00000   0.00000   0.00000   0.00000   0.13738
  13        8PY        -0.00208   0.05622   0.00043   0.04977   0.00000
  14        8PZ        -0.01477  -0.00069  -0.06763   0.00103   0.00000
  15        9PX         0.00000   0.00000   0.00000   0.00000   0.02124
  16        9PY         0.00003  -0.00004  -0.00004  -0.00359   0.00000
  17        9PZ        -0.00553  -0.00021  -0.00576   0.00012   0.00000
  18       10D 0       -0.00744  -0.00010  -0.01008   0.00001   0.00000
  19       10D+1        0.00000   0.00000   0.00000   0.00000   0.01561
  20       10D-1        0.00103  -0.02659   0.00016   0.02072   0.00000
  21       10D+2       -0.01495  -0.00044  -0.00776   0.00003   0.00000
  22       10D-2        0.00000   0.00000   0.00000   0.00000   0.00005
  23       11D 0       -0.01924  -0.00045  -0.01829  -0.00004   0.00000
  24       11D+1        0.00000   0.00000   0.00000   0.00000   0.04776
  25       11D-1        0.00190  -0.05778   0.00014   0.05078   0.00000
  26       11D+2       -0.03613  -0.00125  -0.01965   0.00009   0.00000
  27       11D-2        0.00000   0.00000   0.00000   0.00000   0.00019
  28       12D 0        0.00241   0.00018  -0.00592   0.00021   0.00000
  29       12D+1        0.00000   0.00000   0.00000   0.00000   0.01871
  30       12D-1        0.00011  -0.00349  -0.00026  -0.02357   0.00000
  31       12D+2        0.00422   0.00019  -0.00248   0.00000   0.00000
  32       12D-2        0.00000   0.00000   0.00000   0.00000   0.00001
  33       13F 0        0.00211   0.00005  -0.00392   0.00005   0.00000
  34       13F+1        0.00000   0.00000   0.00000   0.00000   0.00669
  35       13F-1       -0.00025   0.00781   0.00012   0.00708   0.00000
  36       13F+2        0.00537   0.00019   0.00175  -0.00002   0.00000
  37       13F-2        0.00000   0.00000   0.00000   0.00000  -0.00003
  38       13F+3        0.00000   0.00000   0.00000   0.00000   0.00044
  39       13F-3        0.00011  -0.00252   0.00003   0.00207   0.00000
  40       14F 0        0.00998   0.00039   0.00130   0.00005   0.00000
  41       14F+1        0.00000   0.00000   0.00000   0.00000   0.00058
  42       14F-1       -0.00034   0.01879   0.00044  -0.00010   0.00000
  43       14F+2        0.01068   0.00050   0.00032   0.00002   0.00000
  44       14F-2        0.00000   0.00000   0.00000   0.00000  -0.00006
  45       14F+3        0.00000   0.00000   0.00000   0.00000   0.00400
  46       14F-3        0.00017  -0.00212   0.00012   0.00043   0.00000
  47 2   S  1S         -0.03667  -0.00125   0.02960  -0.00033   0.00000
  48        2S          0.13989   0.00474  -0.11359   0.00127   0.00000
  49        3S         -0.30244  -0.01038   0.26138  -0.00292   0.00000
  50        4S         -0.04152  -0.00150   0.03770  -0.00041   0.00000
  51        5S         -0.18918  -0.00690   0.32644  -0.00413   0.00000
  52        6S          0.01546   0.00046   0.05503  -0.00103   0.00000
  53        7PX         0.00000   0.00000   0.00000   0.00000  -0.18871
  54        7PY         0.00040  -0.01389  -0.00236  -0.21584   0.00000
  55        7PZ        -0.00990   0.00013  -0.17386   0.00165   0.00000
  56        8PX         0.00000   0.00000   0.00000   0.00000   0.43253
  57        8PY        -0.00083   0.02785   0.00561   0.52217   0.00000
  58        8PZ         0.00657  -0.00074   0.35959  -0.00317   0.00000
  59        9PX         0.00000   0.00000   0.00000   0.00000   0.17765
  60        9PY        -0.00041   0.01426   0.00246   0.21976   0.00000
  61        9PZ         0.00513  -0.00020   0.16462  -0.00150   0.00000
  62       10PX         0.00000   0.00000   0.00000   0.00000   0.23834
  63       10PY         0.00011   0.00344   0.00411   0.37018   0.00000
  64       10PZ         0.00200  -0.00014   0.09613  -0.00032   0.00000
  65       11PX         0.00000   0.00000   0.00000   0.00000   0.00071
  66       11PY        -0.00001   0.00056   0.00035   0.02734   0.00000
  67       11PZ        -0.00299  -0.00007  -0.00442   0.00015   0.00000
  68       12D 0       -0.00063   0.00018  -0.02729   0.00031   0.00000
  69       12D+1        0.00000   0.00000   0.00000   0.00000  -0.03387
  70       12D-1        0.00018  -0.00498   0.00001  -0.01318   0.00000
  71       12D+2       -0.00145  -0.00011  -0.00083   0.00004   0.00000
  72       12D-2        0.00000   0.00000   0.00000   0.00000   0.00000
  73       13D 0       -0.00650  -0.00004  -0.04847   0.00053   0.00000
  74       13D+1        0.00000   0.00000   0.00000   0.00000  -0.03414
  75       13D-1        0.00033  -0.00865  -0.00009  -0.01482   0.00000
  76       13D+2       -0.00100  -0.00003  -0.00097   0.00001   0.00000
  77       13D-2        0.00000   0.00000   0.00000   0.00000   0.00000
  78       14D 0        0.00141   0.00005   0.00510  -0.00004   0.00000
  79       14D+1        0.00000   0.00000   0.00000   0.00000  -0.00479
  80       14D-1       -0.00014   0.00209  -0.00018  -0.01771   0.00000
  81       14D+2       -0.00078  -0.00005  -0.00195   0.00006   0.00000
  82       14D-2        0.00000   0.00000   0.00000   0.00000  -0.00002
  83       15F 0        0.00403   0.00007   0.01573  -0.00015   0.00000
  84       15F+1        0.00000   0.00000   0.00000   0.00000   0.01204
  85       15F-1       -0.00011   0.00312   0.00005   0.00816   0.00000
  86       15F+2        0.00018   0.00001   0.00214  -0.00001   0.00000
  87       15F-2        0.00000   0.00000   0.00000   0.00000  -0.00001
  88       15F+3        0.00000   0.00000   0.00000   0.00000   0.00241
  89       15F-3        0.00000   0.00010   0.00003   0.00262   0.00000
  90       16F 0       -0.00187  -0.00007  -0.00538   0.00006   0.00000
  91       16F+1        0.00000   0.00000   0.00000   0.00000  -0.00064
  92       16F-1        0.00005  -0.00068   0.00001   0.00229   0.00000
  93       16F+2        0.00064   0.00007   0.00079  -0.00001   0.00000
  94       16F-2        0.00000   0.00000   0.00000   0.00000  -0.00002
  95       16F+3        0.00000   0.00000   0.00000   0.00000   0.00187
  96       16F-3       -0.00005   0.00140   0.00003   0.00238   0.00000
  97 3   F  1S          0.00594   0.00908  -0.01363  -0.01554   0.00000
  98        2S         -0.02417  -0.01485   0.03791   0.04247   0.00000
  99        3S         -0.01159  -0.00053   0.01100   0.01337   0.00000
 100        4S         -0.10246   0.07566   0.02095   0.03691   0.00000
 101        5S         -0.02290   0.03429  -0.00492   0.05551   0.00000
 102        6PX         0.00000   0.00000   0.00000   0.00000  -0.05431
 103        6PY         0.12627  -0.21452   0.02765   0.01891   0.00000
 104        6PZ         0.16690  -0.09756   0.06404   0.05158   0.00000
 105        7PX         0.00000   0.00000   0.00000   0.00000  -0.06574
 106        7PY         0.15265  -0.26032   0.03532   0.02514   0.00000
 107        7PZ         0.20198  -0.11893   0.07948   0.06392   0.00000
 108        8PX         0.00000   0.00000   0.00000   0.00000  -0.06172
 109        8PY         0.06453  -0.14044   0.01552   0.00798   0.00000
 110        8PZ         0.10866  -0.05958   0.05307   0.05187   0.00000
 111        9PX         0.00000   0.00000   0.00000   0.00000  -0.02602
 112        9PY        -0.00436  -0.00882   0.00015   0.01488   0.00000
 113        9PZ         0.00806   0.00476   0.01120   0.01781   0.00000
 114       10D 0       -0.00005  -0.00030  -0.00069  -0.00039   0.00000
 115       10D+1        0.00000   0.00000   0.00000   0.00000   0.00110
 116       10D-1        0.00441  -0.00469   0.00049   0.00042   0.00000
 117       10D+2       -0.00300   0.00287  -0.00099  -0.00021   0.00000
 118       10D-2        0.00000   0.00000   0.00000   0.00000   0.00114
 119       11D 0       -0.00036  -0.00193  -0.00236  -0.00232   0.00000
 120       11D+1        0.00000   0.00000   0.00000   0.00000   0.00389
 121       11D-1        0.01474  -0.01615   0.00299   0.00195   0.00000
 122       11D+2       -0.00980   0.00938  -0.00360  -0.00201   0.00000
 123       11D-2        0.00000   0.00000   0.00000   0.00000   0.00309
 124       12D 0       -0.00167  -0.00494  -0.00359  -0.00050   0.00000
 125       12D+1        0.00000   0.00000   0.00000   0.00000   0.00217
 126       12D-1       -0.00004  -0.00381  -0.00265  -0.00170   0.00000
 127       12D+2       -0.00189   0.00094  -0.00016   0.00230   0.00000
 128       12D-2        0.00000   0.00000   0.00000   0.00000   0.00381
 129       13F 0       -0.00119   0.00116  -0.00036  -0.00027   0.00000
 130       13F+1        0.00000   0.00000   0.00000   0.00000   0.00024
 131       13F-1        0.00108  -0.00110  -0.00009   0.00009   0.00000
 132       13F+2       -0.00202   0.00219  -0.00047  -0.00027   0.00000
 133       13F-2        0.00000   0.00000   0.00000   0.00000   0.00055
 134       13F+3        0.00000   0.00000   0.00000   0.00000  -0.00037
 135       13F-3       -0.00112   0.00093  -0.00056  -0.00009   0.00000
 136       14F 0       -0.00164   0.00123  -0.00135  -0.00091   0.00000
 137       14F+1        0.00000   0.00000   0.00000   0.00000   0.00052
 138       14F-1        0.00097  -0.00307  -0.00009  -0.00070   0.00000
 139       14F+2       -0.00324   0.00331  -0.00135  -0.00028   0.00000
 140       14F-2        0.00000   0.00000   0.00000   0.00000   0.00058
 141       14F+3        0.00000   0.00000   0.00000   0.00000  -0.00019
 142       14F-3       -0.00166   0.00176  -0.00028  -0.00053   0.00000
 143 4   F  1S          0.00665  -0.00838  -0.01331   0.01578   0.00000
 144        2S         -0.02525   0.01234   0.03692  -0.04310   0.00000
 145        3S         -0.01157  -0.00055   0.01067  -0.01352   0.00000
 146        4S         -0.09556  -0.08311   0.01969  -0.03724   0.00000
 147        5S         -0.02005  -0.03600  -0.00607  -0.05499   0.00000
 148        6PX         0.00000   0.00000   0.00000   0.00000  -0.05346
 149        6PY        -0.10765  -0.22318  -0.02807   0.01971   0.00000
 150        6PZ         0.16027   0.11141   0.06339  -0.05326   0.00000
 151        7PX         0.00000   0.00000   0.00000   0.00000  -0.06467
 152        7PY        -0.13007  -0.27079  -0.03573   0.02617   0.00000
 153        7PZ         0.19390   0.13567   0.07865  -0.06602   0.00000
 154        8PX         0.00000   0.00000   0.00000   0.00000  -0.06083
 155        8PY        -0.05248  -0.14542  -0.01561   0.00854   0.00000
 156        8PZ         0.10544   0.06892   0.05276  -0.05331   0.00000
 157        9PX         0.00000   0.00000   0.00000   0.00000  -0.02569
 158        9PY         0.00492  -0.00849   0.00002   0.01481   0.00000
 159        9PZ         0.00845  -0.00403   0.01071  -0.01805   0.00000
 160       10D 0       -0.00001   0.00035  -0.00067   0.00039   0.00000
 161       10D+1        0.00000   0.00000   0.00000   0.00000   0.00109
 162       10D-1       -0.00402  -0.00499  -0.00051   0.00043   0.00000
 163       10D+2       -0.00270  -0.00303  -0.00098   0.00023   0.00000
 164       10D-2        0.00000   0.00000   0.00000   0.00000  -0.00111
 165       11D 0       -0.00026   0.00207  -0.00219   0.00230   0.00000
 166       11D+1        0.00000   0.00000   0.00000   0.00000   0.00387
 167       11D-1       -0.01344  -0.01715  -0.00305   0.00207   0.00000
 168       11D+2       -0.00885  -0.00994  -0.00353   0.00208   0.00000
 169       11D-2        0.00000   0.00000   0.00000   0.00000  -0.00303
 170       12D 0       -0.00180   0.00483  -0.00329   0.00049   0.00000
 171       12D+1        0.00000   0.00000   0.00000   0.00000   0.00214
 172       12D-1        0.00017  -0.00383   0.00249  -0.00178   0.00000
 173       12D+2       -0.00172  -0.00117  -0.00008  -0.00235   0.00000
 174       12D-2        0.00000   0.00000   0.00000   0.00000  -0.00371
 175       13F 0       -0.00107  -0.00124  -0.00036   0.00027   0.00000
 176       13F+1        0.00000   0.00000   0.00000   0.00000   0.00024
 177       13F-1       -0.00103  -0.00121   0.00007   0.00010   0.00000
 178       13F+2       -0.00184  -0.00233  -0.00048   0.00029   0.00000
 179       13F-2        0.00000   0.00000   0.00000   0.00000  -0.00054
 180       13F+3        0.00000   0.00000   0.00000   0.00000  -0.00036
 181       13F-3        0.00101   0.00099   0.00055  -0.00010   0.00000
 182       14F 0       -0.00151  -0.00127  -0.00131   0.00094   0.00000
 183       14F+1        0.00000   0.00000   0.00000   0.00000   0.00052
 184       14F-1       -0.00082  -0.00319  -0.00001  -0.00067   0.00000
 185       14F+2       -0.00297  -0.00353  -0.00135   0.00032   0.00000
 186       14F-2        0.00000   0.00000   0.00000   0.00000  -0.00056
 187       14F+3        0.00000   0.00000   0.00000   0.00000  -0.00018
 188       14F-3        0.00150   0.00185   0.00027  -0.00052   0.00000
                          21        22        23        24        25
     Eigenvalues --     0.07385   0.04106   0.03905   0.03204   0.01912
   1 1   C  1S          0.00000   0.17524   0.01558  -0.03798   0.03321
   2        2S          0.00000  -0.59798  -0.05473   0.10622  -0.09725
   3        3S          0.00000  -0.21276  -0.02016  -0.00620  -0.04180
   4        4S          0.00000  -0.64266  -0.06093  -0.02896   0.07389
   5        5S          0.00000  -0.12286  -0.01221  -0.02651   0.09517
   6        6PX         0.31809   0.00000   0.00000   0.00000   0.00000
   7        6PY         0.00000  -0.02841   0.30249  -0.00537   0.00001
   8        6PZ         0.00000  -0.05176  -0.01172  -0.37080   0.05411
   9        7PX         0.44546   0.00000   0.00000   0.00000   0.00000
  10        7PY         0.00000  -0.05332   0.58511  -0.01182   0.00093
  11        7PZ         0.00000  -0.05608  -0.01638  -0.66807   0.05652
  12        8PX         0.15488   0.00000   0.00000   0.00000   0.00000
  13        8PY         0.00000  -0.00897   0.10178  -0.00181  -0.00011
  14        8PZ         0.00000  -0.21839  -0.02468  -0.27099   0.30309
  15        9PX         0.00817   0.00000   0.00000   0.00000   0.00000
  16        9PY         0.00000  -0.00140   0.01598  -0.00029   0.00008
  17        9PZ         0.00000  -0.00795  -0.00081   0.00534   0.03306
  18       10D 0        0.00000  -0.00164  -0.00054  -0.00926   0.05620
  19       10D+1        0.01632   0.00000   0.00000   0.00000   0.00000
  20       10D-1        0.00000  -0.00265   0.03029  -0.00079   0.00077
  21       10D+2        0.00000  -0.00937  -0.00098  -0.00313   0.04695
  22       10D-2        0.00008   0.00000   0.00000   0.00000   0.00000
  23       11D 0        0.00000  -0.04446  -0.00538  -0.07417   0.15341
  24       11D+1        0.07207   0.00000   0.00000   0.00000   0.00000
  25       11D-1        0.00000   0.00645  -0.06263   0.00084   0.00205
  26       11D+2        0.00000   0.02814   0.00160  -0.06841   0.14389
  27       11D-2        0.00014   0.00000   0.00000   0.00000   0.00000
  28       12D 0        0.00000  -0.05288  -0.00525  -0.02343   0.01710
  29       12D+1        0.02801   0.00000   0.00000   0.00000   0.00000
  30       12D-1        0.00000   0.00275  -0.02998   0.00032  -0.00069
  31       12D+2        0.00000   0.00711   0.00041  -0.02136   0.02445
  32       12D-2        0.00002   0.00000   0.00000   0.00000   0.00000
  33       13F 0        0.00000  -0.00794  -0.00103  -0.01345  -0.00185
  34       13F+1        0.01189   0.00000   0.00000   0.00000   0.00000
  35       13F-1        0.00000  -0.00310   0.03314  -0.00059   0.00008
  36       13F+2        0.00000  -0.02192  -0.00174   0.02183   0.01266
  37       13F-2        0.00005   0.00000   0.00000   0.00000   0.00000
  38       13F+3       -0.00133   0.00000   0.00000   0.00000   0.00000
  39       13F-3        0.00000   0.00099  -0.01176   0.00025  -0.00004
  40       14F 0        0.00000  -0.02527  -0.00288   0.01023  -0.02508
  41       14F+1        0.02830   0.00000   0.00000   0.00000   0.00000
  42       14F-1        0.00000  -0.01153   0.11368  -0.00146  -0.00341
  43       14F+2        0.00000  -0.01477  -0.00119   0.04206  -0.02672
  44       14F-2        0.00009   0.00000   0.00000   0.00000   0.00000
  45       14F+3        0.00936   0.00000   0.00000   0.00000   0.00000
  46       14F-3        0.00000  -0.00290   0.02791  -0.00041  -0.00085
  47 2   S  1S          0.00000   0.02074   0.00212   0.01243   0.01055
  48        2S          0.00000  -0.05616  -0.00562  -0.02804  -0.05286
  49        3S          0.00000   0.21771   0.02259   0.13820   0.09078
  50        4S          0.00000   0.00833   0.00055  -0.02743   0.08142
  51        5S          0.00000   0.52176   0.05689   0.51717  -0.38014
  52        6S          0.00000   0.15795   0.01723   0.12639  -0.17421
  53        7PX         0.18314   0.00000   0.00000   0.00000   0.00000
  54        7PY         0.00000  -0.00975   0.10353  -0.00184   0.00004
  55        7PZ         0.00000   0.18238   0.01811   0.09161   0.03053
  56        8PX        -0.48767   0.00000   0.00000   0.00000   0.00000
  57        8PY         0.00000   0.02789  -0.29007   0.00495   0.00140
  58        8PZ         0.00000  -0.60633  -0.06326  -0.46734   0.02446
  59        9PX        -0.20091   0.00000   0.00000   0.00000   0.00000
  60        9PY         0.00000   0.01297  -0.14057   0.00257  -0.00011
  61        9PZ         0.00000  -0.19842  -0.01965  -0.08578  -0.04457
  62       10PX        -0.12665   0.00000   0.00000   0.00000   0.00000
  63       10PY         0.00000  -0.00315   0.04008  -0.00128   0.00051
  64       10PZ         0.00000  -0.32128  -0.03555  -0.34765   0.19227
  65       11PX        -0.00360   0.00000   0.00000   0.00000   0.00000
  66       11PY         0.00000   0.00013  -0.00225   0.00004  -0.00021
  67       11PZ         0.00000  -0.02224  -0.00250  -0.02341   0.02152
  68       12D 0        0.00000  -0.07467  -0.00850  -0.04955   0.11466
  69       12D+1       -0.05923   0.00000   0.00000   0.00000   0.00000
  70       12D-1        0.00000   0.01606  -0.18851   0.00481  -0.00398
  71       12D+2        0.00000  -0.04604  -0.00511  -0.02405   0.41069
  72       12D-2        0.00007   0.00000   0.00000   0.00000   0.00000
  73       13D 0        0.00000  -0.09969  -0.01217  -0.13748   0.10858
  74       13D+1       -0.07024   0.00000   0.00000   0.00000   0.00000
  75       13D-1        0.00000   0.01364  -0.15741   0.00376  -0.00248
  76       13D+2        0.00000  -0.03217  -0.00350  -0.01352   0.29199
  77       13D-2        0.00004   0.00000   0.00000   0.00000   0.00000
  78       14D 0        0.00000   0.03973   0.00488   0.06941  -0.03142
  79       14D+1        0.01257   0.00000   0.00000   0.00000   0.00000
  80       14D-1        0.00000   0.00312  -0.03390   0.00076  -0.00028
  81       14D+2        0.00000  -0.00878  -0.00099  -0.00334   0.02648
  82       14D-2       -0.00001   0.00000   0.00000   0.00000   0.00000
  83       15F 0        0.00000   0.01835   0.00224   0.02247  -0.02361
  84       15F+1        0.01928   0.00000   0.00000   0.00000   0.00000
  85       15F-1        0.00000  -0.00283   0.03178  -0.00081   0.00045
  86       15F+2        0.00000   0.00283   0.00034   0.00264  -0.03428
  87       15F-2       -0.00001   0.00000   0.00000   0.00000   0.00000
  88       15F+3       -0.00368   0.00000   0.00000   0.00000   0.00000
  89       15F-3        0.00000   0.00018  -0.00160  -0.00001   0.00001
  90       16F 0        0.00000   0.00607   0.00016  -0.02740  -0.01196
  91       16F+1       -0.00603   0.00000   0.00000   0.00000   0.00000
  92       16F-1        0.00000  -0.00074   0.00811  -0.00035   0.00032
  93       16F+2        0.00000   0.00491   0.00066   0.00655  -0.02377
[...]
  93       16F+2       -0.00647  -0.00158   0.04781   0.00000   0.00011
  94       16F-2        0.00000   0.00000   0.00000   0.00102   0.00000
  95       16F+3        0.00000   0.00000   0.00000  -0.04429   0.00000
  96       16F-3       -0.01396  -0.07230  -0.00282   0.00000  -0.00319
  97 3   F  1S         -0.05193   0.00439  -0.04725   0.00000   0.09069
  98        2S         -0.21225  -0.02226  -0.20577   0.00000   0.42488
  99        3S          0.06582  -0.04778   0.04914   0.00000  -0.05412
 100        4S          2.07985   0.53449   0.87518   0.00000  -3.27982
 101        5S          6.74237   0.22704   7.09516   0.00000 -17.27067
 102        6PX         0.00000   0.00000   0.00000   0.01961   0.00000
 103        6PY         0.00174   0.01101   0.00536   0.00000  -0.01252
 104        6PZ        -0.02141   0.00573   0.00255   0.00000  -0.00508
 105        7PX         0.00000   0.00000   0.00000  -0.07406   0.00000
 106        7PY         0.04629  -0.06697  -0.04601   0.00000   0.05020
 107        7PZ         0.15254  -0.04529  -0.02309   0.00000   0.01430
 108        8PX         0.00000   0.00000   0.00000   0.07480   0.00000
 109        8PY         0.85401   0.89428   0.34578   0.00000  -2.57308
 110        8PZ        -1.54186   1.17140   0.07484   0.00000  -0.78084
 111        9PX         0.00000   0.00000   0.00000  -1.15066   0.00000
 112        9PY         0.02507  -1.75998   0.63972   0.00000  -4.93351
 113        9PZ        -1.86096   0.04665   4.79702   0.00000  -1.68193
 114       10D 0       -0.01682  -0.00719   0.00060   0.00000   0.00226
 115       10D+1        0.00000   0.00000   0.00000  -0.01445   0.00000
 116       10D-1       -0.00661  -0.00837   0.02637   0.00000   0.00001
 117       10D+2        0.04722   0.01893   0.00625   0.00000   0.00307
 118       10D-2        0.00000   0.00000   0.00000  -0.00451   0.00000
 119       11D 0        0.04428   0.01816   0.00267   0.00000  -0.00545
 120       11D+1        0.00000   0.00000   0.00000   0.05442   0.00000
 121       11D-1        0.02929   0.05177  -0.09156   0.00000  -0.03345
 122       11D+2       -0.17778  -0.06661  -0.01493   0.00000   0.02033
 123       11D-2        0.00000   0.00000   0.00000   0.01735   0.00000
 124       12D 0       -0.78120   0.15224  -0.11032   0.00000   0.44886
 125       12D+1        0.00000   0.00000   0.00000  -0.17894   0.00000
 126       12D-1       -0.24017   0.35782   0.13273   0.00000  -0.43009
 127       12D+2        0.33807  -0.11593  -0.01055   0.00000   0.51278
 128       12D-2        0.00000   0.00000   0.00000  -0.09713   0.00000
 129       13F 0        0.00996   0.01729   0.00468   0.00000  -0.00968
 130       13F+1        0.00000   0.00000   0.00000  -0.00966   0.00000
 131       13F-1       -0.00016  -0.01718   0.02581   0.00000  -0.00994
 132       13F+2        0.02968   0.01731  -0.02132   0.00000  -0.00321
 133       13F-2        0.00000   0.00000   0.00000   0.00862   0.00000
 134       13F+3        0.00000   0.00000   0.00000  -0.00048   0.00000
 135       13F-3       -0.02233   0.02029   0.00926   0.00000   0.00459
 136       14F 0       -0.05612  -0.05054  -0.00870   0.00000   0.06462
 137       14F+1        0.00000   0.00000   0.00000   0.01536   0.00000
 138       14F-1       -0.04718   0.06076  -0.05086   0.00000   0.02779
 139       14F+2       -0.05204  -0.07376   0.03628   0.00000   0.05485
 140       14F-2        0.00000   0.00000   0.00000  -0.00918   0.00000
 141       14F+3        0.00000   0.00000   0.00000   0.00025   0.00000
 142       14F-3        0.06106  -0.06096  -0.02325   0.00000   0.02382
 143 4   F  1S          0.02935  -0.00174  -0.04843   0.00000  -0.08998
 144        2S          0.11533   0.03387  -0.20899   0.00000  -0.42275
 145        3S         -0.04344   0.04532   0.05222   0.00000   0.05222
 146        4S         -1.31409  -0.62427   0.87631   0.00000   3.28235
 147        5S         -6.40696  -0.74294   7.27824   0.00000  17.29419
 148        6PX         0.00000   0.00000   0.00000   0.01985   0.00000
 149        6PY         0.00289   0.01185  -0.00500   0.00000  -0.01289
 150        6PZ         0.02289  -0.00634   0.00260   0.00000   0.00552
 151        7PX         0.00000   0.00000   0.00000  -0.07481   0.00000
 152        7PY         0.03327  -0.07081   0.04318   0.00000   0.05287
 153        7PZ        -0.15928   0.04875  -0.02274   0.00000  -0.01626
 154        8PX         0.00000   0.00000   0.00000   0.07277   0.00000
 155        8PY         0.56732   0.93156  -0.31132   0.00000  -2.58793
 156        8PZ         2.05265  -1.21459   0.04727   0.00000   0.82614
 157        9PX         0.00000   0.00000   0.00000  -1.15819   0.00000
 158        9PY        -0.11380  -1.69719  -0.80701   0.00000  -4.92945
 159        9PZ         1.87370  -0.31531   4.79821   0.00000   1.65828
 160       10D 0        0.01925   0.00693   0.00123   0.00000  -0.00296
 161       10D+1        0.00000   0.00000   0.00000  -0.01476   0.00000
 162       10D-1       -0.00988  -0.00636  -0.02706   0.00000   0.00012
 163       10D+2       -0.05052  -0.01874   0.00498   0.00000  -0.00319
 164       10D-2        0.00000   0.00000   0.00000   0.00454   0.00000
 165       11D 0       -0.05441  -0.01761   0.00091   0.00000   0.00833
 166       11D+1        0.00000   0.00000   0.00000   0.05517   0.00000
 167       11D-1        0.03448   0.04497   0.09485   0.00000  -0.03473
 168       11D+2        0.18431   0.06548  -0.01087   0.00000  -0.01970
 169       11D-2        0.00000   0.00000   0.00000  -0.01713   0.00000
 170       12D 0        0.86931  -0.15792  -0.11209   0.00000  -0.44573
 171       12D+1        0.00000   0.00000   0.00000  -0.18326   0.00000
 172       12D-1       -0.45486   0.37632  -0.12214   0.00000  -0.44203
 173       12D+2       -0.35058   0.11434  -0.00584   0.00000  -0.51444
 174       12D-2        0.00000   0.00000   0.00000   0.09946   0.00000
 175       13F 0       -0.00481  -0.01768   0.00430   0.00000   0.01006
 176       13F+1        0.00000   0.00000   0.00000  -0.00969   0.00000
 177       13F-1        0.00184  -0.01627  -0.02720   0.00000  -0.00933
 178       13F+2       -0.02923  -0.01595  -0.02252   0.00000   0.00369
 179       13F-2        0.00000   0.00000   0.00000  -0.00886   0.00000
 180       13F+3        0.00000   0.00000   0.00000  -0.00048   0.00000
 181       13F-3       -0.01627   0.02021  -0.00813   0.00000   0.00488
 182       14F 0        0.03913   0.05038  -0.00697   0.00000  -0.06583
 183       14F+1        0.00000   0.00000   0.00000   0.01532   0.00000
 184       14F-1       -0.05960   0.05980   0.05460   0.00000   0.02516
 185       14F+2        0.04052   0.07088   0.04042   0.00000  -0.05641
 186       14F-2        0.00000   0.00000   0.00000   0.01024   0.00000
 187       14F+3        0.00000   0.00000   0.00000   0.00076   0.00000
 188       14F-3        0.04644  -0.05997   0.02005   0.00000   0.02318
                         186       187       188
     Eigenvalues --     0.00000   0.00000   0.00000
   1 1   C  1S         -0.07935  -0.06735   0.00461
   2        2S         -0.38899  -0.36851  -0.01986
   3        3S          0.24213   0.14829  -0.01490
   4        4S        -13.55374 -14.45943 -13.58384
   5        5S         -4.90953  -9.28741 -21.61636
   6        6PX         0.00000   0.00000   0.00000
   7        6PY        -0.00063  -0.00018   0.00018
   8        6PZ        -0.01309   0.00284  -0.00960
   9        7PX         0.00000   0.00000   0.00000
  10        7PY         0.03344   0.01847   0.00606
  11        7PZ         0.75423   0.37418   0.27728
  12        8PX         0.00000   0.00000   0.00000
  13        8PY         0.13409   0.06301  -0.00681
  14        8PZ         1.94861  -2.58567  -7.41588
  15        9PX         0.00000   0.00000   0.00000
  16        9PY         0.01217   0.01187   0.01198
  17        9PZ         3.68926  -3.43612  -4.20440
  18       10D 0        0.01869   0.01264   0.01224
  19       10D+1        0.00000   0.00000   0.00000
  20       10D-1       -0.00074  -0.00050  -0.00021
  21       10D+2       -0.03135   0.01542   0.03524
  22       10D-2        0.00000   0.00000   0.00000
  23       11D 0        0.03418  -0.62854  -0.23238
  24       11D+1        0.00000   0.00000   0.00000
  25       11D-1       -0.01355  -0.00806  -0.00015
  26       11D+2        1.17881   0.53588   0.10777
  27       11D-2        0.00000   0.00000   0.00000
  28       12D 0       -0.94312  -1.50200  -1.55393
  29       12D+1        0.00000   0.00000   0.00000
  30       12D-1       -0.04653  -0.02439  -0.01875
  31       12D+2        0.76094   0.84703   0.30304
  32       12D-2        0.00000   0.00000   0.00000
  33       13F 0       -0.05687  -0.02549  -0.00824
  34       13F+1        0.00000   0.00000   0.00000
  35       13F-1       -0.00074   0.00008  -0.00007
  36       13F+2       -0.06648  -0.04012  -0.01366
  37       13F-2        0.00000   0.00000   0.00000
  38       13F+3        0.00000   0.00000   0.00000
  39       13F-3       -0.00084   0.00021   0.00020
  40       14F 0       -0.67677  -0.28934  -0.12883
  41       14F+1        0.00000   0.00000   0.00000
  42       14F-1       -0.00075   0.00520  -0.00444
  43       14F+2       -0.41045  -0.07175   0.02829
  44       14F-2        0.00000   0.00000   0.00000
  45       14F+3        0.00000   0.00000   0.00000
  46       14F-3       -0.00079  -0.00007  -0.00098
  47 2   S  1S          0.00844  -0.00223  -0.00698
  48        2S          0.13013  -0.02296  -0.08181
  49        3S          0.36998  -0.09461  -0.28779
  50        4S         -0.04161  -0.10741  -0.09464
  51        5S          2.58348   7.44609   7.29445
  52        6S          0.56546   5.78458  23.39942
  53        7PX         0.00000   0.00000   0.00000
  54        7PY        -0.00010  -0.00028   0.00005
  55        7PZ        -0.02713  -0.04752   0.00013
  56        8PX         0.00000   0.00000   0.00000
  57        8PY        -0.00169  -0.00515   0.00139
  58        8PZ        -0.65073  -1.15448  -0.12607
  59        9PX         0.00000   0.00000   0.00000
  60        9PY         0.00039   0.00088  -0.00014
  61        9PZ         0.04220   0.12682  -0.02075
  62       10PX         0.00000   0.00000   0.00000
  63       10PY         0.01589   0.01667   0.01886
  64       10PZ        -1.59552  -4.06440  -9.52636
  65       11PX         0.00000   0.00000   0.00000
  66       11PY         0.00105   0.00043  -0.00708
  67       11PZ        -1.47972   1.66160  -4.97494
  68       12D 0        0.12668   1.03515   0.43941
  69       12D+1        0.00000   0.00000   0.00000
  70       12D-1        0.00049   0.00157  -0.00393
  71       12D+2        0.09638  -0.05551  -0.01696
  72       12D-2        0.00000   0.00000   0.00000
  73       13D 0        0.04919  -0.08597  -0.02073
  74       13D+1        0.00000   0.00000   0.00000
  75       13D-1       -0.00029   0.00024   0.00027
  76       13D+2       -0.01924   0.00731   0.00128
  77       13D-2        0.00000   0.00000   0.00000
  78       14D 0        0.71011  -0.42120   2.70917
  79       14D+1        0.00000   0.00000   0.00000
  80       14D-1       -0.00481  -0.00724  -0.00689
  81       14D+2       -0.28290   0.03854  -0.05390
  82       14D-2        0.00000   0.00000   0.00000
  83       15F 0       -0.01332  -0.06026   0.03547
  84       15F+1        0.00000   0.00000   0.00000
  85       15F-1        0.00075  -0.00008  -0.00004
  86       15F+2       -0.01855   0.01590   0.00169
  87       15F-2        0.00000   0.00000   0.00000
  88       15F+3        0.00000   0.00000   0.00000
  89       15F-3       -0.00003   0.00002   0.00003
  90       16F 0       -0.06241  -0.03644  -0.31160
  91       16F+1        0.00000   0.00000   0.00000
  92       16F-1       -0.00132   0.00005   0.00231
  93       16F+2        0.04611  -0.00972   0.01863
  94       16F-2        0.00000   0.00000   0.00000
  95       16F+3        0.00000   0.00000   0.00000
  96       16F-3       -0.00027  -0.00035  -0.00002
  97 3   F  1S         -0.02670  -0.03364   0.00258
  98        2S         -0.15177  -0.17413   0.00102
  99        3S         -0.01743   0.00201  -0.01533
 100        4S          2.60781   1.43581   0.14645
 101        5S          6.23236   5.70376   1.87151
 102        6PX         0.00000   0.00000   0.00000
 103        6PY         0.00171   0.01090   0.00234
 104        6PZ         0.01044   0.00269   0.00175
 105        7PX         0.00000   0.00000   0.00000
 106        7PY         0.00583  -0.06160  -0.01784
 107        7PZ        -0.02955  -0.02851  -0.02373
 108        8PX         0.00000   0.00000   0.00000
 109        8PY         1.48153   1.37219   0.41371
 110        8PZ         1.66991   0.97632   0.49721
 111        9PX         0.00000   0.00000   0.00000
 112        9PY         1.13417   0.66963  -0.03724
 113        9PZ        -0.83164   1.40169  -0.24944
 114       10D 0       -0.01914   0.00959  -0.00099
 115       10D+1        0.00000   0.00000   0.00000
 116       10D-1       -0.01287  -0.00354   0.00014
 117       10D+2        0.00127  -0.00202   0.00826
 118       10D-2        0.00000   0.00000   0.00000
 119       11D 0        0.07215  -0.04222  -0.00302
 120       11D+1        0.00000   0.00000   0.00000
 121       11D-1        0.08666   0.02458   0.00354
 122       11D+2       -0.01959  -0.00861  -0.02894
 123       11D-2        0.00000   0.00000   0.00000
 124       12D 0        0.01266   0.13112   0.03604
 125       12D+1        0.00000   0.00000   0.00000
 126       12D-1        0.42523   0.37162   0.23629
 127       12D+2       -0.08477  -0.26146  -0.06778
 128       12D-2        0.00000   0.00000   0.00000
 129       13F 0        0.00525   0.00699   0.00734
 130       13F+1        0.00000   0.00000   0.00000
 131       13F-1       -0.01554  -0.00146  -0.00651
 132       13F+2        0.00780   0.00365   0.01455
 133       13F-2        0.00000   0.00000   0.00000
 134       13F+3        0.00000   0.00000   0.00000
 135       13F-3       -0.02170  -0.00021   0.00729
 136       14F 0       -0.03295  -0.02722  -0.02964
 137       14F+1        0.00000   0.00000   0.00000
 138       14F-1        0.07281   0.01306   0.01589
 139       14F+2       -0.05046  -0.04236  -0.04795
 140       14F-2        0.00000   0.00000   0.00000
 141       14F+3        0.00000   0.00000   0.00000
 142       14F-3        0.04494  -0.01974  -0.02325
 143 4   F  1S         -0.02464  -0.03233   0.00335
 144        2S         -0.14214  -0.16781   0.00455
 145        3S         -0.01860   0.00144  -0.01589
 146        4S          2.50344   1.37271   0.12847
 147        5S          5.84173   5.49700   1.85218
 148        6PX         0.00000   0.00000   0.00000
 149        6PY        -0.00146  -0.01084  -0.00231
 150        6PZ         0.01044   0.00263   0.00176
 151        7PX         0.00000   0.00000   0.00000
 152        7PY        -0.00567   0.06164   0.01763
 153        7PZ        -0.03044  -0.02870  -0.02371
 154        8PX         0.00000   0.00000   0.00000
 155        8PY        -1.41374  -1.32554  -0.40663
 156        8PZ         1.64308   0.96806   0.48840
 157        9PX         0.00000   0.00000   0.00000
 158        9PY        -1.03445  -0.62976   0.02762
 159        9PZ        -0.85769   1.39208  -0.23023
 160       10D 0       -0.01920   0.00986  -0.00090
 161       10D+1        0.00000   0.00000   0.00000
 162       10D-1        0.01258   0.00339  -0.00017
 163       10D+2        0.00118  -0.00224   0.00807
 164       10D-2        0.00000   0.00000   0.00000
 165       11D 0        0.07251  -0.04275  -0.00329
 166       11D+1        0.00000   0.00000   0.00000
 167       11D-1       -0.08401  -0.02334  -0.00325
 168       11D+2       -0.01813  -0.00709  -0.02803
 169       11D-2        0.00000   0.00000   0.00000
 170       12D 0        0.02280   0.14280   0.03698
 171       12D+1        0.00000   0.00000   0.00000
 172       12D-1       -0.41400  -0.36870  -0.23376
 173       12D+2       -0.07388  -0.25249  -0.06829
 174       12D-2        0.00000   0.00000   0.00000
 175       13F 0        0.00476   0.00684   0.00739
 176       13F+1        0.00000   0.00000   0.00000
 177       13F-1        0.01577   0.00191   0.00670
 178       13F+2        0.00752   0.00361   0.01454
 179       13F-2        0.00000   0.00000   0.00000
 180       13F+3        0.00000   0.00000   0.00000
 181       13F-3        0.02178   0.00049  -0.00724
 182       14F 0       -0.03036  -0.02617  -0.02958
 183       14F+1        0.00000   0.00000   0.00000
 184       14F-1       -0.07347  -0.01470  -0.01638
 185       14F+2       -0.04809  -0.04146  -0.04766
 186       14F-2        0.00000   0.00000   0.00000
 187       14F+3        0.00000   0.00000   0.00000
 188       14F-3       -0.04596   0.01827   0.02292
          Condensed to atoms (all electrons):
              1          2          3          4
     1  C    5.196805   0.242836   0.110971   0.110244
     2  S    0.242836  15.953638  -0.068247  -0.066158
     3  F    0.110971  -0.068247   9.174303  -0.081242
     4  F    0.110244  -0.066158  -0.081242   9.178449
 Mulliken atomic charges:
              1
     1  C    0.339145
     2  S   -0.062068
     3  F   -0.135784
     4  F   -0.141292
 Sum of Mulliken atomic charges =   0.00000
 Mulliken charges with hydrogens summed into heavy atoms:
              1
     1  C    0.339145
     2  S   -0.062068
     3  F   -0.135784
     4  F   -0.141292
 Sum of Mulliken charges with hydrogens summed into heavy atoms =   0.00000
 Electronic spatial extent (au):  <R**2>=            314.3517
 Charge=              0.0000 electrons
 Dipole moment (field-independent basis, Debye):
    X=              0.0000    Y=             -0.0209    Z=             -0.2687  Tot=              0.2695
 Quadrupole moment (field-independent basis, Debye-Ang):
   XX=            -27.2814   YY=            -30.1397   ZZ=            -27.9286
   XY=              0.0000   XZ=              0.0000   YZ=              0.0220
 Traceless Quadrupole moment (field-independent basis, Debye-Ang):
   XX=              1.1685   YY=             -1.6898   ZZ=              0.5213
   XY=              0.0000   XZ=              0.0000   YZ=              0.0220
 Octapole moment (field-independent basis, Debye-Ang**2):
  XXX=              0.0000  YYY=             -0.0552  ZZZ=              8.4992  XYY=              0.0000
  XXY=             -0.0165  XXZ=              0.6713  XZZ=              0.0000  YZZ=             -0.0584
  YYZ=              0.6983  XYZ=              0.0000
 Hexadecapole moment (field-independent basis, Debye-Ang**3):
 XXXX=            -28.1530 YYYY=            -96.1007 ZZZZ=           -214.2969 XXXY=              0.0000
 XXXZ=              0.0000 YYYX=              0.0000 YYYZ=              0.2012 ZZZX=              0.0000
 ZZZY=              0.2009 XXYY=            -20.7128 XXZZ=            -40.4010 YYZZ=            -55.5062
 XXYZ=              0.0641 YYXZ=              0.0000 ZZXY=              0.0000
 N-N= 1.545948327550D+02 E-N=-1.820513547164D+03  KE= 6.350098461432D+02
 1\1\GINC-TRAPISTA\SP\RQCISD-FC\Aug-CC-pVTZ\C1F2S1\BRUNS\27-Nov-2021\0\
 \# qcisd/aug-cc-pvtz nosymm density=current output=wfn\\f2cs-wavefunct
 ion\\0,1\C,0,0.,0.,-0.520349\S,0,0.,0.,1.078525\F,0,0.,-1.055221,-1.28
 5538\F,0,0.,1.055221,-1.295538\\Version=EM64L-G09RevB.01\HF=-634.35718
 39\MP2=-635.1963026\MP3=-635.1998205\MP4D=-635.2166857\MP4DQ=-635.1973
 703\MP4SDQ=-635.208171\QCISD=-635.2072859\RMSD=7.240e-09\Dipole=0.,-0.
 0082225,-0.1057283\Quadrupole=0.868764,-1.256322,0.387558,0.,0.,0.0163
 327\PG=CS [SG(C1F2S1)]\\@

 Writing a WFN file to GAUSSIAN.wfn.


 DO NOT LET SELFISH MEN OR GREEDY INTERESTS SKIN YOUR COUNTRY OF ITS
 BEAUTY, ITS RICHES, OR ITS ROMANCE. -- THEODORE ROOSEVELT
 Job cpu time:  0 days  2 hours  0 minutes 43.9 seconds.
 File lengths (MBytes):  RWF=  17813 Int=      0 D2E=      0 Chk=      3 Scr=      1
 Normal termination of Gaussian 09 at Sat Nov 27 07:41:13 2021.
