 f2cs-wavefunction
GAUSSIAN            188 MOL ORBITALS    330 PRIMITIVES        4 NUCLEI
  C    1    (CENTRE  1)   0.00000000  0.00000000 -0.98331710  CHARGE =  6.0
  S    2    (CENTRE  2)   0.00000000  0.00000000  2.03811688  CHARGE = 16.0
  F    3    (CENTRE  3)   0.00000000 -2.01297596 -2.44821201  CHARGE =  9.0
  F    4    (CENTRE  4)   0.00000000  1.99407870 -2.44821201  CHARGE =  9.0
CENTRE ASSIGNMENTS    1  1  1  1  1  1  1  1  1  1  1  1  1  1  1  1  1  1  1  1
CENTRE ASSIGNMENTS    1  1  1  1  1  1  1  1  1  1  1  1  1  1  1  1  1  1  1  1
CENTRE ASSIGNMENTS    1  1  1  1  1  1  1  1  1  1  1  1  1  1  1  1  1  1  1  1
CENTRE ASSIGNMENTS    1  1  1  1  1  1  1  1  1  1  1  1  2  2  2  2  2  2  2  2
CENTRE ASSIGNMENTS    2  2  2  2  2  2  2  2  2  2  2  2  2  2  2  2  2  2  2  2
CENTRE ASSIGNMENTS    2  2  2  2  2  2  2  2  2  2  2  2  2  2  2  2  2  2  2  2
CENTRE ASSIGNMENTS    2  2  2  2  2  2  2  2  2  2  2  2  2  2  2  2  2  2  2  2
CENTRE ASSIGNMENTS    2  2  2  2  2  2  2  2  2  2  2  2  2  2  2  2  2  2  2  2
CENTRE ASSIGNMENTS    2  2  2  2  2  2  2  2  2  2  2  2  2  2  2  2  2  2  2  2
CENTRE ASSIGNMENTS    2  2  2  2  2  2  3  3  3  3  3  3  3  3  3  3  3  3  3  3
CENTRE ASSIGNMENTS    3  3  3  3  3  3  3  3  3  3  3  3  3  3  3  3  3  3  3  3
CENTRE ASSIGNMENTS    3  3  3  3  3  3  3  3  3  3  3  3  3  3  3  3  3  3  3  3
CENTRE ASSIGNMENTS    3  3  3  3  3  3  3  3  3  3  3  3  3  3  3  3  3  3  4  4
CENTRE ASSIGNMENTS    4  4  4  4  4  4  4  4  4  4  4  4  4  4  4  4  4  4  4  4
CENTRE ASSIGNMENTS    4  4  4  4  4  4  4  4  4  4  4  4  4  4  4  4  4  4  4  4
CENTRE ASSIGNMENTS    4  4  4  4  4  4  4  4  4  4  4  4  4  4  4  4  4  4  4  4
CENTRE ASSIGNMENTS    4  4  4  4  4  4  4  4  4  4
TYPE ASSIGNMENTS      1  1  1  1  1  1  1  1  1  1  1  1  1  1  1  1  2  2  2  3
TYPE ASSIGNMENTS      3  3  4  4  4  2  3  4  2  3  4  2  3  4  5  6  7  8  9 10
TYPE ASSIGNMENTS      5  6  7  8  9 10  5  6  7  8  9 10 11 12 13 17 14 15 18 19
TYPE ASSIGNMENTS     16 20 11 12 13 17 14 15 18 19 16 20  1  1  1  1  1  1  1  1
TYPE ASSIGNMENTS      1  1  1  1  1  1  1  1  1  1  1  1  1  1  1  1  1  1  1  1
TYPE ASSIGNMENTS      1  1  1  2  2  2  2  2  2  3  3  3  3  3  3  4  4  4  4  4
TYPE ASSIGNMENTS      4  2  2  2  2  2  2  3  3  3  3  3  3  4  4  4  4  4  4  2
TYPE ASSIGNMENTS      3  4  2  3  4  2  3  4  5  6  7  8  9 10  5  6  7  8  9 10
TYPE ASSIGNMENTS      5  6  7  8  9 10 11 12 13 17 14 15 18 19 16 20 11 12 13 17
TYPE ASSIGNMENTS     14 15 18 19 16 20  1  1  1  1  1  1  1  1  1  1  1  1  1  1
TYPE ASSIGNMENTS      1  1  2  2  2  3  3  3  4  4  4  2  3  4  2  3  4  2  3  4
TYPE ASSIGNMENTS      5  6  7  8  9 10  5  6  7  8  9 10  5  6  7  8  9 10 11 12
TYPE ASSIGNMENTS     13 17 14 15 18 19 16 20 11 12 13 17 14 15 18 19 16 20  1  1
TYPE ASSIGNMENTS      1  1  1  1  1  1  1  1  1  1  1  1  1  1  2  2  2  3  3  3
TYPE ASSIGNMENTS      4  4  4  2  3  4  2  3  4  2  3  4  5  6  7  8  9 10  5  6
TYPE ASSIGNMENTS      7  8  9 10  5  6  7  8  9 10 11 12 13 17 14 15 18 19 16 20
TYPE ASSIGNMENTS     11 12 13 17 14 15 18 19 16 20
EXPONENTS  0.8236000D+04 0.1235000D+04 0.2808000D+03 0.7927000D+02 0.2559000D+02
EXPONENTS  0.8997000D+01 0.3319000D+01 0.2808000D+03 0.7927000D+02 0.2559000D+02
EXPONENTS  0.8997000D+01 0.3319000D+01 0.3643000D+00 0.9059000D+00 0.1285000D+00
EXPONENTS  0.4402000D-01 0.1871000D+02 0.4133000D+01 0.1200000D+01 0.1871000D+02
EXPONENTS  0.4133000D+01 0.1200000D+01 0.1871000D+02 0.4133000D+01 0.1200000D+01
EXPONENTS  0.3827000D+00 0.3827000D+00 0.3827000D+00 0.1209000D+00 0.1209000D+00
EXPONENTS  0.1209000D+00 0.3569000D-01 0.3569000D-01 0.3569000D-01 0.1097000D+01
EXPONENTS  0.1097000D+01 0.1097000D+01 0.1097000D+01 0.1097000D+01 0.1097000D+01
EXPONENTS  0.3180000D+00 0.3180000D+00 0.3180000D+00 0.3180000D+00 0.3180000D+00
EXPONENTS  0.3180000D+00 0.1000000D+00 0.1000000D+00 0.1000000D+00 0.1000000D+00
EXPONENTS  0.1000000D+00 0.1000000D+00 0.7610000D+00 0.7610000D+00 0.7610000D+00
EXPONENTS  0.7610000D+00 0.7610000D+00 0.7610000D+00 0.7610000D+00 0.7610000D+00
EXPONENTS  0.7610000D+00 0.7610000D+00 0.2680000D+00 0.2680000D+00 0.2680000D+00
EXPONENTS  0.2680000D+00 0.2680000D+00 0.2680000D+00 0.2680000D+00 0.2680000D+00
EXPONENTS  0.2680000D+00 0.2680000D+00 0.3741000D+06 0.5605000D+05 0.1276000D+05
EXPONENTS  0.3615000D+04 0.1183000D+04 0.4288000D+03 0.1678000D+03 0.6947000D+02
EXPONENTS  0.2984000D+02 0.1272000D+02 0.5244000D+01 0.3615000D+04 0.1183000D+04
EXPONENTS  0.4288000D+03 0.1678000D+03 0.6947000D+02 0.2984000D+02 0.1272000D+02
EXPONENTS  0.5244000D+01 0.2219000D+01 0.1183000D+04 0.1678000D+03 0.6947000D+02
EXPONENTS  0.2984000D+02 0.1272000D+02 0.5244000D+01 0.2219000D+01 0.3490000D+00
EXPONENTS  0.7767000D+00 0.1322000D+00 0.4970000D-01 0.5744000D+03 0.1358000D+03
EXPONENTS  0.4319000D+02 0.1587000D+02 0.6208000D+01 0.2483000D+01 0.5744000D+03
EXPONENTS  0.1358000D+03 0.4319000D+02 0.1587000D+02 0.6208000D+01 0.2483000D+01
EXPONENTS  0.5744000D+03 0.1358000D+03 0.4319000D+02 0.1587000D+02 0.6208000D+01
EXPONENTS  0.2483000D+01 0.1358000D+03 0.4319000D+02 0.1587000D+02 0.6208000D+01
EXPONENTS  0.2483000D+01 0.3229000D+00 0.1358000D+03 0.4319000D+02 0.1587000D+02
EXPONENTS  0.6208000D+01 0.2483000D+01 0.3229000D+00 0.1358000D+03 0.4319000D+02
EXPONENTS  0.1587000D+02 0.6208000D+01 0.2483000D+01 0.3229000D+00 0.8688000D+00
EXPONENTS  0.8688000D+00 0.8688000D+00 0.1098000D+00 0.1098000D+00 0.1098000D+00
EXPONENTS  0.3510000D-01 0.3510000D-01 0.3510000D-01 0.2690000D+00 0.2690000D+00
EXPONENTS  0.2690000D+00 0.2690000D+00 0.2690000D+00 0.2690000D+00 0.8190000D+00
EXPONENTS  0.8190000D+00 0.8190000D+00 0.8190000D+00 0.8190000D+00 0.8190000D+00
EXPONENTS  0.1010000D+00 0.1010000D+00 0.1010000D+00 0.1010000D+00 0.1010000D+00
EXPONENTS  0.1010000D+00 0.5570000D+00 0.5570000D+00 0.5570000D+00 0.5570000D+00
EXPONENTS  0.5570000D+00 0.5570000D+00 0.5570000D+00 0.5570000D+00 0.5570000D+00
EXPONENTS  0.5570000D+00 0.2180000D+00 0.2180000D+00 0.2180000D+00 0.2180000D+00
EXPONENTS  0.2180000D+00 0.2180000D+00 0.2180000D+00 0.2180000D+00 0.2180000D+00
EXPONENTS  0.2180000D+00 0.1950000D+05 0.2923000D+04 0.6645000D+03 0.1875000D+03
EXPONENTS  0.6062000D+02 0.2142000D+02 0.7950000D+01 0.6645000D+03 0.1875000D+03
EXPONENTS  0.6062000D+02 0.2142000D+02 0.7950000D+01 0.8815000D+00 0.2257000D+01
EXPONENTS  0.3041000D+00 0.9158000D-01 0.4388000D+02 0.9926000D+01 0.2930000D+01
EXPONENTS  0.4388000D+02 0.9926000D+01 0.2930000D+01 0.4388000D+02 0.9926000D+01
EXPONENTS  0.2930000D+01 0.9132000D+00 0.9132000D+00 0.9132000D+00 0.2672000D+00
EXPONENTS  0.2672000D+00 0.2672000D+00 0.7361000D-01 0.7361000D-01 0.7361000D-01
EXPONENTS  0.3107000D+01 0.3107000D+01 0.3107000D+01 0.3107000D+01 0.3107000D+01
EXPONENTS  0.3107000D+01 0.8550000D+00 0.8550000D+00 0.8550000D+00 0.8550000D+00
EXPONENTS  0.8550000D+00 0.8550000D+00 0.2920000D+00 0.2920000D+00 0.2920000D+00
EXPONENTS  0.2920000D+00 0.2920000D+00 0.2920000D+00 0.1917000D+01 0.1917000D+01
EXPONENTS  0.1917000D+01 0.1917000D+01 0.1917000D+01 0.1917000D+01 0.1917000D+01
EXPONENTS  0.1917000D+01 0.1917000D+01 0.1917000D+01 0.7240000D+00 0.7240000D+00
EXPONENTS  0.7240000D+00 0.7240000D+00 0.7240000D+00 0.7240000D+00 0.7240000D+00
EXPONENTS  0.7240000D+00 0.7240000D+00 0.7240000D+00 0.1950000D+05 0.2923000D+04
EXPONENTS  0.6645000D+03 0.1875000D+03 0.6062000D+02 0.2142000D+02 0.7950000D+01
EXPONENTS  0.6645000D+03 0.1875000D+03 0.6062000D+02 0.2142000D+02 0.7950000D+01
EXPONENTS  0.8815000D+00 0.2257000D+01 0.3041000D+00 0.9158000D-01 0.4388000D+02
EXPONENTS  0.9926000D+01 0.2930000D+01 0.4388000D+02 0.9926000D+01 0.2930000D+01
EXPONENTS  0.4388000D+02 0.9926000D+01 0.2930000D+01 0.9132000D+00 0.9132000D+00
EXPONENTS  0.9132000D+00 0.2672000D+00 0.2672000D+00 0.2672000D+00 0.7361000D-01
EXPONENTS  0.7361000D-01 0.7361000D-01 0.3107000D+01 0.3107000D+01 0.3107000D+01
EXPONENTS  0.3107000D+01 0.3107000D+01 0.3107000D+01 0.8550000D+00 0.8550000D+00
EXPONENTS  0.8550000D+00 0.8550000D+00 0.8550000D+00 0.8550000D+00 0.2920000D+00
EXPONENTS  0.2920000D+00 0.2920000D+00 0.2920000D+00 0.2920000D+00 0.2920000D+00
EXPONENTS  0.1917000D+01 0.1917000D+01 0.1917000D+01 0.1917000D+01 0.1917000D+01
EXPONENTS  0.1917000D+01 0.1917000D+01 0.1917000D+01 0.1917000D+01 0.1917000D+01
EXPONENTS  0.7240000D+00 0.7240000D+00 0.7240000D+00 0.7240000D+00 0.7240000D+00
EXPONENTS  0.7240000D+00 0.7240000D+00 0.7240000D+00 0.7240000D+00 0.7240000D+00
MO    1     MO 0.0        OCC NO =    2.0000304  ORB. ENERGY =    0.000000
  0.21514037D-03  0.40106498D-03  0.67785446D-03  0.10189417D-02  0.12515874D-02
  0.10562956D-02  0.39719472D-03  0.87621509D-07  0.65491650D-06  0.24475725D-05
  0.68283461D-05  0.91481012D-05 -0.10802202D-04  0.11913724D-04  0.13791471D-04
 -0.43727630D-06 -0.52642001D-13 -0.49355222D-13 -0.35143858D-13 -0.30603669D-02
 -0.28692885D-02 -0.20431044D-02 -0.30493608D-04 -0.28589696D-04 -0.20357566D-04
 -0.17421633D-13 -0.15575312D-02  0.97670713D-05 -0.12740510D-13  0.60564330D-03
 -0.53167363D-05  0.10042211D-15 -0.13468427D-04 -0.79891405D-07  0.66936789D-06
  0.39319469D-05 -0.46013148D-05 -0.10430803D-14 -0.69227696D-14 -0.10260202D-02
 -0.12438343D-05 -0.16721557D-05  0.29159900D-05  0.21053194D-14  0.31039513D-15
  0.39847891D-03  0.50225689D-07 -0.39842506D-06  0.34819937D-06  0.14722939D-15
 -0.33522638D-14 -0.22401580D-03 -0.32570157D-15  0.23800157D-03  0.27555437D-05
  0.84438285D-15  0.35883701D-03 -0.30738051D-05  0.13272186D-15 -0.10728417D-02
 -0.51928259D-05 -0.19485008D-14  0.74980740D-15 -0.13526352D-03 -0.60660777D-06
 -0.70885366D-15 -0.12843719D-03  0.72993006D-06 -0.15405685D-14  0.53422775D-03
  0.10898933D-05 -0.86389656D-15  0.45096875D-03  0.84313150D-03  0.14571818D-02
  0.23569316D-02  0.35624232D-02  0.49061943D-02  0.57347437D-02  0.49563532D-02
  0.23131559D-02  0.31338186D-03 -0.22921201D-05  0.56148241D-05  0.72177998D-04
  0.26329496D-03  0.88835068D-03  0.19512167D-02  0.25204398D-02 -0.40505611D-03
 -0.33979393D-02 -0.18647453D-02  0.48998556D-07  0.55812401D-06  0.11588666D-05
  0.31865890D-05 -0.41317785D-06 -0.14408304D-04 -0.35936599D-04  0.29747796D-04
 -0.98579614D-04 -0.67632423D-06  0.10757355D-05  0.12068426D-09  0.15833088D-09
  0.17365471D-09  0.14287786D-09  0.75317086D-10  0.19596089D-10  0.97653241D+01
  0.12811550D+02  0.14051497D+02  0.11561149D+02  0.60943803D+01  0.15856431D+01
 -0.31839755D-01 -0.41771948D-01 -0.45814786D-01 -0.37695026D-01 -0.19870674D-01
 -0.51699757D-02  0.75071849D-15  0.26947514D-13  0.42752906D-13  0.50767765D-13
  0.76825010D-14 -0.55911802D-13  0.94620732D-04  0.33964709D-02  0.53885862D-02
  0.63987808D-02  0.96830419D-03 -0.70471365D-02 -0.35806526D-06 -0.12852978D-04
 -0.20391572D-04 -0.24214367D-04 -0.36642719D-05  0.26667884D-04  0.90887102D-12
  0.67595245D-01 -0.23243230D-03  0.97423699D-14 -0.37982855D-03  0.24284437D-05
 -0.17943879D-15 -0.71350560D-05 -0.46468715D-07  0.21613905D-05  0.15605170D-05
 -0.37219075D-05  0.27039582D-15  0.41044953D-15  0.95700434D-03  0.26237893D-06
  0.13986940D-05 -0.16610729D-05  0.64748271D-15  0.25926776D-14 -0.55335600D-03
  0.84376167D-07  0.90287023D-07 -0.17466319D-06 -0.62650575D-16 -0.29843467D-14
 -0.41841258D-04  0.14936386D-14  0.34846287D-04  0.10007531D-05  0.75514116D-16
  0.11026951D-03 -0.19482286D-05 -0.45564300D-14 -0.21480838D-03 -0.10540308D-05
 -0.62940182D-15 -0.49102742D-15  0.34605090D-04  0.38666601D-06 -0.23373534D-15
  0.16193567D-04 -0.57046231D-06  0.17068176D-14 -0.12000884D-03 -0.58953572D-06
  0.93361763D-16  0.49689990D-02  0.92622226D-02  0.15701531D-01  0.23774241D-01
  0.29723038D-01  0.25567143D-01  0.98055494D-02 -0.68760254D-06 -0.91025702D-05
 -0.33062191D-04 -0.98078367D-04 -0.11301551D-03  0.13727417D-03  0.58134094D-03
  0.88945651D-04  0.83869453D-03  0.11549383D-12  0.11295045D-12  0.74631136D-13
 -0.13814690D-02 -0.13510465D-02 -0.89269356D-03 -0.39066247D-02 -0.38205936D-02
 -0.25244277D-02  0.23338819D-13 -0.40167891D-03 -0.10765918D-02  0.10135356D-13
 -0.15008545D-03 -0.73321081D-03 -0.54818207D-15  0.91294666D-04  0.11087888D-04
  0.23910987D-04  0.27293917D-04 -0.51204904D-04 -0.18291452D-13  0.12086610D-13
  0.26703964D-03 -0.55444206D-04 -0.12699644D-03  0.18244064D-03  0.37897266D-14
 -0.35525409D-14 -0.14439681D-03  0.10832496D-03 -0.22848836D-04 -0.85476119D-04
  0.20865104D-14  0.30914388D-14 -0.27757390D-03  0.10639205D-13 -0.23283891D-04
 -0.62518828D-04 -0.18842597D-13 -0.33635343D-03  0.20180815D-04 -0.13075019D-13
  0.40620510D-03  0.16737567D-03  0.23396864D-13 -0.17964991D-14 -0.62880073D-04
  0.95877715D-04  0.55241825D-14  0.19935787D-03 -0.41034433D-04 -0.13468517D-15
 -0.10717655D-04 -0.24659871D-03  0.13986466D-14 -0.51040832D-02 -0.95140199D-02
 -0.16128383D-01 -0.24420554D-01 -0.30531071D-01 -0.26262196D-01 -0.10072117D-01
  0.63310523D-06  0.83811278D-05  0.30441781D-04  0.90304971D-04  0.10405824D-03
 -0.12639423D-03 -0.58989039D-03 -0.86120423D-04 -0.84528748D-03  0.54926391D-13
  0.53716810D-13  0.35492968D-13 -0.12509194D-02 -0.12233718D-02 -0.80833349D-03
  0.39378107D-02  0.38510929D-02  0.25445799D-02  0.10413224D-13 -0.37702742D-03
  0.10900804D-02  0.47518690D-14 -0.14815883D-03  0.74458058D-03 -0.68567364D-15
  0.91528457D-04 -0.11172372D-04 -0.25306375D-04 -0.26590846D-04  0.51897222D-04
 -0.20166253D-14  0.17873150D-13  0.26477177D-03  0.55794418D-04  0.13178632D-03
 -0.18758073D-03 -0.25721192D-14 -0.61987689D-14 -0.14820447D-03 -0.10963959D-03
  0.22561930D-04  0.87077663D-04 -0.27858240D-15  0.16056977D-14 -0.27781350D-03
 -0.69324709D-14 -0.26594515D-04  0.56589120D-04 -0.86323047D-14 -0.33181750D-03
 -0.21246590D-04  0.29429717D-13  0.41160105D-03 -0.14852077D-03  0.19791209D-13
 -0.54530556D-17 -0.63384097D-04 -0.95665462D-04  0.30020036D-14  0.19869110D-03
  0.43249403D-04 -0.29856444D-14 -0.85388129D-05  0.24374698D-03 -0.11528091D-14
MO    2     MO 0.0        OCC NO =    2.0000247  ORB. ENERGY =    0.000000
 -0.59333484D-01 -0.11060957D+00 -0.18694524D+00 -0.28101356D+00 -0.34517483D+00
 -0.29131538D+00 -0.10954219D+00 -0.94599614D-05 -0.70707351D-04 -0.26424951D-03
 -0.73721500D-03 -0.98766485D-03  0.11662480D-02 -0.44964897D-02 -0.13879381D-02
 -0.56550483D-04 -0.58068760D-12 -0.54443154D-12 -0.38766769D-12 -0.20220514D-04
 -0.18958017D-04 -0.13499238D-04  0.29369558D-02  0.27535828D-02  0.19607150D-02
 -0.10591940D-12 -0.76330322D-05 -0.42014862D-03 -0.10327058D-13  0.37844957D-05
 -0.93754463D-03  0.64290044D-15 -0.12384352D-07  0.77096118D-05  0.25685490D-03
 -0.10183658D-03 -0.15501832D-03  0.71187614D-14 -0.15796204D-12  0.48555455D-05
  0.10328510D-03  0.15447325D-03 -0.25775834D-03 -0.75958114D-14  0.69633060D-13
  0.13099761D-05  0.16976389D-04  0.61791450D-04 -0.78767839D-04 -0.38833427D-15
 -0.37879230D-14 -0.10907215D-05  0.15996848D-13  0.54698369D-06 -0.35574998D-04
  0.79590799D-14  0.32964041D-05 -0.10076669D-03 -0.55949624D-13 -0.49373551D-05
  0.20749169D-03  0.47417384D-14 -0.58594749D-14  0.24472166D-07  0.46542902D-04
 -0.93732186D-14 -0.59590962D-06  0.26737678D-04  0.26951643D-13  0.52249312D-06
 -0.16636638D-03  0.34395040D-14 -0.12699013D+00 -0.23742083D+00 -0.41033376D+00
 -0.66369795D+00 -0.10031572D+01 -0.13815552D+01 -0.16148698D+01 -0.13956797D+01
 -0.65137098D+00 -0.88246474D-01  0.64544742D-03 -0.15831653D-02 -0.20351431D-01
 -0.74239096D-01 -0.25048087D+00 -0.55016838D+00 -0.71066748D+00  0.11421031D+00
  0.95808876D+00  0.52578675D+00 -0.13253194D-04 -0.15096211D-03 -0.31345177D-03
 -0.86191276D-03  0.11175689D-03  0.38971770D-02  0.97201783D-02 -0.80462228D-02
  0.29249210D-01  0.15603292D-02  0.75520955D-04  0.14853822D-08  0.19487370D-08
  0.21373427D-08  0.17585412D-08  0.92700294D-09  0.24118873D-09  0.40833123D-01
  0.53570735D-01  0.58755502D-01  0.48342257D-01  0.25483289D-01  0.66302726D-02
  0.62331900D+01  0.81775908D+01  0.89690473D+01  0.73794620D+01  0.38900328D+01
  0.10121134D+01  0.87241846D-14  0.31316011D-12  0.49683637D-12  0.58997795D-12
  0.89279214D-13 -0.64975739D-12  0.34404463D-06  0.12349699D-04  0.19593107D-04
  0.23266214D-04  0.35207914D-05 -0.25623660D-04  0.57844024D-04  0.20763477D-02
  0.32941777D-02  0.39117350D-02  0.59194861D-03 -0.43080911D-02  0.11200892D-10
  0.28774319D-03  0.46069206D-01 -0.62677767D-16 -0.89431676D-06 -0.79316495D-03
 -0.29089715D-14 -0.40928977D-07 -0.63436640D-05 -0.25916084D-03 -0.14556263D-03
  0.40472347D-03 -0.50756406D-15  0.89937221D-13  0.26281676D-05  0.15304532D-03
 -0.37261997D-03  0.21957465D-03 -0.11056525D-15 -0.42954487D-13 -0.18687885D-05
 -0.14691699D-04 -0.27381005D-04  0.42072704D-04  0.50896160D-16 -0.18629804D-14
 -0.21150016D-06  0.12668218D-13 -0.83792917D-07 -0.88504187D-04 -0.58432328D-14
  0.39714414D-06  0.21791068D-03 -0.32161421D-13 -0.14576539D-06  0.47601881D-04
  0.12068252D-14  0.16821587D-14  0.10033813D-06 -0.22195137D-04  0.43367541D-14
  0.36694079D-07  0.31956625D-04 -0.93832303D-14 -0.33770847D-06  0.34628786D-04
  0.11194790D-15  0.65682348D-02  0.12243201D-01  0.20754953D-01  0.31425806D-01
  0.39289179D-01  0.33795740D-01  0.12961394D-01  0.15119628D-05  0.20015556D-04
  0.72700142D-04  0.21566360D-03  0.24850874D-03 -0.30185088D-03  0.51873777D-03
 -0.38627790D-03 -0.24776555D-03  0.11142022D-11  0.10896654D-11  0.71998798D-12
  0.91797504D-04  0.89775954D-04  0.59318769D-04 -0.95631923D-03 -0.93525932D-03
 -0.61796538D-03  0.26583540D-12 -0.98800966D-04 -0.38956711D-03  0.46802044D-13
 -0.26928816D-05 -0.82170573D-04 -0.91154500D-15 -0.47955403D-05 -0.59220774D-04
  0.38232545D-04 -0.10503334D-03  0.66800798D-04 -0.56135469D-13 -0.17395505D-13
 -0.30881690D-04 -0.21168693D-04  0.91092368D-05  0.12059456D-04  0.18465346D-13
 -0.81142425D-14  0.89079887D-04 -0.45099109D-04  0.91625630D-05  0.35936546D-04
 -0.38047414D-14  0.78108500D-14 -0.22786032D-04 -0.36466413D-14 -0.77770186D-04
 -0.11006921D-03 -0.16657631D-13  0.10867200D-03  0.17612226D-04  0.27597554D-13
  0.12463856D-03  0.31259539D-03 -0.67617470D-13  0.10703668D-14  0.16297599D-04
  0.44286302D-04  0.89508070D-14 -0.97900973D-04 -0.75172331D-04 -0.12161907D-13
  0.49008175D-04 -0.57686574D-04  0.24426073D-13  0.65988389D-02  0.12300247D-01
  0.20851659D-01  0.31572232D-01  0.39472243D-01  0.33953208D-01  0.13021786D-01
  0.15472962D-05  0.20483304D-04  0.74399087D-04  0.22070349D-03  0.25431620D-03
 -0.30890490D-03  0.51752913D-03 -0.38685208D-03 -0.25754316D-03  0.11435457D-11
  0.11183627D-11  0.73894954D-12 -0.12641704D-03 -0.12363310D-03 -0.81689617D-04
 -0.90542008D-03 -0.88548106D-03 -0.58507478D-03  0.27198347D-12  0.86334514D-04
 -0.37586643D-03  0.58114718D-13 -0.79139014D-05 -0.79686546D-04 -0.47447809D-15
  0.50917745D-05 -0.60059568D-04  0.36678607D-04 -0.10581512D-03  0.69136511D-04
  0.67586816D-13 -0.16260900D-13  0.28236965D-04 -0.22172067D-04  0.10310602D-04
  0.11861465D-04 -0.23847361D-13 -0.50406280D-14 -0.94088151D-04 -0.46584285D-04
  0.11575185D-04  0.35009100D-04 -0.16747064D-14  0.11946220D-13  0.20874806D-04
 -0.27630466D-14  0.80088790D-04 -0.10709949D-03 -0.82964511D-14 -0.11350176D-03
  0.20098820D-04  0.16585591D-13 -0.12676460D-03  0.30119966D-03  0.94491950D-13
 -0.78320899D-15 -0.16897043D-04  0.43621205D-04  0.12676325D-13  0.99164413D-04
 -0.76020925D-04 -0.10326698D-13 -0.48473284D-04 -0.54842692D-04 -0.37107039D-13
MO    3     MO 0.0        OCC NO =    2.0000101  ORB. ENERGY =    0.000000
  0.19876306D+00  0.37053439D+00  0.62625361D+00  0.94137597D+00  0.11563118D+01
  0.97588634D+00  0.36695875D+00  0.26960028D-04  0.20150950D-03  0.75308703D-03
  0.21009955D-02  0.28147548D-02 -0.33237006D-02  0.15843712D-01  0.36366097D-03
  0.13485390D-03  0.14090981D-11  0.13211190D-11  0.94071545D-12  0.17778512D-04
  0.16668485D-04  0.11868954D-04 -0.73328215D-02 -0.68749862D-02 -0.48953998D-02
  0.28255670D-12  0.35974247D-05  0.59993687D-03  0.38353898D-13 -0.20075266D-05
  0.54254997D-03 -0.96180408D-15  0.47978586D-07  0.66010886D-05 -0.67244063D-03
  0.54489501D-03  0.12754562D-03  0.64786844D-14  0.35671688D-12 -0.28933363D-04
  0.20482438D-03 -0.24605981D-03  0.41235435D-04 -0.70553819D-14 -0.16559080D-12
  0.24695161D-05 -0.93419124D-05 -0.38492878D-04  0.47834790D-04 -0.48665036D-15
  0.90585639D-14  0.94530571D-06 -0.38900103D-13  0.48629525D-07 -0.87462370D-05
 -0.10159112D-13 -0.54615968D-05  0.25755150D-03  0.12685942D-12  0.53157082D-05
 -0.23131279D-03  0.53661653D-14  0.11396895D-13 -0.11725548D-05 -0.14705217D-03
  0.25270882D-13  0.35708114D-06 -0.11904257D-05 -0.59461566D-13  0.31605833D-05
  0.44234694D-03  0.23172451D-14 -0.99261121D-01 -0.18557866D+00 -0.32073509D+00
 -0.51877579D+00 -0.78411224D+00 -0.10798849D+01 -0.12622539D+01 -0.10909252D+01
 -0.50914048D+00 -0.68977363D-01  0.50451037D-03 -0.12511514D-02 -0.16083426D-01
 -0.58670026D-01 -0.19795121D+00 -0.43478969D+00 -0.56162968D+00  0.90258668D-01
  0.75716294D+00  0.41552126D+00 -0.55047796D-05 -0.62702862D-04 -0.13019374D-03
 -0.35799973D-03  0.46418777D-04  0.16187118D-02  0.40373242D-02 -0.33420385D-02
  0.24956232D-01 -0.17718383D-02 -0.19525661D-03 -0.34138327D-08 -0.44787544D-08
 -0.49122243D-08 -0.40416301D-08 -0.21305176D-08 -0.55432061D-09 -0.53376212D-02
 -0.70026555D-02 -0.76803975D-02 -0.63191997D-02 -0.33311228D-02 -0.86669549D-03
 -0.50340211D+01 -0.66043494D+01 -0.72435419D+01 -0.59597681D+01 -0.31416509D+01
 -0.81739846D+00 -0.20187850D-13 -0.72465561D-12 -0.11496843D-11 -0.13652148D-11
 -0.20659299D-12  0.15035451D-11  0.18253930D-07  0.65523635D-06  0.10395489D-05
  0.12344324D-05  0.18680216D-06 -0.13595111D-05 -0.41021211D-04 -0.14724823D-02
 -0.23361300D-02 -0.27740827D-02 -0.41979184D-03  0.30551663D-02 -0.25724274D-10
 -0.37804192D-04 -0.39552901D-01 -0.36345295D-14 -0.13471950D-05  0.43874997D-03
  0.64051035D-14 -0.18045126D-07  0.64152205D-05  0.27899162D-03  0.20529175D-03
 -0.48428337D-03  0.13029850D-15 -0.20403318D-12  0.27762405D-05 -0.27702212D-04
 -0.29397331D-03  0.32167552D-03 -0.35083339D-15  0.86395902D-13  0.28455693D-05
  0.86945209D-05  0.98058031D-05 -0.18500324D-04  0.14225173D-15  0.60366221D-14
  0.26618344D-06 -0.29212830D-13  0.63828139D-06  0.11345088D-03  0.11018562D-13
  0.17326267D-06 -0.27488865D-03  0.76619928D-13 -0.20881068D-05 -0.65463977D-04
  0.11172997D-14 -0.32769316D-14  0.89643778D-07  0.27154549D-04 -0.10096416D-13
  0.98119615D-07 -0.55957519D-04  0.19927211D-13 -0.36705095D-06 -0.25506128D-04
 -0.28632068D-15 -0.51321619D-01 -0.95663586D-01 -0.16217109D+00 -0.24554896D+00
 -0.30699029D+00 -0.26406670D+00 -0.10127526D+00 -0.80939055D-05 -0.10714815D-03
 -0.38918159D-03 -0.11544999D-02 -0.13303279D-02  0.16158814D-02 -0.44095830D-02
  0.10934835D-02  0.14412126D-03 -0.22629412D-11 -0.22131071D-11 -0.14622934D-11
 -0.45598518D-02 -0.44594354D-02 -0.29465375D-02 -0.11211045D-02 -0.10964157D-02
 -0.72444824D-03 -0.52884573D-12 -0.46687882D-03  0.23683308D-03 -0.12639208D-12
 -0.35373601D-04  0.19355219D-03  0.29655589D-15 -0.25675606D-05  0.28532410D-04
 -0.15901384D-03  0.17758544D-03 -0.18571604D-04  0.12866165D-12  0.63095765D-13
  0.42525251D-03  0.10311516D-03 -0.32977172D-04 -0.70137988D-04 -0.39468646D-13
  0.16295733D-13 -0.27427593D-03  0.80434369D-04 -0.23879429D-04 -0.56554940D-04
 -0.68318892D-14 -0.29787674D-13  0.76060476D-04 -0.42242888D-14  0.10812585D-03
  0.23616076D-03  0.47722711D-13 -0.33640849D-03 -0.21607886D-03 -0.35049845D-13
  0.12030947D-04 -0.49240342D-03  0.25464767D-12  0.34126820D-14 -0.24555994D-04
 -0.67912715D-04 -0.29311217D-13  0.31220533D-03  0.26624222D-03  0.19073171D-13
 -0.23853735D-03 -0.62504073D-04 -0.89683412D-13 -0.51804367D-01 -0.96563430D-01
 -0.16369653D+00 -0.24785868D+00 -0.30987794D+00 -0.26655060D+00 -0.10222789D+00
 -0.82099389D-05 -0.10868422D-03 -0.39476086D-03 -0.11710506D-02 -0.13493993D-02
  0.16390465D-02 -0.44474641D-02  0.10944206D-02  0.14783693D-03 -0.21622438D-11
 -0.21146272D-11 -0.13972236D-11  0.46558836D-02  0.45533525D-02  0.30085925D-02
 -0.12046518D-02 -0.11781231D-02 -0.77843578D-03 -0.51353065D-12  0.49647497D-03
  0.21881253D-03 -0.11365913D-12  0.60538261D-04  0.19783035D-03  0.94712395D-15
  0.25759896D-05  0.28772326D-04 -0.15305973D-03  0.17702856D-03 -0.23968824D-04
 -0.15716448D-12  0.76791222D-13 -0.41305273D-03  0.10901864D-03 -0.38073021D-04
 -0.70945624D-04  0.40190311D-13  0.16910688D-13  0.29241209D-03  0.83289163D-04
 -0.30275203D-04 -0.53013960D-04  0.58433880D-15 -0.25343402D-13 -0.73924100D-04
 -0.33167815D-14 -0.11447752D-03  0.22872748D-03  0.48799495D-13  0.34859223D-03
 -0.22565275D-03 -0.38849151D-13 -0.51596791D-05 -0.46052969D-03 -0.21472036D-12
  0.12225824D-14  0.25960431D-04 -0.66724176D-04 -0.26295928D-13 -0.31616853D-03
  0.27095914D-03  0.22628181D-13  0.23828724D-03 -0.70786614D-04  0.74358185D-13
MO    4     MO 0.0        OCC NO =    2.0000089  ORB. ENERGY =    0.000000
  0.54182884D-10  0.10100781D-09  0.17071696D-09  0.25661944D-09  0.31521101D-09
  0.26602698D-09  0.10003309D-09  0.86657101D-14  0.64770814D-13  0.24206332D-12
  0.67531897D-12  0.90474124D-12 -0.10683307D-11  0.43129911D-11  0.12457668D-12
  0.58132875D-13 -0.39811063D-02 -0.37325402D-02 -0.26577910D-02  0.64402713D-13
  0.60381637D-13  0.42995323D-13 -0.27472707D-11 -0.25757409D-11 -0.18340810D-11
 -0.78397789D-03  0.99197684D-14  0.23087997D-12 -0.12080552D-03  0.13461067D-14
  0.26243468D-12  0.20048019D-05 -0.13069048D-14  0.20349028D-14 -0.18548883D-12
  0.14511665D-12  0.40372182D-13  0.10179326D-05 -0.10023608D-02  0.12090034D-12
  0.94396826D-13 -0.12213713D-12  0.27740307D-13 -0.39353079D-05  0.46172556D-03
  0.27210705D-13 -0.38752518D-14 -0.20066169D-13  0.23941420D-13 -0.72567174D-07
 -0.27103230D-04 -0.95459854D-14  0.10136126D-03 -0.13150267D-13 -0.68839452D-13
  0.43242695D-04  0.62880368D-13  0.10393483D-12 -0.34732647D-03 -0.23429566D-13
  0.10258353D-12  0.50202071D-05 -0.31241482D-04  0.10646728D-13 -0.74106612D-13
 -0.72115473D-04  0.71057180D-14  0.95022084D-14  0.16583992D-03 -0.39045901D-13
  0.21281763D-12  0.12254409D-05 -0.42020745D-10 -0.78562016D-10 -0.13577851D-09
 -0.21961615D-09 -0.33194246D-09 -0.45715350D-09 -0.53435677D-09 -0.46182725D-09
 -0.21553718D-09 -0.29200559D-10  0.21357709D-12 -0.24298102D-12 -0.31234965D-11
 -0.11394066D-10 -0.38443297D-10 -0.84438730D-10 -0.10907181D-09  0.17528768D-10
  0.14704552D-09  0.80696687D-10  0.11726124D-15  0.13356784D-14  0.27733498D-14
  0.76260077D-14 -0.98879947D-15 -0.34481334D-13 -0.86001923D-13  0.71191146D-13
  0.52466792D-11 -0.70748006D-12 -0.83915417D-13  0.97274285D+01  0.12761833D+02
  0.13996969D+02  0.11516284D+02  0.60707303D+01  0.15794898D+01 -0.14941290D-09
 -0.19602123D-09 -0.21499287D-09 -0.17688966D-09 -0.93246168D-10 -0.24260899D-10
 -0.31593031D-08 -0.41448260D-08 -0.45459770D-08 -0.37402930D-08 -0.19716698D-08
 -0.51299139D-09  0.57277739D-04  0.20560206D-02  0.32619282D-02  0.38734397D-02
  0.58615352D-03 -0.42659155D-02 -0.15881650D-14 -0.57008186D-13 -0.90444915D-13
 -0.10740056D-12 -0.16252536D-13  0.11828291D-12 -0.23451573D-13 -0.84180900D-12
 -0.13355511D-11 -0.15859259D-11 -0.23999240D-12  0.17466197D-11  0.73316943D-01
 -0.10559729D-11 -0.24383986D-10  0.19386085D-04  0.26217358D-13  0.24517038D-12
 -0.17750411D-04  0.98690889D-15  0.44603603D-14  0.14078395D-12  0.93660237D-13
 -0.23444419D-12 -0.29502857D-06  0.57464939D-03 -0.32255536D-13 -0.94352805D-13
 -0.11328555D-12  0.20763835D-12  0.50549067D-06 -0.25519347D-03  0.17270703D-13
  0.55618115D-14  0.75417964D-14 -0.13103608D-13 -0.17087637D-07 -0.19918061D-04
 -0.39613311D-14  0.83568840D-04 -0.10975669D-14  0.25357578D-13 -0.31625964D-04
 -0.26555185D-14 -0.95851443D-13 -0.21908055D-03  0.59482192D-14  0.19778708D-13
  0.25950017D-06  0.88451837D-05 -0.11835139D-14  0.16410892D-13  0.27888219D-04
 -0.16671491D-14 -0.30607328D-13 -0.54423770D-04  0.52176907D-14 -0.18625349D-13
  0.10986415D-06  0.21137955D-10  0.39401185D-10  0.66793787D-10  0.10113483D-09
  0.12644081D-09  0.10876177D-09  0.41712479D-10  0.10140843D-14  0.13424578D-13
  0.48760509D-13  0.14464713D-12  0.16667660D-12 -0.20245356D-12  0.20457868D-11
  0.49730445D-12  0.12288505D-12  0.63523375D-02  0.62124473D-02  0.41048266D-02
 -0.23821026D-12 -0.23296443D-12 -0.15392945D-12  0.94628507D-12  0.92544613D-12
  0.61148139D-12  0.14907943D-02 -0.28016094D-13  0.32902097D-12  0.34063280D-03
  0.52068495D-13  0.21078333D-12 -0.71941538D-06  0.60601831D-14  0.18852619D-13
 -0.64320423D-13  0.88199228D-13 -0.23878805D-13 -0.35732318D-03 -0.14172421D-03
  0.32614473D-13  0.28346073D-13 -0.17711095D-13 -0.10634978D-13  0.98041238D-04
 -0.56903550D-04 -0.38504775D-13  0.25568396D-13 -0.11717359D-13 -0.13851037D-13
  0.10569507D-04  0.77412676D-04  0.77143330D-13  0.61032478D-05  0.17333352D-13
  0.12037020D-12 -0.12192681D-03 -0.46500240D-13 -0.94895668D-13  0.10361707D-03
 -0.54998151D-14 -0.26621493D-12 -0.59441695D-03 -0.37351553D-05 -0.98882931D-14
 -0.50920653D-13  0.71812410D-04  0.74314819D-13  0.87196494D-13 -0.60606944D-04
 -0.44649940D-13  0.65565466D-13  0.21410013D-03 -0.12067997D-09 -0.22494766D-09
 -0.38133641D-09 -0.57739489D-09 -0.72187078D-09 -0.62093832D-09 -0.23814321D-09
 -0.11999277D-13 -0.15884796D-12 -0.57696469D-12 -0.17115549D-11 -0.19722213D-11
  0.23955565D-11 -0.11103061D-10  0.48099814D-12  0.70699578D-13  0.63796933D-02
  0.62392007D-02  0.41225037D-02  0.34093651D-11  0.33342846D-11  0.22031028D-11
 -0.14148824D-11 -0.13837241D-11 -0.91428500D-12  0.14998235D-02 -0.14798620D-13
  0.26528320D-12  0.34731109D-03  0.68542355D-13  0.47897886D-13 -0.73214240D-06
  0.41891324D-14  0.18413095D-13 -0.21839931D-13  0.38520916D-13 -0.16680985D-13
  0.36608797D-03 -0.14809988D-03 -0.88344004D-14 -0.12976411D-13  0.42552524D-13
 -0.29576113D-13 -0.10200033D-03 -0.55621116D-04 -0.10215912D-12  0.51044467D-13
 -0.23027786D-13 -0.28016681D-13 -0.12703207D-04  0.80268377D-04 -0.14888760D-13
  0.77343963D-05 -0.10734485D-12  0.11285033D-12 -0.12509799D-03  0.34844688D-12
 -0.15195730D-12  0.10189480D-03 -0.26412337D-13 -0.18659368D-12  0.60780070D-03