 Entering Gaussian System, Link 0=/home/bruns/programas/chemistry/gaussian/g09/g09
 Input=GAUSSIAN.com
 Output=GAUSSIAN.log
 Initial command:
 /home/bruns/programas/chemistry/gaussian/g09/l1.exe /home/bruns/programas/chemistry/gaussian/work/Gau-36829.inp -scrdir=/home/bruns/programas/chemistry/gaussian/work/
 Entering Link 1 = /home/bruns/programas/chemistry/gaussian/g09/l1.exe PID=     36831.
  
 Copyright (c) 1988,1990,1992,1993,1995,1998,2003,2009,2010,
            Gaussian, Inc.  All Rights Reserved.
  
 This is part of the Gaussian(R) 09 program.  It is based on
 the Gaussian(R) 03 system (copyright 2003, Gaussian, Inc.),
 the Gaussian(R) 98 system (copyright 1998, Gaussian, Inc.),
 the Gaussian(R) 94 system (copyright 1995, Gaussian, Inc.),
 the Gaussian 92(TM) system (copyright 1992, Gaussian, Inc.),
 the Gaussian 90(TM) system (copyright 1990, Gaussian, Inc.),
 the Gaussian 88(TM) system (copyright 1988, Gaussian, Inc.),
 the Gaussian 86(TM) system (copyright 1986, Carnegie Mellon
 University), and the Gaussian 82(TM) system (copyright 1983,
 Carnegie Mellon University). Gaussian is a federally registered
 trademark of Gaussian, Inc.
  
 This software contains proprietary and confidential information,
 including trade secrets, belonging to Gaussian, Inc.
  
 This software is provided under written license and may be
 used, copied, transmitted, or stored only in accord with that
 written license.
  
 The following legend is applicable only to US Government
 contracts under FAR:
  
                    RESTRICTED RIGHTS LEGEND
  
 Use, reproduction and disclosure by the US Government is
 subject to restrictions as set forth in subparagraphs (a)
 and (c) of the Commercial Computer Software - Restricted
 Rights clause in FAR 52.227-19.
  
 Gaussian, Inc.
 340 Quinnipiac St., Bldg. 40, Wallingford CT 06492
  
  
 ---------------------------------------------------------------
 Warning -- This program may not be used in any manner that
 competes with the business of Gaussian, Inc. or will provide
 assistance to any competitor of Gaussian, Inc.  The licensee
 of this program is prohibited from giving any competitor of
 Gaussian, Inc. access to this program.  By using this program,
 the user acknowledges that Gaussian, Inc. is engaged in the
 business of creating and licensing software in the field of
 computational chemistry and represents and warrants to the
 licensee that it is not a competitor of Gaussian, Inc. and that
 it will not use this program in any manner prohibited above.
 ---------------------------------------------------------------
  

 Cite this work as:
 Gaussian 09, Revision B.01,
 M. J. Frisch, G. W. Trucks, H. B. Schlegel, G. E. Scuseria, 
 M. A. Robb, J. R. Cheeseman, G. Scalmani, V. Barone, B. Mennucci, 
 G. A. Petersson, H. Nakatsuji, M. Caricato, X. Li, H. P. Hratchian, 
 A. F. Izmaylov, J. Bloino, G. Zheng, J. L. Sonnenberg, M. Hada, 
 M. Ehara, K. Toyota, R. Fukuda, J. Hasegawa, M. Ishida, T. Nakajima, 
 Y. Honda, O. Kitao, H. Nakai, T. Vreven, J. A. Montgomery, Jr., 
 J. E. Peralta, F. Ogliaro, M. Bearpark, J. J. Heyd, E. Brothers, 
 K. N. Kudin, V. N. Staroverov, T. Keith, R. Kobayashi, J. Normand, 
 K. Raghavachari, A. Rendell, J. C. Burant, S. S. Iyengar, J. Tomasi, 
 M. Cossi, N. Rega, J. M. Millam, M. Klene, J. E. Knox, J. B. Cross, 
 V. Bakken, C. Adamo, J. Jaramillo, R. Gomperts, R. E. Stratmann, 
 O. Yazyev, A. J. Austin, R. Cammi, C. Pomelli, J. W. Ochterski, 
 R. L. Martin, K. Morokuma, V. G. Zakrzewski, G. A. Voth, 
 P. Salvador, J. J. Dannenberg, S. Dapprich, A. D. Daniels, 
 O. Farkas, J. B. Foresman, J. V. Ortiz, J. Cioslowski, 
 and D. J. Fox, Gaussian, Inc., Wallingford CT, 2010.
 
 ******************************************
 Gaussian 09:  EM64L-G09RevB.01 12-Aug-2010
                27-Nov-2021 
 ******************************************
 %nproc=8
 Will use up to    8 processors via shared memory.
 %mem=8GB
 -----------------------------------------------------
 # qcisd/aug-cc-pvtz nosymm density=current output=wfn
 -----------------------------------------------------
 1/30=1,38=1/1;
 2/12=2,15=1,17=6,18=5,40=1/2;
 3/5=16,6=1,7=10,11=9,16=1,25=1,30=1,71=1/1,2,3;
 4//1;
 5/5=2,38=5/2;
 8/6=4,9=120000,10=1/1,4;
 9/5=8,15=1/13;
 11/28=-7,31=1,32=3,42=3/11;
 10/5=6,13=10,31=1/2;
 6/7=2,8=2,9=2,10=2,22=-1,31=1/1;
 99/5=1,6=1100,9=1/99;
 -----------------
 f2cs-wavefunction
 -----------------
 Symbolic Z-matrix:
 Charge =  0 Multiplicity = 1
 C                     0.        0.       -0.52035 
 S                     0.        0.        1.07852 
 F                     0.       -1.06522  -1.29554 
 F                     0.        1.05522  -1.29554 
 
                          Input orientation:                          
 ---------------------------------------------------------------------
 Center     Atomic      Atomic             Coordinates (Angstroms)
 Number     Number       Type             X           Y           Z
 ---------------------------------------------------------------------
      1          6           0        0.000000    0.000000   -0.520349
      2         16           0        0.000000    0.000000    1.078525
      3          9           0        0.000000   -1.065221   -1.295538
      4          9           0        0.000000    1.055221   -1.295538
 ---------------------------------------------------------------------
                    Distance matrix (angstroms):
                    1          2          3          4
     1  C    0.000000
     2  S    1.598874   0.000000
     3  F    1.317427   2.602090   0.000000
     4  F    1.309355   2.598012   2.120442   0.000000
 Symmetry turned off by external request.
 Stoichiometry    CF2S
 Framework group  CS[SG(CF2S)]
 Deg. of freedom     5
 Full point group                 CS      NOp   2
 Rotational constants (GHZ):     11.8325726      5.1130511      3.5702757
 Standard basis: Aug-CC-pVTZ (5D, 7F)
 Integral buffers will be    131072 words long.
 Raffenetti 1 integral format.
 Two-electron integral symmetry is turned off.
   188 basis functions,   330 primitive gaussians,   224 cartesian basis functions
    20 alpha electrons       20 beta electrons
       nuclear repulsion energy       154.1173867990 Hartrees.
 NAtoms=    4 NActive=    4 NUniq=    4 SFac= 1.00D+00 NAtFMM=   50 NAOKFM=F Big=F
 One-electron integrals computed using PRISM.
 NBasis=   188 RedAO= T  NBF=   188
 NBsUse=   188 1.00D-06 NBFU=   188
 Harris functional with IExCor=  205 diagonalized for initial guess.
 ExpMin= 3.51D-02 ExpMax= 3.74D+05 ExpMxC= 1.18D+03 IAcc=3 IRadAn=         0 AccDes= 0.00D+00
 HarFok:  IExCor=  205 AccDes= 0.00D+00 IRadAn=         0 IDoV= 1
 ScaDFX=  1.000000  1.000000  1.000000  1.000000
 FoFCou: FMM=F IPFlag=           0 FMFlag=      100000 FMFlg1=           0
         NFxFlg=           0 DoJE=T BraDBF=F KetDBF=T FulRan=T
         Omega=  0.000000  0.000000  1.000000  0.000000  0.000000 ICntrl=     500 IOpCl=  0
         NMat0=    1 NMatS0=    1 NMatT0=    0 NMatD0=    1 NMtDS0=    0 NMtDT0=    0
         I1Cent=           4 NGrid=           0.
 Symmetry not used in FoFCou.
 Requested convergence on RMS density matrix=1.00D-08 within 128 cycles.
 Requested convergence on MAX density matrix=1.00D-06.
 Requested convergence on             energy=1.00D-06.
 No special actions if energy rises.
 Keep R1 ints in memory in canonical form, NReq=323399632.
 SCF Done:  E(RHF) =  -634.356308792     A.U. after   12 cycles
             Convg  =    0.6765D-08             -V/T =  2.0006
 ExpMin= 3.51D-02 ExpMax= 3.74D+05 ExpMxC= 1.18D+03 IAcc=3 IRadAn=         5 AccDes= 0.00D+00
 HarFok:  IExCor=  205 AccDes= 0.00D+00 IRadAn=         5 IDoV=-2
 ScaDFX=  1.000000  1.000000  1.000000  1.000000
 DSYEVD returned Info=          93 IAlg= 4 N=    46 NDim=    46 NE2=    21472498 trying DSYEV.
 Range of M.O.s used for correlation:     9   188
 NBasis=   188 NAE=    20 NBE=    20 NFC=     8 NFV=     0
 NROrb=    180 NOA=    12 NOB=    12 NVA=   168 NVB=   168

 **** Warning!!: The largest alpha MO coefficient is  0.27541169D+02

 Semi-Direct transformation.
 ModeAB=           2 MOrb=            12 LenV=    1072746649
 LASXX=     33405819 LTotXX=    33405819 LenRXX=    33405819
 LTotAB=    33954012 MaxLAS=    54432000 LenRXY=    54432000
 NonZer=    66811638 LenScr=   100987392 LnRSAI=           0
 LnScr1=           0 LExtra=           0 Total=    188825211
 MaxDsk=          -1 SrtSym=           F ITran=            4
 JobTyp=0 Pass  1:  I=   1 to  12.
 (rs|ai) integrals will be sorted in core.
 Spin components of T(2) and E(2):
     alpha-alpha T2 =       0.3020803355D-01 E2=     -0.1104681697D+00
     alpha-beta  T2 =       0.1602249102D+00 E2=     -0.6191859300D+00
     beta-beta   T2 =       0.3020803355D-01 E2=     -0.1104681697D+00
 ANorm=    0.1104826220D+01
 E2 =    -0.8401222694D+00 EUMP2 =    -0.63519643106131D+03
 R2 and R3 integrals will be kept in memory, NReq=   640760400.
 Iterations=  50 Convergence= 0.100D-07
 Iteration Nr.   1
 **********************
 DD1Dir will call FoFMem   1 times, MxPair=       156
 NAB=    78 NAA=     0 NBB=     0.
 MP4(R+Q)=  0.19407313D-01
 E3=       -0.32115511D-02        EUMP3=      -0.63519964261D+03
 E4(DQ)=    0.23938834D-02        UMP4(DQ)=   -0.63519724873D+03
 E4(SDQ)=  -0.85374922D-02        UMP4(SDQ)=  -0.63520818010D+03
 DE(Corr)= -0.82392651     E(Corr)=     -635.18023530    
 NORM(A)=   0.11040521D+01
 Iteration Nr.   2
 **********************
 DD1Dir will call FoFMem   1 times, MxPair=       156
 NAB=    78 NAA=     0 NBB=     0.
 DE(Corr)= -0.84976167     E(CORR)=     -635.20607046     Delta=-2.58D-02
 NORM(A)=   0.11130340D+01
 Iteration Nr.   3
 **********************
 DD1Dir will call FoFMem   1 times, MxPair=       156
 NAB=    78 NAA=     0 NBB=     0.
 DE(Corr)= -0.84805578     E(CORR)=     -635.20436457     Delta= 1.71D-03
 NORM(A)=   0.11159009D+01
 Iteration Nr.   4
 **********************
 DD1Dir will call FoFMem   1 times, MxPair=       156
 NAB=    78 NAA=     0 NBB=     0.
 DE(Corr)= -0.85060805     E(CORR)=     -635.20691684     Delta=-2.55D-03
 NORM(A)=   0.11170201D+01
 Iteration Nr.   5
 **********************
 DD1Dir will call FoFMem   1 times, MxPair=       156
 NAB=    78 NAA=     0 NBB=     0.
 DE(Corr)= -0.85091239     E(CORR)=     -635.20722119     Delta=-3.04D-04
 NORM(A)=   0.11173481D+01
 Iteration Nr.   6
 **********************
 DD1Dir will call FoFMem   1 times, MxPair=       156
 NAB=    78 NAA=     0 NBB=     0.
 DE(Corr)= -0.85095225     E(CORR)=     -635.20726104     Delta=-3.99D-05
 NORM(A)=   0.11173974D+01
 Iteration Nr.   7
 **********************
 DD1Dir will call FoFMem   1 times, MxPair=       156
 NAB=    78 NAA=     0 NBB=     0.
 DE(Corr)= -0.85095662     E(CORR)=     -635.20726541     Delta=-4.37D-06
 NORM(A)=   0.11173967D+01
 Iteration Nr.   8
 **********************
 DD1Dir will call FoFMem   1 times, MxPair=       156
 NAB=    78 NAA=     0 NBB=     0.
 DE(Corr)= -0.85095543     E(CORR)=     -635.20726422     Delta= 1.19D-06
 NORM(A)=   0.11174019D+01
 Iteration Nr.   9
 **********************
 DD1Dir will call FoFMem   1 times, MxPair=       156
 NAB=    78 NAA=     0 NBB=     0.
 DE(Corr)= -0.85095495     E(CORR)=     -635.20726375     Delta= 4.78D-07
 NORM(A)=   0.11174019D+01
 Iteration Nr.  10
 **********************
 DD1Dir will call FoFMem   1 times, MxPair=       156
 NAB=    78 NAA=     0 NBB=     0.
 DE(Corr)= -0.85095515     E(CORR)=     -635.20726395     Delta=-2.01D-07
 NORM(A)=   0.11174033D+01
 Iteration Nr.  11
 **********************
 DD1Dir will call FoFMem   1 times, MxPair=       156
 NAB=    78 NAA=     0 NBB=     0.
 DE(Corr)= -0.85095578     E(CORR)=     -635.20726457     Delta=-6.23D-07
 NORM(A)=   0.11174046D+01
 Iteration Nr.  12
 **********************
 DD1Dir will call FoFMem   1 times, MxPair=       156
 NAB=    78 NAA=     0 NBB=     0.
 DE(Corr)= -0.85095605     E(CORR)=     -635.20726484     Delta=-2.69D-07
 NORM(A)=   0.11174053D+01
 Iteration Nr.  13
 **********************
 DD1Dir will call FoFMem   1 times, MxPair=       156
 NAB=    78 NAA=     0 NBB=     0.
 DE(Corr)= -0.85095628     E(CORR)=     -635.20726508     Delta=-2.37D-07
 NORM(A)=   0.11174058D+01
 Iteration Nr.  14
 **********************
 DD1Dir will call FoFMem   1 times, MxPair=       156
 NAB=    78 NAA=     0 NBB=     0.
 DE(Corr)= -0.85095635     E(CORR)=     -635.20726514     Delta=-6.48D-08
 NORM(A)=   0.11174059D+01
 Iteration Nr.  15
 **********************
 DD1Dir will call FoFMem   1 times, MxPair=       156
 NAB=    78 NAA=     0 NBB=     0.
 DE(Corr)= -0.85095639     E(CORR)=     -635.20726518     Delta=-3.86D-08
 NORM(A)=   0.11174060D+01
 Iteration Nr.  16
 **********************
 DD1Dir will call FoFMem   1 times, MxPair=       156
 NAB=    78 NAA=     0 NBB=     0.
 DE(Corr)= -0.85095640     E(CORR)=     -635.20726519     Delta=-9.60D-09
 NORM(A)=   0.11174060D+01
 Iteration Nr.  17
 **********************
 DD1Dir will call FoFMem   1 times, MxPair=       156
 NAB=    78 NAA=     0 NBB=     0.
 DE(Corr)= -0.85095640     E(CORR)=     -635.20726519     Delta= 5.54D-10
 NORM(A)=   0.11174060D+01
 Iteration Nr.  18
 **********************
 DD1Dir will call FoFMem   1 times, MxPair=       156
 NAB=    78 NAA=     0 NBB=     0.
 DE(Corr)= -0.85095640     E(CORR)=     -635.20726519     Delta=-9.61D-10
 NORM(A)=   0.11174060D+01
 Largest amplitude= 8.60D-02

 Z-AMPLITUDE ITERATIONS

 Iteration Nr.   1
 **********************
 DD1Dir will call FoFMem   1 times, MxPair=       156
 NAB=    78 NAA=     0 NBB=     0.
 DE(Z)  -0.82696970D+00          E(Z)=    -0.63518327849D+03
 NORM(A)=   0.11174026D+01
 Iteration Nr.   2
 **********************
 DD1Dir will call FoFMem   1 times, MxPair=       156
 NAB=    78 NAA=     0 NBB=     0.
 DE(Z)  -0.82696969D+00          E(Z)=    -0.63518327848D+03
 NORM(A)=   0.11174058D+01
 Iteration Nr.   3
 **********************
 DD1Dir will call FoFMem   1 times, MxPair=       156
 NAB=    78 NAA=     0 NBB=     0.
 DE(Z)  -0.82696969D+00          E(Z)=    -0.63518327848D+03
 NORM(A)=   0.11174060D+01
 Iteration Nr.   4
 **********************
 DD1Dir will call FoFMem   1 times, MxPair=       156
 NAB=    78 NAA=     0 NBB=     0.
 DE(Z)  -0.82696970D+00          E(Z)=    -0.63518327849D+03
 NORM(A)=   0.11174059D+01
 Iteration Nr.   5
 **********************
 DD1Dir will call FoFMem   1 times, MxPair=       156
 NAB=    78 NAA=     0 NBB=     0.
 DE(Z)  -0.82696969D+00          E(Z)=    -0.63518327849D+03
 NORM(A)=   0.11093932D+01
 Iteration Nr.   6
 **********************
 DD1Dir will call FoFMem   1 times, MxPair=       156
 NAB=    78 NAA=     0 NBB=     0.
 DE(Z)  -0.82683981D+00          E(Z)=    -0.63518314860D+03
 NORM(A)=   0.11092238D+01
 Iteration Nr.   7
 **********************
 DD1Dir will call FoFMem   1 times, MxPair=       156
 NAB=    78 NAA=     0 NBB=     0.
 DE(Z)  -0.82687114D+00          E(Z)=    -0.63518317993D+03
 NORM(A)=   0.11091802D+01
 Iteration Nr.   8
 **********************
 DD1Dir will call FoFMem   1 times, MxPair=       156
 NAB=    78 NAA=     0 NBB=     0.
 DE(Z)  -0.82682678D+00          E(Z)=    -0.63518313557D+03
 NORM(A)=   0.11091314D+01
 Iteration Nr.   9
 **********************
 DD1Dir will call FoFMem   1 times, MxPair=       156
 NAB=    78 NAA=     0 NBB=     0.
 DE(Z)  -0.82683360D+00          E(Z)=    -0.63518314239D+03
 NORM(A)=   0.11091259D+01
 Iteration Nr.  10
 **********************
 DD1Dir will call FoFMem   1 times, MxPair=       156
 NAB=    78 NAA=     0 NBB=     0.
 DE(Z)  -0.82683176D+00          E(Z)=    -0.63518314055D+03
 NORM(A)=   0.11091253D+01
 Iteration Nr.  11
 **********************
 DD1Dir will call FoFMem   1 times, MxPair=       156
 NAB=    78 NAA=     0 NBB=     0.
 DE(Z)  -0.82683217D+00          E(Z)=    -0.63518314096D+03
 NORM(A)=   0.11091253D+01
 Iteration Nr.  12
 **********************
 DD1Dir will call FoFMem   1 times, MxPair=       156
 NAB=    78 NAA=     0 NBB=     0.
 DE(Z)  -0.82683230D+00          E(Z)=    -0.63518314110D+03
 NORM(A)=   0.11091255D+01
 Iteration Nr.  13
 **********************
 DD1Dir will call FoFMem   1 times, MxPair=       156
 NAB=    78 NAA=     0 NBB=     0.
 DE(Z)  -0.82683213D+00          E(Z)=    -0.63518314092D+03
 NORM(A)=   0.11091255D+01
 Iteration Nr.  14
 **********************
 DD1Dir will call FoFMem   1 times, MxPair=       156
 NAB=    78 NAA=     0 NBB=     0.
 DE(Z)  -0.82683236D+00          E(Z)=    -0.63518314115D+03
 NORM(A)=   0.11091255D+01
 Iteration Nr.  15
 **********************
 DD1Dir will call FoFMem   1 times, MxPair=       156
 NAB=    78 NAA=     0 NBB=     0.
 DE(Z)  -0.82683229D+00          E(Z)=    -0.63518314108D+03
 NORM(A)=   0.11091255D+01
 Iteration Nr.  16
 **********************
 DD1Dir will call FoFMem   1 times, MxPair=       156
 NAB=    78 NAA=     0 NBB=     0.
 DE(Z)  -0.82683230D+00          E(Z)=    -0.63518314110D+03
 NORM(A)=   0.11091254D+01
 Iteration Nr.  17
 **********************
 DD1Dir will call FoFMem   1 times, MxPair=       156
 NAB=    78 NAA=     0 NBB=     0.
 DE(Z)  -0.82683230D+00          E(Z)=    -0.63518314109D+03
 NORM(A)=   0.11091255D+01
 Iteration Nr.  18
 **********************
 DD1Dir will call FoFMem   1 times, MxPair=       156
 NAB=    78 NAA=     0 NBB=     0.
 DE(Z)  -0.82683230D+00          E(Z)=    -0.63518314109D+03
 NORM(A)=   0.11091254D+01
 Iteration Nr.  19
 **********************
 DD1Dir will call FoFMem   1 times, MxPair=       156
 NAB=    78 NAA=     0 NBB=     0.
 DE(Z)  -0.82683230D+00          E(Z)=    -0.63518314109D+03
 NORM(A)=   0.11091254D+01
 Iteration Nr.  20
 **********************
 DD1Dir will call FoFMem   1 times, MxPair=       156
 NAB=    78 NAA=     0 NBB=     0.
 DE(Z)  -0.82683230D+00          E(Z)=    -0.63518314109D+03
 NORM(A)=   0.11091255D+01
 Iteration Nr.  21
 **********************
 DD1Dir will call FoFMem   1 times, MxPair=       156
 NAB=    78 NAA=     0 NBB=     0.
 DE(Z)  -0.82683230D+00          E(Z)=    -0.63518314109D+03
 NORM(A)=   0.11091254D+01
 Iteration Nr.  22
 **********************
 DD1Dir will call FoFMem   1 times, MxPair=       156
 NAB=    78 NAA=     0 NBB=     0.
 DE(Z)  -0.82683230D+00          E(Z)=    -0.63518314109D+03
 NORM(A)=   0.11091254D+01
 Iteration Nr.  23
 **********************
 DD1Dir will call FoFMem   1 times, MxPair=       156
 NAB=    78 NAA=     0 NBB=     0.
 DE(Z)  -0.82683230D+00          E(Z)=    -0.63518314109D+03
 NORM(A)=   0.11091254D+01
 Discarding MO integrals.
          Differentiating once with respect to electric field.
                with respect to dipole field.
          Electric field/nuclear overlap derivatives assumed to be zero.
          Keep R1 ints in memory in canonical form, NReq=319473719.
          There are     1 degrees of freedom in the 1st order CPHF.  IDoFFX=0.
 LinEq1:  Iter=  0 NonCon=     1 RMS=2.86D-03 Max=7.78D-02
 AX will form     1 AO Fock derivatives at one time.
 LinEq1:  Iter=  1 NonCon=     1 RMS=8.89D-04 Max=1.20D-02
 LinEq1:  Iter=  2 NonCon=     1 RMS=4.05D-04 Max=1.30D-02
 LinEq1:  Iter=  3 NonCon=     1 RMS=1.09D-04 Max=2.38D-03
 LinEq1:  Iter=  4 NonCon=     1 RMS=2.68D-05 Max=6.36D-04
 LinEq1:  Iter=  5 NonCon=     1 RMS=6.76D-06 Max=1.06D-04
 LinEq1:  Iter=  6 NonCon=     1 RMS=2.66D-06 Max=5.72D-05
 LinEq1:  Iter=  7 NonCon=     1 RMS=8.36D-07 Max=1.53D-05
 LinEq1:  Iter=  8 NonCon=     1 RMS=1.69D-07 Max=2.26D-06
 LinEq1:  Iter=  9 NonCon=     1 RMS=3.31D-08 Max=3.65D-07
 LinEq1:  Iter= 10 NonCon=     1 RMS=9.66D-09 Max=1.32D-07
 LinEq1:  Iter= 11 NonCon=     1 RMS=4.07D-09 Max=5.26D-08
 LinEq1:  Iter= 12 NonCon=     1 RMS=8.49D-10 Max=1.41D-08
 LinEq1:  Iter= 13 NonCon=     1 RMS=1.17D-10 Max=1.53D-09
 LinEq1:  Iter= 14 NonCon=     0 RMS=2.14D-11 Max=2.05D-10
 Linear equations converged to 1.000D-10 1.000D-09 after    14 iterations.
 End of Minotr Frequency-dependent properties file   721 does not exist.
 End of Minotr Frequency-dependent properties file   722 does not exist.

 **********************************************************************

            Population analysis using the QCI/CC density.

 **********************************************************************

     Natural Orbital Coefficients:
                           1         2         3         4         5
     Eigenvalues --     2.00003   2.00002   2.00001   2.00001   2.00000
   1 1   C  1S          0.00064  -0.17767   0.59519   0.00000   0.47978
   2        2S         -0.00003   0.00325  -0.00927   0.00000  -0.00493
   3        3S          0.00002  -0.00679   0.02394   0.00000   0.02004
   4        4S          0.00009  -0.00907   0.00238   0.00000  -0.00202
   5        5S         -0.00001  -0.00083   0.00197   0.00000   0.00043
   6        6PX         0.00000   0.00000   0.00000  -0.00182   0.00000
   7        6PY        -0.00140  -0.00001   0.00001   0.00000   0.00000
   8        6PZ        -0.00001   0.00134  -0.00335   0.00000  -0.00038
   9        7PX         0.00000   0.00000   0.00000  -0.00183   0.00000
  10        7PY        -0.00363  -0.00002   0.00001   0.00000   0.00000
  11        7PZ         0.00002  -0.00098   0.00140   0.00000   0.00161
  12        8PX         0.00000   0.00000   0.00000  -0.00119   0.00000
  13        8PY         0.00596   0.00004  -0.00002   0.00000  -0.00003
  14        8PZ        -0.00005  -0.00923   0.00534   0.00000  -0.00118
  15        9PX         0.00000   0.00000   0.00000   0.00009   0.00000
  16        9PY        -0.00061   0.00000   0.00000   0.00000   0.00001
  17        9PZ         0.00000   0.00035   0.00030   0.00000   0.00053
  18       10D 0        0.00000  -0.00008   0.00007   0.00000   0.00019
  19       10D+1        0.00000   0.00000   0.00000  -0.00030   0.00000
  20       10D-1       -0.00031   0.00000  -0.00001   0.00000   0.00000
  21       10D+2        0.00000   0.00011  -0.00036   0.00000  -0.00018
  22       10D-2        0.00000   0.00000   0.00000   0.00000   0.00000
  23       11D 0        0.00001  -0.00116   0.00019   0.00000  -0.00028
  24       11D+1        0.00000   0.00000   0.00000   0.00120   0.00000
  25       11D-1        0.00104   0.00000   0.00001   0.00000   0.00001
  26       11D+2        0.00000  -0.00013   0.00117   0.00000   0.00083
  27       11D-2        0.00000   0.00000   0.00000  -0.00001   0.00000
  28       12D 0        0.00001  -0.00269   0.00163   0.00000  -0.00138
  29       12D+1        0.00000   0.00000   0.00000  -0.00053   0.00000
  30       12D-1       -0.00442  -0.00002   0.00002   0.00000   0.00002
  31       12D+2        0.00001  -0.00088   0.00058   0.00000  -0.00055
  32       12D-2        0.00000   0.00000   0.00000   0.00000   0.00000
  33       13F 0        0.00000  -0.00004  -0.00001   0.00000   0.00040
  34       13F+1        0.00000   0.00000   0.00000  -0.00018   0.00000
  35       13F-1       -0.00055   0.00000   0.00000   0.00000   0.00000
  36       13F+2        0.00000  -0.00010   0.00016   0.00000   0.00001
  37       13F-2        0.00000   0.00000   0.00000   0.00000   0.00000
  38       13F+3        0.00000   0.00000   0.00000   0.00002   0.00000
  39       13F-3        0.00005   0.00000   0.00000   0.00000   0.00000
  40       14F 0       -0.00001   0.00061  -0.00193   0.00000  -0.00026
  41       14F+1        0.00000   0.00000   0.00000   0.00089   0.00000
  42       14F-1        0.00287   0.00000   0.00002   0.00000  -0.00002
  43       14F+2        0.00000   0.00066  -0.00151   0.00000  -0.00088
  44       14F-2        0.00000   0.00000   0.00000   0.00000   0.00000
  45       14F+3        0.00000   0.00000   0.00000   0.00017   0.00000
  46       14F-3        0.00003   0.00000   0.00001   0.00000   0.00000
  47 2   S  1S          0.00077  -0.21713  -0.16971   0.00000   0.07166
  48        2S         -0.00263   0.74241   0.58672   0.00000  -0.24875
  49        3S          0.00008  -0.02143  -0.00890   0.00000   0.00218
  50        4S         -0.00017   0.04960   0.04232   0.00000  -0.01815
  51        5S          0.00000   0.00999  -0.01134   0.00000   0.00417
  52        6S          0.00001   0.00101  -0.00260   0.00000  -0.00080
  53        7PX         0.00000   0.00000   0.00000   0.97267   0.00000
  54        7PY         0.97646   0.00408  -0.00053   0.00000   0.00038
  55        7PZ        -0.00318   0.62327  -0.50337   0.00000   0.43669
  56        8PX         0.00000   0.00000   0.00000  -0.01222   0.00000
  57        8PY        -0.02019  -0.00007   0.00000   0.00000   0.00001
  58        8PZ         0.00008  -0.01234   0.00875   0.00000  -0.00444
  59        9PX         0.00000   0.00000   0.00000   0.06132   0.00000
  60        9PY         0.05654   0.00024  -0.00003   0.00000   0.00002
  61        9PZ        -0.00019   0.03853  -0.03308   0.00000   0.02880
  62       10PX         0.00000   0.00000   0.00000   0.00022   0.00000
  63       10PY        -0.00422  -0.00001  -0.00001   0.00000   0.00000
  64       10PZ         0.00003  -0.00880   0.00487   0.00000  -0.00067
  65       11PX         0.00000   0.00000   0.00000  -0.00082   0.00000
  66       11PY        -0.00033   0.00000   0.00000   0.00000   0.00000
  67       11PZ         0.00000  -0.00029   0.00030   0.00000  -0.00003
  68       12D 0       -0.00002   0.00245  -0.00293   0.00000   0.00104
  69       12D+1        0.00000   0.00000   0.00000   0.00201   0.00000
  70       12D-1        0.00334   0.00001   0.00001   0.00000  -0.00001
  71       12D+2        0.00000  -0.00040   0.00026   0.00000   0.00029
  72       12D-2        0.00000   0.00000   0.00000   0.00000   0.00000
  73       13D 0        0.00000   0.00019   0.00028   0.00000  -0.00069
  74       13D+1        0.00000   0.00000   0.00000  -0.00013   0.00000
  75       13D-1       -0.00028   0.00000   0.00000   0.00000   0.00000
  76       13D+2        0.00000   0.00026   0.00013   0.00000  -0.00008
  77       13D-2        0.00000   0.00000   0.00000   0.00000   0.00000
  78       14D 0       -0.00001   0.00141  -0.00062   0.00000   0.00009
  79       14D+1        0.00000   0.00000   0.00000  -0.00039   0.00000
  80       14D-1       -0.00081   0.00000   0.00001   0.00000   0.00000
  81       14D+2        0.00000   0.00025  -0.00002   0.00000   0.00014
  82       14D-2        0.00000   0.00000   0.00000   0.00000   0.00000
  83       15F 0        0.00000  -0.00022   0.00029   0.00000   0.00033
  84       15F+1        0.00000   0.00000   0.00000  -0.00023   0.00000
  85       15F-1       -0.00022   0.00000   0.00000   0.00000   0.00000
  86       15F+2        0.00000   0.00011  -0.00014   0.00000   0.00003
  87       15F-2        0.00000   0.00000   0.00000   0.00000   0.00000
  88       15F+3        0.00000   0.00000   0.00000   0.00009   0.00000
  89       15F-3        0.00006   0.00000   0.00000   0.00000   0.00000
  90       16F 0        0.00001  -0.00046   0.00057   0.00000  -0.00045
  91       16F+1        0.00000   0.00000   0.00000  -0.00046   0.00000
  92       16F-1       -0.00102   0.00000   0.00000   0.00000   0.00000
  93       16F+2        0.00000  -0.00001  -0.00016   0.00000  -0.00026
  94       16F-2        0.00000   0.00000   0.00000   0.00000   0.00000
  95       16F+3        0.00000   0.00000   0.00000  -0.00013   0.00000
  96       16F-3       -0.00012   0.00000   0.00000   0.00000   0.00000
  97 3   F  1S          0.00814   0.01076  -0.08408   0.00000  -0.48833
  98        2S          0.00020  -0.00043   0.00232   0.00000   0.00845
  99        3S          0.00044   0.00040  -0.00336   0.00000  -0.02075
 100        4S          0.00030  -0.00132   0.00375   0.00000   0.00178
 101        5S          0.00707  -0.00209   0.00121   0.00000  -0.00035
 102        6PX         0.00000   0.00000   0.00000   0.00094   0.00000
 103        6PY        -0.00020   0.00001  -0.00068   0.00000  -0.00170
 104        6PZ        -0.00058  -0.00014  -0.00017   0.00000  -0.00140
 105        7PX         0.00000   0.00000   0.00000   0.00117   0.00000
 106        7PY        -0.00032  -0.00008  -0.00037   0.00000  -0.00092
 107        7PZ        -0.00085  -0.00031   0.00019   0.00000  -0.00082
 108        8PX         0.00000   0.00000   0.00000   0.00124   0.00000
 109        8PY        -0.00055  -0.00001  -0.00013   0.00000  -0.00112
 110        8PZ        -0.00268  -0.00030   0.00071   0.00000  -0.00134
 111        9PX         0.00000   0.00000   0.00000  -0.00001   0.00000
 112        9PY         0.00167  -0.00009  -0.00005   0.00000   0.00006
 113        9PZ         0.00020  -0.00108   0.00052   0.00000  -0.00067
 114       10D 0        0.00000   0.00001   0.00000   0.00000   0.00001
 115       10D+1        0.00000   0.00000   0.00000  -0.00001   0.00000
 116       10D-1        0.00001   0.00000   0.00002   0.00000   0.00002
 117       10D+2        0.00000   0.00001  -0.00002   0.00000   0.00002
 118       10D-2        0.00000   0.00000   0.00000  -0.00002   0.00000
 119       11D 0        0.00015   0.00001  -0.00006   0.00000  -0.00002
 120       11D+1        0.00000   0.00000   0.00000  -0.00003   0.00000
 121       11D-1       -0.00007   0.00004  -0.00013   0.00000  -0.00009
 122       11D+2        0.00003  -0.00001   0.00006   0.00000   0.00000
 123       11D-2        0.00000   0.00000   0.00000   0.00005   0.00000
 124       12D 0       -0.00045   0.00019  -0.00030   0.00000  -0.00003
 125       12D+1        0.00000   0.00000   0.00000   0.00023   0.00000
 126       12D-1       -0.00084  -0.00007   0.00023   0.00000  -0.00049
 127       12D+2        0.00040  -0.00016   0.00032   0.00000   0.00020
 128       12D-2        0.00000   0.00000   0.00000   0.00003   0.00000
 129       13F 0       -0.00001  -0.00002   0.00004   0.00000   0.00000
 130       13F+1        0.00000   0.00000   0.00000   0.00001   0.00000
 131       13F-1        0.00003   0.00001   0.00000   0.00000   0.00002
 132       13F+2       -0.00001  -0.00001   0.00001   0.00000  -0.00004
 133       13F-2        0.00000   0.00000   0.00000  -0.00002   0.00000
 134       13F+3        0.00000   0.00000   0.00000   0.00001   0.00000
 135       13F-3       -0.00002   0.00001  -0.00002   0.00000   0.00001
 136       14F 0        0.00013   0.00006  -0.00010   0.00000   0.00013
 137       14F+1        0.00000   0.00000   0.00000  -0.00003   0.00000
 138       14F-1       -0.00001   0.00003  -0.00014   0.00000  -0.00018
 139       14F+2        0.00007  -0.00001   0.00012   0.00000   0.00030
 140       14F-2        0.00000   0.00000   0.00000   0.00008   0.00000
 141       14F+3        0.00000   0.00000   0.00000  -0.00003   0.00000
 142       14F-3        0.00012  -0.00005   0.00015   0.00000   0.00001
 143 4   F  1S         -0.00836   0.01081  -0.08487   0.00000  -0.48552
 144        2S         -0.00018  -0.00044   0.00236   0.00000   0.00840
 145        3S         -0.00045   0.00039  -0.00339   0.00000  -0.02064
 146        4S         -0.00030  -0.00133   0.00375   0.00000   0.00181
 147        5S         -0.00712  -0.00217   0.00125   0.00000  -0.00031
 148        6PX         0.00000   0.00000   0.00000   0.00095   0.00000
 149        6PY        -0.00019  -0.00002   0.00069   0.00000   0.00171
 150        6PZ         0.00058  -0.00013  -0.00018   0.00000  -0.00143
 151        7PX         0.00000   0.00000   0.00000   0.00118   0.00000
 152        7PY        -0.00030   0.00007   0.00039   0.00000   0.00093
 153        7PZ         0.00086  -0.00030   0.00017   0.00000  -0.00084
 154        8PX         0.00000   0.00000   0.00000   0.00127   0.00000
 155        8PY        -0.00054  -0.00003   0.00022   0.00000   0.00112
 156        8PZ         0.00272  -0.00029   0.00072   0.00000  -0.00139
 157        9PX         0.00000   0.00000   0.00000  -0.00001   0.00000
 158        9PY         0.00167   0.00009   0.00005   0.00000  -0.00008
 159        9PZ        -0.00020  -0.00110   0.00053   0.00000  -0.00068
 160       10D 0        0.00000   0.00001   0.00000   0.00000   0.00001
 161       10D+1        0.00000   0.00000   0.00000  -0.00001   0.00000
 162       10D-1        0.00001   0.00000  -0.00002   0.00000  -0.00002
 163       10D+2        0.00000   0.00001  -0.00002   0.00000   0.00002
 164       10D-2        0.00000   0.00000   0.00000   0.00002   0.00000
 165       11D 0       -0.00015   0.00001  -0.00006   0.00000  -0.00002
 166       11D+1        0.00000   0.00000   0.00000  -0.00003   0.00000
 167       11D-1       -0.00007  -0.00004   0.00013   0.00000   0.00009
 168       11D+2       -0.00004  -0.00001   0.00007   0.00000   0.00000
 169       11D-2        0.00000   0.00000   0.00000  -0.00005   0.00000
 170       12D 0        0.00046   0.00018  -0.00028   0.00000  -0.00005
 171       12D+1        0.00000   0.00000   0.00000   0.00024   0.00000
 172       12D-1       -0.00084   0.00006  -0.00022   0.00000   0.00051
 173       12D+2       -0.00040  -0.00018   0.00034   0.00000   0.00020
 174       12D-2        0.00000   0.00000   0.00000  -0.00004   0.00000
 175       13F 0        0.00001  -0.00002   0.00004   0.00000   0.00000
 176       13F+1        0.00000   0.00000   0.00000   0.00001   0.00000
 177       13F-1        0.00003  -0.00001   0.00000   0.00000  -0.00002
 178       13F+2        0.00001  -0.00001   0.00001   0.00000  -0.00004
 179       13F-2        0.00000   0.00000   0.00000   0.00002   0.00000
 180       13F+3        0.00000   0.00000   0.00000   0.00001   0.00000
 181       13F-3       -0.00002  -0.00001   0.00002   0.00000  -0.00001
 182       14F 0       -0.00013   0.00006  -0.00009   0.00000   0.00013
 183       14F+1        0.00000   0.00000   0.00000  -0.00003   0.00000
 184       14F-1        0.00000  -0.00003   0.00014   0.00000   0.00019
 185       14F+2       -0.00007  -0.00001   0.00012   0.00000   0.00030
 186       14F-2        0.00000   0.00000   0.00000  -0.00008   0.00000
 187       14F+3        0.00000   0.00000   0.00000  -0.00004   0.00000
 188       14F-3        0.00012   0.00005  -0.00015   0.00000   0.00000
                           6         7         8         9        10
     Eigenvalues --     2.00000   2.00000   2.00000   1.98609   1.98545
   1 1   C  1S         -0.00651   0.58887   0.00016  -0.04758   0.00084
   2        2S          0.00009  -0.00562  -0.00003   0.09800  -0.00191
   3        3S         -0.00027   0.02385   0.00002   0.02033  -0.00036
   4        4S          0.00008  -0.00204  -0.00004   0.01085  -0.00033
   5        5S          0.00000   0.00065  -0.00008   0.00463  -0.00014
   6        6PX         0.00000   0.00000   0.00000   0.00000   0.00000
   7        6PY        -0.00002   0.00001   0.00000   0.00126   0.03287
   8        6PZ         0.00001  -0.00095   0.00001  -0.02017   0.00021
   9        7PX         0.00000   0.00000   0.00000   0.00000   0.00000
  10        7PY         0.00068   0.00007   0.00000   0.00098   0.02699
  11        7PZ        -0.00004   0.00025  -0.00013  -0.02421   0.00049
  12        8PX         0.00000   0.00000   0.00000   0.00000   0.00000
  13        8PY        -0.00064   0.00002   0.00000  -0.00051  -0.01800
  14        8PZ        -0.00005   0.00216   0.00003   0.03607  -0.00073
  15        9PX         0.00000   0.00000   0.00000   0.00000   0.00000
  16        9PY         0.00033   0.00001   0.00000   0.00006   0.00140
  17        9PZ         0.00000   0.00028  -0.00003   0.00119  -0.00003
  18       10D 0        0.00000   0.00023  -0.00001   0.00300  -0.00005
  19       10D+1        0.00000   0.00000   0.00000   0.00000   0.00000
  20       10D-1       -0.00019  -0.00002   0.00000  -0.00041  -0.01032
  21       10D+2        0.00000  -0.00050   0.00000  -0.00839   0.00017
  22       10D-2        0.00000   0.00000   0.00000   0.00000   0.00000
  23       11D 0        0.00002  -0.00047  -0.00008   0.00224   0.00000
  24       11D+1        0.00000   0.00000   0.00000   0.00000   0.00000
  25       11D-1       -0.00121  -0.00004   0.00000  -0.00034  -0.01067
  26       11D+2       -0.00001   0.00002  -0.00003  -0.01134   0.00030
  27       11D-2        0.00000   0.00000   0.00000   0.00000   0.00000
  28       12D 0        0.00000  -0.00015  -0.00002   0.00689  -0.00022
  29       12D+1        0.00000   0.00000   0.00000   0.00000   0.00000
  30       12D-1        0.00066   0.00002   0.00000   0.00068   0.01315
  31       12D+2       -0.00001   0.00026   0.00000   0.00845  -0.00018
  32       12D-2        0.00000   0.00000   0.00000   0.00000   0.00000
  33       13F 0       -0.00001   0.00061   0.00001   0.00275  -0.00006
  34       13F+1        0.00000   0.00000   0.00000   0.00000   0.00000
  35       13F-1        0.00017   0.00001   0.00000   0.00008   0.00178
  36       13F+2        0.00000   0.00059   0.00001   0.00520  -0.00012
  37       13F-2        0.00000   0.00000   0.00000   0.00000   0.00000
  38       13F+3        0.00000   0.00000   0.00000   0.00000   0.00000
  39       13F-3       -0.00021   0.00000   0.00000  -0.00004  -0.00215
  40       14F 0       -0.00001   0.00052   0.00003   0.00421  -0.00014
  41       14F+1        0.00000   0.00000   0.00000   0.00000   0.00000
  42       14F-1        0.00105   0.00001   0.00000   0.00023   0.00413
  43       14F+2        0.00001  -0.00025   0.00001   0.00237  -0.00010
  44       14F-2        0.00000   0.00000   0.00000   0.00000   0.00000
  45       14F+3        0.00000   0.00000   0.00000   0.00000   0.00000
  46       14F-3        0.00014   0.00000   0.00000   0.00004   0.00033
  47 2   S  1S         -0.00070   0.04695   0.99640   0.00292  -0.00007
  48        2S          0.00243  -0.16445   0.01319  -0.01168   0.00030
  49        3S         -0.00001   0.00051   0.00031   0.02246  -0.00056
  50        4S          0.00018  -0.01225  -0.00003   0.00241  -0.00004
  51        5S         -0.00001   0.00117  -0.00005  -0.01796   0.00028
  52        6S          0.00001  -0.00094   0.00005  -0.01115   0.00024
  53        7PX         0.00000   0.00000   0.00000   0.00000   0.00000
  54        7PY         0.01174   0.00051   0.00000  -0.00009  -0.00437
  55        7PZ        -0.00460   0.33710   0.00171   0.00760  -0.00020
  56        8PX         0.00000   0.00000   0.00000   0.00000   0.00000
  57        8PY        -0.00033   0.00000   0.00000   0.00029   0.01626
  58        8PZ         0.00004  -0.00288  -0.00018  -0.01288   0.00043
  59        9PX         0.00000   0.00000   0.00000   0.00000   0.00000
  60        9PY         0.00073   0.00003   0.00000   0.00014   0.00666
  61        9PZ        -0.00031   0.02252   0.00019  -0.00743   0.00019
  62       10PX         0.00000   0.00000   0.00000   0.00000   0.00000
  63       10PY        -0.00048  -0.00001   0.00000  -0.00025   0.00438
  64       10PZ         0.00001  -0.00016   0.00003   0.00619   0.00002
  65       11PX         0.00000   0.00000   0.00000   0.00000   0.00000
  66       11PY        -0.00018   0.00000   0.00000  -0.00004  -0.00053
  67       11PZ         0.00000   0.00007   0.00000   0.00184  -0.00003
  68       12D 0       -0.00001   0.00100   0.00008   0.00142  -0.00009
  69       12D+1        0.00000   0.00000   0.00000   0.00000   0.00000
  70       12D-1        0.00011   0.00000   0.00000   0.00006   0.00003
  71       12D+2        0.00000   0.00009  -0.00001  -0.00021   0.00001
  72       12D-2        0.00000   0.00000   0.00000   0.00000   0.00000
  73       13D 0        0.00001  -0.00068   0.00001   0.00257  -0.00007
  74       13D+1        0.00000   0.00000   0.00000   0.00000   0.00000
  75       13D-1       -0.00001   0.00000   0.00000   0.00000  -0.00034
  76       13D+2        0.00000  -0.00005   0.00001  -0.00001   0.00000
  77       13D-2        0.00000   0.00000   0.00000   0.00000   0.00000
  78       14D 0       -0.00001   0.00025  -0.00003  -0.00153  -0.00001
  79       14D+1        0.00000   0.00000   0.00000   0.00000   0.00000
  80       14D-1        0.00013   0.00000   0.00000   0.00015   0.00190
  81       14D+2        0.00000  -0.00007   0.00000  -0.00268   0.00005
  82       14D-2        0.00000   0.00000   0.00000   0.00000   0.00000
  83       15F 0        0.00000   0.00036  -0.00002  -0.00046   0.00002
  84       15F+1        0.00000   0.00000   0.00000   0.00000   0.00000
  85       15F-1        0.00000   0.00000   0.00000  -0.00001   0.00022
  86       15F+2        0.00000   0.00009   0.00000   0.00001   0.00000
  87       15F-2        0.00000   0.00000   0.00000   0.00000   0.00000
  88       15F+3        0.00000   0.00000   0.00000   0.00000   0.00000
  89       15F-3       -0.00001   0.00000   0.00000   0.00000   0.00000
  90       16F 0        0.00001  -0.00050  -0.00001   0.00035   0.00002
  91       16F+1        0.00000   0.00000   0.00000   0.00000   0.00000
  92       16F-1       -0.00002   0.00000   0.00000  -0.00002  -0.00017
  93       16F+2        0.00000  -0.00009   0.00000   0.00088  -0.00002
  94       16F-2        0.00000   0.00000   0.00000   0.00000   0.00000
  95       16F+3        0.00000   0.00000   0.00000   0.00000   0.00000
  96       16F-3        0.00003   0.00000   0.00000   0.00000   0.00024
  97 3   F  1S         -0.69598   0.47750   0.00014  -0.14250   0.15387
  98        2S          0.01123  -0.00677  -0.00001   0.36451  -0.39391
  99        3S         -0.02997   0.02090   0.00001   0.11115  -0.12077
 100        4S          0.00062   0.00129  -0.00003   0.22841  -0.26021
 101        5S         -0.00072   0.00034   0.00004   0.01744  -0.03186
 102        6PX         0.00000   0.00000   0.00000   0.00000   0.00000
 103        6PY        -0.00143   0.00042   0.00000  -0.00532   0.03779
 104        6PZ        -0.00107  -0.00001   0.00000  -0.02147   0.00861
 105        7PX         0.00000   0.00000   0.00000   0.00000   0.00000
 106        7PY         0.00014  -0.00072  -0.00001  -0.00227   0.04119
 107        7PZ        -0.00011  -0.00095  -0.00001  -0.02352   0.00678
 108        8PX         0.00000   0.00000   0.00000   0.00000   0.00000
 109        8PY        -0.00070   0.00063   0.00000  -0.01261   0.03434
 110        8PZ        -0.00151  -0.00059  -0.00004  -0.02846   0.00527
 111        9PX         0.00000   0.00000   0.00000   0.00000   0.00000
 112        9PY        -0.00041   0.00009   0.00001  -0.00179  -0.00103
 113        9PZ        -0.00005  -0.00013   0.00001  -0.00049   0.00044
 114       10D 0        0.00000   0.00001   0.00000  -0.00013  -0.00013
 115       10D+1        0.00000   0.00000   0.00000   0.00000   0.00000
 116       10D-1       -0.00001   0.00005   0.00000   0.00061  -0.00041
 117       10D+2        0.00001  -0.00001   0.00000  -0.00062   0.00010
 118       10D-2        0.00000   0.00000   0.00000   0.00000   0.00000
 119       11D 0       -0.00007  -0.00006   0.00000  -0.00079  -0.00086
 120       11D+1        0.00000   0.00000   0.00000   0.00000   0.00000
 121       11D-1        0.00024  -0.00050  -0.00001   0.00339  -0.00387
 122       11D+2       -0.00018   0.00021   0.00000  -0.00324   0.00202
 123       11D-2        0.00000   0.00000   0.00000   0.00000   0.00000
 124       12D 0       -0.00030  -0.00012   0.00000  -0.00141  -0.00120
 125       12D+1        0.00000   0.00000   0.00000   0.00000   0.00000
 126       12D-1       -0.00038  -0.00027  -0.00002  -0.00519   0.00010
 127       12D+2        0.00017  -0.00014  -0.00001   0.00172  -0.00130
 128       12D-2        0.00000   0.00000   0.00000   0.00000   0.00000
 129       13F 0        0.00000  -0.00002   0.00000  -0.00032   0.00012
 130       13F+1        0.00000   0.00000   0.00000   0.00000   0.00000
 131       13F-1        0.00001  -0.00001   0.00000   0.00013  -0.00027
 132       13F+2       -0.00001   0.00001   0.00000  -0.00051   0.00031
 133       13F-2        0.00000   0.00000   0.00000   0.00000   0.00000
 134       13F+3        0.00000   0.00000   0.00000   0.00000   0.00000
 135       13F-3       -0.00006   0.00002   0.00000  -0.00041   0.00004
 136       14F 0       -0.00004   0.00020   0.00001  -0.00033   0.00037
 137       14F+1        0.00000   0.00000   0.00000   0.00000   0.00000
 138       14F-1       -0.00003  -0.00020   0.00000  -0.00021  -0.00084
 139       14F+2        0.00000   0.00027   0.00000  -0.00071   0.00099
 140       14F-2        0.00000   0.00000   0.00000   0.00000   0.00000
 141       14F+3        0.00000   0.00000   0.00000   0.00000   0.00000
 142       14F-3        0.00012   0.00004   0.00000  -0.00045   0.00064
 143 4   F  1S          0.68814   0.49134   0.00015  -0.15056  -0.14603
 144        2S         -0.01111  -0.00697  -0.00001   0.38505   0.37381
 145        3S          0.02964   0.02151   0.00001   0.11739   0.11459
 146        4S         -0.00070   0.00121  -0.00003   0.24137   0.24724
 147        5S          0.00068   0.00032   0.00004   0.01957   0.03099
 148        6PX         0.00000   0.00000   0.00000   0.00000   0.00000
 149        6PY        -0.00144  -0.00045   0.00000   0.00694   0.03754
 150        6PZ         0.00110   0.00002   0.00000  -0.02204  -0.00743
 151        7PX         0.00000   0.00000   0.00000   0.00000   0.00000
 152        7PY         0.00012   0.00075   0.00001   0.00397   0.04110
 153        7PZ         0.00013  -0.00097  -0.00001  -0.02398  -0.00542
 154        8PX         0.00000   0.00000   0.00000   0.00000   0.00000
 155        8PY        -0.00067  -0.00058  -0.00001   0.01451   0.03392
 156        8PZ         0.00153  -0.00063  -0.00004  -0.02901  -0.00388
 157        9PX         0.00000   0.00000   0.00000   0.00000   0.00000
 158        9PY        -0.00040  -0.00009  -0.00001   0.00163  -0.00111
 159        9PZ         0.00005  -0.00015   0.00001  -0.00054  -0.00040
 160       10D 0        0.00000   0.00001   0.00000  -0.00012   0.00014
 161       10D+1        0.00000   0.00000   0.00000   0.00000   0.00000
 162       10D-1       -0.00001  -0.00005   0.00000  -0.00066  -0.00040
 163       10D+2       -0.00001  -0.00001   0.00000  -0.00064  -0.00008
 164       10D-2        0.00000   0.00000   0.00000   0.00000   0.00000
 165       11D 0        0.00007  -0.00007   0.00000  -0.00073   0.00096
 166       11D+1        0.00000   0.00000   0.00000   0.00000   0.00000
 167       11D-1        0.00023   0.00053   0.00001  -0.00369  -0.00374
 168       11D+2        0.00017   0.00022   0.00000  -0.00339  -0.00185
 169       11D-2        0.00000   0.00000   0.00000   0.00000   0.00000
 170       12D 0        0.00031  -0.00012   0.00000  -0.00132   0.00127
 171       12D+1        0.00000   0.00000   0.00000   0.00000   0.00000
 172       12D-1       -0.00039   0.00029   0.00002   0.00524  -0.00008
 173       12D+2       -0.00017  -0.00013  -0.00001   0.00188   0.00125
 174       12D-2        0.00000   0.00000   0.00000   0.00000   0.00000
 175       13F 0        0.00000  -0.00002   0.00000  -0.00034  -0.00011
 176       13F+1        0.00000   0.00000   0.00000   0.00000   0.00000
 177       13F-1        0.00001   0.00001   0.00000  -0.00015  -0.00028
 178       13F+2        0.00001   0.00001   0.00000  -0.00054  -0.00029
 179       13F-2        0.00000   0.00000   0.00000   0.00000   0.00000
 180       13F+3        0.00000   0.00000   0.00000   0.00000   0.00000
 181       13F-3       -0.00006  -0.00002   0.00000   0.00042   0.00002
 182       14F 0        0.00003   0.00020   0.00001  -0.00035  -0.00034
 183       14F+1        0.00000   0.00000   0.00000   0.00000   0.00000
 184       14F-1       -0.00003   0.00020   0.00000   0.00015  -0.00085
 185       14F+2        0.00000   0.00027   0.00000  -0.00077  -0.00093
 186       14F-2        0.00000   0.00000   0.00000   0.00000   0.00000
 187       14F+3        0.00000   0.00000   0.00000   0.00000   0.00000
 188       14F-3        0.00012  -0.00004   0.00000   0.00048   0.00060
                          11        12        13        14        15
     Eigenvalues --     1.97410   1.97110   1.97003   1.96729   1.96687
   1 1   C  1S         -0.05639  -0.10113  -0.00036   0.00000   0.00000
   2        2S          0.15245   0.27287   0.00095   0.00000   0.00000
   3        3S          0.03602   0.06709   0.00022   0.00000   0.00000
   4        4S          0.01918   0.14447  -0.00029   0.00000   0.00000
   5        5S         -0.02052   0.04430  -0.00035   0.00000   0.00000
   6        6PX         0.00000   0.00000   0.00000  -0.00674   0.10133
   7        6PY         0.00094   0.00061  -0.05188   0.00000   0.00000
   8        6PZ         0.09065   0.01033   0.00005   0.00000   0.00000
   9        7PX         0.00000   0.00000   0.00000  -0.00811   0.12423
  10        7PY         0.00121   0.00085  -0.07636   0.00000   0.00000
  11        7PZ         0.11651  -0.00327   0.00020   0.00000   0.00000
  12        8PX         0.00000   0.00000   0.00000  -0.00049   0.00481
  13        8PY        -0.00024   0.00023   0.05566   0.00000   0.00000
  14        8PZ        -0.05512   0.03810  -0.00088   0.00000   0.00000
  15        9PX         0.00000   0.00000   0.00000  -0.00001  -0.00084
  16        9PY        -0.00005  -0.00002  -0.00035   0.00000   0.00000
  17        9PZ        -0.00734   0.01378  -0.00003   0.00000   0.00000
  18       10D 0       -0.00796   0.01917   0.00025   0.00000   0.00000
  19       10D+1        0.00000   0.00000   0.00000   0.00101  -0.01483
  20       10D-1       -0.00002  -0.00011  -0.00898   0.00000   0.00000
  21       10D+2       -0.00976   0.00300   0.00013   0.00000   0.00000
  22       10D-2        0.00000   0.00000   0.00000  -0.02002  -0.00099
  23       11D 0       -0.01757   0.03220   0.00014   0.00000   0.00000
  24       11D+1        0.00000   0.00000   0.00000   0.00160  -0.02456
  25       11D-1       -0.00024  -0.00018  -0.00680   0.00000   0.00000
  26       11D+2       -0.01759   0.00239   0.00014   0.00000   0.00000
  27       11D-2        0.00000   0.00000   0.00000  -0.03230  -0.00159
  28       12D 0       -0.00515  -0.00337  -0.00038   0.00000   0.00000
  29       12D+1        0.00000   0.00000   0.00000  -0.00010  -0.00249
  30       12D-1       -0.00020  -0.00006   0.01196   0.00000   0.00000
  31       12D+2        0.00042  -0.00010  -0.00003   0.00000   0.00000
  32       12D-2        0.00000   0.00000   0.00000   0.00879   0.00040
  33       13F 0        0.00832   0.00164  -0.00004   0.00000   0.00000
  34       13F+1        0.00000   0.00000   0.00000  -0.00028   0.00408
  35       13F-1       -0.00002   0.00003   0.00924   0.00000   0.00000
  36       13F+2        0.00153   0.00280  -0.00004   0.00000   0.00000
  37       13F-2        0.00000   0.00000   0.00000   0.00870   0.00045
  38       13F+3        0.00000   0.00000   0.00000   0.00045  -0.00781
  39       13F-3       -0.00004  -0.00001   0.00518   0.00000   0.00000
  40       14F 0        0.00627   0.00145  -0.00014   0.00000   0.00000
  41       14F+1        0.00000   0.00000   0.00000   0.00002  -0.00164
  42       14F-1       -0.00038   0.00021   0.01981   0.00000   0.00000
  43       14F+2        0.00689   0.00230  -0.00002   0.00000   0.00000
  44       14F-2        0.00000   0.00000   0.00000   0.00930   0.00033
  45       14F+3        0.00000   0.00000   0.00000   0.00011  -0.00053
  46       14F-3       -0.00009   0.00005   0.00030   0.00000   0.00000
  47 2   S  1S          0.03215   0.04387   0.00033   0.00000   0.00000
  48        2S         -0.12523  -0.16832  -0.00122   0.00000   0.00000
  49        3S          0.25318   0.35480   0.00269   0.00000   0.00000
  50        4S          0.03238   0.04489   0.00033   0.00000   0.00000
  51        5S          0.17705   0.15455   0.00266   0.00000   0.00000
  52        6S          0.02753  -0.05560   0.00038   0.00000   0.00000
  53        7PX         0.00000   0.00000   0.00000  -0.00066   0.01256
  54        7PY         0.00003  -0.00016   0.00316   0.00000   0.00000
  55        7PZ         0.02930   0.03479   0.00019   0.00000   0.00000
  56        8PX         0.00000   0.00000   0.00000   0.00167  -0.03138
  57        8PY         0.00016   0.00031  -0.01954   0.00000   0.00000
  58        8PZ        -0.03397  -0.04112  -0.00043   0.00000   0.00000
  59        9PX         0.00000   0.00000   0.00000   0.00075  -0.01420
  60        9PY        -0.00006   0.00017  -0.00142   0.00000   0.00000
  61        9PZ        -0.01868  -0.02381  -0.00012   0.00000   0.00000
  62       10PX         0.00000   0.00000   0.00000   0.00176  -0.02696
  63       10PY         0.00030   0.00024  -0.02390   0.00000   0.00000
  64       10PZ        -0.01483   0.03287  -0.00045   0.00000   0.00000
  65       11PX         0.00000   0.00000   0.00000   0.00027  -0.00406
  66       11PY         0.00002   0.00001   0.00439   0.00000   0.00000
  67       11PZ        -0.00067   0.00958  -0.00003   0.00000   0.00000
  68       12D 0        0.00552   0.00950   0.00007   0.00000   0.00000
  69       12D+1        0.00000   0.00000   0.00000   0.00045  -0.00827
  70       12D-1       -0.00027   0.00001   0.02015   0.00000   0.00000
  71       12D+2       -0.00241   0.00195  -0.00001   0.00000   0.00000
  72       12D-2        0.00000   0.00000   0.00000  -0.00415  -0.00020
  73       13D 0        0.01677   0.01830   0.00011   0.00000   0.00000
  74       13D+1        0.00000   0.00000   0.00000   0.00030  -0.00465
  75       13D-1       -0.00005  -0.00004   0.00793   0.00000   0.00000
  76       13D+2       -0.00081   0.00164   0.00000   0.00000   0.00000
  77       13D-2        0.00000   0.00000   0.00000  -0.00128  -0.00008
  78       14D 0       -0.00213  -0.01041   0.00000   0.00000   0.00000
  79       14D+1        0.00000   0.00000   0.00000   0.00003  -0.00287
  80       14D-1       -0.00016  -0.00004   0.01358   0.00000   0.00000
  81       14D+2       -0.00072  -0.00066  -0.00001   0.00000   0.00000
  82       14D-2        0.00000   0.00000   0.00000  -0.00472  -0.00023
  83       15F 0       -0.00521  -0.00700  -0.00004   0.00000   0.00000
  84       15F+1        0.00000   0.00000   0.00000  -0.00011   0.00183
  85       15F-1        0.00005   0.00001  -0.00513   0.00000   0.00000
  86       15F+2        0.00074  -0.00064   0.00000   0.00000   0.00000
  87       15F-2        0.00000   0.00000   0.00000   0.00134   0.00007
  88       15F+3        0.00000   0.00000   0.00000   0.00002  -0.00036
  89       15F-3        0.00000   0.00000   0.00027   0.00000   0.00000
  90       16F 0        0.00687   0.00086   0.00004   0.00000   0.00000
  91       16F+1        0.00000   0.00000   0.00000  -0.00009   0.00203
  92       16F-1        0.00008  -0.00002  -0.00193   0.00000   0.00000
  93       16F+2       -0.00044  -0.00050   0.00000   0.00000   0.00000
  94       16F-2        0.00000   0.00000   0.00000   0.00329   0.00014
  95       16F+3        0.00000   0.00000   0.00000  -0.00003   0.00030
  96       16F-3        0.00000   0.00000  -0.00038   0.00000   0.00000
  97 3   F  1S          0.00027   0.02724   0.01571   0.00000   0.00000
  98        2S         -0.00233  -0.07659  -0.04095   0.00000   0.00000
  99        3S         -0.00045  -0.02595  -0.01371   0.00000   0.00000
 100        4S         -0.01528  -0.09861  -0.03879   0.00000   0.00000
 101        5S         -0.01587  -0.01798   0.00556   0.00000   0.00000
 102        6PX         0.00000   0.00000   0.00000   0.26127   0.26719
 103        6PY        -0.10617   0.15397  -0.15319   0.00000   0.00000
 104        6PZ         0.17935  -0.07218   0.23156   0.00000   0.00000
 105        7PX         0.00000   0.00000   0.00000   0.31787   0.32580
 106        7PY        -0.12963   0.18458  -0.18591   0.00000   0.00000
 107        7PZ         0.21602  -0.08895   0.27963   0.00000   0.00000
 108        8PX         0.00000   0.00000   0.00000   0.22319   0.22587
 109        8PY        -0.08868   0.10252  -0.14694   0.00000   0.00000
 110        8PZ         0.14779  -0.08104   0.18873   0.00000   0.00000
 111        9PX         0.00000   0.00000   0.00000   0.02651   0.01897
 112        9PY        -0.01239   0.00589  -0.01276   0.00000   0.00000
 113        9PZ         0.01040  -0.01461   0.02333   0.00000   0.00000
 114       10D 0        0.00232  -0.00125   0.00226   0.00000   0.00000
 115       10D+1        0.00000   0.00000   0.00000   0.00158   0.00190
 116       10D-1        0.00145   0.00146   0.00121   0.00000   0.00000
 117       10D+2        0.00126  -0.00231   0.00073   0.00000   0.00000
 118       10D-2        0.00000   0.00000   0.00000   0.00193   0.00305
 119       11D 0        0.00831  -0.00516   0.00839   0.00000   0.00000
 120       11D+1        0.00000   0.00000   0.00000   0.00653   0.00805
 121       11D-1        0.00389   0.00309   0.00426   0.00000   0.00000
 122       11D+2        0.00481  -0.00723   0.00341   0.00000   0.00000
 123       11D-2        0.00000   0.00000   0.00000   0.00878   0.01255
 124       12D 0        0.00584  -0.00343   0.00709   0.00000   0.00000
 125       12D+1        0.00000   0.00000   0.00000   0.00453   0.00467
 126       12D-1        0.00373  -0.00305  -0.00174   0.00000   0.00000
 127       12D+2       -0.00005  -0.00032   0.00875   0.00000   0.00000
 128       12D-2        0.00000   0.00000   0.00000   0.00539   0.00857
 129       13F 0        0.00035  -0.00077   0.00058   0.00000   0.00000
 130       13F+1        0.00000   0.00000   0.00000   0.00024   0.00029
 131       13F-1        0.00164  -0.00048   0.00171   0.00000   0.00000
 132       13F+2       -0.00003  -0.00095  -0.00003   0.00000   0.00000
 133       13F-2        0.00000   0.00000   0.00000   0.00137   0.00169
 134       13F+3        0.00000   0.00000   0.00000  -0.00076  -0.00153
 135       13F-3        0.00073  -0.00086   0.00029   0.00000   0.00000
 136       14F 0        0.00186  -0.00110   0.00064   0.00000   0.00000
 137       14F+1        0.00000   0.00000   0.00000   0.00068   0.00032
 138       14F-1        0.00224  -0.00164   0.00295   0.00000   0.00000
 139       14F+2        0.00027  -0.00085  -0.00025   0.00000   0.00000
 140       14F-2        0.00000   0.00000   0.00000   0.00252   0.00311
 141       14F+3        0.00000   0.00000   0.00000  -0.00248  -0.00230
 142       14F-3        0.00039  -0.00123   0.00157   0.00000   0.00000
 143 4   F  1S          0.00056   0.02724  -0.01543   0.00000   0.00000
 144        2S         -0.00319  -0.07679   0.04028   0.00000   0.00000
 145        3S         -0.00075  -0.02607   0.01351   0.00000   0.00000
 146        4S         -0.01642  -0.10061   0.03845   0.00000   0.00000
 147        5S         -0.01652  -0.01872  -0.00618   0.00000   0.00000
 148        6PX         0.00000   0.00000   0.00000  -0.28959   0.23580
 149        6PY         0.10761  -0.15611  -0.15319   0.00000   0.00000
 150        6PZ         0.18118  -0.06916  -0.23029   0.00000   0.00000
 151        7PX         0.00000   0.00000   0.00000  -0.35255   0.28771
 152        7PY         0.13144  -0.18715  -0.18599   0.00000   0.00000
 153        7PZ         0.21824  -0.08541  -0.27817   0.00000   0.00000
 154        8PX         0.00000   0.00000   0.00000  -0.24615   0.19804
 155        8PY         0.08952  -0.10301  -0.14662   0.00000   0.00000
 156        8PZ         0.14815  -0.07877  -0.18690   0.00000   0.00000
 157        9PX         0.00000   0.00000   0.00000  -0.02817   0.01557
 158        9PY         0.01254  -0.00573  -0.01248   0.00000   0.00000
 159        9PZ         0.01025  -0.01446  -0.02331   0.00000   0.00000
 160       10D 0        0.00240  -0.00125  -0.00231   0.00000   0.00000
 161       10D+1        0.00000   0.00000   0.00000  -0.00184   0.00176
 162       10D-1       -0.00147  -0.00155   0.00120   0.00000   0.00000
 163       10D+2        0.00129  -0.00237  -0.00075   0.00000   0.00000
 164       10D-2        0.00000   0.00000   0.00000   0.00230  -0.00286
 165       11D 0        0.00855  -0.00517  -0.00855   0.00000   0.00000
 166       11D+1        0.00000   0.00000   0.00000  -0.00760   0.00741
 167       11D-1       -0.00394  -0.00336   0.00423   0.00000   0.00000
 168       11D+2        0.00488  -0.00739  -0.00348   0.00000   0.00000
 169       11D-2        0.00000   0.00000   0.00000   0.01027  -0.01160
 170       12D 0        0.00564  -0.00323  -0.00696   0.00000   0.00000
 171       12D+1        0.00000   0.00000   0.00000  -0.00493   0.00403
 172       12D-1       -0.00354   0.00302  -0.00194   0.00000   0.00000
 173       12D+2       -0.00014  -0.00017  -0.00866   0.00000   0.00000
 174       12D-2        0.00000   0.00000   0.00000   0.00609  -0.00761
 175       13F 0        0.00038  -0.00080  -0.00061   0.00000   0.00000
 176       13F+1        0.00000   0.00000   0.00000  -0.00029   0.00028
 177       13F-1       -0.00169   0.00046   0.00173   0.00000   0.00000
 178       13F+2       -0.00002  -0.00099   0.00002   0.00000   0.00000
 179       13F-2        0.00000   0.00000   0.00000   0.00159  -0.00157
 180       13F+3        0.00000   0.00000   0.00000   0.00095  -0.00146
 181       13F-3       -0.00074   0.00088   0.00031   0.00000   0.00000
 182       14F 0        0.00189  -0.00113  -0.00066   0.00000   0.00000
 183       14F+1        0.00000   0.00000   0.00000  -0.00073   0.00026
 184       14F-1       -0.00224   0.00157   0.00294   0.00000   0.00000
 185       14F+2        0.00027  -0.00090   0.00023   0.00000   0.00000
 186       14F-2        0.00000   0.00000   0.00000   0.00286  -0.00278
 187       14F+3        0.00000   0.00000   0.00000   0.00267  -0.00196
 188       14F-3       -0.00038   0.00123   0.00155   0.00000   0.00000
                          16        17        18        19        20
     Eigenvalues --     1.96270   1.95871   1.94243   1.93930   1.91683
   1 1   C  1S         -0.08288   0.00464   0.07722   0.00087   0.00000
   2        2S          0.21748  -0.01271  -0.22990  -0.00256   0.00000
   3        3S          0.05659  -0.00312  -0.05920  -0.00074   0.00000
   4        4S          0.09801  -0.00666  -0.16535  -0.00116   0.00000
   5        5S         -0.01988   0.00084  -0.02285  -0.00022   0.00000
   6        6PX         0.00000   0.00000   0.00000   0.00000   0.18253
   7        6PY         0.00943   0.19155  -0.00084   0.03395   0.00000
   8        6PZ        -0.13617   0.00503  -0.18054  -0.00157   0.00000
   9        7PX         0.00000   0.00000   0.00000   0.00000   0.25559
  10        7PY         0.01112   0.23351  -0.00125   0.04828   0.00000
  11        7PZ        -0.17078   0.00690  -0.22321  -0.00220   0.00000
  12        8PX         0.00000   0.00000   0.00000   0.00000   0.13745
  13        8PY         0.00231   0.05710  -0.00107   0.04935   0.00000
  14        8PZ        -0.01472   0.00057  -0.06812  -0.00057   0.00000
  15        9PX         0.00000   0.00000   0.00000   0.00000   0.02106
  16        9PY        -0.00012  -0.00003   0.00001  -0.00356   0.00000
  17        9PZ        -0.00544   0.00027  -0.00566  -0.00012   0.00000
  18       10D 0       -0.00702   0.00038  -0.01005  -0.00011   0.00000
  19       10D+1        0.00000   0.00000   0.00000   0.00000   0.01555
  20       10D-1       -0.00142  -0.02629  -0.00014   0.02082   0.00000
  21       10D+2       -0.01474   0.00071  -0.00774  -0.00009   0.00000
  22       10D-2        0.00000   0.00000   0.00000   0.00000  -0.00003
  23       11D 0       -0.01827   0.00118  -0.01804  -0.00021   0.00000
  24       11D+1        0.00000   0.00000   0.00000   0.00000   0.04752
  25       11D-1       -0.00292  -0.05755  -0.00028   0.05109   0.00000
  26       11D+2       -0.03570   0.00192  -0.01951  -0.00033   0.00000
  27       11D-2        0.00000   0.00000   0.00000   0.00000  -0.00014
  28       12D 0        0.00245  -0.00012  -0.00600   0.00014   0.00000
  29       12D+1        0.00000   0.00000   0.00000   0.00000   0.01857
  30       12D-1       -0.00024  -0.00360   0.00041  -0.02346   0.00000
  31       12D+2        0.00427  -0.00018  -0.00247   0.00003   0.00000
  32       12D-2        0.00000   0.00000   0.00000   0.00000   0.00003
  33       13F 0        0.00207  -0.00014  -0.00394  -0.00006   0.00000
  34       13F+1        0.00000   0.00000   0.00000   0.00000   0.00671
  35       13F-1        0.00042   0.00773  -0.00009   0.00700   0.00000
  36       13F+2        0.00540  -0.00026   0.00176   0.00002   0.00000
  37       13F-2        0.00000   0.00000   0.00000   0.00000   0.00001
  38       13F+3        0.00000   0.00000   0.00000   0.00000   0.00042
  39       13F-3       -0.00010  -0.00257  -0.00001   0.00205   0.00000
  40       14F 0        0.01003  -0.00076   0.00136   0.00005   0.00000
  41       14F+1        0.00000   0.00000   0.00000   0.00000   0.00057
  42       14F-1        0.00078   0.01872  -0.00005  -0.00006   0.00000
  43       14F+2        0.01090  -0.00076   0.00043   0.00002   0.00000
  44       14F-2        0.00000   0.00000   0.00000   0.00000   0.00012
  45       14F+3        0.00000   0.00000   0.00000   0.00000   0.00397
  46       14F-3       -0.00011  -0.00219   0.00003   0.00049   0.00000
  47 2   S  1S         -0.03607   0.00166   0.02956   0.00023   0.00000
  48        2S          0.13753  -0.00631  -0.11344  -0.00089   0.00000
  49        3S         -0.29781   0.01394   0.26103   0.00198   0.00000
  50        4S         -0.04107   0.00202   0.03766   0.00026   0.00000
  51        5S         -0.18708   0.00940   0.32635   0.00262   0.00000
  52        6S          0.01514  -0.00047   0.05488   0.00079   0.00000
  53        7PX         0.00000   0.00000   0.00000   0.00000  -0.18853
  54        7PY        -0.00048  -0.01460   0.00210  -0.21584   0.00000
  55        7PZ        -0.00882  -0.00043  -0.17386  -0.00161   0.00000
  56        8PX         0.00000   0.00000   0.00000   0.00000   0.43212
  57        8PY         0.00094   0.02969  -0.00510   0.52211   0.00000
  58        8PZ         0.00470   0.00148   0.35964   0.00325   0.00000
  59        9PX         0.00000   0.00000   0.00000   0.00000   0.17742
  60        9PY         0.00050   0.01497  -0.00216   0.21976   0.00000
  61        9PZ         0.00431   0.00050   0.16465   0.00151   0.00000
  62       10PX         0.00000   0.00000   0.00000   0.00000   0.23735
  63       10PY         0.00014   0.00443  -0.00354   0.36919   0.00000
  64       10PZ         0.00184   0.00024   0.09573   0.00073   0.00000
  65       11PX         0.00000   0.00000   0.00000   0.00000   0.00049
  66       11PY         0.00009   0.00057  -0.00025   0.02698   0.00000
  67       11PZ        -0.00290   0.00006  -0.00449  -0.00009   0.00000
  68       12D 0       -0.00026  -0.00031  -0.02721  -0.00024   0.00000
  69       12D+1        0.00000   0.00000   0.00000   0.00000  -0.03394
  70       12D-1       -0.00023  -0.00526   0.00017  -0.01304   0.00000
  71       12D+2       -0.00152   0.00012  -0.00084  -0.00007   0.00000
  72       12D-2        0.00000   0.00000   0.00000   0.00000  -0.00001
  73       13D 0       -0.00604  -0.00005  -0.04843  -0.00048   0.00000
  74       13D+1        0.00000   0.00000   0.00000   0.00000  -0.03419
  75       13D-1       -0.00035  -0.00881   0.00019  -0.01486   0.00000
  76       13D+2       -0.00097   0.00004  -0.00095  -0.00003   0.00000
  77       13D-2        0.00000   0.00000   0.00000   0.00000   0.00001
  78       14D 0        0.00129  -0.00005   0.00518   0.00004   0.00000
  79       14D+1        0.00000   0.00000   0.00000   0.00000  -0.00467
  80       14D-1        0.00002   0.00202   0.00018  -0.01757   0.00000
  81       14D+2       -0.00080   0.00003  -0.00194  -0.00012   0.00000
  82       14D-2        0.00000   0.00000   0.00000   0.00000   0.00003
  83       15F 0        0.00384  -0.00005   0.01570   0.00014   0.00000
  84       15F+1        0.00000   0.00000   0.00000   0.00000   0.01206
  85       15F-1        0.00012   0.00321  -0.00009   0.00817   0.00000
  86       15F+2        0.00019  -0.00001   0.00215   0.00002   0.00000
  87       15F-2        0.00000   0.00000   0.00000   0.00000   0.00001
  88       15F+3        0.00000   0.00000   0.00000   0.00000   0.00242
  89       15F-3        0.00000   0.00011  -0.00003   0.00264   0.00000
  90       16F 0       -0.00184   0.00009  -0.00539  -0.00005   0.00000
  91       16F+1        0.00000   0.00000   0.00000   0.00000  -0.00065
  92       16F-1        0.00001  -0.00063  -0.00002   0.00220   0.00000
  93       16F+2        0.00070  -0.00006   0.00080   0.00004   0.00000
  94       16F-2        0.00000   0.00000   0.00000   0.00000   0.00001
  95       16F+3        0.00000   0.00000   0.00000   0.00000   0.00188
  96       16F-3        0.00006   0.00143  -0.00003   0.00238   0.00000
  97 3   F  1S          0.00711   0.00812  -0.01326  -0.01590   0.00000
  98        2S         -0.02632  -0.01169   0.03667   0.04332   0.00000
  99        3S         -0.01187   0.00077   0.01057   0.01359   0.00000
 100        4S         -0.09457   0.08293   0.01945   0.03729   0.00000
 101        5S         -0.01963   0.03643  -0.00649   0.05441   0.00000
 102        6PX         0.00000   0.00000   0.00000   0.00000  -0.05294
 103        6PY         0.10791  -0.22440   0.02978   0.02117   0.00000
 104        6PZ         0.15673  -0.11209   0.06377   0.05363   0.00000
 105        7PX         0.00000   0.00000   0.00000   0.00000  -0.06398
 106        7PY         0.13044  -0.27229   0.03784   0.02790   0.00000
 107        7PZ         0.18959  -0.13652   0.07906   0.06643   0.00000
 108        8PX         0.00000   0.00000   0.00000   0.00000  -0.06018
 109        8PY         0.05347  -0.14693   0.01754   0.01012   0.00000
 110        8PZ         0.10344  -0.06980   0.05297   0.05356   0.00000
 111        9PX         0.00000   0.00000   0.00000   0.00000  -0.02546
 112        9PY        -0.00477  -0.00849   0.00009   0.01502   0.00000
 113        9PZ         0.00840   0.00398   0.01062   0.01816   0.00000
 114       10D 0       -0.00006  -0.00031  -0.00066  -0.00039   0.00000
 115       10D+1        0.00000   0.00000   0.00000   0.00000   0.00106
 116       10D-1        0.00391  -0.00495   0.00051   0.00043   0.00000
 117       10D+2       -0.00268   0.00304  -0.00097  -0.00023   0.00000
 118       10D-2        0.00000   0.00000   0.00000   0.00000   0.00110
 119       11D 0       -0.00045  -0.00188  -0.00219  -0.00228   0.00000
 120       11D+1        0.00000   0.00000   0.00000   0.00000   0.00382
 121       11D-1        0.01310  -0.01707   0.00306   0.00207   0.00000
 122       11D+2       -0.00878   0.01003  -0.00355  -0.00210   0.00000
 123       11D-2        0.00000   0.00000   0.00000   0.00000   0.00306
 124       12D 0       -0.00181  -0.00472  -0.00335  -0.00051   0.00000
 125       12D+1        0.00000   0.00000   0.00000   0.00000   0.00209
 126       12D-1       -0.00010  -0.00391  -0.00243  -0.00175   0.00000
 127       12D+2       -0.00178   0.00129  -0.00021   0.00229   0.00000
 128       12D-2        0.00000   0.00000   0.00000   0.00000   0.00371
 129       13F 0       -0.00107   0.00126  -0.00036  -0.00028   0.00000
 130       13F+1        0.00000   0.00000   0.00000   0.00000   0.00023
 131       13F-1        0.00098  -0.00118  -0.00006   0.00010   0.00000
 132       13F+2       -0.00180   0.00234  -0.00049  -0.00029   0.00000
 133       13F-2        0.00000   0.00000   0.00000   0.00000   0.00053
 134       13F+3        0.00000   0.00000   0.00000   0.00000  -0.00036
 135       13F-3       -0.00101   0.00101  -0.00056  -0.00011   0.00000
 136       14F 0       -0.00150   0.00132  -0.00132  -0.00093   0.00000
 137       14F+1        0.00000   0.00000   0.00000   0.00000   0.00050
 138       14F-1        0.00076  -0.00310  -0.00001  -0.00067   0.00000
 139       14F+2       -0.00293   0.00356  -0.00136  -0.00033   0.00000
 140       14F-2        0.00000   0.00000   0.00000   0.00000   0.00056
 141       14F+3        0.00000   0.00000   0.00000   0.00000  -0.00020
 142       14F-3       -0.00148   0.00193  -0.00028  -0.00054   0.00000
 143 4   F  1S          0.00628  -0.00913  -0.01348   0.01555   0.00000
 144        2S         -0.02521   0.01514   0.03742  -0.04241   0.00000
 145        3S         -0.01198   0.00069   0.01083  -0.01333   0.00000
 146        4S         -0.10388  -0.07349   0.02043  -0.03680   0.00000
 147        5S         -0.02344  -0.03425  -0.00479  -0.05471   0.00000
 148        6PX         0.00000   0.00000   0.00000   0.00000  -0.05388
 149        6PY        -0.12956  -0.21154  -0.02766   0.01981   0.00000
 150        6PZ         0.16743   0.09753   0.06435  -0.05185   0.00000
 151        7PX         0.00000   0.00000   0.00000   0.00000  -0.06519
 152        7PY        -0.15666  -0.25669  -0.03530   0.02625   0.00000
 153        7PZ         0.20260   0.11890   0.07984  -0.06426   0.00000
 154        8PX         0.00000   0.00000   0.00000   0.00000  -0.06107
 155        8PY        -0.06706  -0.13917  -0.01532   0.00898   0.00000
 156        8PZ         0.10892   0.05990   0.05360  -0.05199   0.00000
 157        9PX         0.00000   0.00000   0.00000   0.00000  -0.02578
 158        9PY         0.00427  -0.00886  -0.00015   0.01482   0.00000
 159        9PZ         0.00786  -0.00479   0.01104  -0.01768   0.00000
 160       10D 0       -0.00001   0.00036  -0.00068   0.00038   0.00000
 161       10D+1        0.00000   0.00000   0.00000   0.00000   0.00109
 162       10D-1       -0.00446  -0.00461  -0.00050   0.00043   0.00000
 163       10D+2       -0.00301  -0.00276  -0.00098   0.00021   0.00000
 164       10D-2        0.00000   0.00000   0.00000   0.00000  -0.00112
 165       11D 0       -0.00020   0.00211  -0.00224   0.00227   0.00000
 166       11D+1        0.00000   0.00000   0.00000   0.00000   0.00387
 167       11D-1       -0.01493  -0.01586  -0.00305   0.00203   0.00000
 168       11D+2       -0.00982  -0.00907  -0.00355   0.00204   0.00000
 169       11D-2        0.00000   0.00000   0.00000   0.00000  -0.00306
 170       12D 0       -0.00151   0.00497  -0.00339   0.00050   0.00000
 171       12D+1        0.00000   0.00000   0.00000   0.00000   0.00216
 172       12D-1       -0.00010  -0.00377   0.00255  -0.00168   0.00000
 173       12D+2       -0.00189  -0.00091  -0.00006  -0.00224   0.00000
 174       12D-2        0.00000   0.00000   0.00000   0.00000  -0.00382
 175       13F 0       -0.00119  -0.00113  -0.00036   0.00027   0.00000
 176       13F+1        0.00000   0.00000   0.00000   0.00000   0.00024
 177       13F-1       -0.00112  -0.00112   0.00007   0.00010   0.00000
 178       13F+2       -0.00205  -0.00216  -0.00049   0.00028   0.00000
 179       13F-2        0.00000   0.00000   0.00000   0.00000  -0.00054
 180       13F+3        0.00000   0.00000   0.00000   0.00000  -0.00037
 181       13F-3        0.00112   0.00089   0.00056  -0.00009   0.00000
 182       14F 0       -0.00163  -0.00115  -0.00133   0.00092   0.00000
 183       14F+1        0.00000   0.00000   0.00000   0.00000   0.00051
 184       14F-1       -0.00109  -0.00306   0.00001  -0.00068   0.00000
 185       14F+2       -0.00328  -0.00324  -0.00134   0.00031   0.00000
 186       14F-2        0.00000   0.00000   0.00000   0.00000  -0.00056
 187       14F+3        0.00000   0.00000   0.00000   0.00000  -0.00019
 188       14F-3        0.00164   0.00175   0.00025  -0.00054   0.00000
                          21        22        23        24        25
     Eigenvalues --     0.07431   0.04143   0.03948   0.03230   0.01915
   1 1   C  1S          0.00000   0.17613  -0.01788   0.03121   0.03209
   2        2S          0.00000  -0.59867   0.06275  -0.08146  -0.09286
   3        3S          0.00000  -0.21200   0.02314   0.01489  -0.03994
   4        4S          0.00000  -0.63763   0.07331   0.05650   0.08972
   5        5S          0.00000  -0.12104   0.01464   0.03112   0.10143
   6        6PX         0.31838   0.00000   0.00000   0.00000   0.00000
   7        6PY         0.00000   0.03276   0.30336  -0.00685  -0.00121
   8        6PZ         0.00000  -0.03795   0.01349   0.37231   0.05514
   9        7PX         0.44539   0.00000   0.00000   0.00000   0.00000
  10        7PY         0.00000   0.06084   0.58159  -0.01534  -0.00249
  11        7PZ         0.00000  -0.03342   0.01807   0.66815   0.05816
  12        8PX         0.15430   0.00000   0.00000   0.00000   0.00000
  13        8PY         0.00000   0.01118   0.10458  -0.00366  -0.00153
  14        8PZ         0.00000  -0.21038   0.02800   0.27444   0.31228
  15        9PX         0.00785   0.00000   0.00000   0.00000   0.00000
  16        9PY         0.00000   0.00171   0.01554  -0.00025   0.00022
  17        9PZ         0.00000  -0.00800   0.00092  -0.00492   0.03438
  18       10D 0        0.00000  -0.00102   0.00039   0.00963   0.05723
  19       10D+1        0.01617   0.00000   0.00000   0.00000   0.00000
  20       10D-1        0.00000   0.00286   0.02975  -0.00112   0.00007
  21       10D+2        0.00000  -0.00929   0.00108   0.00371   0.04688
  22       10D-2       -0.00005   0.00000   0.00000   0.00000   0.00000
  23       11D 0        0.00000  -0.04074   0.00814   0.07648   0.15358
  24       11D+1        0.07186   0.00000   0.00000   0.00000   0.00000
  25       11D-1        0.00000  -0.00678  -0.06087   0.00132   0.00073
  26       11D+2        0.00000   0.03036  -0.00092   0.06721   0.14173
  27       11D-2        0.00008   0.00000   0.00000   0.00000   0.00000
  28       12D 0        0.00000  -0.05231   0.00637   0.02405   0.01744
  29       12D+1        0.02787   0.00000   0.00000   0.00000   0.00000
  30       12D-1        0.00000  -0.00237  -0.02971   0.00190   0.00097
  31       12D+2        0.00000   0.00730  -0.00065   0.02018   0.02401
  32       12D-2        0.00001   0.00000   0.00000   0.00000   0.00000
  33       13F 0        0.00000  -0.00749   0.00099   0.01352  -0.00161
  34       13F+1        0.01172   0.00000   0.00000   0.00000   0.00000
  35       13F-1        0.00000   0.00327   0.03278  -0.00121  -0.00027
  36       13F+2        0.00000  -0.02246   0.00196  -0.02084   0.01240
  37       13F-2       -0.00006   0.00000   0.00000   0.00000   0.00000
  38       13F+3       -0.00124   0.00000   0.00000   0.00000   0.00000
  39       13F-3        0.00000  -0.00124  -0.01162   0.00023   0.00000
  40       14F 0        0.00000  -0.02605   0.00215  -0.00988  -0.02367
  41       14F+1        0.02802   0.00000   0.00000   0.00000   0.00000
  42       14F-1        0.00000   0.01170   0.11373  -0.00399   0.00143
  43       14F+2        0.00000  -0.01605   0.00054  -0.04106  -0.02693
  44       14F-2       -0.00021   0.00000   0.00000   0.00000   0.00000
  45       14F+3        0.00933   0.00000   0.00000   0.00000   0.00000
  46       14F-3        0.00000   0.00283   0.02766  -0.00093   0.00054
  47 2   S  1S          0.00000   0.02027  -0.00248  -0.01320   0.01058
  48        2S          0.00000  -0.05504   0.00657   0.03026  -0.05283
  49        3S          0.00000   0.21257  -0.02629  -0.14622   0.09128
  50        4S          0.00000   0.00941  -0.00037   0.02678   0.08174
  51        5S          0.00000   0.50277  -0.06723  -0.53194  -0.39277
  52        6S          0.00000   0.15250  -0.02013  -0.13131  -0.18292
  53        7PX         0.18353   0.00000   0.00000   0.00000   0.00000
  54        7PY         0.00000   0.01102   0.10370  -0.00275  -0.00009
  55        7PZ         0.00000   0.17884  -0.02140  -0.09807   0.03037
  56        8PX        -0.48848   0.00000   0.00000   0.00000   0.00000
  57        8PY         0.00000  -0.03067  -0.29111   0.00841  -0.00058
  58        8PZ         0.00000  -0.58859   0.07477   0.48828   0.02798
  59        9PX        -0.20116   0.00000   0.00000   0.00000   0.00000
  60        9PY         0.00000  -0.01478  -0.14041   0.00383   0.00020
  61        9PZ         0.00000  -0.19503   0.02312   0.09304  -0.04462
  62       10PX        -0.12738   0.00000   0.00000   0.00000   0.00000
  63       10PY         0.00000   0.00282   0.03768  -0.00249  -0.00140
  64       10PZ         0.00000  -0.30817   0.04176   0.35744   0.20107
  65       11PX        -0.00348   0.00000   0.00000   0.00000   0.00000
  66       11PY         0.00000  -0.00029  -0.00214  -0.00008  -0.00027
  67       11PZ         0.00000  -0.02128   0.00288   0.02401   0.02279
  68       12D 0        0.00000  -0.07200   0.00909   0.05218   0.11429
[...]
  95       16F+3        0.00000   0.00000   0.00000  -0.04407   0.00000
  96       16F-3       -0.01319  -0.07229   0.00426   0.00000   0.00325
  97 3   F  1S         -0.09536   0.00221  -0.04790   0.00000  -0.08932
  98        2S         -0.40148  -0.03184  -0.20488   0.00000  -0.41987
  99        3S          0.10612  -0.04562   0.05353   0.00000   0.05141
 100        4S          3.27627   0.65851   0.82569   0.00000   3.25991
 101        5S          6.85992   1.31970   7.05680   0.00000  17.21215
 102        6PX         0.00000   0.00000   0.00000   0.02004   0.00000
 103        6PY         0.00003   0.01244   0.00480   0.00000   0.01317
 104        6PZ        -0.01771   0.00661   0.00182   0.00000   0.00559
 105        7PX         0.00000   0.00000   0.00000  -0.07541   0.00000
 106        7PY         0.05827  -0.07323  -0.04138   0.00000  -0.05510
 107        7PZ         0.12960  -0.04933  -0.01828   0.00000  -0.01716
 108        8PX         0.00000   0.00000   0.00000   0.07685   0.00000
 109        8PY         1.33360   0.95483   0.27402   0.00000   2.58286
 110        8PZ        -0.44333   1.16787  -0.00942   0.00000   0.81798
 111        9PX         0.00000   0.00000   0.00000  -1.14726   0.00000
 112        9PY         0.26890  -1.58130   0.86379   0.00000   4.94036
 113        9PZ        -1.50755   0.50090   4.70467   0.00000   1.66986
 114       10D 0       -0.01271  -0.00714   0.00135   0.00000  -0.00287
 115       10D+1        0.00000   0.00000   0.00000  -0.01478   0.00000
 116       10D-1       -0.00039  -0.00459   0.02733   0.00000   0.00034
 117       10D+2        0.04001   0.01912   0.00401   0.00000  -0.00371
 118       10D-2        0.00000   0.00000   0.00000  -0.00458   0.00000
 119       11D 0        0.02982   0.01805   0.00062   0.00000   0.00786
 120       11D+1        0.00000   0.00000   0.00000   0.05497   0.00000
 121       11D-1        0.02116   0.03834  -0.09621   0.00000   0.03252
 122       11D+2       -0.15984  -0.06629  -0.00757   0.00000  -0.01802
 123       11D-2        0.00000   0.00000   0.00000   0.01689   0.00000
 124       12D 0       -0.58230   0.13231  -0.11410   0.00000  -0.44658
 125       12D+1        0.00000   0.00000   0.00000  -0.18188   0.00000
 126       12D-1        0.18712   0.36930   0.10895   0.00000   0.43715
 127       12D+2        0.27237  -0.11064  -0.00177   0.00000  -0.51397
 128       12D-2        0.00000   0.00000   0.00000  -0.09936   0.00000
 129       13F 0        0.02243   0.01821   0.00318   0.00000   0.00999
 130       13F+1        0.00000   0.00000   0.00000  -0.00990   0.00000
 131       13F-1       -0.00350  -0.01474   0.02753   0.00000   0.00978
 132       13F+2        0.02817   0.01501  -0.02313   0.00000   0.00336
 133       13F-2        0.00000   0.00000   0.00000   0.00886   0.00000
 134       13F+3        0.00000   0.00000   0.00000  -0.00048   0.00000
 135       13F-3       -0.02985   0.02015   0.00713   0.00000  -0.00581
 136       14F 0       -0.09286  -0.05157  -0.00394   0.00000  -0.06541
 137       14F+1        0.00000   0.00000   0.00000   0.01570   0.00000
 138       14F-1       -0.02038   0.05459  -0.05549   0.00000  -0.02711
 139       14F+2       -0.07262  -0.06763   0.04287   0.00000  -0.05520
 140       14F-2        0.00000   0.00000   0.00000  -0.01056   0.00000
 141       14F+3        0.00000   0.00000   0.00000   0.00120   0.00000
 142       14F-3        0.07549  -0.05910  -0.01708   0.00000  -0.02119
 143 4   F  1S         -0.01780  -0.00615  -0.04668   0.00000   0.08925
 144        2S         -0.08810   0.01506  -0.20501   0.00000   0.41751
 145        3S          0.00290   0.04999   0.04673   0.00000  -0.05396
 146        4S          0.15620  -0.52672   0.89396   0.00000  -3.19992
 147        5S         -5.31794  -0.26207   7.10746   0.00000 -16.96411
 148        6PX         0.00000   0.00000   0.00000   0.01987   0.00000
 149        6PY         0.00506   0.01108  -0.00610   0.00000   0.01218
 150        6PZ         0.02424  -0.00589   0.00278   0.00000  -0.00507
 151        7PX         0.00000   0.00000   0.00000  -0.07494   0.00000
 152        7PY         0.01012  -0.06622   0.04977   0.00000  -0.04934
 153        7PZ        -0.16304   0.04591  -0.02551   0.00000   0.01433
 154        8PX         0.00000   0.00000   0.00000   0.07406   0.00000
 155        8PY        -0.01970   0.90878  -0.38957   0.00000   2.50811
 156        8PZ         2.88774  -1.15635   0.13294   0.00000  -0.74446
 157        9PX         0.00000   0.00000   0.00000  -1.14615   0.00000
 158        9PY        -0.35473  -1.70034  -0.60577   0.00000   4.88349
 159        9PZ         1.91984   0.11029   4.79438   0.00000  -1.66846
 160       10D 0        0.02108   0.00691   0.00083   0.00000   0.00255
 161       10D+1        0.00000   0.00000   0.00000  -0.01475   0.00000
 162       10D-1       -0.01531  -0.00878  -0.02614   0.00000   0.00047
 163       10D+2       -0.05223  -0.01882   0.00619   0.00000   0.00317
 164       10D-2        0.00000   0.00000   0.00000   0.00431   0.00000
 165       11D 0       -0.06431  -0.01670   0.00165   0.00000  -0.00665
 166       11D+1        0.00000   0.00000   0.00000   0.05510   0.00000
 167       11D-1        0.04015   0.05285   0.08981   0.00000   0.03086
 168       11D+2        0.18050   0.06656  -0.01496   0.00000   0.01925
 169       11D-2        0.00000   0.00000   0.00000  -0.01635   0.00000
 170       12D 0        0.95013  -0.14938  -0.09814   0.00000   0.45314
 171       12D+1        0.00000   0.00000   0.00000  -0.18251   0.00000
 172       12D-1       -0.83390   0.35485  -0.14835   0.00000   0.42034
 173       12D+2       -0.37156   0.11750  -0.02084   0.00000   0.50062
 174       12D-2        0.00000   0.00000   0.00000   0.09840   0.00000
 175       13F 0        0.00828  -0.01714   0.00556   0.00000  -0.00984
 176       13F+1        0.00000   0.00000   0.00000  -0.00972   0.00000
 177       13F-1        0.00487  -0.01816  -0.02576   0.00000   0.01019
 178       13F+2       -0.02762  -0.01822  -0.02109   0.00000  -0.00322
 179       13F-2        0.00000   0.00000   0.00000  -0.00890   0.00000
 180       13F+3        0.00000   0.00000   0.00000  -0.00068   0.00000
 181       13F-3       -0.00664   0.01955  -0.01005   0.00000  -0.00498
 182       14F 0       -0.00360   0.05033  -0.01063   0.00000   0.06483
 183       14F+1        0.00000   0.00000   0.00000   0.01546   0.00000
 184       14F-1       -0.07767   0.06189   0.04942   0.00000  -0.02867
 185       14F+2        0.01606   0.07526   0.03432   0.00000   0.05386
 186       14F-2        0.00000   0.00000   0.00000   0.01032   0.00000
 187       14F+3        0.00000   0.00000   0.00000   0.00131   0.00000
 188       14F-3        0.02465  -0.05911   0.02551   0.00000  -0.02206
                         186       187       188
     Eigenvalues --     0.00000   0.00000   0.00000
   1 1   C  1S         -0.07107  -0.06396   0.00795
   2        2S         -0.34234  -0.34729  -0.00125
   3        3S          0.23810   0.15985  -0.01469
   4        4S        -12.94928 -14.93380 -13.40738
   5        5S         -4.57717  -9.55721 -21.53422
   6        6PX         0.00000   0.00000   0.00000
   7        6PY         0.00095   0.00030  -0.00042
   8        6PZ        -0.01377   0.00199  -0.01002
   9        7PX         0.00000   0.00000   0.00000
  10        7PY        -0.04459  -0.02926  -0.00619
  11        7PZ         0.73347   0.38929   0.26700
  12        8PX         0.00000   0.00000   0.00000
  13        8PY        -0.18565  -0.13780   0.02139
  14        8PZ         2.06703  -2.62300  -7.29738
  15        9PX         0.00000   0.00000   0.00000
  16        9PY        -0.00371   0.00353  -0.00867
  17        9PZ         3.80652  -3.32302  -4.21276
  18       10D 0        0.01763   0.01403   0.01224
  19       10D+1        0.00000   0.00000   0.00000
  20       10D-1        0.00119   0.00066   0.00075
  21       10D+2       -0.03387   0.01379   0.03522
  22       10D-2        0.00000   0.00000   0.00000
  23       11D 0        0.04496  -0.63455  -0.23117
  24       11D+1        0.00000   0.00000   0.00000
  25       11D-1        0.02624   0.02574  -0.00172
  26       11D+2        1.15368   0.57596   0.09915
  27       11D-2        0.00000   0.00000   0.00000
  28       12D 0       -0.88919  -1.56397  -1.49610
  29       12D+1        0.00000   0.00000   0.00000
  30       12D-1        0.06075   0.11485   0.00773
  31       12D+2        0.72836   0.86660   0.31403
  32       12D-2        0.00000   0.00000   0.00000
  33       13F 0       -0.05542  -0.02806  -0.00850
  34       13F+1        0.00000   0.00000   0.00000
  35       13F-1       -0.00003  -0.00094  -0.00027
  36       13F+2       -0.06422  -0.04285  -0.01331
  37       13F-2        0.00000   0.00000   0.00000
  38       13F+3        0.00000   0.00000   0.00000
  39       13F-3        0.00070   0.00020  -0.00010
  40       14F 0       -0.66410  -0.31543  -0.12076
  41       14F+1        0.00000   0.00000   0.00000
  42       14F-1       -0.00349  -0.00946   0.01043
  43       14F+2       -0.41106  -0.08773   0.02941
  44       14F-2        0.00000   0.00000   0.00000
  45       14F+3        0.00000   0.00000   0.00000
  46       14F-3        0.00189  -0.00157   0.00123
  47 2   S  1S          0.00867  -0.00211  -0.00678
  48        2S          0.13339  -0.02153  -0.07849
  49        3S          0.38001  -0.08985  -0.27889
  50        4S         -0.03913  -0.10800  -0.09598
  51        5S          2.28209   7.65558   7.10666
  52        6S          0.33720   5.93858  23.30768
  53        7PX         0.00000   0.00000   0.00000
  54        7PY         0.00021   0.00043  -0.00015
  55        7PZ        -0.02552  -0.04861   0.00068
  56        8PX         0.00000   0.00000   0.00000
  57        8PY         0.00383   0.00837  -0.00406
  58        8PZ        -0.61162  -1.18366  -0.11269
  59        9PX         0.00000   0.00000   0.00000
  60        9PY        -0.00082  -0.00134   0.00032
  61        9PZ         0.03772   0.12826  -0.02188
  62       10PX         0.00000   0.00000   0.00000
  63       10PY        -0.01777  -0.07456  -0.01559
  64       10PZ        -1.42008  -4.20758  -9.42222
  65       11PX         0.00000   0.00000   0.00000
  66       11PY        -0.01430  -0.01752   0.00763
  67       11PZ        -1.53330   1.58610  -4.96379
  68       12D 0        0.09001   1.04502   0.43152
  69       12D+1        0.00000   0.00000   0.00000
  70       12D-1       -0.00388  -0.00151   0.00629
  71       12D+2        0.09881  -0.05218  -0.01822
  72       12D-2        0.00000   0.00000   0.00000
  73       13D 0        0.05265  -0.08384  -0.02014
  74       13D+1        0.00000   0.00000   0.00000
  75       13D-1        0.00095   0.00015  -0.00027
  76       13D+2       -0.01938   0.00671   0.00165
  77       13D-2        0.00000   0.00000   0.00000
  78       14D 0        0.71661  -0.38027   2.69385
  79       14D+1        0.00000   0.00000   0.00000
  80       14D-1        0.00846   0.03404   0.00487
  81       14D+2       -0.28153   0.02982  -0.05346
  82       14D-2        0.00000   0.00000   0.00000
  83       15F 0       -0.01113  -0.06144   0.03571
  84       15F+1        0.00000   0.00000   0.00000
  85       15F-1       -0.00095  -0.00008   0.00005
  86       15F+2       -0.01927   0.01546   0.00148
  87       15F-2        0.00000   0.00000   0.00000
  88       15F+3        0.00000   0.00000   0.00000
  89       15F-3       -0.00020   0.00031  -0.00008
  90       16F 0       -0.06102  -0.03842  -0.31115
  91       16F+1        0.00000   0.00000   0.00000
  92       16F-1        0.00219  -0.00180  -0.00304
  93       16F+2        0.04513  -0.00906   0.01948
  94       16F-2        0.00000   0.00000   0.00000
  95       16F+3        0.00000   0.00000   0.00000
  96       16F-3        0.00056  -0.00036   0.00008
  97 3   F  1S         -0.02273  -0.03107   0.00384
  98        2S         -0.13271  -0.16315   0.00703
  99        3S         -0.01923  -0.00089  -0.01598
 100        4S          2.39483   1.38845   0.11018
 101        5S          5.54922   5.44834   1.87590
 102        6PX         0.00000   0.00000   0.00000
 103        6PY         0.00118   0.01104   0.00245
 104        6PZ         0.01065   0.00306   0.00179
 105        7PX         0.00000   0.00000   0.00000
 106        7PY         0.00606  -0.06284  -0.01825
 107        7PZ        -0.03179  -0.03059  -0.02368
 108        8PX         0.00000   0.00000   0.00000
 109        8PY         1.36874   1.34902   0.39743
 110        8PZ         1.57484   1.00198   0.46435
 111        9PX         0.00000   0.00000   0.00000
 112        9PY         0.99860   0.60726  -0.02358
 113        9PZ        -0.91291   1.32869  -0.19868
 114       10D 0       -0.01952   0.00937  -0.00096
 115       10D+1        0.00000   0.00000   0.00000
 116       10D-1       -0.01218  -0.00351   0.00056
 117       10D+2        0.00119  -0.00229   0.00815
 118       10D-2        0.00000   0.00000   0.00000
 119       11D 0        0.07304  -0.04091  -0.00307
 120       11D+1        0.00000   0.00000   0.00000
 121       11D-1        0.08101   0.02419   0.00145
 122       11D+2       -0.01747  -0.00674  -0.02798
 123       11D-2        0.00000   0.00000   0.00000
 124       12D 0        0.00761   0.14396   0.03047
 125       12D+1        0.00000   0.00000   0.00000
 126       12D-1        0.39845   0.37952   0.22713
 127       12D+2       -0.07204  -0.25446  -0.06745
 128       12D-2        0.00000   0.00000   0.00000
 129       13F 0        0.00488   0.00720   0.00742
 130       13F+1        0.00000   0.00000   0.00000
 131       13F-1       -0.01560  -0.00266  -0.00629
 132       13F+2        0.00789   0.00425   0.01457
 133       13F-2        0.00000   0.00000   0.00000
 134       13F+3        0.00000   0.00000   0.00000
 135       13F-3       -0.02172  -0.00057   0.00759
 136       14F 0       -0.03049  -0.02731  -0.02935
 137       14F+1        0.00000   0.00000   0.00000
 138       14F-1        0.07136   0.01706   0.01466
 139       14F+2       -0.04736  -0.04321  -0.04698
 140       14F-2        0.00000   0.00000   0.00000
 141       14F+3        0.00000   0.00000   0.00000
 142       14F-3        0.04619  -0.01778  -0.02349
 143 4   F  1S         -0.02569  -0.03460   0.00307
 144        2S         -0.14680  -0.17958   0.00354
 145        3S         -0.01783   0.00125  -0.01542
 146        4S          2.53649   1.52363   0.11476
 147        5S          6.12997   6.06006   1.86507
 148        6PX         0.00000   0.00000   0.00000
 149        6PY        -0.00160  -0.01130  -0.00242
 150        6PZ         0.01072   0.00315   0.00182
 151        7PX         0.00000   0.00000   0.00000
 152        7PY        -0.00549   0.06299   0.01825
 153        7PZ        -0.03146  -0.03010  -0.02407
 154        8PX         0.00000   0.00000   0.00000
 155        8PY        -1.43394  -1.42983  -0.39271
 156        8PZ         1.65399   1.04613   0.48591
 157        9PX         0.00000   0.00000   0.00000
 158        9PY        -1.13725  -0.75663   0.04086
 159        9PZ        -0.84720   1.37752  -0.21206
 160       10D 0       -0.01964   0.00908  -0.00096
 161       10D+1        0.00000   0.00000   0.00000
 162       10D-1        0.01217   0.00384  -0.00040
 163       10D+2        0.00134  -0.00216   0.00835
 164       10D-2        0.00000   0.00000   0.00000
 165       11D 0        0.07435  -0.03985  -0.00300
 166       11D+1        0.00000   0.00000   0.00000
 167       11D-1       -0.08331  -0.02713  -0.00237
 168       11D+2       -0.01888  -0.00859  -0.02887
 169       11D-2        0.00000   0.00000   0.00000
 170       12D 0        0.01564   0.13479   0.03957
 171       12D+1        0.00000   0.00000   0.00000
 172       12D-1       -0.41911  -0.39347  -0.23268
 173       12D+2       -0.07650  -0.26530  -0.06373
 174       12D-2        0.00000   0.00000   0.00000
 175       13F 0        0.00476   0.00736   0.00730
 176       13F+1        0.00000   0.00000   0.00000
 177       13F-1        0.01600   0.00241   0.00671
 178       13F+2        0.00780   0.00418   0.01451
 179       13F-2        0.00000   0.00000   0.00000
 180       13F+3        0.00000   0.00000   0.00000
 181       13F-3        0.02171   0.00098  -0.00741
 182       14F 0       -0.03060  -0.02890  -0.02907
 183       14F+1        0.00000   0.00000   0.00000
 184       14F-1       -0.07428  -0.01698  -0.01654
 185       14F+2       -0.04880  -0.04473  -0.04738
 186       14F-2        0.00000   0.00000   0.00000
 187       14F+3        0.00000   0.00000   0.00000
 188       14F-3       -0.04568   0.01788   0.02324
          Condensed to atoms (all electrons):
              1          2          3          4
     1  C    5.195433   0.241793   0.109065   0.109844
     2  S    0.241793  15.946348  -0.064717  -0.066202
     3  F    0.109065  -0.064717   9.181882  -0.078949
     4  F    0.109844  -0.066202  -0.078949   9.174670
 Mulliken atomic charges:
              1
     1  C    0.343866
     2  S   -0.057222
     3  F   -0.147281
     4  F   -0.139363
 Sum of Mulliken atomic charges =   0.00000
 Mulliken charges with hydrogens summed into heavy atoms:
              1
     1  C    0.343866
     2  S   -0.057222
     3  F   -0.147281
     4  F   -0.139363
 Sum of Mulliken charges with hydrogens summed into heavy atoms =   0.00000
 Electronic spatial extent (au):  <R**2>=            315.9035
 Charge=              0.0000 electrons
 Dipole moment (field-independent basis, Debye):
    X=              0.0000    Y=              0.0325    Z=             -0.1931  Tot=              0.1959
 Quadrupole moment (field-independent basis, Debye-Ang):
   XX=            -27.2813   YY=            -30.1741   ZZ=            -27.9491
   XY=              0.0000   XZ=              0.0000   YZ=             -0.0473
 Traceless Quadrupole moment (field-independent basis, Debye-Ang):
   XX=              1.1868   YY=             -1.7059   ZZ=              0.5191
   XY=              0.0000   XZ=              0.0000   YZ=             -0.0473
 Octapole moment (field-independent basis, Debye-Ang**2):
  XXX=              0.0000  YYY=              0.2247  ZZZ=              8.8934  XYY=              0.0000
  XXY=              0.0656  XXZ=              0.7906  XZZ=              0.0000  YZZ=              0.1169
  YYZ=              0.8493  XYZ=              0.0000
 Hexadecapole moment (field-independent basis, Debye-Ang**3):
 XXXX=            -28.1123 YYYY=            -96.7975 ZZZZ=           -215.1357 XXXY=              0.0000
 XXXZ=              0.0000 YYYX=              0.0000 YYYZ=             -0.2946 ZZZX=              0.0000
 ZZZY=             -0.3192 XXYY=            -20.8246 XXZZ=            -40.5196 YYZZ=            -55.7691
 XXYZ=             -0.0890 YYXZ=              0.0000 ZZXY=              0.0000
 N-N= 1.541173867990D+02 E-N=-1.819548488605D+03  KE= 6.349743651018D+02
 1\1\GINC-TRAPISTA\SP\RQCISD-FC\Aug-CC-pVTZ\C1F2S1\BRUNS\27-Nov-2021\0\
 \# qcisd/aug-cc-pvtz nosymm density=current output=wfn\\f2cs-wavefunct
 ion\\0,1\C,0,0.,0.,-0.520349\S,0,0.,0.,1.078525\F,0,0.,-1.065221,-1.29
 5538\F,0,0.,1.055221,-1.295538\\Version=EM64L-G09RevB.01\HF=-634.35630
 88\MP2=-635.1964311\MP3=-635.1996426\MP4D=-635.216656\MP4DQ=-635.19724
 87\MP4SDQ=-635.2081801\QCISD=-635.2072652\RMSD=6.765e-09\Dipole=0.,0.0
 128048,-0.0759845\Quadrupole=0.882379,-1.2683082,0.3859293,0.,0.,-0.03
 51342\PG=CS [SG(C1F2S1)]\\@

 Writing a WFN file to GAUSSIAN.wfn.


 ALL OUR THINKING ABOUT NATURE MUST NECESSARILY MOVE IN CIRCLES OR SPIRALS;
 FOR WE CAN ONLY UNDERSTAND NATURE IF WE THINK ABOUT HER, AND WE CAN ONLY
 THINK BECAUSE OUR BRAIN IS BUILT IN ACCORDANCE WITH NATURE'S LAWS.

                                             -- TIMOTHY FERRIS, "GALAXIES"
 Job cpu time:  0 days  2 hours 13 minutes 16.7 seconds.
 File lengths (MBytes):  RWF=  17813 Int=      0 D2E=      0 Chk=      3 Scr=      1
 Normal termination of Gaussian 09 at Sat Nov 27 07:21:21 2021.
