 f2co-wavefunction
GAUSSIAN            184 MOL ORBITALS    288 PRIMITIVES        4 NUCLEI
  O    1    (CENTRE  1)   0.00000000  0.00000000  1.28487582  CHARGE =  8.0
  C    2    (CENTRE  2)   0.00000000 -0.01889726 -0.93015344  CHARGE =  6.0
  F    3    (CENTRE  3)   0.00000000 -2.00098943 -2.38919020  CHARGE =  9.0
  F    4    (CENTRE  4)   0.00000000  2.00098943 -2.38919020  CHARGE =  9.0
CENTRE ASSIGNMENTS    1  1  1  1  1  1  1  1  1  1  1  1  1  1  1  1  1  1  1  1
CENTRE ASSIGNMENTS    1  1  1  1  1  1  1  1  1  1  1  1  1  1  1  1  1  1  1  1
CENTRE ASSIGNMENTS    1  1  1  1  1  1  1  1  1  1  1  1  1  1  1  1  1  1  1  1
CENTRE ASSIGNMENTS    1  1  1  1  1  1  1  1  1  1  1  1  2  2  2  2  2  2  2  2
CENTRE ASSIGNMENTS    2  2  2  2  2  2  2  2  2  2  2  2  2  2  2  2  2  2  2  2
CENTRE ASSIGNMENTS    2  2  2  2  2  2  2  2  2  2  2  2  2  2  2  2  2  2  2  2
CENTRE ASSIGNMENTS    2  2  2  2  2  2  2  2  2  2  2  2  2  2  2  2  2  2  2  2
CENTRE ASSIGNMENTS    2  2  2  2  3  3  3  3  3  3  3  3  3  3  3  3  3  3  3  3
CENTRE ASSIGNMENTS    3  3  3  3  3  3  3  3  3  3  3  3  3  3  3  3  3  3  3  3
CENTRE ASSIGNMENTS    3  3  3  3  3  3  3  3  3  3  3  3  3  3  3  3  3  3  3  3
CENTRE ASSIGNMENTS    3  3  3  3  3  3  3  3  3  3  3  3  3  3  3  3  4  4  4  4
CENTRE ASSIGNMENTS    4  4  4  4  4  4  4  4  4  4  4  4  4  4  4  4  4  4  4  4
CENTRE ASSIGNMENTS    4  4  4  4  4  4  4  4  4  4  4  4  4  4  4  4  4  4  4  4
CENTRE ASSIGNMENTS    4  4  4  4  4  4  4  4  4  4  4  4  4  4  4  4  4  4  4  4
CENTRE ASSIGNMENTS    4  4  4  4  4  4  4  4
TYPE ASSIGNMENTS      1  1  1  1  1  1  1  1  1  1  1  1  1  1  1  1  2  2  2  3
TYPE ASSIGNMENTS      3  3  4  4  4  2  3  4  2  3  4  2  3  4  5  6  7  8  9 10
TYPE ASSIGNMENTS      5  6  7  8  9 10  5  6  7  8  9 10 11 12 13 17 14 15 18 19
TYPE ASSIGNMENTS     16 20 11 12 13 17 14 15 18 19 16 20  1  1  1  1  1  1  1  1
TYPE ASSIGNMENTS      1  1  1  1  1  1  1  1  2  2  2  3  3  3  4  4  4  2  3  4
TYPE ASSIGNMENTS      2  3  4  2  3  4  5  6  7  8  9 10  5  6  7  8  9 10  5  6
TYPE ASSIGNMENTS      7  8  9 10 11 12 13 17 14 15 18 19 16 20 11 12 13 17 14 15
TYPE ASSIGNMENTS     18 19 16 20  1  1  1  1  1  1  1  1  1  1  1  1  1  1  1  1
TYPE ASSIGNMENTS      2  2  2  3  3  3  4  4  4  2  3  4  2  3  4  2  3  4  5  6
TYPE ASSIGNMENTS      7  8  9 10  5  6  7  8  9 10  5  6  7  8  9 10 11 12 13 17
TYPE ASSIGNMENTS     14 15 18 19 16 20 11 12 13 17 14 15 18 19 16 20  1  1  1  1
TYPE ASSIGNMENTS      1  1  1  1  1  1  1  1  1  1  1  1  2  2  2  3  3  3  4  4
TYPE ASSIGNMENTS      4  2  3  4  2  3  4  2  3  4  5  6  7  8  9 10  5  6  7  8
TYPE ASSIGNMENTS      9 10  5  6  7  8  9 10 11 12 13 17 14 15 18 19 16 20 11 12
TYPE ASSIGNMENTS     13 17 14 15 18 19 16 20
EXPONENTS  0.1533000D+05 0.2299000D+04 0.5224000D+03 0.1473000D+03 0.4755000D+02
EXPONENTS  0.1676000D+02 0.6207000D+01 0.5224000D+03 0.1473000D+03 0.4755000D+02
EXPONENTS  0.1676000D+02 0.6207000D+01 0.6882000D+00 0.1752000D+01 0.2384000D+00
EXPONENTS  0.7376000D-01 0.3446000D+02 0.7749000D+01 0.2280000D+01 0.3446000D+02
EXPONENTS  0.7749000D+01 0.2280000D+01 0.3446000D+02 0.7749000D+01 0.2280000D+01
EXPONENTS  0.7156000D+00 0.7156000D+00 0.7156000D+00 0.2140000D+00 0.2140000D+00
EXPONENTS  0.2140000D+00 0.5974000D-01 0.5974000D-01 0.5974000D-01 0.2314000D+01
EXPONENTS  0.2314000D+01 0.2314000D+01 0.2314000D+01 0.2314000D+01 0.2314000D+01
EXPONENTS  0.6450000D+00 0.6450000D+00 0.6450000D+00 0.6450000D+00 0.6450000D+00
EXPONENTS  0.6450000D+00 0.2140000D+00 0.2140000D+00 0.2140000D+00 0.2140000D+00
EXPONENTS  0.2140000D+00 0.2140000D+00 0.1428000D+01 0.1428000D+01 0.1428000D+01
EXPONENTS  0.1428000D+01 0.1428000D+01 0.1428000D+01 0.1428000D+01 0.1428000D+01
EXPONENTS  0.1428000D+01 0.1428000D+01 0.5000000D+00 0.5000000D+00 0.5000000D+00
EXPONENTS  0.5000000D+00 0.5000000D+00 0.5000000D+00 0.5000000D+00 0.5000000D+00
EXPONENTS  0.5000000D+00 0.5000000D+00 0.8236000D+04 0.1235000D+04 0.2808000D+03
EXPONENTS  0.7927000D+02 0.2559000D+02 0.8997000D+01 0.3319000D+01 0.2808000D+03
EXPONENTS  0.7927000D+02 0.2559000D+02 0.8997000D+01 0.3319000D+01 0.3643000D+00
EXPONENTS  0.9059000D+00 0.1285000D+00 0.4402000D-01 0.1871000D+02 0.4133000D+01
EXPONENTS  0.1200000D+01 0.1871000D+02 0.4133000D+01 0.1200000D+01 0.1871000D+02
EXPONENTS  0.4133000D+01 0.1200000D+01 0.3827000D+00 0.3827000D+00 0.3827000D+00
EXPONENTS  0.1209000D+00 0.1209000D+00 0.1209000D+00 0.3569000D-01 0.3569000D-01
EXPONENTS  0.3569000D-01 0.1097000D+01 0.1097000D+01 0.1097000D+01 0.1097000D+01
EXPONENTS  0.1097000D+01 0.1097000D+01 0.3180000D+00 0.3180000D+00 0.3180000D+00
EXPONENTS  0.3180000D+00 0.3180000D+00 0.3180000D+00 0.1000000D+00 0.1000000D+00
EXPONENTS  0.1000000D+00 0.1000000D+00 0.1000000D+00 0.1000000D+00 0.7610000D+00
EXPONENTS  0.7610000D+00 0.7610000D+00 0.7610000D+00 0.7610000D+00 0.7610000D+00
EXPONENTS  0.7610000D+00 0.7610000D+00 0.7610000D+00 0.7610000D+00 0.2680000D+00
EXPONENTS  0.2680000D+00 0.2680000D+00 0.2680000D+00 0.2680000D+00 0.2680000D+00
EXPONENTS  0.2680000D+00 0.2680000D+00 0.2680000D+00 0.2680000D+00 0.1950000D+05
EXPONENTS  0.2923000D+04 0.6645000D+03 0.1875000D+03 0.6062000D+02 0.2142000D+02
EXPONENTS  0.7950000D+01 0.6645000D+03 0.1875000D+03 0.6062000D+02 0.2142000D+02
EXPONENTS  0.7950000D+01 0.8815000D+00 0.2257000D+01 0.3041000D+00 0.9158000D-01
EXPONENTS  0.4388000D+02 0.9926000D+01 0.2930000D+01 0.4388000D+02 0.9926000D+01
EXPONENTS  0.2930000D+01 0.4388000D+02 0.9926000D+01 0.2930000D+01 0.9132000D+00
EXPONENTS  0.9132000D+00 0.9132000D+00 0.2672000D+00 0.2672000D+00 0.2672000D+00
EXPONENTS  0.7361000D-01 0.7361000D-01 0.7361000D-01 0.3107000D+01 0.3107000D+01
EXPONENTS  0.3107000D+01 0.3107000D+01 0.3107000D+01 0.3107000D+01 0.8550000D+00
EXPONENTS  0.8550000D+00 0.8550000D+00 0.8550000D+00 0.8550000D+00 0.8550000D+00
EXPONENTS  0.2920000D+00 0.2920000D+00 0.2920000D+00 0.2920000D+00 0.2920000D+00
EXPONENTS  0.2920000D+00 0.1917000D+01 0.1917000D+01 0.1917000D+01 0.1917000D+01
EXPONENTS  0.1917000D+01 0.1917000D+01 0.1917000D+01 0.1917000D+01 0.1917000D+01
EXPONENTS  0.1917000D+01 0.7240000D+00 0.7240000D+00 0.7240000D+00 0.7240000D+00
EXPONENTS  0.7240000D+00 0.7240000D+00 0.7240000D+00 0.7240000D+00 0.7240000D+00
EXPONENTS  0.7240000D+00 0.1950000D+05 0.2923000D+04 0.6645000D+03 0.1875000D+03
EXPONENTS  0.6062000D+02 0.2142000D+02 0.7950000D+01 0.6645000D+03 0.1875000D+03
EXPONENTS  0.6062000D+02 0.2142000D+02 0.7950000D+01 0.8815000D+00 0.2257000D+01
EXPONENTS  0.3041000D+00 0.9158000D-01 0.4388000D+02 0.9926000D+01 0.2930000D+01
EXPONENTS  0.4388000D+02 0.9926000D+01 0.2930000D+01 0.4388000D+02 0.9926000D+01
EXPONENTS  0.2930000D+01 0.9132000D+00 0.9132000D+00 0.9132000D+00 0.2672000D+00
EXPONENTS  0.2672000D+00 0.2672000D+00 0.7361000D-01 0.7361000D-01 0.7361000D-01
EXPONENTS  0.3107000D+01 0.3107000D+01 0.3107000D+01 0.3107000D+01 0.3107000D+01
EXPONENTS  0.3107000D+01 0.8550000D+00 0.8550000D+00 0.8550000D+00 0.8550000D+00
EXPONENTS  0.8550000D+00 0.8550000D+00 0.2920000D+00 0.2920000D+00 0.2920000D+00
EXPONENTS  0.2920000D+00 0.2920000D+00 0.2920000D+00 0.1917000D+01 0.1917000D+01
EXPONENTS  0.1917000D+01 0.1917000D+01 0.1917000D+01 0.1917000D+01 0.1917000D+01
EXPONENTS  0.1917000D+01 0.1917000D+01 0.1917000D+01 0.7240000D+00 0.7240000D+00
EXPONENTS  0.7240000D+00 0.7240000D+00 0.7240000D+00 0.7240000D+00 0.7240000D+00
EXPONENTS  0.7240000D+00 0.7240000D+00 0.7240000D+00
MO    1     MO 0.0        OCC NO =    2.0000067  ORB. ENERGY =    0.000000
 -0.32220400D+00 -0.60053528D+00 -0.10182920D+01 -0.15410766D+01 -0.19223716D+01
 -0.16496808D+01 -0.63174011D+00 -0.40144043D-04 -0.43071923D-03 -0.15877122D-02
 -0.46423773D-02 -0.55942904D-02  0.67389156D-02 -0.29032424D-01  0.49038447D-03
 -0.50053785D-04  0.52600271D-13  0.51004569D-13  0.34407381D-13  0.22141734D-03
  0.21470034D-03  0.14483558D-03  0.19769871D-01  0.19170124D-01  0.12932053D-01
  0.18488384D-13  0.19623526D-04  0.25049155D-02  0.18097519D-13  0.11017808D-05
  0.66407164D-03  0.10907385D-14  0.70967145D-06  0.14600824D-04  0.12278436D-02
  0.65189095D-03 -0.18797346D-02  0.80684812D-15  0.25379493D-13 -0.35508055D-04
  0.50421301D-04 -0.24948985D-04 -0.25472316D-04  0.58686948D-15 -0.18975605D-13
 -0.64089924D-05  0.50116273D-04 -0.18381704D-05 -0.48278102D-04  0.15417902D-14
 -0.80143368D-14 -0.44857092D-06  0.48061903D-14  0.80031877D-05 -0.54785733D-03
 -0.36501702D-15  0.11476285D-04  0.10324324D-02 -0.14053554D-13 -0.35485849D-04
  0.61113961D-03  0.19209149D-13 -0.28345516D-14 -0.12404901D-05  0.13146655D-04
 -0.29700678D-14 -0.19022679D-05 -0.22419642D-04  0.11473723D-13  0.56237383D-05
 -0.17020323D-04 -0.57386457D-14  0.23920030D+00  0.44591755D+00  0.75366141D+00
  0.11328937D+01  0.13915570D+01  0.11744250D+01  0.44161446D+00  0.26513724D-04
  0.19817366D-03  0.74062022D-03  0.20662151D-02  0.27681586D-02 -0.32686791D-02
  0.19353520D-01 -0.42390004D-04  0.15382317D-04  0.10346713D-13  0.97007013D-14
  0.69074772D-14 -0.55615986D-04 -0.52143522D-04 -0.37129294D-04 -0.40570976D-02
 -0.38037869D-02 -0.27085228D-02 -0.77595020D-14 -0.14150109D-04  0.48250429D-03
 -0.43836885D-14  0.79867266D-05  0.81947934D-04 -0.18475204D-15 -0.20834040D-06
  0.82239773D-06 -0.95536523D-03  0.40704677D-03  0.54831846D-03 -0.15160054D-14
  0.27416516D-14  0.83429425D-04  0.21549035D-03 -0.12677304D-03 -0.88717313D-04
  0.68247900D-15 -0.20016588D-13 -0.12323178D-04 -0.20410726D-07 -0.26938636D-05
  0.27142744D-05 -0.22411231D-15 -0.13856054D-14 -0.13284975D-05  0.67267992D-15
 -0.92343807D-05  0.56110317D-03  0.50092586D-14  0.94289118D-05 -0.33711560D-03
 -0.70272984D-14  0.18274230D-04 -0.13461939D-02 -0.97715917D-15  0.28247645D-15
 -0.94223979D-06 -0.88308841D-04  0.12582641D-14 -0.19407179D-05 -0.11580923D-04
 -0.21056934D-14  0.47674373D-05  0.27650745D-03 -0.31599413D-14 -0.97385628D-01
 -0.18152698D+00 -0.30772867D+00 -0.46594282D+00 -0.58253115D+00 -0.50108125D+00
 -0.19217544D+00 -0.11844824D-04 -0.15680329D-03 -0.56953807D-03 -0.16895240D-02
 -0.19468351D-02  0.23647212D-02 -0.85108770D-02  0.78785467D-03  0.31849637D-04
 -0.72326850D-13 -0.70734080D-13 -0.46736997D-13 -0.75135597D-02 -0.73480973D-02
 -0.48551985D-02 -0.61700127D-02 -0.60341377D-02 -0.39870099D-02 -0.14100072D-13
 -0.12960120D-02 -0.11915712D-02 -0.49927635D-14 -0.16250746D-03 -0.97531243D-04
 -0.23366557D-15 -0.32989133D-05 -0.18581505D-05  0.95154757D-04 -0.88710705D-04
 -0.64440515D-05 -0.14184499D-13  0.67685940D-14  0.63987939D-03  0.15514490D-03
 -0.65399664D-04 -0.89745238D-04  0.52590176D-15 -0.12519825D-14 -0.81028203D-03
  0.45080614D-04 -0.23226691D-04 -0.21853923D-04 -0.18440453D-14 -0.14383852D-14
 -0.13300390D-04  0.28403733D-14 -0.14552992D-04 -0.11913243D-04 -0.49437231D-14
  0.21554928D-03  0.85342081D-04 -0.35773967D-14 -0.17189030D-03 -0.49602353D-04
  0.11604771D-13  0.14236874D-14  0.64030947D-04  0.10104458D-03 -0.26403049D-14
  0.16650353D-03  0.21177244D-03 -0.16307572D-14 -0.35859637D-03 -0.51490620D-03
 -0.53512373D-14 -0.95163529D-01 -0.17738498D+00 -0.30070706D+00 -0.45531116D+00
 -0.56923923D+00 -0.48964782D+00 -0.18779048D+00 -0.11531108D-04 -0.15265027D-03
 -0.55445357D-03 -0.16447761D-02 -0.18952722D-02  0.23020904D-02 -0.83129956D-02
  0.77311388D-03  0.23921156D-04 -0.54803416D-13 -0.53596544D-13 -0.35413502D-13
  0.72891372D-02  0.71286169D-02  0.47101786D-02 -0.58658729D-02 -0.57366956D-02
 -0.37904773D-02 -0.11368196D-13  0.12558190D-02 -0.11181847D-02 -0.75464198D-14
  0.14232196D-03 -0.71862612D-04  0.11757197D-15  0.41572460D-05 -0.20509158D-05
  0.64630403D-04 -0.39381009D-04 -0.25249394D-04  0.84099515D-14  0.89546569D-14
 -0.68978475D-03  0.14526744D-03 -0.79955279D-04 -0.65312158D-04  0.10703874D-14
 -0.33612933D-14  0.75898980D-03  0.39207604D-04 -0.22030269D-04 -0.17177335D-04
  0.42348301D-14 -0.15006571D-14 -0.20572208D-05 -0.29123641D-14  0.21024237D-04
  0.55830403D-05  0.10519342D-13 -0.26100599D-03  0.11741073D-03 -0.17822498D-14
  0.19793328D-03 -0.13415985D-03 -0.38297026D-13  0.16135466D-14 -0.51303248D-04
  0.10209962D-03 -0.45873492D-14 -0.16298581D-03  0.19788328D-03 -0.25329068D-15
  0.31689555D-03 -0.50418214D-03  0.96730050D-14
MO    2     MO 0.0        OCC NO =    2.0000037  ORB. ENERGY =    0.000000
 -0.36839045D+00 -0.68661922D+00 -0.11642594D+01 -0.17619828D+01 -0.21979346D+01
 -0.18861549D+01 -0.72229712D+00 -0.43677273D-04 -0.46862847D-03 -0.17274528D-02
 -0.50509706D-02 -0.60866652D-02  0.73320333D-02 -0.33652683D-01  0.66776664D-03
  0.91638361D-04  0.11533527D-12  0.11183642D-12  0.75444188D-13  0.12976332D-03
  0.12582677D-03  0.84881996D-04  0.87220113D-02  0.84574171D-02  0.57053236D-02
  0.20439412D-13 -0.59530890D-05 -0.18395606D-02 -0.78837944D-14  0.37226845D-05
 -0.15537861D-03 -0.55904123D-15 -0.60246785D-06  0.17725548D-05  0.69235139D-03
  0.89316704D-04 -0.78166809D-03 -0.67825362D-14 -0.35184251D-13 -0.18271556D-04
 -0.33903955D-03 -0.35770083D-03  0.69674037D-03  0.98942898D-15  0.11510537D-13
  0.20505790D-04 -0.39153481D-04  0.13225376D-04  0.25928105D-04 -0.56624902D-15
  0.52849670D-14  0.74673097D-06 -0.48720987D-14 -0.74599855D-05  0.24822900D-03
 -0.15967367D-14 -0.58786856D-05 -0.22276137D-03  0.16213033D-13  0.28258642D-04
 -0.52192562D-03 -0.11635450D-13  0.20434092D-14  0.16936203D-05 -0.66624717D-04
  0.24809833D-14  0.23063461D-05  0.11086764D-03 -0.86112108D-14 -0.73872071D-05
  0.89006510D-04  0.21659057D-14 -0.16826900D+00 -0.31368731D+00 -0.53017430D+00
 -0.79695085D+00 -0.97891138D+00 -0.82616667D+00 -0.31066024D+00 -0.14534692D-04
 -0.10863782D-03 -0.40600434D-03 -0.11326889D-02 -0.15174908D-02  0.17918737D-02
 -0.14048225D-01  0.99637085D-04 -0.68117649D-05  0.33917788D-13  0.31800083D-13
  0.22643553D-13  0.47487239D-04  0.44522305D-04  0.31702534D-04  0.25229780D-02
  0.23654522D-02  0.16843429D-02  0.16997954D-13 -0.24683834D-04 -0.20187413D-02
  0.35281116D-14 -0.93313261D-05 -0.26361123D-04  0.12652098D-15  0.19149128D-06
 -0.84467613D-05  0.82591004D-03  0.15033599D-03 -0.97624603D-03  0.64142952D-15
  0.61908215D-14 -0.42503895D-04 -0.13261332D-03  0.36130285D-03 -0.22868953D-03
  0.23264540D-14  0.16134092D-13  0.99914137D-05 -0.33285573D-05 -0.14281335D-04
  0.17609892D-04  0.25626305D-15  0.81995535D-15  0.17530557D-05 -0.16811186D-14
  0.17107462D-05 -0.25404612D-03 -0.35979903D-14 -0.39942776D-06  0.52922165D-03
  0.86413461D-14 -0.47328107D-05  0.23291670D-03 -0.46309736D-15 -0.99686999D-16
  0.61653134D-06  0.34330140D-04 -0.12246371D-14  0.29302887D-05  0.73216519D-04
  0.15236981D-14 -0.47798827D-05 -0.17620694D-03 -0.14005210D-15  0.18624710D+00
  0.34716491D+00  0.58852187D+00  0.89110170D+00  0.11140734D+01  0.95830290D+00
  0.36752979D+00  0.19210336D-04  0.25430888D-03  0.92369612D-03  0.27401271D-02
  0.31574431D-02 -0.38351849D-02  0.16964434D-01 -0.87187782D-03 -0.37023319D-04
  0.22688289D-13  0.22188651D-13  0.14660980D-13  0.88825401D-02  0.86869302D-02
  0.57398221D-02  0.55064464D-02  0.53851843D-02  0.35582190D-02  0.41080378D-14
  0.80656769D-03  0.29276818D-03  0.50432462D-14  0.87456980D-04 -0.17438885D-04
  0.13183355D-15 -0.26057979D-05  0.21165038D-04 -0.43782429D-04  0.16425989D-03
 -0.12047746D-03  0.13944679D-14  0.39638777D-14 -0.31221692D-03  0.22758815D-05
 -0.51330979D-04  0.49055097D-04  0.23563966D-14  0.39488386D-14  0.65392547D-04
 -0.18267076D-04  0.17946378D-04  0.32069805D-06  0.27123070D-14  0.20888802D-14
  0.15577022D-05  0.62589416D-14  0.10415682D-03 -0.11052758D-03 -0.12066684D-13
  0.11177697D-03  0.58602148D-03 -0.67101405D-14 -0.42424743D-03 -0.25443875D-03
 -0.19488161D-13 -0.10286373D-14 -0.55352652D-04 -0.93893173D-05  0.22377578D-14
 -0.14030851D-03 -0.29419728D-03  0.84815423D-15  0.30636647D-03  0.32236523D-03
  0.79672314D-14  0.18516069D+00  0.34513984D+00  0.58508892D+00  0.88590375D+00
  0.11075748D+01  0.95271295D+00  0.36538592D+00  0.19034987D-04  0.25198759D-03
  0.91526478D-03  0.27151157D-02  0.31286225D-02 -0.38001780D-02  0.16856921D-01
 -0.83496248D-03 -0.21226024D-04  0.26461581D-13  0.25878848D-13  0.17099249D-13
 -0.86536561D-02 -0.84630866D-02 -0.55919191D-02  0.51688995D-02  0.50550708D-02
  0.33400990D-02  0.51400180D-14 -0.78467108D-03  0.25245738D-03  0.28599723D-14
 -0.76105915D-04 -0.23585983D-04 -0.25369612D-15  0.70206849D-06  0.21135449D-04
 -0.20049348D-04  0.14879678D-03 -0.12874743D-03 -0.14125517D-13 -0.79312291D-14
  0.36024797D-03  0.58520455D-05 -0.55533595D-04  0.49681550D-04  0.59773116D-15
  0.21729482D-14 -0.45335558D-04 -0.15346427D-04  0.14107469D-04  0.12389573D-05
 -0.17829854D-14  0.51551361D-15  0.63370031D-05 -0.60595777D-15 -0.10900107D-03
 -0.12560450D-03 -0.22253482D-14 -0.79466124D-04  0.56648188D-03  0.40432215D-14
  0.40646934D-03 -0.18966839D-03 -0.32795505D-14 -0.90730641D-15  0.54883591D-04
 -0.46022548D-05  0.22820737D-14  0.13268706D-03 -0.28873845D-03  0.43984555D-15
 -0.29733784D-03  0.30254521D-03 -0.42380690D-14
MO    3     MO 0.0        OCC NO =    2.0000022  ORB. ENERGY =    0.000000
  0.34092793D-02  0.63543361D-02  0.10774670D-01  0.16306317D-01  0.20340845D-01
  0.17455471D-01  0.66845182D-02  0.46700394D-06  0.50106458D-05  0.18470184D-04
  0.54005735D-04  0.65079536D-04 -0.78395198D-04  0.31412703D-03 -0.21416428D-04
 -0.92927399D-05 -0.36457276D-14 -0.35351294D-14 -0.23847774D-14  0.86139563D-03
  0.83526400D-03  0.56346416D-03 -0.39088267D-04 -0.37902470D-04 -0.25568783D-04
  0.72175626D-14  0.11339220D-03  0.45311094D-04  0.15209111D-13 -0.90192735D-04
  0.37739225D-05  0.63796375D-15 -0.14465897D-04  0.91961475D-06  0.22540661D-05
 -0.12162900D-05 -0.10377761D-05  0.42236031D-15  0.33030824D-13 -0.18018944D-03
  0.33902132D-05  0.97835557D-05 -0.13173769D-04 -0.60026991D-15 -0.22452735D-13
  0.61681355D-04 -0.29137480D-06  0.95373423D-06 -0.66235943D-06 -0.34437230D-15
 -0.63819168D-14  0.25170055D-04  0.29253257D-15  0.11231990D-04 -0.80583705D-05
  0.13409629D-14 -0.16322475D-03  0.17880363D-04 -0.22185606D-14  0.12952878D-03
  0.62947488D-05 -0.84003559D-14 -0.28133770D-14 -0.33219583D-05  0.27062122D-05
 -0.17343003D-14  0.67771205D-04 -0.24847031D-05  0.10174431D-13 -0.57805330D-04
 -0.56339334D-05  0.12557686D-14  0.35593772D-02  0.66353961D-02  0.11214723D-01
  0.16857821D-01  0.20706814D-01  0.17475820D-01  0.65713648D-02  0.40928952D-06
  0.30591856D-05  0.11432875D-04  0.31895941D-04  0.42731767D-04 -0.50458249D-04
  0.29004617D-03 -0.12944147D-04  0.12038163D-05  0.10479323D-13  0.98250314D-14
  0.69960076D-14  0.59871636D-04  0.56133464D-04  0.39970370D-04 -0.53200781D-04
 -0.49879113D-04 -0.35516900D-04 -0.23150906D-13  0.38774797D-03  0.54110598D-04
 -0.54817959D-14 -0.56039132D-04  0.12671350D-04 -0.16721320D-16  0.63362003D-05
 -0.62418363D-07 -0.98142811D-05 -0.10626254D-04  0.20440535D-04 -0.12697740D-14
 -0.67086390D-14 -0.60689642D-03  0.38639139D-05 -0.42443456D-05  0.38043163D-06
 -0.40869472D-14 -0.11452127D-13 -0.38021087D-03  0.18129730D-06 -0.68443098D-06
  0.50313368D-06 -0.12088627D-15 -0.93303350D-15  0.28230133D-04  0.44725172D-14
  0.24421170D-04  0.14286937D-04 -0.16239193D-15 -0.51568570D-03 -0.48665965D-05
 -0.13255160D-13  0.44242219D-03 -0.37994215D-04  0.27977364D-14  0.85914502D-15
 -0.44035128D-04  0.18848825D-05  0.55531356D-15 -0.30416188D-04 -0.26832926D-05
 -0.31327486D-14  0.16252157D-03 -0.29713549D-05  0.17459780D-14 -0.41081192D+00
 -0.76575413D+00 -0.12981239D+01 -0.19655351D+01 -0.24573518D+01 -0.21137632D+01
 -0.81067367D+00 -0.37695371D-04 -0.49901613D-03 -0.18125174D-02 -0.53767987D-02
 -0.61956745D-02  0.75255695D-02 -0.38083364D-01  0.19211454D-03 -0.76413222D-04
 -0.42015526D-14 -0.41090266D-14 -0.27150076D-14 -0.96295267D-02 -0.94174668D-02
 -0.62225185D-02 -0.74844922D-02 -0.73196699D-02 -0.48364154D-02 -0.32239898D-14
  0.18110506D-03 -0.17047876D-03 -0.56926245D-15 -0.21663417D-03 -0.39083089D-03
 -0.11397618D-15 -0.20572555D-04 -0.32068523D-05  0.15751750D-03 -0.17616015D-03
  0.18642646D-04 -0.91061195D-14  0.18909419D-13 -0.27280633D-03 -0.15310610D-03
  0.24611057D-03 -0.93004468D-04  0.24317178D-14 -0.29376715D-14  0.50465553D-03
  0.56899994D-04 -0.11788643D-04 -0.45111352D-04  0.98182289D-16 -0.41355193D-15
 -0.12834988D-03  0.49183308D-14  0.27512867D-03 -0.14985524D-04 -0.13577195D-13
 -0.87621858D-03 -0.17023915D-03 -0.11777977D-14  0.50832577D-04  0.21519572D-03
  0.24048986D-13 -0.13103168D-14 -0.49933959D-04 -0.17163329D-04  0.43709292D-14
  0.20742153D-03  0.28881472D-04 -0.43997881D-15 -0.57619657D-04  0.22608516D-04
  0.21778297D-15  0.43372538D+00  0.80846486D+00  0.13705280D+01  0.20751648D+01
  0.25944131D+01  0.22316605D+01  0.85588983D+00  0.39745826D-04  0.52616031D-03
  0.19111100D-02  0.56692717D-02  0.65326906D-02 -0.79349258D-02  0.40185529D-01
 -0.14543744D-03  0.89497825D-04 -0.61615659D-13 -0.60258769D-13 -0.39815516D-13
 -0.98882859D-02 -0.96705277D-02 -0.63897265D-02  0.74196815D-02  0.72562865D-02
  0.47945353D-02 -0.16199707D-13  0.18651185D-03  0.13622182D-03  0.27918970D-14
 -0.25334649D-03  0.39974943D-03  0.53589850D-16 -0.21717688D-04  0.50425481D-05
 -0.13781992D-03  0.15144277D-03 -0.13622845D-04  0.32917412D-13 -0.13176576D-13
 -0.22834071D-03  0.15757622D-03 -0.24667187D-03  0.89095648D-04 -0.47708467D-14
  0.65780235D-15  0.53025898D-03 -0.60256756D-04  0.15887992D-04  0.44368765D-04
 -0.28607590D-14  0.15982566D-14 -0.13519979D-03  0.60420650D-14  0.27158016D-03
  0.80259356D-05 -0.18466874D-13 -0.89235472D-03  0.19993997D-03  0.34067936D-15
  0.77614248D-04 -0.22401778D-03  0.22111256D-14 -0.21070342D-14 -0.52760633D-04
  0.20985913D-04  0.69371335D-14  0.20960248D-03 -0.33328285D-04 -0.61603072D-15
 -0.51320577D-04 -0.29629455D-04 -0.77518806D-14
MO    4     MO 0.0        OCC NO =    2.0000016  ORB. ENERGY =    0.000000
  0.10174388D+00  0.18963387D+00  0.32155088D+00  0.48663306D+00  0.60703638D+00
  0.52092753D+00  0.19948757D+00  0.13139010D-04  0.14097295D-03  0.51965284D-03
  0.15194344D-02  0.18309924D-02 -0.22056243D-02  0.93890742D-02 -0.42106432D-03
 -0.17736919D-03  0.38612452D-13  0.37441090D-13  0.25257538D-13 -0.57319337D-04
 -0.55580476D-04 -0.37494261D-04  0.53461304D-03  0.51839481D-03  0.34970608D-03
  0.20258797D-13  0.24517774D-04  0.15673407D-02  0.13521649D-13  0.98765627D-05
  0.12170775D-03  0.12228388D-14  0.44992901D-06  0.19283469D-04  0.15178087D-03
 -0.89996608D-05 -0.14278121D-03  0.60068076D-14  0.89242170D-14 -0.28256639D-06
  0.62678214D-04  0.28759239D-03 -0.35027061D-03 -0.63719449D-15 -0.18143801D-13
 -0.33396156D-04 -0.11760515D-04  0.21689505D-04 -0.99289896D-05  0.56075727D-15
 -0.52060576D-14 -0.19900147D-05 -0.19896252D-14 -0.15129573D-05 -0.31146650D-03
 -0.60350251D-14  0.16606731D-05  0.61465888D-03  0.12003901D-13  0.28781987D-05
  0.31974062D-03  0.92672835D-14 -0.10216386D-14 -0.23770713D-05  0.77826734D-04
 -0.20077275D-14 -0.11655750D-05 -0.15446501D-04  0.50726433D-14  0.82967888D-05
 -0.21803370D-03 -0.26033539D-14  0.14754699D+00  0.27505732D+00  0.46488434D+00
  0.69880788D+00  0.85836031D+00  0.72442582D+00  0.27240303D+00  0.11521669D-04
  0.86117337D-04  0.32184015D-03  0.89788391D-03  0.12029169D-02 -0.14204206D-02
  0.11817406D-01  0.21579878D-04  0.24360414D-04  0.37826380D-13  0.35464635D-13
  0.25252933D-13 -0.49301779D-04 -0.46223552D-04 -0.32913923D-04 -0.23510543D-02
 -0.22042628D-02 -0.15695664D-02  0.72990923D-14 -0.51932984D-04  0.63014049D-03
 -0.23755149D-14 -0.54249944D-05  0.20515133D-03 -0.23501325D-15 -0.12769663D-06
 -0.12658736D-05 -0.10780826D-02  0.33990881D-03  0.73817381D-03  0.18205883D-14
 -0.79707735D-15  0.14231499D-03 -0.31505484D-04 -0.98168822D-04  0.12967431D-03
 -0.11886131D-14 -0.18303242D-13  0.23483737D-04  0.38556647D-05 -0.12768551D-04
  0.89128859D-05 -0.56202651D-16 -0.14146351D-14 -0.51708595D-06 -0.80116279D-15
  0.15189932D-05  0.48340654D-03  0.90428269D-14  0.28505929D-04  0.19751464D-03
 -0.66393385D-14 -0.33062908D-04 -0.16477343D-02  0.15125081D-14  0.80459341D-16
  0.15007361D-05  0.42294315D-04  0.18706181D-14  0.23149061D-05 -0.24628163D-04
 -0.21119961D-14 -0.68171144D-05 -0.10225478D-03 -0.10640597D-14  0.37943493D+00
  0.70726735D+00  0.11989757D+01  0.18154114D+01  0.22696641D+01  0.19523181D+01
  0.74875602D+00  0.32626769D-04  0.43191733D-03  0.15688023D-02  0.46538226D-02
  0.53625905D-02 -0.65136650D-02  0.35517402D-01  0.24232140D-03  0.75966991D-04
  0.10795279D-12  0.10557547D-12  0.69758177D-13  0.65501039D-02  0.64058585D-02
  0.42326216D-02  0.42416988D-02  0.41482888D-02  0.27409498D-02  0.27246798D-13
 -0.57743717D-03 -0.66290961D-03 -0.24344482D-14  0.29984445D-03  0.16587423D-03
 -0.18512936D-15  0.45879935D-05  0.13065035D-04 -0.24776509D-03  0.18685611D-03
  0.60908978D-04  0.81765581D-14  0.64599701D-14  0.82119776D-03  0.26457315D-03
 -0.18879570D-03 -0.75777455D-04  0.24941607D-14 -0.32410542D-14 -0.10403938D-02
 -0.44125567D-04  0.32697484D-04  0.11428084D-04 -0.34673977D-14 -0.22603548D-14
  0.61313857D-04 -0.51238925D-14  0.20182783D-04 -0.80982815D-04  0.82032110D-14
  0.27589563D-03  0.45818479D-03  0.71684663D-14 -0.33644398D-03 -0.21523634D-03
  0.37192248D-13  0.17434700D-14  0.34918749D-04  0.10305487D-03 -0.31059911D-14
  0.11120457D-03  0.48051696D-04 -0.21244190D-14 -0.21596082D-03 -0.35721630D-03
 -0.13562817D-13  0.35422736D+00  0.66028040D+00  0.11193224D+01  0.16948055D+01
  0.21188801D+01  0.18226169D+01  0.69901279D+00  0.30420589D-04  0.40271164D-03
  0.14627219D-02  0.43391371D-02  0.49999791D-02 -0.60732193D-02  0.33137948D-01
  0.28262880D-03  0.85458383D-04  0.22042293D-12  0.21556881D-12  0.14243543D-12
 -0.59299830D-02 -0.57993938D-02 -0.38319047D-02  0.36119142D-02  0.35323732D-02
  0.23339883D-02  0.52369306D-13  0.51922134D-03 -0.62155151D-03  0.19891403D-14
 -0.31084210D-03  0.15485121D-03 -0.83798565D-16 -0.51912329D-05  0.13676191D-04
 -0.22088529D-03  0.16341366D-03  0.57471631D-04 -0.18907413D-13  0.25149559D-14
 -0.74818665D-03  0.23798894D-03 -0.17173695D-03 -0.66251995D-04 -0.47302437D-14
 -0.26611090D-14  0.94357677D-03 -0.43908770D-04  0.36792091D-04  0.71166788D-05
  0.28359265D-14 -0.13764061D-14 -0.62211187D-04 -0.54749326D-14 -0.21418103D-04
 -0.70059712D-04  0.12572284D-13 -0.26659527D-03  0.45786975D-03  0.38525142D-14
  0.33084958D-03 -0.24769061D-03 -0.40845007D-13  0.11412638D-14 -0.30917832D-04
  0.98017631D-04 -0.34464288D-14 -0.10731728D-03  0.40366899D-04  0.22637572D-16
  0.20007078D-03 -0.33441979D-03  0.98895924D-14
MO    5     MO 0.0        OCC NO =    1.9861808  ORB. ENERGY =    0.000000
 -0.98895417D-02 -0.18432480D-01 -0.31254860D-01 -0.47300907D-01 -0.59004152D-01
 -0.50634341D-01 -0.19390263D-01 -0.16042995D-03 -0.17213080D-02 -0.63450656D-02
 -0.18552600D-01 -0.22356785D-01  0.26931116D-01  0.14115096D-01 -0.50204263D-04
 -0.19198991D-02  0.13289750D-12  0.12886587D-12  0.86932155D-13 -0.47516160D-02
 -0.46074692D-02 -0.31081715D-02 -0.69448497D-01 -0.67341681D-01 -0.45428300D-01
  0.32658907D-13 -0.98228612D-03 -0.12957957D-01  0.10842484D-13 -0.18652230D-04
  0.20029683D-02  0.68068594D-15  0.14989501D-04  0.22934943D-03 -0.39938919D-02
 -0.42333082D-02  0.82272001D-02 -0.38176792D-14 -0.67478567D-14  0.55365214D-03
 -0.44981769D-03  0.62218670D-03 -0.17236901D-03 -0.43338930D-15 -0.10404188D-13
  0.52335760D-05  0.11042973D-03  0.51774878D-03 -0.62817852D-03  0.10713354D-15
 -0.33145159D-14 -0.25195135D-04  0.16002271D-15  0.71464394D-04 -0.16055875D-02
 -0.25113858D-15  0.65053398D-04  0.34713643D-02 -0.22892956D-15 -0.27944658D-03
  0.13453981D-02  0.25371363D-14 -0.92291508D-15 -0.56597386D-05  0.50938878D-03
 -0.13975319D-14  0.64144907D-05 -0.22282219D-03  0.41662771D-14  0.10564725D-04
 -0.13053441D-02 -0.59641699D-15 -0.17202430D-01 -0.32068794D-01 -0.54200631D-01
 -0.81473658D-01 -0.10007580D+00 -0.84460442D-01 -0.31759332D-01 -0.31557570D-03
 -0.23587328D-02 -0.88151231D-02 -0.24592821D-01 -0.32947600D-01  0.38904972D-01
  0.15583402D-01  0.22600896D-02  0.22583735D-03  0.49771423D-13  0.46663873D-13
  0.33227457D-13 -0.59225537D-02 -0.55527705D-02 -0.39539034D-02 -0.34607239D-01
 -0.32446487D-01 -0.23103831D-01  0.52615523D-14 -0.79761811D-03 -0.49639501D-02
 -0.85175136D-15  0.11888945D-03  0.15103213D-02 -0.49479698D-16 -0.39675835D-05
 -0.32361159D-05 -0.19241423D-01  0.93119938D-02  0.99294290D-02 -0.14273483D-14
  0.45359993D-14  0.29030338D-02 -0.26092557D-02  0.11418698D-02  0.14673858D-02
 -0.39868867D-14 -0.53197852D-14  0.27867054D-03  0.83550472D-04 -0.91702055D-04
  0.81515830D-05 -0.29227123D-15 -0.85485932D-15 -0.46966278D-04  0.16025800D-15
  0.80097691D-05  0.34338671D-02  0.10098666D-14  0.24713153D-03  0.34508445D-02
 -0.14906406D-14 -0.27116084D-03 -0.13752446D-01  0.29894600D-14  0.68393785D-16
  0.36312425D-04  0.26720331D-03  0.47893143D-15  0.13450057D-04  0.31689400D-03
 -0.68411279D-15 -0.12238733D-03 -0.11185039D-02  0.13355001D-14 -0.94273875D-01
 -0.17572667D+00 -0.29789585D+00 -0.45105460D+00 -0.56391760D+00 -0.48507026D+00
 -0.18603488D+00 -0.13727753D-02 -0.18172975D-01 -0.66007552D-01 -0.19581016D+00
 -0.22563166D+00  0.27406326D+00  0.15762521D+00  0.71516888D-01  0.19179098D-02
  0.11007693D-12  0.10765284D-12  0.71130780D-13 -0.49504234D-01 -0.48414059D-01
 -0.31989216D-01 -0.13623313D+00 -0.13323303D+00 -0.88032696D-01  0.27824251D-13
 -0.59005739D-02 -0.28094407D-01  0.84002033D-17 -0.37917956D-02 -0.63964674D-02
 -0.41719318D-15 -0.38665995D-04 -0.47663548D-04 -0.62745135D-02  0.75134280D-02
 -0.12389145D-02  0.65155386D-14  0.18188173D-13  0.14806096D-01 -0.32180633D-02
  0.42800386D-02 -0.10619753D-02  0.24529773D-14 -0.18517233D-15  0.82562669D-02
  0.22464704D-03 -0.25313606D-03  0.28489020D-04 -0.15529331D-14 -0.81204320D-15
 -0.90056201D-03 -0.23033363D-14  0.16317246D-02 -0.22584235D-02  0.65051498D-15
 -0.66960616D-02 -0.26836232D-02  0.62594939D-14  0.18008878D-02  0.94588938D-02
  0.16375161D-13  0.19669681D-15  0.28277226D-03 -0.24018779D-03  0.10200729D-15
 -0.96556320D-03 -0.11056945D-02 -0.69209771D-15  0.11724643D-03  0.18262579D-02