 f2co-wavefunction
GAUSSIAN            184 MOL ORBITALS    288 PRIMITIVES        4 NUCLEI
  O    1    (CENTRE  1)   0.01889726  0.00000000  1.28487582  CHARGE =  8.0
  C    2    (CENTRE  2)   0.00000000  0.00000000 -0.93015344  CHARGE =  6.0
  F    3    (CENTRE  3)   0.00000000 -2.00098943 -2.38919020  CHARGE =  9.0
  F    4    (CENTRE  4)   0.00000000  2.00098943 -2.38919020  CHARGE =  9.0
CENTRE ASSIGNMENTS    1  1  1  1  1  1  1  1  1  1  1  1  1  1  1  1  1  1  1  1
CENTRE ASSIGNMENTS    1  1  1  1  1  1  1  1  1  1  1  1  1  1  1  1  1  1  1  1
CENTRE ASSIGNMENTS    1  1  1  1  1  1  1  1  1  1  1  1  1  1  1  1  1  1  1  1
CENTRE ASSIGNMENTS    1  1  1  1  1  1  1  1  1  1  1  1  2  2  2  2  2  2  2  2
CENTRE ASSIGNMENTS    2  2  2  2  2  2  2  2  2  2  2  2  2  2  2  2  2  2  2  2
CENTRE ASSIGNMENTS    2  2  2  2  2  2  2  2  2  2  2  2  2  2  2  2  2  2  2  2
CENTRE ASSIGNMENTS    2  2  2  2  2  2  2  2  2  2  2  2  2  2  2  2  2  2  2  2
CENTRE ASSIGNMENTS    2  2  2  2  3  3  3  3  3  3  3  3  3  3  3  3  3  3  3  3
CENTRE ASSIGNMENTS    3  3  3  3  3  3  3  3  3  3  3  3  3  3  3  3  3  3  3  3
CENTRE ASSIGNMENTS    3  3  3  3  3  3  3  3  3  3  3  3  3  3  3  3  3  3  3  3
CENTRE ASSIGNMENTS    3  3  3  3  3  3  3  3  3  3  3  3  3  3  3  3  4  4  4  4
CENTRE ASSIGNMENTS    4  4  4  4  4  4  4  4  4  4  4  4  4  4  4  4  4  4  4  4
CENTRE ASSIGNMENTS    4  4  4  4  4  4  4  4  4  4  4  4  4  4  4  4  4  4  4  4
CENTRE ASSIGNMENTS    4  4  4  4  4  4  4  4  4  4  4  4  4  4  4  4  4  4  4  4
CENTRE ASSIGNMENTS    4  4  4  4  4  4  4  4
TYPE ASSIGNMENTS      1  1  1  1  1  1  1  1  1  1  1  1  1  1  1  1  2  2  2  3
TYPE ASSIGNMENTS      3  3  4  4  4  2  3  4  2  3  4  2  3  4  5  6  7  8  9 10
TYPE ASSIGNMENTS      5  6  7  8  9 10  5  6  7  8  9 10 11 12 13 17 14 15 18 19
TYPE ASSIGNMENTS     16 20 11 12 13 17 14 15 18 19 16 20  1  1  1  1  1  1  1  1
TYPE ASSIGNMENTS      1  1  1  1  1  1  1  1  2  2  2  3  3  3  4  4  4  2  3  4
TYPE ASSIGNMENTS      2  3  4  2  3  4  5  6  7  8  9 10  5  6  7  8  9 10  5  6
TYPE ASSIGNMENTS      7  8  9 10 11 12 13 17 14 15 18 19 16 20 11 12 13 17 14 15
TYPE ASSIGNMENTS     18 19 16 20  1  1  1  1  1  1  1  1  1  1  1  1  1  1  1  1
TYPE ASSIGNMENTS      2  2  2  3  3  3  4  4  4  2  3  4  2  3  4  2  3  4  5  6
TYPE ASSIGNMENTS      7  8  9 10  5  6  7  8  9 10  5  6  7  8  9 10 11 12 13 17
TYPE ASSIGNMENTS     14 15 18 19 16 20 11 12 13 17 14 15 18 19 16 20  1  1  1  1
TYPE ASSIGNMENTS      1  1  1  1  1  1  1  1  1  1  1  1  2  2  2  3  3  3  4  4
TYPE ASSIGNMENTS      4  2  3  4  2  3  4  2  3  4  5  6  7  8  9 10  5  6  7  8
TYPE ASSIGNMENTS      9 10  5  6  7  8  9 10 11 12 13 17 14 15 18 19 16 20 11 12
TYPE ASSIGNMENTS     13 17 14 15 18 19 16 20
EXPONENTS  0.1533000D+05 0.2299000D+04 0.5224000D+03 0.1473000D+03 0.4755000D+02
EXPONENTS  0.1676000D+02 0.6207000D+01 0.5224000D+03 0.1473000D+03 0.4755000D+02
EXPONENTS  0.1676000D+02 0.6207000D+01 0.6882000D+00 0.1752000D+01 0.2384000D+00
EXPONENTS  0.7376000D-01 0.3446000D+02 0.7749000D+01 0.2280000D+01 0.3446000D+02
EXPONENTS  0.7749000D+01 0.2280000D+01 0.3446000D+02 0.7749000D+01 0.2280000D+01
EXPONENTS  0.7156000D+00 0.7156000D+00 0.7156000D+00 0.2140000D+00 0.2140000D+00
EXPONENTS  0.2140000D+00 0.5974000D-01 0.5974000D-01 0.5974000D-01 0.2314000D+01
EXPONENTS  0.2314000D+01 0.2314000D+01 0.2314000D+01 0.2314000D+01 0.2314000D+01
EXPONENTS  0.6450000D+00 0.6450000D+00 0.6450000D+00 0.6450000D+00 0.6450000D+00
EXPONENTS  0.6450000D+00 0.2140000D+00 0.2140000D+00 0.2140000D+00 0.2140000D+00
EXPONENTS  0.2140000D+00 0.2140000D+00 0.1428000D+01 0.1428000D+01 0.1428000D+01
EXPONENTS  0.1428000D+01 0.1428000D+01 0.1428000D+01 0.1428000D+01 0.1428000D+01
EXPONENTS  0.1428000D+01 0.1428000D+01 0.5000000D+00 0.5000000D+00 0.5000000D+00
EXPONENTS  0.5000000D+00 0.5000000D+00 0.5000000D+00 0.5000000D+00 0.5000000D+00
EXPONENTS  0.5000000D+00 0.5000000D+00 0.8236000D+04 0.1235000D+04 0.2808000D+03
EXPONENTS  0.7927000D+02 0.2559000D+02 0.8997000D+01 0.3319000D+01 0.2808000D+03
EXPONENTS  0.7927000D+02 0.2559000D+02 0.8997000D+01 0.3319000D+01 0.3643000D+00
EXPONENTS  0.9059000D+00 0.1285000D+00 0.4402000D-01 0.1871000D+02 0.4133000D+01
EXPONENTS  0.1200000D+01 0.1871000D+02 0.4133000D+01 0.1200000D+01 0.1871000D+02
EXPONENTS  0.4133000D+01 0.1200000D+01 0.3827000D+00 0.3827000D+00 0.3827000D+00
EXPONENTS  0.1209000D+00 0.1209000D+00 0.1209000D+00 0.3569000D-01 0.3569000D-01
EXPONENTS  0.3569000D-01 0.1097000D+01 0.1097000D+01 0.1097000D+01 0.1097000D+01
EXPONENTS  0.1097000D+01 0.1097000D+01 0.3180000D+00 0.3180000D+00 0.3180000D+00
EXPONENTS  0.3180000D+00 0.3180000D+00 0.3180000D+00 0.1000000D+00 0.1000000D+00
EXPONENTS  0.1000000D+00 0.1000000D+00 0.1000000D+00 0.1000000D+00 0.7610000D+00
EXPONENTS  0.7610000D+00 0.7610000D+00 0.7610000D+00 0.7610000D+00 0.7610000D+00
EXPONENTS  0.7610000D+00 0.7610000D+00 0.7610000D+00 0.7610000D+00 0.2680000D+00
EXPONENTS  0.2680000D+00 0.2680000D+00 0.2680000D+00 0.2680000D+00 0.2680000D+00
EXPONENTS  0.2680000D+00 0.2680000D+00 0.2680000D+00 0.2680000D+00 0.1950000D+05
EXPONENTS  0.2923000D+04 0.6645000D+03 0.1875000D+03 0.6062000D+02 0.2142000D+02
EXPONENTS  0.7950000D+01 0.6645000D+03 0.1875000D+03 0.6062000D+02 0.2142000D+02
EXPONENTS  0.7950000D+01 0.8815000D+00 0.2257000D+01 0.3041000D+00 0.9158000D-01
EXPONENTS  0.4388000D+02 0.9926000D+01 0.2930000D+01 0.4388000D+02 0.9926000D+01
EXPONENTS  0.2930000D+01 0.4388000D+02 0.9926000D+01 0.2930000D+01 0.9132000D+00
EXPONENTS  0.9132000D+00 0.9132000D+00 0.2672000D+00 0.2672000D+00 0.2672000D+00
EXPONENTS  0.7361000D-01 0.7361000D-01 0.7361000D-01 0.3107000D+01 0.3107000D+01
EXPONENTS  0.3107000D+01 0.3107000D+01 0.3107000D+01 0.3107000D+01 0.8550000D+00
EXPONENTS  0.8550000D+00 0.8550000D+00 0.8550000D+00 0.8550000D+00 0.8550000D+00
EXPONENTS  0.2920000D+00 0.2920000D+00 0.2920000D+00 0.2920000D+00 0.2920000D+00
EXPONENTS  0.2920000D+00 0.1917000D+01 0.1917000D+01 0.1917000D+01 0.1917000D+01
EXPONENTS  0.1917000D+01 0.1917000D+01 0.1917000D+01 0.1917000D+01 0.1917000D+01
EXPONENTS  0.1917000D+01 0.7240000D+00 0.7240000D+00 0.7240000D+00 0.7240000D+00
EXPONENTS  0.7240000D+00 0.7240000D+00 0.7240000D+00 0.7240000D+00 0.7240000D+00
EXPONENTS  0.7240000D+00 0.1950000D+05 0.2923000D+04 0.6645000D+03 0.1875000D+03
EXPONENTS  0.6062000D+02 0.2142000D+02 0.7950000D+01 0.6645000D+03 0.1875000D+03
EXPONENTS  0.6062000D+02 0.2142000D+02 0.7950000D+01 0.8815000D+00 0.2257000D+01
EXPONENTS  0.3041000D+00 0.9158000D-01 0.4388000D+02 0.9926000D+01 0.2930000D+01
EXPONENTS  0.4388000D+02 0.9926000D+01 0.2930000D+01 0.4388000D+02 0.9926000D+01
EXPONENTS  0.2930000D+01 0.9132000D+00 0.9132000D+00 0.9132000D+00 0.2672000D+00
EXPONENTS  0.2672000D+00 0.2672000D+00 0.7361000D-01 0.7361000D-01 0.7361000D-01
EXPONENTS  0.3107000D+01 0.3107000D+01 0.3107000D+01 0.3107000D+01 0.3107000D+01
EXPONENTS  0.3107000D+01 0.8550000D+00 0.8550000D+00 0.8550000D+00 0.8550000D+00
EXPONENTS  0.8550000D+00 0.8550000D+00 0.2920000D+00 0.2920000D+00 0.2920000D+00
EXPONENTS  0.2920000D+00 0.2920000D+00 0.2920000D+00 0.1917000D+01 0.1917000D+01
EXPONENTS  0.1917000D+01 0.1917000D+01 0.1917000D+01 0.1917000D+01 0.1917000D+01
EXPONENTS  0.1917000D+01 0.1917000D+01 0.1917000D+01 0.7240000D+00 0.7240000D+00
EXPONENTS  0.7240000D+00 0.7240000D+00 0.7240000D+00 0.7240000D+00 0.7240000D+00
EXPONENTS  0.7240000D+00 0.7240000D+00 0.7240000D+00
MO    1     MO 0.0        OCC NO =    2.0000067  ORB. ENERGY =    0.000000
 -0.32220501D+00 -0.60053715D+00 -0.10182951D+01 -0.15410814D+01 -0.19223776D+01
 -0.16496860D+01 -0.63174209D+00 -0.40144180D-04 -0.43072071D-03 -0.15877176D-02
 -0.46423932D-02 -0.55943096D-02  0.67389387D-02 -0.29032774D-01  0.49048144D-03
 -0.49960112D-04  0.18779936D-03  0.18210221D-03  0.12284507D-03  0.23912213D-12
  0.23186803D-12  0.15641680D-12  0.19770535D-01  0.19170768D-01  0.12932487D-01
  0.20849802D-04  0.34308631D-13  0.25046152D-02  0.35078759D-05 -0.25813129D-13
  0.66405123D-03  0.11478892D-06 -0.34648923D-14  0.14584138D-04  0.12276013D-02
  0.65203095D-03 -0.18796322D-02 -0.25042377D-14 -0.55601115D-04 -0.27992094D-13
  0.50350671D-04 -0.25092177D-04 -0.25258495D-04 -0.20764138D-14  0.17517007D-05
  0.43794757D-14  0.50127550D-04 -0.18428953D-05 -0.48284655D-04 -0.69628658D-15
 -0.72145452D-06  0.75489496D-14  0.86715887D-05  0.11378304D-14 -0.54823870D-03
  0.13579338D-05 -0.44498900D-13  0.10326066D-02 -0.27372700D-04  0.41085409D-13
  0.61210950D-03 -0.43408995D-14 -0.24125405D-06 -0.18147925D-14  0.13147152D-04
  0.92523366D-06  0.15480664D-13 -0.22393675D-04 -0.20147150D-06 -0.10036287D-13
 -0.17047781D-04  0.16986033D-14  0.23919849D+00  0.44591416D+00  0.75365569D+00
  0.11328851D+01  0.13915464D+01  0.11744161D+01  0.44161111D+00  0.26516145D-04
  0.19819176D-03  0.74068785D-03  0.20664038D-02  0.27684113D-02 -0.32689776D-02
  0.19352248D-01 -0.41690040D-04  0.15421101D-04 -0.29883509D-04 -0.28017690D-04
 -0.19950264D-04  0.31696589D-13  0.29717567D-13  0.21160678D-13 -0.40563724D-02
 -0.38031070D-02 -0.27080387D-02  0.89622947D-05  0.74971040D-13  0.48161264D-03
  0.11267147D-05 -0.21448665D-13  0.81617967D-04 -0.22990760D-07  0.13179216D-14
  0.82293225D-06 -0.95489352D-03  0.40705087D-03  0.54784265D-03 -0.46867424D-15
  0.15833913D-04 -0.15677226D-12  0.21530580D-03 -0.12680261D-03 -0.88503191D-04
 -0.59263049D-14 -0.97737965D-06 -0.93008716D-13 -0.29526426D-07 -0.26928833D-05
  0.27224097D-05 -0.21620092D-15  0.16596508D-06  0.75508273D-14 -0.48256593D-05
  0.88664725D-14  0.56086394D-03 -0.60545568D-05 -0.12307690D-12 -0.33649843D-03
  0.20531535D-04  0.96477484D-13 -0.13460934D-02  0.38728191D-14  0.15324728D-07
 -0.13683959D-13 -0.88314874D-04  0.11536205D-05 -0.70098756D-14 -0.11535929D-04
 -0.11995947D-05  0.48061754D-13  0.27648055D-03  0.42934966D-14 -0.96285949D-01
 -0.17947717D+00 -0.30425380D+00 -0.46068139D+00 -0.57595321D+00 -0.49542304D+00
 -0.19000540D+00 -0.11689027D-04 -0.15474083D-03 -0.56204684D-03 -0.16673014D-02
 -0.19212281D-02  0.23336176D-02 -0.84127915D-02  0.78002619D-03  0.27645035D-04
 -0.26058434D-05 -0.25484579D-05 -0.16838739D-05 -0.74006310D-02 -0.72376555D-02
 -0.47822250D-02 -0.60163574D-02 -0.58838661D-02 -0.38877191D-02 -0.18112897D-05
 -0.12761375D-02 -0.11544947D-02 -0.16234964D-05 -0.15255825D-03 -0.84508417D-04
  0.57932235D-07 -0.37426822D-05 -0.19637023D-05  0.79827683D-04 -0.63936197D-04
 -0.15891487D-04  0.53657632D-05 -0.37895673D-05  0.66512662D-03  0.15030984D-03
 -0.73148706D-04 -0.77161131D-04 -0.33534495D-05  0.34852518D-06 -0.78482130D-03
  0.42125107D-04 -0.22692772D-04 -0.19432334D-04 -0.45575982D-06 -0.10836304D-05
 -0.55358823D-05 -0.34482926D-06 -0.17821659D-04 -0.26836134D-05  0.40203862D-05
  0.23986675D-03  0.10254466D-03 -0.29858984D-05 -0.18640178D-03 -0.94493820D-04
  0.16145288D-05  0.48943362D-06  0.57561571D-04  0.10165948D-03 -0.31597271D-05
  0.16476864D-03  0.20476950D-03  0.16914262D-05 -0.33745335D-03 -0.50974795D-03
 -0.14396068D-05 -0.96285949D-01 -0.17947717D+00 -0.30425380D+00 -0.46068139D+00
 -0.57595321D+00 -0.49542304D+00 -0.19000540D+00 -0.11689027D-04 -0.15474083D-03
 -0.56204684D-03 -0.16673014D-02 -0.19212281D-02  0.23336176D-02 -0.84127915D-02
  0.78002619D-03  0.27645035D-04 -0.26058435D-05 -0.25484580D-05 -0.16838740D-05
  0.74006310D-02  0.72376555D-02  0.47822250D-02 -0.60163574D-02 -0.58838661D-02
 -0.38877191D-02 -0.18112897D-05  0.12761375D-02 -0.11544947D-02 -0.16234964D-05
  0.15255824D-03 -0.84508417D-04  0.57932235D-07  0.37426822D-05 -0.19637023D-05
  0.79827683D-04 -0.63936197D-04 -0.15891487D-04 -0.53657632D-05 -0.37895673D-05
 -0.66512662D-03  0.15030984D-03 -0.73148707D-04 -0.77161131D-04  0.33534495D-05
  0.34852518D-06  0.78482130D-03  0.42125107D-04 -0.22692772D-04 -0.19432334D-04
  0.45575981D-06 -0.10836304D-05  0.55358822D-05 -0.34482926D-06  0.17821659D-04
 -0.26836134D-05  0.40203862D-05 -0.23986675D-03  0.10254466D-03 -0.29858984D-05
  0.18640178D-03 -0.94493820D-04 -0.16145287D-05  0.48943362D-06 -0.57561571D-04
  0.10165948D-03 -0.31597271D-05 -0.16476864D-03  0.20476950D-03  0.16914262D-05
  0.33745335D-03 -0.50974795D-03  0.14396068D-05
MO    2     MO 0.0        OCC NO =    2.0000037  ORB. ENERGY =    0.000000
 -0.36838100D+00 -0.68660162D+00 -0.11642295D+01 -0.17619376D+01 -0.21978783D+01
 -0.18861065D+01 -0.72227861D+00 -0.43674579D-04 -0.46859957D-03 -0.17273462D-02
 -0.50506591D-02 -0.60862898D-02  0.73315810D-02 -0.33651832D-01  0.66769608D-03
  0.91560169D-04  0.67770363D-04  0.65714455D-04  0.44330583D-04  0.13652488D-11
  0.13238321D-11  0.89304933D-12  0.87223422D-02  0.84577379D-02  0.57055400D-02
 -0.17461264D-04  0.19104103D-12 -0.18392858D-02  0.13509016D-05 -0.12307976D-12
 -0.15555238D-03 -0.34779881D-07 -0.21604779D-13  0.17870429D-05  0.69246118D-03
  0.89356758D-04 -0.78181794D-03 -0.20905582D-13 -0.15927125D-04 -0.27597759D-12
 -0.33893719D-03 -0.35771712D-03  0.69665431D-03  0.89356122D-14  0.17164747D-04
  0.97478196D-13 -0.39191073D-04  0.13214407D-04  0.25976666D-04  0.35020578D-14
  0.18727052D-06  0.34050265D-13 -0.25254858D-05  0.17548053D-13  0.24845557D-03
  0.64581962D-06 -0.24069816D-12 -0.22279016D-03  0.69306377D-05  0.18805400D-12
 -0.52257657D-03  0.21243399D-13  0.15167895D-05 -0.47613159D-14 -0.66615731D-04
 -0.64190935D-06  0.10331519D-12  0.11081736D-03 -0.39084591D-05 -0.89031238D-13
  0.89029837D-04 -0.15296641D-13 -0.16825228D+00 -0.31365615D+00 -0.53012163D+00
 -0.79687168D+00 -0.97881413D+00 -0.82608459D+00 -0.31062938D+00 -0.14533959D-04
 -0.10863234D-03 -0.40598386D-03 -0.11326318D-02 -0.15174143D-02  0.17917833D-02
 -0.14046394D-01  0.99247572D-04 -0.68384571D-05  0.17951287D-04  0.16830473D-04
  0.11984299D-04  0.10999187D-12  0.10312437D-12  0.73430692D-13  0.25226377D-02
  0.23651332D-02  0.16841157D-02 -0.16644835D-04  0.60985500D-12 -0.20187645D-02
 -0.10677573D-05 -0.82365534D-13 -0.26040138D-04 -0.28967532D-07  0.96364414D-14
 -0.84491059D-05  0.82545282D-03  0.15031945D-03 -0.97577228D-03 -0.42104376D-15
 -0.25652807D-04 -0.92316131D-12 -0.13258833D-03  0.36139766D-03 -0.22880933D-03
  0.55967723D-15 -0.63487345D-05 -0.57771708D-12 -0.33219742D-05 -0.14289554D-04
  0.17611528D-04  0.11478764D-15  0.23476544D-06  0.42045510D-13  0.35536024D-05
  0.33709038D-13 -0.25392152D-03  0.16073939D-05 -0.78287337D-12  0.52929972D-03
 -0.12268201D-04  0.68174626D-12  0.23246484D-03 -0.26811058D-14  0.57214092D-06
 -0.62904629D-13  0.34370112D-04  0.22688753D-06 -0.45826057D-13  0.73112726D-04
 -0.19433103D-05  0.23453994D-12 -0.17622306D-03 -0.60146909D-14  0.18574337D+00
  0.34622596D+00  0.58693014D+00  0.88869160D+00  0.11110602D+01  0.95571105D+00
  0.36653576D+00  0.19126194D-04  0.25319499D-03  0.91965027D-03  0.27281252D-02
  0.31436133D-02 -0.38183866D-02  0.16914247D-01 -0.85324391D-03 -0.28944847D-04
 -0.16311070D-04 -0.15951870D-04 -0.10540075D-04  0.87690099D-02  0.85759002D-02
  0.56664598D-02  0.53366133D-02  0.52190913D-02  0.34484743D-02 -0.28264617D-05
  0.79539627D-03  0.27221267D-03  0.82057667D-06  0.81702956D-04 -0.20704084D-04
  0.13316146D-06 -0.16490039D-05  0.21162667D-04 -0.31954831D-04  0.15678396D-03
 -0.12482913D-03 -0.19914040D-05 -0.25591408D-05 -0.33595523D-03  0.41628369D-05
 -0.53502588D-04  0.49339751D-04  0.11161340D-05  0.19230427D-05  0.54904518D-04
 -0.16791012D-04  0.16038669D-04  0.75234295D-06  0.11541951D-05 -0.17416786D-06
 -0.25348443D-05  0.31406311D-05  0.10640112D-03 -0.11833736D-03 -0.51158785D-05
  0.94936380D-04  0.57563705D-03 -0.43060149D-05 -0.41413973D-03 -0.22062495D-03
 -0.19858932D-05 -0.13162179D-05 -0.55060365D-04 -0.69358030D-05  0.27177636D-05
 -0.13644274D-03 -0.29140968D-03  0.12308901D-05  0.30162383D-03  0.31221709D-03
  0.15455635D-05  0.18574337D+00  0.34622596D+00  0.58693014D+00  0.88869161D+00
  0.11110602D+01  0.95571105D+00  0.36653576D+00  0.19126194D-04  0.25319499D-03
  0.91965028D-03  0.27281252D-02  0.31436133D-02 -0.38183866D-02  0.16914247D-01
 -0.85324391D-03 -0.28944847D-04 -0.16311070D-04 -0.15951870D-04 -0.10540075D-04
 -0.87690100D-02 -0.85759002D-02 -0.56664599D-02  0.53366134D-02  0.52190913D-02
  0.34484743D-02 -0.28264617D-05 -0.79539627D-03  0.27221267D-03  0.82057666D-06
 -0.81702957D-04 -0.20704083D-04  0.13316146D-06  0.16490038D-05  0.21162667D-04
 -0.31954832D-04  0.15678396D-03 -0.12482913D-03  0.19914039D-05 -0.25591408D-05
  0.33595523D-03  0.41628374D-05 -0.53502589D-04  0.49339751D-04 -0.11161340D-05
  0.19230427D-05 -0.54904517D-04 -0.16791012D-04  0.16038669D-04  0.75234308D-06
 -0.11541951D-05 -0.17416786D-06  0.25348440D-05  0.31406311D-05 -0.10640112D-03
 -0.11833736D-03 -0.51158785D-05 -0.94936383D-04  0.57563705D-03 -0.43060149D-05
  0.41413973D-03 -0.22062495D-03  0.19858932D-05 -0.13162179D-05  0.55060365D-04
 -0.69358029D-05  0.27177636D-05  0.13644274D-03 -0.29140968D-03  0.12308901D-05
 -0.30162383D-03  0.31221709D-03 -0.15455634D-05
MO    3     MO 0.0        OCC NO =    2.0000022  ORB. ENERGY =    0.000000
 -0.67395557D-09 -0.12561424D-08 -0.21299659D-08 -0.32234769D-08 -0.40210333D-08
 -0.34506448D-08 -0.13214137D-08 -0.80599799D-13 -0.86478295D-12 -0.31877528D-11
 -0.93208022D-11 -0.11232020D-10  0.13530158D-10 -0.61495711D-10  0.11863619D-11
  0.16592644D-12  0.11129495D-12  0.10791867D-12  0.72801296D-13 -0.86357650D-03
 -0.83737871D-03 -0.56489073D-03  0.17948129D-10  0.17403648D-10  0.11740398D-10
 -0.31573376D-13 -0.11250195D-03 -0.26401901D-11 -0.34768592D-14  0.90468553D-04
 -0.78610556D-13 -0.36515381D-15  0.14483107D-04  0.32614536D-15  0.12946716D-11
  0.30314054D-12 -0.15978121D-11  0.87359211D-05 -0.34117517D-13  0.18006319D-03
 -0.51426134D-12 -0.63709470D-12  0.11513560D-11 -0.48253259D-05  0.32322598D-13
 -0.62671353D-04 -0.42605116D-13  0.13317253D-13  0.29287863D-13 -0.19033067D-05
  0.19552897D-14 -0.25173370D-04 -0.59291409D-14 -0.11308961D-04  0.36599357D-12
 -0.24661212D-14  0.16292305D-03 -0.33467902D-12  0.20253544D-13 -0.12899617D-03
 -0.76330169D-12 -0.91307345D-05  0.28148139D-14  0.32509523D-05 -0.12571438D-12
  0.10008129D-14 -0.67678301D-04  0.17096589D-12 -0.94452545D-14  0.57925444D-04
  0.20617726D-12  0.75222154D-05 -0.24990668D-09 -0.46587640D-09 -0.78739458D-09
 -0.11836009D-08 -0.14538417D-08 -0.12269911D-08 -0.46138071D-09 -0.19641472D-13
 -0.14680783D-12 -0.54865440D-12 -0.15306603D-11 -0.20506629D-11  0.24214505D-11
 -0.20852263D-10  0.24056793D-12 -0.68158120D-14  0.18241839D-13  0.17102884D-13
  0.12178272D-13 -0.60122146D-04 -0.56368333D-04 -0.40137611D-04  0.36302595D-11
  0.34035991D-11  0.24235653D-11 -0.22399084D-13 -0.38915344D-03 -0.30979223D-11
 -0.51487004D-15  0.55993490D-04 -0.88750216D-13 -0.87889358D-16 -0.63401843D-05
 -0.11765025D-13  0.14199169D-11  0.18078495D-12 -0.16007019D-11  0.51337281D-06
 -0.45209985D-13  0.61010119D-03 -0.15314113D-12  0.54022614D-12 -0.38708501D-12
  0.23860030D-06 -0.59351842D-14  0.38111380D-03 -0.78915802D-14 -0.17949666D-13
  0.25841246D-13 -0.59067664D-08  0.99836175D-15 -0.28250521D-04  0.48445402D-14
 -0.24441298D-04 -0.41092543D-12  0.19957120D-14  0.51662591D-03  0.61669074D-12
 -0.16529333D-13 -0.44330201D-03  0.61608554D-12  0.82828694D-06  0.71346202D-15
  0.44120022D-04  0.17452764D-13  0.41866334D-15  0.30469096D-04  0.11839196D-12
 -0.25590494D-14 -0.16282916D-03 -0.17075025D-12  0.23775501D-05  0.42245869D+00
  0.78746372D+00  0.13349264D+01  0.20212592D+01  0.25270192D+01  0.21736896D+01
  0.83365675D+00  0.38737277D-04  0.51280902D-03  0.18626156D-02  0.55254142D-02
  0.63669239D-02 -0.77335774D-02  0.39152363D-01 -0.16933016D-03  0.82944255D-04
 -0.11265269D-04 -0.11017187D-04 -0.72795210D-05  0.97655591D-02  0.95505035D-02
  0.63104214D-02  0.74582345D-02  0.72939904D-02  0.48194479D-02 -0.10339191D-05
 -0.18436108D-03  0.15286317D-03 -0.14151615D-05  0.23449216D-03  0.39552404D-03
  0.52929372D-07  0.21145160D-04  0.41236729D-05 -0.14785526D-03  0.16437091D-03
 -0.16515653D-04  0.31779324D-05  0.50262476D-05  0.25115181D-03  0.15563380D-03
 -0.24666587D-03  0.91032075D-04 -0.44262876D-06 -0.40650822D-06 -0.51861910D-03
 -0.58538968D-04  0.13657706D-04  0.44881263D-04 -0.69343698D-06  0.17870029D-06
  0.13172036D-03  0.11298340D-05 -0.27318889D-03  0.11274413D-04  0.23854997D-05
  0.88403983D-03  0.18496067D-03 -0.57750017D-05 -0.64473170D-04 -0.21878391D-03
 -0.88000399D-06 -0.26414063D-06  0.51299748D-04  0.19197121D-04 -0.91283169D-06
 -0.20832380D-03 -0.30994417D-04  0.17052536D-05  0.54424556D-04 -0.26596947D-04
 -0.17146226D-06 -0.42245869D+00 -0.78746372D+00 -0.13349264D+01 -0.20212592D+01
 -0.25270192D+01 -0.21736896D+01 -0.83365675D+00 -0.38737277D-04 -0.51280901D-03
 -0.18626156D-02 -0.55254142D-02 -0.63669239D-02  0.77335774D-02 -0.39152363D-01
  0.16933015D-03 -0.82944255D-04  0.11265269D-04  0.11017187D-04  0.72795210D-05
  0.97655590D-02  0.95505034D-02  0.63104214D-02 -0.74582345D-02 -0.72939904D-02
 -0.48194479D-02  0.10339191D-05 -0.18436108D-03 -0.15286317D-03  0.14151615D-05
  0.23449216D-03 -0.39552404D-03 -0.52929371D-07  0.21145160D-04 -0.41236728D-05
  0.14785526D-03 -0.16437091D-03  0.16515653D-04  0.31779324D-05 -0.50262477D-05
  0.25115181D-03 -0.15563380D-03  0.24666587D-03 -0.91032075D-04 -0.44262876D-06
  0.40650823D-06 -0.51861910D-03  0.58538968D-04 -0.13657706D-04 -0.44881263D-04
 -0.69343699D-06 -0.17870029D-06  0.13172036D-03 -0.11298340D-05 -0.27318889D-03
 -0.11274414D-04 -0.23854997D-05  0.88403983D-03 -0.18496067D-03  0.57750017D-05
 -0.64473168D-04  0.21878391D-03 -0.88000401D-06  0.26414062D-06  0.51299748D-04
 -0.19197121D-04  0.91283170D-06 -0.20832380D-03  0.30994416D-04 -0.17052536D-05
  0.54424555D-04  0.26596948D-04 -0.17146226D-06
MO    4     MO 0.0        OCC NO =    2.0000016  ORB. ENERGY =    0.000000
  0.10183154D+00  0.18979724D+00  0.32182789D+00  0.48705229D+00  0.60755934D+00
  0.52137630D+00  0.19965943D+00  0.13153564D-04  0.14112911D-03  0.52022847D-03
  0.15211175D-02  0.18330206D-02 -0.22080675D-02  0.93970403D-02 -0.42189668D-03
 -0.17764312D-03  0.18558324D-04  0.17995331D-04  0.12139544D-04 -0.35963021D-12
 -0.34872033D-12 -0.23524467D-12  0.53299610D-03  0.51682693D-03  0.34864839D-03
  0.17907048D-04 -0.31987523D-13  0.15686570D-02 -0.18094066D-07  0.51740532D-13
  0.12176520D-03  0.28004106D-07  0.66074688D-14  0.19309300D-04  0.15196845D-03
 -0.89842717D-05 -0.14298418D-03  0.43138878D-14 -0.11749130D-04  0.82578207D-13
  0.62603373D-04  0.28804589D-03 -0.35064926D-03 -0.21801433D-14 -0.57943439D-05
 -0.40354029D-13 -0.11783285D-04  0.21725056D-04 -0.99417708D-05 -0.16794325D-14
  0.11389617D-05 -0.16210608D-13  0.27671611D-05 -0.93405293D-15 -0.31178757D-03
  0.34964785D-05  0.52786827D-13  0.61538694D-03 -0.11797962D-04 -0.49984669D-13
  0.31997576D-03 -0.44551468D-14  0.76416913D-06 -0.65121462D-15  0.77912182D-04
 -0.24401384D-05 -0.27133742D-13 -0.15435740D-04  0.14763099D-06  0.29087385D-13
 -0.21830081D-03  0.48219889D-14  0.14761198D+00  0.27517847D+00  0.46508911D+00
  0.69911567D+00  0.85873838D+00  0.72474490D+00  0.27252301D+00  0.11534959D-04
  0.86216673D-04  0.32221139D-03  0.89891962D-03  0.12043045D-02 -0.14220590D-02
  0.11821600D-01  0.21490400D-04  0.24400937D-04 -0.16360552D-04 -0.15339057D-04
 -0.10922322D-04 -0.13349548D-13 -0.12516050D-13 -0.89121729D-14 -0.23511180D-02
 -0.22043225D-02 -0.15696090D-02  0.10436752D-04 -0.16751493D-12  0.63199660D-03
  0.15506255D-05  0.15180797D-13  0.20553008D-03  0.38802486D-07 -0.28070093D-14
 -0.12680754D-05 -0.10774975D-02  0.33966751D-03  0.73783003D-03  0.53639290D-14
  0.19381516D-04  0.23796105D-12 -0.31491101D-04 -0.98165910D-04  0.12965701D-03
 -0.56472855D-14  0.46069324D-05  0.14316524D-12  0.38534978D-05 -0.12783836D-04
  0.89303378D-05 -0.12640569D-15  0.27399688D-06 -0.12155661D-13 -0.27824676D-05
 -0.66396319D-14  0.48378071D-03 -0.40806882D-05  0.20508811D-12  0.19748134D-03
  0.12428091D-04 -0.18516921D-12 -0.16488235D-02  0.23339272D-14 -0.16584037D-06
  0.19764316D-13  0.42367561D-04 -0.75402185D-06  0.12810292D-13 -0.24704040D-04
  0.12515430D-05 -0.72103239D-13 -0.10239864D-03  0.43975361D-14  0.36698723D+00
  0.68406484D+00  0.11596423D+01  0.17558553D+01  0.21952058D+01  0.18882707D+01
  0.72419244D+00  0.31538613D-04  0.41751218D-03  0.15164802D-02  0.44986099D-02
  0.51837393D-02 -0.62964235D-02  0.34341466D-01  0.26304624D-03  0.80904464D-04
 -0.34465849D-05 -0.33706848D-05 -0.22271539D-05  0.62414017D-02  0.61039545D-02
  0.40331408D-02  0.39235269D-02  0.38371236D-02  0.25353498D-02  0.22383445D-05
 -0.54818153D-03 -0.64219930D-03 -0.51506904D-06  0.30575588D-03  0.16045180D-03
  0.31256240D-07  0.49021362D-05  0.13399470D-04 -0.23375712D-03  0.17459915D-03
  0.59157977D-04  0.34702769D-05 -0.18244245D-06  0.78337449D-03  0.25126164D-03
 -0.18037671D-03 -0.70884929D-04 -0.53449428D-06  0.16652695D-05 -0.99203367D-03
 -0.44065680D-04  0.34797022D-04  0.92686580D-05 -0.81059334D-06 -0.15148143D-06
  0.61861441D-04 -0.19949047D-05  0.20849735D-04 -0.75437388D-04  0.62300042D-05
  0.27214626D-03  0.45902628D-03 -0.24529012D-06 -0.33469547D-03 -0.23271411D-03
 -0.27531429D-06  0.80357238D-06  0.32933575D-04  0.10060644D-03 -0.29603771D-05
  0.10917745D-03  0.44078827D-04  0.54965997D-06 -0.20797818D-03 -0.34589814D-03
 -0.23714703D-06  0.36698723D+00  0.68406484D+00  0.11596423D+01  0.17558553D+01
  0.21952058D+01  0.18882707D+01  0.72419243D+00  0.31538613D-04  0.41751218D-03
  0.15164802D-02  0.44986099D-02  0.51837393D-02 -0.62964235D-02  0.34341466D-01
  0.26304624D-03  0.80904464D-04 -0.34465848D-05 -0.33706846D-05 -0.22271539D-05
 -0.62414017D-02 -0.61039545D-02 -0.40331408D-02  0.39235269D-02  0.38371236D-02
  0.25353498D-02  0.22383446D-05  0.54818153D-03 -0.64219930D-03 -0.51506902D-06
 -0.30575588D-03  0.16045180D-03  0.31256240D-07 -0.49021362D-05  0.13399470D-04
 -0.23375712D-03  0.17459915D-03  0.59157977D-04 -0.34702769D-05 -0.18244244D-06
 -0.78337449D-03  0.25126164D-03 -0.18037671D-03 -0.70884929D-04  0.53449428D-06
  0.16652695D-05  0.99203366D-03 -0.44065680D-04  0.34797022D-04  0.92686579D-05
  0.81059333D-06 -0.15148143D-06 -0.61861441D-04 -0.19949047D-05 -0.20849736D-04
 -0.75437388D-04  0.62300042D-05 -0.27214626D-03  0.45902628D-03 -0.24529012D-06
  0.33469547D-03 -0.23271411D-03  0.27531432D-06  0.80357238D-06 -0.32933575D-04
  0.10060644D-03 -0.29603771D-05 -0.10917745D-03  0.44078827D-04  0.54965997D-06
  0.20797818D-03 -0.34589814D-03  0.23714701D-06
MO    5     MO 0.0        OCC NO =    1.9861786  ORB. ENERGY =    0.000000
 -0.99153018D-02 -0.18480492D-01 -0.31336271D-01 -0.47424115D-01 -0.59157845D-01
 -0.50766232D-01 -0.19440770D-01 -0.16084906D-03 -0.17258048D-02 -0.63616416D-02
 -0.18601067D-01 -0.22415190D-01  0.27001472D-01  0.14149657D-01 -0.33401454D-04
 -0.19223403D-02 -0.59964297D-03 -0.58145198D-03 -0.39224407D-03 -0.63509630D-12
 -0.61582978D-12 -0.41543513D-12 -0.69609559D-01 -0.67497857D-01 -0.45533656D-01
 -0.10734301D-03 -0.23178601D-12 -0.13003725D-01  0.16181666D-04 -0.10999411D-12
  0.19940633D-02  0.50500630D-06 -0.70720015D-15  0.22950019D-03 -0.40032700D-02
 -0.42473803D-02  0.82506502D-02 -0.52402892D-15  0.17041650D-03  0.53736832D-14
 -0.45501377D-03  0.61947250D-03 -0.16445873D-03  0.24929470D-14  0.10051977D-04
  0.92366184D-13  0.10931833D-03  0.51829094D-03 -0.62760927D-03  0.89906029D-15
 -0.10809157D-04  0.16909977D-13  0.17758583D-04  0.20134966D-13 -0.16154012D-02
  0.17856840D-04  0.32854132D-13  0.34849190D-02 -0.71132589D-04 -0.93259030D-13
  0.13612846D-02  0.44901706D-15  0.35957253D-05  0.60402510D-14  0.50960338D-03
 -0.15983395D-04 -0.31388800D-14 -0.22225354D-03  0.51962192D-05 -0.14981873D-13
 -0.13065566D-02 -0.25223208D-14 -0.17212700D-01 -0.32087940D-01 -0.54232991D-01
 -0.81522300D-01 -0.10013554D+00 -0.84510867D-01 -0.31778293D-01 -0.31581549D-03
 -0.23605251D-02 -0.88218214D-02 -0.24611508D-01 -0.32972635D-01  0.38934534D-01
  0.15592127D-01  0.22622663D-02  0.22670383D-03  0.30564677D-03  0.28656328D-03
  0.20405012D-03 -0.33272898D-12 -0.31195457D-12 -0.22213024D-12 -0.34527567D-01
 -0.32371789D-01 -0.23050642D-01  0.95255715D-04  0.36038273D-12 -0.49755121D-02
  0.57016874D-05  0.95665191D-13  0.15134000D-02  0.53788876D-06 -0.11651589D-14
 -0.33066813D-05 -0.19256033D-01  0.93280637D-02  0.99279688D-02 -0.54070573D-15
  0.20212045D-03  0.14934885D-14 -0.26129570D-02  0.11489748D-02  0.14639822D-02
  0.48545055D-14  0.32363876D-04 -0.18098101D-12  0.83456566D-04 -0.92147512D-04
  0.86909455D-05  0.34850567D-15  0.10879603D-05  0.16356950D-14 -0.18249540D-04
 -0.17794194D-13  0.34360053D-02 -0.29202288D-04 -0.49969502D-13  0.34607007D-02
  0.83950910D-04  0.10335208D-12 -0.13768717D-01 -0.44348308D-14  0.27138674D-05
 -0.25622451D-13  0.26846812D-03 -0.53741798D-05 -0.53909689D-14  0.31657016D-03
 -0.27674223D-05  0.82258322D-13 -0.11219745D-02 -0.28567066D-14 -0.89170014D-01
 -0.16621306D+00 -0.28176816D+00 -0.42663511D+00 -0.53338785D+00 -0.45880920D+00
 -0.17596320D+00 -0.12987007D-02 -0.17192365D-01 -0.62445799D-01 -0.18524429D+00
 -0.21345662D+00  0.25927486D+00  0.14914199D+00  0.67595027D-01  0.16896197D-02
 -0.76341562D-04 -0.74660381D-04 -0.49331270D-04 -0.38060289D-01 -0.37222131D-01
 -0.24594236D-01 -0.13143783D+00 -0.12854332D+00 -0.84934009D-01 -0.20058892D-04
 -0.36452014D-02 -0.27298460D-01  0.10976672D-05 -0.32659826D-02 -0.62987183D-02
  0.15171508D-06 -0.48603967D-04 -0.46727570D-04 -0.59989035D-02  0.73449332D-02
 -0.13460297D-02  0.18888434D-04  0.57770306D-05  0.13753797D-01 -0.29944491D-02
  0.41360282D-02 -0.11415790D-02 -0.19732932D-06  0.32597363D-05  0.75489023D-02
  0.21603649D-03 -0.21197012D-03 -0.40663684D-05  0.29301907D-05  0.91737747D-06
 -0.91063121D-03 -0.23864398D-05  0.16654788D-02 -0.21603236D-02  0.99106288D-05
 -0.64272266D-02 -0.23946742D-02 -0.27513095D-05  0.14307901D-02  0.88756452D-02
  0.17275440D-04  0.30944157D-06  0.29394282D-03 -0.22203327D-03 -0.47945253D-05
 -0.87891324D-03 -0.10357795D-02  0.38662006D-05 -0.29152170D-05  0.17018793D-02