 f2co-wavefunction
GAUSSIAN            184 MOL ORBITALS    288 PRIMITIVES        4 NUCLEI
  O    1    (CENTRE  1)   0.00000000  0.00000000  1.26597856  CHARGE =  8.0
  C    2    (CENTRE  2)   0.00000000  0.00000000 -0.93015344  CHARGE =  6.0
  F    3    (CENTRE  3)   0.00000000 -2.00098943 -2.38919020  CHARGE =  9.0
  F    4    (CENTRE  4)   0.00000000  2.00098943 -2.38919020  CHARGE =  9.0
CENTRE ASSIGNMENTS    1  1  1  1  1  1  1  1  1  1  1  1  1  1  1  1  1  1  1  1
CENTRE ASSIGNMENTS    1  1  1  1  1  1  1  1  1  1  1  1  1  1  1  1  1  1  1  1
CENTRE ASSIGNMENTS    1  1  1  1  1  1  1  1  1  1  1  1  1  1  1  1  1  1  1  1
CENTRE ASSIGNMENTS    1  1  1  1  1  1  1  1  1  1  1  1  2  2  2  2  2  2  2  2
CENTRE ASSIGNMENTS    2  2  2  2  2  2  2  2  2  2  2  2  2  2  2  2  2  2  2  2
CENTRE ASSIGNMENTS    2  2  2  2  2  2  2  2  2  2  2  2  2  2  2  2  2  2  2  2
CENTRE ASSIGNMENTS    2  2  2  2  2  2  2  2  2  2  2  2  2  2  2  2  2  2  2  2
CENTRE ASSIGNMENTS    2  2  2  2  3  3  3  3  3  3  3  3  3  3  3  3  3  3  3  3
CENTRE ASSIGNMENTS    3  3  3  3  3  3  3  3  3  3  3  3  3  3  3  3  3  3  3  3
CENTRE ASSIGNMENTS    3  3  3  3  3  3  3  3  3  3  3  3  3  3  3  3  3  3  3  3
CENTRE ASSIGNMENTS    3  3  3  3  3  3  3  3  3  3  3  3  3  3  3  3  4  4  4  4
CENTRE ASSIGNMENTS    4  4  4  4  4  4  4  4  4  4  4  4  4  4  4  4  4  4  4  4
CENTRE ASSIGNMENTS    4  4  4  4  4  4  4  4  4  4  4  4  4  4  4  4  4  4  4  4
CENTRE ASSIGNMENTS    4  4  4  4  4  4  4  4  4  4  4  4  4  4  4  4  4  4  4  4
CENTRE ASSIGNMENTS    4  4  4  4  4  4  4  4
TYPE ASSIGNMENTS      1  1  1  1  1  1  1  1  1  1  1  1  1  1  1  1  2  2  2  3
TYPE ASSIGNMENTS      3  3  4  4  4  2  3  4  2  3  4  2  3  4  5  6  7  8  9 10
TYPE ASSIGNMENTS      5  6  7  8  9 10  5  6  7  8  9 10 11 12 13 17 14 15 18 19
TYPE ASSIGNMENTS     16 20 11 12 13 17 14 15 18 19 16 20  1  1  1  1  1  1  1  1
TYPE ASSIGNMENTS      1  1  1  1  1  1  1  1  2  2  2  3  3  3  4  4  4  2  3  4
TYPE ASSIGNMENTS      2  3  4  2  3  4  5  6  7  8  9 10  5  6  7  8  9 10  5  6
TYPE ASSIGNMENTS      7  8  9 10 11 12 13 17 14 15 18 19 16 20 11 12 13 17 14 15
TYPE ASSIGNMENTS     18 19 16 20  1  1  1  1  1  1  1  1  1  1  1  1  1  1  1  1
TYPE ASSIGNMENTS      2  2  2  3  3  3  4  4  4  2  3  4  2  3  4  2  3  4  5  6
TYPE ASSIGNMENTS      7  8  9 10  5  6  7  8  9 10  5  6  7  8  9 10 11 12 13 17
TYPE ASSIGNMENTS     14 15 18 19 16 20 11 12 13 17 14 15 18 19 16 20  1  1  1  1
TYPE ASSIGNMENTS      1  1  1  1  1  1  1  1  1  1  1  1  2  2  2  3  3  3  4  4
TYPE ASSIGNMENTS      4  2  3  4  2  3  4  2  3  4  5  6  7  8  9 10  5  6  7  8
TYPE ASSIGNMENTS      9 10  5  6  7  8  9 10 11 12 13 17 14 15 18 19 16 20 11 12
TYPE ASSIGNMENTS     13 17 14 15 18 19 16 20
EXPONENTS  0.1533000D+05 0.2299000D+04 0.5224000D+03 0.1473000D+03 0.4755000D+02
EXPONENTS  0.1676000D+02 0.6207000D+01 0.5224000D+03 0.1473000D+03 0.4755000D+02
EXPONENTS  0.1676000D+02 0.6207000D+01 0.6882000D+00 0.1752000D+01 0.2384000D+00
EXPONENTS  0.7376000D-01 0.3446000D+02 0.7749000D+01 0.2280000D+01 0.3446000D+02
EXPONENTS  0.7749000D+01 0.2280000D+01 0.3446000D+02 0.7749000D+01 0.2280000D+01
EXPONENTS  0.7156000D+00 0.7156000D+00 0.7156000D+00 0.2140000D+00 0.2140000D+00
EXPONENTS  0.2140000D+00 0.5974000D-01 0.5974000D-01 0.5974000D-01 0.2314000D+01
EXPONENTS  0.2314000D+01 0.2314000D+01 0.2314000D+01 0.2314000D+01 0.2314000D+01
EXPONENTS  0.6450000D+00 0.6450000D+00 0.6450000D+00 0.6450000D+00 0.6450000D+00
EXPONENTS  0.6450000D+00 0.2140000D+00 0.2140000D+00 0.2140000D+00 0.2140000D+00
EXPONENTS  0.2140000D+00 0.2140000D+00 0.1428000D+01 0.1428000D+01 0.1428000D+01
EXPONENTS  0.1428000D+01 0.1428000D+01 0.1428000D+01 0.1428000D+01 0.1428000D+01
EXPONENTS  0.1428000D+01 0.1428000D+01 0.5000000D+00 0.5000000D+00 0.5000000D+00
EXPONENTS  0.5000000D+00 0.5000000D+00 0.5000000D+00 0.5000000D+00 0.5000000D+00
EXPONENTS  0.5000000D+00 0.5000000D+00 0.8236000D+04 0.1235000D+04 0.2808000D+03
EXPONENTS  0.7927000D+02 0.2559000D+02 0.8997000D+01 0.3319000D+01 0.2808000D+03
EXPONENTS  0.7927000D+02 0.2559000D+02 0.8997000D+01 0.3319000D+01 0.3643000D+00
EXPONENTS  0.9059000D+00 0.1285000D+00 0.4402000D-01 0.1871000D+02 0.4133000D+01
EXPONENTS  0.1200000D+01 0.1871000D+02 0.4133000D+01 0.1200000D+01 0.1871000D+02
EXPONENTS  0.4133000D+01 0.1200000D+01 0.3827000D+00 0.3827000D+00 0.3827000D+00
EXPONENTS  0.1209000D+00 0.1209000D+00 0.1209000D+00 0.3569000D-01 0.3569000D-01
EXPONENTS  0.3569000D-01 0.1097000D+01 0.1097000D+01 0.1097000D+01 0.1097000D+01
EXPONENTS  0.1097000D+01 0.1097000D+01 0.3180000D+00 0.3180000D+00 0.3180000D+00
EXPONENTS  0.3180000D+00 0.3180000D+00 0.3180000D+00 0.1000000D+00 0.1000000D+00
EXPONENTS  0.1000000D+00 0.1000000D+00 0.1000000D+00 0.1000000D+00 0.7610000D+00
EXPONENTS  0.7610000D+00 0.7610000D+00 0.7610000D+00 0.7610000D+00 0.7610000D+00
EXPONENTS  0.7610000D+00 0.7610000D+00 0.7610000D+00 0.7610000D+00 0.2680000D+00
EXPONENTS  0.2680000D+00 0.2680000D+00 0.2680000D+00 0.2680000D+00 0.2680000D+00
EXPONENTS  0.2680000D+00 0.2680000D+00 0.2680000D+00 0.2680000D+00 0.1950000D+05
EXPONENTS  0.2923000D+04 0.6645000D+03 0.1875000D+03 0.6062000D+02 0.2142000D+02
EXPONENTS  0.7950000D+01 0.6645000D+03 0.1875000D+03 0.6062000D+02 0.2142000D+02
EXPONENTS  0.7950000D+01 0.8815000D+00 0.2257000D+01 0.3041000D+00 0.9158000D-01
EXPONENTS  0.4388000D+02 0.9926000D+01 0.2930000D+01 0.4388000D+02 0.9926000D+01
EXPONENTS  0.2930000D+01 0.4388000D+02 0.9926000D+01 0.2930000D+01 0.9132000D+00
EXPONENTS  0.9132000D+00 0.9132000D+00 0.2672000D+00 0.2672000D+00 0.2672000D+00
EXPONENTS  0.7361000D-01 0.7361000D-01 0.7361000D-01 0.3107000D+01 0.3107000D+01
EXPONENTS  0.3107000D+01 0.3107000D+01 0.3107000D+01 0.3107000D+01 0.8550000D+00
EXPONENTS  0.8550000D+00 0.8550000D+00 0.8550000D+00 0.8550000D+00 0.8550000D+00
EXPONENTS  0.2920000D+00 0.2920000D+00 0.2920000D+00 0.2920000D+00 0.2920000D+00
EXPONENTS  0.2920000D+00 0.1917000D+01 0.1917000D+01 0.1917000D+01 0.1917000D+01
EXPONENTS  0.1917000D+01 0.1917000D+01 0.1917000D+01 0.1917000D+01 0.1917000D+01
EXPONENTS  0.1917000D+01 0.7240000D+00 0.7240000D+00 0.7240000D+00 0.7240000D+00
EXPONENTS  0.7240000D+00 0.7240000D+00 0.7240000D+00 0.7240000D+00 0.7240000D+00
EXPONENTS  0.7240000D+00 0.1950000D+05 0.2923000D+04 0.6645000D+03 0.1875000D+03
EXPONENTS  0.6062000D+02 0.2142000D+02 0.7950000D+01 0.6645000D+03 0.1875000D+03
EXPONENTS  0.6062000D+02 0.2142000D+02 0.7950000D+01 0.8815000D+00 0.2257000D+01
EXPONENTS  0.3041000D+00 0.9158000D-01 0.4388000D+02 0.9926000D+01 0.2930000D+01
EXPONENTS  0.4388000D+02 0.9926000D+01 0.2930000D+01 0.4388000D+02 0.9926000D+01
EXPONENTS  0.2930000D+01 0.9132000D+00 0.9132000D+00 0.9132000D+00 0.2672000D+00
EXPONENTS  0.2672000D+00 0.2672000D+00 0.7361000D-01 0.7361000D-01 0.7361000D-01
EXPONENTS  0.3107000D+01 0.3107000D+01 0.3107000D+01 0.3107000D+01 0.3107000D+01
EXPONENTS  0.3107000D+01 0.8550000D+00 0.8550000D+00 0.8550000D+00 0.8550000D+00
EXPONENTS  0.8550000D+00 0.8550000D+00 0.2920000D+00 0.2920000D+00 0.2920000D+00
EXPONENTS  0.2920000D+00 0.2920000D+00 0.2920000D+00 0.1917000D+01 0.1917000D+01
EXPONENTS  0.1917000D+01 0.1917000D+01 0.1917000D+01 0.1917000D+01 0.1917000D+01
EXPONENTS  0.1917000D+01 0.1917000D+01 0.1917000D+01 0.7240000D+00 0.7240000D+00
EXPONENTS  0.7240000D+00 0.7240000D+00 0.7240000D+00 0.7240000D+00 0.7240000D+00
EXPONENTS  0.7240000D+00 0.7240000D+00 0.7240000D+00
MO    1     MO 0.0        OCC NO =    2.0000067  ORB. ENERGY =    0.000000
 -0.31477131D+00 -0.58668197D+00 -0.99480172D+00 -0.15055266D+01 -0.18780258D+01
 -0.16116255D+01 -0.61716696D+00 -0.38882672D-04 -0.41718556D-03 -0.15378245D-02
 -0.44965087D-02 -0.54185116D-02  0.65271714D-02 -0.28423722D-01  0.45725066D-03
 -0.55136653D-04  0.36830821D-13  0.35713507D-13  0.24092121D-13 -0.47240692D-13
 -0.45807580D-13 -0.30901523D-13  0.19889240D-01  0.19285872D-01  0.13010135D-01
  0.28691567D-14  0.49026727D-14  0.26161706D-02 -0.82182169D-15  0.25087229D-13
  0.66918368D-03 -0.21131852D-15 -0.23776148D-14  0.14796766D-04  0.12340185D-02
  0.65588675D-03 -0.18899053D-02  0.74684588D-16 -0.31679481D-14  0.36336181D-13
  0.46280569D-04 -0.18182297D-04 -0.28098273D-04 -0.11421159D-14  0.16312143D-14
 -0.27752087D-13  0.49810347D-04 -0.22097965D-05 -0.47600550D-04  0.98400703D-15
  0.75175544D-15 -0.10674924D-13  0.48359589D-15 -0.49952482D-14 -0.62286499D-03
 -0.43839821D-14  0.12608312D-13  0.11399974D-02  0.29331945D-14  0.23774327D-14
  0.72859753D-03  0.91259396D-14 -0.25719617D-15 -0.19136772D-14  0.13925423D-04
  0.19359067D-14 -0.90612484D-14 -0.17503542D-04 -0.11643182D-14  0.14802280D-13
 -0.24272727D-04 -0.42122119D-14  0.24305298D+00  0.45309972D+00  0.76580026D+00
  0.11511406D+01  0.14139701D+01  0.11933409D+01  0.44872733D+00  0.26950404D-04
  0.20143757D-03  0.75281820D-03  0.21002455D-02  0.28137500D-02 -0.33225141D-02
  0.19674377D-01 -0.29568563D-04  0.16069393D-04  0.11254072D-13  0.10551407D-13
  0.75132307D-14  0.34662043D-13  0.32497869D-13  0.23140419D-13 -0.41864563D-02
 -0.39250689D-02 -0.27948829D-02 -0.12583720D-14 -0.96412488D-13  0.53353449D-03
 -0.11001982D-14 -0.60153787D-13  0.84783888D-04  0.29028995D-16  0.21323415D-15
  0.94119127D-06 -0.99048988D-03  0.39046463D-03  0.60002525D-03  0.94464800D-14
  0.11866160D-14  0.46621342D-13  0.21448930D-03 -0.14245752D-03 -0.72031783D-04
 -0.88318534D-14  0.61362882D-14  0.47185312D-13 -0.16644935D-06 -0.28099804D-05
  0.29764298D-05 -0.53655237D-15  0.45976795D-15  0.70942208D-14  0.52340391D-15
  0.59044295D-14  0.58901402D-03 -0.31828863D-14  0.36010802D-13 -0.36846282D-03
  0.16126746D-14 -0.53724091D-13 -0.13985792D-02  0.44625635D-14  0.38470905D-15
  0.32275781D-14 -0.87591950D-04 -0.12864014D-14  0.70318110D-14 -0.12767546D-04
  0.13227430D-15 -0.16714545D-13  0.27554340D-03  0.15724703D-14 -0.97740578D-01
 -0.18218861D+00 -0.30885027D+00 -0.46764108D+00 -0.58465435D+00 -0.50290759D+00
 -0.19287588D+00 -0.11832406D-04 -0.15663891D-03 -0.56894100D-03 -0.16877528D-02
 -0.19447942D-02  0.23622422D-02 -0.85390261D-02  0.79754563D-03  0.29766805D-04
 -0.11115529D-12 -0.10870745D-12 -0.71827608D-13 -0.75070550D-02 -0.73417358D-02
 -0.48509953D-02 -0.60699763D-02 -0.59363043D-02 -0.39223672D-02 -0.25986780D-13
 -0.12940608D-02 -0.11641818D-02 -0.47016302D-14 -0.15105377D-03 -0.75796440D-04
 -0.12052672D-15 -0.37746996D-05 -0.19335965D-05  0.85426037D-04 -0.63654288D-04
 -0.21771749D-04  0.46132424D-14 -0.50831553D-14  0.67660057D-03  0.15004890D-03
 -0.73564337D-04 -0.76484568D-04 -0.79715069D-15 -0.35466353D-15 -0.79588369D-03
  0.40951849D-04 -0.23335877D-04 -0.17615972D-04 -0.83919644D-15 -0.11790181D-14
 -0.18187985D-05  0.42065213D-14 -0.18765252D-04 -0.15815762D-05 -0.36621295D-14
  0.25065890D-03  0.97941977D-04 -0.89574344D-14 -0.19436314D-03 -0.93197248D-04
  0.19251852D-13  0.71733789D-15  0.59422533D-04  0.10432253D-03 -0.91739286D-15
  0.16358114D-03  0.20872085D-03 -0.12346208D-14 -0.34184874D-03 -0.52168844D-03
 -0.30399881D-14 -0.97740578D-01 -0.18218861D+00 -0.30885027D+00 -0.46764108D+00
 -0.58465436D+00 -0.50290759D+00 -0.19287588D+00 -0.11832406D-04 -0.15663891D-03
 -0.56894100D-03 -0.16877528D-02 -0.19447942D-02  0.23622422D-02 -0.85390261D-02
  0.79754563D-03  0.29766805D-04  0.11585164D-12  0.11330037D-12  0.74862346D-13
  0.75070550D-02  0.73417358D-02  0.48509953D-02 -0.60699763D-02 -0.59363043D-02
 -0.39223672D-02  0.23096314D-13  0.12940608D-02 -0.11641818D-02  0.13244175D-13
  0.15105377D-03 -0.75796440D-04  0.68310710D-15  0.37746996D-05 -0.19335965D-05
  0.85426037D-04 -0.63654288D-04 -0.21771749D-04  0.32762759D-14 -0.10599880D-13
 -0.67660057D-03  0.15004890D-03 -0.73564337D-04 -0.76484568D-04 -0.47950157D-14
  0.33672473D-14  0.79588369D-03  0.40951849D-04 -0.23335877D-04 -0.17615972D-04
 -0.56756585D-14  0.47178831D-14  0.18187985D-05  0.63830207D-14  0.18765252D-04
 -0.15815762D-05 -0.68834377D-14 -0.25065889D-03  0.97941977D-04 -0.12265624D-13
  0.19436314D-03 -0.93197248D-04  0.22257469D-13 -0.29080098D-14 -0.59422533D-04
  0.10432253D-03  0.53987108D-14 -0.16358114D-03  0.20872085D-03  0.33253185D-14
  0.34184874D-03 -0.52168844D-03 -0.17316605D-13
MO    2     MO 0.0        OCC NO =    2.0000037  ORB. ENERGY =    0.000000
 -0.37381433D+00 -0.69672845D+00 -0.11814010D+01 -0.17879248D+01 -0.22302952D+01
 -0.19139251D+01 -0.73293164D+00 -0.44103697D-04 -0.47320373D-03 -0.17443180D-02
 -0.51002836D-02 -0.61460898D-02  0.74036165D-02 -0.34173692D-01  0.62511560D-03
  0.81306780D-04  0.72641716D-13  0.70438029D-13  0.47517078D-13  0.22988068D-12
  0.22290693D-12  0.15037170D-12  0.89707942D-02  0.86986527D-02  0.58680598D-02
  0.19815083D-13  0.37988789D-13 -0.17582967D-02  0.50223751D-15 -0.32307811D-13
 -0.13306077D-03  0.32520988D-16 -0.37221128D-15  0.23716113D-05  0.76658551D-03
  0.15157903D-03 -0.91816454D-03  0.20448457D-14 -0.96011941D-14 -0.71223878D-13
 -0.32571746D-03 -0.34099268D-03  0.66671015D-03 -0.11951958D-14  0.56883860D-15
  0.30953373D-13 -0.38762820D-04  0.13821343D-04  0.24941478D-04 -0.76583414D-15
  0.68698601D-15  0.12382641D-13 -0.33220812D-14  0.96378511D-14  0.31327982D-03
  0.52836886D-14 -0.60484137D-13 -0.30701149D-03  0.46825551D-14  0.31570583D-13
 -0.63282798D-03  0.27972727D-15  0.53859470D-15 -0.69502488D-16 -0.67029369D-04
 -0.51334314D-16  0.26063547D-13  0.11154207D-03 -0.15644498D-14 -0.25855039D-13
  0.89546037D-04  0.30468556D-14 -0.16316883D+00 -0.30417958D+00 -0.51410492D+00
 -0.77279559D+00 -0.94924097D+00 -0.80112589D+00 -0.30124425D+00 -0.14149630D-04
 -0.10575972D-03 -0.39524821D-03 -0.11026809D-02 -0.14772885D-02  0.17444022D-02
 -0.13686631D-01  0.12837792D-03 -0.43206711D-05  0.22162941D-13  0.20779166D-13
  0.14796004D-13 -0.67594635D-14 -0.63374267D-14 -0.45126253D-14  0.24324871D-02
  0.22806113D-02  0.16239311D-02  0.12264414D-13  0.18784375D-12 -0.19669598D-02
  0.27004023D-14  0.52532576D-13 -0.18920537D-04  0.23986234D-16  0.10424216D-14
 -0.82540736D-05  0.79069451D-03  0.14608526D-03 -0.93677977D-03 -0.83475713D-14
  0.53985435D-14 -0.18126014D-12 -0.13566713D-03  0.35358790D-03 -0.21792077D-03
  0.47656996D-14 -0.61407632D-15 -0.13262006D-12 -0.35563936D-05 -0.14499348D-04
  0.18055742D-04  0.35348678D-15 -0.13895207D-15 -0.22179995D-14 -0.91269234D-15
  0.27921276D-14 -0.21736704D-03  0.62081416D-15 -0.14702669D-12  0.49354586D-03
  0.21172629D-14  0.13865031D-12  0.15855526D-03 -0.79255950D-15 -0.39219119D-15
 -0.78652869D-14  0.33599682D-04  0.81835213D-15 -0.15148112D-13  0.73883080D-04
  0.35822145D-15  0.38743972D-13 -0.17468213D-03 -0.66893742D-15  0.18549075D+00
  0.34575508D+00  0.58613188D+00  0.88748294D+00  0.11095491D+01  0.95441123D+00
  0.36603725D+00  0.19061346D-04  0.25233653D-03  0.91653221D-03  0.27188755D-02
  0.31329549D-02 -0.38054403D-02  0.16905780D-01 -0.84370479D-03 -0.29192409D-04
  0.15977476D-12  0.15625622D-12  0.10324509D-12  0.86195451D-02  0.84297269D-02
  0.55698770D-02  0.51798189D-02  0.50657497D-02  0.33471550D-02  0.37813751D-13
  0.75449518D-03  0.22680389D-03  0.51819814D-14  0.78815762D-04 -0.22018821D-04
  0.72401189D-16 -0.17320375D-05  0.21087157D-04 -0.22417950D-04  0.14774192D-03
 -0.12532397D-03  0.12735551D-13  0.51030142D-16 -0.32380507D-03  0.78485821D-05
 -0.55046360D-04  0.47197778D-04  0.12790125D-14  0.19872416D-14  0.27735501D-04
 -0.16967354D-04  0.15864851D-04  0.11025031D-05  0.33673753D-15  0.56883815D-15
 -0.12392803D-06  0.12480071D-14  0.10458994D-03 -0.11809430D-03  0.22213603D-14
  0.11500753D-03  0.58911343D-03 -0.59653817D-14 -0.42877736D-03 -0.23483052D-03
 -0.12862917D-13  0.26845857D-15 -0.51621828D-04 -0.34002306D-05 -0.10963098D-14
 -0.13845887D-03 -0.29034447D-03  0.29093413D-15  0.29332435D-03  0.30054517D-03
  0.14338153D-14  0.18549075D+00  0.34575508D+00  0.58613188D+00  0.88748294D+00
  0.11095491D+01  0.95441123D+00  0.36603725D+00  0.19061346D-04  0.25233654D-03
  0.91653221D-03  0.27188755D-02  0.31329549D-02 -0.38054404D-02  0.16905780D-01
 -0.84370479D-03 -0.29192410D-04 -0.14815465D-12 -0.14489201D-12 -0.95736277D-13
 -0.86195451D-02 -0.84297269D-02 -0.55698770D-02  0.51798189D-02  0.50657497D-02
  0.33471550D-02 -0.30670921D-13 -0.75449518D-03  0.22680389D-03 -0.11279184D-13
 -0.78815762D-04 -0.22018821D-04 -0.66449668D-15  0.17320375D-05  0.21087157D-04
 -0.22417950D-04  0.14774192D-03 -0.12532397D-03 -0.24619181D-14 -0.56797812D-14
  0.32380507D-03  0.78485822D-05 -0.55046360D-04  0.47197778D-04  0.15217769D-14
 -0.14060817D-14 -0.27735500D-04 -0.16967354D-04  0.15864851D-04  0.11025031D-05
  0.36051256D-14 -0.32474740D-14  0.12392798D-06 -0.58349025D-14 -0.10458994D-03
 -0.11809430D-03  0.50889793D-14 -0.11500753D-03  0.58911343D-03  0.12415728D-13
  0.42877736D-03 -0.23483052D-03 -0.27331276D-13  0.20132358D-14  0.51621828D-04
 -0.34002305D-05 -0.40268093D-14  0.13845887D-03 -0.29034447D-03 -0.20128980D-14
 -0.29332435D-03  0.30054517D-03  0.10839999D-13
MO    3     MO 0.0        OCC NO =    2.0000022  ORB. ENERGY =    0.000000
 -0.22944738D-09 -0.42765220D-09 -0.72514440D-09 -0.10974289D-08 -0.13689561D-08
 -0.11747680D-08 -0.44987373D-09 -0.28306066D-13 -0.30370551D-12 -0.11195157D-11
 -0.32733982D-11 -0.39446040D-11  0.47516935D-11 -0.21117500D-10  0.54853442D-12
  0.21346759D-12  0.31860863D-13  0.30894320D-13  0.20841126D-13 -0.88348507D-03
 -0.85668333D-03 -0.57791352D-03  0.65036483D-12  0.63063511D-12  0.42542272D-12
  0.86252849D-14 -0.11533400D-03 -0.26788692D-11 -0.43594899D-14  0.92542776D-04
 -0.18312133D-12 -0.48294602D-15  0.14714366D-04 -0.22896117D-13 -0.46380153D-14
  0.64498433D-13 -0.59860418D-13 -0.40982139D-14  0.56003571D-14  0.19103177D-03
 -0.15540859D-12 -0.47111089D-12  0.62651947D-12  0.25857065D-14 -0.11814444D-14
 -0.67365622D-04  0.29368409D-14 -0.25360159D-13  0.22423318D-13 -0.10953485D-14
  0.28910636D-14 -0.25860998D-04 -0.19649711D-14 -0.10274400D-04  0.62733362D-12
  0.32332900D-14  0.16391291D-03 -0.11231188D-11  0.26616235D-14 -0.13308971D-03
 -0.75888209D-12 -0.21499058D-13  0.23117271D-15  0.30396820D-05 -0.12870382D-12
  0.10481061D-14 -0.69829606D-04  0.57067333D-13 -0.17416242D-14  0.60710560D-04
  0.32904414D-12  0.20859377D-14 -0.25862722D-09 -0.48213325D-09 -0.81487088D-09
 -0.12249029D-08 -0.15045738D-08 -0.12698072D-08 -0.47748068D-09 -0.21064970D-13
 -0.15744760D-12 -0.58841762D-12 -0.16415935D-11 -0.21992828D-11  0.25969429D-11
 -0.20953585D-10  0.15075875D-12 -0.20763348D-13  0.17469172D-13  0.16378459D-13
  0.11662438D-13 -0.61981034D-04 -0.58111159D-04 -0.41378607D-04  0.40626859D-11
  0.38090263D-11  0.27122536D-11  0.42873250D-14 -0.39291609D-03 -0.13324510D-11
  0.24388963D-14  0.54667408D-04 -0.25541253D-12  0.15236044D-15 -0.63837585D-05
 -0.97239811D-16  0.17586495D-11 -0.47202757D-12 -0.12866219D-11 -0.26194604D-14
 -0.60739103D-14  0.60339621D-03 -0.27192451D-13  0.22806736D-12 -0.20087491D-12
  0.13067665D-14  0.77226033D-14  0.37717625D-03 -0.78715349D-14  0.11834500D-13
 -0.39629649D-14  0.38458368D-15  0.33907297D-15 -0.28324175D-04  0.11901950D-14
 -0.23230256D-04 -0.73629144D-12 -0.28883568D-14  0.51787338D-03 -0.15429451D-12
 -0.68222810D-15 -0.44818261D-03  0.23631688D-11  0.11838274D-15 -0.14274284D-15
  0.43547101D-04 -0.41660716D-13 -0.28634701D-15  0.30890200D-04  0.53103828D-13
  0.71457551D-15 -0.16153150D-03  0.71878321D-13  0.33771299D-15  0.42245590D+00
  0.78745853D+00  0.13349176D+01  0.20212458D+01  0.25270025D+01  0.21736753D+01
  0.83365126D+00  0.38704108D-04  0.51236992D-03  0.18610208D-02  0.55206831D-02
  0.63614722D-02 -0.77269555D-02  0.39158339D-01 -0.16663160D-03  0.82782547D-04
  0.13155968D-12  0.12866249D-12  0.85012749D-13  0.97469407D-02  0.95322951D-02
  0.62983904D-02  0.74415177D-02  0.72776418D-02  0.48086456D-02  0.27196892D-13
 -0.18677447D-03  0.15154621D-03  0.68654690D-14  0.23623840D-03  0.39404323D-03
  0.11716821D-15  0.21135568D-04  0.41541331D-05 -0.14872241D-03  0.16242456D-03
 -0.13702146D-04  0.25433162D-14  0.46746432D-14  0.25398592D-03  0.15594986D-03
 -0.24689643D-03  0.90946576D-04  0.58092791D-14  0.22171960D-14 -0.51836464D-03
 -0.58563834D-04  0.14249107D-04  0.44314727D-04  0.18560938D-14  0.14635716D-14
  0.13196626D-03  0.10702488D-14 -0.27304289D-03  0.12131559D-04 -0.49926973D-15
  0.88321832D-03  0.18450456D-03 -0.27114767D-14 -0.64089655D-04 -0.22089924D-03
  0.39039284D-14 -0.14726324D-14  0.51090400D-04  0.18899063D-04  0.31981814D-14
 -0.20798234D-03 -0.30877676D-04  0.12197158D-14  0.54711137D-04 -0.25819512D-04
  0.67082915D-14 -0.42245591D+00 -0.78745853D+00 -0.13349177D+01 -0.20212459D+01
 -0.25270025D+01 -0.21736753D+01 -0.83365126D+00 -0.38704108D-04 -0.51236992D-03
 -0.18610208D-02 -0.55206831D-02 -0.63614722D-02  0.77269555D-02 -0.39158339D-01
  0.16663160D-03 -0.82782547D-04 -0.33047359D-13 -0.32319595D-13 -0.21354923D-13
  0.97469407D-02  0.95322952D-02  0.62983904D-02 -0.74415177D-02 -0.72776418D-02
 -0.48086456D-02 -0.58338411D-14 -0.18677448D-03 -0.15154621D-03 -0.63632552D-15
  0.23623840D-03 -0.39404323D-03 -0.46474290D-15  0.21135568D-04 -0.41541331D-05
  0.14872241D-03 -0.16242456D-03  0.13702146D-04 -0.11157014D-14 -0.11348245D-13
  0.25398592D-03 -0.15594986D-03  0.24689643D-03 -0.90946576D-04 -0.17339287D-14
  0.45751879D-14 -0.51836464D-03  0.58563834D-04 -0.14249107D-04 -0.44314727D-04
 -0.80825943D-15 -0.42128464D-15  0.13196626D-03 -0.10885537D-14 -0.27304289D-03
 -0.12131559D-04  0.26887883D-13  0.88321832D-03 -0.18450456D-03 -0.23622222D-13
 -0.64089656D-04  0.22089924D-03  0.12195315D-13 -0.87888091D-15  0.51090400D-04
 -0.18899063D-04  0.80321290D-15 -0.20798234D-03  0.30877676D-04  0.18334298D-14
  0.54711136D-04  0.25819514D-04 -0.45263672D-14
MO    4     MO 0.0        OCC NO =    2.0000016  ORB. ENERGY =    0.000000
  0.10510282D+00  0.19589438D+00  0.33216645D+00  0.50269859D+00  0.62707687D+00
  0.53812525D+00  0.20607338D+00  0.13507585D-04  0.14492753D-03  0.53423015D-03
  0.15620576D-02  0.18823554D-02 -0.22674966D-02  0.96881775D-02 -0.40452016D-03
 -0.17562896D-03  0.36203453D-13  0.35105171D-13  0.23681741D-13 -0.13171820D-11
 -0.12772235D-11 -0.86160743D-12  0.52482277D-03  0.50890154D-03  0.34330197D-03
  0.72413768D-15 -0.14594634D-12  0.15556346D-02 -0.13947041D-13  0.14442045D-12
  0.11241840D-03 -0.81720353D-15  0.21753717D-13  0.19321909D-04  0.11667346D-03
 -0.40407786D-04 -0.76265674D-04  0.19355032D-13 -0.38200068D-13  0.27183003D-12
  0.52450329D-04  0.28552221D-03 -0.33797254D-03  0.97893719D-15  0.20536750D-13
 -0.10371604D-12 -0.11926708D-04  0.22295340D-04 -0.10368632D-04  0.16442271D-15
  0.65038899D-14 -0.39144784D-13  0.29940181D-16 -0.89294446D-14 -0.36761339D-03
 -0.10298860D-13  0.20362337D-12  0.70666286D-03  0.10209039D-13 -0.17683504D-12
  0.39617732D-03 -0.81917619D-14  0.18542924D-14  0.25327239D-14  0.79694778D-04
  0.42023668D-14 -0.88794977D-13 -0.16863265D-04 -0.97652441D-14  0.81196805D-13
 -0.22222107D-03  0.48996249D-15  0.14700423D+00  0.27404550D+00  0.46317423D+00
  0.69623725D+00  0.85520276D+00  0.72176096D+00  0.27140097D+00  0.11546344D-04
  0.86301766D-04  0.32252941D-03  0.89980682D-03  0.12054931D-02 -0.14234625D-02
  0.11803442D-01  0.10660717D-04  0.23456123D-04  0.14813375D-13  0.13888480D-13
  0.98894253D-14 -0.10918636D-12 -0.10236916D-12 -0.72892938D-13 -0.23517986D-02
 -0.22049606D-02 -0.15700633D-02  0.14030642D-13 -0.52888230D-12  0.61764310D-03
  0.25254993D-14  0.99468501D-13  0.20285969D-03  0.89601479D-16 -0.91918293D-14
 -0.13713768D-05 -0.10735669D-02  0.33852961D-03  0.73503728D-03  0.90022639D-14
  0.68403629D-14  0.82575429D-12 -0.28697463D-04 -0.10007427D-03  0.12877173D-03
 -0.12237002D-14  0.20086287D-13  0.51658676D-12  0.40417144D-05 -0.12767619D-04
  0.87259045D-05 -0.54526254D-16  0.14758775D-14 -0.44173053D-13 -0.13813058D-14
 -0.28782620D-13  0.47625600D-03 -0.66138452D-14  0.71743424D-12  0.21067120D-03
  0.10757763D-13 -0.63108638D-12 -0.16394392D-02  0.10516725D-14  0.12914247D-15
  0.70863182D-13  0.42798619D-04 -0.20955119D-14  0.36992882D-13 -0.24985917D-04
  0.17080845D-14 -0.24958243D-12 -0.10340994D-03  0.34979526D-15  0.36672707D+00
  0.68357988D+00  0.11588202D+01  0.17546105D+01  0.21936496D+01  0.18869320D+01
  0.72367903D+00  0.31485591D-04  0.41681027D-03  0.15139307D-02  0.44910470D-02
  0.51750246D-02 -0.62858382D-02  0.34321753D-01  0.26617255D-03  0.82142331D-04
 -0.12264212D-12 -0.11994131D-12 -0.79250296D-13  0.62574002D-02  0.61196007D-02
  0.40434789D-02  0.39563369D-02  0.38692110D-02  0.25565513D-02 -0.29113152D-13
 -0.53980556D-03 -0.62765131D-03 -0.13254147D-15  0.30649825D-03  0.16284190D-03
  0.17881589D-15  0.49436984D-05  0.13523750D-04 -0.23738231D-03  0.17897401D-03
  0.58408302D-04 -0.46403109D-14  0.44047721D-14  0.78703554D-03  0.25057543D-03
 -0.18142679D-03 -0.69148641D-04 -0.26007538D-14  0.17517208D-14 -0.98599060D-03
 -0.44185163D-04  0.34483326D-04  0.97018371D-05  0.27573436D-14  0.14183834D-14
  0.61306521D-04  0.44276164D-14  0.22316121D-04 -0.76011370D-04 -0.11022778D-13
  0.26648806D-03  0.45380746D-03 -0.22600714D-14 -0.33343642D-03 -0.22577335D-03
 -0.17695752D-13 -0.38797399D-15  0.31615072D-04  0.10054003D-03  0.12892614D-14
  0.11095051D-03  0.44995360D-04 -0.12533942D-15 -0.20579572D-03 -0.34661545D-03
  0.30401772D-14  0.36672706D+00  0.68357988D+00  0.11588202D+01  0.17546105D+01
  0.21936496D+01  0.18869320D+01  0.72367903D+00  0.31485591D-04  0.41681027D-03
  0.15139307D-02  0.44910470D-02  0.51750246D-02 -0.62858381D-02  0.34321753D-01
  0.26617255D-03  0.82142330D-04  0.23791060D-12  0.23267137D-12  0.15373581D-12
 -0.62574002D-02 -0.61196007D-02 -0.40434789D-02  0.39563368D-02  0.38692110D-02
  0.25565513D-02  0.52973262D-13  0.53980556D-03 -0.62765131D-03  0.14935005D-13
 -0.30649824D-03  0.16284190D-03  0.53747724D-15 -0.49436983D-05  0.13523750D-04
 -0.23738231D-03  0.17897401D-03  0.58408302D-04  0.95721658D-15 -0.10621433D-13
 -0.78703554D-03  0.25057543D-03 -0.18142679D-03 -0.69148641D-04 -0.58585102D-14
  0.56924151D-14  0.98599060D-03 -0.44185163D-04  0.34483326D-04  0.97018369D-05
 -0.48810191D-14  0.31036087D-14 -0.61306520D-04  0.61612887D-14 -0.22316121D-04
 -0.76011370D-04 -0.20055708D-13 -0.26648806D-03  0.45380746D-03  0.15718421D-14
  0.33343642D-03 -0.22577335D-03  0.19207946D-13 -0.15899723D-14 -0.31615072D-04
  0.10054003D-03  0.38244317D-14 -0.11095051D-03  0.44995360D-04  0.94548519D-15
  0.20579572D-03 -0.34661545D-03 -0.10215141D-13
MO    5     MO 0.0        OCC NO =    1.9861831  ORB. ENERGY =    0.000000
 -0.10447186D-01 -0.19471838D-01 -0.33017237D-01 -0.49968077D-01 -0.62331238D-01
 -0.53489476D-01 -0.20483627D-01 -0.16935079D-03 -0.18170229D-02 -0.66978885D-02
 -0.19584233D-01 -0.23599953D-01  0.28428644D-01  0.14855080D-01  0.18701183D-03
 -0.19077643D-02  0.27212704D-13  0.26387170D-13  0.17800629D-13 -0.26243136D-11
 -0.25447014D-11 -0.17166405D-11 -0.71386338D-01 -0.69220735D-01 -0.46695899D-01
  0.97860033D-14 -0.69321928D-12 -0.13308186D-01  0.92119925D-14 -0.26188389D-12
  0.21360017D-02  0.76567816D-15  0.35609504D-14  0.23125800D-03 -0.42173961D-02
 -0.44410159D-02  0.86584119D-02  0.94301726D-14  0.59345094D-14  0.22365909D-12
 -0.50722805D-03  0.62020914D-03 -0.11298109D-03 -0.43741836D-15 -0.87887762D-14
  0.40739780D-13  0.12426272D-03  0.53523957D-03 -0.65950230D-03  0.64287626D-15
 -0.45904669D-14  0.63208904D-13  0.84276668D-15  0.85460806D-14 -0.16988229D-02
 -0.46819236D-15  0.34922016D-13  0.36724126D-02 -0.20601077D-14 -0.60560258D-13
  0.14240561D-02  0.67305367D-14 -0.16229308D-14  0.40362879D-14  0.51031033D-03
 -0.84593919D-15 -0.21930135D-13 -0.21809437D-03  0.57147317D-14  0.98212710D-14
 -0.13128366D-02 -0.21159297D-14 -0.17406640D-01 -0.32449483D-01 -0.54844047D-01
 -0.82440832D-01 -0.10126380D+00 -0.85463071D-01 -0.32136347D-01 -0.32019579D-03
 -0.23932652D-02 -0.89441784D-02 -0.24952865D-01 -0.33429960D-01  0.39474549D-01
  0.15865981D-01  0.23141639D-02  0.22416519D-03  0.39003001D-13  0.36567793D-13
  0.26038447D-13 -0.16333740D-11 -0.15313920D-11 -0.10904423D-11 -0.32863146D-01
 -0.30811289D-01 -0.21939473D-01 -0.63576889D-14 -0.58885626D-12 -0.46876397D-02
 -0.49439805D-14  0.96595758D-13  0.14350059D-02 -0.23253930D-15 -0.34124823D-14
 -0.33410190D-05 -0.19409268D-01  0.91875735D-02  0.10221695D-01  0.71989485D-14
 -0.41896188D-14  0.73135633D-12 -0.25986884D-02  0.11306226D-02  0.14680658D-02
  0.17032528D-14 -0.54226411D-14  0.17460550D-12  0.84867065D-04 -0.87372492D-04
  0.25054266D-05 -0.14663273D-16 -0.36847991D-15 -0.12903494D-13  0.12985670D-14
  0.13370317D-13  0.34853092D-02  0.42270291D-15  0.16922057D-12  0.34272110D-02
 -0.43184040D-14 -0.20933152D-12 -0.13883138D-01 -0.31117632D-14  0.72688366D-15
 -0.37452888D-13  0.25796419D-03 -0.49793541D-15  0.44102482D-14  0.33666167D-03
 -0.16827156D-14  0.10794842D-12 -0.11105542D-02 -0.11406828D-14 -0.89099586D-01
 -0.16608178D+00 -0.28154562D+00 -0.42629814D+00 -0.53296657D+00 -0.45844683D+00
 -0.17582422D+00 -0.12973416D-02 -0.17174374D-01 -0.62380450D-01 -0.18505043D+00
 -0.21323324D+00  0.25900354D+00  0.14897080D+00  0.67529644D-01  0.16676277D-02
 -0.44766404D-13 -0.43780565D-13 -0.28927671D-13 -0.37857745D-01 -0.37024047D-01
 -0.24463354D-01 -0.12980581D+00 -0.12694725D+00 -0.83879412D-01 -0.13060213D-13
 -0.36208136D-02 -0.26948870D-01  0.22404304D-14 -0.32748315D-02 -0.62162536D-02
  0.36967862D-15 -0.50426368D-04 -0.50413030D-04 -0.60261793D-02  0.73353643D-02
 -0.13091850D-02  0.27159271D-14 -0.28814988D-14  0.13855397D-01 -0.29890731D-02
  0.41161639D-02 -0.11270908D-02  0.93388272D-15  0.25428462D-15  0.75458087D-02
  0.21424666D-03 -0.21823006D-03  0.39834036D-05  0.26476149D-14  0.14586433D-14
 -0.88752982D-03  0.27163541D-14  0.16622452D-02 -0.21548032D-02 -0.96429563D-14
 -0.64307575D-02 -0.23898156D-02  0.14938941D-14  0.14440220D-02  0.88542251D-02
 -0.47101499D-14 -0.15086970D-14  0.28703994D-03 -0.21893076D-03  0.37577806D-14
 -0.87404713D-03 -0.10439730D-02  0.76831034D-15  0.12927301D-04  0.17007653D-02