 f2co-wavefunction
GAUSSIAN            184 MOL ORBITALS    288 PRIMITIVES        4 NUCLEI
  O    1    (CENTRE  1)  -0.01889726  0.00000000  1.28487582  CHARGE =  8.0
  C    2    (CENTRE  2)   0.00000000  0.00000000 -0.93015344  CHARGE =  6.0
  F    3    (CENTRE  3)   0.00000000 -2.00098943 -2.38919020  CHARGE =  9.0
  F    4    (CENTRE  4)   0.00000000  2.00098943 -2.38919020  CHARGE =  9.0
CENTRE ASSIGNMENTS    1  1  1  1  1  1  1  1  1  1  1  1  1  1  1  1  1  1  1  1
CENTRE ASSIGNMENTS    1  1  1  1  1  1  1  1  1  1  1  1  1  1  1  1  1  1  1  1
CENTRE ASSIGNMENTS    1  1  1  1  1  1  1  1  1  1  1  1  1  1  1  1  1  1  1  1
CENTRE ASSIGNMENTS    1  1  1  1  1  1  1  1  1  1  1  1  2  2  2  2  2  2  2  2
CENTRE ASSIGNMENTS    2  2  2  2  2  2  2  2  2  2  2  2  2  2  2  2  2  2  2  2
CENTRE ASSIGNMENTS    2  2  2  2  2  2  2  2  2  2  2  2  2  2  2  2  2  2  2  2
CENTRE ASSIGNMENTS    2  2  2  2  2  2  2  2  2  2  2  2  2  2  2  2  2  2  2  2
CENTRE ASSIGNMENTS    2  2  2  2  3  3  3  3  3  3  3  3  3  3  3  3  3  3  3  3
CENTRE ASSIGNMENTS    3  3  3  3  3  3  3  3  3  3  3  3  3  3  3  3  3  3  3  3
CENTRE ASSIGNMENTS    3  3  3  3  3  3  3  3  3  3  3  3  3  3  3  3  3  3  3  3
CENTRE ASSIGNMENTS    3  3  3  3  3  3  3  3  3  3  3  3  3  3  3  3  4  4  4  4
CENTRE ASSIGNMENTS    4  4  4  4  4  4  4  4  4  4  4  4  4  4  4  4  4  4  4  4
CENTRE ASSIGNMENTS    4  4  4  4  4  4  4  4  4  4  4  4  4  4  4  4  4  4  4  4
CENTRE ASSIGNMENTS    4  4  4  4  4  4  4  4  4  4  4  4  4  4  4  4  4  4  4  4
CENTRE ASSIGNMENTS    4  4  4  4  4  4  4  4
TYPE ASSIGNMENTS      1  1  1  1  1  1  1  1  1  1  1  1  1  1  1  1  2  2  2  3
TYPE ASSIGNMENTS      3  3  4  4  4  2  3  4  2  3  4  2  3  4  5  6  7  8  9 10
TYPE ASSIGNMENTS      5  6  7  8  9 10  5  6  7  8  9 10 11 12 13 17 14 15 18 19
TYPE ASSIGNMENTS     16 20 11 12 13 17 14 15 18 19 16 20  1  1  1  1  1  1  1  1
TYPE ASSIGNMENTS      1  1  1  1  1  1  1  1  2  2  2  3  3  3  4  4  4  2  3  4
TYPE ASSIGNMENTS      2  3  4  2  3  4  5  6  7  8  9 10  5  6  7  8  9 10  5  6
TYPE ASSIGNMENTS      7  8  9 10 11 12 13 17 14 15 18 19 16 20 11 12 13 17 14 15
TYPE ASSIGNMENTS     18 19 16 20  1  1  1  1  1  1  1  1  1  1  1  1  1  1  1  1
TYPE ASSIGNMENTS      2  2  2  3  3  3  4  4  4  2  3  4  2  3  4  2  3  4  5  6
TYPE ASSIGNMENTS      7  8  9 10  5  6  7  8  9 10  5  6  7  8  9 10 11 12 13 17
TYPE ASSIGNMENTS     14 15 18 19 16 20 11 12 13 17 14 15 18 19 16 20  1  1  1  1
TYPE ASSIGNMENTS      1  1  1  1  1  1  1  1  1  1  1  1  2  2  2  3  3  3  4  4
TYPE ASSIGNMENTS      4  2  3  4  2  3  4  2  3  4  5  6  7  8  9 10  5  6  7  8
TYPE ASSIGNMENTS      9 10  5  6  7  8  9 10 11 12 13 17 14 15 18 19 16 20 11 12
TYPE ASSIGNMENTS     13 17 14 15 18 19 16 20
EXPONENTS  0.1533000D+05 0.2299000D+04 0.5224000D+03 0.1473000D+03 0.4755000D+02
EXPONENTS  0.1676000D+02 0.6207000D+01 0.5224000D+03 0.1473000D+03 0.4755000D+02
EXPONENTS  0.1676000D+02 0.6207000D+01 0.6882000D+00 0.1752000D+01 0.2384000D+00
EXPONENTS  0.7376000D-01 0.3446000D+02 0.7749000D+01 0.2280000D+01 0.3446000D+02
EXPONENTS  0.7749000D+01 0.2280000D+01 0.3446000D+02 0.7749000D+01 0.2280000D+01
EXPONENTS  0.7156000D+00 0.7156000D+00 0.7156000D+00 0.2140000D+00 0.2140000D+00
EXPONENTS  0.2140000D+00 0.5974000D-01 0.5974000D-01 0.5974000D-01 0.2314000D+01
EXPONENTS  0.2314000D+01 0.2314000D+01 0.2314000D+01 0.2314000D+01 0.2314000D+01
EXPONENTS  0.6450000D+00 0.6450000D+00 0.6450000D+00 0.6450000D+00 0.6450000D+00
EXPONENTS  0.6450000D+00 0.2140000D+00 0.2140000D+00 0.2140000D+00 0.2140000D+00
EXPONENTS  0.2140000D+00 0.2140000D+00 0.1428000D+01 0.1428000D+01 0.1428000D+01
EXPONENTS  0.1428000D+01 0.1428000D+01 0.1428000D+01 0.1428000D+01 0.1428000D+01
EXPONENTS  0.1428000D+01 0.1428000D+01 0.5000000D+00 0.5000000D+00 0.5000000D+00
EXPONENTS  0.5000000D+00 0.5000000D+00 0.5000000D+00 0.5000000D+00 0.5000000D+00
EXPONENTS  0.5000000D+00 0.5000000D+00 0.8236000D+04 0.1235000D+04 0.2808000D+03
EXPONENTS  0.7927000D+02 0.2559000D+02 0.8997000D+01 0.3319000D+01 0.2808000D+03
EXPONENTS  0.7927000D+02 0.2559000D+02 0.8997000D+01 0.3319000D+01 0.3643000D+00
EXPONENTS  0.9059000D+00 0.1285000D+00 0.4402000D-01 0.1871000D+02 0.4133000D+01
EXPONENTS  0.1200000D+01 0.1871000D+02 0.4133000D+01 0.1200000D+01 0.1871000D+02
EXPONENTS  0.4133000D+01 0.1200000D+01 0.3827000D+00 0.3827000D+00 0.3827000D+00
EXPONENTS  0.1209000D+00 0.1209000D+00 0.1209000D+00 0.3569000D-01 0.3569000D-01
EXPONENTS  0.3569000D-01 0.1097000D+01 0.1097000D+01 0.1097000D+01 0.1097000D+01
EXPONENTS  0.1097000D+01 0.1097000D+01 0.3180000D+00 0.3180000D+00 0.3180000D+00
EXPONENTS  0.3180000D+00 0.3180000D+00 0.3180000D+00 0.1000000D+00 0.1000000D+00
EXPONENTS  0.1000000D+00 0.1000000D+00 0.1000000D+00 0.1000000D+00 0.7610000D+00
EXPONENTS  0.7610000D+00 0.7610000D+00 0.7610000D+00 0.7610000D+00 0.7610000D+00
EXPONENTS  0.7610000D+00 0.7610000D+00 0.7610000D+00 0.7610000D+00 0.2680000D+00
EXPONENTS  0.2680000D+00 0.2680000D+00 0.2680000D+00 0.2680000D+00 0.2680000D+00
EXPONENTS  0.2680000D+00 0.2680000D+00 0.2680000D+00 0.2680000D+00 0.1950000D+05
EXPONENTS  0.2923000D+04 0.6645000D+03 0.1875000D+03 0.6062000D+02 0.2142000D+02
EXPONENTS  0.7950000D+01 0.6645000D+03 0.1875000D+03 0.6062000D+02 0.2142000D+02
EXPONENTS  0.7950000D+01 0.8815000D+00 0.2257000D+01 0.3041000D+00 0.9158000D-01
EXPONENTS  0.4388000D+02 0.9926000D+01 0.2930000D+01 0.4388000D+02 0.9926000D+01
EXPONENTS  0.2930000D+01 0.4388000D+02 0.9926000D+01 0.2930000D+01 0.9132000D+00
EXPONENTS  0.9132000D+00 0.9132000D+00 0.2672000D+00 0.2672000D+00 0.2672000D+00
EXPONENTS  0.7361000D-01 0.7361000D-01 0.7361000D-01 0.3107000D+01 0.3107000D+01
EXPONENTS  0.3107000D+01 0.3107000D+01 0.3107000D+01 0.3107000D+01 0.8550000D+00
EXPONENTS  0.8550000D+00 0.8550000D+00 0.8550000D+00 0.8550000D+00 0.8550000D+00
EXPONENTS  0.2920000D+00 0.2920000D+00 0.2920000D+00 0.2920000D+00 0.2920000D+00
EXPONENTS  0.2920000D+00 0.1917000D+01 0.1917000D+01 0.1917000D+01 0.1917000D+01
EXPONENTS  0.1917000D+01 0.1917000D+01 0.1917000D+01 0.1917000D+01 0.1917000D+01
EXPONENTS  0.1917000D+01 0.7240000D+00 0.7240000D+00 0.7240000D+00 0.7240000D+00
EXPONENTS  0.7240000D+00 0.7240000D+00 0.7240000D+00 0.7240000D+00 0.7240000D+00
EXPONENTS  0.7240000D+00 0.1950000D+05 0.2923000D+04 0.6645000D+03 0.1875000D+03
EXPONENTS  0.6062000D+02 0.2142000D+02 0.7950000D+01 0.6645000D+03 0.1875000D+03
EXPONENTS  0.6062000D+02 0.2142000D+02 0.7950000D+01 0.8815000D+00 0.2257000D+01
EXPONENTS  0.3041000D+00 0.9158000D-01 0.4388000D+02 0.9926000D+01 0.2930000D+01
EXPONENTS  0.4388000D+02 0.9926000D+01 0.2930000D+01 0.4388000D+02 0.9926000D+01
EXPONENTS  0.2930000D+01 0.9132000D+00 0.9132000D+00 0.9132000D+00 0.2672000D+00
EXPONENTS  0.2672000D+00 0.2672000D+00 0.7361000D-01 0.7361000D-01 0.7361000D-01
EXPONENTS  0.3107000D+01 0.3107000D+01 0.3107000D+01 0.3107000D+01 0.3107000D+01
EXPONENTS  0.3107000D+01 0.8550000D+00 0.8550000D+00 0.8550000D+00 0.8550000D+00
EXPONENTS  0.8550000D+00 0.8550000D+00 0.2920000D+00 0.2920000D+00 0.2920000D+00
EXPONENTS  0.2920000D+00 0.2920000D+00 0.2920000D+00 0.1917000D+01 0.1917000D+01
EXPONENTS  0.1917000D+01 0.1917000D+01 0.1917000D+01 0.1917000D+01 0.1917000D+01
EXPONENTS  0.1917000D+01 0.1917000D+01 0.1917000D+01 0.7240000D+00 0.7240000D+00
EXPONENTS  0.7240000D+00 0.7240000D+00 0.7240000D+00 0.7240000D+00 0.7240000D+00
EXPONENTS  0.7240000D+00 0.7240000D+00 0.7240000D+00
MO    1     MO 0.0        OCC NO =    2.0000067  ORB. ENERGY =    0.000000
 -0.32220501D+00 -0.60053715D+00 -0.10182951D+01 -0.15410814D+01 -0.19223776D+01
 -0.16496860D+01 -0.63174208D+00 -0.40144180D-04 -0.43072071D-03 -0.15877176D-02
 -0.46423932D-02 -0.55943096D-02  0.67389387D-02 -0.29032774D-01  0.49048145D-03
 -0.49960112D-04 -0.18779936D-03 -0.18210221D-03 -0.12284507D-03 -0.68435218D-13
 -0.66359141D-13 -0.44765485D-13  0.19770535D-01  0.19170768D-01  0.12932487D-01
 -0.20849802D-04 -0.20732647D-13  0.25046152D-02 -0.35078760D-05 -0.54877677D-14
  0.66405123D-03 -0.11478892D-06  0.18479712D-14  0.14584138D-04  0.12276013D-02
  0.65203095D-03 -0.18796322D-02 -0.32247488D-15  0.55601115D-04  0.44501042D-13
  0.50350672D-04 -0.25092176D-04 -0.25258495D-04  0.31280612D-14 -0.17517007D-05
 -0.19155264D-13  0.50127550D-04 -0.18428954D-05 -0.48284655D-04  0.12702404D-14
  0.72145452D-06  0.19038974D-14 -0.86715887D-05 -0.34607402D-14 -0.54823870D-03
 -0.13579338D-05  0.16723365D-13  0.10326066D-02  0.27372700D-04 -0.63411439D-14
  0.61210950D-03  0.75019687D-14  0.24125406D-06 -0.99627383D-15  0.13147152D-04
 -0.92523367D-06 -0.11826131D-13 -0.22393676D-04  0.20147150D-06  0.14814953D-13
 -0.17047781D-04 -0.40538581D-14  0.23919849D+00  0.44591416D+00  0.75365569D+00
  0.11328851D+01  0.13915464D+01  0.11744161D+01  0.44161111D+00  0.26516145D-04
  0.19819176D-03  0.74068785D-03  0.20664038D-02  0.27684113D-02 -0.32689776D-02
  0.19352248D-01 -0.41690040D-04  0.15421101D-04  0.29883509D-04  0.28017689D-04
  0.19950264D-04  0.12813682D-13  0.12013642D-13  0.85544286D-14 -0.40563724D-02
 -0.38031070D-02 -0.27080387D-02 -0.89622947D-05 -0.93172442D-13  0.48161265D-03
 -0.11267147D-05 -0.21537670D-14  0.81617967D-04  0.22990760D-07 -0.10194249D-14
  0.82293225D-06 -0.95489352D-03  0.40705086D-03  0.54784265D-03 -0.11520548D-16
 -0.15833914D-04  0.74621509D-13  0.21530580D-03 -0.12680261D-03 -0.88503191D-04
  0.57525293D-14  0.97737963D-06  0.46626601D-13 -0.29526414D-07 -0.26928832D-05
  0.27224096D-05  0.21560031D-15 -0.16596508D-06 -0.25522966D-14  0.48256593D-05
 -0.12698751D-14  0.56086394D-03  0.60545568D-05  0.72965839D-13 -0.33649843D-03
 -0.20531535D-04 -0.69156214D-13 -0.13460934D-02 -0.36033670D-14 -0.15324727D-07
 -0.30976996D-14 -0.88314874D-04 -0.11536205D-05  0.44849597D-14 -0.11535929D-04
  0.11995947D-05  0.48081392D-14  0.27648055D-03 -0.49929816D-14 -0.96285949D-01
 -0.17947718D+00 -0.30425380D+00 -0.46068140D+00 -0.57595321D+00 -0.49542304D+00
 -0.19000540D+00 -0.11689027D-04 -0.15474083D-03 -0.56204684D-03 -0.16673014D-02
 -0.19212281D-02  0.23336176D-02 -0.84127915D-02  0.78002619D-03  0.27645035D-04
  0.26058438D-05  0.25484584D-05  0.16838742D-05 -0.74006310D-02 -0.72376555D-02
 -0.47822250D-02 -0.60163574D-02 -0.58838661D-02 -0.38877191D-02  0.18112898D-05
 -0.12761375D-02 -0.11544947D-02  0.16234964D-05 -0.15255825D-03 -0.84508418D-04
 -0.57932234D-07 -0.37426822D-05 -0.19637024D-05  0.79827683D-04 -0.63936197D-04
 -0.15891486D-04 -0.53657632D-05  0.37895673D-05  0.66512662D-03  0.15030984D-03
 -0.73148707D-04 -0.77161131D-04  0.33534495D-05 -0.34852518D-06 -0.78482130D-03
  0.42125107D-04 -0.22692773D-04 -0.19432334D-04  0.45575982D-06  0.10836304D-05
 -0.55358823D-05  0.34482927D-06 -0.17821659D-04 -0.26836131D-05 -0.40203862D-05
  0.23986675D-03  0.10254466D-03  0.29858984D-05 -0.18640178D-03 -0.94493820D-04
 -0.16145288D-05 -0.48943362D-06  0.57561571D-04  0.10165948D-03  0.31597271D-05
  0.16476864D-03  0.20476950D-03 -0.16914262D-05 -0.33745335D-03 -0.50974795D-03
  0.14396068D-05 -0.96285950D-01 -0.17947718D+00 -0.30425380D+00 -0.46068140D+00
 -0.57595321D+00 -0.49542304D+00 -0.19000540D+00 -0.11689027D-04 -0.15474083D-03
 -0.56204684D-03 -0.16673014D-02 -0.19212281D-02  0.23336176D-02 -0.84127915D-02
  0.78002619D-03  0.27645035D-04  0.26058439D-05  0.25484585D-05  0.16838743D-05
  0.74006310D-02  0.72376555D-02  0.47822250D-02 -0.60163574D-02 -0.58838661D-02
 -0.38877191D-02  0.18112898D-05  0.12761375D-02 -0.11544947D-02  0.16234964D-05
  0.15255825D-03 -0.84508418D-04 -0.57932235D-07  0.37426822D-05 -0.19637024D-05
  0.79827684D-04 -0.63936197D-04 -0.15891486D-04  0.53657632D-05  0.37895673D-05
 -0.66512662D-03  0.15030984D-03 -0.73148706D-04 -0.77161131D-04 -0.33534495D-05
 -0.34852518D-06  0.78482130D-03  0.42125107D-04 -0.22692773D-04 -0.19432334D-04
 -0.45575981D-06  0.10836304D-05  0.55358823D-05  0.34482926D-06  0.17821659D-04
 -0.26836131D-05 -0.40203862D-05 -0.23986675D-03  0.10254466D-03  0.29858984D-05
  0.18640178D-03 -0.94493820D-04  0.16145287D-05 -0.48943362D-06 -0.57561571D-04
  0.10165948D-03  0.31597271D-05 -0.16476864D-03  0.20476950D-03 -0.16914262D-05
  0.33745335D-03 -0.50974795D-03 -0.14396068D-05
MO    2     MO 0.0        OCC NO =    2.0000037  ORB. ENERGY =    0.000000
 -0.36838100D+00 -0.68660162D+00 -0.11642295D+01 -0.17619376D+01 -0.21978783D+01
 -0.18861065D+01 -0.72227861D+00 -0.43674579D-04 -0.46859957D-03 -0.17273462D-02
 -0.50506591D-02 -0.60862898D-02  0.73315810D-02 -0.33651832D-01  0.66769609D-03
  0.91560169D-04 -0.67770363D-04 -0.65714456D-04 -0.44330583D-04  0.15372807D-11
  0.14906452D-11  0.10055804D-11  0.87223423D-02  0.84577380D-02  0.57055401D-02
  0.17461264D-04  0.23403697D-12 -0.18392858D-02 -0.13509016D-05 -0.12881958D-12
 -0.15555238D-03  0.34779881D-07 -0.24626513D-13  0.17870430D-05  0.69246118D-03
  0.89356760D-04 -0.78181794D-03  0.22414909D-13  0.15927125D-04 -0.31735205D-12
 -0.33893719D-03 -0.35771712D-03  0.69665431D-03 -0.93443303D-14 -0.17164747D-04
  0.10470352D-12 -0.39191073D-04  0.13214407D-04  0.25976666D-04 -0.38197240D-14
 -0.18727052D-06  0.36328474D-13  0.25254858D-05  0.18135548D-13  0.24845557D-03
 -0.64581962D-06 -0.27848600D-12 -0.22279015D-03 -0.69306377D-05  0.22407936D-12
 -0.52257657D-03 -0.23133402D-13 -0.15167895D-05 -0.53255809D-14 -0.66615731D-04
  0.64190935D-06  0.12003875D-12  0.11081736D-03  0.39084591D-05 -0.10406201D-12
  0.89029837D-04  0.16504932D-13 -0.16825228D+00 -0.31365615D+00 -0.53012163D+00
 -0.79687168D+00 -0.97881413D+00 -0.82608459D+00 -0.31062938D+00 -0.14533959D-04
 -0.10863234D-03 -0.40598386D-03 -0.11326318D-02 -0.15174143D-02  0.17917833D-02
 -0.14046394D-01  0.99247572D-04 -0.68384570D-05 -0.17951287D-04 -0.16830473D-04
 -0.11984299D-04  0.12285042D-12  0.11518008D-12  0.82015079D-13  0.25226377D-02
  0.23651332D-02  0.16841157D-02  0.16644835D-04  0.70103982D-12 -0.20187645D-02
  0.10677573D-05 -0.92509109D-13 -0.26040138D-04  0.28967532D-07  0.10977366D-13
 -0.84491059D-05  0.82545282D-03  0.15031945D-03 -0.97577228D-03  0.65305495D-15
  0.25652807D-04 -0.10509588D-11 -0.13258833D-03  0.36139766D-03 -0.22880933D-03
 -0.95560042D-15  0.63487345D-05 -0.64988982D-12 -0.33219742D-05 -0.14289554D-04
  0.17611528D-04 -0.11780831D-15 -0.23476544D-06  0.47756786D-13 -0.35536023D-05
  0.41479880D-13 -0.25392152D-03 -0.16073939D-05 -0.89132290D-12  0.52929972D-03
  0.12268201D-04  0.76688326D-12  0.23246484D-03  0.30499139D-14 -0.57214092D-06
 -0.65816170D-13  0.34370112D-04 -0.22688753D-06 -0.52598319D-13  0.73112726D-04
  0.19433103D-05  0.25004683D-12 -0.17622306D-03  0.66219657D-14  0.18574337D+00
  0.34622596D+00  0.58693014D+00  0.88869160D+00  0.11110602D+01  0.95571105D+00
  0.36653576D+00  0.19126194D-04  0.25319499D-03  0.91965027D-03  0.27281252D-02
  0.31436133D-02 -0.38183866D-02  0.16914247D-01 -0.85324391D-03 -0.28944847D-04
  0.16311069D-04  0.15951870D-04  0.10540075D-04  0.87690099D-02  0.85759002D-02
  0.56664598D-02  0.53366133D-02  0.52190913D-02  0.34484743D-02  0.28264615D-05
  0.79539627D-03  0.27221267D-03 -0.82057670D-06  0.81702956D-04 -0.20704084D-04
 -0.13316146D-06 -0.16490039D-05  0.21162667D-04 -0.31954831D-04  0.15678396D-03
 -0.12482913D-03  0.19914039D-05  0.25591408D-05 -0.33595523D-03  0.41628369D-05
 -0.53502588D-04  0.49339751D-04 -0.11161340D-05 -0.19230427D-05  0.54904518D-04
 -0.16791012D-04  0.16038669D-04  0.75234292D-06 -0.11541951D-05  0.17416786D-06
 -0.25348444D-05 -0.31406311D-05  0.10640112D-03 -0.11833736D-03  0.51158785D-05
  0.94936380D-04  0.57563705D-03  0.43060149D-05 -0.41413973D-03 -0.22062495D-03
  0.19858933D-05  0.13162179D-05 -0.55060365D-04 -0.69358029D-05 -0.27177636D-05
 -0.13644273D-03 -0.29140968D-03 -0.12308901D-05  0.30162383D-03  0.31221709D-03
 -0.15455635D-05  0.18574337D+00  0.34622596D+00  0.58693014D+00  0.88869161D+00
  0.11110602D+01  0.95571105D+00  0.36653576D+00  0.19126194D-04  0.25319499D-03
  0.91965028D-03  0.27281252D-02  0.31436133D-02 -0.38183866D-02  0.16914247D-01
 -0.85324391D-03 -0.28944847D-04  0.16311069D-04  0.15951870D-04  0.10540075D-04
 -0.87690100D-02 -0.85759002D-02 -0.56664599D-02  0.53366134D-02  0.52190913D-02
  0.34484743D-02  0.28264616D-05 -0.79539627D-03  0.27221267D-03 -0.82057669D-06
 -0.81702957D-04 -0.20704083D-04 -0.13316146D-06  0.16490038D-05  0.21162667D-04
 -0.31954832D-04  0.15678396D-03 -0.12482913D-03 -0.19914039D-05  0.25591408D-05
  0.33595523D-03  0.41628375D-05 -0.53502588D-04  0.49339751D-04  0.11161340D-05
 -0.19230427D-05 -0.54904516D-04 -0.16791012D-04  0.16038669D-04  0.75234305D-06
  0.11541951D-05  0.17416786D-06  0.25348439D-05 -0.31406311D-05 -0.10640112D-03
 -0.11833736D-03  0.51158785D-05 -0.94936383D-04  0.57563705D-03  0.43060149D-05
  0.41413973D-03 -0.22062495D-03 -0.19858932D-05  0.13162179D-05  0.55060365D-04
 -0.69358029D-05 -0.27177636D-05  0.13644274D-03 -0.29140968D-03 -0.12308901D-05
 -0.30162383D-03  0.31221709D-03  0.15455634D-05
MO    3     MO 0.0        OCC NO =    2.0000022  ORB. ENERGY =    0.000000
 -0.20165963D-10 -0.37586040D-10 -0.63732412D-10 -0.96452229D-10 -0.12031655D-09
 -0.10324950D-09 -0.39539074D-10  0.41033329D-14  0.44026070D-13  0.16228838D-12
  0.47452171D-12  0.57182173D-12 -0.68881988D-12 -0.13458175D-11 -0.14244663D-11
 -0.87333095D-12 -0.16555967D-12 -0.16053719D-12 -0.10829744D-12 -0.86357650D-03
 -0.83737871D-03 -0.56489073D-03  0.15658045D-10  0.15183036D-10  0.10242387D-10
 -0.63458519D-13 -0.11250195D-03  0.54966353D-11  0.44035550D-14  0.90468553D-04
  0.38357187D-12  0.15562582D-15  0.14483107D-04  0.11220856D-12  0.19025288D-11
  0.29809410D-13 -0.19323382D-11 -0.87359211D-05  0.88844667D-13  0.18006319D-03
 -0.22381602D-12  0.10316848D-11 -0.80786883D-12  0.48253259D-05 -0.11326696D-14
 -0.62671353D-04 -0.14066009D-12  0.14773239D-12 -0.70722923D-14  0.19033067D-05
 -0.89732363D-14 -0.25173370D-04 -0.66198685D-14 -0.11308961D-04 -0.12483198D-11
 -0.18453002D-13  0.16292305D-03  0.29228539D-11  0.38312607D-13 -0.12899617D-03
  0.82210546D-12  0.91307345D-05 -0.78345218D-14  0.32509523D-05  0.32404769D-12
  0.14165306D-13 -0.67678301D-04  0.11056290D-12  0.93382591D-14  0.57925444D-04
 -0.10827060D-11 -0.75222154D-05  0.51481897D-09  0.95972628D-09  0.16220682D-08
  0.24382710D-08  0.29949792D-08  0.25276568D-08  0.95046496D-09  0.36831340D-13
  0.27529145D-12  0.10288270D-11  0.28702671D-11  0.38453666D-11 -0.45406610D-11
  0.40191813D-10  0.44283010D-12  0.13483222D-12  0.65547388D-13  0.61454843D-13
  0.43759509D-13 -0.60122147D-04 -0.56368334D-04 -0.40137612D-04 -0.84731235D-11
 -0.79440919D-11 -0.56566667D-11 -0.32795598D-13 -0.38915344D-03  0.11901157D-12
 -0.80743434D-14  0.55993490D-04  0.11183446D-11 -0.14181532D-15 -0.63401843D-05
 -0.21454997D-13 -0.45353661D-11  0.20949992D-11  0.24403669D-11 -0.51337279D-06
 -0.60946043D-13  0.61010119D-03 -0.45737990D-12  0.76087586D-13  0.38129232D-12
 -0.23860029D-06 -0.21251236D-13  0.38111380D-03  0.14257472D-13 -0.96938812D-13
  0.82681340D-13  0.59067662D-08 -0.25424366D-14 -0.28250521D-04  0.94488657D-14
 -0.24441298D-04  0.22442832D-11  0.20303456D-13  0.51662591D-03  0.20352523D-11
 -0.48650053D-13 -0.44330201D-03 -0.87681020D-11 -0.82828695D-06  0.16755861D-15
  0.44120022D-04  0.31376251D-12  0.45221824D-14  0.30469096D-04 -0.11200970D-13
 -0.50248582D-14 -0.16282916D-03 -0.93008656D-12 -0.23775501D-05  0.42245869D+00
  0.78746373D+00  0.13349265D+01  0.20212592D+01  0.25270192D+01  0.21736896D+01
  0.83365676D+00  0.38737277D-04  0.51280902D-03  0.18626157D-02  0.55254143D-02
  0.63669239D-02 -0.77335774D-02  0.39152363D-01 -0.16933016D-03  0.82944255D-04
  0.11265268D-04  0.11017186D-04  0.72795207D-05  0.97655591D-02  0.95505035D-02
  0.63104215D-02  0.74582345D-02  0.72939905D-02  0.48194479D-02  0.10339190D-05
 -0.18436108D-03  0.15286317D-03  0.14151615D-05  0.23449216D-03  0.39552404D-03
 -0.52929373D-07  0.21145160D-04  0.41236730D-05 -0.14785526D-03  0.16437091D-03
 -0.16515653D-04 -0.31779325D-05 -0.50262476D-05  0.25115181D-03  0.15563380D-03
 -0.24666588D-03  0.91032074D-04  0.44262876D-06  0.40650821D-06 -0.51861910D-03
 -0.58538969D-04  0.13657706D-04  0.44881263D-04  0.69343699D-06 -0.17870029D-06
  0.13172036D-03 -0.11298340D-05 -0.27318889D-03  0.11274413D-04 -0.23854997D-05
  0.88403983D-03  0.18496067D-03  0.57750017D-05 -0.64473172D-04 -0.21878391D-03
  0.88000401D-06  0.26414062D-06  0.51299748D-04  0.19197122D-04  0.91283171D-06
 -0.20832380D-03 -0.30994417D-04 -0.17052536D-05  0.54424554D-04 -0.26596949D-04
  0.17146226D-06 -0.42245869D+00 -0.78746372D+00 -0.13349264D+01 -0.20212592D+01
 -0.25270191D+01 -0.21736896D+01 -0.83365675D+00 -0.38737277D-04 -0.51280901D-03
 -0.18626156D-02 -0.55254142D-02 -0.63669238D-02  0.77335773D-02 -0.39152362D-01
  0.16933016D-03 -0.82944254D-04 -0.11265268D-04 -0.11017186D-04 -0.72795207D-05
  0.97655590D-02  0.95505034D-02  0.63104214D-02 -0.74582345D-02 -0.72939904D-02
 -0.48194479D-02 -0.10339190D-05 -0.18436108D-03 -0.15286317D-03 -0.14151615D-05
  0.23449216D-03 -0.39552404D-03  0.52929372D-07  0.21145160D-04 -0.41236727D-05
  0.14785526D-03 -0.16437091D-03  0.16515653D-04 -0.31779324D-05  0.50262477D-05
  0.25115180D-03 -0.15563380D-03  0.24666587D-03 -0.91032075D-04  0.44262876D-06
 -0.40650824D-06 -0.51861909D-03  0.58538968D-04 -0.13657706D-04 -0.44881263D-04
  0.69343698D-06  0.17870029D-06  0.13172036D-03  0.11298340D-05 -0.27318889D-03
 -0.11274414D-04  0.23854997D-05  0.88403983D-03 -0.18496067D-03 -0.57750017D-05
 -0.64473166D-04  0.21878391D-03  0.88000397D-06 -0.26414063D-06  0.51299748D-04
 -0.19197121D-04 -0.91283169D-06 -0.20832380D-03  0.30994416D-04  0.17052536D-05
  0.54424556D-04  0.26596946D-04  0.17146226D-06
MO    4     MO 0.0        OCC NO =    2.0000016  ORB. ENERGY =    0.000000
  0.10183153D+00  0.18979724D+00  0.32182789D+00  0.48705229D+00  0.60755934D+00
  0.52137630D+00  0.19965942D+00  0.13153564D-04  0.14112911D-03  0.52022846D-03
  0.15211175D-02  0.18330206D-02 -0.22080675D-02  0.93970403D-02 -0.42189668D-03
 -0.17764312D-03 -0.18558324D-04 -0.17995331D-04 -0.12139544D-04  0.48123541D-11
  0.46663647D-11  0.31479021D-11  0.53299610D-03  0.51682693D-03  0.34864839D-03
 -0.17907048D-04  0.64368446D-12  0.15686570D-02  0.18094053D-07 -0.48789022D-12
  0.12176520D-03 -0.28004106D-07 -0.81575084D-13  0.19309300D-04  0.15196845D-03
 -0.89842720D-05 -0.14298418D-03  0.48374254D-13  0.11749130D-04 -0.10027028D-11
  0.62603373D-04  0.28804589D-03 -0.35064926D-03 -0.27388751D-13  0.57943439D-05
  0.33467487D-12 -0.11783285D-04  0.21725056D-04 -0.99417708D-05 -0.96696512D-14
 -0.11389617D-05  0.13404019D-12 -0.27671611D-05  0.65257766D-13 -0.31178757D-03
 -0.34964785D-05 -0.92887806D-12  0.61538694D-03  0.11797962D-04  0.73310476D-12
  0.31997576D-03 -0.50161490D-13 -0.76416913D-06 -0.20138182D-13  0.77912182D-04
  0.24401384D-05  0.38019327D-12 -0.15435740D-04 -0.14763099D-06 -0.31977872D-12
 -0.21830081D-03  0.40365940D-13  0.14761198D+00  0.27517847D+00  0.46508911D+00
  0.69911567D+00  0.85873838D+00  0.72474490D+00  0.27252301D+00  0.11534959D-04
  0.86216674D-04  0.32221139D-03  0.89891962D-03  0.12043045D-02 -0.14220590D-02
  0.11821600D-01  0.21490400D-04  0.24400937D-04  0.16360552D-04  0.15339057D-04
  0.10922322D-04  0.36058720D-12  0.33807342D-12  0.24072841D-12 -0.23511180D-02
 -0.22043225D-02 -0.15696090D-02 -0.10436752D-04  0.21428518D-11  0.63199661D-03
 -0.15506255D-05 -0.33966673D-12  0.20553008D-03 -0.38802486D-07  0.35581055D-13
 -0.12680754D-05 -0.10774975D-02  0.33966751D-03  0.73783003D-03 -0.28322286D-14
 -0.19381516D-04 -0.34281518D-11 -0.31491101D-04 -0.98165910D-04  0.12965701D-03
  0.64695622D-14 -0.46069324D-05 -0.21290386D-11  0.38534978D-05 -0.12783836D-04
  0.89303378D-05  0.42612717D-16 -0.27399688D-06  0.15998175D-12  0.27824676D-05
  0.13899405D-12  0.48378071D-03  0.40806882D-05 -0.28949438D-11  0.19748134D-03
 -0.12428091D-04  0.24779617D-11 -0.16488235D-02  0.27776310D-14  0.16584037D-06
 -0.24389088D-12  0.42367561D-04  0.75402185D-06 -0.16956466D-12 -0.24704040D-04
 -0.12515430D-05  0.90123729D-12 -0.10239864D-03  0.10158551D-13  0.36698723D+00
  0.68406483D+00  0.11596423D+01  0.17558553D+01  0.21952058D+01  0.18882706D+01
  0.72419243D+00  0.31538612D-04  0.41751217D-03  0.15164802D-02  0.44986099D-02
  0.51837393D-02 -0.62964234D-02  0.34341465D-01  0.26304624D-03  0.80904463D-04
  0.34465848D-05  0.33706847D-05  0.22271539D-05  0.62414016D-02  0.61039545D-02
  0.40331408D-02  0.39235269D-02  0.38371236D-02  0.25353498D-02 -0.22383445D-05
 -0.54818153D-03 -0.64219930D-03  0.51506903D-06  0.30575587D-03  0.16045180D-03
 -0.31256240D-07  0.49021360D-05  0.13399470D-04 -0.23375712D-03  0.17459914D-03
  0.59157977D-04 -0.34702769D-05  0.18244246D-06  0.78337449D-03  0.25126164D-03
 -0.18037671D-03 -0.70884929D-04  0.53449428D-06 -0.16652695D-05 -0.99203366D-03
 -0.44065679D-04  0.34797022D-04  0.92686577D-05  0.81059333D-06  0.15148143D-06
  0.61861440D-04  0.19949047D-05  0.20849737D-04 -0.75437388D-04 -0.62300042D-05
  0.27214626D-03  0.45902628D-03  0.24529010D-06 -0.33469547D-03 -0.23271411D-03
  0.27531430D-06 -0.80357238D-06  0.32933575D-04  0.10060644D-03  0.29603771D-05
  0.10917745D-03  0.44078827D-04 -0.54965996D-06 -0.20797818D-03 -0.34589814D-03
  0.23714703D-06  0.36698724D+00  0.68406484D+00  0.11596423D+01  0.17558553D+01
  0.21952058D+01  0.18882707D+01  0.72419244D+00  0.31538613D-04  0.41751218D-03
  0.15164802D-02  0.44986099D-02  0.51837393D-02 -0.62964235D-02  0.34341466D-01
  0.26304624D-03  0.80904464D-04  0.34465848D-05  0.33706847D-05  0.22271539D-05
 -0.62414017D-02 -0.61039546D-02 -0.40331409D-02  0.39235270D-02  0.38371237D-02
  0.25353498D-02 -0.22383446D-05  0.54818154D-03 -0.64219930D-03  0.51506903D-06
 -0.30575588D-03  0.16045181D-03 -0.31256240D-07 -0.49021363D-05  0.13399470D-04
 -0.23375712D-03  0.17459915D-03  0.59157977D-04  0.34702769D-05  0.18244240D-06
 -0.78337449D-03  0.25126164D-03 -0.18037671D-03 -0.70884928D-04 -0.53449428D-06
 -0.16652695D-05  0.99203367D-03 -0.44065680D-04  0.34797022D-04  0.92686582D-05
 -0.81059334D-06  0.15148142D-06 -0.61861442D-04  0.19949047D-05 -0.20849734D-04
 -0.75437388D-04 -0.62300042D-05 -0.27214627D-03  0.45902628D-03  0.24529015D-06
  0.33469547D-03 -0.23271412D-03 -0.27531431D-06 -0.80357238D-06 -0.32933575D-04
  0.10060644D-03  0.29603771D-05 -0.10917745D-03  0.44078827D-04 -0.54965998D-06
  0.20797818D-03 -0.34589814D-03 -0.23714702D-06
MO    5     MO 0.0        OCC NO =    1.9861786  ORB. ENERGY =    0.000000
 -0.99153018D-02 -0.18480492D-01 -0.31336271D-01 -0.47424115D-01 -0.59157845D-01
 -0.50766232D-01 -0.19440770D-01 -0.16084906D-03 -0.17258048D-02 -0.63616416D-02
 -0.18601067D-01 -0.22415190D-01  0.27001472D-01  0.14149657D-01 -0.33401434D-04
 -0.19223403D-02  0.59964298D-03  0.58145198D-03  0.39224407D-03  0.27608621D-12
  0.26771075D-12  0.18059609D-12 -0.69609559D-01 -0.67497857D-01 -0.45533655D-01
  0.10734301D-03  0.18109704D-12 -0.13003725D-01 -0.16181665D-04  0.54216913D-12
  0.19940633D-02 -0.50500630D-06 -0.35546307D-13  0.22950019D-03 -0.40032700D-02
 -0.42473802D-02  0.82506502D-02 -0.40145557D-14 -0.17041651D-03  0.96087948D-13
 -0.45501377D-03  0.61947250D-03 -0.16445873D-03  0.17900392D-14 -0.10051977D-04
 -0.16991730D-12  0.10931833D-03  0.51829094D-03 -0.62760927D-03  0.16619945D-14
  0.10809157D-04 -0.22670523D-12 -0.17758583D-04 -0.91823605D-14 -0.16154012D-02
 -0.17856840D-04  0.11441125D-12  0.34849190D-02  0.71132589D-04 -0.86864172D-13
  0.13612846D-02  0.44263666D-14 -0.35957253D-05 -0.92339269D-14  0.50960338D-03
  0.15983395D-04 -0.62811813D-13 -0.22225354D-03 -0.51962192D-05  0.90513593D-13
 -0.13065566D-02 -0.29237167D-14 -0.17212700D-01 -0.32087940D-01 -0.54232991D-01
 -0.81522300D-01 -0.10013554D+00 -0.84510867D-01 -0.31778293D-01 -0.31581549D-03
 -0.23605251D-02 -0.88218214D-02 -0.24611508D-01 -0.32972636D-01  0.38934534D-01
  0.15592127D-01  0.22622663D-02  0.22670383D-03 -0.30564676D-03 -0.28656327D-03
 -0.20405012D-03  0.19880701D-12  0.18639421D-12  0.13272378D-12 -0.34527567D-01
 -0.32371789D-01 -0.23050642D-01 -0.95255714D-04 -0.30067821D-12 -0.49755121D-02
 -0.57016874D-05 -0.95143488D-12  0.15134000D-02 -0.53788876D-06  0.69663305D-14
 -0.33066812D-05 -0.19256033D-01  0.93280637D-02  0.99279688D-02  0.84606921D-15
 -0.20212045D-03  0.14200824D-12 -0.26129570D-02  0.11489748D-02  0.14639822D-02
 -0.55152873D-14 -0.32363876D-04  0.16073034D-12  0.83456566D-04 -0.92147512D-04
  0.86909454D-05 -0.34079710D-15 -0.10879603D-05  0.11429424D-12  0.18249540D-04
  0.21268710D-15  0.34360053D-02  0.29202288D-04  0.45470405D-13  0.34607007D-02
 -0.83950909D-04 -0.46108466D-13 -0.13768717D-01  0.38335569D-14 -0.27138674D-05
  0.52323841D-13  0.26846812D-03  0.53741798D-05  0.11363411D-12  0.31657016D-03
  0.27674223D-05 -0.27060563D-12 -0.11219745D-02  0.73551351D-14 -0.89170014D-01
 -0.16621306D+00 -0.28176816D+00 -0.42663511D+00 -0.53338785D+00 -0.45880920D+00
 -0.17596320D+00 -0.12987007D-02 -0.17192365D-01 -0.62445799D-01 -0.18524429D+00
 -0.21345662D+00  0.25927486D+00  0.14914199D+00  0.67595027D-01  0.16896197D-02
  0.76341583D-04  0.74660400D-04  0.49331283D-04 -0.38060289D-01 -0.37222131D-01
 -0.24594236D-01 -0.13143783D+00 -0.12854332D+00 -0.84934009D-01  0.20058896D-04
 -0.36452012D-02 -0.27298460D-01 -0.10976665D-05 -0.32659825D-02 -0.62987183D-02
 -0.15171507D-06 -0.48603967D-04 -0.46727570D-04 -0.59989035D-02  0.73449332D-02
 -0.13460297D-02 -0.18888434D-04 -0.57770301D-05  0.13753797D-01 -0.29944491D-02
  0.41360282D-02 -0.11415790D-02  0.19732967D-06 -0.32597360D-05  0.75489023D-02
  0.21603649D-03 -0.21197012D-03 -0.40663686D-05 -0.29301907D-05 -0.91737745D-06
 -0.91063121D-03  0.23864396D-05  0.16654788D-02 -0.21603237D-02 -0.99106285D-05
 -0.64272266D-02 -0.23946742D-02  0.27513096D-05  0.14307901D-02  0.88756452D-02
 -0.17275439D-04 -0.30944159D-06  0.29394282D-03 -0.22203327D-03  0.47945253D-05
 -0.87891324D-03 -0.10357795D-02 -0.38662005D-05 -0.29152179D-05  0.17018793D-02