 f2co-wavefunction
GAUSSIAN            184 MOL ORBITALS    288 PRIMITIVES        4 NUCLEI
  O    1    (CENTRE  1)   0.00000000  0.00000000  1.28487582  CHARGE =  8.0
  C    2    (CENTRE  2)   0.00000000  0.00000000 -0.93015344  CHARGE =  6.0
  F    3    (CENTRE  3)   0.00000000 -2.00098943 -2.38919020  CHARGE =  9.0
  F    4    (CENTRE  4)   0.00000000  2.00098943 -2.40808746  CHARGE =  9.0
CENTRE ASSIGNMENTS    1  1  1  1  1  1  1  1  1  1  1  1  1  1  1  1  1  1  1  1
CENTRE ASSIGNMENTS    1  1  1  1  1  1  1  1  1  1  1  1  1  1  1  1  1  1  1  1
CENTRE ASSIGNMENTS    1  1  1  1  1  1  1  1  1  1  1  1  1  1  1  1  1  1  1  1
CENTRE ASSIGNMENTS    1  1  1  1  1  1  1  1  1  1  1  1  2  2  2  2  2  2  2  2
CENTRE ASSIGNMENTS    2  2  2  2  2  2  2  2  2  2  2  2  2  2  2  2  2  2  2  2
CENTRE ASSIGNMENTS    2  2  2  2  2  2  2  2  2  2  2  2  2  2  2  2  2  2  2  2
CENTRE ASSIGNMENTS    2  2  2  2  2  2  2  2  2  2  2  2  2  2  2  2  2  2  2  2
CENTRE ASSIGNMENTS    2  2  2  2  3  3  3  3  3  3  3  3  3  3  3  3  3  3  3  3
CENTRE ASSIGNMENTS    3  3  3  3  3  3  3  3  3  3  3  3  3  3  3  3  3  3  3  3
CENTRE ASSIGNMENTS    3  3  3  3  3  3  3  3  3  3  3  3  3  3  3  3  3  3  3  3
CENTRE ASSIGNMENTS    3  3  3  3  3  3  3  3  3  3  3  3  3  3  3  3  4  4  4  4
CENTRE ASSIGNMENTS    4  4  4  4  4  4  4  4  4  4  4  4  4  4  4  4  4  4  4  4
CENTRE ASSIGNMENTS    4  4  4  4  4  4  4  4  4  4  4  4  4  4  4  4  4  4  4  4
CENTRE ASSIGNMENTS    4  4  4  4  4  4  4  4  4  4  4  4  4  4  4  4  4  4  4  4
CENTRE ASSIGNMENTS    4  4  4  4  4  4  4  4
TYPE ASSIGNMENTS      1  1  1  1  1  1  1  1  1  1  1  1  1  1  1  1  2  2  2  3
TYPE ASSIGNMENTS      3  3  4  4  4  2  3  4  2  3  4  2  3  4  5  6  7  8  9 10
TYPE ASSIGNMENTS      5  6  7  8  9 10  5  6  7  8  9 10 11 12 13 17 14 15 18 19
TYPE ASSIGNMENTS     16 20 11 12 13 17 14 15 18 19 16 20  1  1  1  1  1  1  1  1
TYPE ASSIGNMENTS      1  1  1  1  1  1  1  1  2  2  2  3  3  3  4  4  4  2  3  4
TYPE ASSIGNMENTS      2  3  4  2  3  4  5  6  7  8  9 10  5  6  7  8  9 10  5  6
TYPE ASSIGNMENTS      7  8  9 10 11 12 13 17 14 15 18 19 16 20 11 12 13 17 14 15
TYPE ASSIGNMENTS     18 19 16 20  1  1  1  1  1  1  1  1  1  1  1  1  1  1  1  1
TYPE ASSIGNMENTS      2  2  2  3  3  3  4  4  4  2  3  4  2  3  4  2  3  4  5  6
TYPE ASSIGNMENTS      7  8  9 10  5  6  7  8  9 10  5  6  7  8  9 10 11 12 13 17
TYPE ASSIGNMENTS     14 15 18 19 16 20 11 12 13 17 14 15 18 19 16 20  1  1  1  1
TYPE ASSIGNMENTS      1  1  1  1  1  1  1  1  1  1  1  1  2  2  2  3  3  3  4  4
TYPE ASSIGNMENTS      4  2  3  4  2  3  4  2  3  4  5  6  7  8  9 10  5  6  7  8
TYPE ASSIGNMENTS      9 10  5  6  7  8  9 10 11 12 13 17 14 15 18 19 16 20 11 12
TYPE ASSIGNMENTS     13 17 14 15 18 19 16 20
EXPONENTS  0.1533000D+05 0.2299000D+04 0.5224000D+03 0.1473000D+03 0.4755000D+02
EXPONENTS  0.1676000D+02 0.6207000D+01 0.5224000D+03 0.1473000D+03 0.4755000D+02
EXPONENTS  0.1676000D+02 0.6207000D+01 0.6882000D+00 0.1752000D+01 0.2384000D+00
EXPONENTS  0.7376000D-01 0.3446000D+02 0.7749000D+01 0.2280000D+01 0.3446000D+02
EXPONENTS  0.7749000D+01 0.2280000D+01 0.3446000D+02 0.7749000D+01 0.2280000D+01
EXPONENTS  0.7156000D+00 0.7156000D+00 0.7156000D+00 0.2140000D+00 0.2140000D+00
EXPONENTS  0.2140000D+00 0.5974000D-01 0.5974000D-01 0.5974000D-01 0.2314000D+01
EXPONENTS  0.2314000D+01 0.2314000D+01 0.2314000D+01 0.2314000D+01 0.2314000D+01
EXPONENTS  0.6450000D+00 0.6450000D+00 0.6450000D+00 0.6450000D+00 0.6450000D+00
EXPONENTS  0.6450000D+00 0.2140000D+00 0.2140000D+00 0.2140000D+00 0.2140000D+00
EXPONENTS  0.2140000D+00 0.2140000D+00 0.1428000D+01 0.1428000D+01 0.1428000D+01
EXPONENTS  0.1428000D+01 0.1428000D+01 0.1428000D+01 0.1428000D+01 0.1428000D+01
EXPONENTS  0.1428000D+01 0.1428000D+01 0.5000000D+00 0.5000000D+00 0.5000000D+00
EXPONENTS  0.5000000D+00 0.5000000D+00 0.5000000D+00 0.5000000D+00 0.5000000D+00
EXPONENTS  0.5000000D+00 0.5000000D+00 0.8236000D+04 0.1235000D+04 0.2808000D+03
EXPONENTS  0.7927000D+02 0.2559000D+02 0.8997000D+01 0.3319000D+01 0.2808000D+03
EXPONENTS  0.7927000D+02 0.2559000D+02 0.8997000D+01 0.3319000D+01 0.3643000D+00
EXPONENTS  0.9059000D+00 0.1285000D+00 0.4402000D-01 0.1871000D+02 0.4133000D+01
EXPONENTS  0.1200000D+01 0.1871000D+02 0.4133000D+01 0.1200000D+01 0.1871000D+02
EXPONENTS  0.4133000D+01 0.1200000D+01 0.3827000D+00 0.3827000D+00 0.3827000D+00
EXPONENTS  0.1209000D+00 0.1209000D+00 0.1209000D+00 0.3569000D-01 0.3569000D-01
EXPONENTS  0.3569000D-01 0.1097000D+01 0.1097000D+01 0.1097000D+01 0.1097000D+01
EXPONENTS  0.1097000D+01 0.1097000D+01 0.3180000D+00 0.3180000D+00 0.3180000D+00
EXPONENTS  0.3180000D+00 0.3180000D+00 0.3180000D+00 0.1000000D+00 0.1000000D+00
EXPONENTS  0.1000000D+00 0.1000000D+00 0.1000000D+00 0.1000000D+00 0.7610000D+00
EXPONENTS  0.7610000D+00 0.7610000D+00 0.7610000D+00 0.7610000D+00 0.7610000D+00
EXPONENTS  0.7610000D+00 0.7610000D+00 0.7610000D+00 0.7610000D+00 0.2680000D+00
EXPONENTS  0.2680000D+00 0.2680000D+00 0.2680000D+00 0.2680000D+00 0.2680000D+00
EXPONENTS  0.2680000D+00 0.2680000D+00 0.2680000D+00 0.2680000D+00 0.1950000D+05
EXPONENTS  0.2923000D+04 0.6645000D+03 0.1875000D+03 0.6062000D+02 0.2142000D+02
EXPONENTS  0.7950000D+01 0.6645000D+03 0.1875000D+03 0.6062000D+02 0.2142000D+02
EXPONENTS  0.7950000D+01 0.8815000D+00 0.2257000D+01 0.3041000D+00 0.9158000D-01
EXPONENTS  0.4388000D+02 0.9926000D+01 0.2930000D+01 0.4388000D+02 0.9926000D+01
EXPONENTS  0.2930000D+01 0.4388000D+02 0.9926000D+01 0.2930000D+01 0.9132000D+00
EXPONENTS  0.9132000D+00 0.9132000D+00 0.2672000D+00 0.2672000D+00 0.2672000D+00
EXPONENTS  0.7361000D-01 0.7361000D-01 0.7361000D-01 0.3107000D+01 0.3107000D+01
EXPONENTS  0.3107000D+01 0.3107000D+01 0.3107000D+01 0.3107000D+01 0.8550000D+00
EXPONENTS  0.8550000D+00 0.8550000D+00 0.8550000D+00 0.8550000D+00 0.8550000D+00
EXPONENTS  0.2920000D+00 0.2920000D+00 0.2920000D+00 0.2920000D+00 0.2920000D+00
EXPONENTS  0.2920000D+00 0.1917000D+01 0.1917000D+01 0.1917000D+01 0.1917000D+01
EXPONENTS  0.1917000D+01 0.1917000D+01 0.1917000D+01 0.1917000D+01 0.1917000D+01
EXPONENTS  0.1917000D+01 0.7240000D+00 0.7240000D+00 0.7240000D+00 0.7240000D+00
EXPONENTS  0.7240000D+00 0.7240000D+00 0.7240000D+00 0.7240000D+00 0.7240000D+00
EXPONENTS  0.7240000D+00 0.1950000D+05 0.2923000D+04 0.6645000D+03 0.1875000D+03
EXPONENTS  0.6062000D+02 0.2142000D+02 0.7950000D+01 0.6645000D+03 0.1875000D+03
EXPONENTS  0.6062000D+02 0.2142000D+02 0.7950000D+01 0.8815000D+00 0.2257000D+01
EXPONENTS  0.3041000D+00 0.9158000D-01 0.4388000D+02 0.9926000D+01 0.2930000D+01
EXPONENTS  0.4388000D+02 0.9926000D+01 0.2930000D+01 0.4388000D+02 0.9926000D+01
EXPONENTS  0.2930000D+01 0.9132000D+00 0.9132000D+00 0.9132000D+00 0.2672000D+00
EXPONENTS  0.2672000D+00 0.2672000D+00 0.7361000D-01 0.7361000D-01 0.7361000D-01
EXPONENTS  0.3107000D+01 0.3107000D+01 0.3107000D+01 0.3107000D+01 0.3107000D+01
EXPONENTS  0.3107000D+01 0.8550000D+00 0.8550000D+00 0.8550000D+00 0.8550000D+00
EXPONENTS  0.8550000D+00 0.8550000D+00 0.2920000D+00 0.2920000D+00 0.2920000D+00
EXPONENTS  0.2920000D+00 0.2920000D+00 0.2920000D+00 0.1917000D+01 0.1917000D+01
EXPONENTS  0.1917000D+01 0.1917000D+01 0.1917000D+01 0.1917000D+01 0.1917000D+01
EXPONENTS  0.1917000D+01 0.1917000D+01 0.1917000D+01 0.7240000D+00 0.7240000D+00
EXPONENTS  0.7240000D+00 0.7240000D+00 0.7240000D+00 0.7240000D+00 0.7240000D+00
EXPONENTS  0.7240000D+00 0.7240000D+00 0.7240000D+00
MO    1     MO 0.0        OCC NO =    2.0000068  ORB. ENERGY =    0.000000
 -0.32317444D+00 -0.60234401D+00 -0.10213589D+01 -0.15457181D+01 -0.19281615D+01
 -0.16546494D+01 -0.63364283D+00 -0.40319876D-04 -0.43260581D-03 -0.15946665D-02
 -0.46627112D-02 -0.56187938D-02  0.67684325D-02 -0.29115743D-01  0.49778380D-03
 -0.48586731D-04  0.61829822D-13  0.59954129D-13  0.40444701D-13 -0.29325091D-04
 -0.28435473D-04 -0.19182402D-04  0.19813579D-01  0.19212507D-01  0.12960644D-01
  0.10189459D-13  0.12905027D-05  0.24988803D-02  0.62991019D-14  0.24803532D-05
  0.66522875D-03  0.54429966D-15  0.15892221D-07  0.14472857D-04  0.12249571D-02
  0.65492454D-03 -0.18798816D-02  0.17976362D-14 -0.10584348D-13 -0.87033758D-05
  0.51244076D-04 -0.26965017D-04 -0.24279058D-04  0.95350815D-15  0.29740961D-14
  0.40032383D-06  0.50544572D-04 -0.18380416D-05 -0.48706530D-04 -0.22941295D-15
 -0.26927082D-14 -0.85402973D-07  0.26865423D-14  0.23442967D-06 -0.54690539D-03
  0.32726840D-14 -0.12067684D-05  0.10303050D-02 -0.11332311D-13  0.50347941D-06
  0.61041120D-03  0.58155851D-14 -0.57060990D-15  0.26151095D-06  0.13066254D-04
  0.37616636D-16  0.10301082D-05 -0.24150684D-04  0.16742131D-14 -0.18146410D-05
 -0.15048077D-04 -0.20114327D-14  0.23875453D+00  0.44508655D+00  0.75225691D+00
  0.11307824D+01  0.13889637D+01  0.11722364D+01  0.44079148D+00  0.26515450D-04
  0.19818656D-03  0.74066843D-03  0.20663496D-02  0.27683388D-02 -0.32688919D-02
  0.19306558D-01 -0.41726644D-04  0.15172615D-04  0.69249454D-14  0.64925765D-14
  0.46231013D-14 -0.68649311D-05 -0.64363093D-05 -0.45830356D-05 -0.40326230D-02
 -0.37808404D-02 -0.26921836D-02 -0.74925005D-15 -0.83421157D-05  0.47930311D-03
 -0.34866552D-14 -0.14876476D-05  0.79006099D-04 -0.16965729D-15  0.11656890D-08
  0.83957185D-06 -0.94376031D-03  0.39193932D-03  0.55182099D-03 -0.70815810D-15
  0.87881291D-14  0.19452529D-04  0.21475405D-03 -0.12066439D-03 -0.94089656D-04
 -0.40948634D-14 -0.35523489D-15  0.66192077D-05 -0.51558099D-07 -0.24775441D-05
  0.25291022D-05 -0.63354707D-17 -0.25103507D-15 -0.31396105D-06 -0.15493437D-14
 -0.13205671D-06  0.55701071D-03 -0.92190631D-15  0.44422646D-05 -0.34000337D-03
  0.55699374D-14 -0.40460945D-05 -0.13310288D-02  0.94429214D-15  0.59643398D-15
  0.18990458D-05 -0.88189313D-04 -0.10014971D-14 -0.99878747D-07 -0.11072977D-04
 -0.78780480D-15 -0.55972585D-05  0.27564092D-03  0.15657576D-14 -0.95968779D-01
 -0.17888597D+00 -0.30325157D+00 -0.45916389D+00 -0.57405599D+00 -0.49379109D+00
 -0.18937951D+00 -0.11657645D-04 -0.15432539D-03 -0.56053791D-03 -0.16628252D-02
 -0.19160701D-02  0.23273526D-02 -0.83848217D-02  0.76862961D-03  0.24597247D-04
 -0.49857602D-13 -0.48759646D-13 -0.32217559D-13 -0.73857450D-02 -0.72230973D-02
 -0.47726058D-02 -0.60205792D-02 -0.58879950D-02 -0.38904472D-02 -0.11383950D-13
 -0.12763466D-02 -0.11575765D-02 -0.21200315D-14 -0.15946030D-03 -0.83753995D-04
  0.37389142D-15 -0.39912603D-05 -0.23262836D-05  0.81162739D-04 -0.63355115D-04
 -0.17807625D-04 -0.12037529D-14  0.97606611D-14  0.66217446D-03  0.14974268D-03
 -0.73363127D-04 -0.76379555D-04 -0.48801353D-14 -0.22765794D-14 -0.78391721D-03
  0.42241677D-04 -0.24168765D-04 -0.18072912D-04 -0.20277004D-15  0.28547417D-15
 -0.60173754D-05  0.32389817D-14 -0.18199135D-04 -0.32734036D-05 -0.36082376D-14
  0.24148320D-03  0.10424277D-03 -0.61087076D-14 -0.18688579D-03 -0.94422559D-04
  0.67058202D-14  0.61791856D-15  0.57144260D-04  0.10176320D-03 -0.19333037D-14
  0.16352218D-03  0.20328430D-03  0.79548060D-16 -0.33495495D-03 -0.50857390D-03
 -0.21634261D-14 -0.95635553D-01 -0.17826484D+00 -0.30219861D+00 -0.45756957D+00
 -0.57206274D+00 -0.49207654D+00 -0.18872194D+00 -0.11621825D-04 -0.15385120D-03
 -0.55881554D-03 -0.16577158D-02 -0.19101826D-02  0.23202013D-02 -0.83561402D-02
  0.78106770D-03  0.29250290D-04 -0.99224127D-13 -0.97039029D-13 -0.64117790D-13
  0.72514873D-02  0.70917962D-02  0.46858496D-02 -0.59889106D-02 -0.58570238D-02
 -0.38699832D-02 -0.22744423D-13  0.12337960D-02 -0.11395411D-02  0.75401900D-15
  0.13830647D-03 -0.83321089D-04  0.28849073D-15  0.33885346D-05 -0.18715151D-05
  0.62147785D-04 -0.68220136D-04  0.60723511D-05  0.15084401D-13 -0.13229949D-13
 -0.70149366D-03  0.14660168D-03 -0.58916358D-04 -0.87685322D-04  0.30649596D-14
  0.67415511D-15  0.76662703D-03  0.40403909D-04 -0.19192458D-04 -0.21211451D-04
 -0.20445509D-14  0.19242364D-14  0.30012728D-05  0.45981063D-14  0.22342745D-04
  0.15301084D-05 -0.57648615D-14 -0.24955198D-03  0.11109610D-03 -0.80294573D-14
  0.18252375D-03 -0.11568642D-03  0.30950401D-13  0.48662354D-16 -0.63432537D-04
  0.95321843D-04 -0.15125650D-14 -0.16161577D-03  0.20650818D-03  0.13665779D-14
  0.35191338D-03 -0.49247370D-03 -0.21294613D-14
MO    2     MO 0.0        OCC NO =    2.0000037  ORB. ENERGY =    0.000000
 -0.36754784D+00 -0.68504874D+00 -0.11615964D+01 -0.17579526D+01 -0.21929074D+01
 -0.18818408D+01 -0.72064504D+00 -0.43594895D-04 -0.46774462D-03 -0.17241947D-02
 -0.50414443D-02 -0.60751855D-02  0.73182047D-02 -0.33571048D-01  0.66537465D-03
  0.91276236D-04  0.17861120D-13  0.17319279D-13  0.11683483D-13 -0.64904502D-05
 -0.62935534D-05 -0.42455940D-05  0.86787319D-02  0.84154506D-02  0.56770132D-02
  0.76680557D-14 -0.10954476D-05 -0.18418522D-02  0.11426467D-14 -0.36348994D-05
 -0.15707089D-03 -0.59872492D-16 -0.97351479D-07  0.17392069D-05  0.69120046D-03
  0.88141717D-04 -0.77934217D-03 -0.41853853D-14  0.10322878D-13 -0.31994815D-05
 -0.34052373D-03 -0.35708699D-03  0.69761072D-03 -0.53322882D-15 -0.75902085D-14
 -0.88466716D-06 -0.39544549D-04  0.13253916D-04  0.26290633D-04 -0.41800560D-16
  0.10630265D-15  0.38680133D-06 -0.12748775D-14 -0.74985244D-07  0.24841392D-03
  0.15511073D-14  0.10944577D-05 -0.22491983D-03  0.22735251D-14 -0.86950200D-06
 -0.52032194D-03 -0.11986205D-13 -0.24675887D-15 -0.35677918D-06 -0.66885820D-04
 -0.46374105D-15 -0.90745993D-06  0.11277303D-03  0.12040177D-14  0.19777975D-05
  0.87884431D-04  0.23456814D-14 -0.16889830D+00 -0.31486047D+00 -0.53215708D+00
 -0.79993135D+00 -0.98257239D+00 -0.82925643D+00 -0.31182207D+00 -0.14605468D-04
 -0.10916683D-03 -0.40798136D-03 -0.11382045D-02 -0.15248802D-02  0.18005992D-02
 -0.14090953D-01  0.96303002D-04 -0.66058524D-05  0.24772062D-13  0.23225383D-13
  0.16537856D-13  0.20751001D-05  0.19455383D-05  0.13853392D-05  0.25252009D-02
  0.23675364D-02  0.16858269D-02  0.31815141D-14 -0.18782605D-05 -0.20153215D-02
  0.14104215D-14  0.80495306D-06 -0.24222201D-04  0.63074366D-16  0.16254382D-07
 -0.84452616D-05  0.82406634D-03  0.15842952D-03 -0.98249586D-03 -0.27339150D-14
 -0.55721571D-14 -0.74467697D-05 -0.13177831D-03  0.35689896D-03 -0.22512066D-03
  0.35510379D-14 -0.22055719D-14  0.15364710D-05 -0.33011926D-05 -0.14306839D-04
  0.17608032D-04  0.10346706D-15 -0.22263266D-15  0.62251055D-06  0.16081559D-14
  0.14424151D-05 -0.25423725D-03 -0.20022474D-16 -0.22039130D-05  0.53180414D-03
 -0.48044452D-14 -0.21233323D-05  0.23090760D-03  0.90322503D-15 -0.20039465D-15
 -0.11137137D-05  0.34198080D-04  0.58109076D-15 -0.45524804D-07  0.73110555D-04
  0.20093174D-16  0.33866658D-05 -0.17570479D-03 -0.10907077D-14  0.18577485D+00
  0.34628464D+00  0.58702961D+00  0.88884222D+00  0.11112485D+01  0.95587302D+00
  0.36659787D+00  0.19134853D-04  0.25330963D-03  0.92006666D-03  0.27293604D-02
  0.31450366D-02 -0.38201154D-02  0.16915747D-01 -0.85031108D-03 -0.28103414D-04
  0.12673953D-12  0.12394849D-12  0.81898010D-13  0.87880805D-02  0.85945508D-02
  0.56787831D-02  0.53621499D-02  0.52440655D-02  0.34649758D-02  0.29342079D-13
  0.80071320D-03  0.27822229D-03  0.52558712D-14  0.84819128D-04 -0.20313113D-04
 -0.14711931D-15 -0.14701444D-05  0.21320335D-04 -0.33164814D-04  0.15813680D-03
 -0.12497199D-03  0.28252195D-14 -0.74721211D-14 -0.33780620D-03  0.39463419D-05
 -0.54018547D-04  0.50072205D-04  0.35851643D-14  0.36462037D-14  0.57783487D-04
 -0.16796659D-04  0.16349762D-04  0.44689663D-06  0.10596277D-14  0.45043712D-15
 -0.22257672D-05 -0.17735065D-14  0.10713305D-03 -0.11818309D-03  0.39018036D-15
  0.92719294D-04  0.57632356D-03  0.49303393D-14 -0.41411846D-03 -0.22177429D-03
  0.12674756D-13 -0.71493776D-15 -0.55563684D-04 -0.71057952D-05  0.12277193D-14
 -0.13600719D-03 -0.29219911D-03  0.91709397D-15  0.30269825D-03  0.31351649D-03
  0.39605400D-14  0.18613518D+00  0.34695629D+00  0.58816822D+00  0.89056622D+00
  0.11134039D+01  0.95772704D+00  0.36730893D+00  0.19139643D-04  0.25337304D-03
  0.92029698D-03  0.27300437D-02  0.31458239D-02 -0.38210717D-02  0.16945418D-01
 -0.84955333D-03 -0.29722059D-04  0.97728675D-13  0.95576510D-13  0.63151441D-13
 -0.86719163D-02 -0.84809447D-02 -0.56037187D-02  0.53943753D-02  0.52755812D-02
  0.34857996D-02  0.23616224D-13 -0.78218470D-03  0.27939878D-03  0.40821306D-15
 -0.76815799D-04 -0.21718357D-04 -0.26233071D-15  0.16761350D-05  0.20887200D-04
 -0.27773590D-04  0.15102473D-03 -0.12325114D-03  0.13360364D-13 -0.90491643D-14
  0.34744036D-03  0.83192861D-05 -0.55818989D-04  0.47499703D-04 -0.50813588D-14
  0.26251349D-14 -0.42917433D-04 -0.15242822D-04  0.15046487D-04  0.19633494D-06
  0.16447888D-14 -0.14247216D-14  0.47282538D-05  0.59949121D-15 -0.10699498D-03
 -0.11977541D-03  0.63021727D-14 -0.80539801D-04  0.56120357D-03 -0.81006463D-14
  0.40152475D-03 -0.20187735D-03 -0.21605966D-14  0.49525343D-15  0.56505176D-04
 -0.61962159D-05 -0.43645107D-15  0.13201271D-03 -0.28716860D-03 -0.10493092D-14
 -0.30152824D-03  0.30575725D-03  0.56159835D-15
MO    3     MO 0.0        OCC NO =    2.0000022  ORB. ENERGY =    0.000000
  0.18260846D-02  0.34035214D-02  0.57711487D-02  0.87340200D-02  0.10895001D-01
  0.93495322D-02  0.35803741D-02  0.25172582D-06  0.27008529D-05  0.99558522D-05
  0.29110328D-04  0.35079360D-04 -0.42256807D-04  0.16805148D-03 -0.79691138D-05
 -0.37782521D-05 -0.83543647D-14 -0.81009235D-14 -0.54648351D-14  0.85755991D-03
  0.83154465D-03  0.56095511D-03  0.32199866D-05  0.31223039D-05  0.21062878D-05
  0.11739544D-15  0.10413912D-03  0.28237651D-04  0.22166859D-14 -0.92598571D-04
  0.89182874D-06  0.86490006D-16 -0.14465588D-04  0.45963719D-06  0.56043949D-05
 -0.43984020D-06 -0.51645547D-05 -0.75935375D-14  0.94965552D-14 -0.17161271D-03
  0.11466656D-06  0.50057946D-05 -0.51204612D-05  0.73005750D-15 -0.44420671D-14
  0.63893076D-04 -0.54135891D-06  0.39554608D-06  0.14581282D-06 -0.37646368D-15
 -0.10355143D-14  0.25144374D-04  0.12757264D-14  0.12884870D-04 -0.45647797D-05
  0.59366923D-14 -0.15945065D-03  0.77786043D-05 -0.97638713D-14  0.12079605D-03
  0.59157347D-05 -0.16047151D-14 -0.50952573D-15 -0.34357671D-05  0.10515142D-05
 -0.13054084D-14  0.66211883D-04  0.15732124D-05  0.28339856D-14 -0.55904582D-04
 -0.47277551D-05  0.12106630D-14  0.22145841D-02  0.41284309D-02  0.69776107D-02
  0.10488650D-01  0.12883428D-01  0.10873159D-01  0.40885917D-02  0.22915716D-06
  0.17128078D-05  0.64011538D-05  0.17858222D-04  0.23925094D-04 -0.28251075D-04
  0.17849398D-03 -0.37633678D-05  0.23133622D-06 -0.11791563D-13 -0.11055340D-13
 -0.78720605D-14  0.55644260D-04  0.52170031D-04  0.37148170D-04 -0.33322724D-04
 -0.31242172D-04 -0.22246287D-04 -0.53941445D-14  0.37205821D-03  0.19357439D-04
  0.13818999D-15 -0.56209646D-04  0.56942104D-05 -0.26518524D-16  0.62962463D-05
 -0.61345731D-07 -0.89632670D-05 -0.38696508D-05  0.12832918D-04 -0.54218107D-14
  0.15644119D-14 -0.59074194D-03  0.14347792D-05 -0.50471524D-05  0.36123732D-05
  0.22785068D-14 -0.30879173D-14 -0.37227522D-03  0.14018411D-06 -0.34199734D-06
  0.20181323D-06  0.12874865D-15 -0.22258376D-15  0.28371050D-04  0.11209345D-14
  0.21414937D-04  0.63245813D-05 -0.10595485D-14 -0.51225760D-03  0.29749231D-05
 -0.23032551D-14  0.44801279D-03 -0.21948667D-04  0.24110495D-16 -0.99110904D-16
 -0.45033409D-04  0.20658307D-06  0.76006250D-15 -0.30029678D-04 -0.46215029D-06
 -0.46272979D-15  0.16512990D-03 -0.15759892D-06 -0.60110211D-15 -0.41688719D+00
 -0.77707844D+00 -0.13173211D+01 -0.19946023D+01 -0.24936921D+01 -0.21450224D+01
 -0.82266226D+00 -0.38273022D-04 -0.50666315D-03 -0.18402927D-02 -0.54591938D-02
 -0.62906181D-02  0.76408927D-02 -0.38630447D-01  0.17255972D-03 -0.80727963D-04
  0.97973577D-14  0.95816018D-14  0.63309694D-14 -0.96610422D-02 -0.94482883D-02
 -0.62428835D-02 -0.74106605D-02 -0.72474641D-02 -0.47887060D-02  0.28209165D-14
  0.17687816D-03 -0.16543272D-03  0.62260885D-15 -0.23089229D-03 -0.39584037D-03
 -0.90921101D-17 -0.20977100D-04 -0.37010771D-05  0.14374232D-03 -0.16329202D-03
  0.19549698D-04  0.37777026D-14  0.32639499D-14 -0.23649083D-03 -0.15123995D-03
  0.24465671D-03 -0.93416755D-04  0.56105905D-15  0.18597810D-15  0.50218489D-03
  0.58648247D-04 -0.13436716D-04 -0.45211531D-04  0.24624004D-15 -0.34054498D-17
 -0.13139469D-03  0.21614301D-14  0.27473096D-03 -0.10052198D-04 -0.67698668D-15
 -0.88292728D-03 -0.17796350D-03 -0.58073036D-14  0.58734386D-04  0.20812009D-03
 -0.14733522D-13 -0.76067019D-15 -0.50826492D-04 -0.18704409D-04  0.18872206D-14
  0.21132774D-03  0.32339685D-04  0.39479001D-15 -0.58848266D-04  0.23773541D-04
  0.11784236D-14  0.42794052D+00  0.79768186D+00  0.13522485D+01  0.20474871D+01
  0.25598098D+01  0.22018954D+01  0.84447429D+00  0.39280932D-04  0.52000599D-03
  0.18887564D-02  0.56029602D-02  0.64562799D-02 -0.78421136D-02  0.39646742D-01
 -0.15587744D-03  0.86432028D-04 -0.13000471D-12 -0.12714176D-12 -0.84007939D-13
 -0.97108289D-02 -0.94969786D-02 -0.62750553D-02  0.75488493D-02  0.73826098D-02
  0.48780024D-02 -0.29465348D-13  0.19163600D-03  0.14591016D-03 -0.70605562D-14
 -0.24042783D-03  0.40371256D-03 -0.27099099D-15 -0.21237447D-04  0.47072207D-05
 -0.13657904D-03  0.15937355D-03 -0.22794510D-04  0.23605972D-13 -0.45091531D-14
 -0.22926070D-03  0.15594397D-03 -0.24357123D-03  0.87627255D-04 -0.17375958D-14
 -0.12940627D-14  0.52975138D-03 -0.60015360D-04  0.13610207D-04  0.46405153D-04
  0.16345149D-14 -0.13689685D-14 -0.13335483D-03  0.33242151D-14  0.27100897D-03
  0.64422107D-05 -0.93618261D-14 -0.88780315D-03  0.20113070D-03 -0.61081919D-15
  0.74776239D-04 -0.22045733D-03  0.17320134D-13 -0.44786128D-16 -0.52106026D-04
  0.22203506D-04 -0.14356127D-15  0.20901440D-03 -0.34843083D-04  0.27791965D-15
 -0.52696324D-04 -0.31767436D-04  0.10448419D-14
MO    4     MO 0.0        OCC NO =    2.0000016  ORB. ENERGY =    0.000000
  0.10177036D+00  0.18968323D+00  0.32163457D+00  0.48675971D+00  0.60719437D+00
  0.52106311D+00  0.19953949D+00  0.13157457D-04  0.14117088D-03  0.52038244D-03
  0.15215677D-02  0.18335631D-02 -0.22087210D-02  0.93900008D-02 -0.42087959D-03
 -0.17742794D-03  0.11713750D-13  0.11358397D-13  0.76623074D-14 -0.21210544D-04
 -0.20567093D-04 -0.13874439D-04  0.54355350D-03  0.52706405D-03  0.35555430D-03
 -0.28740129D-14 -0.11255292D-04  0.15708573D-02  0.81509652D-14 -0.63359336D-06
  0.12178124D-03  0.11286631D-14  0.17976770D-06  0.19317199D-04  0.15385543D-03
 -0.88887005D-05 -0.14496673D-03 -0.30788067D-14 -0.79696815D-14  0.78110042D-05
  0.62530228D-04  0.28762863D-03 -0.35015886D-03 -0.72540811D-15  0.10935350D-14
  0.50319960D-05 -0.11783078D-04  0.21699118D-04 -0.99160402D-05 -0.88008104D-15
 -0.36255995D-14 -0.11038230D-06  0.31339098D-14  0.30647517D-05 -0.31141535D-03
  0.38724828D-16  0.60585103D-05  0.61374581D-03 -0.94404544D-14 -0.15252765D-04
  0.32050023D-03 -0.16212520D-13 -0.72722006D-15  0.12538808D-06  0.77718166D-04
 -0.33003806D-15 -0.16070913D-05 -0.14794490D-04  0.25116983D-14  0.12309271D-05
 -0.21836001D-03  0.46691024D-14  0.14757958D+00  0.27511806D+00  0.46498700D+00
  0.69896219D+00  0.85854986D+00  0.72458579D+00  0.27246318D+00  0.11623122D-04
  0.86875635D-04  0.32467408D-03  0.90579014D-03  0.12135091D-02 -0.14329279D-02
  0.11814241D-01  0.15244333D-04  0.24236297D-04  0.26669732D-13  0.25004569D-13
  0.17804743D-13 -0.85474246D-05 -0.80137539D-05 -0.57062702D-05 -0.23383023D-02
 -0.21923071D-02 -0.15610532D-02  0.15999490D-15 -0.26716144D-04  0.64052462D-03
 -0.42591331D-14 -0.59357640D-06  0.20667860D-03 -0.24362440D-15 -0.10750047D-06
 -0.12700425D-05 -0.10638429D-02  0.32146234D-03  0.74238058D-03 -0.22413710D-15
  0.66426041D-15  0.41306518D-04 -0.29344766D-04 -0.10040510D-03  0.12974986D-03
 -0.41029853D-15 -0.36224568D-14  0.19220255D-04  0.38887992D-05 -0.12738858D-04
  0.88500586D-05  0.13324340D-15 -0.10040042D-14 -0.17988061D-06 -0.20552422D-14
 -0.60457264D-05  0.47960629D-03 -0.80441930D-15  0.14851907D-04  0.19558015D-03
  0.69701460D-14  0.32852725D-05 -0.16343990D-02  0.33403979D-14  0.61100407D-15
  0.75664368D-06  0.41853371D-04  0.11537309D-16  0.47831459D-06 -0.24695753D-04
 -0.18445495D-14 -0.27482456D-05 -0.10086436D-03  0.18461526D-14  0.37337130D+00
  0.69596474D+00  0.11798153D+01  0.17863999D+01  0.22333933D+01  0.19211188D+01
  0.73679039D+00  0.32115047D-04  0.42514309D-03  0.15441971D-02  0.45808315D-02
  0.52784831D-02 -0.64115039D-02  0.34931368D-01  0.25490830D-03  0.80351026D-04
  0.18063419D-12  0.17665630D-12  0.11672428D-12  0.63677293D-02  0.62275002D-02
  0.41147727D-02  0.40454416D-02  0.39563535D-02  0.26141300D-02  0.41579589D-13
 -0.55390458D-03 -0.64105130D-03  0.62978815D-14  0.30376779D-03  0.16551976D-03
  0.24805169D-15  0.50761690D-05  0.13386100D-04 -0.23695737D-03  0.17630110D-03
  0.60656275D-04  0.26364401D-13  0.52331014D-14  0.78553548D-03  0.25382852D-03
 -0.18317667D-03 -0.70651850D-04  0.48077580D-15 -0.11952405D-14 -0.10003265D-02
 -0.44223092D-04  0.33746943D-04  0.10476150D-04  0.74533460D-15  0.97446879D-15
  0.63226090D-04  0.16929214D-14  0.17712440D-04 -0.74347151D-04  0.77565392D-14
  0.28455099D-03  0.46349925D-03 -0.12835303D-13 -0.33768831D-03 -0.24045780D-03
  0.36251104D-14 -0.77564474D-15  0.33593396D-04  0.99952685D-04  0.11005166D-14
  0.10642147D-03  0.43466460D-04  0.12264176D-14 -0.20720166D-03 -0.34332451D-03
 -0.33973853D-15  0.36056952D+00  0.67210220D+00  0.11393630D+01  0.17251496D+01
  0.21568170D+01  0.18552494D+01  0.71152806D+00  0.31010370D-04  0.41051923D-03
  0.14910805D-02  0.44232623D-02  0.50969164D-02 -0.61909641D-02  0.33725528D-01
  0.28075178D-03  0.83427938D-04  0.11803157D-12  0.11543230D-12  0.76271001D-13
 -0.60203879D-02 -0.58878079D-02 -0.38903236D-02  0.38388476D-02  0.37543091D-02
  0.24806307D-02  0.27282748D-13  0.51923996D-03 -0.63141636D-03  0.62898525D-14
 -0.31202616D-03  0.16336030D-03  0.25579419D-16 -0.50103056D-05  0.13574855D-04
 -0.22931431D-03  0.16317390D-03  0.66140415D-04  0.18986281D-14 -0.62064711D-14
 -0.76055850D-03  0.24368364D-03 -0.16413731D-03 -0.79546328D-04 -0.35543966D-14
  0.90202160D-16  0.96179464D-03 -0.44199193D-04  0.35660948D-04  0.85382454D-05
 -0.12053742D-14  0.87308416D-15 -0.64993239D-04 -0.69022224D-15 -0.25863444D-04
 -0.73246042D-04 -0.66239037D-14 -0.25981101D-03  0.46170973D-03  0.86945704D-14
  0.33740134D-03 -0.24197161D-03  0.68786072D-15 -0.88876230D-15 -0.33884410D-04
  0.96013072D-04  0.19994956D-14 -0.11027014D-03  0.43572735D-04  0.66679126D-15
  0.21192337D-03 -0.33161195D-03 -0.25418858D-14
MO    5     MO 0.0        OCC NO =    1.9861652  ORB. ENERGY =    0.000000
 -0.98220178D-02 -0.18306626D-01 -0.31041457D-01 -0.46977945D-01 -0.58601283D-01
 -0.50288620D-01 -0.19257870D-01 -0.15935396D-03 -0.17097634D-02 -0.63025099D-02
 -0.18428169D-01 -0.22206840D-01  0.26750492D-01  0.14023171D-01 -0.42183231D-04
 -0.19023205D-02  0.58953246D-13  0.57164818D-13  0.38563048D-13 -0.22286875D-02
 -0.21610772D-02 -0.14578499D-02 -0.69603079D-01 -0.67491574D-01 -0.45529417D-01
  0.14884197D-13 -0.56320168D-03 -0.13028072D-01  0.45106834D-15 -0.10494714D-03
  0.19717851D-02  0.40841737D-15  0.18448910D-05  0.22738427D-03 -0.39673459D-02
 -0.42369749D-02  0.82043208D-02  0.38154669D-15 -0.16111345D-13  0.24939242D-03
 -0.45758098D-03  0.62079332D-03 -0.16321234D-03  0.51721866D-15  0.27936839D-14
  0.11337411D-03  0.10876599D-03  0.51500635D-03 -0.62377233D-03 -0.21894617D-15
 -0.79025701D-16  0.12817992D-04  0.11106493D-15  0.52993915D-04 -0.15963725D-02
 -0.77101027D-16  0.52045870D-04  0.34505684D-02 -0.25609375D-15 -0.21102761D-03
  0.13385490D-02 -0.72358100D-14  0.26266965D-15  0.45206032D-05  0.50683661D-03
 -0.24426883D-16 -0.29492447D-05 -0.21500421D-03 -0.76358207D-15 -0.10612565D-04
 -0.13055056D-02  0.10549117D-14 -0.17073873D-01 -0.31829138D-01 -0.53795580D-01
 -0.80864790D-01 -0.99327911D-01 -0.83829253D-01 -0.31521988D-01 -0.31340917D-03
 -0.23425394D-02 -0.87546044D-02 -0.24423983D-01 -0.32721404D-01  0.38637877D-01
  0.15459645D-01  0.21939439D-02  0.22128094D-03  0.26719057D-13  0.25050815D-13
  0.17837672D-13 -0.28914915D-02 -0.27109571D-02 -0.19303629D-02 -0.34357555D-01
 -0.32212392D-01 -0.22937142D-01  0.12847900D-13 -0.45932990D-03 -0.49783962D-02
  0.13744009D-14  0.76738775D-04  0.15048960D-02 -0.10300576D-15 -0.83198634D-06
 -0.29467652D-05 -0.19139045D-01  0.91166440D-02  0.10022401D-01  0.33629515D-14
  0.20253657D-14  0.95051389D-03 -0.25946825D-02  0.11037088D-02  0.14909737D-02
 -0.22750428D-14 -0.10133068D-14  0.16045927D-03  0.83525584D-04 -0.89243008D-04
  0.57174242D-05 -0.26570227D-16 -0.25952151D-15 -0.12694422D-04 -0.16614021D-14
 -0.45125645D-04  0.33943195D-02  0.20423406D-14  0.13374788D-03  0.34827600D-02
  0.29418658D-14  0.16290531D-05 -0.13665718D-01  0.30587090D-14 -0.28799280D-15
  0.65167911D-05  0.26191470D-03  0.25047375D-15 -0.22910751D-05  0.32018533D-03
  0.61350466D-15 -0.17259298D-04 -0.11059294D-02  0.94731079D-15 -0.91305198D-01
 -0.17019305D+00 -0.28851513D+00 -0.43685093D+00 -0.54615988D+00 -0.46979543D+00
 -0.18017666D+00 -0.13299320D-02 -0.17605809D-01 -0.63947503D-01 -0.18969906D+00
 -0.21858985D+00  0.26550994D+00  0.15273908D+00  0.69347786D-01  0.17909664D-02
  0.14126111D-13  0.13815028D-13  0.91281728D-14 -0.42999936D-01 -0.42052999D-01
 -0.27786194D-01 -0.13411945D+00 -0.13116589D+00 -0.86666851D-01  0.59939415D-14
 -0.46253944D-02 -0.27790776D-01 -0.33985363D-14 -0.34687352D-02 -0.63372664D-02
 -0.15005087D-15 -0.44102509D-04 -0.47455914D-04 -0.60504148D-02  0.73853126D-02
 -0.13348978D-02  0.12096299D-14  0.76545874D-14  0.13906855D-01 -0.30644880D-02
  0.41821321D-02 -0.11176441D-02 -0.21507192D-15 -0.10690763D-15  0.77736428D-02
  0.22086500D-03 -0.23188831D-03  0.11023309D-04 -0.24479607D-14 -0.14332619D-14
 -0.89945060D-03 -0.49824726D-14  0.16626843D-02 -0.21769482D-02  0.11791456D-13
 -0.64806456D-02 -0.24531269D-02  0.31559615D-14  0.14925928D-02  0.89839716D-02
  0.26137869D-13  0.14717527D-14  0.28619400D-03 -0.23467553D-03 -0.38910951D-14
 -0.90964125D-03 -0.10624211D-02 -0.52416301D-15  0.51059265D-04  0.17664477D-02