 Entering Gaussian System, Link 0=/home/bruns/programas/chemistry/gaussian/g09/g09
 Input=GAUSSIAN.com
 Output=GAUSSIAN.log
 Initial command:
 /home/bruns/programas/chemistry/gaussian/g09/l1.exe /home/bruns/programas/chemistry/gaussian/work/Gau-17395.inp -scrdir=/home/bruns/programas/chemistry/gaussian/work/
 Entering Link 1 = /home/bruns/programas/chemistry/gaussian/g09/l1.exe PID=     17397.
  
 Copyright (c) 1988,1990,1992,1993,1995,1998,2003,2009,2010,
            Gaussian, Inc.  All Rights Reserved.
  
 This is part of the Gaussian(R) 09 program.  It is based on
 the Gaussian(R) 03 system (copyright 2003, Gaussian, Inc.),
 the Gaussian(R) 98 system (copyright 1998, Gaussian, Inc.),
 the Gaussian(R) 94 system (copyright 1995, Gaussian, Inc.),
 the Gaussian 92(TM) system (copyright 1992, Gaussian, Inc.),
 the Gaussian 90(TM) system (copyright 1990, Gaussian, Inc.),
 the Gaussian 88(TM) system (copyright 1988, Gaussian, Inc.),
 the Gaussian 86(TM) system (copyright 1986, Carnegie Mellon
 University), and the Gaussian 82(TM) system (copyright 1983,
 Carnegie Mellon University). Gaussian is a federally registered
 trademark of Gaussian, Inc.
  
 This software contains proprietary and confidential information,
 including trade secrets, belonging to Gaussian, Inc.
  
 This software is provided under written license and may be
 used, copied, transmitted, or stored only in accord with that
 written license.
  
 The following legend is applicable only to US Government
 contracts under FAR:
  
                    RESTRICTED RIGHTS LEGEND
  
 Use, reproduction and disclosure by the US Government is
 subject to restrictions as set forth in subparagraphs (a)
 and (c) of the Commercial Computer Software - Restricted
 Rights clause in FAR 52.227-19.
  
 Gaussian, Inc.
 340 Quinnipiac St., Bldg. 40, Wallingford CT 06492
  
  
 ---------------------------------------------------------------
 Warning -- This program may not be used in any manner that
 competes with the business of Gaussian, Inc. or will provide
 assistance to any competitor of Gaussian, Inc.  The licensee
 of this program is prohibited from giving any competitor of
 Gaussian, Inc. access to this program.  By using this program,
 the user acknowledges that Gaussian, Inc. is engaged in the
 business of creating and licensing software in the field of
 computational chemistry and represents and warrants to the
 licensee that it is not a competitor of Gaussian, Inc. and that
 it will not use this program in any manner prohibited above.
 ---------------------------------------------------------------
  

 Cite this work as:
 Gaussian 09, Revision B.01,
 M. J. Frisch, G. W. Trucks, H. B. Schlegel, G. E. Scuseria, 
 M. A. Robb, J. R. Cheeseman, G. Scalmani, V. Barone, B. Mennucci, 
 G. A. Petersson, H. Nakatsuji, M. Caricato, X. Li, H. P. Hratchian, 
 A. F. Izmaylov, J. Bloino, G. Zheng, J. L. Sonnenberg, M. Hada, 
 M. Ehara, K. Toyota, R. Fukuda, J. Hasegawa, M. Ishida, T. Nakajima, 
 Y. Honda, O. Kitao, H. Nakai, T. Vreven, J. A. Montgomery, Jr., 
 J. E. Peralta, F. Ogliaro, M. Bearpark, J. J. Heyd, E. Brothers, 
 K. N. Kudin, V. N. Staroverov, T. Keith, R. Kobayashi, J. Normand, 
 K. Raghavachari, A. Rendell, J. C. Burant, S. S. Iyengar, J. Tomasi, 
 M. Cossi, N. Rega, J. M. Millam, M. Klene, J. E. Knox, J. B. Cross, 
 V. Bakken, C. Adamo, J. Jaramillo, R. Gomperts, R. E. Stratmann, 
 O. Yazyev, A. J. Austin, R. Cammi, C. Pomelli, J. W. Ochterski, 
 R. L. Martin, K. Morokuma, V. G. Zakrzewski, G. A. Voth, 
 P. Salvador, J. J. Dannenberg, S. Dapprich, A. D. Daniels, 
 O. Farkas, J. B. Foresman, J. V. Ortiz, J. Cioslowski, 
 and D. J. Fox, Gaussian, Inc., Wallingford CT, 2010.
 
 ******************************************
 Gaussian 09:  EM64L-G09RevB.01 12-Aug-2010
                26-Nov-2021 
 ******************************************
 %nproc=8
 Will use up to    8 processors via shared memory.
 %mem=8GB
 -----------------------------------------------------
 # qcisd/aug-cc-pvtz nosymm density=current output=wfn
 -----------------------------------------------------
 1/30=1,38=1/1;
 2/12=2,15=1,17=6,18=5,40=1/2;
 3/5=16,6=1,7=10,11=9,16=1,25=1,30=1,71=1/1,2,3;
 4//1;
 5/5=2,38=5/2;
 8/6=4,9=120000,10=1/1,4;
 9/5=8,15=1/13;
 11/28=-7,31=1,32=3,42=3/11;
 10/5=6,13=10,31=1/2;
 6/7=2,8=2,9=2,10=2,22=-1,31=1/1;
 99/5=1,6=1100,9=1/99;
 -----------------
 f2co-wavefunction
 -----------------
 Symbolic Z-matrix:
 Charge =  0 Multiplicity = 1
 O                     0.       -0.01      0.67993 
 C                     0.        0.       -0.49222 
 F                     0.       -1.05888  -1.26431 
 F                     0.        1.05888  -1.26431 
 
                          Input orientation:                          
 ---------------------------------------------------------------------
 Center     Atomic      Atomic             Coordinates (Angstroms)
 Number     Number       Type             X           Y           Z
 ---------------------------------------------------------------------
      1          8           0        0.000000   -0.010000    0.679927
      2          6           0        0.000000    0.000000   -0.492216
      3          9           0        0.000000   -1.058878   -1.264305
      4          9           0        0.000000    1.058878   -1.264305
 ---------------------------------------------------------------------
                    Distance matrix (angstroms):
                    1          2          3          4
     1  O    0.000000
     2  C    1.172186   0.000000
     3  F    2.209114   1.310475   0.000000
     4  F    2.218679   1.310475   2.117756   0.000000
 Symmetry turned off by external request.
 Stoichiometry    CF2O
 Framework group  CS[SG(CF2O)]
 Deg. of freedom     5
 Full point group                 CS      NOp   2
 Rotational constants (GHZ):     11.8917626     11.7439038      5.9086854
 Standard basis: Aug-CC-pVTZ (5D, 7F)
 Integral buffers will be    131072 words long.
 Raffenetti 1 integral format.
 Two-electron integral symmetry is turned off.
   184 basis functions,   288 primitive gaussians,   220 cartesian basis functions
    16 alpha electrons       16 beta electrons
       nuclear repulsion energy       119.9401590492 Hartrees.
 NAtoms=    4 NActive=    4 NUniq=    4 SFac= 1.00D+00 NAtFMM=   50 NAOKFM=F Big=F
 One-electron integrals computed using PRISM.
 NBasis=   184 RedAO= T  NBF=   184
 NBsUse=   184 1.00D-06 NBFU=   184
 Harris functional with IExCor=  205 diagonalized for initial guess.
 ExpMin= 3.57D-02 ExpMax= 1.95D+04 ExpMxC= 6.65D+02 IAcc=3 IRadAn=         0 AccDes= 0.00D+00
 HarFok:  IExCor=  205 AccDes= 0.00D+00 IRadAn=         0 IDoV= 1
 ScaDFX=  1.000000  1.000000  1.000000  1.000000
 FoFCou: FMM=F IPFlag=           0 FMFlag=      100000 FMFlg1=           0
         NFxFlg=           0 DoJE=T BraDBF=F KetDBF=T FulRan=T
         Omega=  0.000000  0.000000  1.000000  0.000000  0.000000 ICntrl=     500 IOpCl=  0
         NMat0=    1 NMatS0=    1 NMatT0=    0 NMatD0=    1 NMtDS0=    0 NMtDT0=    0
         I1Cent=           4 NGrid=           0.
 Symmetry not used in FoFCou.
 Requested convergence on RMS density matrix=1.00D-08 within 128 cycles.
 Requested convergence on MAX density matrix=1.00D-06.
 Requested convergence on             energy=1.00D-06.
 No special actions if energy rises.
 Keep R1 ints in memory in canonical form, NReq=301063473.
 SCF Done:  E(RHF) =  -311.741214760     A.U. after   11 cycles
             Convg  =    0.8438D-08             -V/T =  2.0014
 ExpMin= 3.57D-02 ExpMax= 1.95D+04 ExpMxC= 6.65D+02 IAcc=3 IRadAn=         5 AccDes= 0.00D+00
 HarFok:  IExCor=  205 AccDes= 0.00D+00 IRadAn=         5 IDoV=-2
 ScaDFX=  1.000000  1.000000  1.000000  1.000000
 DSYEVD returned Info=          93 IAlg= 4 N=    46 NDim=    46 NE2=    23339802 trying DSYEV.
 Range of M.O.s used for correlation:     5   184
 NBasis=   184 NAE=    16 NBE=    16 NFC=     4 NFV=     0
 NROrb=    180 NOA=    12 NOB=    12 NVA=   168 NVB=   168

 **** Warning!!: The largest alpha MO coefficient is  0.15543673D+02

 Semi-Direct transformation.
 ModeAB=           2 MOrb=            12 LenV=    1072785541
 LASXX=     33405819 LTotXX=    33405819 LenRXX=    33405819
 LTotAB=    33954012 MaxLAS=    52509600 LenRXY=    52509600
 NonZer=    66811638 LenScr=   100987392 LnRSAI=           0
 LnScr1=           0 LExtra=           0 Total=    186902811
 MaxDsk=          -1 SrtSym=           F ITran=            4
 JobTyp=0 Pass  1:  I=   1 to  12.
 (rs|ai) integrals will be sorted in core.
 Spin components of T(2) and E(2):
     alpha-alpha T2 =       0.2657429070D-01 E2=     -0.1191097471D+00
     alpha-beta  T2 =       0.1371298505D+00 E2=     -0.6576912315D+00
     beta-beta   T2 =       0.2657429070D-01 E2=     -0.1191097471D+00
 ANorm=    0.1090998823D+01
 E2 =    -0.8959107257D+00 EUMP2 =    -0.31263712548559D+03
 R2 and R3 integrals will be kept in memory, NReq=   596397230.
 Iterations=  50 Convergence= 0.100D-07
 Iteration Nr.   1
 **********************
 DD1Dir will call FoFMem   1 times, MxPair=       156
 NAB=    78 NAA=     0 NBB=     0.
 MP4(R+Q)=  0.16057490D-01
 E3=        0.12501603D-01        EUMP3=      -0.31262462388D+03
 E4(DQ)=    0.45687832D-03        UMP4(DQ)=   -0.31262416700D+03
 E4(SDQ)=  -0.11147207D-01        UMP4(SDQ)=  -0.31263577109D+03
 DE(Corr)= -0.86735163     E(Corr)=     -312.60856639    
 NORM(A)=   0.10858777D+01
 Iteration Nr.   2
 **********************
 DD1Dir will call FoFMem   1 times, MxPair=       156
 NAB=    78 NAA=     0 NBB=     0.
 DE(Corr)= -0.89322086     E(CORR)=     -312.63443562     Delta=-2.59D-02
 NORM(A)=   0.10931779D+01
 Iteration Nr.   3
 **********************
 DD1Dir will call FoFMem   1 times, MxPair=       156
 NAB=    78 NAA=     0 NBB=     0.
 DE(Corr)= -0.89146246     E(CORR)=     -312.63267722     Delta= 1.76D-03
 NORM(A)=   0.10954097D+01
 Iteration Nr.   4
 **********************
 DD1Dir will call FoFMem   1 times, MxPair=       156
 NAB=    78 NAA=     0 NBB=     0.
 DE(Corr)= -0.89376544     E(CORR)=     -312.63498020     Delta=-2.30D-03
 NORM(A)=   0.10962162D+01
 Iteration Nr.   5
 **********************
 DD1Dir will call FoFMem   1 times, MxPair=       156
 NAB=    78 NAA=     0 NBB=     0.
 DE(Corr)= -0.89403129     E(CORR)=     -312.63524605     Delta=-2.66D-04
 NORM(A)=   0.10963987D+01
 Iteration Nr.   6
 **********************
 DD1Dir will call FoFMem   1 times, MxPair=       156
 NAB=    78 NAA=     0 NBB=     0.
 DE(Corr)= -0.89405779     E(CORR)=     -312.63527255     Delta=-2.65D-05
 NORM(A)=   0.10964120D+01
 Iteration Nr.   7
 **********************
 DD1Dir will call FoFMem   1 times, MxPair=       156
 NAB=    78 NAA=     0 NBB=     0.
 DE(Corr)= -0.89405942     E(CORR)=     -312.63527418     Delta=-1.62D-06
 NORM(A)=   0.10964118D+01
 Iteration Nr.   8
 **********************
 DD1Dir will call FoFMem   1 times, MxPair=       156
 NAB=    78 NAA=     0 NBB=     0.
 DE(Corr)= -0.89405840     E(CORR)=     -312.63527316     Delta= 1.01D-06
 NORM(A)=   0.10964123D+01
 Iteration Nr.   9
 **********************
 DD1Dir will call FoFMem   1 times, MxPair=       156
 NAB=    78 NAA=     0 NBB=     0.
 DE(Corr)= -0.89405880     E(CORR)=     -312.63527356     Delta=-4.00D-07
 NORM(A)=   0.10964123D+01
 Iteration Nr.  10
 **********************
 DD1Dir will call FoFMem   1 times, MxPair=       156
 NAB=    78 NAA=     0 NBB=     0.
 DE(Corr)= -0.89405870     E(CORR)=     -312.63527346     Delta= 1.01D-07
 NORM(A)=   0.10964125D+01
 Iteration Nr.  11
 **********************
 DD1Dir will call FoFMem   1 times, MxPair=       156
 NAB=    78 NAA=     0 NBB=     0.
 DE(Corr)= -0.89405917     E(CORR)=     -312.63527393     Delta=-4.72D-07
 NORM(A)=   0.10964128D+01
 Iteration Nr.  12
 **********************
 DD1Dir will call FoFMem   1 times, MxPair=       156
 NAB=    78 NAA=     0 NBB=     0.
 DE(Corr)= -0.89405921     E(CORR)=     -312.63527397     Delta=-3.35D-08
 NORM(A)=   0.10964129D+01
 Iteration Nr.  13
 **********************
 DD1Dir will call FoFMem   1 times, MxPair=       156
 NAB=    78 NAA=     0 NBB=     0.
 DE(Corr)= -0.89405930     E(CORR)=     -312.63527406     Delta=-9.63D-08
 NORM(A)=   0.10964130D+01
 Iteration Nr.  14
 **********************
 DD1Dir will call FoFMem   1 times, MxPair=       156
 NAB=    78 NAA=     0 NBB=     0.
 DE(Corr)= -0.89405932     E(CORR)=     -312.63527408     Delta=-1.59D-08
 NORM(A)=   0.10964131D+01
 Iteration Nr.  15
 **********************
 DD1Dir will call FoFMem   1 times, MxPair=       156
 NAB=    78 NAA=     0 NBB=     0.
 DE(Corr)= -0.89405933     E(CORR)=     -312.63527409     Delta=-8.90D-09
 NORM(A)=   0.10964131D+01
 Iteration Nr.  16
 **********************
 DD1Dir will call FoFMem   1 times, MxPair=       156
 NAB=    78 NAA=     0 NBB=     0.
 DE(Corr)= -0.89405933     E(CORR)=     -312.63527409     Delta=-3.87D-09
 NORM(A)=   0.10964131D+01
 Largest amplitude= 5.78D-02

 Z-AMPLITUDE ITERATIONS

 Iteration Nr.   1
 **********************
 DD1Dir will call FoFMem   1 times, MxPair=       156
 NAB=    78 NAA=     0 NBB=     0.
 DE(Z)  -0.87475549D+00          E(Z)=    -0.31261597025D+03
 NORM(A)=   0.10964027D+01
 Iteration Nr.   2
 **********************
 DD1Dir will call FoFMem   1 times, MxPair=       156
 NAB=    78 NAA=     0 NBB=     0.
 DE(Z)  -0.87475545D+00          E(Z)=    -0.31261597021D+03
 NORM(A)=   0.10964269D+01
 Iteration Nr.   3
 **********************
 DD1Dir will call FoFMem   1 times, MxPair=       156
 NAB=    78 NAA=     0 NBB=     0.
 DE(Z)  -0.87475565D+00          E(Z)=    -0.31261597041D+03
 NORM(A)=   0.10964063D+01
 Iteration Nr.   4
 **********************
 DD1Dir will call FoFMem   1 times, MxPair=       156
 NAB=    78 NAA=     0 NBB=     0.
 DE(Z)  -0.87475543D+00          E(Z)=    -0.31261597019D+03
 NORM(A)=   0.10964224D+01
 Iteration Nr.   5
 **********************
 DD1Dir will call FoFMem   1 times, MxPair=       156
 NAB=    78 NAA=     0 NBB=     0.
 DE(Z)  -0.87475562D+00          E(Z)=    -0.31261597038D+03
 NORM(A)=   0.10919790D+01
 Iteration Nr.   6
 **********************
 DD1Dir will call FoFMem   1 times, MxPair=       156
 NAB=    78 NAA=     0 NBB=     0.
 DE(Z)  -0.87469265D+00          E(Z)=    -0.31261590741D+03
 NORM(A)=   0.10919716D+01
 Iteration Nr.   7
 **********************
 DD1Dir will call FoFMem   1 times, MxPair=       156
 NAB=    78 NAA=     0 NBB=     0.
 DE(Z)  -0.87469899D+00          E(Z)=    -0.31261591375D+03
 NORM(A)=   0.10919702D+01
 Iteration Nr.   8
 **********************
 DD1Dir will call FoFMem   1 times, MxPair=       156
 NAB=    78 NAA=     0 NBB=     0.
 DE(Z)  -0.87469867D+00          E(Z)=    -0.31261591343D+03
 NORM(A)=   0.10919708D+01
 Iteration Nr.   9
 **********************
 DD1Dir will call FoFMem   1 times, MxPair=       156
 NAB=    78 NAA=     0 NBB=     0.
 DE(Z)  -0.87469868D+00          E(Z)=    -0.31261591344D+03
 NORM(A)=   0.10919708D+01
 Iteration Nr.  10
 **********************
 DD1Dir will call FoFMem   1 times, MxPair=       156
 NAB=    78 NAA=     0 NBB=     0.
 DE(Z)  -0.87469869D+00          E(Z)=    -0.31261591345D+03
 NORM(A)=   0.10919711D+01
 Iteration Nr.  11
 **********************
 DD1Dir will call FoFMem   1 times, MxPair=       156
 NAB=    78 NAA=     0 NBB=     0.
 DE(Z)  -0.87469867D+00          E(Z)=    -0.31261591343D+03
 NORM(A)=   0.10919711D+01
 Iteration Nr.  12
 **********************
 DD1Dir will call FoFMem   1 times, MxPair=       156
 NAB=    78 NAA=     0 NBB=     0.
 DE(Z)  -0.87469869D+00          E(Z)=    -0.31261591345D+03
 NORM(A)=   0.10919711D+01
 Iteration Nr.  13
 **********************
 DD1Dir will call FoFMem   1 times, MxPair=       156
 NAB=    78 NAA=     0 NBB=     0.
 DE(Z)  -0.87469869D+00          E(Z)=    -0.31261591345D+03
 NORM(A)=   0.10919711D+01
 Iteration Nr.  14
 **********************
 DD1Dir will call FoFMem   1 times, MxPair=       156
 NAB=    78 NAA=     0 NBB=     0.
 DE(Z)  -0.87469869D+00          E(Z)=    -0.31261591345D+03
 NORM(A)=   0.10919711D+01
 Discarding MO integrals.
          Differentiating once with respect to electric field.
                with respect to dipole field.
          Electric field/nuclear overlap derivatives assumed to be zero.
          Keep R1 ints in memory in canonical form, NReq=297441306.
          There are     1 degrees of freedom in the 1st order CPHF.  IDoFFX=0.
 LinEq1:  Iter=  0 NonCon=     1 RMS=3.07D-03 Max=8.45D-02
 AX will form     1 AO Fock derivatives at one time.
 LinEq1:  Iter=  1 NonCon=     1 RMS=7.55D-04 Max=1.11D-02
 LinEq1:  Iter=  2 NonCon=     1 RMS=2.24D-04 Max=3.37D-03
 LinEq1:  Iter=  3 NonCon=     1 RMS=9.87D-05 Max=1.57D-03
 LinEq1:  Iter=  4 NonCon=     1 RMS=2.27D-05 Max=3.72D-04
 LinEq1:  Iter=  5 NonCon=     1 RMS=1.09D-05 Max=2.98D-04
 LinEq1:  Iter=  6 NonCon=     1 RMS=2.61D-06 Max=4.74D-05
 LinEq1:  Iter=  7 NonCon=     1 RMS=5.33D-07 Max=1.03D-05
 LinEq1:  Iter=  8 NonCon=     1 RMS=9.46D-08 Max=1.21D-06
 LinEq1:  Iter=  9 NonCon=     1 RMS=1.31D-08 Max=1.79D-07
 LinEq1:  Iter= 10 NonCon=     1 RMS=2.48D-09 Max=2.97D-08
 LinEq1:  Iter= 11 NonCon=     1 RMS=9.96D-10 Max=1.25D-08
 LinEq1:  Iter= 12 NonCon=     1 RMS=2.76D-10 Max=3.23D-09
 LinEq1:  Iter= 13 NonCon=     0 RMS=4.50D-11 Max=4.13D-10
 Linear equations converged to 1.000D-10 1.000D-09 after    13 iterations.
 End of Minotr Frequency-dependent properties file   721 does not exist.
 End of Minotr Frequency-dependent properties file   722 does not exist.

 **********************************************************************

            Population analysis using the QCI/CC density.

 **********************************************************************

     Natural Orbital Coefficients:
                           1         2         3         4         5
     Eigenvalues --     2.00001   2.00000   2.00000   2.00000   1.98618
   1 1   O  1S         -0.63129  -0.72174   0.00125   0.19951  -0.01943
   2        2S          0.01166   0.01268  -0.00003  -0.00382   0.04672
   3        3S         -0.02675  -0.03101   0.00005   0.00866   0.01304
   4        4S          0.00202   0.00275   0.00000  -0.00173  -0.00013
   5        5S         -0.00050   0.00091   0.00000  -0.00176  -0.01905
   6        6PX         0.00000   0.00000   0.00000   0.00000   0.00000
   7        6PY        -0.00005  -0.00002   0.00018   0.00000  -0.00004
   8        6PZ         0.00404   0.00178   0.00000   0.00011  -0.01421
   9        7PX         0.00000   0.00000   0.00000   0.00000   0.00000
  10        7PY        -0.00002   0.00001   0.00012  -0.00003  -0.00017
  11        7PZ         0.00267  -0.00196   0.00001   0.00167  -0.01386
  12        8PX         0.00000   0.00000   0.00000   0.00000   0.00000
  13        8PY        -0.00001  -0.00002  -0.00044  -0.00003  -0.00057
  14        8PZ         0.00320  -0.00075   0.00000   0.00059   0.00961
  15        9PX         0.00000   0.00000   0.00000   0.00000   0.00000
  16        9PY        -0.00001   0.00000  -0.00034   0.00000  -0.00012
  17        9PZ         0.00035   0.00004   0.00000   0.00046   0.00545
  18       10D 0       -0.00026  -0.00011   0.00000  -0.00002   0.00115
  19       10D+1        0.00000   0.00000   0.00000   0.00000   0.00000
  20       10D-1        0.00000   0.00000  -0.00001   0.00000  -0.00001
  21       10D+2        0.00005   0.00005   0.00000   0.00001   0.00002
  22       10D-2        0.00000   0.00000   0.00000   0.00000   0.00000
  23       11D 0       -0.00003   0.00091   0.00000  -0.00046  -0.00021
  24       11D+1        0.00000   0.00000   0.00000   0.00000   0.00000
  25       11D-1        0.00000  -0.00002   0.00005   0.00002   0.00010
  26       11D+2        0.00006   0.00001   0.00000  -0.00017  -0.00081
  27       11D-2        0.00000   0.00000   0.00000   0.00000   0.00000
  28       12D 0       -0.00044   0.00023   0.00000  -0.00009  -0.00566
  29       12D+1        0.00000   0.00000   0.00000   0.00000   0.00000
  30       12D-1        0.00000   0.00000   0.00013   0.00001   0.00019
  31       12D+2        0.00027  -0.00027   0.00000  -0.00017  -0.00213
  32       12D-2        0.00000   0.00000   0.00000   0.00000   0.00000
  33       13F 0       -0.00017   0.00008   0.00000  -0.00010  -0.00049
  34       13F+1        0.00000   0.00000   0.00000   0.00000   0.00000
  35       13F-1        0.00000   0.00000   0.00002   0.00000  -0.00001
  36       13F+2        0.00003   0.00002   0.00000   0.00002   0.00017
  37       13F-2        0.00000   0.00000   0.00000   0.00000   0.00000
  38       13F+3        0.00000   0.00000   0.00000   0.00000   0.00000
  39       13F-3        0.00000   0.00000  -0.00002   0.00000   0.00000
  40       14F 0        0.00004  -0.00022   0.00000   0.00025   0.00165
  41       14F+1        0.00000   0.00000   0.00000   0.00000   0.00000
  42       14F-1       -0.00001   0.00001  -0.00008  -0.00001  -0.00005
  43       14F+2        0.00000   0.00002   0.00000   0.00017   0.00090
  44       14F-2        0.00000   0.00000   0.00000   0.00000   0.00000
  45       14F+3        0.00000   0.00000   0.00000   0.00000   0.00000
  46       14F-3        0.00000   0.00000   0.00007   0.00000  -0.00002
  47 2   C  1S          0.71627  -0.50383   0.00300   0.44201  -0.05154
  48        2S         -0.00912   0.00500  -0.00003  -0.00397   0.10859
  49        3S          0.02924  -0.02123   0.00012   0.01786   0.02356
  50        4S         -0.00027   0.00065   0.00001   0.00014   0.01479
  51        5S          0.00023  -0.00010   0.00000   0.00036   0.00331
  52        6PX         0.00000   0.00000   0.00000   0.00000   0.00000
  53        6PY         0.00002  -0.00001   0.00003   0.00001  -0.00030
  54        6PZ        -0.00185   0.00115  -0.00001  -0.00108  -0.01579
  55        7PX         0.00000   0.00000   0.00000   0.00000   0.00000
  56        7PY        -0.00001   0.00004   0.00091  -0.00003  -0.00038
  57        7PZ         0.00112  -0.00470   0.00000   0.00147  -0.01160
  58        8PX         0.00000   0.00000   0.00000   0.00000   0.00000
  59        8PY        -0.00005   0.00005  -0.00055   0.00000   0.00030
  60        8PZ         0.00080  -0.00026   0.00001   0.00202   0.01489
  61        9PX         0.00000   0.00000   0.00000   0.00000   0.00000
  62        9PY         0.00000   0.00000   0.00029   0.00000   0.00003
  63        9PZ         0.00004  -0.00038   0.00000  -0.00006  -0.00015
  64       10D 0        0.00028  -0.00050   0.00000   0.00038   0.00513
  65       10D+1        0.00000   0.00000   0.00000   0.00000   0.00000
  66       10D-1        0.00000   0.00001  -0.00018   0.00000  -0.00004
  67       10D+2       -0.00041   0.00020   0.00000  -0.00042  -0.00853
  68       10D-2        0.00000   0.00000   0.00000   0.00000   0.00000
  69       11D 0       -0.00040  -0.00103   0.00001   0.00058   0.00660
  70       11D+1        0.00000   0.00000   0.00000   0.00000   0.00000
  71       11D-1        0.00003   0.00001  -0.00099   0.00002   0.00016
  72       11D+2        0.00089  -0.00129   0.00000   0.00017  -0.00980
  73       11D-2        0.00000   0.00000   0.00000   0.00000   0.00000
  74       12D 0        0.00009   0.00060   0.00001   0.00031   0.00030
  75       12D+1        0.00000   0.00000   0.00000   0.00000   0.00000
  76       12D-1        0.00000  -0.00001   0.00056   0.00000   0.00007
  77       12D+2        0.00005   0.00022   0.00001   0.00033   0.00346
  78       12D-2        0.00000   0.00000   0.00000   0.00000   0.00000
  79       13F 0        0.00070  -0.00032   0.00000   0.00061   0.00432
  80       13F+1        0.00000   0.00000   0.00000   0.00000   0.00000
  81       13F-1       -0.00002   0.00000   0.00023   0.00000  -0.00004
  82       13F+2        0.00033   0.00010   0.00001   0.00060   0.00559
  83       13F-2        0.00000   0.00000   0.00000   0.00000   0.00000
  84       13F+3        0.00000   0.00000   0.00000   0.00000   0.00000
  85       13F-3        0.00000   0.00000  -0.00021   0.00000   0.00000
  86       14F 0       -0.00116   0.00045   0.00000   0.00056   0.00353
  87       14F+1        0.00000   0.00000   0.00000   0.00000   0.00000
  88       14F-1       -0.00002   0.00002   0.00087  -0.00001   0.00008
  89       14F+2       -0.00098   0.00085   0.00001   0.00026   0.00488
  90       14F-2        0.00000   0.00000   0.00000   0.00000   0.00000
  91       14F+3        0.00000   0.00000   0.00000   0.00000   0.00000
  92       14F-3        0.00000   0.00000   0.00006   0.00000  -0.00003
  93 3   F  1S         -0.15731   0.30362  -0.68971   0.60445  -0.14651
  94        2S          0.00334  -0.00548   0.01108  -0.00910   0.37372
  95        3S         -0.00639   0.01286  -0.02973   0.02631   0.11396
  96        4S          0.00264  -0.00290   0.00058   0.00088   0.23224
  97        5S          0.00020  -0.00021  -0.00069   0.00068   0.01437
  98        6PX         0.00000   0.00000   0.00000   0.00000   0.00000
  99        6PY        -0.00110   0.00130  -0.00145   0.00093  -0.00580
 100        6PZ        -0.00089   0.00079  -0.00110   0.00058  -0.01940
 101        7PX         0.00000   0.00000   0.00000   0.00000   0.00000
 102        7PY        -0.00101   0.00063   0.00014  -0.00043  -0.00305
 103        7PZ        -0.00091   0.00021  -0.00012  -0.00050  -0.02135
 104        8PX         0.00000   0.00000   0.00000   0.00000   0.00000
 105        8PY        -0.00058   0.00031  -0.00086   0.00111  -0.01215
 106        8PZ        -0.00029  -0.00008  -0.00144   0.00059  -0.02301
 107        9PX         0.00000   0.00000   0.00000   0.00000   0.00000
 108        9PY        -0.00008  -0.00002  -0.00039   0.00009  -0.00091
 109        9PZ        -0.00004   0.00039  -0.00007   0.00025  -0.00082
 110       10D 0        0.00000  -0.00001   0.00000   0.00000  -0.00011
 111       10D+1        0.00000   0.00000   0.00000   0.00000   0.00000
 112       10D-1        0.00003  -0.00002  -0.00001   0.00004   0.00067
 113       10D+2        0.00001  -0.00001   0.00001  -0.00002  -0.00064
 114       10D-2        0.00000   0.00000   0.00000   0.00000   0.00000
 115       11D 0       -0.00006   0.00004  -0.00007  -0.00006  -0.00090
 116       11D+1        0.00000   0.00000   0.00000   0.00000   0.00000
 117       11D-1       -0.00036   0.00003   0.00024  -0.00046   0.00350
 118       11D+2        0.00011   0.00003  -0.00018   0.00020  -0.00329
 119       11D-2        0.00000   0.00000   0.00000   0.00000   0.00000
 120       12D 0       -0.00009   0.00001  -0.00023   0.00005  -0.00001
 121       12D+1        0.00000   0.00000   0.00000   0.00000   0.00000
 122       12D-1       -0.00001  -0.00001  -0.00040   0.00019  -0.00279
 123       12D+2        0.00020  -0.00010   0.00022  -0.00024   0.00131
 124       12D-2        0.00000   0.00000   0.00000   0.00000   0.00000
 125       13F 0        0.00000  -0.00002   0.00000  -0.00001  -0.00034
 126       13F+1        0.00000   0.00000   0.00000   0.00000   0.00000
 127       13F-1       -0.00001  -0.00003   0.00000  -0.00002   0.00009
 128       13F+2        0.00001   0.00003  -0.00002   0.00003  -0.00046
 129       13F-2        0.00000   0.00000   0.00000   0.00000   0.00000
 130       13F+3        0.00000   0.00000   0.00000   0.00000   0.00000
 131       13F-3        0.00001   0.00000  -0.00006   0.00001  -0.00040
 132       14F 0        0.00015  -0.00001  -0.00003   0.00014  -0.00031
 133       14F+1        0.00000   0.00000   0.00000   0.00000   0.00000
 134       14F-1       -0.00019   0.00017  -0.00003  -0.00012   0.00001
 135       14F+2        0.00026  -0.00022   0.00000   0.00014  -0.00100
 136       14F-2        0.00000   0.00000   0.00000   0.00000   0.00000
 137       14F+3        0.00000   0.00000   0.00000   0.00000   0.00000
 138       14F-3        0.00005  -0.00004   0.00012   0.00003  -0.00052
 139 4   F  1S         -0.15818   0.30499   0.69451   0.59801  -0.14566
 140        2S          0.00337  -0.00550  -0.01116  -0.00900   0.37161
 141        3S         -0.00643   0.01292   0.02994   0.02603   0.11333
 142        4S          0.00271  -0.00295  -0.00058   0.00092   0.23096
 143        5S          0.00027  -0.00028   0.00070   0.00068   0.01411
 144        6PX         0.00000   0.00000   0.00000   0.00000   0.00000
 145        6PY         0.00110  -0.00130  -0.00145  -0.00092   0.00549
 146        6PZ        -0.00089   0.00080   0.00111   0.00058  -0.01957
 147        7PX         0.00000   0.00000   0.00000   0.00000   0.00000
 148        7PY         0.00100  -0.00062   0.00015   0.00043   0.00268
 149        7PZ        -0.00091   0.00022   0.00012  -0.00050  -0.02155
 150        8PX         0.00000   0.00000   0.00000   0.00000   0.00000
 151        8PY         0.00053  -0.00029  -0.00086  -0.00113   0.01171
 152        8PZ        -0.00032  -0.00008   0.00145   0.00058  -0.02299
 153        9PX         0.00000   0.00000   0.00000   0.00000   0.00000
 154        9PY         0.00006   0.00004  -0.00039  -0.00009   0.00087
 155        9PZ        -0.00003   0.00038   0.00008   0.00024  -0.00089
 156       10D 0        0.00000  -0.00001   0.00000   0.00000  -0.00011
 157       10D+1        0.00000   0.00000   0.00000   0.00000   0.00000
 158       10D-1       -0.00003   0.00002  -0.00001  -0.00004  -0.00066
 159       10D+2        0.00001  -0.00001  -0.00002  -0.00002  -0.00064
 160       10D-2        0.00000   0.00000   0.00000   0.00000   0.00000
 161       11D 0       -0.00007   0.00004   0.00007  -0.00006  -0.00093
 162       11D+1        0.00000   0.00000   0.00000   0.00000   0.00000
 163       11D-1        0.00036  -0.00002   0.00024   0.00046  -0.00347
 164       11D+2        0.00010   0.00003   0.00019   0.00020  -0.00329
 165       11D-2        0.00000   0.00000   0.00000   0.00000   0.00000
 166       12D 0       -0.00012   0.00000   0.00024   0.00005  -0.00003
 167       12D+1        0.00000   0.00000   0.00000   0.00000   0.00000
 168       12D-1        0.00002   0.00001  -0.00040  -0.00019   0.00271
 169       12D+2        0.00019  -0.00010  -0.00022  -0.00024   0.00127
 170       12D-2        0.00000   0.00000   0.00000   0.00000   0.00000
 171       13F 0        0.00000  -0.00002   0.00000  -0.00001  -0.00034
 172       13F+1        0.00000   0.00000   0.00000   0.00000   0.00000
 173       13F-1        0.00001   0.00003   0.00000   0.00002  -0.00009
 174       13F+2        0.00001   0.00003   0.00002   0.00003  -0.00046
 175       13F-2        0.00000   0.00000   0.00000   0.00000   0.00000
 176       13F+3        0.00000   0.00000   0.00000   0.00000   0.00000
 177       13F-3       -0.00001   0.00000  -0.00006  -0.00001   0.00040
 178       14F 0        0.00014  -0.00001   0.00003   0.00014  -0.00032
 179       14F+1        0.00000   0.00000   0.00000   0.00000   0.00000
 180       14F-1        0.00020  -0.00017  -0.00003   0.00012   0.00001
 181       14F+2        0.00026  -0.00022   0.00000   0.00014  -0.00099
 182       14F-2        0.00000   0.00000   0.00000   0.00000   0.00000
 183       14F+3        0.00000   0.00000   0.00000   0.00000   0.00000
 184       14F-3       -0.00005   0.00004   0.00011  -0.00004   0.00052
                           6         7         8         9        10
     Eigenvalues --     1.98560   1.98141   1.97345   1.97134   1.96827
   1 1   O  1S          0.00035  -0.19114  -0.03799   0.00041   0.00000
   2        2S         -0.00092   0.49177   0.10514  -0.00094   0.00000
   3        3S         -0.00024   0.13804   0.03119  -0.00028   0.00000
   4        4S         -0.00069   0.30619   0.08952  -0.00008   0.00000
   5        5S         -0.00009   0.03419  -0.00726   0.00031   0.00000
   6        6PX         0.00000   0.00000   0.00000   0.00000  -0.00679
   7        6PY         0.02083  -0.00035   0.00056  -0.05084   0.00000
   8        6PZ         0.00022   0.00044   0.02518  -0.00110   0.00000
   9        7PX         0.00000   0.00000   0.00000   0.00000  -0.00917
  10        7PY         0.02602  -0.00043   0.00073  -0.06906   0.00000
  11        7PZ         0.00033  -0.00512   0.02565  -0.00150   0.00000
  12        8PX         0.00000   0.00000   0.00000   0.00000  -0.01799
  13        8PY         0.01660  -0.00085   0.00031  -0.06843   0.00000
  14        8PZ         0.00018   0.04807   0.00465  -0.00100   0.00000
  15        9PX         0.00000   0.00000   0.00000   0.00000  -0.00940
  16        9PY        -0.00184  -0.00019  -0.00006   0.00647   0.00000
  17        9PZ         0.00004   0.00287   0.00465  -0.00008   0.00000
  18       10D 0       -0.00003   0.00473  -0.00109   0.00008   0.00000
  19       10D+1        0.00000   0.00000   0.00000   0.00000  -0.00194
  20       10D-1       -0.00075  -0.00006  -0.00003   0.00318   0.00000
  21       10D+2        0.00000  -0.00003   0.00048   0.00002   0.00000
  22       10D-2        0.00000   0.00000   0.00000   0.00000   0.00001
  23       11D 0       -0.00008   0.01179  -0.00040   0.00026   0.00000
  24       11D+1        0.00000   0.00000   0.00000   0.00000  -0.00232
  25       11D-1       -0.00193  -0.00010  -0.00009   0.01380   0.00000
  26       11D+2       -0.00002   0.00007   0.00080   0.00015   0.00000
  27       11D-2        0.00000   0.00000   0.00000   0.00000   0.00008
  28       12D 0        0.00001  -0.01282   0.00754   0.00016   0.00000
  29       12D+1        0.00000   0.00000   0.00000   0.00000   0.00042
  30       12D-1       -0.00051   0.00024   0.00006   0.01397   0.00000
  31       12D+2       -0.00002   0.00038   0.00073   0.00024   0.00000
  32       12D-2        0.00000   0.00000   0.00000   0.00000   0.00020
  33       13F 0        0.00003  -0.00277   0.00065  -0.00005   0.00000
  34       13F+1        0.00000   0.00000   0.00000   0.00000   0.00128
  35       13F-1        0.00076   0.00004   0.00000  -0.00263   0.00000
  36       13F+2        0.00001   0.00023  -0.00018  -0.00004   0.00000
  37       13F-2        0.00000   0.00000   0.00000   0.00000  -0.00001
  38       13F+3        0.00000   0.00000   0.00000   0.00000  -0.00022
  39       13F-3        0.00000   0.00000   0.00000  -0.00006   0.00000
  40       14F 0        0.00002  -0.00058  -0.00039  -0.00010   0.00000
  41       14F+1        0.00000   0.00000   0.00000   0.00000  -0.00182
  42       14F-1        0.00008   0.00000   0.00000  -0.00238   0.00000
  43       14F+2        0.00003  -0.00054   0.00096  -0.00010   0.00000
  44       14F-2        0.00000   0.00000   0.00000   0.00000  -0.00010
  45       14F+3        0.00000   0.00000   0.00000   0.00000   0.00119
  46       14F-3        0.00035   0.00000   0.00000  -0.00058   0.00000
  47 2   C  1S          0.00002  -0.06836  -0.01112  -0.00055   0.00000
  48        2S         -0.00005   0.15838   0.02591   0.00148   0.00000
  49        3S         -0.00003   0.03834   0.00691   0.00043   0.00000
  50        4S          0.00010   0.02753  -0.01764  -0.00052   0.00000
  51        5S         -0.00003  -0.00234  -0.00027  -0.00015   0.00000
  52        6PX         0.00000   0.00000   0.00000   0.00000   0.10458
  53        6PY         0.03752  -0.00076   0.00079  -0.07740   0.00000
  54        6PZ        -0.00021   0.08040  -0.05182  -0.00102   0.00000
  55        7PX         0.00000   0.00000   0.00000   0.00000   0.13180
  56        7PY         0.03135  -0.00054   0.00104  -0.09798   0.00000
  57        7PZ        -0.00008   0.05670  -0.08153  -0.00141   0.00000
  58        8PX         0.00000   0.00000   0.00000   0.00000   0.01770
  59        8PY        -0.01993  -0.00006  -0.00006   0.07396   0.00000
  60        8PZ         0.00011  -0.03068   0.02612  -0.00077   0.00000
  61        9PX         0.00000   0.00000   0.00000   0.00000   0.00216
  62        9PY         0.00173   0.00010   0.00001  -0.00467   0.00000
  63        9PZ        -0.00001  -0.00016   0.00215   0.00001   0.00000
  64       10D 0        0.00002   0.01239   0.02007   0.00008   0.00000
  65       10D+1        0.00000   0.00000   0.00000   0.00000  -0.01458
  66       10D-1       -0.00893  -0.00029  -0.00002  -0.01008   0.00000
  67       10D+2       -0.00001  -0.00253   0.01033  -0.00002   0.00000
  68       10D-2        0.00000   0.00000   0.00000   0.00000   0.00024
  69       11D 0        0.00010   0.00219   0.03775   0.00007   0.00000
  70       11D+1        0.00000   0.00000   0.00000   0.00000  -0.02451
  71       11D-1       -0.01053  -0.00012   0.00002   0.00690   0.00000
  72       11D+2        0.00003  -0.00758   0.02174   0.00004   0.00000
  73       11D-2        0.00000   0.00000   0.00000   0.00000   0.00038
  74       12D 0        0.00002  -0.01207  -0.00404  -0.00020   0.00000
  75       12D+1        0.00000   0.00000   0.00000   0.00000   0.00030
  76       12D-1        0.01020   0.00045  -0.00014  -0.01231   0.00000
  77       12D+2        0.00004  -0.00300   0.00098   0.00004   0.00000
  78       12D-2        0.00000   0.00000   0.00000   0.00000  -0.00007
  79       13F 0        0.00002   0.00622  -0.00584  -0.00003   0.00000
  80       13F+1        0.00000   0.00000   0.00000   0.00000   0.00451
  81       13F-1        0.00197  -0.00010   0.00001   0.01099   0.00000
  82       13F+2        0.00003   0.00263   0.00018   0.00002   0.00000
  83       13F-2        0.00000   0.00000   0.00000   0.00000  -0.00016
  84       13F+3        0.00000   0.00000   0.00000   0.00000  -0.00774
  85       13F-3       -0.00207  -0.00002  -0.00003   0.00533   0.00000
  86       14F 0        0.00003  -0.00235  -0.00721   0.00001   0.00000
  87       14F+1        0.00000   0.00000   0.00000   0.00000  -0.00080
  88       14F-1        0.00551   0.00024   0.00000   0.01638   0.00000
  89       14F+2        0.00005   0.00047  -0.00649   0.00008   0.00000
  90       14F-2        0.00000   0.00000   0.00000   0.00000  -0.00029
  91       14F+3        0.00000   0.00000   0.00000   0.00000  -0.00144
  92       14F-3        0.00087   0.00006   0.00000  -0.00098   0.00000
  93 3   F  1S          0.14895   0.01975   0.01616   0.01708   0.00000
  94        2S         -0.38060  -0.05051  -0.04336  -0.04622   0.00000
  95        3S         -0.11655  -0.01589  -0.01458  -0.01582   0.00000
  96        4S         -0.25049  -0.05438  -0.03395  -0.05150   0.00000
  97        5S         -0.03177  -0.02295   0.00936   0.04870   0.00000
  98        6PX         0.00000   0.00000   0.00000   0.00000   0.24746
  99        6PY         0.03799  -0.00251   0.16676  -0.12858   0.00000
 100        6PZ         0.00892   0.04657  -0.19654   0.23308   0.00000
 101        7PX         0.00000   0.00000   0.00000   0.00000   0.30218
 102        7PY         0.04165  -0.00552   0.20210  -0.15635   0.00000
 103        7PZ         0.00731   0.05468  -0.23828   0.28160   0.00000
 104        8PX         0.00000   0.00000   0.00000   0.00000   0.20685
 105        8PY         0.03536  -0.01292   0.12654  -0.13292   0.00000
 106        8PZ         0.00443   0.02843  -0.16624   0.18608   0.00000
 107        9PX         0.00000   0.00000   0.00000   0.00000   0.01547
 108        9PY        -0.00135  -0.00338   0.01332   0.00058   0.00000
 109        9PZ        -0.00040  -0.00360  -0.01434   0.02611   0.00000
 110       10D 0       -0.00016   0.00060  -0.00265   0.00235   0.00000
 111       10D+1        0.00000   0.00000   0.00000   0.00000   0.00186
 112       10D-1       -0.00042   0.00079  -0.00064   0.00165   0.00000
 113       10D+2        0.00009  -0.00003  -0.00221   0.00055   0.00000
 114       10D-2        0.00000   0.00000   0.00000   0.00000   0.00303
 115       11D 0       -0.00102   0.00174  -0.00995   0.00858   0.00000
 116       11D+1        0.00000   0.00000   0.00000   0.00000   0.00797
 117       11D-1       -0.00401   0.00019  -0.00250   0.00616   0.00000
 118       11D+2        0.00191   0.00124  -0.00749   0.00181   0.00000
 119       11D-2        0.00000   0.00000   0.00000   0.00000   0.01233
 120       12D 0       -0.00187   0.00010  -0.00482   0.00757   0.00000
 121       12D+1        0.00000   0.00000   0.00000   0.00000   0.00388
 122       12D-1       -0.00016  -0.00213  -0.00396  -0.00213   0.00000
 123       12D+2       -0.00150   0.00174   0.00083   0.01007   0.00000
 124       12D-2        0.00000   0.00000   0.00000   0.00000   0.00789
 125       13F 0        0.00011   0.00005  -0.00066   0.00041   0.00000
 126       13F+1        0.00000   0.00000   0.00000   0.00000   0.00029
 127       13F-1       -0.00029   0.00047  -0.00174   0.00182   0.00000
 128       13F+2        0.00031  -0.00012  -0.00040  -0.00029   0.00000
 129       13F-2        0.00000   0.00000   0.00000   0.00000   0.00163
 130       13F+3        0.00000   0.00000   0.00000   0.00000  -0.00156
 131       13F-3        0.00001   0.00009  -0.00107   0.00023   0.00000
 132       14F 0        0.00039   0.00074  -0.00185   0.00028   0.00000
 133       14F+1        0.00000   0.00000   0.00000   0.00000   0.00013
 134       14F-1       -0.00098   0.00010  -0.00274   0.00304   0.00000
 135       14F+2        0.00101   0.00056  -0.00042  -0.00083   0.00000
 136       14F-2        0.00000   0.00000   0.00000   0.00000   0.00300
 137       14F+3        0.00000   0.00000   0.00000   0.00000  -0.00197
 138       14F-3        0.00066   0.00030  -0.00072   0.00085   0.00000
 139 4   F  1S         -0.14992   0.01889   0.01642  -0.01661   0.00000
 140        2S          0.38310  -0.04823  -0.04408   0.04494   0.00000
 141        3S          0.11734  -0.01517  -0.01483   0.01537   0.00000
 142        4S          0.25211  -0.05270  -0.03492   0.04964   0.00000
 143        5S          0.03193  -0.02198   0.00907  -0.04939   0.00000
 144        6PX         0.00000   0.00000   0.00000   0.00000   0.25385
 145        6PY         0.03795   0.00265  -0.16639  -0.13236   0.00000
 146        6PZ        -0.00944   0.04590  -0.19337  -0.23409   0.00000
 147        7PX         0.00000   0.00000   0.00000   0.00000   0.30993
 148        7PY         0.04158   0.00564  -0.20164  -0.16093   0.00000
 149        7PZ        -0.00792   0.05392  -0.23444  -0.28285   0.00000
 150        8PX         0.00000   0.00000   0.00000   0.00000   0.21190
 151        8PY         0.03529   0.01325  -0.12577  -0.13540   0.00000
 152        8PZ        -0.00473   0.02811  -0.16354  -0.18717   0.00000
 153        9PX         0.00000   0.00000   0.00000   0.00000   0.01595
 154        9PY        -0.00137   0.00312  -0.01317   0.00063   0.00000
 155        9PZ         0.00040  -0.00370  -0.01399  -0.02634   0.00000
 156       10D 0        0.00016   0.00059  -0.00263  -0.00240   0.00000
 157       10D+1        0.00000   0.00000   0.00000   0.00000   0.00191
 158       10D-1       -0.00042  -0.00079   0.00060   0.00161   0.00000
 159       10D+2       -0.00009  -0.00003  -0.00222  -0.00061   0.00000
 160       10D-2        0.00000   0.00000   0.00000   0.00000  -0.00308
 161       11D 0        0.00101   0.00168  -0.00986  -0.00874   0.00000
 162       11D+1        0.00000   0.00000   0.00000   0.00000   0.00814
 163       11D-1       -0.00402  -0.00013   0.00235   0.00603   0.00000
 164       11D+2       -0.00193   0.00124  -0.00749  -0.00201   0.00000
 165       11D-2        0.00000   0.00000   0.00000   0.00000  -0.01253
 166       12D 0        0.00189   0.00018  -0.00472  -0.00770   0.00000
 167       12D+1        0.00000   0.00000   0.00000   0.00000   0.00402
 168       12D-1       -0.00017   0.00216   0.00388  -0.00216   0.00000
 169       12D+2        0.00148   0.00184   0.00091  -0.01009   0.00000
 170       12D-2        0.00000   0.00000   0.00000   0.00000  -0.00790
 171       13F 0       -0.00011   0.00005  -0.00067  -0.00044   0.00000
 172       13F+1        0.00000   0.00000   0.00000   0.00000   0.00030
 173       13F-1       -0.00028  -0.00046   0.00172   0.00183   0.00000
 174       13F+2       -0.00031  -0.00012  -0.00042   0.00026   0.00000
 175       13F-2        0.00000   0.00000   0.00000   0.00000  -0.00167
 176       13F+3        0.00000   0.00000   0.00000   0.00000  -0.00158
 177       13F-3        0.00002  -0.00009   0.00107   0.00025   0.00000
 178       14F 0       -0.00039   0.00073  -0.00187  -0.00033   0.00000
 179       14F+1        0.00000   0.00000   0.00000   0.00000   0.00018
 180       14F-1       -0.00098  -0.00004   0.00268   0.00306   0.00000
 181       14F+2       -0.00102   0.00059  -0.00044   0.00078   0.00000
 182       14F-2        0.00000   0.00000   0.00000   0.00000  -0.00305
 183       14F+3        0.00000   0.00000   0.00000   0.00000  -0.00200
 184       14F-3        0.00066  -0.00031   0.00070   0.00088   0.00000
                          11        12        13        14        15
     Eigenvalues --     1.96815   1.96675   1.96296   1.96122   1.95628
   1 1   O  1S          0.00000   0.05051   0.00041   0.00138   0.00019
   2        2S          0.00000  -0.15204  -0.00069  -0.02585  -0.00071
   3        3S          0.00000  -0.04664  -0.00012  -0.01180  -0.00027
   4        4S          0.00000  -0.21231   0.00137  -0.13296  -0.00118
   5        5S          0.00000  -0.04562   0.00130  -0.04424   0.00045
   6        6PX        -0.00008   0.00000   0.00000   0.00000   0.00000
   7        6PY         0.00000  -0.00092   0.23229   0.00586   0.25713
   8        6PZ         0.00000  -0.16449   0.00713  -0.26205   0.00035
   9        7PX        -0.00004   0.00000   0.00000   0.00000   0.00000
  10        7PY         0.00000  -0.00125   0.28351   0.00708   0.31638
  11        7PZ         0.00000  -0.19046   0.00869  -0.31479   0.00044
  12        8PX        -0.00006   0.00000   0.00000   0.00000   0.00000
  13        8PY         0.00000  -0.00133   0.18747   0.00375   0.21670
  14        8PZ         0.00000  -0.08004   0.00508  -0.15295   0.00092
  15        9PX        -0.00005   0.00000   0.00000   0.00000   0.00000
  16        9PY         0.00000  -0.00035   0.02589   0.00019   0.02927
  17        9PZ         0.00000   0.00325   0.00012  -0.00437   0.00009
  18       10D 0        0.00000   0.00729  -0.00035   0.01205   0.00003
  19       10D+1       -0.00003   0.00000   0.00000   0.00000   0.00000
  20       10D-1        0.00000  -0.00005  -0.00761  -0.00037  -0.00494
  21       10D+2        0.00000   0.00008  -0.00008   0.00022  -0.00006
  22       10D-2       -0.00022   0.00000   0.00000   0.00000   0.00000
  23       11D 0        0.00000   0.01229  -0.00092   0.02937   0.00011
  24       11D+1       -0.00013   0.00000   0.00000   0.00000   0.00000
  25       11D-1        0.00000  -0.00001  -0.01861  -0.00085  -0.01224
  26       11D+2        0.00000  -0.00009  -0.00020   0.00113  -0.00009
  27       11D-2       -0.00279   0.00000   0.00000   0.00000   0.00000
  28       12D 0        0.00000  -0.00062  -0.00034   0.00483  -0.00001
  29       12D+1       -0.00007   0.00000   0.00000   0.00000   0.00000
  30       12D-1        0.00000   0.00007  -0.00866  -0.00016  -0.00165
  31       12D+2        0.00000  -0.00062  -0.00013   0.00295   0.00010
  32       12D-2       -0.00742   0.00000   0.00000   0.00000   0.00000
  33       13F 0        0.00000  -0.00250   0.00020  -0.00480   0.00000
  34       13F+1        0.00003   0.00000   0.00000   0.00000   0.00000
  35       13F-1        0.00000   0.00002   0.00416   0.00022   0.00221
  36       13F+2        0.00000  -0.00027   0.00008  -0.00069   0.00005
  37       13F-2        0.00036   0.00000   0.00000   0.00000   0.00000
  38       13F+3        0.00000   0.00000   0.00000   0.00000   0.00000
  39       13F-3        0.00000   0.00000   0.00064   0.00002   0.00094
  40       14F 0        0.00000  -0.00088   0.00022  -0.00668  -0.00003
  41       14F+1        0.00003   0.00000   0.00000   0.00000   0.00000
  42       14F-1        0.00000  -0.00002   0.00384   0.00022   0.00252
  43       14F+2        0.00000  -0.00011   0.00007  -0.00081  -0.00001
  44       14F-2        0.00306   0.00000   0.00000   0.00000   0.00000
  45       14F+3        0.00006   0.00000   0.00000   0.00000   0.00000
  46       14F-3        0.00000  -0.00001   0.00081   0.00003  -0.00077
  47 2   C  1S          0.00000  -0.14315  -0.00117  -0.02109  -0.00037
  48        2S          0.00000   0.39344   0.00312   0.06109   0.00100
  49        3S          0.00000   0.10184   0.00070   0.01682   0.00021
  50        4S          0.00000   0.15887   0.00372  -0.01923   0.00098
  51        5S          0.00000   0.00627   0.00002   0.00757   0.00011
  52        6PX         0.00127   0.00000   0.00000   0.00000   0.00000
  53        6PY         0.00000  -0.00150   0.18026   0.00405  -0.07126
  54        6PZ         0.00000  -0.01066  -0.00487   0.22925   0.00183
  55        7PX         0.00149   0.00000   0.00000   0.00000   0.00000
  56        7PY         0.00000  -0.00152   0.21652   0.00545  -0.07958
  57        7PZ         0.00000  -0.02625  -0.00471   0.22751   0.00170
  58        8PX         0.00001   0.00000   0.00000   0.00000   0.00000
  59        8PY         0.00000  -0.00074   0.05437   0.00145  -0.01368
  60        8PZ         0.00000  -0.00305  -0.00151   0.02790  -0.00059
  61        9PX        -0.00001   0.00000   0.00000   0.00000   0.00000
  62        9PY         0.00000   0.00006  -0.00232   0.00009  -0.00297
  63        9PZ         0.00000  -0.00002   0.00006   0.00069  -0.00001
  64       10D 0        0.00000   0.00786  -0.00025   0.01855   0.00035
  65       10D+1       -0.00018   0.00000   0.00000   0.00000   0.00000
  66       10D-1        0.00000  -0.00012   0.00086  -0.00061   0.04363
  67       10D+2        0.00000  -0.00877  -0.00030   0.01155   0.00022
  68       10D-2       -0.02028   0.00000   0.00000   0.00000   0.00000
  69       11D 0        0.00000   0.00303  -0.00017   0.01701   0.00058
  70       11D+1       -0.00036   0.00000   0.00000   0.00000   0.00000
  71       11D-1        0.00000   0.00014  -0.02245  -0.00141   0.08691
  72       11D+2        0.00000  -0.02205  -0.00083   0.02371   0.00033
  73       11D-2       -0.03307   0.00000   0.00000   0.00000   0.00000
  74       12D 0        0.00000   0.00131  -0.00029  -0.00047  -0.00022
  75       12D+1       -0.00013   0.00000   0.00000   0.00000   0.00000
  76       12D-1        0.00000   0.00018  -0.00899  -0.00022   0.01294
  77       12D+2        0.00000   0.00355  -0.00036   0.00242  -0.00021
  78       12D-2        0.00374   0.00000   0.00000   0.00000   0.00000
  79       13F 0        0.00000   0.00789   0.00014   0.00494   0.00016
  80       13F+1        0.00004   0.00000   0.00000   0.00000   0.00000
  81       13F-1        0.00000  -0.00034   0.01433   0.00014   0.00451
  82       13F+2        0.00000   0.00601   0.00021  -0.00093   0.00010
  83       13F-2        0.00991   0.00000   0.00000   0.00000   0.00000
  84       13F+3       -0.00008   0.00000   0.00000   0.00000   0.00000
  85       13F-3        0.00000  -0.00006   0.00035  -0.00006   0.00307
  86       14F 0        0.00000   0.00378   0.00054  -0.01474   0.00010
  87       14F+1        0.00000   0.00000   0.00000   0.00000   0.00000
  88       14F-1        0.00000  -0.00019   0.02996   0.00102   0.01128
  89       14F+2        0.00000   0.00917   0.00063  -0.01248   0.00010
  90       14F-2        0.01516   0.00000   0.00000   0.00000   0.00000
  91       14F+3        0.00010   0.00000   0.00000   0.00000   0.00000
  92       14F-3        0.00000  -0.00002   0.00325   0.00014   0.00913
  93 3   F  1S          0.00000   0.02051  -0.00465   0.00540  -0.02171
  94        2S          0.00000  -0.06342   0.02081  -0.00736   0.05289
  95        3S          0.00000  -0.02300   0.00941   0.00070   0.01371
  96        4S          0.00000  -0.12470   0.08823   0.04215  -0.01287
  97        5S          0.00000  -0.02481   0.03564   0.01470  -0.02611
  98        6PX         0.27843   0.00000   0.00000   0.00000   0.00000
  99        6PY         0.00000   0.12771  -0.17225  -0.08526   0.15473
 100        6PZ         0.00000   0.09887  -0.00256  -0.12902   0.12016
 101        7PX         0.33898   0.00000   0.00000   0.00000   0.00000
 102        7PY         0.00000   0.15206  -0.20652  -0.10598   0.19053
 103        7PZ         0.00000   0.11713  -0.00208  -0.15850   0.14748
 104        8PX         0.23320   0.00000   0.00000   0.00000   0.00000
 105        8PY         0.00000   0.06813  -0.10675  -0.05279   0.11587
 106        8PZ         0.00000   0.05324   0.01325  -0.10030   0.08197
 107        9PX         0.02502   0.00000   0.00000   0.00000   0.00000
 108        9PY         0.00000  -0.00293  -0.00521   0.00214   0.00641
 109        9PZ         0.00000   0.00067   0.01253  -0.00774   0.00799
 110       10D 0        0.00000  -0.00001  -0.00006   0.00034  -0.00006
 111       10D+1        0.00179   0.00000   0.00000   0.00000   0.00000
 112       10D-1        0.00000   0.00388  -0.00309  -0.00268   0.00340
 113       10D+2        0.00000  -0.00258   0.00212   0.00219  -0.00203
 114       10D-2        0.00225   0.00000   0.00000   0.00000   0.00000
 115       11D 0        0.00000  -0.00033  -0.00234   0.00152  -0.00151
 116       11D+1        0.00719   0.00000   0.00000   0.00000   0.00000
 117       11D-1        0.00000   0.01095  -0.01112  -0.01181   0.01164
 118       11D+2        0.00000  -0.00784   0.00647   0.00859  -0.00781
 119       11D-2        0.00966   0.00000   0.00000   0.00000   0.00000
 120       12D 0        0.00000  -0.00130  -0.00734  -0.00123  -0.00400
 121       12D+1        0.00456   0.00000   0.00000   0.00000   0.00000
 122       12D-1        0.00000   0.00209  -0.00234  -0.00314   0.00241
 123       12D+2        0.00000  -0.00107  -0.00107   0.00472  -0.00527
 124       12D-2        0.00462   0.00000   0.00000   0.00000   0.00000
 125       13F 0        0.00000  -0.00100   0.00087   0.00092  -0.00095
 126       13F+1        0.00017   0.00000   0.00000   0.00000   0.00000
 127       13F-1        0.00000   0.00074  -0.00049  -0.00064   0.00082
 128       13F+2        0.00000  -0.00155   0.00155   0.00152  -0.00156
 129       13F-2        0.00152   0.00000   0.00000   0.00000   0.00000
 130       13F+3       -0.00093   0.00000   0.00000   0.00000   0.00000
 131       13F-3        0.00000  -0.00084   0.00068   0.00092  -0.00065
 132       14F 0        0.00000  -0.00086   0.00009   0.00215  -0.00203
 133       14F+1        0.00094   0.00000   0.00000   0.00000   0.00000
 134       14F-1        0.00000   0.00072  -0.00332  -0.00048   0.00041
 135       14F+2        0.00000  -0.00254   0.00255   0.00310  -0.00255
 136       14F-2        0.00258   0.00000   0.00000   0.00000   0.00000
 137       14F+3       -0.00231   0.00000   0.00000   0.00000   0.00000
 138       14F-3        0.00000  -0.00156   0.00138   0.00165  -0.00178
 139 4   F  1S          0.00000   0.02049   0.00459   0.00513   0.02172
 140        2S          0.00000  -0.06322  -0.02119  -0.00701  -0.05282
 141        3S          0.00000  -0.02291  -0.00969   0.00062  -0.01363
 142        4S          0.00000  -0.12352  -0.09292   0.03774   0.01291
 143        5S          0.00000  -0.02367  -0.03811   0.01259   0.02513
 144        6PX        -0.27277   0.00000   0.00000   0.00000   0.00000
 145        6PY         0.00000  -0.12320  -0.17781   0.07377   0.15558
 146        6PZ         0.00000   0.10156   0.01201  -0.12705  -0.12187
 147        7PX        -0.33205   0.00000   0.00000   0.00000   0.00000
 148        7PY         0.00000  -0.14664  -0.21322   0.09208   0.19168
 149        7PZ         0.00000   0.12041   0.01348  -0.15616  -0.14964
 150        8PX        -0.22818   0.00000   0.00000   0.00000   0.00000
 151        8PY         0.00000  -0.06458  -0.10967   0.04568   0.11653
 152        8PZ         0.00000   0.05573  -0.00611  -0.09932  -0.08312
 153        9PX        -0.02457   0.00000   0.00000   0.00000   0.00000
 154        9PY         0.00000   0.00300  -0.00487  -0.00269   0.00646
 155        9PZ         0.00000   0.00116  -0.01243  -0.00812  -0.00829
 156       10D 0        0.00000   0.00003   0.00006   0.00034   0.00004
 157       10D+1       -0.00176   0.00000   0.00000   0.00000   0.00000
 158       10D-1        0.00000  -0.00385  -0.00330   0.00247   0.00343
 159       10D+2        0.00000  -0.00253  -0.00226   0.00205   0.00206
 160       10D-2        0.00218   0.00000   0.00000   0.00000   0.00000
 161       11D 0        0.00000  -0.00033   0.00228   0.00148   0.00143
 162       11D+1       -0.00702   0.00000   0.00000   0.00000   0.00000
 163       11D-1        0.00000  -0.01079  -0.01186   0.01118   0.01185
 164       11D+2        0.00000  -0.00772  -0.00695   0.00813   0.00791
 165       11D-2        0.00936   0.00000   0.00000   0.00000   0.00000
 166       12D 0        0.00000  -0.00131   0.00754  -0.00080   0.00406
 167       12D+1       -0.00443   0.00000   0.00000   0.00000   0.00000
 168       12D-1        0.00000  -0.00200  -0.00270   0.00308   0.00240
 169       12D+2        0.00000  -0.00093   0.00076   0.00480   0.00528
 170       12D-2        0.00441   0.00000   0.00000   0.00000   0.00000
 171       13F 0        0.00000  -0.00098  -0.00093   0.00086   0.00096
 172       13F+1       -0.00017   0.00000   0.00000   0.00000   0.00000
 173       13F-1        0.00000  -0.00075  -0.00054   0.00062   0.00084
 174       13F+2        0.00000  -0.00153  -0.00164   0.00142   0.00159
 175       13F-2        0.00148   0.00000   0.00000   0.00000   0.00000
 176       13F+3        0.00089   0.00000   0.00000   0.00000   0.00000
 177       13F-3        0.00000   0.00083   0.00073  -0.00088  -0.00067
 178       14F 0        0.00000  -0.00089  -0.00019   0.00208   0.00205
 179       14F+1       -0.00093   0.00000   0.00000   0.00000   0.00000
 180       14F-1        0.00000  -0.00063  -0.00337   0.00043   0.00044
 181       14F+2        0.00000  -0.00249  -0.00276   0.00298   0.00259
 182       14F-2        0.00250   0.00000   0.00000   0.00000   0.00000
 183       14F+3        0.00225   0.00000   0.00000   0.00000   0.00000
 184       14F-3        0.00000   0.00154   0.00150  -0.00153  -0.00177
                          16        17        18        19        20
     Eigenvalues --     1.93992   0.05891   0.03796   0.03612   0.02446
   1 1   O  1S          0.00000   0.00000  -0.03412   0.00091   0.07142
   2        2S          0.00000   0.00000   0.13995  -0.00392  -0.27657
   3        3S          0.00000   0.00000   0.05082  -0.00158  -0.11577
   4        4S          0.00000   0.00000   0.17851  -0.00304  -0.49852
   5        5S          0.00000   0.00000   0.08349  -0.00254  -0.20213
   6        6PX         0.30118  -0.35161   0.00000   0.00000   0.00000
   7        6PY         0.00000   0.00000   0.01474   0.34348   0.00013
   8        6PZ         0.00000   0.00000  -0.19188   0.00808   0.34681
   9        7PX         0.37592  -0.39419   0.00000   0.00000   0.00000
  10        7PY         0.00000   0.00000   0.01488   0.31055  -0.00171
  11        7PZ         0.00000   0.00000  -0.21979   0.00764   0.43105
  12        8PX         0.23991  -0.06913   0.00000   0.00000   0.00000
  13        8PY         0.00000   0.00000  -0.00012  -0.05292  -0.00124
  14        8PZ         0.00000   0.00000   0.03174  -0.00374   0.16041
  15        9PX         0.01514  -0.00759   0.00000   0.00000   0.00000
  16        9PY         0.00000   0.00000  -0.00170  -0.03213  -0.00029
  17        9PZ         0.00000   0.00000  -0.00524   0.00010   0.02027
  18       10D 0        0.00000   0.00000  -0.00332   0.00054   0.03091
  19       10D+1       -0.01117  -0.01641   0.00000   0.00000   0.00000
  20       10D-1        0.00000   0.00000   0.00106   0.02804  -0.00022
  21       10D+2        0.00000   0.00000  -0.00364   0.00039   0.00117
  22       10D-2        0.00011   0.00014   0.00000   0.00000   0.00000
  23       11D 0        0.00000   0.00000   0.00335   0.00069   0.02469
  24       11D+1       -0.02917  -0.01838   0.00000   0.00000   0.00000
  25       11D-1        0.00000   0.00000   0.00141   0.05164  -0.00034
  26       11D+2        0.00000   0.00000  -0.00288   0.00067   0.00051
  27       11D-2        0.00027   0.00027   0.00000   0.00000   0.00000
  28       12D 0        0.00000   0.00000  -0.03358   0.00154  -0.02956
  29       12D+1       -0.00931   0.01920   0.00000   0.00000   0.00000
  30       12D-1        0.00000   0.00000   0.00009   0.00481  -0.00052
  31       12D+2        0.00000   0.00000   0.00501  -0.00013   0.00142
  32       12D-2        0.00008   0.00006   0.00000   0.00000   0.00000
  33       13F 0        0.00000   0.00000  -0.00317  -0.00004  -0.00194
  34       13F+1        0.00585   0.00447   0.00000   0.00000   0.00000
  35       13F-1        0.00000   0.00000  -0.00003  -0.00705   0.00001
  36       13F+2        0.00000   0.00000  -0.00174  -0.00001   0.00150
  37       13F-2       -0.00010   0.00000   0.00000   0.00000   0.00000
  38       13F+3        0.00100  -0.00261   0.00000   0.00000   0.00000
  39       13F-3        0.00000   0.00000   0.00009   0.00178   0.00002
  40       14F 0        0.00000   0.00000   0.00032   0.00003  -0.00842
  41       14F+1        0.00367  -0.00391   0.00000   0.00000   0.00000
  42       14F-1        0.00000   0.00000  -0.00017  -0.00481   0.00046
  43       14F+2        0.00000   0.00000  -0.00255  -0.00013  -0.00281
  44       14F-2       -0.00006  -0.00007   0.00000   0.00000   0.00000
  45       14F+3        0.00058  -0.00165   0.00000   0.00000   0.00000
  46       14F-3        0.00000   0.00000   0.00017   0.00199  -0.00003
  47 2   C  1S          0.00000   0.00000   0.17775  -0.00626  -0.06119
  48        2S          0.00000   0.00000  -0.61342   0.02172   0.26376
  49        3S          0.00000   0.00000  -0.18672   0.00670   0.12217
  50        4S          0.00000   0.00000  -0.46176   0.01047   0.19808
  51        5S          0.00000   0.00000  -0.03960   0.00072   0.04178
  52        6PX         0.18306   0.32829   0.00000   0.00000   0.00000
  53        6PY         0.00000   0.00000  -0.01285  -0.34431  -0.00424
  54        6PZ         0.00000   0.00000   0.11854  -0.00826   0.34770
  55        7PX         0.23342   0.46544   0.00000   0.00000   0.00000
  56        7PY         0.00000   0.00000  -0.02247  -0.60046  -0.00870
  57        7PZ         0.00000   0.00000   0.20038  -0.01418   0.67753
  58        8PX         0.08721   0.14002   0.00000   0.00000   0.00000
  59        8PY         0.00000   0.00000  -0.00617  -0.13434  -0.00430
  60        8PZ         0.00000   0.00000  -0.03268   0.00223   0.14217
  61        9PX         0.00844   0.00755   0.00000   0.00000   0.00000
  62        9PY         0.00000   0.00000   0.00025  -0.00364  -0.00014
  63        9PZ         0.00000   0.00000   0.00294  -0.00026   0.00736
  64       10D 0        0.00000   0.00000   0.00460  -0.00011  -0.03225
  65       10D+1        0.02595   0.00949   0.00000   0.00000   0.00000
  66       10D-1        0.00000   0.00000  -0.00097  -0.02140  -0.00002
  67       10D+2        0.00000   0.00000  -0.00058  -0.00012  -0.00297
  68       10D-2       -0.00017  -0.00003   0.00000   0.00000   0.00000
  69       11D 0        0.00000   0.00000  -0.02319  -0.00146   0.02853
  70       11D+1        0.04513   0.06073   0.00000   0.00000   0.00000
  71       11D-1        0.00000   0.00000   0.00255   0.07324  -0.00233
  72       11D+2        0.00000   0.00000   0.06272  -0.00323   0.02955
  73       11D-2       -0.00016  -0.00019   0.00000   0.00000   0.00000
  74       12D 0        0.00000   0.00000  -0.04087   0.00115   0.04569
  75       12D+1        0.00510   0.02203   0.00000   0.00000   0.00000
  76       12D-1        0.00000   0.00000   0.00048  -0.01219  -0.00033
  77       12D+2        0.00000   0.00000   0.00524   0.00015   0.01106
  78       12D-2        0.00010  -0.00014   0.00000   0.00000   0.00000
  79       13F 0        0.00000   0.00000  -0.00477  -0.00027   0.01205
  80       13F+1        0.00770   0.01611   0.00000   0.00000   0.00000
  81       13F-1        0.00000   0.00000  -0.00131  -0.02676  -0.00049
  82       13F+2        0.00000   0.00000  -0.02827   0.00086  -0.01296
  83       13F-2       -0.00014  -0.00023   0.00000   0.00000   0.00000
  84       13F+3        0.00061  -0.00460   0.00000   0.00000   0.00000
  85       13F-3        0.00000   0.00000   0.00043   0.01194   0.00020
  86       14F 0        0.00000   0.00000  -0.04421   0.00065   0.00409
  87       14F+1        0.00768   0.02707   0.00000   0.00000   0.00000
  88       14F-1        0.00000   0.00000  -0.00658  -0.15004  -0.00064
  89       14F+2        0.00000   0.00000  -0.03852   0.00026  -0.00676
  90       14F-2       -0.00015  -0.00073   0.00000   0.00000   0.00000
  91       14F+3        0.00402   0.00754   0.00000   0.00000   0.00000
  92       14F-3        0.00000   0.00000  -0.00144  -0.03307   0.00026
  93 3   F  1S          0.00000   0.00000  -0.05085   0.04772  -0.01811
  94        2S          0.00000   0.00000   0.15834  -0.13929   0.04304
  95        3S          0.00000   0.00000   0.07180  -0.06957   0.02780
  96        4S          0.00000   0.00000   0.21155  -0.25890   0.10829
  97        5S          0.00000   0.00000   0.04850  -0.07849   0.05613
  98        6PX        -0.05791  -0.18564   0.00000   0.00000   0.00000
  99        6PY         0.00000   0.00000   0.27731  -0.11694   0.21357
 100        6PZ         0.00000   0.00000   0.13808  -0.22762  -0.17844
 101        7PX        -0.07000  -0.15256   0.00000   0.00000   0.00000
 102        7PY         0.00000   0.00000   0.26439  -0.14863   0.13634
 103        7PZ         0.00000   0.00000   0.15156  -0.19644  -0.06855
 104        8PX        -0.06373   0.02708   0.00000   0.00000   0.00000
 105        8PY         0.00000   0.00000  -0.01010  -0.19481  -0.07801
 106        8PZ         0.00000   0.00000   0.04183   0.09161   0.21874
 107        9PX        -0.01934  -0.00304   0.00000   0.00000   0.00000
 108        9PY         0.00000   0.00000   0.00305  -0.01135  -0.01309
 109        9PZ         0.00000   0.00000  -0.00865  -0.01065   0.03728
 110       10D 0        0.00000   0.00000   0.00251   0.00538   0.01270
 111       10D+1        0.00084   0.00409   0.00000   0.00000   0.00000
 112       10D-1        0.00000   0.00000  -0.01030   0.01180   0.00097
 113       10D+2        0.00000   0.00000   0.00861  -0.00470   0.01265
 114       10D-2        0.00077   0.00559   0.00000   0.00000   0.00000
 115       11D 0        0.00000   0.00000   0.00954   0.02684   0.03899
 116       11D+1        0.00263   0.01552   0.00000   0.00000   0.00000
 117       11D-1        0.00000   0.00000  -0.01162   0.02024   0.01297
 118       11D+2        0.00000   0.00000   0.01340   0.00128   0.03085
 119       11D-2        0.00201   0.01957   0.00000   0.00000   0.00000
 120       12D 0        0.00000   0.00000   0.00951   0.06495   0.02246
 121       12D+1        0.00227   0.01044   0.00000   0.00000   0.00000
 122       12D-1        0.00000   0.00000  -0.00514   0.00131   0.03155
 123       12D+2        0.00000   0.00000   0.01425   0.04325   0.00006
 124       12D-2       -0.00155   0.00449   0.00000   0.00000   0.00000
 125       13F 0        0.00000   0.00000  -0.00049   0.00084   0.00159
 126       13F+1        0.00018   0.00054   0.00000   0.00000   0.00000
 127       13F-1        0.00000   0.00000   0.00120   0.00068   0.00316
 128       13F+2        0.00000   0.00000  -0.00145  -0.00043  -0.00039
 129       13F-2        0.00040   0.00086   0.00000   0.00000   0.00000
 130       13F+3       -0.00045  -0.00212   0.00000   0.00000   0.00000
 131       13F-3        0.00000   0.00000   0.00043   0.00069   0.00249
 132       14F 0        0.00000   0.00000   0.00271   0.00454   0.00105
 133       14F+1        0.00071   0.00139   0.00000   0.00000   0.00000
 134       14F-1        0.00000   0.00000   0.00122   0.01130   0.00487
 135       14F+2        0.00000   0.00000   0.00350  -0.00002   0.00137
 136       14F-2        0.00054   0.00405   0.00000   0.00000   0.00000
 137       14F+3        0.00078   0.00079   0.00000   0.00000   0.00000
 138       14F-3        0.00000   0.00000  -0.00001   0.00070   0.00145
 139 4   F  1S          0.00000   0.00000  -0.05422  -0.04317  -0.01920
 140        2S          0.00000   0.00000   0.16835   0.12610   0.04592
 141        3S          0.00000   0.00000   0.07661   0.06305   0.02962
 142        4S          0.00000   0.00000   0.23136   0.24366   0.11099
 143        5S          0.00000   0.00000   0.05769   0.07661   0.05910
 144        6PX        -0.05765  -0.18564   0.00000   0.00000   0.00000
 145        6PY         0.00000   0.00000  -0.28503  -0.09180  -0.21587
 146        6PZ         0.00000   0.00000   0.15517   0.21863  -0.17421
 147        7PX        -0.06970  -0.15260   0.00000   0.00000   0.00000
 148        7PY         0.00000   0.00000  -0.27474  -0.12586  -0.13885
 149        7PZ         0.00000   0.00000   0.16666   0.18607  -0.06546
 150        8PX        -0.06360   0.02634   0.00000   0.00000   0.00000
 151        8PY         0.00000   0.00000  -0.00598  -0.19691   0.07758
 152        8PZ         0.00000   0.00000   0.03345  -0.09783   0.21800
 153        9PX        -0.01938  -0.00303   0.00000   0.00000   0.00000
 154        9PY         0.00000   0.00000  -0.00498  -0.01173   0.01251
 155        9PZ         0.00000   0.00000  -0.00750   0.01121   0.03770
 156       10D 0        0.00000   0.00000   0.00211  -0.00569   0.01251
 157       10D+1        0.00084   0.00409   0.00000   0.00000   0.00000
 158       10D-1        0.00000   0.00000   0.01111   0.01093  -0.00054
 159       10D+2        0.00000   0.00000   0.00893   0.00383   0.01281
 160       10D-2       -0.00077  -0.00561   0.00000   0.00000   0.00000
 161       11D 0        0.00000   0.00000   0.00725  -0.02817   0.03866
 162       11D+1        0.00258   0.01550   0.00000   0.00000   0.00000
 163       11D-1        0.00000   0.00000   0.01306   0.01918  -0.01223
 164       11D+2        0.00000   0.00000   0.01304  -0.00295   0.03088
 165       11D-2       -0.00197  -0.01949   0.00000   0.00000   0.00000
 166       12D 0        0.00000   0.00000   0.00360  -0.06683   0.02267
 167       12D+1        0.00224   0.01044   0.00000   0.00000   0.00000
 168       12D-1        0.00000   0.00000   0.00558   0.00171  -0.03124
 169       12D+2        0.00000   0.00000   0.01052  -0.04413   0.00016
 170       12D-2        0.00163  -0.00410   0.00000   0.00000   0.00000
 171       13F 0        0.00000   0.00000  -0.00055  -0.00075   0.00151
 172       13F+1        0.00017   0.00050   0.00000   0.00000   0.00000
 173       13F-1        0.00000   0.00000  -0.00118   0.00076  -0.00308
 174       13F+2        0.00000   0.00000  -0.00141   0.00053  -0.00037
 175       13F-2       -0.00040  -0.00085   0.00000   0.00000   0.00000
 176       13F+3       -0.00045  -0.00213   0.00000   0.00000   0.00000
 177       13F-3        0.00000   0.00000  -0.00039   0.00077  -0.00248
 178       14F 0        0.00000   0.00000   0.00223  -0.00512   0.00130
 179       14F+1        0.00072   0.00154   0.00000   0.00000   0.00000
 180       14F-1        0.00000   0.00000  -0.00011   0.01158  -0.00483
 181       14F+2        0.00000   0.00000   0.00342  -0.00035   0.00145
 182       14F-2       -0.00051  -0.00403   0.00000   0.00000   0.00000
 183       14F+3        0.00082   0.00089   0.00000   0.00000   0.00000
 184       14F-3        0.00000   0.00000   0.00019   0.00071  -0.00142
                          21        22        23        24        25
     Eigenvalues --     0.01543   0.01405   0.01393   0.01351   0.01081
   1 1   O  1S         -0.03456   0.00000   0.00000  -0.00070  -0.23968
   2        2S          0.06946   0.00000   0.00000   0.00206   0.77981
   3        3S          0.11265   0.00000   0.00000   0.00178   0.65828
   4        4S         -0.79620   0.00000   0.00000  -0.00697  -1.19586
   5        5S         -0.45384   0.00000   0.00000  -0.00648  -0.29240
   6        6PX         0.00000   0.00190   0.26041   0.00000   0.00000
   7        6PY        -0.00407   0.00000   0.00000   0.30556   0.00796
   8        6PZ         0.30191   0.00000   0.00000   0.00489   0.20684
   9        7PX         0.00000   0.00187   0.19843   0.00000   0.00000
  10        7PY        -0.00340   0.00000   0.00000   0.16439   0.00597
  11        7PZ         0.29802   0.00000   0.00000   0.00216  -0.03017
  12        8PX         0.00000  -0.00021  -0.14176   0.00000   0.00000
  13        8PY        -0.00165   0.00000   0.00000  -0.18785  -0.00130
  14        8PZ         0.03809   0.00000   0.00000  -0.00308  -0.10090
  15        9PX         0.00000   0.00008  -0.03206   0.00000   0.00000
  16        9PY        -0.00124   0.00000   0.00000   0.00113  -0.00296
  17        9PZ         0.05859   0.00000   0.00000   0.00048   0.00007
  18       10D 0        0.05489   0.00000   0.00000   0.00005  -0.01830
  19       10D+1        0.00000   0.00001   0.04041   0.00000   0.00000
  20       10D-1       -0.00139   0.00000   0.00000  -0.00762   0.00093
  21       10D+2        0.01335   0.00000   0.00000  -0.00002  -0.02072
  22       10D-2        0.00000  -0.02363  -0.00045   0.00000   0.00000
  23       11D 0        0.08935   0.00000   0.00000  -0.00036  -0.06604
  24       11D+1        0.00000  -0.00069   0.07466   0.00000   0.00000
  25       11D-1       -0.00256   0.00000   0.00000  -0.04632  -0.00109
  26       11D+2        0.04560   0.00000   0.00000  -0.00037  -0.00699
  27       11D-2        0.00000  -0.07501  -0.00066   0.00000   0.00000
  28       12D 0        0.02326   0.00000   0.00000  -0.00067  -0.05098
  29       12D+1        0.00000  -0.00078  -0.01588   0.00000   0.00000
  30       12D-1        0.00058   0.00000   0.00000  -0.05104  -0.00269
  31       12D+2        0.01873   0.00000   0.00000  -0.00063   0.01129
  32       12D-2        0.00000  -0.05467   0.00083   0.00000   0.00000
  33       13F 0       -0.01007   0.00000   0.00000   0.00008   0.00125
  34       13F+1        0.00000   0.00012  -0.00667   0.00000   0.00000
  35       13F-1        0.00044   0.00000   0.00000   0.00564   0.00024
  36       13F+2       -0.00436   0.00000   0.00000   0.00002   0.00209
  37       13F-2        0.00000   0.00542   0.00014   0.00000   0.00000
  38       13F+3        0.00000   0.00002  -0.00073   0.00000   0.00000
  39       13F-3        0.00004   0.00000   0.00000  -0.00141  -0.00008
  40       14F 0       -0.02598   0.00000   0.00000   0.00005   0.02176
  41       14F+1        0.00000   0.00032  -0.01064   0.00000   0.00000
  42       14F-1        0.00039   0.00000   0.00000   0.00417  -0.00008
  43       14F+2       -0.00057   0.00000   0.00000   0.00034  -0.00149
  44       14F-2        0.00000   0.02815  -0.00038   0.00000   0.00000
  45       14F+3        0.00000   0.00042   0.00646   0.00000   0.00000
  46       14F-3       -0.00001   0.00000   0.00000   0.01274   0.00025
  47 2   C  1S         -0.03895   0.00000   0.00000  -0.00041   0.00906
  48        2S          0.16967   0.00000   0.00000   0.00148   0.05536
  49        3S          0.11828   0.00000   0.00000   0.00118   0.05508
  50        4S         -0.13088   0.00000   0.00000  -0.00613   0.19869
  51        5S          0.06210   0.00000   0.00000   0.00105   0.06118
  52        6PX         0.00000  -0.00136  -0.12274   0.00000   0.00000
  53        6PY        -0.00286   0.00000   0.00000   0.22241   0.00049
  54        6PZ         0.33401   0.00000   0.00000   0.00202  -0.11672
  55        7PX         0.00000  -0.00260  -0.17931   0.00000   0.00000
  56        7PY        -0.00390   0.00000   0.00000   0.48366  -0.00097
  57        7PZ         0.50061   0.00000   0.00000   0.00252  -0.00805
  58        8PX         0.00000  -0.00286  -0.16463   0.00000   0.00000
  59        8PY        -0.00483   0.00000   0.00000   0.44483  -0.01681
  60        8PZ         0.45264   0.00000   0.00000   0.00556  -0.02870
  61        9PX         0.00000  -0.00024  -0.00791   0.00000   0.00000
  62        9PY         0.00021   0.00000   0.00000  -0.00677   0.00072
  63        9PZ         0.01987   0.00000   0.00000   0.00016   0.00462
  64       10D 0        0.05983   0.00000   0.00000  -0.00006  -0.02908
  65       10D+1        0.00000  -0.00117  -0.10893   0.00000   0.00000
  66       10D-1        0.00023   0.00000   0.00000  -0.08535  -0.00079
  67       10D+2        0.04686   0.00000   0.00000   0.00000  -0.02688
  68       10D-2        0.00000  -0.09140   0.00116   0.00000   0.00000
  69       11D 0        0.18712   0.00000   0.00000  -0.00194  -0.12452
  70       11D+1        0.00000  -0.00259  -0.20968   0.00000   0.00000
  71       11D-1       -0.00027   0.00000   0.00000  -0.47305  -0.00710
  72       11D+2        0.18282   0.00000   0.00000  -0.00002  -0.04076
  73       11D-2        0.00000  -0.14003   0.00157   0.00000   0.00000
  74       12D 0        0.05031   0.00000   0.00000   0.00049   0.03148
  75       12D+1        0.00000  -0.00072  -0.00717   0.00000   0.00000
  76       12D-1       -0.00045   0.00000   0.00000  -0.19047   0.00091
  77       12D+2        0.04419   0.00000   0.00000   0.00059   0.00638
  78       12D-2        0.00000   0.02588  -0.00048   0.00000   0.00000
  79       13F 0       -0.01337   0.00000   0.00000  -0.00018  -0.00529
  80       13F+1        0.00000  -0.00022  -0.00719   0.00000   0.00000
  81       13F-1       -0.00039   0.00000   0.00000   0.04316  -0.00177
  82       13F+2       -0.01539   0.00000   0.00000   0.00004  -0.00683
  83       13F-2        0.00000   0.02989  -0.00019   0.00000   0.00000
  84       13F+3        0.00000  -0.00029  -0.02661   0.00000   0.00000
  85       13F-3       -0.00001   0.00000   0.00000  -0.01154  -0.00070
  86       14F 0       -0.06819   0.00000   0.00000  -0.00261  -0.05242
  87       14F+1        0.00000  -0.00045  -0.04876   0.00000   0.00000
  88       14F-1        0.00144   0.00000   0.00000  -0.12186  -0.00508
  89       14F+2       -0.07426   0.00000   0.00000  -0.00223  -0.00442
  90       14F-2        0.00000   0.06322  -0.00013   0.00000   0.00000
  91       14F+3        0.00000   0.00053  -0.00795   0.00000   0.00000
  92       14F-3        0.00098   0.00000   0.00000  -0.07163  -0.00048
  93 3   F  1S          0.01381   0.00000   0.00000   0.04958  -0.02468
  94        2S         -0.02485   0.00000   0.00000  -0.12295   0.06025
  95        3S         -0.03747   0.00000   0.00000  -0.13701   0.06293
  96        4S          0.34013   0.00000   0.00000   0.69577  -0.12650
  97        5S          0.23464   0.00000   0.00000   0.54121  -0.01650
  98        6PX         0.00000  -0.45967  -0.39505   0.00000   0.00000
  99        6PY        -0.09622   0.00000   0.00000   0.34072   0.03036
 100        6PZ         0.32959   0.00000   0.00000  -0.00478  -0.11361
 101        7PX         0.00000  -0.13865  -0.11570   0.00000   0.00000
 102        7PY         0.01190   0.00000   0.00000   0.17934   0.00507
 103        7PZ         0.13924   0.00000   0.00000   0.05994  -0.02065
 104        8PX         0.00000   0.52371   0.50280   0.00000   0.00000
 105        8PY         0.20979   0.00000   0.00000  -0.25226  -0.04572
 106        8PZ        -0.27930   0.00000   0.00000   0.29005   0.13423
 107        9PX         0.00000   0.08217   0.07569   0.00000   0.00000
 108        9PY         0.05547   0.00000   0.00000   0.05488  -0.01411
 109        9PZ        -0.00343   0.00000   0.00000   0.05195   0.01967
 110       10D 0       -0.00127   0.00000   0.00000   0.00332   0.00035
 111       10D+1        0.00000   0.01486  -0.00455   0.00000   0.00000
 112       10D-1       -0.01394   0.00000   0.00000  -0.02562   0.01740
 113       10D+2        0.00471   0.00000   0.00000   0.01004  -0.00157
 114       10D-2        0.00000   0.00826   0.01373   0.00000   0.00000
 115       11D 0        0.00271   0.00000   0.00000   0.00622  -0.00224
 116       11D+1        0.00000   0.04165  -0.00873   0.00000   0.00000
 117       11D-1       -0.02436   0.00000   0.00000  -0.04690   0.05140
 118       11D+2        0.00987   0.00000   0.00000   0.00773  -0.00925
[...]
 111       10D+1        0.00000   0.00000   0.03109   0.00000   0.00000
 112       10D-1       -0.01383   0.02348   0.00000   0.00408  -0.00200
 113       10D+2        0.02654  -0.01746   0.00000  -0.00674   0.01076
 114       10D-2        0.00000   0.00000  -0.01029   0.00000   0.00000
 115       11D 0        0.04949  -0.04608   0.00000  -0.06754  -0.01570
 116       11D+1        0.00000   0.00000  -0.11042   0.00000   0.00000
 117       11D-1        0.07784  -0.07961   0.00000  -0.03654   0.01327
 118       11D+2       -0.09738   0.05278   0.00000   0.02734  -0.03322
 119       11D-2        0.00000   0.00000   0.02390   0.00000   0.00000
 120       12D 0        0.42420   0.12072   0.00000   0.14810   0.52492
 121       12D+1        0.00000   0.00000   0.26023   0.00000   0.00000
 122       12D-1        0.69762   0.53379   0.00000  -0.02372   0.29433
 123       12D+2        0.12623  -0.11752   0.00000  -0.18744   0.09028
 124       12D-2        0.00000   0.00000  -0.01031   0.00000   0.00000
 125       13F 0        0.00368   0.02290   0.00000  -0.01366  -0.00396
 126       13F+1        0.00000   0.00000   0.00454   0.00000   0.00000
 127       13F-1       -0.04995   0.02029   0.00000   0.00341  -0.01116
 128       13F+2        0.02861  -0.03202   0.00000   0.00020   0.00572
 129       13F-2        0.00000   0.00000   0.01569   0.00000   0.00000
 130       13F+3        0.00000   0.00000   0.00716   0.00000   0.00000
 131       13F-3       -0.00873  -0.01971   0.00000   0.01567   0.01030
 132       14F 0       -0.01974  -0.05511   0.00000   0.04254   0.02380
 133       14F+1        0.00000   0.00000  -0.00285   0.00000   0.00000
 134       14F-1        0.16064  -0.03916   0.00000  -0.00295   0.06713
 135       14F+2       -0.08590   0.05391   0.00000  -0.01014  -0.02603
 136       14F-2        0.00000   0.00000  -0.04219   0.00000   0.00000
 137       14F+3        0.00000   0.00000  -0.00678   0.00000   0.00000
 138       14F-3        0.01626   0.04420   0.00000  -0.04592  -0.01898
 139 4   F  1S          0.09954  -0.10982   0.00000   0.01941  -0.00294
 140        2S          0.44756  -0.47084   0.00000   0.07212   0.01460
 141        3S         -0.08298   0.11758   0.00000  -0.02892   0.03264
 142        4S         -1.57735   3.30899   0.00000  -1.67227  -0.63573
 143        5S          1.34790   6.34802   0.00000   2.66366  -2.60999
 144        6PX         0.00000   0.00000  -0.00391   0.00000   0.00000
 145        6PY         0.00341  -0.00697   0.00000  -0.01281   0.01063
 146        6PZ         0.01769   0.00500   0.00000  -0.00247  -0.00708
 147        7PX         0.00000   0.00000   0.00963   0.00000   0.00000
 148        7PY        -0.00449   0.01778   0.00000   0.10226  -0.05116
 149        7PZ        -0.09228  -0.01714   0.00000  -0.03757   0.05715
 150        8PX         0.00000   0.00000   0.12663   0.00000   0.00000
 151        8PY         0.64157  -1.19658   0.00000   0.08422   0.33382
 152        8PZ        -1.65369   1.25660   0.00000  -0.37064  -1.48963
 153        9PX         0.00000   0.00000  -0.09663   0.00000   0.00000
 154        9PY        -1.71254  -1.48207   0.00000  -0.15446  -0.63245
 155        9PZ         1.52788   3.37927   0.00000   2.39367  -0.64760
 156       10D 0        0.00957   0.01346   0.00000   0.02055  -0.00259
 157       10D+1        0.00000   0.00000   0.03106   0.00000   0.00000
 158       10D-1       -0.01200  -0.02447   0.00000  -0.00368  -0.00213
 159       10D+2       -0.02506  -0.01991   0.00000  -0.00489  -0.01107
 160       10D-2        0.00000   0.00000   0.01033   0.00000   0.00000
 161       11D 0       -0.04970  -0.04823   0.00000  -0.06949   0.00713
 162       11D+1        0.00000   0.00000  -0.11020   0.00000   0.00000
 163       11D-1        0.07141   0.08536   0.00000   0.03476   0.01712
 164       11D+2        0.09290   0.06144   0.00000   0.02225   0.03539
 165       11D-2        0.00000   0.00000  -0.02405   0.00000   0.00000
 166       12D 0       -0.42851   0.08809   0.00000   0.22868  -0.50459
 167       12D+1        0.00000   0.00000   0.26087   0.00000   0.00000
 168       12D-1        0.74150  -0.47178   0.00000  -0.01996   0.31776
 169       12D+2       -0.10212  -0.12249   0.00000  -0.16776  -0.11073
 170       12D-2        0.00000   0.00000   0.00410   0.00000   0.00000
 171       13F 0       -0.00518   0.02214   0.00000  -0.01398   0.00189
 172       13F+1        0.00000   0.00000   0.00393   0.00000   0.00000
 173       13F-1       -0.04886  -0.02428   0.00000  -0.00171  -0.01161
 174       13F+2       -0.02597  -0.03491   0.00000   0.00113  -0.00544
 175       13F-2        0.00000   0.00000  -0.01521   0.00000   0.00000
 176       13F+3        0.00000   0.00000   0.00807   0.00000   0.00000
 177       13F-3       -0.00932   0.01938   0.00000  -0.01689   0.00718
 178       14F 0        0.02262  -0.05209   0.00000   0.04558  -0.01671
 179       14F+1        0.00000   0.00000  -0.00209   0.00000   0.00000
 180       14F-1        0.15907   0.05270   0.00000  -0.00789   0.06753
 181       14F+2        0.08243   0.06298   0.00000  -0.01398   0.02476
 182       14F-2        0.00000   0.00000   0.04117   0.00000   0.00000
 183       14F+3        0.00000   0.00000  -0.00863   0.00000   0.00000
 184       14F-3        0.01649  -0.04392   0.00000   0.04756  -0.01072
                         181       182       183       184
     Eigenvalues --     0.00000   0.00000   0.00000   0.00000
   1 1   O  1S          0.00000  -0.00155   0.11014  -0.05386
   2        2S          0.00000  -0.00740   0.54803  -0.26822
   3        3S          0.00000   0.00112  -0.04468   0.02674
   4        4S          0.00000  -0.00525  -3.01465   6.92364
   5        5S          0.00000   0.06729 -10.68199  16.14084
   6        6PX         0.01327   0.00000   0.00000   0.00000
   7        6PY         0.00000  -0.00245   0.00028   0.00004
   8        6PZ         0.00000  -0.00007   0.01196  -0.00426
   9        7PX        -0.03640   0.00000   0.00000   0.00000
  10        7PY         0.00000   0.00701  -0.00172   0.00157
  11        7PZ         0.00000   0.00070  -0.06995  -0.12450
  12        8PX         0.68025   0.00000   0.00000   0.00000
  13        8PY         0.00000  -1.80780  -0.04333   0.04918
  14        8PZ         0.00000  -0.01917   2.76455  -3.07001
  15        9PX        -1.58251   0.00000   0.00000   0.00000
  16        9PY         0.00000  -4.26222  -0.04010  -0.00581
  17        9PZ         0.00000  -0.00512   2.87165  -3.45950
  18       10D 0        0.00000  -0.00057   0.01863  -0.00456
  19       10D+1        0.00903   0.00000   0.00000   0.00000
  20       10D-1        0.00000   0.00151  -0.00046   0.00042
  21       10D+2        0.00000   0.00050  -0.00002  -0.00659
  22       10D-2       -0.00025   0.00000   0.00000   0.00000
  23       11D 0        0.00000   0.00334  -0.14385   0.09017
  24       11D+1       -0.09652   0.00000   0.00000   0.00000
  25       11D-1        0.00000   0.08282   0.00454  -0.00357
  26       11D+2        0.00000  -0.00105  -0.00172   0.02787
  27       11D-2        0.00126   0.00000   0.00000   0.00000
  28       12D 0        0.00000   0.01523  -0.78985   0.24548
  29       12D+1       -0.08548   0.00000   0.00000   0.00000
  30       12D-1        0.00000   1.07369   0.01891  -0.01089
  31       12D+2        0.00000   0.00885  -0.03431   0.11479
  32       12D-2       -0.00126   0.00000   0.00000   0.00000
  33       13F 0        0.00000   0.00092   0.00261  -0.02164
  34       13F+1        0.00281   0.00000   0.00000   0.00000
  35       13F-1        0.00000   0.01548   0.00006   0.00014
  36       13F+2        0.00000  -0.00011  -0.00213   0.01978
  37       13F-2       -0.00047   0.00000   0.00000   0.00000
  38       13F+3       -0.00216   0.00000   0.00000   0.00000
  39       13F-3        0.00000  -0.00154   0.00018  -0.00028
  40       14F 0        0.00000  -0.00513   0.11037   0.04213
  41       14F+1        0.05144   0.00000   0.00000   0.00000
  42       14F-1        0.00000  -0.18056  -0.00408   0.00083
  43       14F+2        0.00000  -0.00123   0.01211  -0.06803
  44       14F-2        0.00029   0.00000   0.00000   0.00000
  45       14F+3        0.02126   0.00000   0.00000   0.00000
  46       14F-3        0.00000   0.01904  -0.00072   0.00088
  47 2   C  1S          0.00000   0.00101   0.06338  -0.07690
  48        2S          0.00000   0.00381   0.39072  -0.40989
  49        3S          0.00000  -0.00512   0.20320   0.18751
  50        4S          0.00000   0.19928  -4.57224 -18.09511
  51        5S          0.00000  -0.01407  -0.51552  -9.91704
  52        6PX        -0.00549   0.00000   0.00000   0.00000
  53        6PY         0.00000   0.02244   0.00011  -0.00002
  54        6PZ         0.00000  -0.00013  -0.01876   0.00531
  55        7PX        -0.06897   0.00000   0.00000   0.00000
  56        7PY         0.00000  -1.21567  -0.01367  -0.00425
  57        7PZ         0.00000  -0.00898   1.63459  -0.15602
  58        8PX         0.72370   0.00000   0.00000   0.00000
  59        8PY         0.00000  -8.13142  -0.07292  -0.04648
  60        8PZ         0.00000  -0.02819   7.31755  -5.06258
  61        9PX         3.16216   0.00000   0.00000   0.00000
  62        9PY         0.00000   2.38049  -0.00323   0.03400
  63        9PZ         0.00000  -0.01767   1.94118  -0.00503
  64       10D 0        0.00000  -0.00064   0.01762   0.03496
  65       10D+1        0.00573   0.00000   0.00000   0.00000
  66       10D-1        0.00000  -0.01219   0.00002  -0.00025
  67       10D+2        0.00000   0.00123  -0.00621  -0.02091
  68       10D-2       -0.00019   0.00000   0.00000   0.00000
  69       11D 0        0.00000   0.00748   0.39588  -0.96805
  70       11D+1       -0.32154   0.00000   0.00000   0.00000
  71       11D-1        0.00000   2.32421   0.00778   0.01632
  72       11D+2        0.00000  -0.01626   0.88123   0.63409
  73       11D-2        0.00444   0.00000   0.00000   0.00000
  74       12D 0        0.00000   0.00501   0.46486  -2.75320
  75       12D+1       -0.32770   0.00000   0.00000   0.00000
  76       12D-1        0.00000   4.59100   0.01841   0.06021
  77       12D+2        0.00000   0.00836   0.94704   0.02317
  78       12D-2       -0.00401   0.00000   0.00000   0.00000
  79       13F 0        0.00000   0.00123  -0.05051  -0.02952
  80       13F+1       -0.04890   0.00000   0.00000   0.00000
  81       13F-1        0.00000  -0.00883   0.00173  -0.00011
  82       13F+2        0.00000   0.00162  -0.04529  -0.02273
  83       13F-2       -0.00028   0.00000   0.00000   0.00000
  84       13F+3        0.04661   0.00000   0.00000   0.00000
  85       13F-3        0.00000   0.06005   0.00050   0.00037
  86       14F 0        0.00000   0.01758  -0.32738  -0.51205
  87       14F+1       -0.10302   0.00000   0.00000   0.00000
  88       14F-1        0.00000  -0.09936   0.01387   0.00251
  89       14F+2        0.00000   0.01257  -0.23458  -0.38784
  90       14F-2        0.00470   0.00000   0.00000   0.00000
  91       14F+3       -0.22755   0.00000   0.00000   0.00000
  92       14F-3        0.00000  -0.07540   0.00321   0.00281
  93 3   F  1S          0.00000   0.09632  -0.02321  -0.01661
  94        2S          0.00000   0.44848  -0.13008  -0.09681
  95        3S          0.00000  -0.05998  -0.01638  -0.01093
  96        4S          0.00000  -3.08267   1.84434   1.74373
  97        5S          0.00000 -16.53320   7.95791   2.47592
  98        6PX         0.01761   0.00000   0.00000   0.00000
  99        6PY         0.00000  -0.01074   0.00975   0.00486
 100        6PZ         0.00000  -0.00635   0.00723   0.00277
 101        7PX        -0.06763   0.00000   0.00000   0.00000
 102        7PY         0.00000   0.05095  -0.04367  -0.02101
 103        7PZ         0.00000   0.02311  -0.02783  -0.00966
 104        8PX         0.00227   0.00000   0.00000   0.00000
 105        8PY         0.00000  -2.53533   1.46460   1.24809
 106        8PZ         0.00000  -1.46811   1.29503   0.90000
 107        9PX        -1.35491   0.00000   0.00000   0.00000
 108        9PY         0.00000  -5.58830   1.43815   0.46708
 109        9PZ         0.00000  -1.97804   1.17140  -1.09327
 110       10D 0        0.00000   0.00163  -0.00441   0.00019
 111       10D+1       -0.00755   0.00000   0.00000   0.00000
 112       10D-1        0.00000  -0.00515  -0.00375  -0.00543
 113       10D+2        0.00000   0.01903  -0.00420   0.00083
 114       10D-2       -0.00849   0.00000   0.00000   0.00000
 115       11D 0        0.00000  -0.00863   0.02222  -0.00739
 116       11D+1        0.02507   0.00000   0.00000   0.00000
 117       11D-1        0.00000  -0.01518   0.04539   0.03169
 118       11D+2        0.00000  -0.04177  -0.00111  -0.01135
 119       11D-2        0.03127   0.00000   0.00000   0.00000
 120       12D 0        0.00000   0.25591   0.07841   0.00371
 121       12D+1       -0.16757   0.00000   0.00000   0.00000
 122       12D-1        0.00000  -0.68992   0.45387   0.24222
 123       12D+2        0.00000   0.64489  -0.19322  -0.17581
 124       12D-2       -0.13609   0.00000   0.00000   0.00000
 125       13F 0        0.00000  -0.01328   0.00328   0.00532
 126       13F+1        0.00512   0.00000   0.00000   0.00000
 127       13F-1        0.00000  -0.00198  -0.01217  -0.00214
 128       13F+2        0.00000   0.00637   0.00927   0.00164
 129       13F-2        0.01504   0.00000   0.00000   0.00000
 130       13F+3        0.00747   0.00000   0.00000   0.00000
 131       13F-3        0.00000   0.01015  -0.00927  -0.00832
 132       14F 0        0.00000   0.07044  -0.02300  -0.02472
 133       14F+1       -0.01846   0.00000   0.00000   0.00000
 134       14F-1        0.00000  -0.00070   0.06073   0.00445
 135       14F+2        0.00000   0.03447  -0.05612  -0.01887
 136       14F-2       -0.03071   0.00000   0.00000   0.00000
 137       14F+3       -0.01718   0.00000   0.00000   0.00000
 138       14F-3        0.00000   0.01183   0.01389   0.00495
 139 4   F  1S          0.00000  -0.09629  -0.02458  -0.01786
 140        2S          0.00000  -0.44755  -0.13655  -0.10247
 141        3S          0.00000   0.06108  -0.01551  -0.01004
 142        4S          0.00000   3.00464   1.87295   1.78703
 143        5S          0.00000  16.37209   8.13018   2.77860
 144        6PX         0.01763   0.00000   0.00000   0.00000
 145        6PY         0.00000  -0.01069  -0.01017  -0.00488
 146        6PZ         0.00000   0.00627   0.00701   0.00283
 147        7PX        -0.06767   0.00000   0.00000   0.00000
 148        7PY         0.00000   0.05175   0.04570   0.02092
 149        7PZ         0.00000  -0.02314  -0.02764  -0.00961
 150        8PX         0.00589   0.00000   0.00000   0.00000
 151        8PY         0.00000  -2.49045  -1.47480  -1.27343
 152        8PZ         0.00000   1.41578   1.33068   0.92129
 153        9PX        -1.35564   0.00000   0.00000   0.00000
 154        9PY         0.00000  -5.55264  -1.49264  -0.56011
 155        9PZ         0.00000   1.93551   1.19170  -1.05500
 156       10D 0        0.00000  -0.00217  -0.00458   0.00017
 157       10D+1       -0.00766   0.00000   0.00000   0.00000
 158       10D-1        0.00000  -0.00529   0.00366   0.00540
 159       10D+2        0.00000  -0.01880  -0.00436   0.00072
 160       10D-2        0.00836   0.00000   0.00000   0.00000
 161       11D 0        0.00000   0.01052   0.02350  -0.00725
 162       11D+1        0.02529   0.00000   0.00000   0.00000
 163       11D-1        0.00000  -0.01367  -0.04538  -0.03199
 164       11D+2        0.00000   0.04171  -0.00041  -0.01134
 165       11D-2       -0.03091   0.00000   0.00000   0.00000
 166       12D 0        0.00000  -0.26688   0.08724   0.00414
 167       12D+1       -0.16947   0.00000   0.00000   0.00000
 168       12D-1        0.00000  -0.67216  -0.46541  -0.24983
 169       12D+2        0.00000  -0.64350  -0.19292  -0.18044
 170       12D-2        0.13509   0.00000   0.00000   0.00000
 171       13F 0        0.00000   0.01337   0.00328   0.00517
 172       13F+1        0.00567   0.00000   0.00000   0.00000
 173       13F-1        0.00000  -0.00204   0.01254   0.00230
 174       13F+2        0.00000  -0.00618   0.00925   0.00161
 175       13F-2       -0.01526   0.00000   0.00000   0.00000
 176       13F+3        0.00732   0.00000   0.00000   0.00000
 177       13F-3        0.00000   0.00918   0.00947   0.00847
 178       14F 0        0.00000  -0.07011  -0.02278  -0.02465
 179       14F+1       -0.01991   0.00000   0.00000   0.00000
 180       14F-1        0.00000   0.00081  -0.06305  -0.00491
 181       14F+2        0.00000  -0.03379  -0.05638  -0.01928
 182       14F-2        0.03153   0.00000   0.00000   0.00000
 183       14F+3       -0.01677   0.00000   0.00000   0.00000
 184       14F-3        0.00000   0.01389  -0.01446  -0.00493
          Condensed to atoms (all electrons):
              1          2          3          4
     1  O    7.946921   0.499985  -0.080084  -0.079264
     2  C    0.499985   4.519605   0.185190   0.185049
     3  F   -0.080084   0.185190   9.105418  -0.048514
     4  F   -0.079264   0.185049  -0.048514   9.103334
 Mulliken atomic charges:
              1
     1  O   -0.287558
     2  C    0.610172
     3  F   -0.162010
     4  F   -0.160605
 Sum of Mulliken atomic charges =   0.00000
 Mulliken charges with hydrogens summed into heavy atoms:
              1
     1  O   -0.287558
     2  C    0.610172
     3  F   -0.162010
     4  F   -0.160605
 Sum of Mulliken charges with hydrogens summed into heavy atoms =   0.00000
 Electronic spatial extent (au):  <R**2>=            239.4206
 Charge=              0.0000 electrons
 Dipole moment (field-independent basis, Debye):
    X=              0.0000    Y=              0.0251    Z=             -1.0335  Tot=              1.0338
 Quadrupole moment (field-independent basis, Debye-Ang):
   XX=            -18.9051   YY=            -21.3170   ZZ=            -21.9185
   XY=              0.0000   XZ=              0.0000   YZ=             -0.0111
 Traceless Quadrupole moment (field-independent basis, Debye-Ang):
   XX=              1.8085   YY=             -0.6035   ZZ=             -1.2050
   XY=              0.0000   XZ=              0.0000   YZ=             -0.0111
 Octapole moment (field-independent basis, Debye-Ang**2):
  XXX=              0.0000  YYY=              0.1818  ZZZ=             34.2710  XYY=              0.0000
  XXY=              0.0552  XXZ=             10.3472  XZZ=              0.0000  YZZ=              0.0803
  YYZ=             12.0137  XYZ=              0.0000
 Hexadecapole moment (field-independent basis, Debye-Ang**3):
 XXXX=            -13.4825 YYYY=            -79.9336 ZZZZ=           -132.3931 XXXY=              0.0000
 XXXZ=              0.0000 YYYX=              0.0000 YYYZ=              0.0831 ZZZX=              0.0000
 ZZZY=              0.0389 XXYY=            -15.6418 XXZZ=            -23.5677 YYZZ=            -36.1540
 XXYZ=              0.0280 YYXZ=              0.0000 ZZXY=              0.0000
 N-N= 1.199401590492D+02 E-N=-9.819236898431D+02  KE= 3.123813251763D+02
 1\1\GINC-TRAPISTA\SP\RQCISD-FC\Aug-CC-pVTZ\C1F2O1\BRUNS\26-Nov-2021\0\
 \# qcisd/aug-cc-pvtz nosymm density=current output=wfn\\f2co-wavefunct
 ion\\0,1\O,0,0.,-0.01,0.679927\C,0,0.,0.,-0.492216\F,0,0.,-1.058878,-1
 .264305\F,0,0.,1.058878,-1.264305\\Version=EM64L-G09RevB.01\HF=-311.74
 12148\MP2=-312.6371255\MP3=-312.6246239\MP4D=-312.6402245\MP4DQ=-312.6
 24167\MP4SDQ=-312.6357711\QCISD=-312.6352741\RMSD=8.438e-09\Dipole=0.,
 0.0098916,-0.4065931\Quadrupole=1.3445624,-0.4486797,-0.8958827,0.,0.,
 -0.0082372\PG=CS [SG(C1F2O1)]\\@

 Writing a WFN file to GAUSSIAN.wfn.


 LIFE CAN ONLY BE UNDERSTOOD BACKWARD, BUT MUST
 BE LIVED FORWARD. -- KIRKEGAARD
 Job cpu time:  0 days  1 hours 59 minutes  7.5 seconds.
 File lengths (MBytes):  RWF=  17462 Int=      0 D2E=      0 Chk=      3 Scr=      1
 Normal termination of Gaussian 09 at Fri Nov 26 18:37:53 2021.
