 f2co-wavefunction
GAUSSIAN            184 MOL ORBITALS    288 PRIMITIVES        4 NUCLEI
  O    1    (CENTRE  1)   0.00000000  0.00000000  1.28487582  CHARGE =  8.0
  C    2    (CENTRE  2)   0.00000000  0.00000000 -0.93015344  CHARGE =  6.0
  F    3    (CENTRE  3)   0.00000000 -2.00098943 -2.38919020  CHARGE =  9.0
  F    4    (CENTRE  4)   0.00000000  1.98209217 -2.38919020  CHARGE =  9.0
CENTRE ASSIGNMENTS    1  1  1  1  1  1  1  1  1  1  1  1  1  1  1  1  1  1  1  1
CENTRE ASSIGNMENTS    1  1  1  1  1  1  1  1  1  1  1  1  1  1  1  1  1  1  1  1
CENTRE ASSIGNMENTS    1  1  1  1  1  1  1  1  1  1  1  1  1  1  1  1  1  1  1  1
CENTRE ASSIGNMENTS    1  1  1  1  1  1  1  1  1  1  1  1  2  2  2  2  2  2  2  2
CENTRE ASSIGNMENTS    2  2  2  2  2  2  2  2  2  2  2  2  2  2  2  2  2  2  2  2
CENTRE ASSIGNMENTS    2  2  2  2  2  2  2  2  2  2  2  2  2  2  2  2  2  2  2  2
CENTRE ASSIGNMENTS    2  2  2  2  2  2  2  2  2  2  2  2  2  2  2  2  2  2  2  2
CENTRE ASSIGNMENTS    2  2  2  2  3  3  3  3  3  3  3  3  3  3  3  3  3  3  3  3
CENTRE ASSIGNMENTS    3  3  3  3  3  3  3  3  3  3  3  3  3  3  3  3  3  3  3  3
CENTRE ASSIGNMENTS    3  3  3  3  3  3  3  3  3  3  3  3  3  3  3  3  3  3  3  3
CENTRE ASSIGNMENTS    3  3  3  3  3  3  3  3  3  3  3  3  3  3  3  3  4  4  4  4
CENTRE ASSIGNMENTS    4  4  4  4  4  4  4  4  4  4  4  4  4  4  4  4  4  4  4  4
CENTRE ASSIGNMENTS    4  4  4  4  4  4  4  4  4  4  4  4  4  4  4  4  4  4  4  4
CENTRE ASSIGNMENTS    4  4  4  4  4  4  4  4  4  4  4  4  4  4  4  4  4  4  4  4
CENTRE ASSIGNMENTS    4  4  4  4  4  4  4  4
TYPE ASSIGNMENTS      1  1  1  1  1  1  1  1  1  1  1  1  1  1  1  1  2  2  2  3
TYPE ASSIGNMENTS      3  3  4  4  4  2  3  4  2  3  4  2  3  4  5  6  7  8  9 10
TYPE ASSIGNMENTS      5  6  7  8  9 10  5  6  7  8  9 10 11 12 13 17 14 15 18 19
TYPE ASSIGNMENTS     16 20 11 12 13 17 14 15 18 19 16 20  1  1  1  1  1  1  1  1
TYPE ASSIGNMENTS      1  1  1  1  1  1  1  1  2  2  2  3  3  3  4  4  4  2  3  4
TYPE ASSIGNMENTS      2  3  4  2  3  4  5  6  7  8  9 10  5  6  7  8  9 10  5  6
TYPE ASSIGNMENTS      7  8  9 10 11 12 13 17 14 15 18 19 16 20 11 12 13 17 14 15
TYPE ASSIGNMENTS     18 19 16 20  1  1  1  1  1  1  1  1  1  1  1  1  1  1  1  1
TYPE ASSIGNMENTS      2  2  2  3  3  3  4  4  4  2  3  4  2  3  4  2  3  4  5  6
TYPE ASSIGNMENTS      7  8  9 10  5  6  7  8  9 10  5  6  7  8  9 10 11 12 13 17
TYPE ASSIGNMENTS     14 15 18 19 16 20 11 12 13 17 14 15 18 19 16 20  1  1  1  1
TYPE ASSIGNMENTS      1  1  1  1  1  1  1  1  1  1  1  1  2  2  2  3  3  3  4  4
TYPE ASSIGNMENTS      4  2  3  4  2  3  4  2  3  4  5  6  7  8  9 10  5  6  7  8
TYPE ASSIGNMENTS      9 10  5  6  7  8  9 10 11 12 13 17 14 15 18 19 16 20 11 12
TYPE ASSIGNMENTS     13 17 14 15 18 19 16 20
EXPONENTS  0.1533000D+05 0.2299000D+04 0.5224000D+03 0.1473000D+03 0.4755000D+02
EXPONENTS  0.1676000D+02 0.6207000D+01 0.5224000D+03 0.1473000D+03 0.4755000D+02
EXPONENTS  0.1676000D+02 0.6207000D+01 0.6882000D+00 0.1752000D+01 0.2384000D+00
EXPONENTS  0.7376000D-01 0.3446000D+02 0.7749000D+01 0.2280000D+01 0.3446000D+02
EXPONENTS  0.7749000D+01 0.2280000D+01 0.3446000D+02 0.7749000D+01 0.2280000D+01
EXPONENTS  0.7156000D+00 0.7156000D+00 0.7156000D+00 0.2140000D+00 0.2140000D+00
EXPONENTS  0.2140000D+00 0.5974000D-01 0.5974000D-01 0.5974000D-01 0.2314000D+01
EXPONENTS  0.2314000D+01 0.2314000D+01 0.2314000D+01 0.2314000D+01 0.2314000D+01
EXPONENTS  0.6450000D+00 0.6450000D+00 0.6450000D+00 0.6450000D+00 0.6450000D+00
EXPONENTS  0.6450000D+00 0.2140000D+00 0.2140000D+00 0.2140000D+00 0.2140000D+00
EXPONENTS  0.2140000D+00 0.2140000D+00 0.1428000D+01 0.1428000D+01 0.1428000D+01
EXPONENTS  0.1428000D+01 0.1428000D+01 0.1428000D+01 0.1428000D+01 0.1428000D+01
EXPONENTS  0.1428000D+01 0.1428000D+01 0.5000000D+00 0.5000000D+00 0.5000000D+00
EXPONENTS  0.5000000D+00 0.5000000D+00 0.5000000D+00 0.5000000D+00 0.5000000D+00
EXPONENTS  0.5000000D+00 0.5000000D+00 0.8236000D+04 0.1235000D+04 0.2808000D+03
EXPONENTS  0.7927000D+02 0.2559000D+02 0.8997000D+01 0.3319000D+01 0.2808000D+03
EXPONENTS  0.7927000D+02 0.2559000D+02 0.8997000D+01 0.3319000D+01 0.3643000D+00
EXPONENTS  0.9059000D+00 0.1285000D+00 0.4402000D-01 0.1871000D+02 0.4133000D+01
EXPONENTS  0.1200000D+01 0.1871000D+02 0.4133000D+01 0.1200000D+01 0.1871000D+02
EXPONENTS  0.4133000D+01 0.1200000D+01 0.3827000D+00 0.3827000D+00 0.3827000D+00
EXPONENTS  0.1209000D+00 0.1209000D+00 0.1209000D+00 0.3569000D-01 0.3569000D-01
EXPONENTS  0.3569000D-01 0.1097000D+01 0.1097000D+01 0.1097000D+01 0.1097000D+01
EXPONENTS  0.1097000D+01 0.1097000D+01 0.3180000D+00 0.3180000D+00 0.3180000D+00
EXPONENTS  0.3180000D+00 0.3180000D+00 0.3180000D+00 0.1000000D+00 0.1000000D+00
EXPONENTS  0.1000000D+00 0.1000000D+00 0.1000000D+00 0.1000000D+00 0.7610000D+00
EXPONENTS  0.7610000D+00 0.7610000D+00 0.7610000D+00 0.7610000D+00 0.7610000D+00
EXPONENTS  0.7610000D+00 0.7610000D+00 0.7610000D+00 0.7610000D+00 0.2680000D+00
EXPONENTS  0.2680000D+00 0.2680000D+00 0.2680000D+00 0.2680000D+00 0.2680000D+00
EXPONENTS  0.2680000D+00 0.2680000D+00 0.2680000D+00 0.2680000D+00 0.1950000D+05
EXPONENTS  0.2923000D+04 0.6645000D+03 0.1875000D+03 0.6062000D+02 0.2142000D+02
EXPONENTS  0.7950000D+01 0.6645000D+03 0.1875000D+03 0.6062000D+02 0.2142000D+02
EXPONENTS  0.7950000D+01 0.8815000D+00 0.2257000D+01 0.3041000D+00 0.9158000D-01
EXPONENTS  0.4388000D+02 0.9926000D+01 0.2930000D+01 0.4388000D+02 0.9926000D+01
EXPONENTS  0.2930000D+01 0.4388000D+02 0.9926000D+01 0.2930000D+01 0.9132000D+00
EXPONENTS  0.9132000D+00 0.9132000D+00 0.2672000D+00 0.2672000D+00 0.2672000D+00
EXPONENTS  0.7361000D-01 0.7361000D-01 0.7361000D-01 0.3107000D+01 0.3107000D+01
EXPONENTS  0.3107000D+01 0.3107000D+01 0.3107000D+01 0.3107000D+01 0.8550000D+00
EXPONENTS  0.8550000D+00 0.8550000D+00 0.8550000D+00 0.8550000D+00 0.8550000D+00
EXPONENTS  0.2920000D+00 0.2920000D+00 0.2920000D+00 0.2920000D+00 0.2920000D+00
EXPONENTS  0.2920000D+00 0.1917000D+01 0.1917000D+01 0.1917000D+01 0.1917000D+01
EXPONENTS  0.1917000D+01 0.1917000D+01 0.1917000D+01 0.1917000D+01 0.1917000D+01
EXPONENTS  0.1917000D+01 0.7240000D+00 0.7240000D+00 0.7240000D+00 0.7240000D+00
EXPONENTS  0.7240000D+00 0.7240000D+00 0.7240000D+00 0.7240000D+00 0.7240000D+00
EXPONENTS  0.7240000D+00 0.1950000D+05 0.2923000D+04 0.6645000D+03 0.1875000D+03
EXPONENTS  0.6062000D+02 0.2142000D+02 0.7950000D+01 0.6645000D+03 0.1875000D+03
EXPONENTS  0.6062000D+02 0.2142000D+02 0.7950000D+01 0.8815000D+00 0.2257000D+01
EXPONENTS  0.3041000D+00 0.9158000D-01 0.4388000D+02 0.9926000D+01 0.2930000D+01
EXPONENTS  0.4388000D+02 0.9926000D+01 0.2930000D+01 0.4388000D+02 0.9926000D+01
EXPONENTS  0.2930000D+01 0.9132000D+00 0.9132000D+00 0.9132000D+00 0.2672000D+00
EXPONENTS  0.2672000D+00 0.2672000D+00 0.7361000D-01 0.7361000D-01 0.7361000D-01
EXPONENTS  0.3107000D+01 0.3107000D+01 0.3107000D+01 0.3107000D+01 0.3107000D+01
EXPONENTS  0.3107000D+01 0.8550000D+00 0.8550000D+00 0.8550000D+00 0.8550000D+00
EXPONENTS  0.8550000D+00 0.8550000D+00 0.2920000D+00 0.2920000D+00 0.2920000D+00
EXPONENTS  0.2920000D+00 0.2920000D+00 0.2920000D+00 0.1917000D+01 0.1917000D+01
EXPONENTS  0.1917000D+01 0.1917000D+01 0.1917000D+01 0.1917000D+01 0.1917000D+01
EXPONENTS  0.1917000D+01 0.1917000D+01 0.1917000D+01 0.7240000D+00 0.7240000D+00
EXPONENTS  0.7240000D+00 0.7240000D+00 0.7240000D+00 0.7240000D+00 0.7240000D+00
EXPONENTS  0.7240000D+00 0.7240000D+00 0.7240000D+00
MO    1     MO 0.0        OCC NO =    2.0000067  ORB. ENERGY =    0.000000
 -0.32142178D+00 -0.59907735D+00 -0.10158198D+01 -0.15373353D+01 -0.19177046D+01
 -0.16456759D+01 -0.63020642D+00 -0.40002805D-04 -0.42920385D-03 -0.15821262D-02
 -0.46260442D-02 -0.55746082D-02  0.67152064D-02 -0.28963505D-01  0.48901965D-03
 -0.49908547D-04  0.71762125D-13  0.69585122D-13  0.46941712D-13  0.17738489D-06
  0.17200368D-06  0.11603266D-06  0.19740440D-01  0.19141586D-01  0.12912801D-01
  0.15947327D-13 -0.12859314D-06  0.25131409D-02 -0.47701179D-15  0.71183928D-07
  0.66216678D-03 -0.51100711D-15 -0.18443226D-06  0.14550939D-04  0.12271769D-02
  0.65351191D-03 -0.18806888D-02  0.80447196D-14 -0.43864776D-15  0.26325961D-05
  0.52765343D-04 -0.21615050D-04 -0.31150293D-04 -0.47329553D-15 -0.18780069D-14
  0.15981221D-05  0.49990392D-04 -0.19634917D-05 -0.48026900D-04  0.82278335D-15
  0.13254521D-14 -0.78934988D-07 -0.37705712D-14 -0.95905640D-06 -0.54385141D-03
  0.89586560D-14 -0.18437116D-06  0.10289073D-02  0.23530577D-14  0.30615403D-05
  0.60264693D-03 -0.46779381D-15  0.55811355D-15  0.17571926D-06  0.14187766D-04
 -0.98612399D-15 -0.53268365D-07 -0.23408700D-04 -0.68821665D-15 -0.47388942D-06
 -0.19154599D-04 -0.45573500D-15  0.23957186D+00  0.44661022D+00  0.75483212D+00
  0.11346535D+01  0.13937185D+01  0.11762493D+01  0.44230045D+00  0.26470401D-04
  0.19784985D-03  0.73941005D-03  0.20628389D-02  0.27636354D-02 -0.32633381D-02
  0.19398261D-01 -0.42024095D-04  0.15503721D-04  0.30081142D-13  0.28202983D-13
  0.20082204D-13  0.10334080D-04  0.96888566D-05  0.68990431D-05 -0.40685352D-02
 -0.38145104D-02 -0.27161586D-02  0.13763104D-13  0.10035828D-04  0.48669057D-03
  0.30156115D-14 -0.14607421D-05  0.83203967D-04  0.16296976D-15  0.63991713D-07
  0.82984171D-06 -0.97249043D-03  0.41330914D-03  0.55918130D-03 -0.11848093D-14
  0.24446918D-15 -0.35503790D-04  0.21594592D-03 -0.12273077D-03 -0.93215149D-04
 -0.16743227D-16 -0.54990423D-15  0.14684974D-06 -0.82336578D-09 -0.27304310D-05
  0.27312544D-05 -0.29252678D-15  0.24524066D-15  0.60415497D-06 -0.16475249D-14
 -0.66432916D-06  0.57025439D-03  0.41000962D-14 -0.60863107D-05 -0.33878180D-03
  0.84247851D-15  0.80792982D-05 -0.13719814D-02  0.29256550D-14 -0.55422051D-15
 -0.60068824D-07 -0.87798951D-04  0.51384649D-15  0.62134909D-06 -0.12542377D-04
  0.11488150D-14 -0.44114262D-06  0.27593923D-03 -0.12019788D-14 -0.96184473D-01
 -0.17928802D+00 -0.30393314D+00 -0.46019588D+00 -0.57534621D+00 -0.49490091D+00
 -0.18980515D+00 -0.11666358D-04 -0.15444074D-03 -0.56095687D-03 -0.16640680D-02
 -0.19175022D-02  0.23290921D-02 -0.84033370D-02  0.78217038D-03  0.27435109D-04
  0.12511306D-12  0.12235784D-12  0.80846999D-13 -0.73877478D-02 -0.72250560D-02
 -0.47739000D-02 -0.60118134D-02 -0.58794222D-02 -0.38847828D-02  0.28288052D-13
 -0.12737296D-02 -0.11579142D-02  0.20790131D-14 -0.14689687D-03 -0.86963641D-04
 -0.42302982D-15 -0.37735635D-05 -0.19481887D-05  0.83667277D-04 -0.76363049D-04
 -0.73042286D-05  0.46145855D-14  0.21304093D-13  0.67333656D-03  0.14916503D-03
 -0.67604198D-04 -0.81560833D-04  0.17216157D-14  0.15319494D-14 -0.79025875D-03
  0.41391043D-04 -0.20794117D-04 -0.20596927D-04 -0.71725413D-15 -0.78050189D-15
 -0.60625554D-05 -0.10416867D-14 -0.18755438D-04 -0.34721202D-05  0.95867389D-14
  0.23913004D-03  0.10601683D-03 -0.64616789D-14 -0.18286372D-03 -0.95600467D-04
  0.60928093D-14  0.10546998D-14  0.60493144D-04  0.10205826D-03 -0.26088967D-14
  0.16279712D-03  0.20443319D-03 -0.55520266D-15 -0.34427655D-03 -0.51060796D-03
 -0.26125787D-14 -0.97030241D-01 -0.18086454D+00 -0.30660568D+00 -0.46424247D+00
 -0.58040533D+00 -0.49925267D+00 -0.19147414D+00 -0.11778422D-04 -0.15592425D-03
 -0.56634525D-03 -0.16800525D-02 -0.19359212D-02  0.23514646D-02 -0.84784190D-02
  0.77964933D-03  0.27390989D-04  0.76168381D-13  0.74491013D-13  0.49219362D-13
  0.74992149D-02  0.73340684D-02  0.48459291D-02 -0.61605734D-02 -0.60249062D-02
 -0.39809103D-02  0.17321571D-13  0.13035534D-02 -0.11969257D-02  0.27583786D-15
  0.16431826D-03 -0.95695813D-04  0.42116939D-16  0.38261233D-05 -0.21541879D-05
  0.10352289D-03 -0.91978474D-04 -0.11544416D-04 -0.66597548D-15  0.20963299D-13
 -0.63535627D-03  0.15369385D-03 -0.66898187D-04 -0.86795660D-04 -0.99648423D-15
  0.15858586D-14  0.81465580D-03  0.44168328D-04 -0.23867818D-04 -0.20300510D-04
  0.12866317D-14 -0.55092290D-15  0.12401482D-04 -0.23137651D-14  0.14020329D-04
 -0.12868402D-04  0.48661353D-14 -0.21848837D-03  0.92108277D-04  0.20751601D-14
  0.17642738D-03 -0.53503071D-04 -0.45150551D-14  0.54707279D-15 -0.63515319D-04
  0.10345769D-03 -0.23052759D-14 -0.16374320D-03  0.20766154D-03  0.66405757D-15
  0.35428916D-03 -0.51803461D-03  0.26771543D-14
MO    2     MO 0.0        OCC NO =    2.0000037  ORB. ENERGY =    0.000000
 -0.36921983D+00 -0.68816506D+00 -0.11668806D+01 -0.17659496D+01 -0.22028830D+01
 -0.18904013D+01 -0.72392328D+00 -0.43766231D-04 -0.46958294D-03 -0.17309711D-02
 -0.50612580D-02 -0.60990620D-02  0.73469665D-02 -0.33733623D-01  0.66979995D-03
  0.91934415D-04  0.29659738D-13  0.28759969D-13  0.19401305D-13 -0.13009750D-04
 -0.12615081D-04 -0.85100591D-05  0.87691961D-02  0.85031705D-02  0.57361886D-02
  0.90557294D-14 -0.22851631D-05 -0.18439029D-02 -0.69457396D-15  0.42427254D-06
 -0.15499893D-03  0.19463324D-15  0.23798855D-06  0.17657626D-05  0.69348728D-03
  0.90646217D-04 -0.78413350D-03 -0.17790790D-14 -0.12419158D-13  0.25892817D-05
 -0.34099787D-03 -0.36014684D-03  0.70114471D-03  0.23267012D-14  0.41053921D-14
 -0.25197557D-06 -0.39130316D-04  0.13036279D-04  0.26094037D-04 -0.39722729D-15
  0.75482488D-15 -0.34902511D-06 -0.59306150D-15  0.91614609D-06  0.24541372D-03
 -0.68135569D-14  0.60505980D-06 -0.21985921D-03  0.85927414D-14 -0.33534981D-05
 -0.51638195D-03 -0.74132019D-14  0.43626331D-15 -0.80232020D-07 -0.67521786D-04
  0.17731296D-14  0.83539840D-07  0.11174988D-03 -0.30819196D-14  0.15715622D-06
  0.90815475D-04 -0.15668867D-14 -0.16800775D+00 -0.31320030D+00 -0.52935117D+00
 -0.79571354D+00 -0.97739157D+00 -0.82488400D+00 -0.31017793D+00 -0.14468649D-04
 -0.10814418D-03 -0.40415951D-03 -0.11275421D-02 -0.15105956D-02  0.17837317D-02
 -0.14039372D-01  0.10101365D-03 -0.67180250D-05  0.19686345D-13  0.18457200D-13
  0.13142626D-13 -0.89332444D-05 -0.83754845D-05 -0.59638439D-05  0.25176314D-02
  0.23604395D-02  0.16807735D-02  0.25902524D-14  0.32248498D-05 -0.20300384D-02
 -0.12174814D-14  0.23496641D-05 -0.27815576D-04 -0.92218949D-16 -0.88063478D-07
 -0.84581069D-05  0.83301438D-03  0.14845204D-03 -0.98146642D-03  0.30345185D-14
  0.14128414D-14  0.11314378D-04 -0.13351752D-03  0.35936959D-03 -0.22585207D-03
  0.25449311D-14  0.63448871D-14 -0.67354831D-05 -0.34451561D-05 -0.14211074D-04
  0.17656230D-04  0.30235669D-15  0.14366356D-15 -0.70531480D-06 -0.20101813D-16
 -0.65963531D-06 -0.25932979D-03 -0.23336055D-14  0.27746141D-05  0.53122698D-03
  0.23939109D-14 -0.79570815D-06  0.24676239D-03 -0.33669011D-14  0.46857131D-15
 -0.21286751D-07  0.33765166D-04 -0.63900615D-15 -0.67295534D-06  0.74083032D-04
 -0.76670779D-15  0.73681559D-06 -0.17537853D-03 -0.11373047D-14  0.18485126D+00
  0.34456308D+00  0.58411118D+00  0.88442331D+00  0.11057239D+01  0.95112087D+00
  0.36477532D+00  0.19017132D-04  0.25175121D-03  0.91440622D-03  0.27125688D-02
  0.31256877D-02 -0.37966132D-02  0.16834501D-01 -0.84987354D-03 -0.27241282D-04
 -0.38029122D-13 -0.37191651D-13 -0.24574096D-13  0.87180896D-02  0.85261012D-02
  0.56335555D-02  0.53082272D-02  0.51913303D-02  0.34301314D-02 -0.89393116D-14
  0.79079911D-03  0.27261610D-03  0.34080769D-14  0.78409688D-04 -0.18905806D-04
  0.42090345D-15 -0.13724736D-05  0.21123699D-04 -0.35414901D-04  0.16787120D-03
 -0.13245630D-03  0.31587370D-15 -0.10963295D-13 -0.34337900D-03  0.49274191D-05
 -0.57274798D-04  0.52347379D-04  0.20734059D-14  0.12300179D-15  0.59575960D-04
 -0.16185771D-04  0.15024840D-04  0.11609317D-05  0.32158748D-14  0.20323602D-14
 -0.16907269D-05  0.43954076D-14  0.10685918D-03 -0.11702911D-03 -0.18585311D-13
  0.95526196D-04  0.57146918D-03  0.53990884D-14 -0.41610375D-03 -0.22038184D-03
 -0.15292233D-13 -0.14873861D-14 -0.57064952D-04 -0.76001642D-05  0.44146239D-14
 -0.13462289D-03 -0.29040425D-03  0.47534275D-16  0.30581775D-03  0.31320474D-03
  0.64167802D-14  0.18497144D+00  0.34478708D+00  0.58449092D+00  0.88499830D+00
  0.11064428D+01  0.95173922D+00  0.36501247D+00  0.19065837D-04  0.25239598D-03
  0.91674812D-03  0.27195160D-02  0.31336930D-02 -0.38063368D-02  0.16849854D-01
 -0.86125110D-03 -0.31200145D-04  0.13426937D-12  0.13131252D-12  0.86763731D-13
 -0.88226543D-02 -0.86283632D-02 -0.57011244D-02  0.54375815D-02  0.53178359D-02
  0.35137190D-02  0.31457645D-13 -0.80642306D-03  0.28858626D-03  0.64664192D-14
 -0.86492228D-04 -0.15858671D-04  0.11472700D-15  0.19484290D-05  0.21359025D-04
 -0.45496586D-04  0.17798771D-03 -0.13249112D-03  0.80770617D-14 -0.74387342D-14
  0.32073455D-03  0.14406827D-05 -0.55304167D-04  0.53863484D-04 -0.35600705D-14
  0.30756798D-14 -0.72776689D-04 -0.17918855D-04  0.16932675D-04  0.98617926D-06
 -0.16652738D-14  0.50807847D-15 -0.22545962D-05  0.20259439D-14 -0.10658189D-03
 -0.11333915D-03 -0.14009566D-13 -0.10992769D-03  0.58675801D-03  0.79317344D-14
  0.42967335D-03 -0.24674057D-03  0.59910517D-14 -0.13096083D-14  0.58286254D-04
 -0.80014855D-05  0.32528524D-14  0.13755598D-03 -0.29542006D-03  0.67597259D-15
 -0.31241474D-03  0.31942452D-03 -0.47921024D-14
MO    3     MO 0.0        OCC NO =    2.0000022  ORB. ENERGY =    0.000000
  0.20183347D-02  0.37618441D-02  0.63787352D-02  0.96535375D-02  0.12042027D-01
  0.10333851D-01  0.39573159D-02  0.27773150D-06  0.29798768D-05  0.10984387D-04
  0.32117703D-04  0.38703394D-04 -0.46622339D-04  0.18588347D-03 -0.10771885D-04
 -0.48565681D-05 -0.38879530D-13 -0.37700066D-13 -0.25432242D-13 -0.86918670D-03
 -0.84281872D-03 -0.56856053D-03 -0.76921873D-05 -0.74588342D-05 -0.50316855D-05
 -0.20046617D-14 -0.11303859D-03  0.29327549D-04  0.11181043D-13  0.91475518D-04
  0.13475053D-05 -0.60335673D-16  0.14163346D-04  0.49089379D-06  0.38469127D-05
 -0.18612951D-06 -0.36607832D-05  0.15725292D-13  0.33425177D-13  0.18050827D-03
  0.10294665D-05  0.55861389D-05 -0.66156055D-05 -0.17789183D-15 -0.19852180D-13
 -0.62315859D-04 -0.39200611D-06  0.44075238D-06 -0.48746270D-07 -0.24709712D-15
 -0.48761936D-14 -0.25368224D-04  0.27936126D-14 -0.10678175D-04 -0.45622058D-05
  0.14797370D-14  0.16265076D-03  0.93522614D-05 -0.98605748D-14 -0.13061624D-03
  0.43343560D-05 -0.13881513D-13 -0.25437838D-14  0.33377985D-05  0.12527880D-05
 -0.10631373D-14 -0.67587637D-04  0.29841200D-06  0.86944886D-14  0.57574241D-04
 -0.40567761D-05  0.99415018D-15  0.22821117D-02  0.42543160D-02  0.71903736D-02
  0.10808473D-01  0.13276273D-01  0.11204706D-01  0.42132620D-02  0.24652503D-06
  0.18426218D-05  0.68862985D-05  0.19211701D-04  0.25738382D-04 -0.30392230D-04
  0.18471469D-03 -0.58372415D-05  0.49504930D-06  0.57267299D-15  0.53691733D-15
  0.38231712D-15 -0.67548490D-04 -0.63331003D-04 -0.45095447D-04 -0.33860907D-04
 -0.31746752D-04 -0.22605579D-04 -0.28171639D-13 -0.40498868D-03  0.27542153D-04
 -0.69495096D-14  0.49527219D-04  0.67662993D-05  0.93773344D-16 -0.62617186D-05
 -0.36952755D-07 -0.82695347D-05 -0.33479519D-05  0.11617487D-04 -0.11204241D-14
 -0.18311521D-14  0.63662661D-03  0.18547899D-05 -0.29505144D-05  0.10957245D-05
  0.42621693D-14 -0.66023651D-14  0.39174170D-03  0.12830144D-06 -0.46278497D-06
  0.33448352D-06  0.24563768D-15  0.15148522D-15 -0.27326884D-04  0.50251292D-14
 -0.24072461D-04  0.90904766D-05 -0.24485002D-14  0.51788105D-03 -0.87637702D-06
 -0.12626888D-13 -0.44566366D-03 -0.26395053D-04 -0.18011847D-14  0.13172835D-14
  0.44446198D-04  0.11235696D-05 -0.78273813D-15  0.31530200D-04 -0.11268433D-05
 -0.31691125D-14 -0.16486880D-03 -0.22438656D-05 -0.12333792D-14  0.42886726D+00
  0.79940930D+00  0.13551769D+01  0.20519210D+01  0.25653532D+01  0.22066638D+01
  0.84630307D+00  0.39280321D-04  0.51999789D-03  0.18887270D-02  0.56028730D-02
  0.64561794D-02 -0.78419915D-02  0.39758187D-01 -0.16636070D-03  0.81482074D-04
 -0.67720332D-13 -0.66229006D-13 -0.43760304D-13  0.98321387D-02  0.96156169D-02
  0.63534447D-02  0.75361323D-02  0.73701728D-02  0.48697848D-02 -0.21269675D-13
 -0.20151341D-03  0.14260256D-03  0.72348794D-14  0.24065211D-03  0.39796284D-03
  0.61779688D-15  0.20877695D-04  0.43307207D-05 -0.14872236D-03  0.16152831D-03
 -0.12805952D-04  0.66348318D-14 -0.21260734D-13  0.26632232D-03  0.15818955D-03
 -0.24595780D-03  0.87768253D-04  0.18587345D-14  0.95005266D-15 -0.53750241D-03
 -0.60118084D-04  0.15297077D-04  0.44821006D-04  0.60003885D-14  0.34071794D-14
  0.13240531D-03  0.13610146D-13 -0.27723564D-03  0.85917399D-05 -0.33082331D-13
  0.89509841D-03  0.19548626D-03 -0.77481063D-14 -0.63391502D-04 -0.22126148D-03
 -0.24048784D-13 -0.39155410D-14  0.54689181D-04  0.21583049D-04  0.91627416D-14
 -0.21057877D-03 -0.31073470D-04  0.25838814D-14  0.46511223D-04 -0.33675676D-04
  0.10365047D-13 -0.41590862D+00 -0.77525439D+00 -0.13142289D+01 -0.19899203D+01
 -0.24878387D+01 -0.21399874D+01 -0.82073121D+00 -0.38113355D-04 -0.50454946D-03
 -0.18326154D-02 -0.54364191D-02 -0.62643750D-02  0.76090165D-02 -0.38567532D-01
  0.18925404D-03 -0.74467710D-04 -0.89966332D-15 -0.87985108D-15 -0.58135481D-15
  0.96852701D-02  0.94719827D-02  0.62585394D-02 -0.75288734D-02 -0.73630737D-02
 -0.48650941D-02 -0.35475154D-14 -0.19240117D-03 -0.16310434D-03  0.44999947D-14
  0.22260709D-03 -0.39235804D-03  0.30807356D-15  0.20380059D-04 -0.33370755D-05
  0.15830115D-03 -0.16915745D-03  0.10856308D-04  0.31108938D-13 -0.20076344D-13
  0.28514176D-03 -0.15400967D-03  0.24342942D-03 -0.89419748D-04 -0.18867605D-14
  0.48679904D-14 -0.51730709D-03  0.58399417D-04 -0.13343256D-04 -0.45056161D-04
 -0.25844114D-14  0.57020188D-15  0.12904527D-03  0.69064022D-14 -0.27934079D-03
 -0.12472317D-04 -0.20158176D-13  0.88689328D-03 -0.17846914D-03 -0.56103011D-15
 -0.48870912D-04  0.21588609D-03  0.13631628D-13 -0.26683766D-14  0.53314041D-04
 -0.18709126D-04  0.55264751D-14 -0.21120118D-03  0.29484263D-04  0.24786548D-14
  0.51259052D-04  0.26643115D-04 -0.42295398D-14
MO    4     MO 0.0        OCC NO =    2.0000015  ORB. ENERGY =    0.000000
  0.10123422D+00  0.18868393D+00  0.31994013D+00  0.48419536D+00  0.60399555D+00
  0.51831804D+00  0.19848827D+00  0.13053652D-04  0.14005712D-03  0.51627690D-03
  0.15095634D-02  0.18190973D-02 -0.21912954D-02  0.93440936D-02 -0.41529951D-03
 -0.17533141D-03 -0.18244921D-13 -0.17691436D-13 -0.11934538D-13  0.30192005D-04
  0.29276089D-04  0.19749477D-04  0.53291532D-03  0.51674859D-03  0.34859555D-03
 -0.47889764D-14  0.28380187D-05  0.15599538D-02 -0.72632731D-14 -0.23089179D-05
  0.12100295D-03 -0.27686041D-15 -0.17959347D-06  0.19091417D-04  0.15107298D-03
 -0.11147035D-04 -0.13992595D-03  0.33061531D-14 -0.19597529D-13 -0.48628372D-05
  0.62666001D-04  0.28850323D-03 -0.35116923D-03  0.51258268D-14  0.87467749D-14
  0.39596134D-05 -0.11770567D-04  0.21869552D-04 -0.10098985D-04  0.57628558D-16
  0.32574415D-14  0.49126657D-06 -0.51173936D-14 -0.41701184D-06 -0.30920519D-03
  0.47763428D-14 -0.22508360D-05  0.61251502D-03  0.10575838D-13  0.35018715D-05
  0.31510055D-03 -0.14164738D-13  0.13831127D-14  0.78406341D-07  0.78442880D-04
  0.49437977D-15  0.11804933D-05 -0.15969311D-04 -0.46437179D-14 -0.14157123D-05
 -0.21935933D-03 -0.10835817D-14  0.14726442D+00  0.27453055D+00  0.46399403D+00
  0.69746957D+00  0.85671644D+00  0.72303845D+00  0.27188134D+00  0.11378745D-04
  0.85049071D-04  0.31784780D-03  0.88674586D-03  0.11879950D-02 -0.14028006D-02
  0.11802827D-01  0.24572097D-04  0.24450440D-04 -0.12913292D-14 -0.12107032D-14
 -0.86209280D-15  0.14327992D-04  0.13433404D-04  0.95653836D-05 -0.23498204D-02
 -0.22031060D-02 -0.15687427D-02  0.72323599D-14  0.32228693D-04  0.61138283D-03
  0.16557868D-14  0.25636016D-05  0.20207909D-03  0.18159812D-16  0.92643615D-07
 -0.12820231D-05 -0.10950753D-02  0.35172432D-03  0.74335095D-03 -0.44378786D-14
 -0.59351671D-15 -0.64355673D-04 -0.33162612D-04 -0.94987618D-04  0.12815023D-03
  0.83354444D-14  0.80089742D-14 -0.16606892D-04  0.38315323D-05 -0.12627669D-04
  0.87961363D-05  0.30734089D-15  0.45286585D-15  0.35459597D-06 -0.88746856D-15
 -0.13950325D-05  0.48471337D-03 -0.81089539D-15 -0.16018065D-04  0.20456764D-03
  0.34733011D-14  0.20203163D-04 -0.16587078D-02 -0.97398133D-14 -0.14552756D-15
 -0.11276612D-05  0.42109074D-04 -0.32686914D-15 -0.10409129D-05 -0.23744858D-04
  0.76345182D-15  0.44238965D-05 -0.10258236D-03 -0.40148474D-14  0.35995687D+00
  0.67096023D+00  0.11374271D+01  0.17222184D+01  0.21531523D+01  0.18520971D+01
  0.71031910D+00  0.30851010D-04  0.40840961D-03  0.14834180D-02  0.44005316D-02
  0.50707238D-02 -0.61591493D-02  0.33694996D-01  0.27048068D-03  0.80675710D-04
  0.10443949D-12  0.10213954D-12  0.67487915D-13  0.60980288D-02  0.59637390D-02
  0.39404945D-02  0.38001400D-02  0.37164539D-02  0.24556182D-02  0.23843011D-13
 -0.53281139D-03 -0.64380653D-03  0.10052650D-13  0.30460506D-03  0.15511359D-03
  0.26058358D-15  0.47972913D-05  0.13329078D-04 -0.23644515D-03  0.18150810D-03
  0.54937048D-04  0.11129489D-13 -0.39623815D-13  0.77258227D-03  0.24863208D-03
 -0.17598374D-03 -0.72648342D-04  0.33779841D-14  0.42524461D-14 -0.97822639D-03
 -0.43117943D-04  0.34750528D-04  0.83674157D-05  0.47299567D-14  0.28495302D-14
  0.60867067D-04  0.84696330D-14  0.27659381D-04 -0.75384630D-04 -0.17769360D-13
  0.25261184D-03  0.45590487D-03 -0.76395394D-14 -0.33558998D-03 -0.22975098D-03
 -0.30407606D-13 -0.19746028D-14  0.30904966D-04  0.99300223D-04  0.56844242D-14
  0.11391959D-03  0.43536472D-04  0.23938414D-15 -0.20663449D-03 -0.34143714D-03
  0.12280235D-13  0.37455742D+00  0.69817567D+00  0.11835633D+01  0.17920749D+01
  0.22404883D+01  0.19272217D+01  0.73913102D+00  0.32119079D-04  0.42519646D-03
  0.15443909D-02  0.45814065D-02  0.52791457D-02 -0.64123087D-02  0.35072670D-01
  0.24371741D-03  0.75963440D-04 -0.76825503D-14 -0.75133664D-14 -0.49643989D-14
 -0.64540457D-02 -0.63119158D-02 -0.41705496D-02  0.41363999D-02  0.40453088D-02
  0.26729065D-02 -0.13478290D-14  0.56676161D-03 -0.66484702D-03 -0.48118358D-14
 -0.29578042D-03  0.16111446D-03 -0.74971064D-16 -0.45681313D-05  0.13055663D-04
 -0.24904722D-03  0.19180741D-03  0.57239803D-04 -0.30470302D-13  0.20014555D-14
 -0.81042898D-03  0.26211343D-03 -0.18618313D-03 -0.75930307D-04  0.42912349D-14
 -0.30664911D-14  0.10295317D-02 -0.43207995D-04  0.32172231D-04  0.11035764D-04
  0.24763546D-14 -0.18444364D-14 -0.59869521D-04 -0.43424459D-14 -0.23932921D-04
 -0.81300646D-04  0.73453079D-14 -0.26566503D-03  0.45749655D-03  0.56820299D-14
  0.33746379D-03 -0.21359462D-03 -0.20135432D-13  0.11923808D-14 -0.33813884D-04
  0.10184155D-03 -0.33384753D-14 -0.11262446D-03  0.46366397D-04 -0.23866710D-15
  0.21406611D-03 -0.35189106D-03  0.82958170D-14
MO    5     MO 0.0        OCC NO =    1.9862091  ORB. ENERGY =    0.000000
 -0.98821890D-02 -0.18418775D-01 -0.31231622D-01 -0.47265739D-01 -0.58960284D-01
 -0.50596695D-01 -0.19375846D-01 -0.16030267D-03 -0.17199425D-02 -0.63400319D-02
 -0.18537881D-01 -0.22339049D-01  0.26909751D-01  0.14107479D-01 -0.10115985D-03
 -0.19301191D-02  0.39015660D-13  0.37832066D-13  0.25521288D-13  0.24072994D-02
  0.23342707D-02  0.15746852D-02 -0.69387739D-01 -0.67282767D-01 -0.45388557D-01
  0.17177399D-13  0.55481905D-03 -0.12900556D-01  0.92571597D-14  0.66042577D-04
  0.20432031D-02  0.10879590D-14 -0.49205568D-05  0.23011730D-03 -0.39858229D-02
 -0.42337093D-02  0.82195323D-02  0.51664930D-15  0.28942313D-14 -0.23439075D-03
 -0.43505866D-03  0.63673165D-03 -0.20167299D-03 -0.19967444D-14 -0.97174983D-14
 -0.66991215D-04  0.11292858D-03  0.52041175D-03 -0.63334033D-03  0.42757473D-16
 -0.42400482D-14 -0.53994175D-05 -0.12427353D-14 -0.46389675D-04 -0.15970774D-02
  0.38799193D-14 -0.38108014D-04  0.34554748D-02 -0.15171324D-15  0.17727704D-03
  0.13357573D-02  0.24752074D-14 -0.81001863D-15 -0.41388904D-05  0.51281617D-03
 -0.20952780D-14 -0.13530276D-05 -0.22646362D-03  0.45253339D-14  0.13769699D-04
 -0.13119849D-02  0.12008632D-14 -0.17371624D-01 -0.32384208D-01 -0.54733723D-01
 -0.82274994D-01 -0.10106009D+00 -0.85291154D-01 -0.32071701D-01 -0.31848554D-03
 -0.23804821D-02 -0.88964050D-02 -0.24819585D-01 -0.33251401D-01  0.39263704D-01
  0.15757917D-01  0.22971842D-02  0.22864396D-03  0.30926382D-13  0.28995449D-13
  0.20646487D-13  0.32660629D-02  0.30621416D-02  0.21804272D-02 -0.35829595D-01
 -0.33592523D-01 -0.23919878D-01  0.30996090D-14  0.47169250D-03 -0.51197576D-02
 -0.27879160D-14 -0.73545861D-04  0.15184610D-02 -0.38512027D-15  0.16241259D-05
 -0.25128519D-05 -0.19387015D-01  0.92933525D-02  0.10093663D-01  0.35551313D-14
 -0.15603771D-14 -0.13818323D-02 -0.26216217D-02  0.11252567D-02  0.14963650D-02
 -0.17788661D-14 -0.10337429D-13 -0.16749502D-03  0.84318969D-04 -0.89850727D-04
  0.55317583D-05 -0.26092202D-15 -0.78433724D-15  0.21388338D-04 -0.30678845D-15
 -0.13807518D-04  0.34392938D-02  0.37197955D-14 -0.13447086D-03  0.34647222D-02
 -0.27994302D-14  0.17589341D-03 -0.13782604D-01  0.18727653D-14  0.15062120D-15
 -0.17313731D-04  0.26323819D-03  0.11454727D-14 -0.17748075D-05  0.32083251D-03
 -0.15973363D-14  0.53716000D-04 -0.11105471D-02  0.15435201D-14 -0.86412000D-01
 -0.16107212D+00 -0.27305312D+00 -0.41343935D+00 -0.51689025D+00 -0.44461831D+00
 -0.17052069D+00 -0.12581765D-02 -0.16655901D-01 -0.60497264D-01 -0.17946399D+00
 -0.20679601D+00  0.25118455D+00  0.14443876D+00  0.65364797D-01  0.15574504D-02
  0.28013801D-13  0.27396885D-13  0.18102280D-13 -0.29596877D-01 -0.28945099D-01
 -0.19125251D-01 -0.12997439D+00 -0.12711211D+00 -0.83988346D-01  0.79961347D-14
 -0.18909568D-02 -0.27094249D-01 -0.34377564D-14 -0.29525616D-02 -0.63023192D-02
  0.85250202D-16 -0.52491197D-04 -0.51055344D-04 -0.59927590D-02  0.74406865D-02
 -0.14479274D-02  0.16566251D-13  0.22554180D-13  0.13496201D-01 -0.29211319D-02
  0.41257691D-02 -0.12046372D-02 -0.98642721D-15 -0.28086437D-14  0.72899984D-02
  0.21653633D-03 -0.19248767D-03 -0.24048662D-04 -0.20306456D-14 -0.15684748D-14
 -0.91473461D-03  0.11624350D-14  0.17031960D-02 -0.21386732D-02  0.22605117D-15
 -0.64095939D-02 -0.23369467D-02 -0.37133561D-14  0.13000060D-02  0.87529664D-02
  0.69392964D-14  0.57075846D-15  0.30817829D-03 -0.22393246D-03 -0.15638029D-14
 -0.84365120D-03 -0.99698456D-03 -0.14847249D-15 -0.80883676D-04  0.16687819D-02