 Entering Gaussian System, Link 0=/home/bruns/programas/chemistry/gaussian/g09/g09
 Input=GAUSSIAN.com
 Output=GAUSSIAN.log
 Initial command:
 /home/bruns/programas/chemistry/gaussian/g09/l1.exe /home/bruns/programas/chemistry/gaussian/work/Gau-26485.inp -scrdir=/home/bruns/programas/chemistry/gaussian/work/
 Entering Link 1 = /home/bruns/programas/chemistry/gaussian/g09/l1.exe PID=     26487.
  
 Copyright (c) 1988,1990,1992,1993,1995,1998,2003,2009,2010,
            Gaussian, Inc.  All Rights Reserved.
  
 This is part of the Gaussian(R) 09 program.  It is based on
 the Gaussian(R) 03 system (copyright 2003, Gaussian, Inc.),
 the Gaussian(R) 98 system (copyright 1998, Gaussian, Inc.),
 the Gaussian(R) 94 system (copyright 1995, Gaussian, Inc.),
 the Gaussian 92(TM) system (copyright 1992, Gaussian, Inc.),
 the Gaussian 90(TM) system (copyright 1990, Gaussian, Inc.),
 the Gaussian 88(TM) system (copyright 1988, Gaussian, Inc.),
 the Gaussian 86(TM) system (copyright 1986, Carnegie Mellon
 University), and the Gaussian 82(TM) system (copyright 1983,
 Carnegie Mellon University). Gaussian is a federally registered
 trademark of Gaussian, Inc.
  
 This software contains proprietary and confidential information,
 including trade secrets, belonging to Gaussian, Inc.
  
 This software is provided under written license and may be
 used, copied, transmitted, or stored only in accord with that
 written license.
  
 The following legend is applicable only to US Government
 contracts under FAR:
  
                    RESTRICTED RIGHTS LEGEND
  
 Use, reproduction and disclosure by the US Government is
 subject to restrictions as set forth in subparagraphs (a)
 and (c) of the Commercial Computer Software - Restricted
 Rights clause in FAR 52.227-19.
  
 Gaussian, Inc.
 340 Quinnipiac St., Bldg. 40, Wallingford CT 06492
  
  
 ---------------------------------------------------------------
 Warning -- This program may not be used in any manner that
 competes with the business of Gaussian, Inc. or will provide
 assistance to any competitor of Gaussian, Inc.  The licensee
 of this program is prohibited from giving any competitor of
 Gaussian, Inc. access to this program.  By using this program,
 the user acknowledges that Gaussian, Inc. is engaged in the
 business of creating and licensing software in the field of
 computational chemistry and represents and warrants to the
 licensee that it is not a competitor of Gaussian, Inc. and that
 it will not use this program in any manner prohibited above.
 ---------------------------------------------------------------
  

 Cite this work as:
 Gaussian 09, Revision B.01,
 M. J. Frisch, G. W. Trucks, H. B. Schlegel, G. E. Scuseria, 
 M. A. Robb, J. R. Cheeseman, G. Scalmani, V. Barone, B. Mennucci, 
 G. A. Petersson, H. Nakatsuji, M. Caricato, X. Li, H. P. Hratchian, 
 A. F. Izmaylov, J. Bloino, G. Zheng, J. L. Sonnenberg, M. Hada, 
 M. Ehara, K. Toyota, R. Fukuda, J. Hasegawa, M. Ishida, T. Nakajima, 
 Y. Honda, O. Kitao, H. Nakai, T. Vreven, J. A. Montgomery, Jr., 
 J. E. Peralta, F. Ogliaro, M. Bearpark, J. J. Heyd, E. Brothers, 
 K. N. Kudin, V. N. Staroverov, T. Keith, R. Kobayashi, J. Normand, 
 K. Raghavachari, A. Rendell, J. C. Burant, S. S. Iyengar, J. Tomasi, 
 M. Cossi, N. Rega, J. M. Millam, M. Klene, J. E. Knox, J. B. Cross, 
 V. Bakken, C. Adamo, J. Jaramillo, R. Gomperts, R. E. Stratmann, 
 O. Yazyev, A. J. Austin, R. Cammi, C. Pomelli, J. W. Ochterski, 
 R. L. Martin, K. Morokuma, V. G. Zakrzewski, G. A. Voth, 
 P. Salvador, J. J. Dannenberg, S. Dapprich, A. D. Daniels, 
 O. Farkas, J. B. Foresman, J. V. Ortiz, J. Cioslowski, 
 and D. J. Fox, Gaussian, Inc., Wallingford CT, 2010.
 
 ******************************************
 Gaussian 09:  EM64L-G09RevB.01 12-Aug-2010
                27-Nov-2021 
 ******************************************
 %nproc=8
 Will use up to    8 processors via shared memory.
 %mem=8GB
 -----------------------------------------------------
 # qcisd/aug-cc-pvtz nosymm density=current output=wfn
 -----------------------------------------------------
 1/30=1,38=1/1;
 2/12=2,15=1,17=6,18=5,40=1/2;
 3/5=16,6=1,7=10,11=9,16=1,25=1,30=1,71=1/1,2,3;
 4//1;
 5/5=2,38=5/2;
 8/6=4,9=120000,10=1/1,4;
 9/5=8,15=1/13;
 11/28=-7,31=1,32=3,42=3/11;
 10/5=6,13=10,31=1/2;
 6/7=2,8=2,9=2,10=2,22=-1,31=1/1;
 99/5=1,6=1100,9=1/99;
 -----------------
 f2co-wavefunction
 -----------------
 Symbolic Z-matrix:
 Charge =  0 Multiplicity = 1
 O                     0.        0.        0.67993 
 C                     0.        0.       -0.49222 
 F                     0.       -1.05888  -1.26431 
 F                     0.        1.06888  -1.26431 
 
                          Input orientation:                          
 ---------------------------------------------------------------------
 Center     Atomic      Atomic             Coordinates (Angstroms)
 Number     Number       Type             X           Y           Z
 ---------------------------------------------------------------------
      1          8           0        0.000000    0.000000    0.679927
      2          6           0        0.000000    0.000000   -0.492216
      3          9           0        0.000000   -1.058878   -1.264305
      4          9           0        0.000000    1.068878   -1.264305
 ---------------------------------------------------------------------
                    Distance matrix (angstroms):
                    1          2          3          4
     1  O    0.000000
     2  C    1.172143   0.000000
     3  F    2.213879   1.310475   0.000000
     4  F    2.218679   1.318568   2.127756   0.000000
 Symmetry turned off by external request.
 Stoichiometry    CF2O
 Framework group  CS[SG(CF2O)]
 Deg. of freedom     5
 Full point group                 CS      NOp   2
 Rotational constants (GHZ):     11.7957213     11.7285165      5.8810114
 Standard basis: Aug-CC-pVTZ (5D, 7F)
 Integral buffers will be    131072 words long.
 Raffenetti 1 integral format.
 Two-electron integral symmetry is turned off.
   184 basis functions,   288 primitive gaussians,   220 cartesian basis functions
    16 alpha electrons       16 beta electrons
       nuclear repulsion energy       119.6748584618 Hartrees.
 NAtoms=    4 NActive=    4 NUniq=    4 SFac= 1.00D+00 NAtFMM=   50 NAOKFM=F Big=F
 One-electron integrals computed using PRISM.
 NBasis=   184 RedAO= T  NBF=   184
 NBsUse=   184 1.00D-06 NBFU=   184
 Harris functional with IExCor=  205 diagonalized for initial guess.
 ExpMin= 3.57D-02 ExpMax= 1.95D+04 ExpMxC= 6.65D+02 IAcc=3 IRadAn=         0 AccDes= 0.00D+00
 HarFok:  IExCor=  205 AccDes= 0.00D+00 IRadAn=         0 IDoV= 1
 ScaDFX=  1.000000  1.000000  1.000000  1.000000
 FoFCou: FMM=F IPFlag=           0 FMFlag=      100000 FMFlg1=           0
         NFxFlg=           0 DoJE=T BraDBF=F KetDBF=T FulRan=T
         Omega=  0.000000  0.000000  1.000000  0.000000  0.000000 ICntrl=     500 IOpCl=  0
         NMat0=    1 NMatS0=    1 NMatT0=    0 NMatD0=    1 NMtDS0=    0 NMtDT0=    0
         I1Cent=           4 NGrid=           0.
 Symmetry not used in FoFCou.
 Requested convergence on RMS density matrix=1.00D-08 within 128 cycles.
 Requested convergence on MAX density matrix=1.00D-06.
 Requested convergence on             energy=1.00D-06.
 No special actions if energy rises.
 Keep R1 ints in memory in canonical form, NReq=301063473.
 SCF Done:  E(RHF) =  -311.740691318     A.U. after   12 cycles
             Convg  =    0.3551D-08             -V/T =  2.0015
 ExpMin= 3.57D-02 ExpMax= 1.95D+04 ExpMxC= 6.65D+02 IAcc=3 IRadAn=         5 AccDes= 0.00D+00
 HarFok:  IExCor=  205 AccDes= 0.00D+00 IRadAn=         5 IDoV=-2
 ScaDFX=  1.000000  1.000000  1.000000  1.000000
 DSYEVD returned Info=          93 IAlg= 4 N=    46 NDim=    46 NE2=    23339802 trying DSYEV.
 DSYEVD returned Info=          93 IAlg= 4 N=    46 NDim=    46 NE2=    23339802 trying DSYEV.
 Range of M.O.s used for correlation:     5   184
 NBasis=   184 NAE=    16 NBE=    16 NFC=     4 NFV=     0
 NROrb=    180 NOA=    12 NOB=    12 NVA=   168 NVB=   168

 **** Warning!!: The largest alpha MO coefficient is  0.15425794D+02

 Semi-Direct transformation.
 ModeAB=           2 MOrb=            12 LenV=    1072785691
 LASXX=     33405819 LTotXX=    33405819 LenRXX=    33405819
 LTotAB=    33954012 MaxLAS=    52509600 LenRXY=    52509600
 NonZer=    66811638 LenScr=   100987392 LnRSAI=           0
 LnScr1=           0 LExtra=           0 Total=    186902811
 MaxDsk=          -1 SrtSym=           F ITran=            4
 JobTyp=0 Pass  1:  I=   1 to  12.
 (rs|ai) integrals will be sorted in core.
 Spin components of T(2) and E(2):
     alpha-alpha T2 =       0.2663498508D-01 E2=     -0.1191691299D+00
     alpha-beta  T2 =       0.1374905142D+00 E2=     -0.6581397340D+00
     beta-beta   T2 =       0.2663498508D-01 E2=     -0.1191691299D+00
 ANorm=    0.1091219723D+01
 E2 =    -0.8964779938D+00 EUMP2 =    -0.31263716931210D+03
 R2 and R3 integrals will be kept in memory, NReq=   596397230.
 Iterations=  50 Convergence= 0.100D-07
 Iteration Nr.   1
 **********************
 DD1Dir will call FoFMem   1 times, MxPair=       156
 NAB=    78 NAA=     0 NBB=     0.
 MP4(R+Q)=  0.16106124D-01
 E3=        0.12681243D-01        EUMP3=      -0.31262448807D+03
 E4(DQ)=    0.42381799D-03        UMP4(DQ)=   -0.31262406425D+03
 E4(SDQ)=  -0.11254432D-01        UMP4(SDQ)=  -0.31263574250D+03
 DE(Corr)= -0.86769063     E(Corr)=     -312.60838195    
 NORM(A)=   0.10860634D+01
 Iteration Nr.   2
 **********************
 DD1Dir will call FoFMem   1 times, MxPair=       156
 NAB=    78 NAA=     0 NBB=     0.
 DE(Corr)= -0.89370605     E(CORR)=     -312.63439737     Delta=-2.60D-02
 NORM(A)=   0.10934077D+01
 Iteration Nr.   3
 **********************
 DD1Dir will call FoFMem   1 times, MxPair=       156
 NAB=    78 NAA=     0 NBB=     0.
 DE(Corr)= -0.89192085     E(CORR)=     -312.63261217     Delta= 1.79D-03
 NORM(A)=   0.10956619D+01
 Iteration Nr.   4
 **********************
 DD1Dir will call FoFMem   1 times, MxPair=       156
 NAB=    78 NAA=     0 NBB=     0.
 DE(Corr)= -0.89424355     E(CORR)=     -312.63493487     Delta=-2.32D-03
 NORM(A)=   0.10964775D+01
 Iteration Nr.   5
 **********************
 DD1Dir will call FoFMem   1 times, MxPair=       156
 NAB=    78 NAA=     0 NBB=     0.
 DE(Corr)= -0.89451266     E(CORR)=     -312.63520398     Delta=-2.69D-04
 NORM(A)=   0.10966629D+01
 Iteration Nr.   6
 **********************
 DD1Dir will call FoFMem   1 times, MxPair=       156
 NAB=    78 NAA=     0 NBB=     0.
 DE(Corr)= -0.89453966     E(CORR)=     -312.63523098     Delta=-2.70D-05
 NORM(A)=   0.10966766D+01
 Iteration Nr.   7
 **********************
 DD1Dir will call FoFMem   1 times, MxPair=       156
 NAB=    78 NAA=     0 NBB=     0.
 DE(Corr)= -0.89454136     E(CORR)=     -312.63523267     Delta=-1.69D-06
 NORM(A)=   0.10966764D+01
 Iteration Nr.   8
 **********************
 DD1Dir will call FoFMem   1 times, MxPair=       156
 NAB=    78 NAA=     0 NBB=     0.
 DE(Corr)= -0.89454035     E(CORR)=     -312.63523167     Delta= 1.01D-06
 NORM(A)=   0.10966769D+01
 Iteration Nr.   9
 **********************
 DD1Dir will call FoFMem   1 times, MxPair=       156
 NAB=    78 NAA=     0 NBB=     0.
 DE(Corr)= -0.89454074     E(CORR)=     -312.63523205     Delta=-3.89D-07
 NORM(A)=   0.10966768D+01
 Iteration Nr.  10
 **********************
 DD1Dir will call FoFMem   1 times, MxPair=       156
 NAB=    78 NAA=     0 NBB=     0.
 DE(Corr)= -0.89454064     E(CORR)=     -312.63523195     Delta= 1.01D-07
 NORM(A)=   0.10966770D+01
 Iteration Nr.  11
 **********************
 DD1Dir will call FoFMem   1 times, MxPair=       156
 NAB=    78 NAA=     0 NBB=     0.
 DE(Corr)= -0.89454113     E(CORR)=     -312.63523245     Delta=-4.97D-07
 NORM(A)=   0.10966774D+01
 Iteration Nr.  12
 **********************
 DD1Dir will call FoFMem   1 times, MxPair=       156
 NAB=    78 NAA=     0 NBB=     0.
 DE(Corr)= -0.89454117     E(CORR)=     -312.63523249     Delta=-4.07D-08
 NORM(A)=   0.10966775D+01
 Iteration Nr.  13
 **********************
 DD1Dir will call FoFMem   1 times, MxPair=       156
 NAB=    78 NAA=     0 NBB=     0.
 DE(Corr)= -0.89454128     E(CORR)=     -312.63523260     Delta=-1.05D-07
 NORM(A)=   0.10966776D+01
 Iteration Nr.  14
 **********************
 DD1Dir will call FoFMem   1 times, MxPair=       156
 NAB=    78 NAA=     0 NBB=     0.
 DE(Corr)= -0.89454130     E(CORR)=     -312.63523261     Delta=-1.73D-08
 NORM(A)=   0.10966777D+01
 Iteration Nr.  15
 **********************
 DD1Dir will call FoFMem   1 times, MxPair=       156
 NAB=    78 NAA=     0 NBB=     0.
 DE(Corr)= -0.89454131     E(CORR)=     -312.63523262     Delta=-1.04D-08
 NORM(A)=   0.10966777D+01
 Iteration Nr.  16
 **********************
 DD1Dir will call FoFMem   1 times, MxPair=       156
 NAB=    78 NAA=     0 NBB=     0.
 DE(Corr)= -0.89454131     E(CORR)=     -312.63523263     Delta=-4.30D-09
 NORM(A)=   0.10966777D+01
 Largest amplitude= 5.86D-02

 Z-AMPLITUDE ITERATIONS

 Iteration Nr.   1
 **********************
 DD1Dir will call FoFMem   1 times, MxPair=       156
 NAB=    78 NAA=     0 NBB=     0.
 DE(Z)  -0.87516293D+00          E(Z)=    -0.31261585425D+03
 NORM(A)=   0.10966646D+01
 Iteration Nr.   2
 **********************
 DD1Dir will call FoFMem   1 times, MxPair=       156
 NAB=    78 NAA=     0 NBB=     0.
 DE(Z)  -0.87516290D+00          E(Z)=    -0.31261585421D+03
 NORM(A)=   0.10967186D+01
 Iteration Nr.   3
 **********************
 DD1Dir will call FoFMem   1 times, MxPair=       156
 NAB=    78 NAA=     0 NBB=     0.
 DE(Z)  -0.87516338D+00          E(Z)=    -0.31261585470D+03
 NORM(A)=   0.10966138D+01
 Iteration Nr.   4
 **********************
 DD1Dir will call FoFMem   1 times, MxPair=       156
 NAB=    78 NAA=     0 NBB=     0.
 DE(Z)  -0.87516245D+00          E(Z)=    -0.31261585376D+03
 NORM(A)=   0.10967902D+01
 Iteration Nr.   5
 **********************
 DD1Dir will call FoFMem   1 times, MxPair=       156
 NAB=    78 NAA=     0 NBB=     0.
 DE(Z)  -0.87516439D+00          E(Z)=    -0.31261585571D+03
 NORM(A)=   0.10922069D+01
 Iteration Nr.   6
 **********************
 DD1Dir will call FoFMem   1 times, MxPair=       156
 NAB=    78 NAA=     0 NBB=     0.
 DE(Z)  -0.87510930D+00          E(Z)=    -0.31261580062D+03
 NORM(A)=   0.10922068D+01
 Iteration Nr.   7
 **********************
 DD1Dir will call FoFMem   1 times, MxPair=       156
 NAB=    78 NAA=     0 NBB=     0.
 DE(Z)  -0.87510788D+00          E(Z)=    -0.31261579920D+03
 NORM(A)=   0.10922068D+01
 Iteration Nr.   8
 **********************
 DD1Dir will call FoFMem   1 times, MxPair=       156
 NAB=    78 NAA=     0 NBB=     0.
 DE(Z)  -0.87510836D+00          E(Z)=    -0.31261579968D+03
 NORM(A)=   0.10922070D+01
 Iteration Nr.   9
 **********************
 DD1Dir will call FoFMem   1 times, MxPair=       156
 NAB=    78 NAA=     0 NBB=     0.
 DE(Z)  -0.87510810D+00          E(Z)=    -0.31261579941D+03
 NORM(A)=   0.10922071D+01
 Iteration Nr.  10
 **********************
 DD1Dir will call FoFMem   1 times, MxPair=       156
 NAB=    78 NAA=     0 NBB=     0.
 DE(Z)  -0.87510820D+00          E(Z)=    -0.31261579952D+03
 NORM(A)=   0.10922072D+01
 Iteration Nr.  11
 **********************
 DD1Dir will call FoFMem   1 times, MxPair=       156
 NAB=    78 NAA=     0 NBB=     0.
 DE(Z)  -0.87510818D+00          E(Z)=    -0.31261579950D+03
 NORM(A)=   0.10922072D+01
 Iteration Nr.  12
 **********************
 DD1Dir will call FoFMem   1 times, MxPair=       156
 NAB=    78 NAA=     0 NBB=     0.
 DE(Z)  -0.87510819D+00          E(Z)=    -0.31261579951D+03
 NORM(A)=   0.10922072D+01
 Iteration Nr.  13
 **********************
 DD1Dir will call FoFMem   1 times, MxPair=       156
 NAB=    78 NAA=     0 NBB=     0.
 DE(Z)  -0.87510819D+00          E(Z)=    -0.31261579951D+03
 NORM(A)=   0.10922072D+01
 Discarding MO integrals.
          Differentiating once with respect to electric field.
                with respect to dipole field.
          Electric field/nuclear overlap derivatives assumed to be zero.
          Keep R1 ints in memory in canonical form, NReq=297441306.
          There are     1 degrees of freedom in the 1st order CPHF.  IDoFFX=0.
 LinEq1:  Iter=  0 NonCon=     1 RMS=3.08D-03 Max=8.50D-02
 AX will form     1 AO Fock derivatives at one time.
 LinEq1:  Iter=  1 NonCon=     1 RMS=7.61D-04 Max=1.12D-02
 LinEq1:  Iter=  2 NonCon=     1 RMS=2.26D-04 Max=3.41D-03
 LinEq1:  Iter=  3 NonCon=     1 RMS=1.00D-04 Max=1.59D-03
 LinEq1:  Iter=  4 NonCon=     1 RMS=2.30D-05 Max=3.77D-04
 LinEq1:  Iter=  5 NonCon=     1 RMS=1.11D-05 Max=3.12D-04
 LinEq1:  Iter=  6 NonCon=     1 RMS=2.72D-06 Max=5.03D-05
 LinEq1:  Iter=  7 NonCon=     1 RMS=5.58D-07 Max=1.03D-05
 LinEq1:  Iter=  8 NonCon=     1 RMS=9.99D-08 Max=1.21D-06
 LinEq1:  Iter=  9 NonCon=     1 RMS=2.42D-08 Max=3.36D-07
 LinEq1:  Iter= 10 NonCon=     1 RMS=1.02D-08 Max=1.15D-07
 LinEq1:  Iter= 11 NonCon=     1 RMS=1.50D-09 Max=1.89D-08
 LinEq1:  Iter= 12 NonCon=     1 RMS=3.02D-10 Max=3.69D-09
 LinEq1:  Iter= 13 NonCon=     0 RMS=4.71D-11 Max=4.38D-10
 Linear equations converged to 1.000D-10 1.000D-09 after    13 iterations.
 End of Minotr Frequency-dependent properties file   721 does not exist.
 End of Minotr Frequency-dependent properties file   722 does not exist.

 **********************************************************************

            Population analysis using the QCI/CC density.

 **********************************************************************

     Natural Orbital Coefficients:
                           1         2         3         4         5
     Eigenvalues --     2.00001   2.00000   2.00000   2.00000   1.98615
   1 1   O  1S         -0.63267  -0.72022   0.00398   0.20063  -0.01948
   2        2S          0.01170   0.01266  -0.00008  -0.00385   0.04684
   3        3S         -0.02681  -0.03094   0.00017   0.00870   0.01307
   4        4S          0.00202   0.00274  -0.00004  -0.00176   0.00011
   5        5S         -0.00050   0.00090  -0.00005  -0.00178  -0.01897
   6        6PX         0.00000   0.00000   0.00000   0.00000   0.00000
   7        6PY         0.00000   0.00000   0.00017  -0.00001  -0.00052
   8        6PZ         0.00404   0.00177   0.00000   0.00011  -0.01425
   9        7PX         0.00000   0.00000   0.00000   0.00000   0.00000
  10        7PY         0.00000   0.00000   0.00012   0.00000  -0.00063
  11        7PZ         0.00266  -0.00196   0.00003   0.00168  -0.01396
  12        8PX         0.00000   0.00000   0.00000   0.00000   0.00000
  13        8PY         0.00000   0.00000  -0.00043   0.00001  -0.00035
  14        8PZ         0.00321  -0.00075   0.00001   0.00059   0.00940
  15        9PX         0.00000   0.00000   0.00000   0.00000   0.00000
  16        9PY         0.00000  -0.00001  -0.00035   0.00000   0.00012
  17        9PZ         0.00035   0.00004   0.00001   0.00046   0.00544
  18       10D 0       -0.00026  -0.00011   0.00000  -0.00002   0.00116
  19       10D+1        0.00000   0.00000   0.00000   0.00000   0.00000
  20       10D-1        0.00000   0.00000  -0.00001   0.00000   0.00002
  21       10D+2        0.00005   0.00005   0.00000   0.00001   0.00002
  22       10D-2        0.00000   0.00000   0.00000   0.00000   0.00000
  23       11D 0       -0.00003   0.00091  -0.00001  -0.00046  -0.00017
  24       11D+1        0.00000   0.00000   0.00000   0.00000   0.00000
  25       11D-1        0.00000   0.00000   0.00005   0.00000   0.00005
  26       11D+2        0.00006   0.00001   0.00000  -0.00017  -0.00081
  27       11D-2        0.00000   0.00000   0.00000   0.00000   0.00000
  28       12D 0       -0.00044   0.00023   0.00000  -0.00009  -0.00562
  29       12D+1        0.00000   0.00000   0.00000   0.00000   0.00000
  30       12D-1        0.00000   0.00000   0.00013   0.00000   0.00003
  31       12D+2        0.00027  -0.00027   0.00000  -0.00017  -0.00214
  32       12D-2        0.00000   0.00000   0.00000   0.00000   0.00000
  33       13F 0       -0.00017   0.00008   0.00000  -0.00010  -0.00050
  34       13F+1        0.00000   0.00000   0.00000   0.00000   0.00000
  35       13F-1        0.00000   0.00000   0.00002   0.00000  -0.00002
  36       13F+2        0.00003   0.00002   0.00000   0.00002   0.00017
  37       13F-2        0.00000   0.00000   0.00000   0.00000   0.00000
  38       13F+3        0.00000   0.00000   0.00000   0.00000   0.00000
  39       13F-3        0.00000   0.00000  -0.00002   0.00000   0.00000
  40       14F 0        0.00004  -0.00021   0.00000   0.00025   0.00164
  41       14F+1        0.00000   0.00000   0.00000   0.00000   0.00000
  42       14F-1        0.00000   0.00000  -0.00008   0.00000  -0.00002
  43       14F+2       -0.00001   0.00002   0.00000   0.00017   0.00090
  44       14F-2        0.00000   0.00000   0.00000   0.00000   0.00000
  45       14F+3        0.00000   0.00000   0.00000   0.00000   0.00000
  46       14F-3        0.00000   0.00000   0.00007   0.00000   0.00000
  47 2   C  1S          0.71528  -0.50444   0.00684   0.44289  -0.05106
  48        2S         -0.00913   0.00502  -0.00009  -0.00402   0.10765
  49        3S          0.02918  -0.02123   0.00028   0.01789   0.02331
  50        4S         -0.00027   0.00064  -0.00004   0.00012   0.01456
  51        5S          0.00022  -0.00010   0.00001   0.00035   0.00328
  52        6PX         0.00000   0.00000   0.00000   0.00000   0.00000
  53        6PY         0.00000   0.00000   0.00002  -0.00001  -0.00152
  54        6PZ        -0.00185   0.00116  -0.00002  -0.00108  -0.01521
  55        7PX         0.00000   0.00000   0.00000   0.00000   0.00000
  56        7PY        -0.00002  -0.00001   0.00087  -0.00007  -0.00114
  57        7PZ         0.00111  -0.00468   0.00007   0.00152  -0.01124
  58        8PX         0.00000   0.00000   0.00000   0.00000   0.00000
  59        8PY         0.00001  -0.00002  -0.00061  -0.00002   0.00075
  60        8PZ         0.00079  -0.00024   0.00007   0.00205   0.01483
  61        9PX         0.00000   0.00000   0.00000   0.00000   0.00000
  62        9PY         0.00000   0.00000   0.00029   0.00000  -0.00008
  63        9PZ         0.00004  -0.00038   0.00000  -0.00006  -0.00018
  64       10D 0        0.00028  -0.00050   0.00001   0.00038   0.00505
  65       10D+1        0.00000   0.00000   0.00000   0.00000   0.00000
  66       10D-1        0.00001   0.00000  -0.00017   0.00002   0.00042
  67       10D+2       -0.00040   0.00020   0.00000  -0.00041  -0.00849
  68       10D-2        0.00000   0.00000   0.00000   0.00000   0.00000
  69       11D 0       -0.00038  -0.00104   0.00001   0.00059   0.00647
  70       11D+1        0.00000   0.00000   0.00000   0.00000   0.00000
  71       11D-1        0.00000   0.00002  -0.00096   0.00004   0.00045
  72       11D+2        0.00090  -0.00129   0.00001   0.00019  -0.00982
  73       11D-2        0.00000   0.00000   0.00000   0.00000   0.00000
  74       12D 0        0.00009   0.00060   0.00001   0.00031   0.00039
  75       12D+1        0.00000   0.00000   0.00000   0.00000   0.00000
  76       12D-1       -0.00001   0.00001   0.00058  -0.00001  -0.00043
  77       12D+2        0.00005   0.00022   0.00001   0.00033   0.00349
  78       12D-2        0.00000   0.00000   0.00000   0.00000   0.00000
  79       13F 0        0.00069  -0.00031   0.00001   0.00061   0.00431
  80       13F+1        0.00000   0.00000   0.00000   0.00000   0.00000
  81       13F-1        0.00000   0.00000   0.00023  -0.00001  -0.00009
  82       13F+2        0.00032   0.00010   0.00001   0.00059   0.00558
  83       13F-2        0.00000   0.00000   0.00000   0.00000   0.00000
  84       13F+3        0.00000   0.00000   0.00000   0.00000   0.00000
  85       13F-3        0.00000   0.00000  -0.00021   0.00001   0.00005
  86       14F 0       -0.00117   0.00046   0.00001   0.00056   0.00359
  87       14F+1        0.00000   0.00000   0.00000   0.00000   0.00000
  88       14F-1        0.00000   0.00000   0.00086  -0.00002  -0.00029
  89       14F+2       -0.00098   0.00085   0.00000   0.00026   0.00490
  90       14F-2        0.00000   0.00000   0.00000   0.00000   0.00000
  91       14F+3        0.00000   0.00000   0.00000   0.00000   0.00000
  92       14F-3        0.00000   0.00000   0.00006   0.00000  -0.00006
  93 3   F  1S         -0.15792   0.30573  -0.68146   0.61255  -0.15072
  94        2S          0.00336  -0.00552   0.01096  -0.00924   0.38458
  95        3S         -0.00642   0.01295  -0.02936   0.02665   0.11731
  96        4S          0.00267  -0.00294   0.00059   0.00088   0.23944
  97        5S          0.00024  -0.00026  -0.00071   0.00068   0.01538
  98        6PX         0.00000   0.00000   0.00000   0.00000   0.00000
  99        6PY        -0.00110   0.00131  -0.00144   0.00095  -0.00695
 100        6PZ        -0.00089   0.00080  -0.00109   0.00060  -0.01970
 101        7PX         0.00000   0.00000   0.00000   0.00000   0.00000
 102        7PY        -0.00100   0.00063   0.00013  -0.00044  -0.00430
 103        7PZ        -0.00090   0.00021  -0.00013  -0.00050  -0.02160
 104        8PX         0.00000   0.00000   0.00000   0.00000   0.00000
 105        8PY        -0.00058   0.00031  -0.00083   0.00112  -0.01311
 106        8PZ        -0.00030  -0.00008  -0.00143   0.00061  -0.02298
 107        9PX         0.00000   0.00000   0.00000   0.00000   0.00000
 108        9PY        -0.00007  -0.00004  -0.00039   0.00009  -0.00082
 109        9PZ        -0.00004   0.00039  -0.00007   0.00025  -0.00078
 110       10D 0        0.00000  -0.00001   0.00000   0.00001  -0.00010
 111       10D+1        0.00000   0.00000   0.00000   0.00000   0.00000
 112       10D-1        0.00003  -0.00002  -0.00001   0.00004   0.00068
 113       10D+2        0.00001  -0.00001   0.00002  -0.00002  -0.00064
 114       10D-2        0.00000   0.00000   0.00000   0.00000   0.00000
 115       11D 0       -0.00006   0.00004  -0.00008  -0.00006  -0.00086
 116       11D+1        0.00000   0.00000   0.00000   0.00000   0.00000
 117       11D-1       -0.00036   0.00002   0.00023  -0.00046   0.00361
 118       11D+2        0.00011   0.00002  -0.00018   0.00020  -0.00333
 119       11D-2        0.00000   0.00000   0.00000   0.00000   0.00000
 120       12D 0       -0.00010   0.00000  -0.00023   0.00005   0.00008
 121       12D+1        0.00000   0.00000   0.00000   0.00000   0.00000
 122       12D-1       -0.00001  -0.00001  -0.00040   0.00019  -0.00274
 123       12D+2        0.00020  -0.00010   0.00021  -0.00024   0.00135
 124       12D-2        0.00000   0.00000   0.00000   0.00000   0.00000
 125       13F 0        0.00000  -0.00002   0.00000  -0.00001  -0.00034
 126       13F+1        0.00000   0.00000   0.00000   0.00000   0.00000
 127       13F-1       -0.00001  -0.00003   0.00000  -0.00002   0.00010
 128       13F+2        0.00001   0.00003  -0.00002   0.00003  -0.00046
 129       13F-2        0.00000   0.00000   0.00000   0.00000   0.00000
 130       13F+3        0.00000   0.00000   0.00000   0.00000   0.00000
 131       13F-3        0.00001   0.00000  -0.00006   0.00001  -0.00040
 132       14F 0        0.00014  -0.00001  -0.00002   0.00014  -0.00031
 133       14F+1        0.00000   0.00000   0.00000   0.00000   0.00000
 134       14F-1       -0.00019   0.00017  -0.00004  -0.00012   0.00004
 135       14F+2        0.00026  -0.00022   0.00000   0.00014  -0.00102
 136       14F-2        0.00000   0.00000   0.00000   0.00000   0.00000
 137       14F+3        0.00000   0.00000   0.00000   0.00000   0.00000
 138       14F-3        0.00005  -0.00004   0.00011   0.00003  -0.00053
 139 4   F  1S         -0.15653   0.30552   0.70259   0.58870  -0.14141
 140        2S          0.00333  -0.00550  -0.01129  -0.00888   0.36093
 141        3S         -0.00636   0.01294   0.03027   0.02561   0.11012
 142        4S          0.00267  -0.00290  -0.00051   0.00097   0.22447
 143        5S          0.00024  -0.00023   0.00077   0.00072   0.01325
 144        6PX         0.00000   0.00000   0.00000   0.00000   0.00000
 145        6PY         0.00108  -0.00129  -0.00146  -0.00089   0.00500
 146        6PZ        -0.00087   0.00078   0.00109   0.00055  -0.01902
 147        7PX         0.00000   0.00000   0.00000   0.00000   0.00000
 148        7PY         0.00098  -0.00062   0.00014   0.00042   0.00224
 149        7PZ        -0.00088   0.00020   0.00011  -0.00049  -0.02102
 150        8PX         0.00000   0.00000   0.00000   0.00000   0.00000
 151        8PY         0.00051  -0.00028  -0.00090  -0.00115   0.01089
 152        8PZ        -0.00027  -0.00009   0.00146   0.00058  -0.02255
 153        9PX         0.00000   0.00000   0.00000   0.00000   0.00000
 154        9PY         0.00007   0.00002  -0.00040  -0.00010   0.00098
 155        9PZ        -0.00003   0.00038   0.00009   0.00025  -0.00080
 156       10D 0        0.00000  -0.00001   0.00000   0.00001  -0.00011
 157       10D+1        0.00000   0.00000   0.00000   0.00000   0.00000
 158       10D-1       -0.00003   0.00002  -0.00001  -0.00004  -0.00062
 159       10D+2        0.00000  -0.00001  -0.00001  -0.00002  -0.00062
 160       10D-2        0.00000   0.00000   0.00000   0.00000   0.00000
 161       11D 0       -0.00005   0.00004   0.00007  -0.00005  -0.00093
 162       11D+1        0.00000   0.00000   0.00000   0.00000   0.00000
 163       11D-1        0.00035  -0.00002   0.00024   0.00044  -0.00326
 164       11D+2        0.00010   0.00003   0.00019   0.00019  -0.00315
 165       11D-2        0.00000   0.00000   0.00000   0.00000   0.00000
 166       12D 0       -0.00010   0.00000   0.00023   0.00004  -0.00009
 167       12D+1        0.00000   0.00000   0.00000   0.00000   0.00000
 168       12D-1        0.00000   0.00002  -0.00041  -0.00019   0.00272
 169       12D+2        0.00019  -0.00009  -0.00022  -0.00025   0.00118
 170       12D-2        0.00000   0.00000   0.00000   0.00000   0.00000
 171       13F 0        0.00000  -0.00002   0.00000  -0.00001  -0.00033
 172       13F+1        0.00000   0.00000   0.00000   0.00000   0.00000
 173       13F-1        0.00001   0.00003   0.00001   0.00002  -0.00008
 174       13F+2        0.00001   0.00003   0.00002   0.00003  -0.00043
 175       13F-2        0.00000   0.00000   0.00000   0.00000   0.00000
 176       13F+3        0.00000   0.00000   0.00000   0.00000   0.00000
 177       13F-3       -0.00001   0.00000  -0.00006  -0.00001   0.00039
 178       14F 0        0.00014  -0.00001   0.00003   0.00014  -0.00029
 179       14F+1        0.00000   0.00000   0.00000   0.00000   0.00000
 180       14F-1        0.00018  -0.00017  -0.00003   0.00012   0.00004
 181       14F+2        0.00026  -0.00021   0.00000   0.00014  -0.00094
 182       14F-2        0.00000   0.00000   0.00000   0.00000   0.00000
 183       14F+3        0.00000   0.00000   0.00000   0.00000   0.00000
 184       14F-3       -0.00005   0.00004   0.00011  -0.00003   0.00049
                           6         7         8         9        10
     Eigenvalues --     1.98559   1.98140   1.97338   1.97131   1.96822
   1 1   O  1S         -0.00059  -0.19120  -0.03799   0.00014   0.00000
   2        2S          0.00141   0.49207   0.10513  -0.00047   0.00000
   3        3S          0.00039   0.13814   0.03119  -0.00015   0.00000
   4        4S          0.00035   0.30621   0.08943  -0.00089   0.00000
   5        5S         -0.00041   0.03409  -0.00803  -0.00071   0.00000
   6        6PX         0.00000   0.00000   0.00000   0.00000  -0.00660
   7        6PY         0.02084  -0.00003   0.00006  -0.05049   0.00000
   8        6PZ        -0.00041   0.00047   0.02553  -0.00055   0.00000
   9        7PX         0.00000   0.00000   0.00000   0.00000  -0.00887
  10        7PY         0.02605  -0.00004   0.00019  -0.06867   0.00000
  11        7PZ        -0.00047  -0.00504   0.02605  -0.00064   0.00000
  12        8PX         0.00000   0.00000   0.00000   0.00000  -0.01707
  13        8PY         0.01669  -0.00016   0.00059  -0.06821   0.00000
  14        8PZ        -0.00004   0.04834   0.00434  -0.00049   0.00000
  15        9PX         0.00000   0.00000   0.00000   0.00000  -0.00886
  16        9PY        -0.00184   0.00001  -0.00003   0.00637   0.00000
  17        9PZ         0.00010   0.00291   0.00480   0.00011   0.00000
  18       10D 0        0.00003   0.00473  -0.00110   0.00002   0.00000
  19       10D+1        0.00000   0.00000   0.00000   0.00000  -0.00183
  20       10D-1       -0.00075   0.00000  -0.00003   0.00317   0.00000
  21       10D+2        0.00000  -0.00003   0.00048   0.00000   0.00000
  22       10D-2        0.00000   0.00000   0.00000   0.00000  -0.00007
  23       11D 0        0.00004   0.01176  -0.00037   0.00009   0.00000
  24       11D+1        0.00000   0.00000   0.00000   0.00000  -0.00220
  25       11D-1       -0.00192   0.00001  -0.00014   0.01375   0.00000
  26       11D+2       -0.00002   0.00008   0.00081   0.00000   0.00000
  27       11D-2        0.00000   0.00000   0.00000   0.00000  -0.00091
  28       12D 0       -0.00006  -0.01293   0.00775   0.00017   0.00000
  29       12D+1        0.00000   0.00000   0.00000   0.00000   0.00039
  30       12D-1       -0.00052   0.00008  -0.00022   0.01391   0.00000
  31       12D+2       -0.00006   0.00039   0.00070   0.00001   0.00000
  32       12D-2        0.00000   0.00000   0.00000   0.00000  -0.00247
  33       13F 0       -0.00001  -0.00277   0.00065  -0.00002   0.00000
  34       13F+1        0.00000   0.00000   0.00000   0.00000   0.00121
  35       13F-1        0.00076   0.00000   0.00002  -0.00262   0.00000
  36       13F+2        0.00001   0.00022  -0.00018   0.00000   0.00000
  37       13F-2        0.00000   0.00000   0.00000   0.00000   0.00011
  38       13F+3        0.00000   0.00000   0.00000   0.00000  -0.00021
  39       13F-3        0.00000   0.00000   0.00000  -0.00006   0.00000
  40       14F 0        0.00003  -0.00057  -0.00039  -0.00003   0.00000
  41       14F+1        0.00000   0.00000   0.00000   0.00000  -0.00172
  42       14F-1        0.00007   0.00000   0.00002  -0.00233   0.00000
  43       14F+2        0.00002  -0.00054   0.00097   0.00002   0.00000
  44       14F-2        0.00000   0.00000   0.00000   0.00000   0.00101
  45       14F+3        0.00000   0.00000   0.00000   0.00000   0.00112
  46       14F-3        0.00035   0.00000   0.00001  -0.00060   0.00000
  47 2   C  1S         -0.00115  -0.06834  -0.01044  -0.00077   0.00000
  48        2S          0.00257   0.15821   0.02403   0.00202   0.00000
  49        3S          0.00052   0.03832   0.00637   0.00053   0.00000
  50        4S          0.00035   0.02715  -0.01779   0.00017   0.00000
  51        5S          0.00007  -0.00235  -0.00002   0.00014   0.00000
  52        6PX         0.00000   0.00000   0.00000   0.00000   0.09848
  53        6PY         0.03707  -0.00018   0.00114  -0.07712   0.00000
  54        6PZ        -0.00016   0.08035  -0.05118  -0.00025   0.00000
  55        7PX         0.00000   0.00000   0.00000   0.00000   0.12414
  56        7PY         0.03125  -0.00055   0.00129  -0.09773   0.00000
  57        7PZ        -0.00040   0.05695  -0.08117  -0.00070   0.00000
  58        8PX         0.00000   0.00000   0.00000   0.00000   0.01655
  59        8PY        -0.02001   0.00013  -0.00073   0.07308   0.00000
  60        8PZ         0.00039  -0.03084   0.02720   0.00077   0.00000
  61        9PX         0.00000   0.00000   0.00000   0.00000   0.00202
  62        9PY         0.00175  -0.00002   0.00003  -0.00460   0.00000
  63        9PZ        -0.00001  -0.00017   0.00210   0.00003   0.00000
  64       10D 0        0.00011   0.01245   0.01987  -0.00004   0.00000
  65       10D+1        0.00000   0.00000   0.00000   0.00000  -0.01371
  66       10D-1       -0.00880   0.00002   0.00005  -0.00998   0.00000
  67       10D+2       -0.00021  -0.00249   0.01030  -0.00010   0.00000
  68       10D-2        0.00000   0.00000   0.00000   0.00000  -0.00664
  69       11D 0        0.00007   0.00233   0.03734   0.00023   0.00000
  70       11D+1        0.00000   0.00000   0.00000   0.00000  -0.02304
  71       11D-1       -0.01046   0.00023  -0.00027   0.00672   0.00000
  72       11D+2       -0.00034  -0.00743   0.02156  -0.00003   0.00000
  73       11D-2        0.00000   0.00000   0.00000   0.00000  -0.01083
  74       12D 0        0.00009  -0.01216  -0.00362   0.00018   0.00000
  75       12D+1        0.00000   0.00000   0.00000   0.00000   0.00027
  76       12D-1        0.01019  -0.00007  -0.00002  -0.01191   0.00000
  77       12D+2        0.00011  -0.00303   0.00112   0.00002   0.00000
  78       12D-2        0.00000   0.00000   0.00000   0.00000   0.00127
  79       13F 0        0.00011   0.00620  -0.00581   0.00005   0.00000
  80       13F+1        0.00000   0.00000   0.00000   0.00000   0.00421
  81       13F-1        0.00194  -0.00003  -0.00012   0.01093   0.00000
  82       13F+2        0.00016   0.00259   0.00023   0.00008   0.00000
  83       13F-2        0.00000   0.00000   0.00000   0.00000   0.00324
  84       13F+3        0.00000   0.00000   0.00000   0.00000  -0.00733
  85       13F-3       -0.00209   0.00001  -0.00006   0.00532   0.00000
  86       14F 0        0.00015  -0.00244  -0.00685   0.00007   0.00000
  87       14F+1        0.00000   0.00000   0.00000   0.00000  -0.00085
  88       14F-1        0.00542   0.00001  -0.00048   0.01673   0.00000
  89       14F+2        0.00016   0.00045  -0.00649   0.00000   0.00000
  90       14F-2        0.00000   0.00000   0.00000   0.00000   0.00505
  91       14F+3        0.00000   0.00000   0.00000   0.00000  -0.00131
  92       14F-3        0.00086  -0.00001  -0.00009  -0.00085   0.00000
  93 3   F  1S          0.14480   0.01945   0.01575   0.01683   0.00000
  94        2S         -0.37012  -0.04972  -0.04219  -0.04558   0.00000
  95        3S         -0.11337  -0.01564  -0.01419  -0.01562   0.00000
  96        4S         -0.24392  -0.05389  -0.03288  -0.05065   0.00000
  97        5S         -0.03129  -0.02245   0.00946   0.04840   0.00000
  98        6PX         0.00000   0.00000   0.00000   0.00000   0.32650
  99        6PY         0.03779  -0.00239   0.16681  -0.12786   0.00000
 100        6PZ         0.00853   0.04619  -0.19827   0.23255   0.00000
 101        7PX         0.00000   0.00000   0.00000   0.00000   0.39832
 102        7PY         0.04153  -0.00536   0.20220  -0.15545   0.00000
 103        7PZ         0.00689   0.05424  -0.24038   0.28098   0.00000
 104        8PX         0.00000   0.00000   0.00000   0.00000   0.27272
 105        8PY         0.03499  -0.01314   0.12669  -0.13155   0.00000
 106        8PZ         0.00385   0.02826  -0.16750   0.18509   0.00000
 107        9PX         0.00000   0.00000   0.00000   0.00000   0.02285
 108        9PY        -0.00139  -0.00321   0.01328   0.00065   0.00000
 109        9PZ        -0.00042  -0.00368  -0.01420   0.02605   0.00000
 110       10D 0       -0.00016   0.00059  -0.00266   0.00236   0.00000
 111       10D+1        0.00000   0.00000   0.00000   0.00000   0.00236
 112       10D-1       -0.00040   0.00079  -0.00066   0.00166   0.00000
 113       10D+2        0.00007  -0.00004  -0.00220   0.00055   0.00000
 114       10D-2        0.00000   0.00000   0.00000   0.00000   0.00360
 115       11D 0       -0.00104   0.00172  -0.00999   0.00859   0.00000
 116       11D+1        0.00000   0.00000   0.00000   0.00000   0.00992
 117       11D-1       -0.00391   0.00016  -0.00259   0.00615   0.00000
 118       11D+2        0.00182   0.00124  -0.00742   0.00183   0.00000
 119       11D-2        0.00000   0.00000   0.00000   0.00000   0.01482
 120       12D 0       -0.00188   0.00019  -0.00482   0.00738   0.00000
 121       12D+1        0.00000   0.00000   0.00000   0.00000   0.00520
 122       12D-1       -0.00023  -0.00216  -0.00407  -0.00224   0.00000
 123       12D+2       -0.00148   0.00186   0.00082   0.00988   0.00000
 124       12D-2        0.00000   0.00000   0.00000   0.00000   0.00892
 125       13F 0        0.00010   0.00005  -0.00066   0.00042   0.00000
 126       13F+1        0.00000   0.00000   0.00000   0.00000   0.00033
 127       13F-1       -0.00028   0.00047  -0.00176   0.00182   0.00000
 128       13F+2        0.00030  -0.00012  -0.00039  -0.00029   0.00000
 129       13F-2        0.00000   0.00000   0.00000   0.00000   0.00205
 130       13F+3        0.00000   0.00000   0.00000   0.00000  -0.00178
 131       13F-3        0.00000   0.00009  -0.00107   0.00022   0.00000
 132       14F 0        0.00038   0.00074  -0.00183   0.00028   0.00000
 133       14F+1        0.00000   0.00000   0.00000   0.00000   0.00045
 134       14F-1       -0.00097   0.00008  -0.00274   0.00304   0.00000
 135       14F+2        0.00098   0.00058  -0.00039  -0.00082   0.00000
 136       14F-2        0.00000   0.00000   0.00000   0.00000   0.00367
 137       14F+3        0.00000   0.00000   0.00000   0.00000  -0.00262
 138       14F-3        0.00064   0.00031  -0.00068   0.00087   0.00000
 139 4   F  1S         -0.15385   0.01933   0.01616  -0.01654   0.00000
 140        2S          0.39330  -0.04934  -0.04330   0.04462   0.00000
 141        3S          0.12049  -0.01553  -0.01456   0.01526   0.00000
 142        4S          0.25870  -0.05280  -0.03361   0.04883   0.00000
 143        5S          0.03215  -0.02225   0.01012  -0.04764   0.00000
 144        6PX         0.00000   0.00000   0.00000   0.00000   0.14843
 145        6PY         0.03813   0.00228  -0.16321  -0.13171   0.00000
 146        6PZ        -0.00974   0.04563  -0.19488  -0.23538   0.00000
 147        7PX         0.00000   0.00000   0.00000   0.00000   0.18148
 148        7PY         0.04172   0.00512  -0.19780  -0.16005   0.00000
 149        7PZ        -0.00831   0.05365  -0.23620  -0.28436   0.00000
 150        8PX         0.00000   0.00000   0.00000   0.00000   0.12460
 151        8PY         0.03555   0.01253  -0.12436  -0.13436   0.00000
 152        8PZ        -0.00527   0.02828  -0.16570  -0.18866   0.00000
 153        9PX         0.00000   0.00000   0.00000   0.00000   0.00710
 154        9PY        -0.00132   0.00322  -0.01336   0.00026   0.00000
 155        9PZ         0.00038  -0.00357  -0.01403  -0.02632   0.00000
 156       10D 0        0.00015   0.00057  -0.00256  -0.00234   0.00000
 157       10D+1        0.00000   0.00000   0.00000   0.00000   0.00117
 158       10D-1       -0.00041  -0.00078   0.00065   0.00162   0.00000
 159       10D+2       -0.00010  -0.00004  -0.00215  -0.00059   0.00000
 160       10D-2        0.00000   0.00000   0.00000   0.00000  -0.00213
 161       11D 0        0.00093   0.00166  -0.00968  -0.00856   0.00000
 162       11D+1        0.00000   0.00000   0.00000   0.00000   0.00521
 163       11D-1       -0.00404  -0.00017   0.00255   0.00605   0.00000
 164       11D+2       -0.00200   0.00122  -0.00729  -0.00198   0.00000
 165       11D-2        0.00000   0.00000   0.00000   0.00000  -0.00858
 166       12D 0        0.00185   0.00018  -0.00499  -0.00756   0.00000
 167       12D+1        0.00000   0.00000   0.00000   0.00000   0.00236
 168       12D-1       -0.00008   0.00201   0.00422  -0.00198   0.00000
 169       12D+2        0.00154   0.00174   0.00076  -0.00996   0.00000
 170       12D-2        0.00000   0.00000   0.00000   0.00000  -0.00626
 171       13F 0       -0.00012   0.00005  -0.00062  -0.00041   0.00000
 172       13F+1        0.00000   0.00000   0.00000   0.00000   0.00021
 173       13F-1       -0.00027  -0.00045   0.00170   0.00181   0.00000
 174       13F+2       -0.00032  -0.00012  -0.00037   0.00028   0.00000
 175       13F-2        0.00000   0.00000   0.00000   0.00000  -0.00105
 176       13F+3        0.00000   0.00000   0.00000   0.00000  -0.00117
 177       13F-3        0.00003  -0.00008   0.00105   0.00024   0.00000
 178       14F 0       -0.00041   0.00071  -0.00181  -0.00029   0.00000
 179       14F+1        0.00000   0.00000   0.00000   0.00000  -0.00017
 180       14F-1       -0.00096  -0.00006   0.00274   0.00307   0.00000
 181       14F+2       -0.00105   0.00058  -0.00038   0.00081   0.00000
 182       14F-2        0.00000   0.00000   0.00000   0.00000  -0.00204
 183       14F+3        0.00000   0.00000   0.00000   0.00000  -0.00119
 184       14F-3        0.00068  -0.00031   0.00068   0.00091   0.00000
                          11        12        13        14        15
     Eigenvalues --     1.96813   1.96661   1.96283   1.96111   1.95606
   1 1   O  1S          0.00000   0.05025   0.00128   0.00053  -0.00043
   2        2S          0.00000  -0.15175  -0.00480  -0.02318   0.00078
   3        3S          0.00000  -0.04666  -0.00165  -0.01095   0.00017
   4        4S          0.00000  -0.21395  -0.01072  -0.12931  -0.00159
   5        5S          0.00000  -0.04633  -0.00310  -0.04351  -0.00095
   6        6PX         0.00241   0.00000   0.00000   0.00000   0.00000
   7        6PY         0.00000  -0.00358   0.23609  -0.01628   0.25323
   8        6PZ         0.00000  -0.16912  -0.01507  -0.25874  -0.00495
   9        7PX         0.00321   0.00000   0.00000   0.00000   0.00000
  10        7PY         0.00000  -0.00430   0.28824  -0.01991   0.31161
  11        7PZ         0.00000  -0.19615  -0.01799  -0.31083  -0.00587
  12        8PX         0.00582   0.00000   0.00000   0.00000   0.00000
  13        8PY         0.00000  -0.00279   0.19057  -0.01319   0.21348
  14        8PZ         0.00000  -0.08287  -0.00860  -0.15080  -0.00270
  15        9PX         0.00292   0.00000   0.00000   0.00000   0.00000
  16        9PY         0.00000  -0.00057   0.02615  -0.00174   0.02879
  17        9PZ         0.00000   0.00327   0.00001  -0.00434  -0.00012
  18       10D 0        0.00000   0.00751   0.00070   0.01190   0.00022
  19       10D+1        0.00061   0.00000   0.00000   0.00000   0.00000
  20       10D-1        0.00000   0.00013  -0.00769   0.00045  -0.00482
  21       10D+2        0.00000   0.00009   0.00001   0.00022   0.00001
  22       10D-2       -0.00021   0.00000   0.00000   0.00000   0.00000
  23       11D 0        0.00000   0.01286   0.00158   0.02903   0.00053
  24       11D+1        0.00073   0.00000   0.00000   0.00000   0.00000
  25       11D-1        0.00000   0.00029  -0.01887   0.00109  -0.01194
  26       11D+2        0.00000  -0.00006   0.00006   0.00115   0.00004
  27       11D-2       -0.00262   0.00000   0.00000   0.00000   0.00000
  28       12D 0        0.00000  -0.00047   0.00028   0.00466   0.00004
  29       12D+1       -0.00012   0.00000   0.00000   0.00000   0.00000
  30       12D-1        0.00000   0.00017  -0.00870   0.00039  -0.00150
  31       12D+2        0.00000  -0.00060   0.00010   0.00299   0.00014
  32       12D-2       -0.00694   0.00000   0.00000   0.00000   0.00000
  33       13F 0        0.00000  -0.00259  -0.00027  -0.00474  -0.00008
  34       13F+1       -0.00040   0.00000   0.00000   0.00000   0.00000
  35       13F-1        0.00000  -0.00007   0.00421  -0.00023   0.00214
  36       13F+2        0.00000  -0.00029  -0.00004  -0.00069  -0.00001
  37       13F-2        0.00034   0.00000   0.00000   0.00000   0.00000
  38       13F+3        0.00007   0.00000   0.00000   0.00000   0.00000
  39       13F-3        0.00000  -0.00001   0.00066  -0.00005   0.00093
  40       14F 0        0.00000  -0.00099  -0.00030  -0.00664  -0.00015
  41       14F+1        0.00059   0.00000   0.00000   0.00000   0.00000
  42       14F-1        0.00000  -0.00008   0.00389  -0.00021   0.00248
  43       14F+2        0.00000  -0.00011  -0.00004  -0.00082  -0.00002
  44       14F-2        0.00287   0.00000   0.00000   0.00000   0.00000
  45       14F+3       -0.00037   0.00000   0.00000   0.00000   0.00000
  46       14F-3        0.00000  -0.00001   0.00081  -0.00002  -0.00080
  47 2   C  1S          0.00000  -0.14359  -0.00443  -0.01828   0.00047
  48        2S          0.00000   0.39482   0.01255   0.05308  -0.00142
  49        3S          0.00000   0.10219   0.00323   0.01488  -0.00017
  50        4S          0.00000   0.15857   0.00322  -0.02296  -0.00225
  51        5S          0.00000   0.00632   0.00039   0.00748   0.00020
  52        6PX        -0.03259   0.00000   0.00000   0.00000   0.00000
  53        6PY         0.00000  -0.00481   0.17909  -0.00545  -0.07341
  54        6PZ         0.00000  -0.00664   0.00973   0.22914   0.00506
  55        7PX        -0.04124   0.00000   0.00000   0.00000   0.00000
  56        7PY         0.00000  -0.00557   0.21552  -0.00739  -0.08274
  57        7PZ         0.00000  -0.02287   0.00905   0.22852   0.00589
  58        8PX        -0.00553   0.00000   0.00000   0.00000   0.00000
  59        8PY         0.00000  -0.00177   0.05393  -0.00226  -0.01485
  60        8PZ         0.00000  -0.00248   0.00133   0.02822   0.00086
  61        9PX        -0.00061   0.00000   0.00000   0.00000   0.00000
  62        9PY         0.00000   0.00014  -0.00233   0.00010  -0.00292
  63        9PZ         0.00000  -0.00007  -0.00004   0.00069   0.00007
  64       10D 0        0.00000   0.00828   0.00084   0.01836   0.00051
  65       10D+1        0.00451   0.00000   0.00000   0.00000   0.00000
  66       10D-1        0.00000   0.00047   0.00162  -0.00123   0.04347
  67       10D+2        0.00000  -0.00848   0.00024   0.01167   0.00038
  68       10D-2       -0.01899   0.00000   0.00000   0.00000   0.00000
  69       11D 0        0.00000   0.00351   0.00023   0.01685   0.00062
  70       11D+1        0.00760   0.00000   0.00000   0.00000   0.00000
  71       11D-1        0.00000   0.00134  -0.02107  -0.00116   0.08716
  72       11D+2        0.00000  -0.02147   0.00021   0.02408   0.00092
  73       11D-2       -0.03097   0.00000   0.00000   0.00000   0.00000
  74       12D 0        0.00000   0.00132   0.00004  -0.00056  -0.00006
  75       12D+1        0.00003   0.00000   0.00000   0.00000   0.00000
  76       12D-1        0.00000   0.00045  -0.00880   0.00007   0.01302
  77       12D+2        0.00000   0.00364   0.00026   0.00235   0.00006
  78       12D-2        0.00352   0.00000   0.00000   0.00000   0.00000
  79       13F 0        0.00000   0.00790   0.00043   0.00483   0.00011
  80       13F+1       -0.00138   0.00000   0.00000   0.00000   0.00000
  81       13F-1        0.00000  -0.00043   0.01425  -0.00073   0.00431
  82       13F+2        0.00000   0.00599   0.00013  -0.00107  -0.00007
  83       13F-2        0.00931   0.00000   0.00000   0.00000   0.00000
  84       13F+3        0.00250   0.00000   0.00000   0.00000   0.00000
  85       13F-3        0.00000  -0.00003   0.00035  -0.00008   0.00308
  86       14F 0        0.00000   0.00353  -0.00028  -0.01487  -0.00052
  87       14F+1        0.00037   0.00000   0.00000   0.00000   0.00000
  88       14F-1        0.00000  -0.00075   0.03002  -0.00168   0.01080
  89       14F+2        0.00000   0.00894  -0.00015  -0.01273  -0.00046
  90       14F-2        0.01410   0.00000   0.00000   0.00000   0.00000
  91       14F+3        0.00036   0.00000   0.00000   0.00000   0.00000
  92       14F-3        0.00000  -0.00002   0.00336  -0.00040   0.00912
  93 3   F  1S          0.00000   0.02051  -0.00425   0.00558  -0.02162
  94        2S          0.00000  -0.06348   0.02002  -0.00806   0.05273
  95        3S          0.00000  -0.02306   0.00924   0.00041   0.01369
  96        4S          0.00000  -0.12580   0.08881   0.03906  -0.01227
  97        5S          0.00000  -0.02544   0.03641   0.01319  -0.02560
  98        6PX         0.17954   0.00000   0.00000   0.00000   0.00000
  99        6PY         0.00000   0.13152  -0.17234  -0.07923   0.15473
 100        6PZ         0.00000   0.09661  -0.00853  -0.13211   0.11650
 101        7PX         0.21829   0.00000   0.00000   0.00000   0.00000
 102        7PY         0.00000   0.15664  -0.20673  -0.09883   0.19049
 103        7PZ         0.00000   0.11434  -0.00944  -0.16229   0.14302
 104        8PX         0.15026   0.00000   0.00000   0.00000   0.00000
 105        8PY         0.00000   0.07056  -0.10628  -0.04954   0.11591
 106        8PZ         0.00000   0.05098   0.00772  -0.10265   0.07896
 107        9PX         0.01824   0.00000   0.00000   0.00000   0.00000
 108        9PY         0.00000  -0.00280  -0.00487   0.00256   0.00660
 109        9PZ         0.00000   0.00034   0.01224  -0.00863   0.00760
 110       10D 0        0.00000  -0.00001  -0.00005   0.00035  -0.00004
 111       10D+1        0.00107   0.00000   0.00000   0.00000   0.00000
 112       10D-1        0.00000   0.00392  -0.00315  -0.00260   0.00336
 113       10D+2        0.00000  -0.00262   0.00218   0.00215  -0.00200
 114       10D-2        0.00112   0.00000   0.00000   0.00000   0.00000
 115       11D 0        0.00000  -0.00036  -0.00228   0.00168  -0.00143
 116       11D+1        0.00413   0.00000   0.00000   0.00000   0.00000
 117       11D-1        0.00000   0.01100  -0.01152  -0.01151   0.01151
 118       11D+2        0.00000  -0.00792   0.00676   0.00846  -0.00770
 119       11D-2        0.00500   0.00000   0.00000   0.00000   0.00000
 120       12D 0        0.00000  -0.00121  -0.00761  -0.00050  -0.00393
 121       12D+1        0.00298   0.00000   0.00000   0.00000   0.00000
 122       12D-1        0.00000   0.00201  -0.00261  -0.00307   0.00237
 123       12D+2        0.00000  -0.00097  -0.00087   0.00502  -0.00509
 124       12D-2        0.00168   0.00000   0.00000   0.00000   0.00000
 125       13F 0        0.00000  -0.00102   0.00089   0.00090  -0.00094
 126       13F+1        0.00007   0.00000   0.00000   0.00000   0.00000
 127       13F-1        0.00000   0.00073  -0.00051  -0.00064   0.00081
 128       13F+2        0.00000  -0.00157   0.00160   0.00148  -0.00155
 129       13F-2        0.00089   0.00000   0.00000   0.00000   0.00000
 130       13F+3       -0.00036   0.00000   0.00000   0.00000   0.00000
 131       13F-3        0.00000  -0.00085   0.00071   0.00091  -0.00064
 132       14F 0        0.00000  -0.00085   0.00019   0.00218  -0.00200
 133       14F+1        0.00084   0.00000   0.00000   0.00000   0.00000
 134       14F-1        0.00000   0.00074  -0.00332  -0.00034   0.00042
 135       14F+2        0.00000  -0.00254   0.00267   0.00305  -0.00251
 136       14F-2        0.00144   0.00000   0.00000   0.00000   0.00000
 137       14F+3       -0.00151   0.00000   0.00000   0.00000   0.00000
 138       14F-3        0.00000  -0.00156   0.00148   0.00160  -0.00178
 139 4   F  1S          0.00000   0.02069   0.00582   0.00411   0.02160
 140        2S          0.00000  -0.06321  -0.02388  -0.00374  -0.05213
 141        3S          0.00000  -0.02276  -0.01035   0.00181  -0.01330
 142        4S          0.00000  -0.11952  -0.09077   0.04533   0.01552
 143        5S          0.00000  -0.02206  -0.03596   0.01512   0.02661
 144        6PX        -0.34205   0.00000   0.00000   0.00000   0.00000
 145        6PY         0.00000  -0.11811  -0.17181   0.08606   0.16189
 146        6PZ         0.00000   0.09576   0.00177  -0.12593  -0.12454
 147        7PX        -0.41654   0.00000   0.00000   0.00000   0.00000
 148        7PY         0.00000  -0.14053  -0.20577   0.10668   0.19927
 149        7PZ         0.00000   0.11344   0.00096  -0.15451  -0.15285
 150        8PX        -0.28726   0.00000   0.00000   0.00000   0.00000
 151        8PY         0.00000  -0.06201  -0.10606   0.05287   0.12090
 152        8PZ         0.00000   0.05219  -0.01412  -0.09780  -0.08548
 153        9PX        -0.02889   0.00000   0.00000   0.00000   0.00000
 154        9PY         0.00000   0.00288  -0.00494  -0.00227   0.00655
 155        9PZ         0.00000   0.00121  -0.01275  -0.00722  -0.00827
 156       10D 0        0.00000  -0.00001   0.00004   0.00035   0.00009
 157       10D+1       -0.00223   0.00000   0.00000   0.00000   0.00000
 158       10D-1        0.00000  -0.00365  -0.00307   0.00263   0.00350
 159       10D+2        0.00000  -0.00244  -0.00213   0.00218   0.00214
 160       10D-2        0.00303   0.00000   0.00000   0.00000   0.00000
 161       11D 0        0.00000  -0.00042   0.00221   0.00143   0.00158
 162       11D+1       -0.00912   0.00000   0.00000   0.00000   0.00000
 163       11D-1        0.00000  -0.01011  -0.01093   0.01165   0.01215
 164       11D+2        0.00000  -0.00734  -0.00644   0.00852   0.00826
 165       11D-2        0.01288   0.00000   0.00000   0.00000   0.00000
 166       12D 0        0.00000  -0.00142   0.00726  -0.00148   0.00390
 167       12D+1       -0.00566   0.00000   0.00000   0.00000   0.00000
 168       12D-1        0.00000  -0.00190  -0.00244   0.00320   0.00253
 169       12D+2        0.00000  -0.00087   0.00110   0.00456   0.00543
 170       12D-2        0.00712   0.00000   0.00000   0.00000   0.00000
 171       13F 0        0.00000  -0.00094  -0.00088   0.00092   0.00101
 172       13F+1       -0.00024   0.00000   0.00000   0.00000   0.00000
 173       13F-1        0.00000  -0.00068  -0.00046   0.00062   0.00083
 174       13F+2        0.00000  -0.00144  -0.00154   0.00151   0.00165
 175       13F-2        0.00191   0.00000   0.00000   0.00000   0.00000
 176       13F+3        0.00135   0.00000   0.00000   0.00000   0.00000
 177       13F-3        0.00000   0.00079   0.00068  -0.00092  -0.00072
 178       14F 0        0.00000  -0.00082  -0.00009   0.00205   0.00210
 179       14F+1       -0.00091   0.00000   0.00000   0.00000   0.00000
 180       14F-1        0.00000  -0.00056  -0.00327   0.00059   0.00042
 181       14F+2        0.00000  -0.00235  -0.00255   0.00312   0.00270
 182       14F-2        0.00340   0.00000   0.00000   0.00000   0.00000
 183       14F+3        0.00286   0.00000   0.00000   0.00000   0.00000
 184       14F-3        0.00000   0.00145   0.00142  -0.00166  -0.00190
                          16        17        18        19        20
     Eigenvalues --     1.93978   0.05907   0.03840   0.03627   0.02450
   1 1   O  1S          0.00000   0.00000  -0.03322   0.00472   0.07173
   2        2S          0.00000   0.00000   0.13668  -0.01934  -0.27743
   3        3S          0.00000   0.00000   0.04944  -0.00711  -0.11623
   4        4S          0.00000   0.00000   0.17370  -0.02519  -0.49721
   5        5S          0.00000   0.00000   0.08229  -0.01082  -0.19962
   6        6PX         0.30104  -0.35162   0.00000   0.00000   0.00000
   7        6PY         0.00000   0.00000   0.04311   0.34015  -0.00246
   8        6PZ         0.00000   0.00000  -0.18730   0.02669   0.34793
   9        7PX         0.37577  -0.39437   0.00000   0.00000   0.00000
  10        7PY         0.00000   0.00000   0.03961   0.30779  -0.00233
  11        7PZ         0.00000   0.00000  -0.21459   0.03032   0.43193
  12        8PX         0.23965  -0.06958   0.00000   0.00000   0.00000
  13        8PY         0.00000   0.00000  -0.00566  -0.05191   0.00006
  14        8PZ         0.00000   0.00000   0.03260  -0.00426   0.16027
  15        9PX         0.01502  -0.00764   0.00000   0.00000   0.00000
  16        9PY         0.00000   0.00000  -0.00351  -0.03160   0.00014
  17        9PZ         0.00000   0.00000  -0.00543   0.00026   0.01968
  18       10D 0        0.00000   0.00000  -0.00303   0.00058   0.03086
  19       10D+1       -0.01118  -0.01638   0.00000   0.00000   0.00000
  20       10D-1        0.00000   0.00000   0.00338   0.02772  -0.00024
  21       10D+2        0.00000   0.00000  -0.00356   0.00050   0.00122
  22       10D-2        0.00000   0.00002   0.00000   0.00000   0.00000
  23       11D 0        0.00000   0.00000   0.00364  -0.00005   0.02464
  24       11D+1       -0.02918  -0.01832   0.00000   0.00000   0.00000
  25       11D-1        0.00000   0.00000   0.00641   0.05113  -0.00020
  26       11D+2        0.00000   0.00000  -0.00276   0.00050   0.00045
  27       11D-2       -0.00001  -0.00001   0.00000   0.00000   0.00000
  28       12D 0        0.00000   0.00000  -0.03357   0.00460  -0.02957
  29       12D+1       -0.00930   0.01929   0.00000   0.00000   0.00000
  30       12D-1        0.00000   0.00000   0.00085   0.00469   0.00017
  31       12D+2        0.00000   0.00000   0.00507  -0.00045   0.00139
  32       12D-2       -0.00002  -0.00015   0.00000   0.00000   0.00000
  33       13F 0        0.00000   0.00000  -0.00315   0.00040  -0.00190
  34       13F+1        0.00585   0.00448   0.00000   0.00000   0.00000
  35       13F-1        0.00000   0.00000  -0.00088  -0.00701   0.00000
  36       13F+2        0.00000   0.00000  -0.00172   0.00024   0.00151
  37       13F-2        0.00000   0.00000   0.00000   0.00000   0.00000
  38       13F+3        0.00100  -0.00261   0.00000   0.00000   0.00000
  39       13F-3        0.00000   0.00000   0.00024   0.00178   0.00000
  40       14F 0        0.00000   0.00000   0.00017  -0.00023  -0.00849
  41       14F+1        0.00366  -0.00394   0.00000   0.00000   0.00000
  42       14F-1        0.00000   0.00000  -0.00065  -0.00471   0.00002
  43       14F+2        0.00000   0.00000  -0.00255   0.00026  -0.00275
  44       14F-2        0.00001   0.00008   0.00000   0.00000   0.00000
  45       14F+3        0.00059  -0.00167   0.00000   0.00000   0.00000
  46       14F-3        0.00000   0.00000   0.00022   0.00193  -0.00007
  47 2   C  1S          0.00000   0.00000   0.17560  -0.02336  -0.06251
  48        2S          0.00000   0.00000  -0.60432   0.08174   0.26884
  49        3S          0.00000   0.00000  -0.18376   0.02501   0.12388
  50        4S          0.00000   0.00000  -0.45506   0.06310   0.20035
  51        5S          0.00000   0.00000  -0.03895   0.00549   0.04135
  52        6PX         0.18357   0.32844   0.00000   0.00000   0.00000
  53        6PY         0.00000   0.00000  -0.04479  -0.34212   0.00130
  54        6PZ         0.00000   0.00000   0.12043  -0.01364   0.34634
  55        7PX         0.23394   0.46528   0.00000   0.00000   0.00000
  56        7PY         0.00000   0.00000  -0.07574  -0.59484   0.00405
  57        7PZ         0.00000   0.00000   0.20243  -0.02548   0.67436
  58        8PX         0.08707   0.13956   0.00000   0.00000   0.00000
  59        8PY         0.00000   0.00000  -0.01551  -0.13286   0.00074
  60        8PZ         0.00000   0.00000  -0.03411   0.00339   0.13866
  61        9PX         0.00841   0.00745   0.00000   0.00000   0.00000
  62        9PY         0.00000   0.00000  -0.00072  -0.00356   0.00003
  63        9PZ         0.00000   0.00000   0.00301  -0.00019   0.00739
  64       10D 0        0.00000   0.00000   0.00444  -0.00075  -0.03213
  65       10D+1        0.02589   0.00947   0.00000   0.00000   0.00000
  66       10D-1        0.00000   0.00000  -0.00239  -0.02103   0.00024
  67       10D+2        0.00000   0.00000  -0.00063   0.00002  -0.00289
  68       10D-2        0.00004   0.00001   0.00000   0.00000   0.00000
  69       11D 0        0.00000   0.00000  -0.02106   0.00497   0.03010
  70       11D+1        0.04501   0.06080   0.00000   0.00000   0.00000
  71       11D-1        0.00000   0.00000   0.00987   0.07146  -0.00022
  72       11D+2        0.00000   0.00000   0.06291  -0.00746   0.03008
  73       11D-2        0.00006  -0.00016   0.00000   0.00000   0.00000
  74       12D 0        0.00000   0.00000  -0.04020   0.00565   0.04517
  75       12D+1        0.00504   0.02197   0.00000   0.00000   0.00000
  76       12D-1        0.00000   0.00000  -0.00200  -0.01167   0.00050
  77       12D+2        0.00000   0.00000   0.00508  -0.00090   0.01077
  78       12D-2       -0.00007   0.00000   0.00000   0.00000   0.00000
  79       13F 0        0.00000   0.00000  -0.00487   0.00052   0.01171
  80       13F+1        0.00770   0.01598   0.00000   0.00000   0.00000
  81       13F-1        0.00000   0.00000  -0.00313  -0.02631   0.00047
  82       13F+2        0.00000   0.00000  -0.02804   0.00369  -0.01282
  83       13F-2       -0.00001   0.00012   0.00000   0.00000   0.00000
  84       13F+3        0.00060  -0.00455   0.00000   0.00000   0.00000
  85       13F-3        0.00000   0.00000   0.00156   0.01185  -0.00002
  86       14F 0        0.00000   0.00000  -0.04456   0.00525   0.00332
  87       14F+1        0.00762   0.02673   0.00000   0.00000   0.00000
  88       14F-1        0.00000   0.00000  -0.01831  -0.14720   0.00220
  89       14F+2        0.00000   0.00000  -0.03813   0.00455  -0.00648
  90       14F-2       -0.00004   0.00032   0.00000   0.00000   0.00000
  91       14F+3        0.00401   0.00757   0.00000   0.00000   0.00000
  92       14F-3        0.00000   0.00000  -0.00412  -0.03241   0.00067
  93 3   F  1S          0.00000   0.00000  -0.04634   0.05181  -0.01846
  94        2S          0.00000   0.00000   0.14519  -0.15269   0.04398
  95        3S          0.00000   0.00000   0.06504  -0.07534   0.02838
  96        4S          0.00000   0.00000   0.18891  -0.27580   0.11018
  97        5S          0.00000   0.00000   0.04375  -0.08411   0.05617
  98        6PX        -0.05794  -0.18556   0.00000   0.00000   0.00000
  99        6PY         0.00000   0.00000   0.26610  -0.13973   0.21254
 100        6PZ         0.00000   0.00000   0.11590  -0.24060  -0.17633
 101        7PX        -0.07005  -0.15263   0.00000   0.00000   0.00000
 102        7PY         0.00000   0.00000   0.25117  -0.17061   0.13644
 103        7PZ         0.00000   0.00000   0.13264  -0.21027  -0.06725
 104        8PX        -0.06378   0.02633   0.00000   0.00000   0.00000
 105        8PY         0.00000   0.00000  -0.02530  -0.19133  -0.07511
 106        8PZ         0.00000   0.00000   0.05099   0.08898   0.21809
 107        9PX        -0.01941  -0.00303   0.00000   0.00000   0.00000
 108        9PY         0.00000   0.00000   0.00298  -0.01196  -0.01286
 109        9PZ         0.00000   0.00000  -0.00927  -0.00975   0.03715
 110       10D 0        0.00000   0.00000   0.00297   0.00517   0.01250
 111       10D+1        0.00084   0.00408   0.00000   0.00000   0.00000
 112       10D-1        0.00000   0.00000  -0.00909   0.01271   0.00081
 113       10D+2        0.00000   0.00000   0.00812  -0.00540   0.01261
 114       10D-2        0.00078   0.00560   0.00000   0.00000   0.00000
 115       11D 0        0.00000   0.00000   0.01195   0.02620   0.03857
 116       11D+1        0.00261   0.01545   0.00000   0.00000   0.00000
 117       11D-1        0.00000   0.00000  -0.00927   0.02140   0.01292
 118       11D+2        0.00000   0.00000   0.01348   0.00040   0.03071
 119       11D-2        0.00201   0.01954   0.00000   0.00000   0.00000
 120       12D 0        0.00000   0.00000   0.01508   0.06390   0.02204
 121       12D+1        0.00224   0.01034   0.00000   0.00000   0.00000
 122       12D-1        0.00000   0.00000  -0.00436   0.00243   0.03215
 123       12D+2        0.00000   0.00000   0.01781   0.04108  -0.00033
 124       12D-2       -0.00156   0.00430   0.00000   0.00000   0.00000
 125       13F 0        0.00000   0.00000  -0.00041   0.00087   0.00157
 126       13F+1        0.00018   0.00053   0.00000   0.00000   0.00000
 127       13F-1        0.00000   0.00000   0.00125   0.00058   0.00308
 128       13F+2        0.00000   0.00000  -0.00149  -0.00031  -0.00036
 129       13F-2        0.00040   0.00086   0.00000   0.00000   0.00000
 130       13F+3       -0.00045  -0.00211   0.00000   0.00000   0.00000
 131       13F-3        0.00000   0.00000   0.00049   0.00068   0.00245
 132       14F 0        0.00000   0.00000   0.00294   0.00436   0.00096
 133       14F+1        0.00071   0.00143   0.00000   0.00000   0.00000
 134       14F-1        0.00000   0.00000   0.00229   0.01127   0.00492
 135       14F+2        0.00000   0.00000   0.00336  -0.00030   0.00123
 136       14F-2        0.00052   0.00399   0.00000   0.00000   0.00000
 137       14F+3        0.00079   0.00080   0.00000   0.00000   0.00000
 138       14F-3        0.00000   0.00000   0.00006   0.00069   0.00148
 139 4   F  1S          0.00000   0.00000  -0.05744  -0.03828  -0.01782
 140        2S          0.00000   0.00000   0.17693   0.10962   0.04183
 141        3S          0.00000   0.00000   0.08090   0.05585   0.02729
 142        4S          0.00000   0.00000   0.24788   0.21508   0.10416
 143        5S          0.00000   0.00000   0.06028   0.06865   0.05515
 144        6PX        -0.05693  -0.18420   0.00000   0.00000   0.00000
 145        6PY         0.00000   0.00000  -0.29458  -0.06981  -0.21107
 146        6PZ         0.00000   0.00000   0.17147   0.20122  -0.17959
 147        7PX        -0.06875  -0.15136   0.00000   0.00000   0.00000
 148        7PY         0.00000   0.00000  -0.28715  -0.10307  -0.13441
 149        7PZ         0.00000   0.00000   0.18047   0.16824  -0.06993
 150        8PX        -0.06263   0.02841   0.00000   0.00000   0.00000
 151        8PY         0.00000   0.00000  -0.02158  -0.19083   0.08161
 152        8PZ         0.00000   0.00000   0.02758  -0.09798   0.22226
 153        9PX        -0.01913  -0.00249   0.00000   0.00000   0.00000
 154        9PY         0.00000   0.00000  -0.00456  -0.01090   0.01339
 155        9PZ         0.00000   0.00000  -0.00657   0.01135   0.03753
 156       10D 0        0.00000   0.00000   0.00172  -0.00553   0.01239
 157       10D+1        0.00082   0.00397   0.00000   0.00000   0.00000
 158       10D-1        0.00000   0.00000   0.01183   0.00980  -0.00104
 159       10D+2        0.00000   0.00000   0.00919   0.00319   0.01238
 160       10D-2       -0.00076  -0.00549   0.00000   0.00000   0.00000
 161       11D 0        0.00000   0.00000   0.00527  -0.02764   0.03876
 162       11D+1        0.00257   0.01526   0.00000   0.00000   0.00000
 163       11D-1        0.00000   0.00000   0.01442   0.01813  -0.01341
 164       11D+2        0.00000   0.00000   0.01319  -0.00355   0.03055
 165       11D-2       -0.00202  -0.01949   0.00000   0.00000   0.00000
 166       12D 0        0.00000   0.00000  -0.00117  -0.06519   0.02403
 167       12D+1        0.00225   0.01053   0.00000   0.00000   0.00000
 168       12D-1        0.00000   0.00000   0.00472   0.00141  -0.03231
 169       12D+2        0.00000   0.00000   0.00699  -0.04446   0.00121
 170       12D-2        0.00151  -0.00496   0.00000   0.00000   0.00000
 171       13F 0        0.00000   0.00000  -0.00062  -0.00066   0.00149
 172       13F+1        0.00017   0.00050   0.00000   0.00000   0.00000
 173       13F-1        0.00000   0.00000  -0.00105   0.00076  -0.00298
 174       13F+2        0.00000   0.00000  -0.00138   0.00068  -0.00039
 175       13F-2       -0.00039  -0.00078   0.00000   0.00000   0.00000
 176       13F+3       -0.00045  -0.00205   0.00000   0.00000   0.00000
 177       13F-3        0.00000   0.00000  -0.00027   0.00071  -0.00240
 178       14F 0        0.00000   0.00000   0.00171  -0.00495   0.00109
 179       14F+1        0.00069   0.00138   0.00000   0.00000   0.00000
 180       14F-1        0.00000   0.00000   0.00053   0.01145  -0.00538
 181       14F+2        0.00000   0.00000   0.00329  -0.00058   0.00116
 182       14F-2       -0.00052  -0.00410   0.00000   0.00000   0.00000
 183       14F+3        0.00078   0.00065   0.00000   0.00000   0.00000
 184       14F-3        0.00000   0.00000   0.00001   0.00079  -0.00158
                          21        22        23        24        25
     Eigenvalues --     0.01545   0.01411   0.01394   0.01352   0.01081
   1 1   O  1S         -0.03391   0.00000   0.00000   0.00156  -0.23997
   2        2S          0.06680   0.00000   0.00000  -0.00470   0.78031
   3        3S          0.11089   0.00000   0.00000  -0.00432   0.65913
   4        4S         -0.79522   0.00000   0.00000   0.01198  -1.19761
   5        5S         -0.45624   0.00000   0.00000   0.00569  -0.29305
   6        6PX         0.00000  -0.07407   0.24813   0.00000   0.00000
   7        6PY         0.00146   0.00000   0.00000   0.30529   0.00450
   8        6PZ         0.30227   0.00000   0.00000  -0.00443   0.20759
   9        7PX         0.00000  -0.05696   0.18936   0.00000   0.00000
  10        7PY         0.00090   0.00000   0.00000   0.16408   0.00253
  11        7PZ         0.29873   0.00000   0.00000  -0.00276  -0.03018
  12        8PX         0.00000   0.03931  -0.13430   0.00000   0.00000
  13        8PY         0.00041   0.00000   0.00000  -0.18973  -0.00046
  14        8PZ         0.03592   0.00000   0.00000   0.00249  -0.10202
  15        9PX         0.00000   0.00877  -0.03034   0.00000   0.00000
  16        9PY         0.00093   0.00000   0.00000   0.00071  -0.00113
  17        9PZ         0.05928   0.00000   0.00000  -0.00024   0.00035
  18       10D 0        0.05496   0.00000   0.00000  -0.00073  -0.01825
  19       10D+1        0.00000  -0.01157   0.03872   0.00000   0.00000
  20       10D-1       -0.00023   0.00000   0.00000  -0.00731  -0.00009
  21       10D+2        0.01338   0.00000   0.00000  -0.00029  -0.02081
  22       10D-2        0.00000  -0.02238  -0.00696   0.00000   0.00000
  23       11D 0        0.08954   0.00000   0.00000  -0.00142  -0.06599
  24       11D+1        0.00000  -0.02138   0.07154   0.00000   0.00000
  25       11D-1       -0.00044   0.00000   0.00000  -0.04535  -0.00129
  26       11D+2        0.04585   0.00000   0.00000  -0.00104  -0.00704
  27       11D-2        0.00000  -0.07103  -0.02208   0.00000   0.00000
  28       12D 0        0.02456   0.00000   0.00000  -0.00091  -0.05074
  29       12D+1        0.00000   0.00467  -0.01535   0.00000   0.00000
  30       12D-1       -0.00067   0.00000   0.00000  -0.05008  -0.00182
  31       12D+2        0.01886   0.00000   0.00000  -0.00034   0.01125
  32       12D-2        0.00000  -0.05164  -0.01626   0.00000   0.00000
  33       13F 0       -0.01007   0.00000   0.00000   0.00015   0.00124
  34       13F+1        0.00000   0.00195  -0.00642   0.00000   0.00000
  35       13F-1        0.00005   0.00000   0.00000   0.00553   0.00014
  36       13F+2       -0.00434   0.00000   0.00000   0.00009   0.00209
  37       13F-2        0.00000   0.00515   0.00158   0.00000   0.00000
  38       13F+3        0.00000   0.00016  -0.00068   0.00000   0.00000
  39       13F-3       -0.00002   0.00000   0.00000  -0.00142  -0.00002
  40       14F 0       -0.02602   0.00000   0.00000   0.00037   0.02174
  41       14F+1        0.00000   0.00306  -0.01016   0.00000   0.00000
  42       14F-1       -0.00009   0.00000   0.00000   0.00417   0.00011
  43       14F+2       -0.00077   0.00000   0.00000   0.00003  -0.00147
  44       14F-2        0.00000   0.02664   0.00832   0.00000   0.00000
  45       14F+3        0.00000  -0.00171   0.00608   0.00000   0.00000
  46       14F-3        0.00013   0.00000   0.00000   0.01276   0.00015
  47 2   C  1S         -0.03952   0.00000   0.00000   0.00151   0.00917
  48        2S          0.17238   0.00000   0.00000  -0.00723   0.05550
  49        3S          0.11919   0.00000   0.00000  -0.00391   0.05533
  50        4S         -0.12629   0.00000   0.00000  -0.00150   0.19600
  51        5S          0.06287   0.00000   0.00000  -0.00116   0.06081
  52        6PX         0.00000   0.03709  -0.11847   0.00000   0.00000
  53        6PY         0.00390   0.00000   0.00000   0.22085   0.00070
  54        6PZ         0.33436   0.00000   0.00000  -0.00136  -0.11624
  55        7PX         0.00000   0.05399  -0.17280   0.00000   0.00000
  56        7PY         0.00845   0.00000   0.00000   0.47693   0.00473
  57        7PZ         0.49929   0.00000   0.00000   0.00075  -0.00866
  58        8PX         0.00000   0.04722  -0.15709   0.00000   0.00000
  59        8PY         0.00774   0.00000   0.00000   0.44312  -0.00307
  60        8PZ         0.45830   0.00000   0.00000  -0.00379  -0.02621
  61        9PX         0.00000   0.00245  -0.00753   0.00000   0.00000
  62        9PY        -0.00034   0.00000   0.00000  -0.00661   0.00038
  63        9PZ         0.01973   0.00000   0.00000  -0.00018   0.00454
  64       10D 0        0.05977   0.00000   0.00000  -0.00125  -0.02894
  65       10D+1        0.00000   0.03080  -0.10405   0.00000   0.00000
  66       10D-1       -0.00104   0.00000   0.00000  -0.08521  -0.00054
  67       10D+2        0.04675   0.00000   0.00000  -0.00067  -0.02683
  68       10D-2        0.00000  -0.08681  -0.02682   0.00000   0.00000
  69       11D 0        0.18416   0.00000   0.00000  -0.00297  -0.12375
  70       11D+1        0.00000   0.05850  -0.19971   0.00000   0.00000
  71       11D-1       -0.00476   0.00000   0.00000  -0.47043  -0.00609
  72       11D+2        0.18020   0.00000   0.00000  -0.00273  -0.04003
  73       11D-2        0.00000  -0.13207  -0.04165   0.00000   0.00000
  74       12D 0        0.05140   0.00000   0.00000  -0.00150   0.03160
  75       12D+1        0.00000   0.00252  -0.00695   0.00000   0.00000
  76       12D-1       -0.00273   0.00000   0.00000  -0.18836  -0.00060
  77       12D+2        0.04450   0.00000   0.00000  -0.00119   0.00679
  78       12D-2        0.00000   0.02466   0.00790   0.00000   0.00000
  79       13F 0       -0.01305   0.00000   0.00000   0.00055  -0.00554
  80       13F+1        0.00000   0.00233  -0.00704   0.00000   0.00000
  81       13F-1        0.00105   0.00000   0.00000   0.04293  -0.00040
  82       13F+2       -0.01507   0.00000   0.00000   0.00004  -0.00688
  83       13F-2        0.00000   0.02825   0.00887   0.00000   0.00000
  84       13F+3        0.00000   0.00752  -0.02542   0.00000   0.00000
  85       13F-3       -0.00008   0.00000   0.00000  -0.01144  -0.00037
  86       14F 0       -0.06590   0.00000   0.00000   0.00143  -0.05240
  87       14F+1        0.00000   0.01427  -0.04651   0.00000   0.00000
  88       14F-1       -0.00209   0.00000   0.00000  -0.11977  -0.00385
  89       14F+2       -0.07423   0.00000   0.00000   0.00099  -0.00455
  90       14F-2        0.00000   0.05899   0.01913   0.00000   0.00000
  91       14F+3        0.00000   0.00158  -0.00714   0.00000   0.00000
  92       14F-3       -0.00121   0.00000   0.00000  -0.07142  -0.00079
  93 3   F  1S          0.01355   0.00000   0.00000   0.04820  -0.02215
  94        2S         -0.02411   0.00000   0.00000  -0.11972   0.05382
  95        3S         -0.03724   0.00000   0.00000  -0.13374   0.05643
  96        4S          0.34570   0.00000   0.00000   0.68263  -0.11097
  97        5S          0.24562   0.00000   0.00000   0.52980  -0.00472
  98        6PX         0.00000  -0.31946  -0.51531   0.00000   0.00000
  99        6PY        -0.08915   0.00000   0.00000   0.34361   0.03622
 100        6PZ         0.32660   0.00000   0.00000  -0.01281  -0.11838
 101        7PX         0.00000  -0.09737  -0.15153   0.00000   0.00000
 102        7PY         0.01582   0.00000   0.00000   0.17963   0.00621
 103        7PZ         0.13927   0.00000   0.00000   0.05738  -0.02119
 104        8PX         0.00000   0.34746   0.63767   0.00000   0.00000
 105        8PY         0.20212   0.00000   0.00000  -0.25663  -0.05254
 106        8PZ        -0.27141   0.00000   0.00000   0.29554   0.14337
 107        9PX         0.00000   0.05527   0.09677   0.00000   0.00000
 108        9PY         0.05686   0.00000   0.00000   0.05279  -0.01285
 109        9PZ        -0.00057   0.00000   0.00000   0.05156   0.02248
 110       10D 0       -0.00123   0.00000   0.00000   0.00351   0.00031
 111       10D+1        0.00000   0.01538   0.00029   0.00000   0.00000
 112       10D-1       -0.01439   0.00000   0.00000  -0.02556   0.01726
 113       10D+2        0.00500   0.00000   0.00000   0.01021  -0.00171
 114       10D-2        0.00000   0.00400   0.01554   0.00000   0.00000
 115       11D 0        0.00253   0.00000   0.00000   0.00653  -0.00232
 116       11D+1        0.00000   0.04207   0.00461   0.00000   0.00000
 117       11D-1       -0.02546   0.00000   0.00000  -0.04717   0.05110
 118       11D+2        0.01001   0.00000   0.00000   0.00812  -0.00984
 119       11D-2        0.00000   0.01398   0.04800   0.00000   0.00000
 120       12D 0       -0.01254   0.00000   0.00000   0.05912  -0.00171
[...]
 112       10D-1       -0.01241   0.02423   0.00000   0.00369   0.00221
 113       10D+2        0.02512  -0.01916   0.00000  -0.00596  -0.01101
 114       10D-2        0.00000   0.00000  -0.01037   0.00000   0.00000
 115       11D 0        0.04820  -0.04802   0.00000  -0.06847   0.01097
 116       11D+1        0.00000   0.00000  -0.11006   0.00000   0.00000
 117       11D-1        0.07278  -0.08368   0.00000  -0.03463  -0.01584
 118       11D+2       -0.09262   0.05895   0.00000   0.02533   0.03462
 119       11D-2        0.00000   0.00000   0.02422   0.00000   0.00000
 120       12D 0        0.42135   0.10490   0.00000   0.20048  -0.51369
 121       12D+1        0.00000   0.00000   0.25862   0.00000   0.00000
 122       12D-1        0.73025   0.49625   0.00000   0.01051  -0.31094
 123       12D+2        0.10278  -0.11381   0.00000  -0.17603  -0.09837
 124       12D-2        0.00000   0.00000  -0.00975   0.00000   0.00000
 125       13F 0        0.00469   0.02284   0.00000  -0.01362   0.00274
 126       13F+1        0.00000   0.00000   0.00416   0.00000   0.00000
 127       13F-1       -0.04894   0.02292   0.00000   0.00225   0.01154
 128       13F+2        0.02681  -0.03355   0.00000   0.00070  -0.00567
 129       13F-2        0.00000   0.00000   0.01553   0.00000   0.00000
 130       13F+3        0.00000   0.00000   0.00739   0.00000   0.00000
 131       13F-3       -0.00921  -0.01971   0.00000   0.01638  -0.00887
 132       14F 0       -0.02231  -0.05413   0.00000   0.04359  -0.01931
 133       14F+1        0.00000   0.00000  -0.00234   0.00000   0.00000
 134       14F-1        0.15809  -0.04726   0.00000   0.00462  -0.06757
 135       14F+2       -0.08345   0.05889   0.00000  -0.01310   0.02593
 136       14F-2        0.00000   0.00000  -0.04194   0.00000   0.00000
 137       14F+3        0.00000   0.00000  -0.00710   0.00000   0.00000
 138       14F-3        0.01635   0.04545   0.00000  -0.04655   0.01539
 139 4   F  1S          0.08986  -0.11776   0.00000   0.02052   0.00697
 140        2S          0.40578  -0.50686   0.00000   0.08004   0.00176
 141        3S         -0.07282   0.12340   0.00000  -0.02672  -0.03780
 142        4S         -1.37961   3.41431   0.00000  -1.73185   0.48561
 143        5S          1.68472   6.24548   0.00000   2.37144   3.08361
 144        6PX         0.00000   0.00000  -0.00358   0.00000   0.00000
 145        6PY         0.00289  -0.00732   0.00000  -0.01170  -0.01208
 146        6PZ         0.01804   0.00384   0.00000  -0.00318   0.00716
 147        7PX         0.00000   0.00000   0.00825   0.00000   0.00000
 148        7PY        -0.00224   0.01880   0.00000   0.09552   0.06065
 149        7PZ        -0.09346  -0.01258   0.00000  -0.03131  -0.06034
 150        8PX         0.00000   0.00000   0.12140   0.00000   0.00000
 151        8PY         0.57995  -1.28521   0.00000   0.15487  -0.34429
 152        8PZ        -1.52865   1.39546   0.00000  -0.47765   1.42909
 153        9PX         0.00000   0.00000  -0.08829   0.00000   0.00000
 154        9PY        -1.79365  -1.35770   0.00000  -0.20313   0.55806
 155        9PZ         1.68607   3.27364   0.00000   2.31355   0.86669
 156       10D 0        0.00961   0.01319   0.00000   0.02026   0.00398
 157       10D+1        0.00000   0.00000   0.03120   0.00000   0.00000
 158       10D-1       -0.01391  -0.02379   0.00000  -0.00422   0.00140
 159       10D+2       -0.02663  -0.01833   0.00000  -0.00602   0.01049
 160       10D-2        0.00000   0.00000   0.01029   0.00000   0.00000
 161       11D 0       -0.04915  -0.04604   0.00000  -0.06835  -0.01209
 162       11D+1        0.00000   0.00000  -0.11023   0.00000   0.00000
 163       11D-1        0.07848   0.07913   0.00000   0.03714  -0.01281
 164       11D+2        0.09807   0.05467   0.00000   0.02601  -0.03295
 165       11D-2        0.00000   0.00000  -0.02424   0.00000   0.00000
 166       12D 0       -0.40565   0.12278   0.00000   0.19697   0.50706
 167       12D+1        0.00000   0.00000   0.25934   0.00000   0.00000
 168       12D-1        0.70151  -0.54778   0.00000   0.00160  -0.31278
 169       12D+2       -0.10945  -0.12631   0.00000  -0.16361   0.09511
 170       12D-2        0.00000   0.00000   0.00854   0.00000   0.00000
 171       13F 0       -0.00506   0.02296   0.00000  -0.01372  -0.00287
 172       13F+1        0.00000   0.00000   0.00422   0.00000   0.00000
 173       13F-1       -0.04973  -0.02052   0.00000  -0.00198   0.01149
 174       13F+2       -0.02894  -0.03245   0.00000   0.00069   0.00506
 175       13F-2        0.00000   0.00000  -0.01533   0.00000   0.00000
 176       13F+3        0.00000   0.00000   0.00731   0.00000   0.00000
 177       13F-3       -0.00791   0.02042   0.00000  -0.01645  -0.00851
 178       14F 0        0.02370  -0.05582   0.00000   0.04422   0.01992
 179       14F+1        0.00000   0.00000  -0.00260   0.00000   0.00000
 180       14F-1        0.15978   0.03817   0.00000  -0.00422  -0.06685
 181       14F+2        0.08863   0.05299   0.00000  -0.01149  -0.02371
 182       14F-2        0.00000   0.00000   0.04116   0.00000   0.00000
 183       14F+3        0.00000   0.00000  -0.00739   0.00000   0.00000
 184       14F-3        0.01301  -0.04575   0.00000   0.04586   0.01401
                         181       182       183       184
     Eigenvalues --     0.00000   0.00000   0.00000   0.00000
   1 1   O  1S          0.00000   0.00179   0.10872  -0.05491
   2        2S          0.00000   0.00860   0.54100  -0.27352
   3        3S          0.00000  -0.00143  -0.04390   0.02697
   4        4S          0.00000  -0.05937  -2.95833   6.94443
   5        5S          0.00000  -0.10918 -10.55516  16.20489
   6        6PX         0.01331   0.00000   0.00000   0.00000
   7        6PY         0.00000  -0.00277  -0.00028   0.00005
   8        6PZ         0.00000   0.00002   0.01159  -0.00442
   9        7PX        -0.03652   0.00000   0.00000   0.00000
  10        7PY         0.00000   0.00935   0.00213  -0.00001
  11        7PZ         0.00000  -0.00128  -0.06869  -0.12386
  12        8PX         0.66698   0.00000   0.00000   0.00000
  13        8PY         0.00000  -1.80852   0.00612   0.01755
  14        8PZ         0.00000   0.02913   2.71352  -3.11102
  15        9PX        -1.60163   0.00000   0.00000   0.00000
  16        9PY         0.00000  -4.28404   0.02943   0.03060
  17        9PZ         0.00000   0.02967   2.85652  -3.47362
  18       10D 0        0.00000  -0.00003   0.01822  -0.00485
  19       10D+1        0.00924   0.00000   0.00000   0.00000
  20       10D-1        0.00000   0.00198   0.00033   0.00003
  21       10D+2        0.00000  -0.00005  -0.00015  -0.00658
  22       10D-2       -0.00007   0.00000   0.00000   0.00000
  23       11D 0        0.00000   0.00025  -0.14195   0.09250
  24       11D+1       -0.09756   0.00000   0.00000   0.00000
  25       11D-1        0.00000   0.08029  -0.00272  -0.00053
  26       11D+2        0.00000   0.00029  -0.00101   0.02803
  27       11D-2        0.00037   0.00000   0.00000   0.00000
  28       12D 0        0.00000  -0.00964  -0.77697   0.26072
  29       12D+1       -0.08010   0.00000   0.00000   0.00000
  30       12D-1        0.00000   1.07628  -0.00423  -0.00765
  31       12D+2        0.00000  -0.00014  -0.03227   0.11666
  32       12D-2        0.00057   0.00000   0.00000   0.00000
  33       13F 0        0.00000  -0.00019   0.00293  -0.02137
  34       13F+1        0.00258   0.00000   0.00000   0.00000
  35       13F-1        0.00000   0.01535  -0.00019  -0.00011
  36       13F+2        0.00000   0.00005  -0.00183   0.01989
  37       13F-2        0.00010   0.00000   0.00000   0.00000
  38       13F+3       -0.00223   0.00000   0.00000   0.00000
  39       13F-3        0.00000  -0.00156   0.00012  -0.00004
  40       14F 0        0.00000   0.00173   0.10894   0.03977
  41       14F+1        0.05267   0.00000   0.00000   0.00000
  42       14F-1        0.00000  -0.17961   0.00225   0.00080
  43       14F+2        0.00000  -0.00042   0.01095  -0.06869
  44       14F-2       -0.00053   0.00000   0.00000   0.00000
  45       14F+3        0.02154   0.00000   0.00000   0.00000
  46       14F-3        0.00000   0.01915  -0.00037   0.00009
  47 2   C  1S          0.00000   0.00239   0.06638  -0.07663
  48        2S          0.00000   0.01530   0.40808  -0.40834
  49        3S          0.00000   0.00779   0.20452   0.18592
  50        4S          0.00000   0.03900  -4.71482 -18.07284
  51        5S          0.00000  -0.05870  -0.61198  -9.90376
  52        6PX        -0.00602   0.00000   0.00000   0.00000
  53        6PY         0.00000   0.02267  -0.00076  -0.00003
  54        6PZ         0.00000  -0.00057  -0.01916   0.00544
  55        7PX        -0.06681   0.00000   0.00000   0.00000
  56        7PY         0.00000  -1.20167   0.04553   0.01128
  57        7PZ         0.00000   0.00641   1.61264  -0.18392
  58        8PX         0.74852   0.00000   0.00000   0.00000
  59        8PY         0.00000  -8.06807   0.22844   0.05323
  60        8PZ         0.00000   0.08561   7.30801  -5.09777
  61        9PX         3.16944   0.00000   0.00000   0.00000
  62        9PY         0.00000   2.39614   0.00041  -0.01763
  63        9PZ         0.00000   0.03177   1.92546  -0.03478
  64       10D 0        0.00000  -0.00005   0.01791   0.03495
  65       10D+1        0.00568   0.00000   0.00000   0.00000
  66       10D-1        0.00000  -0.01280  -0.00099  -0.00024
  67       10D+2        0.00000   0.00008  -0.00802  -0.02131
  68       10D-2       -0.00015   0.00000   0.00000   0.00000
  69       11D 0        0.00000   0.01052   0.38324  -0.97368
  70       11D+1       -0.32433   0.00000   0.00000   0.00000
  71       11D-1        0.00000   2.31641  -0.03842  -0.01484
  72       11D+2        0.00000   0.01642   0.88347   0.62605
  73       11D-2        0.00199   0.00000   0.00000   0.00000
  74       12D 0        0.00000   0.02285   0.45345  -2.74050
  75       12D+1       -0.31571   0.00000   0.00000   0.00000
  76       12D-1        0.00000   4.59590  -0.05696  -0.03897
  77       12D+2        0.00000   0.02727   0.95746   0.01863
  78       12D-2        0.00343   0.00000   0.00000   0.00000
  79       13F 0        0.00000  -0.00220  -0.04967  -0.02932
  80       13F+1       -0.04978   0.00000   0.00000   0.00000
  81       13F-1        0.00000  -0.00940  -0.00095   0.00061
  82       13F+2        0.00000  -0.00158  -0.04479  -0.02220
  83       13F-2       -0.00026   0.00000   0.00000   0.00000
  84       13F+3        0.04696   0.00000   0.00000   0.00000
  85       13F-3        0.00000   0.06088  -0.00076  -0.00001
  86       14F 0        0.00000   0.00174  -0.32602  -0.50585
  87       14F+1       -0.09554   0.00000   0.00000   0.00000
  88       14F-1        0.00000  -0.10419   0.00067  -0.00364
  89       14F+2        0.00000  -0.00608  -0.24210  -0.38847
  90       14F-2       -0.00279   0.00000   0.00000   0.00000
  91       14F+3       -0.22979   0.00000   0.00000   0.00000
  92       14F-3        0.00000  -0.07726  -0.00193  -0.00094
  93 3   F  1S          0.00000   0.09678  -0.02529  -0.01766
  94        2S          0.00000   0.44902  -0.14036  -0.10140
  95        3S          0.00000  -0.06231  -0.01569  -0.00994
  96        4S          0.00000  -3.02108   1.93207   1.77132
  97        5S          0.00000 -16.18182   8.45006   2.69820
  98        6PX         0.01764   0.00000   0.00000   0.00000
  99        6PY         0.00000  -0.01033   0.01042   0.00484
 100        6PZ         0.00000  -0.00614   0.00743   0.00277
 101        7PX        -0.06764   0.00000   0.00000   0.00000
 102        7PY         0.00000   0.04909  -0.04686  -0.02084
 103        7PZ         0.00000   0.02218  -0.02920  -0.00938
 104        8PX         0.00229   0.00000   0.00000   0.00000
 105        8PY         0.00000  -2.47586   1.53095   1.26269
 106        8PZ         0.00000  -1.41010   1.35076   0.90722
 107        9PX        -1.35724   0.00000   0.00000   0.00000
 108        9PY         0.00000  -5.52056   1.57383   0.54625
 109        9PZ         0.00000  -1.92805   1.23980  -1.06323
 110       10D 0        0.00000   0.00184  -0.00443   0.00020
 111       10D+1       -0.00769   0.00000   0.00000   0.00000
 112       10D-1        0.00000  -0.00542  -0.00345  -0.00529
 113       10D+2        0.00000   0.01906  -0.00444   0.00078
 114       10D-2       -0.00844   0.00000   0.00000   0.00000
 115       11D 0        0.00000  -0.00908   0.02262  -0.00738
 116       11D+1        0.02553   0.00000   0.00000   0.00000
 117       11D-1        0.00000  -0.01285   0.04501   0.03130
 118       11D+2        0.00000  -0.04234  -0.00058  -0.01136
 119       11D-2        0.03120   0.00000   0.00000   0.00000
 120       12D 0        0.00000   0.26456   0.08086   0.00138
 121       12D+1       -0.16858   0.00000   0.00000   0.00000
 122       12D-1        0.00000  -0.67459   0.47187   0.24412
 123       12D+2        0.00000   0.63675  -0.20506  -0.17960
 124       12D-2       -0.13781   0.00000   0.00000   0.00000
 125       13F 0        0.00000  -0.01346   0.00349   0.00525
 126       13F+1        0.00526   0.00000   0.00000   0.00000
 127       13F-1        0.00000  -0.00216  -0.01224  -0.00208
 128       13F+2        0.00000   0.00650   0.00916   0.00135
 129       13F-2        0.01493   0.00000   0.00000   0.00000
 130       13F+3        0.00709   0.00000   0.00000   0.00000
 131       13F-3        0.00000   0.01007  -0.00946  -0.00834
 132       14F 0        0.00000   0.07059  -0.02356  -0.02460
 133       14F+1       -0.01879   0.00000   0.00000   0.00000
 134       14F-1        0.00000   0.00115   0.06179   0.00391
 135       14F+2        0.00000   0.03313  -0.05652  -0.01821
 136       14F-2       -0.03049   0.00000   0.00000   0.00000
 137       14F+3       -0.01613   0.00000   0.00000   0.00000
 138       14F-3        0.00000   0.01142   0.01374   0.00462
 139 4   F  1S          0.00000  -0.09563  -0.02139  -0.01649
 140        2S          0.00000  -0.44573  -0.12190  -0.09601
 141        3S          0.00000   0.05880  -0.01775  -0.01073
 142        4S          0.00000   3.00578   1.77605   1.70482
 143        5S          0.00000  16.37541   7.71164   2.45875
 144        6PX         0.01793   0.00000   0.00000   0.00000
 145        6PY         0.00000  -0.01090  -0.00964  -0.00496
 146        6PZ         0.00000   0.00637   0.00704   0.00280
 147        7PX        -0.06844   0.00000   0.00000   0.00000
 148        7PY         0.00000   0.05407   0.04440   0.02221
 149        7PZ         0.00000  -0.02450  -0.02772  -0.01014
 150        8PX        -0.00067   0.00000   0.00000   0.00000
 151        8PY         0.00000  -2.52572  -1.43372  -1.24545
 152        8PZ         0.00000   1.42789   1.25304   0.87553
 153        9PX        -1.35841   0.00000   0.00000   0.00000
 154        9PY         0.00000  -5.56206  -1.38719  -0.46727
 155        9PZ         0.00000   1.94434   1.12690  -1.07282
 156       10D 0        0.00000  -0.00212  -0.00446   0.00026
 157       10D+1       -0.00775   0.00000   0.00000   0.00000
 158       10D-1        0.00000  -0.00534   0.00339   0.00530
 159       10D+2        0.00000  -0.01907  -0.00417   0.00076
 160       10D-2        0.00877   0.00000   0.00000   0.00000
 161       11D 0        0.00000   0.01008   0.02203  -0.00768
 162       11D+1        0.02550   0.00000   0.00000   0.00000
 163       11D-1        0.00000  -0.01424  -0.04281  -0.03049
 164       11D+2        0.00000   0.04157  -0.00070  -0.01069
 165       11D-2       -0.03177   0.00000   0.00000   0.00000
 166       12D 0        0.00000  -0.26765   0.07337  -0.00220
 167       12D+1       -0.16985   0.00000   0.00000   0.00000
 168       12D-1        0.00000  -0.68254  -0.44216  -0.23817
 169       12D+2        0.00000  -0.65193  -0.18923  -0.18079
 170       12D-2        0.14364   0.00000   0.00000   0.00000
 171       13F 0        0.00000   0.01320   0.00328   0.00531
 172       13F+1        0.00503   0.00000   0.00000   0.00000
 173       13F-1        0.00000  -0.00186   0.01198   0.00204
 174       13F+2        0.00000  -0.00571   0.00929   0.00172
 175       13F-2       -0.01520   0.00000   0.00000   0.00000
 176       13F+3        0.00701   0.00000   0.00000   0.00000
 177       13F-3        0.00000   0.00998   0.00940   0.00814
 178       14F 0        0.00000  -0.07066  -0.02245  -0.02452
 179       14F+1       -0.01831   0.00000   0.00000   0.00000
 180       14F-1        0.00000   0.00016  -0.05919  -0.00340
 181       14F+2        0.00000  -0.03643  -0.05485  -0.01858
 182       14F-2        0.03177   0.00000   0.00000   0.00000
 183       14F+3       -0.01530   0.00000   0.00000   0.00000
 184       14F-3        0.00000   0.01326  -0.01430  -0.00437
          Condensed to atoms (all electrons):
              1          2          3          4
     1  O    7.943285   0.500129  -0.079724  -0.077979
     2  C    0.500129   4.518289   0.185095   0.183994
     3  F   -0.079724   0.185095   9.100696  -0.046613
     4  F   -0.077979   0.183994  -0.046613   9.107928
 Mulliken atomic charges:
              1
     1  O   -0.285711
     2  C    0.612494
     3  F   -0.159454
     4  F   -0.167330
 Sum of Mulliken atomic charges =   0.00000
 Mulliken charges with hydrogens summed into heavy atoms:
              1
     1  O   -0.285711
     2  C    0.612494
     3  F   -0.159454
     4  F   -0.167330
 Sum of Mulliken charges with hydrogens summed into heavy atoms =   0.00000
 Electronic spatial extent (au):  <R**2>=            240.1373
 Charge=              0.0000 electrons
 Dipole moment (field-independent basis, Debye):
    X=              0.0000    Y=             -0.0360    Z=             -1.0136  Tot=              1.0143
 Quadrupole moment (field-independent basis, Debye-Ang):
   XX=            -18.9142   YY=            -21.3396   ZZ=            -21.9347
   XY=              0.0000   XZ=              0.0000   YZ=              0.0450
 Traceless Quadrupole moment (field-independent basis, Debye-Ang):
   XX=              1.8153   YY=             -0.6101   ZZ=             -1.2052
   XY=              0.0000   XZ=              0.0000   YZ=              0.0450
 Octapole moment (field-independent basis, Debye-Ang**2):
  XXX=              0.0000  YYY=             -0.2350  ZZZ=             34.3437  XYY=              0.0000
  XXY=             -0.0678  XXZ=             10.3686  XZZ=              0.0000  YZZ=             -0.1175
  YYZ=             12.0454  XYZ=              0.0000
 Hexadecapole moment (field-independent basis, Debye-Ang**3):
 XXXX=            -13.4943 YYYY=            -80.5759 ZZZZ=           -132.5182 XXXY=              0.0000
 XXXZ=              0.0000 YYYX=              0.0000 YYYZ=              0.2815 ZZZX=              0.0000
 ZZZY=              0.3102 XXYY=            -15.7573 XXZZ=            -23.5872 YYZZ=            -36.2895
 XXYZ=              0.0852 YYXZ=              0.0000 ZZXY=              0.0000
 N-N= 1.196748584618D+02 E-N=-9.813840767839D+02  KE= 3.123598912995D+02
 1\1\GINC-TRAPISTA\SP\RQCISD-FC\Aug-CC-pVTZ\C1F2O1\BRUNS\27-Nov-2021\0\
 \# qcisd/aug-cc-pvtz nosymm density=current output=wfn\\f2co-wavefunct
 ion\\0,1\O,0,0.,0.,0.679927\C,0,0.,0.,-0.492216\F,0,0.,-1.058878,-1.26
 4305\F,0,0.,1.068878,-1.264305\\Version=EM64L-G09RevB.01\HF=-311.74069
 13\MP2=-312.6371693\MP3=-312.6244881\MP4D=-312.6401704\MP4DQ=-312.6240
 643\MP4SDQ=-312.6357425\QCISD=-312.6352326\RMSD=3.551e-09\Dipole=0.,-0
 .0141631,-0.3987922\Quadrupole=1.349634,-0.4535959,-0.896038,0.,0.,0.0
 334471\PG=CS [SG(C1F2O1)]\\@

 Writing a WFN file to GAUSSIAN.wfn.


 ERWIN WITH HIS PSI CAN DO
 CALCULATIONS QUITE A FEW.
 BUT ONE THING HAS NOT BEEN SEEN
 JUST WHAT DOES PSI REALLY MEAN.
 -- WALTER HUCKEL, TRANS. BY FELIX BLOCH
 Job cpu time:  0 days  1 hours 56 minutes 30.9 seconds.
 File lengths (MBytes):  RWF=  17462 Int=      0 D2E=      0 Chk=      3 Scr=      1
 Normal termination of Gaussian 09 at Sat Nov 27 00:28:39 2021.
