 Entering Gaussian System, Link 0=/home/bruns/programas/chemistry/gaussian/g09/g09
 Input=GAUSSIAN.com
 Output=GAUSSIAN.log
 Initial command:
 /home/bruns/programas/chemistry/gaussian/g09/l1.exe /home/bruns/programas/chemistry/gaussian/work/Gau-28023.inp -scrdir=/home/bruns/programas/chemistry/gaussian/work/
 Entering Link 1 = /home/bruns/programas/chemistry/gaussian/g09/l1.exe PID=     28025.
  
 Copyright (c) 1988,1990,1992,1993,1995,1998,2003,2009,2010,
            Gaussian, Inc.  All Rights Reserved.
  
 This is part of the Gaussian(R) 09 program.  It is based on
 the Gaussian(R) 03 system (copyright 2003, Gaussian, Inc.),
 the Gaussian(R) 98 system (copyright 1998, Gaussian, Inc.),
 the Gaussian(R) 94 system (copyright 1995, Gaussian, Inc.),
 the Gaussian 92(TM) system (copyright 1992, Gaussian, Inc.),
 the Gaussian 90(TM) system (copyright 1990, Gaussian, Inc.),
 the Gaussian 88(TM) system (copyright 1988, Gaussian, Inc.),
 the Gaussian 86(TM) system (copyright 1986, Carnegie Mellon
 University), and the Gaussian 82(TM) system (copyright 1983,
 Carnegie Mellon University). Gaussian is a federally registered
 trademark of Gaussian, Inc.
  
 This software contains proprietary and confidential information,
 including trade secrets, belonging to Gaussian, Inc.
  
 This software is provided under written license and may be
 used, copied, transmitted, or stored only in accord with that
 written license.
  
 The following legend is applicable only to US Government
 contracts under FAR:
  
                    RESTRICTED RIGHTS LEGEND
  
 Use, reproduction and disclosure by the US Government is
 subject to restrictions as set forth in subparagraphs (a)
 and (c) of the Commercial Computer Software - Restricted
 Rights clause in FAR 52.227-19.
  
 Gaussian, Inc.
 340 Quinnipiac St., Bldg. 40, Wallingford CT 06492
  
  
 ---------------------------------------------------------------
 Warning -- This program may not be used in any manner that
 competes with the business of Gaussian, Inc. or will provide
 assistance to any competitor of Gaussian, Inc.  The licensee
 of this program is prohibited from giving any competitor of
 Gaussian, Inc. access to this program.  By using this program,
 the user acknowledges that Gaussian, Inc. is engaged in the
 business of creating and licensing software in the field of
 computational chemistry and represents and warrants to the
 licensee that it is not a competitor of Gaussian, Inc. and that
 it will not use this program in any manner prohibited above.
 ---------------------------------------------------------------
  

 Cite this work as:
 Gaussian 09, Revision B.01,
 M. J. Frisch, G. W. Trucks, H. B. Schlegel, G. E. Scuseria, 
 M. A. Robb, J. R. Cheeseman, G. Scalmani, V. Barone, B. Mennucci, 
 G. A. Petersson, H. Nakatsuji, M. Caricato, X. Li, H. P. Hratchian, 
 A. F. Izmaylov, J. Bloino, G. Zheng, J. L. Sonnenberg, M. Hada, 
 M. Ehara, K. Toyota, R. Fukuda, J. Hasegawa, M. Ishida, T. Nakajima, 
 Y. Honda, O. Kitao, H. Nakai, T. Vreven, J. A. Montgomery, Jr., 
 J. E. Peralta, F. Ogliaro, M. Bearpark, J. J. Heyd, E. Brothers, 
 K. N. Kudin, V. N. Staroverov, T. Keith, R. Kobayashi, J. Normand, 
 K. Raghavachari, A. Rendell, J. C. Burant, S. S. Iyengar, J. Tomasi, 
 M. Cossi, N. Rega, J. M. Millam, M. Klene, J. E. Knox, J. B. Cross, 
 V. Bakken, C. Adamo, J. Jaramillo, R. Gomperts, R. E. Stratmann, 
 O. Yazyev, A. J. Austin, R. Cammi, C. Pomelli, J. W. Ochterski, 
 R. L. Martin, K. Morokuma, V. G. Zakrzewski, G. A. Voth, 
 P. Salvador, J. J. Dannenberg, S. Dapprich, A. D. Daniels, 
 O. Farkas, J. B. Foresman, J. V. Ortiz, J. Cioslowski, 
 and D. J. Fox, Gaussian, Inc., Wallingford CT, 2010.
 
 ******************************************
 Gaussian 09:  EM64L-G09RevB.01 12-Aug-2010
                27-Nov-2021 
 ******************************************
 %nproc=8
 Will use up to    8 processors via shared memory.
 %mem=8GB
 -----------------------------------------------------
 # qcisd/aug-cc-pvtz nosymm density=current output=wfn
 -----------------------------------------------------
 1/30=1,38=1/1;
 2/12=2,15=1,17=6,18=5,40=1/2;
 3/5=16,6=1,7=10,11=9,16=1,25=1,30=1,71=1/1,2,3;
 4//1;
 5/5=2,38=5/2;
 8/6=4,9=120000,10=1/1,4;
 9/5=8,15=1/13;
 11/28=-7,31=1,32=3,42=3/11;
 10/5=6,13=10,31=1/2;
 6/7=2,8=2,9=2,10=2,22=-1,31=1/1;
 99/5=1,6=1100,9=1/99;
 -----------------
 f2co-wavefunction
 -----------------
 Symbolic Z-matrix:
 Charge =  0 Multiplicity = 1
 O                     0.        0.        0.67993 
 C                     0.        0.       -0.49222 
 F                     0.       -1.05888  -1.26431 
 F                     0.        1.05888  -1.27431 
 
                          Input orientation:                          
 ---------------------------------------------------------------------
 Center     Atomic      Atomic             Coordinates (Angstroms)
 Number     Number       Type             X           Y           Z
 ---------------------------------------------------------------------
      1          8           0        0.000000    0.000000    0.679927
      2          6           0        0.000000    0.000000   -0.492216
      3          9           0        0.000000   -1.058878   -1.264305
      4          9           0        0.000000    1.058878   -1.274305
 ---------------------------------------------------------------------
                    Distance matrix (angstroms):
                    1          2          3          4
     1  O    0.000000
     2  C    1.172143   0.000000
     3  F    2.213879   1.310475   0.000000
     4  F    2.222666   1.316391   2.117780   0.000000
 Symmetry turned off by external request.
 Stoichiometry    CF2O
 Framework group  CS[SG(CF2O)]
 Deg. of freedom     5
 Full point group                 CS      NOp   2
 Rotational constants (GHZ):     11.8806626     11.6915128      5.8926644
 Standard basis: Aug-CC-pVTZ (5D, 7F)
 Integral buffers will be    131072 words long.
 Raffenetti 1 integral format.
 Two-electron integral symmetry is turned off.
   184 basis functions,   288 primitive gaussians,   220 cartesian basis functions
    16 alpha electrons       16 beta electrons
       nuclear repulsion energy       119.7747896820 Hartrees.
 NAtoms=    4 NActive=    4 NUniq=    4 SFac= 1.00D+00 NAtFMM=   50 NAOKFM=F Big=F
 One-electron integrals computed using PRISM.
 NBasis=   184 RedAO= T  NBF=   184
 NBsUse=   184 1.00D-06 NBFU=   184
 Harris functional with IExCor=  205 diagonalized for initial guess.
 ExpMin= 3.57D-02 ExpMax= 1.95D+04 ExpMxC= 6.65D+02 IAcc=3 IRadAn=         0 AccDes= 0.00D+00
 HarFok:  IExCor=  205 AccDes= 0.00D+00 IRadAn=         0 IDoV= 1
 ScaDFX=  1.000000  1.000000  1.000000  1.000000
 FoFCou: FMM=F IPFlag=           0 FMFlag=      100000 FMFlg1=           0
         NFxFlg=           0 DoJE=T BraDBF=F KetDBF=T FulRan=T
         Omega=  0.000000  0.000000  1.000000  0.000000  0.000000 ICntrl=     500 IOpCl=  0
         NMat0=    1 NMatS0=    1 NMatT0=    0 NMatD0=    1 NMtDS0=    0 NMtDT0=    0
         I1Cent=           4 NGrid=           0.
 Symmetry not used in FoFCou.
 Requested convergence on RMS density matrix=1.00D-08 within 128 cycles.
 Requested convergence on MAX density matrix=1.00D-06.
 Requested convergence on             energy=1.00D-06.
 No special actions if energy rises.
 Keep R1 ints in memory in canonical form, NReq=301063473.
 SCF Done:  E(RHF) =  -311.740823218     A.U. after   12 cycles
             Convg  =    0.3299D-08             -V/T =  2.0015
 ExpMin= 3.57D-02 ExpMax= 1.95D+04 ExpMxC= 6.65D+02 IAcc=3 IRadAn=         5 AccDes= 0.00D+00
 HarFok:  IExCor=  205 AccDes= 0.00D+00 IRadAn=         5 IDoV=-2
 ScaDFX=  1.000000  1.000000  1.000000  1.000000
 Range of M.O.s used for correlation:     5   184
 NBasis=   184 NAE=    16 NBE=    16 NFC=     4 NFV=     0
 NROrb=    180 NOA=    12 NOB=    12 NVA=   168 NVB=   168

 **** Warning!!: The largest alpha MO coefficient is  0.15533564D+02

 Semi-Direct transformation.
 ModeAB=           2 MOrb=            12 LenV=    1072785601
 LASXX=     33405819 LTotXX=    33405819 LenRXX=    33405819
 LTotAB=    33954012 MaxLAS=    52509600 LenRXY=    52509600
 NonZer=    66811638 LenScr=   100987392 LnRSAI=           0
 LnScr1=           0 LExtra=           0 Total=    186902811
 MaxDsk=          -1 SrtSym=           F ITran=            4
 JobTyp=0 Pass  1:  I=   1 to  12.
 (rs|ai) integrals will be sorted in core.
 Spin components of T(2) and E(2):
     alpha-alpha T2 =       0.2662303220D-01 E2=     -0.1191632070D+00
     alpha-beta  T2 =       0.1373951657D+00 E2=     -0.6580360638D+00
     beta-beta   T2 =       0.2662303220D-01 E2=     -0.1191632070D+00
 ANorm=    0.1091165079D+01
 E2 =    -0.8963624778D+00 EUMP2 =    -0.31263718569547D+03
 R2 and R3 integrals will be kept in memory, NReq=   596397230.
 Iterations=  50 Convergence= 0.100D-07
 Iteration Nr.   1
 **********************
 DD1Dir will call FoFMem   1 times, MxPair=       156
 NAB=    78 NAA=     0 NBB=     0.
 MP4(R+Q)=  0.16092643D-01
 E3=        0.12659510D-01        EUMP3=      -0.31262452619D+03
 E4(DQ)=    0.42903989D-03        UMP4(DQ)=   -0.31262409715D+03
 E4(SDQ)=  -0.11236129D-01        UMP4(SDQ)=  -0.31263576231D+03
 DE(Corr)= -0.86761032     E(Corr)=     -312.60843354    
 NORM(A)=   0.10860110D+01
 Iteration Nr.   2
 **********************
 DD1Dir will call FoFMem   1 times, MxPair=       156
 NAB=    78 NAA=     0 NBB=     0.
 DE(Corr)= -0.89359824     E(CORR)=     -312.63442146     Delta=-2.60D-02
 NORM(A)=   0.10933439D+01
 Iteration Nr.   3
 **********************
 DD1Dir will call FoFMem   1 times, MxPair=       156
 NAB=    78 NAA=     0 NBB=     0.
 DE(Corr)= -0.89181551     E(CORR)=     -312.63263872     Delta= 1.78D-03
 NORM(A)=   0.10955931D+01
 Iteration Nr.   4
 **********************
 DD1Dir will call FoFMem   1 times, MxPair=       156
 NAB=    78 NAA=     0 NBB=     0.
 DE(Corr)= -0.89413421     E(CORR)=     -312.63495742     Delta=-2.32D-03
 NORM(A)=   0.10964068D+01
 Iteration Nr.   5
 **********************
 DD1Dir will call FoFMem   1 times, MxPair=       156
 NAB=    78 NAA=     0 NBB=     0.
 DE(Corr)= -0.89440267     E(CORR)=     -312.63522588     Delta=-2.68D-04
 NORM(A)=   0.10965916D+01
 Iteration Nr.   6
 **********************
 DD1Dir will call FoFMem   1 times, MxPair=       156
 NAB=    78 NAA=     0 NBB=     0.
 DE(Corr)= -0.89442956     E(CORR)=     -312.63525277     Delta=-2.69D-05
 NORM(A)=   0.10966052D+01
 Iteration Nr.   7
 **********************
 DD1Dir will call FoFMem   1 times, MxPair=       156
 NAB=    78 NAA=     0 NBB=     0.
 DE(Corr)= -0.89443124     E(CORR)=     -312.63525445     Delta=-1.68D-06
 NORM(A)=   0.10966050D+01
 Iteration Nr.   8
 **********************
 DD1Dir will call FoFMem   1 times, MxPair=       156
 NAB=    78 NAA=     0 NBB=     0.
 DE(Corr)= -0.89443022     E(CORR)=     -312.63525343     Delta= 1.02D-06
 NORM(A)=   0.10966054D+01
 Iteration Nr.   9
 **********************
 DD1Dir will call FoFMem   1 times, MxPair=       156
 NAB=    78 NAA=     0 NBB=     0.
 DE(Corr)= -0.89443062     E(CORR)=     -312.63525384     Delta=-4.08D-07
 NORM(A)=   0.10966054D+01
 Iteration Nr.  10
 **********************
 DD1Dir will call FoFMem   1 times, MxPair=       156
 NAB=    78 NAA=     0 NBB=     0.
 DE(Corr)= -0.89443051     E(CORR)=     -312.63525373     Delta= 1.11D-07
 NORM(A)=   0.10966056D+01
 Iteration Nr.  11
 **********************
 DD1Dir will call FoFMem   1 times, MxPair=       156
 NAB=    78 NAA=     0 NBB=     0.
 DE(Corr)= -0.89443101     E(CORR)=     -312.63525423     Delta=-4.96D-07
 NORM(A)=   0.10966059D+01
 Iteration Nr.  12
 **********************
 DD1Dir will call FoFMem   1 times, MxPair=       156
 NAB=    78 NAA=     0 NBB=     0.
 DE(Corr)= -0.89443105     E(CORR)=     -312.63525426     Delta=-3.57D-08
 NORM(A)=   0.10966061D+01
 Iteration Nr.  13
 **********************
 DD1Dir will call FoFMem   1 times, MxPair=       156
 NAB=    78 NAA=     0 NBB=     0.
 DE(Corr)= -0.89443115     E(CORR)=     -312.63525437     Delta=-1.02D-07
 NORM(A)=   0.10966062D+01
 Iteration Nr.  14
 **********************
 DD1Dir will call FoFMem   1 times, MxPair=       156
 NAB=    78 NAA=     0 NBB=     0.
 DE(Corr)= -0.89443116     E(CORR)=     -312.63525438     Delta=-1.71D-08
 NORM(A)=   0.10966063D+01
 Iteration Nr.  15
 **********************
 DD1Dir will call FoFMem   1 times, MxPair=       156
 NAB=    78 NAA=     0 NBB=     0.
 DE(Corr)= -0.89443117     E(CORR)=     -312.63525439     Delta=-1.00D-08
 NORM(A)=   0.10966063D+01
 Iteration Nr.  16
 **********************
 DD1Dir will call FoFMem   1 times, MxPair=       156
 NAB=    78 NAA=     0 NBB=     0.
 DE(Corr)= -0.89443118     E(CORR)=     -312.63525440     Delta=-4.11D-09
 NORM(A)=   0.10966063D+01
 Largest amplitude= 5.83D-02

 Z-AMPLITUDE ITERATIONS

 Iteration Nr.   1
 **********************
 DD1Dir will call FoFMem   1 times, MxPair=       156
 NAB=    78 NAA=     0 NBB=     0.
 DE(Z)  -0.87507483D+00          E(Z)=    -0.31261589805D+03
 NORM(A)=   0.10965920D+01
 Iteration Nr.   2
 **********************
 DD1Dir will call FoFMem   1 times, MxPair=       156
 NAB=    78 NAA=     0 NBB=     0.
 DE(Z)  -0.87507479D+00          E(Z)=    -0.31261589800D+03
 NORM(A)=   0.10966508D+01
 Iteration Nr.   3
 **********************
 DD1Dir will call FoFMem   1 times, MxPair=       156
 NAB=    78 NAA=     0 NBB=     0.
 DE(Z)  -0.87507532D+00          E(Z)=    -0.31261589854D+03
 NORM(A)=   0.10965483D+01
 Iteration Nr.   4
 **********************
 DD1Dir will call FoFMem   1 times, MxPair=       156
 NAB=    78 NAA=     0 NBB=     0.
 DE(Z)  -0.87507438D+00          E(Z)=    -0.31261589760D+03
 NORM(A)=   0.10966907D+01
 Iteration Nr.   5
 **********************
 DD1Dir will call FoFMem   1 times, MxPair=       156
 NAB=    78 NAA=     0 NBB=     0.
 DE(Z)  -0.87507593D+00          E(Z)=    -0.31261589915D+03
 NORM(A)=   0.10921447D+01
 Iteration Nr.   6
 **********************
 DD1Dir will call FoFMem   1 times, MxPair=       156
 NAB=    78 NAA=     0 NBB=     0.
 DE(Z)  -0.87502069D+00          E(Z)=    -0.31261584391D+03
 NORM(A)=   0.10921445D+01
 Iteration Nr.   7
 **********************
 DD1Dir will call FoFMem   1 times, MxPair=       156
 NAB=    78 NAA=     0 NBB=     0.
 DE(Z)  -0.87501936D+00          E(Z)=    -0.31261584257D+03
 NORM(A)=   0.10921446D+01
 Iteration Nr.   8
 **********************
 DD1Dir will call FoFMem   1 times, MxPair=       156
 NAB=    78 NAA=     0 NBB=     0.
 DE(Z)  -0.87501977D+00          E(Z)=    -0.31261584299D+03
 NORM(A)=   0.10921448D+01
 Iteration Nr.   9
 **********************
 DD1Dir will call FoFMem   1 times, MxPair=       156
 NAB=    78 NAA=     0 NBB=     0.
 DE(Z)  -0.87501951D+00          E(Z)=    -0.31261584272D+03
 NORM(A)=   0.10921449D+01
 Iteration Nr.  10
 **********************
 DD1Dir will call FoFMem   1 times, MxPair=       156
 NAB=    78 NAA=     0 NBB=     0.
 DE(Z)  -0.87501962D+00          E(Z)=    -0.31261584283D+03
 NORM(A)=   0.10921449D+01
 Iteration Nr.  11
 **********************
 DD1Dir will call FoFMem   1 times, MxPair=       156
 NAB=    78 NAA=     0 NBB=     0.
 DE(Z)  -0.87501959D+00          E(Z)=    -0.31261584281D+03
 NORM(A)=   0.10921449D+01
 Iteration Nr.  12
 **********************
 DD1Dir will call FoFMem   1 times, MxPair=       156
 NAB=    78 NAA=     0 NBB=     0.
 DE(Z)  -0.87501960D+00          E(Z)=    -0.31261584282D+03
 NORM(A)=   0.10921449D+01
 Iteration Nr.  13
 **********************
 DD1Dir will call FoFMem   1 times, MxPair=       156
 NAB=    78 NAA=     0 NBB=     0.
 DE(Z)  -0.87501960D+00          E(Z)=    -0.31261584282D+03
 NORM(A)=   0.10921449D+01
 Discarding MO integrals.
          Differentiating once with respect to electric field.
                with respect to dipole field.
          Electric field/nuclear overlap derivatives assumed to be zero.
          Keep R1 ints in memory in canonical form, NReq=297441306.
          There are     1 degrees of freedom in the 1st order CPHF.  IDoFFX=0.
 LinEq1:  Iter=  0 NonCon=     1 RMS=3.08D-03 Max=8.49D-02
 AX will form     1 AO Fock derivatives at one time.
 LinEq1:  Iter=  1 NonCon=     1 RMS=7.59D-04 Max=1.11D-02
 LinEq1:  Iter=  2 NonCon=     1 RMS=2.26D-04 Max=3.40D-03
 LinEq1:  Iter=  3 NonCon=     1 RMS=9.98D-05 Max=1.59D-03
 LinEq1:  Iter=  4 NonCon=     1 RMS=2.30D-05 Max=3.78D-04
 LinEq1:  Iter=  5 NonCon=     1 RMS=1.11D-05 Max=3.10D-04
 LinEq1:  Iter=  6 NonCon=     1 RMS=2.71D-06 Max=5.01D-05
 LinEq1:  Iter=  7 NonCon=     1 RMS=5.55D-07 Max=1.03D-05
 LinEq1:  Iter=  8 NonCon=     1 RMS=9.80D-08 Max=1.21D-06
 LinEq1:  Iter=  9 NonCon=     1 RMS=2.06D-08 Max=2.71D-07
 LinEq1:  Iter= 10 NonCon=     1 RMS=9.32D-09 Max=1.16D-07
 LinEq1:  Iter= 11 NonCon=     1 RMS=1.43D-09 Max=1.90D-08
 LinEq1:  Iter= 12 NonCon=     1 RMS=2.81D-10 Max=3.42D-09
 LinEq1:  Iter= 13 NonCon=     0 RMS=4.53D-11 Max=4.24D-10
 Linear equations converged to 1.000D-10 1.000D-09 after    13 iterations.
 End of Minotr Frequency-dependent properties file   721 does not exist.
 End of Minotr Frequency-dependent properties file   722 does not exist.

 **********************************************************************

            Population analysis using the QCI/CC density.

 **********************************************************************

     Natural Orbital Coefficients:
                           1         2         3         4         5
     Eigenvalues --     2.00001   2.00000   2.00000   2.00000   1.98617
   1 1   O  1S         -0.63318  -0.72012   0.00358   0.19939  -0.01924
   2        2S          0.01171   0.01266  -0.00007  -0.00382   0.04628
   3        3S         -0.02683  -0.03093   0.00015   0.00865   0.01292
   4        4S          0.00205   0.00274  -0.00003  -0.00173  -0.00017
   5        5S         -0.00048   0.00090  -0.00004  -0.00176  -0.01886
   6        6PX         0.00000   0.00000   0.00000   0.00000   0.00000
   7        6PY        -0.00001   0.00000   0.00018   0.00000  -0.00045
   8        6PZ         0.00404   0.00177   0.00000   0.00011  -0.01421
   9        7PX         0.00000   0.00000   0.00000   0.00000   0.00000
  10        7PY         0.00000   0.00000   0.00011  -0.00001  -0.00060
  11        7PZ         0.00266  -0.00196   0.00003   0.00167  -0.01389
  12        8PX         0.00000   0.00000   0.00000   0.00000   0.00000
  13        8PY         0.00001  -0.00002  -0.00045   0.00000  -0.00051
  14        8PZ         0.00321  -0.00076   0.00000   0.00059   0.00950
  15        9PX         0.00000   0.00000   0.00000   0.00000   0.00000
  16        9PY         0.00000   0.00000  -0.00034   0.00000   0.00004
  17        9PZ         0.00034   0.00004   0.00001   0.00046   0.00540
  18       10D 0       -0.00026  -0.00011   0.00000  -0.00002   0.00115
  19       10D+1        0.00000   0.00000   0.00000   0.00000   0.00000
  20       10D-1        0.00000   0.00000  -0.00001   0.00000   0.00002
  21       10D+2        0.00005   0.00005   0.00000   0.00001   0.00002
  22       10D-2        0.00000   0.00000   0.00000   0.00000   0.00000
  23       11D 0       -0.00003   0.00091  -0.00001  -0.00046  -0.00021
  24       11D+1        0.00000   0.00000   0.00000   0.00000   0.00000
  25       11D-1        0.00000   0.00000   0.00005   0.00000   0.00009
  26       11D+2        0.00006   0.00001   0.00000  -0.00017  -0.00081
  27       11D-2        0.00000   0.00000   0.00000   0.00000   0.00000
  28       12D 0       -0.00044   0.00024   0.00000  -0.00009  -0.00563
  29       12D+1        0.00000   0.00000   0.00000   0.00000   0.00000
  30       12D-1        0.00000   0.00000   0.00013   0.00000   0.00007
  31       12D+2        0.00027  -0.00028   0.00000  -0.00017  -0.00212
  32       12D-2        0.00000   0.00000   0.00000   0.00000   0.00000
  33       13F 0       -0.00017   0.00008   0.00000  -0.00009  -0.00049
  34       13F+1        0.00000   0.00000   0.00000   0.00000   0.00000
  35       13F-1        0.00000   0.00000   0.00002   0.00000  -0.00003
  36       13F+2        0.00003   0.00002   0.00000   0.00002   0.00017
  37       13F-2        0.00000   0.00000   0.00000   0.00000   0.00000
  38       13F+3        0.00000   0.00000   0.00000   0.00000   0.00000
  39       13F-3        0.00000   0.00000  -0.00002   0.00000   0.00000
  40       14F 0        0.00004  -0.00022   0.00000   0.00025   0.00164
  41       14F+1        0.00000   0.00000   0.00000   0.00000   0.00000
  42       14F-1        0.00000   0.00000  -0.00007   0.00000  -0.00001
  43       14F+2       -0.00001   0.00002   0.00001   0.00017   0.00091
  44       14F-2        0.00000   0.00000   0.00000   0.00000   0.00000
  45       14F+3        0.00000   0.00000   0.00000   0.00000   0.00000
  46       14F-3        0.00000   0.00000   0.00007   0.00000  -0.00001
  47 2   C  1S          0.71494  -0.50576   0.00663   0.44192  -0.05113
  48        2S         -0.00912   0.00502  -0.00008  -0.00400   0.10776
  49        3S          0.02917  -0.02129   0.00027   0.01785   0.02336
  50        4S         -0.00027   0.00063  -0.00002   0.00010   0.01434
  51        5S          0.00022  -0.00010   0.00000   0.00035   0.00323
  52        6PX         0.00000   0.00000   0.00000   0.00000   0.00000
  53        6PY         0.00000   0.00000   0.00003   0.00000  -0.00132
  54        6PZ        -0.00184   0.00115  -0.00002  -0.00107  -0.01571
  55        7PX         0.00000   0.00000   0.00000   0.00000   0.00000
  56        7PY        -0.00002   0.00000   0.00087  -0.00006  -0.00107
  57        7PZ         0.00112  -0.00470   0.00005   0.00149  -0.01160
  58        8PX         0.00000   0.00000   0.00000   0.00000   0.00000
  59        8PY        -0.00001   0.00001  -0.00055  -0.00001   0.00076
  60        8PZ         0.00078  -0.00024   0.00006   0.00203   0.01481
  61        9PX         0.00000   0.00000   0.00000   0.00000   0.00000
  62        9PY         0.00000   0.00000   0.00028   0.00000  -0.00004
  63        9PZ         0.00004  -0.00038   0.00000  -0.00006  -0.00013
  64       10D 0        0.00029  -0.00051   0.00001   0.00038   0.00518
  65       10D+1        0.00000   0.00000   0.00000   0.00000   0.00000
  66       10D-1        0.00001   0.00000  -0.00018   0.00001   0.00028
  67       10D+2       -0.00040   0.00020   0.00000  -0.00041  -0.00843
  68       10D-2        0.00000   0.00000   0.00000   0.00000   0.00000
  69       11D 0       -0.00042  -0.00102   0.00002   0.00059   0.00673
  70       11D+1        0.00000   0.00000   0.00000   0.00000   0.00000
  71       11D-1        0.00002   0.00000  -0.00097   0.00005   0.00042
  72       11D+2        0.00087  -0.00127   0.00002   0.00019  -0.00963
  73       11D-2        0.00000   0.00000   0.00000   0.00000   0.00000
  74       12D 0        0.00009   0.00060   0.00001   0.00030   0.00020
  75       12D+1        0.00000   0.00000   0.00000   0.00000   0.00000
  76       12D-1       -0.00001   0.00001   0.00056   0.00000  -0.00025
  77       12D+2        0.00005   0.00022   0.00001   0.00033   0.00341
  78       12D-2        0.00000   0.00000   0.00000   0.00000   0.00000
  79       13F 0        0.00070  -0.00032   0.00001   0.00060   0.00426
  80       13F+1        0.00000   0.00000   0.00000   0.00000   0.00000
  81       13F-1        0.00000   0.00000   0.00023   0.00000   0.00000
  82       13F+2        0.00032   0.00010   0.00001   0.00059   0.00556
  83       13F-2        0.00000   0.00000   0.00000   0.00000   0.00000
  84       13F+3        0.00000   0.00000   0.00000   0.00000   0.00000
  85       13F-3        0.00000   0.00000  -0.00021   0.00001   0.00007
  86       14F 0       -0.00116   0.00045   0.00000   0.00055   0.00344
  87       14F+1        0.00000   0.00000   0.00000   0.00000   0.00000
  88       14F-1       -0.00003   0.00002   0.00089  -0.00001  -0.00009
  89       14F+2       -0.00097   0.00084   0.00000   0.00026   0.00484
  90       14F-2        0.00000   0.00000   0.00000   0.00000   0.00000
  91       14F+3        0.00000   0.00000   0.00000   0.00000   0.00000
  92       14F-3       -0.00001   0.00000   0.00006   0.00000  -0.00004
  93 3   F  1S         -0.15723   0.30436  -0.68299   0.61170  -0.14959
  94        2S          0.00335  -0.00549   0.01098  -0.00922   0.38163
  95        3S         -0.00639   0.01289  -0.02944   0.02662   0.11638
  96        4S          0.00263  -0.00291   0.00059   0.00087   0.23761
  97        5S          0.00021  -0.00024  -0.00068   0.00068   0.01509
  98        6PX         0.00000   0.00000   0.00000   0.00000   0.00000
  99        6PY        -0.00109   0.00130  -0.00143   0.00094  -0.00637
 100        6PZ        -0.00089   0.00079  -0.00110   0.00060  -0.01988
 101        7PX         0.00000   0.00000   0.00000   0.00000   0.00000
 102        7PY        -0.00100   0.00063   0.00014  -0.00044  -0.00363
 103        7PZ        -0.00091   0.00022  -0.00013  -0.00050  -0.02184
 104        8PX         0.00000   0.00000   0.00000   0.00000   0.00000
 105        8PY        -0.00058   0.00031  -0.00084   0.00111  -0.01267
 106        8PZ        -0.00031  -0.00007  -0.00145   0.00060  -0.02314
 107        9PX         0.00000   0.00000   0.00000   0.00000   0.00000
 108        9PY        -0.00007  -0.00003  -0.00038   0.00009  -0.00081
 109        9PZ        -0.00004   0.00039  -0.00007   0.00024  -0.00087
 110       10D 0        0.00000  -0.00001   0.00000   0.00001  -0.00011
 111       10D+1        0.00000   0.00000   0.00000   0.00000   0.00000
 112       10D-1        0.00003  -0.00002  -0.00001   0.00004   0.00067
 113       10D+2        0.00001  -0.00001   0.00001  -0.00002  -0.00065
 114       10D-2        0.00000   0.00000   0.00000   0.00000   0.00000
 115       11D 0       -0.00006   0.00004  -0.00007  -0.00006  -0.00089
 116       11D+1        0.00000   0.00000   0.00000   0.00000   0.00000
 117       11D-1       -0.00036   0.00003   0.00023  -0.00046   0.00359
 118       11D+2        0.00010   0.00003  -0.00018   0.00020  -0.00334
 119       11D-2        0.00000   0.00000   0.00000   0.00000   0.00000
 120       12D 0       -0.00009   0.00000  -0.00024   0.00005   0.00006
 121       12D+1        0.00000   0.00000   0.00000   0.00000   0.00000
 122       12D-1       -0.00002  -0.00001  -0.00040   0.00019  -0.00272
 123       12D+2        0.00020  -0.00010   0.00022  -0.00024   0.00137
 124       12D-2        0.00000   0.00000   0.00000   0.00000   0.00000
 125       13F 0        0.00000  -0.00002   0.00000  -0.00001  -0.00034
 126       13F+1        0.00000   0.00000   0.00000   0.00000   0.00000
 127       13F-1       -0.00001  -0.00003   0.00000  -0.00002   0.00010
 128       13F+2        0.00001   0.00003  -0.00002   0.00003  -0.00046
 129       13F-2        0.00000   0.00000   0.00000   0.00000   0.00000
 130       13F+3        0.00000   0.00000   0.00000   0.00000   0.00000
 131       13F-3        0.00001   0.00000  -0.00006   0.00001  -0.00040
 132       14F 0        0.00014  -0.00001  -0.00003   0.00014  -0.00033
 133       14F+1        0.00000   0.00000   0.00000   0.00000   0.00000
 134       14F-1       -0.00019   0.00017  -0.00003  -0.00012   0.00003
 135       14F+2        0.00026  -0.00022   0.00000   0.00014  -0.00103
 136       14F-2        0.00000   0.00000   0.00000   0.00000   0.00000
 137       14F+3        0.00000   0.00000   0.00000   0.00000   0.00000
 138       14F-3        0.00005  -0.00004   0.00012   0.00003  -0.00053
 139 4   F  1S         -0.15668   0.30495   0.70110   0.59072  -0.14253
 140        2S          0.00333  -0.00549  -0.01127  -0.00890   0.36373
 141        3S         -0.00637   0.01291   0.03021   0.02570   0.11095
 142        4S          0.00268  -0.00291  -0.00053   0.00096   0.22633
 143        5S          0.00025  -0.00025   0.00073   0.00070   0.01345
 144        6PX         0.00000   0.00000   0.00000   0.00000   0.00000
 145        6PY         0.00107  -0.00129  -0.00144  -0.00089   0.00465
 146        6PZ        -0.00089   0.00080   0.00112   0.00057  -0.01953
 147        7PX         0.00000   0.00000   0.00000   0.00000   0.00000
 148        7PY         0.00097  -0.00061   0.00015   0.00041   0.00179
 149        7PZ        -0.00090   0.00022   0.00011  -0.00050  -0.02154
 150        8PX         0.00000   0.00000   0.00000   0.00000   0.00000
 151        8PY         0.00051  -0.00028  -0.00088  -0.00114   0.01064
 152        8PZ        -0.00030  -0.00008   0.00147   0.00060  -0.02293
 153        9PX         0.00000   0.00000   0.00000   0.00000   0.00000
 154        9PY         0.00006   0.00003  -0.00039  -0.00009   0.00088
 155        9PZ        -0.00003   0.00038   0.00009   0.00025  -0.00093
 156       10D 0        0.00000  -0.00001   0.00000   0.00001  -0.00011
 157       10D+1        0.00000   0.00000   0.00000   0.00000   0.00000
 158       10D-1       -0.00003   0.00002  -0.00001  -0.00004  -0.00064
 159       10D+2        0.00001  -0.00001  -0.00001  -0.00002  -0.00063
 160       10D-2        0.00000   0.00000   0.00000   0.00000   0.00000
 161       11D 0       -0.00007   0.00004   0.00007  -0.00006  -0.00091
 162       11D+1        0.00000   0.00000   0.00000   0.00000   0.00000
 163       11D-1        0.00035  -0.00002   0.00024   0.00044  -0.00336
 164       11D+2        0.00009   0.00003   0.00018   0.00019  -0.00318
 165       11D-2        0.00000   0.00000   0.00000   0.00000   0.00000
 166       12D 0       -0.00011   0.00000   0.00024   0.00004  -0.00013
 167       12D+1        0.00000   0.00000   0.00000   0.00000   0.00000
 168       12D-1        0.00001   0.00001  -0.00040  -0.00020   0.00268
 169       12D+2        0.00018  -0.00009  -0.00022  -0.00024   0.00120
 170       12D-2        0.00000   0.00000   0.00000   0.00000   0.00000
 171       13F 0        0.00000  -0.00002   0.00000  -0.00001  -0.00033
 172       13F+1        0.00000   0.00000   0.00000   0.00000   0.00000
 173       13F-1        0.00001   0.00003   0.00000   0.00002  -0.00009
 174       13F+2        0.00001   0.00003   0.00002   0.00003  -0.00044
 175       13F-2        0.00000   0.00000   0.00000   0.00000   0.00000
 176       13F+3        0.00000   0.00000   0.00000   0.00000   0.00000
 177       13F-3       -0.00001   0.00000  -0.00006  -0.00001   0.00039
 178       14F 0        0.00013  -0.00001   0.00003   0.00013  -0.00032
 179       14F+1        0.00000   0.00000   0.00000   0.00000   0.00000
 180       14F-1        0.00020  -0.00017  -0.00003   0.00012   0.00002
 181       14F+2        0.00025  -0.00022   0.00000   0.00014  -0.00097
 182       14F-2        0.00000   0.00000   0.00000   0.00000   0.00000
 183       14F+3        0.00000   0.00000   0.00000   0.00000   0.00000
 184       14F-3       -0.00004   0.00003   0.00012  -0.00003   0.00049
                           6         7         8         9        10
     Eigenvalues --     1.98559   1.98140   1.97343   1.97130   1.96823
   1 1   O  1S         -0.00021  -0.19126  -0.03766   0.00034   0.00000
   2        2S          0.00048   0.49220   0.10434  -0.00089   0.00000
   3        3S          0.00014   0.13819   0.03096  -0.00027   0.00000
   4        4S         -0.00013   0.30635   0.08921  -0.00071   0.00000
   5        5S         -0.00033   0.03399  -0.00666  -0.00033   0.00000
   6        6PX         0.00000   0.00000   0.00000   0.00000  -0.00687
   7        6PY         0.02076  -0.00021   0.00045  -0.05002   0.00000
   8        6PZ        -0.00027   0.00054   0.02514  -0.00077   0.00000
   9        7PX         0.00000   0.00000   0.00000   0.00000  -0.00929
  10        7PY         0.02590  -0.00028   0.00064  -0.06799   0.00000
  11        7PZ        -0.00027  -0.00497   0.02561  -0.00097   0.00000
  12        8PX         0.00000   0.00000   0.00000   0.00000  -0.01787
  13        8PY         0.01643  -0.00035   0.00060  -0.06737   0.00000
  14        8PZ        -0.00001   0.04822   0.00498  -0.00058   0.00000
  15        9PX         0.00000   0.00000   0.00000   0.00000  -0.00925
  16        9PY        -0.00181  -0.00008  -0.00004   0.00658   0.00000
  17        9PZ         0.00010   0.00291   0.00452   0.00000   0.00000
  18       10D 0        0.00001   0.00473  -0.00108   0.00003   0.00000
  19       10D+1        0.00000   0.00000   0.00000   0.00000  -0.00190
  20       10D-1       -0.00074   0.00001  -0.00004   0.00314   0.00000
  21       10D+2        0.00000  -0.00002   0.00048   0.00000   0.00000
  22       10D-2        0.00000   0.00000   0.00000   0.00000  -0.00004
  23       11D 0        0.00000   0.01176  -0.00040   0.00010   0.00000
  24       11D+1        0.00000   0.00000   0.00000   0.00000  -0.00224
  25       11D-1       -0.00189   0.00005  -0.00015   0.01372   0.00000
  26       11D+2       -0.00002   0.00007   0.00080   0.00002   0.00000
  27       11D-2        0.00000   0.00000   0.00000   0.00000  -0.00049
  28       12D 0       -0.00003  -0.01287   0.00738   0.00009   0.00000
  29       12D+1        0.00000   0.00000   0.00000   0.00000   0.00039
  30       12D-1       -0.00048   0.00008  -0.00006   0.01394   0.00000
  31       12D+2       -0.00005   0.00038   0.00077   0.00007   0.00000
  32       12D-2        0.00000   0.00000   0.00000   0.00000  -0.00130
  33       13F 0        0.00000  -0.00277   0.00065  -0.00001   0.00000
  34       13F+1        0.00000   0.00000   0.00000   0.00000   0.00125
  35       13F-1        0.00075  -0.00001   0.00002  -0.00261   0.00000
  36       13F+2        0.00000   0.00023  -0.00018   0.00000   0.00000
  37       13F-2        0.00000   0.00000   0.00000   0.00000   0.00007
  38       13F+3        0.00000   0.00000   0.00000   0.00000  -0.00021
  39       13F-3        0.00000   0.00000   0.00000  -0.00006   0.00000
  40       14F 0        0.00003  -0.00057  -0.00041  -0.00005   0.00000
  41       14F+1        0.00000   0.00000   0.00000   0.00000  -0.00179
  42       14F-1        0.00008  -0.00001   0.00001  -0.00240   0.00000
  43       14F+2        0.00003  -0.00053   0.00095  -0.00002   0.00000
  44       14F-2        0.00000   0.00000   0.00000   0.00000   0.00052
  45       14F+3        0.00000   0.00000   0.00000   0.00000   0.00115
  46       14F-3        0.00034   0.00000   0.00002  -0.00056   0.00000
  47 2   C  1S         -0.00079  -0.06837  -0.01097  -0.00086   0.00000
  48        2S          0.00177   0.15835   0.02550   0.00230   0.00000
  49        3S          0.00035   0.03834   0.00682   0.00063   0.00000
  50        4S          0.00028   0.02715  -0.01795  -0.00015   0.00000
  51        5S          0.00003  -0.00238  -0.00051   0.00001   0.00000
  52        6PX         0.00000   0.00000   0.00000   0.00000   0.10249
  53        6PY         0.03707  -0.00017   0.00099  -0.07649   0.00000
  54        6PZ        -0.00040   0.08027  -0.05153  -0.00037   0.00000
  55        7PX         0.00000   0.00000   0.00000   0.00000   0.12928
  56        7PY         0.03119  -0.00043   0.00111  -0.09687   0.00000
  57        7PZ        -0.00048   0.05669  -0.08105  -0.00081   0.00000
  58        8PX         0.00000   0.00000   0.00000   0.00000   0.01736
  59        8PY        -0.01951  -0.00008  -0.00045   0.07363   0.00000
  60        8PZ         0.00042  -0.03065   0.02509  -0.00023   0.00000
  61        9PX         0.00000   0.00000   0.00000   0.00000   0.00209
  62        9PY         0.00170   0.00004   0.00004  -0.00462   0.00000
  63        9PZ        -0.00002  -0.00015   0.00220   0.00005   0.00000
  64       10D 0        0.00016   0.01245   0.01992   0.00009   0.00000
  65       10D+1        0.00000   0.00000   0.00000   0.00000  -0.01433
  66       10D-1       -0.00889  -0.00005   0.00024  -0.00996   0.00000
  67       10D+2       -0.00011  -0.00251   0.01027  -0.00004   0.00000
  68       10D-2        0.00000   0.00000   0.00000   0.00000  -0.00370
  69       11D 0        0.00019   0.00228   0.03782   0.00014   0.00000
  70       11D+1        0.00000   0.00000   0.00000   0.00000  -0.02407
  71       11D-1       -0.01053   0.00008   0.00021   0.00725   0.00000
  72       11D+2       -0.00017  -0.00749   0.02188  -0.00003   0.00000
  73       11D-2        0.00000   0.00000   0.00000   0.00000  -0.00604
  74       12D 0       -0.00001  -0.01213  -0.00430   0.00012   0.00000
  75       12D+1        0.00000   0.00000   0.00000   0.00000   0.00037
  76       12D-1        0.01013   0.00008  -0.00011  -0.01256   0.00000
  77       12D+2        0.00005  -0.00299   0.00096   0.00009   0.00000
  78       12D-2        0.00000   0.00000   0.00000   0.00000   0.00067
  79       13F 0        0.00006   0.00623  -0.00591  -0.00010   0.00000
  80       13F+1        0.00000   0.00000   0.00000   0.00000   0.00447
  81       13F-1        0.00201   0.00001  -0.00015   0.01097   0.00000
  82       13F+2        0.00013   0.00263   0.00011  -0.00005   0.00000
  83       13F-2        0.00000   0.00000   0.00000   0.00000   0.00175
  84       13F+3        0.00000   0.00000   0.00000   0.00000  -0.00758
  85       13F-3       -0.00206   0.00001  -0.00006   0.00530   0.00000
  86       14F 0        0.00006  -0.00236  -0.00744  -0.00013   0.00000
  87       14F+1        0.00000   0.00000   0.00000   0.00000  -0.00075
  88       14F-1        0.00562   0.00011  -0.00048   0.01576   0.00000
  89       14F+2        0.00009   0.00046  -0.00653  -0.00007   0.00000
  90       14F-2        0.00000   0.00000   0.00000   0.00000   0.00273
  91       14F+3        0.00000   0.00000   0.00000   0.00000  -0.00131
  92       14F-3        0.00088   0.00003  -0.00010  -0.00118   0.00000
  93 3   F  1S          0.14593   0.01941   0.01611   0.01703   0.00000
  94        2S         -0.37294  -0.04960  -0.04321  -0.04614   0.00000
  95        3S         -0.11423  -0.01560  -0.01453  -0.01579   0.00000
  96        4S         -0.24558  -0.05378  -0.03377  -0.05142   0.00000
  97        5S         -0.03113  -0.02256   0.00866   0.04896   0.00000
  98        6PX         0.00000   0.00000   0.00000   0.00000   0.29525
  99        6PY         0.03787  -0.00250   0.16777  -0.12882   0.00000
 100        6PZ         0.00864   0.04623  -0.19728   0.23232   0.00000
 101        7PX         0.00000   0.00000   0.00000   0.00000   0.36033
 102        7PY         0.04161  -0.00549   0.20333  -0.15664   0.00000
 103        7PZ         0.00702   0.05428  -0.23914   0.28069   0.00000
 104        8PX         0.00000   0.00000   0.00000   0.00000   0.24671
 105        8PY         0.03518  -0.01308   0.12715  -0.13347   0.00000
 106        8PZ         0.00395   0.02815  -0.16622   0.18600   0.00000
 107        9PX         0.00000   0.00000   0.00000   0.00000   0.01986
 108        9PY        -0.00127  -0.00329   0.01318   0.00056   0.00000
 109        9PZ        -0.00038  -0.00366  -0.01452   0.02612   0.00000
 110       10D 0       -0.00016   0.00060  -0.00266   0.00235   0.00000
 111       10D+1        0.00000   0.00000   0.00000   0.00000   0.00217
 112       10D-1       -0.00040   0.00079  -0.00064   0.00163   0.00000
 113       10D+2        0.00008  -0.00003  -0.00222   0.00055   0.00000
 114       10D-2        0.00000   0.00000   0.00000   0.00000   0.00339
 115       11D 0       -0.00104   0.00171  -0.00997   0.00860   0.00000
 116       11D+1        0.00000   0.00000   0.00000   0.00000   0.00918
 117       11D-1       -0.00393   0.00016  -0.00248   0.00607   0.00000
 118       11D+2        0.00183   0.00123  -0.00748   0.00182   0.00000
 119       11D-2        0.00000   0.00000   0.00000   0.00000   0.01390
 120       12D 0       -0.00191   0.00013  -0.00466   0.00786   0.00000
 121       12D+1        0.00000   0.00000   0.00000   0.00000   0.00474
 122       12D-1       -0.00022  -0.00219  -0.00376  -0.00210   0.00000
 123       12D+2       -0.00147   0.00181   0.00090   0.01021   0.00000
 124       12D-2        0.00000   0.00000   0.00000   0.00000   0.00854
 125       13F 0        0.00011   0.00005  -0.00067   0.00042   0.00000
 126       13F+1        0.00000   0.00000   0.00000   0.00000   0.00032
 127       13F-1       -0.00029   0.00047  -0.00175   0.00181   0.00000
 128       13F+2        0.00030  -0.00012  -0.00041  -0.00028   0.00000
 129       13F-2        0.00000   0.00000   0.00000   0.00000   0.00189
 130       13F+3        0.00000   0.00000   0.00000   0.00000  -0.00170
 131       13F-3        0.00001   0.00008  -0.00107   0.00023   0.00000
 132       14F 0        0.00037   0.00073  -0.00186   0.00032   0.00000
 133       14F+1        0.00000   0.00000   0.00000   0.00000   0.00034
 134       14F-1       -0.00098   0.00007  -0.00272   0.00305   0.00000
 135       14F+2        0.00098   0.00058  -0.00042  -0.00081   0.00000
 136       14F-2        0.00000   0.00000   0.00000   0.00000   0.00343
 137       14F+3        0.00000   0.00000   0.00000   0.00000  -0.00235
 138       14F-3        0.00065   0.00031  -0.00071   0.00085   0.00000
 139 4   F  1S         -0.15287   0.01884   0.01656  -0.01657   0.00000
 140        2S          0.39071  -0.04807  -0.04439   0.04474   0.00000
 141        3S          0.11970  -0.01513  -0.01492   0.01528   0.00000
 142        4S          0.25693  -0.05206  -0.03481   0.04908   0.00000
 143        5S          0.03183  -0.02188   0.00901  -0.04881   0.00000
 144        6PX         0.00000   0.00000   0.00000   0.00000   0.19851
 145        6PY         0.03797   0.00292  -0.16679  -0.13584   0.00000
 146        6PZ        -0.01015   0.04543  -0.19162  -0.23356   0.00000
 147        7PX         0.00000   0.00000   0.00000   0.00000   0.24248
 148        7PY         0.04160   0.00588  -0.20210  -0.16509   0.00000
 149        7PZ        -0.00877   0.05338  -0.23224  -0.28215   0.00000
 150        8PX         0.00000   0.00000   0.00000   0.00000   0.16632
 151        8PY         0.03547   0.01307  -0.12659  -0.13860   0.00000
 152        8PZ        -0.00548   0.02787  -0.16232  -0.18778   0.00000
 153        9PX         0.00000   0.00000   0.00000   0.00000   0.01132
 154        9PY        -0.00123   0.00312  -0.01330   0.00006   0.00000
 155        9PZ         0.00036  -0.00366  -0.01409  -0.02645   0.00000
 156       10D 0        0.00015   0.00059  -0.00259  -0.00238   0.00000
 157       10D+1        0.00000   0.00000   0.00000   0.00000   0.00154
 158       10D-1       -0.00041  -0.00077   0.00055   0.00154   0.00000
 159       10D+2       -0.00010  -0.00003  -0.00219  -0.00062   0.00000
 160       10D-2        0.00000   0.00000   0.00000   0.00000  -0.00257
 161       11D 0        0.00102   0.00163  -0.00973  -0.00875   0.00000
 162       11D+1        0.00000   0.00000   0.00000   0.00000   0.00669
 163       11D-1       -0.00403  -0.00009   0.00215   0.00577   0.00000
 164       11D+2       -0.00194   0.00122  -0.00741  -0.00209   0.00000
 165       11D-2        0.00000   0.00000   0.00000   0.00000  -0.01041
 166       12D 0        0.00190   0.00013  -0.00480  -0.00802   0.00000
 167       12D+1        0.00000   0.00000   0.00000   0.00000   0.00331
 168       12D-1       -0.00008   0.00212   0.00376  -0.00217   0.00000
 169       12D+2        0.00151   0.00176   0.00086  -0.01026   0.00000
 170       12D-2        0.00000   0.00000   0.00000   0.00000  -0.00708
 171       13F 0       -0.00012   0.00006  -0.00068  -0.00047   0.00000
 172       13F+1        0.00000   0.00000   0.00000   0.00000   0.00027
 173       13F-1       -0.00028  -0.00045   0.00167   0.00180   0.00000
 174       13F+2       -0.00031  -0.00011  -0.00044   0.00023   0.00000
 175       13F-2        0.00000   0.00000   0.00000   0.00000  -0.00135
 176       13F+3        0.00000   0.00000   0.00000   0.00000  -0.00135
 177       13F-3        0.00002  -0.00009   0.00105   0.00025   0.00000
 178       14F 0       -0.00037   0.00071  -0.00191  -0.00042   0.00000
 179       14F+1        0.00000   0.00000   0.00000   0.00000   0.00005
 180       14F-1       -0.00099   0.00000   0.00263   0.00309   0.00000
 181       14F+2       -0.00103   0.00060  -0.00048   0.00071   0.00000
 182       14F-2        0.00000   0.00000   0.00000   0.00000  -0.00257
 183       14F+3        0.00000   0.00000   0.00000   0.00000  -0.00154
 184       14F-3        0.00066  -0.00030   0.00070   0.00090   0.00000
                          11        12        13        14        15
     Eigenvalues --     1.96812   1.96665   1.96285   1.96115   1.95608
   1 1   O  1S          0.00000   0.05037   0.00119   0.00093  -0.00020
   2        2S          0.00000  -0.15191  -0.00399  -0.02445   0.00017
   3        3S          0.00000  -0.04667  -0.00130  -0.01135  -0.00002
   4        4S          0.00000  -0.21337  -0.00719  -0.13076  -0.00179
   5        5S          0.00000  -0.04588  -0.00156  -0.04339  -0.00044
   6        6PX         0.00134   0.00000   0.00000   0.00000   0.00000
   7        6PY         0.00000  -0.00393   0.23408  -0.00972   0.25534
   8        6PZ         0.00000  -0.16717  -0.00825  -0.26029  -0.00456
   9        7PX         0.00182   0.00000   0.00000   0.00000   0.00000
  10        7PY         0.00000  -0.00476   0.28575  -0.01190   0.31422
  11        7PZ         0.00000  -0.19371  -0.00977  -0.31268  -0.00545
  12        8PX         0.00327   0.00000   0.00000   0.00000   0.00000
  13        8PY         0.00000  -0.00318   0.18881  -0.00812   0.21508
  14        8PZ         0.00000  -0.08144  -0.00441  -0.15169  -0.00244
  15        9PX         0.00161   0.00000   0.00000   0.00000   0.00000
  16        9PY         0.00000  -0.00060   0.02590  -0.00117   0.02899
  17        9PZ         0.00000   0.00322  -0.00005  -0.00439  -0.00017
  18       10D 0        0.00000   0.00742   0.00038   0.01198   0.00022
  19       10D+1        0.00032   0.00000   0.00000   0.00000   0.00000
  20       10D-1        0.00000   0.00013  -0.00768   0.00022  -0.00490
  21       10D+2        0.00000   0.00008   0.00000   0.00022   0.00000
  22       10D-2       -0.00021   0.00000   0.00000   0.00000   0.00000
  23       11D 0        0.00000   0.01258   0.00081   0.02919   0.00054
  24       11D+1        0.00034   0.00000   0.00000   0.00000   0.00000
  25       11D-1        0.00000   0.00031  -0.01879   0.00057  -0.01214
  26       11D+2        0.00000  -0.00009   0.00002   0.00115   0.00004
  27       11D-2       -0.00275   0.00000   0.00000   0.00000   0.00000
  28       12D 0        0.00000  -0.00064   0.00009   0.00471   0.00004
  29       12D+1       -0.00006   0.00000   0.00000   0.00000   0.00000
  30       12D-1        0.00000   0.00016  -0.00874   0.00025  -0.00157
  31       12D+2        0.00000  -0.00065   0.00004   0.00302   0.00016
  32       12D-2       -0.00725   0.00000   0.00000   0.00000   0.00000
  33       13F 0        0.00000  -0.00255  -0.00014  -0.00477  -0.00009
  34       13F+1       -0.00021   0.00000   0.00000   0.00000   0.00000
  35       13F-1        0.00000  -0.00007   0.00419  -0.00010   0.00219
  36       13F+2        0.00000  -0.00028  -0.00002  -0.00069  -0.00001
  37       13F-2        0.00036   0.00000   0.00000   0.00000   0.00000
  38       13F+3        0.00003   0.00000   0.00000   0.00000   0.00000
  39       13F-3        0.00000  -0.00001   0.00065  -0.00003   0.00094
  40       14F 0        0.00000  -0.00092  -0.00014  -0.00667  -0.00015
  41       14F+1        0.00032   0.00000   0.00000   0.00000   0.00000
  42       14F-1        0.00000  -0.00008   0.00387  -0.00011   0.00252
  43       14F+2        0.00000  -0.00010  -0.00002  -0.00083  -0.00003
  44       14F-2        0.00302   0.00000   0.00000   0.00000   0.00000
  45       14F+3       -0.00019   0.00000   0.00000   0.00000   0.00000
  46       14F-3        0.00000  -0.00002   0.00082   0.00000  -0.00078
  47 2   C  1S          0.00000  -0.14339  -0.00397  -0.01964   0.00012
  48        2S          0.00000   0.39426   0.01116   0.05694  -0.00045
  49        3S          0.00000   0.10207   0.00281   0.01583   0.00000
  50        4S          0.00000   0.15870   0.00452  -0.02140  -0.00108
  51        5S          0.00000   0.00631   0.00030   0.00743   0.00020
  52        6PX        -0.01751   0.00000   0.00000   0.00000   0.00000
  53        6PY         0.00000  -0.00445   0.18026  -0.00076  -0.07168
  54        6PZ         0.00000  -0.00838   0.00355   0.22924   0.00496
  55        7PX        -0.02226   0.00000   0.00000   0.00000   0.00000
  56        7PY         0.00000  -0.00512   0.21705  -0.00141  -0.08057
  57        7PZ         0.00000  -0.02407   0.00294   0.22808   0.00553
  58        8PX        -0.00312   0.00000   0.00000   0.00000   0.00000
  59        8PY         0.00000  -0.00173   0.05483  -0.00078  -0.01374
  60        8PZ         0.00000  -0.00296  -0.00014   0.02768   0.00036
  61        9PX        -0.00034   0.00000   0.00000   0.00000   0.00000
  62        9PY         0.00000   0.00013  -0.00229   0.00013  -0.00301
  63        9PZ         0.00000  -0.00003   0.00002   0.00067   0.00006
  64       10D 0        0.00000   0.00812   0.00047   0.01839   0.00021
  65       10D+1        0.00252   0.00000   0.00000   0.00000   0.00000
  66       10D-1        0.00000   0.00030   0.00123  -0.00100   0.04360
  67       10D+2        0.00000  -0.00859  -0.00001   0.01156   0.00019
  68       10D-2       -0.01977   0.00000   0.00000   0.00000   0.00000
  69       11D 0        0.00000   0.00335   0.00025   0.01670   0.00005
  70       11D+1        0.00421   0.00000   0.00000   0.00000   0.00000
  71       11D-1        0.00000   0.00099  -0.02187  -0.00131   0.08714
  72       11D+2        0.00000  -0.02163  -0.00022   0.02376   0.00043
  73       11D-2       -0.03222   0.00000   0.00000   0.00000   0.00000
  74       12D 0        0.00000   0.00133  -0.00006  -0.00067  -0.00027
  75       12D+1       -0.00007   0.00000   0.00000   0.00000   0.00000
  76       12D-1        0.00000   0.00046  -0.00911  -0.00005   0.01282
  77       12D+2        0.00000   0.00358   0.00003   0.00230  -0.00013
  78       12D-2        0.00357   0.00000   0.00000   0.00000   0.00000
  79       13F 0        0.00000   0.00792   0.00023   0.00490   0.00012
  80       13F+1       -0.00084   0.00000   0.00000   0.00000   0.00000
  81       13F-1        0.00000  -0.00037   0.01428  -0.00041   0.00434
  82       13F+2        0.00000   0.00599   0.00011  -0.00101  -0.00004
  83       13F-2        0.00975   0.00000   0.00000   0.00000   0.00000
  84       13F+3        0.00129   0.00000   0.00000   0.00000   0.00000
  85       13F-3        0.00000  -0.00002   0.00031  -0.00009   0.00305
  86       14F 0        0.00000   0.00359  -0.00025  -0.01484  -0.00045
  87       14F+1        0.00008   0.00000   0.00000   0.00000   0.00000
  88       14F-1        0.00000  -0.00054   0.02989  -0.00093   0.01088
  89       14F+2        0.00000   0.00909   0.00001  -0.01265  -0.00041
  90       14F-2        0.01476   0.00000   0.00000   0.00000   0.00000
  91       14F+3        0.00015   0.00000   0.00000   0.00000   0.00000
  92       14F-3        0.00000   0.00003   0.00322  -0.00028   0.00903
  93 3   F  1S          0.00000   0.02048  -0.00418   0.00559  -0.02166
  94        2S          0.00000  -0.06341   0.01966  -0.00798   0.05289
  95        3S          0.00000  -0.02304   0.00909   0.00047   0.01375
  96        4S          0.00000  -0.12570   0.08819   0.04008  -0.01190
  97        5S          0.00000  -0.02558   0.03653   0.01355  -0.02525
  98        6PX         0.22718   0.00000   0.00000   0.00000   0.00000
  99        6PY         0.00000   0.13067  -0.17183  -0.08159   0.15366
 100        6PZ         0.00000   0.09820  -0.00714  -0.13149   0.11768
 101        7PX         0.27641   0.00000   0.00000   0.00000   0.00000
 102        7PY         0.00000   0.15563  -0.20608  -0.10165   0.18921
 103        7PZ         0.00000   0.11630  -0.00769  -0.16154   0.14447
 104        8PX         0.19027   0.00000   0.00000   0.00000   0.00000
 105        8PY         0.00000   0.07008  -0.10627  -0.05088   0.11526
 106        8PZ         0.00000   0.05241   0.00929  -0.10218   0.08001
 107        9PX         0.02157   0.00000   0.00000   0.00000   0.00000
 108        9PY         0.00000  -0.00288  -0.00497   0.00238   0.00674
 109        9PZ         0.00000   0.00043   0.01230  -0.00840   0.00771
 110       10D 0        0.00000   0.00000  -0.00007   0.00034  -0.00003
 111       10D+1        0.00142   0.00000   0.00000   0.00000   0.00000
 112       10D-1        0.00000   0.00393  -0.00313  -0.00264   0.00336
 113       10D+2        0.00000  -0.00261   0.00214   0.00216  -0.00199
 114       10D-2        0.00164   0.00000   0.00000   0.00000   0.00000
 115       11D 0        0.00000  -0.00033  -0.00233   0.00158  -0.00140
 116       11D+1        0.00559   0.00000   0.00000   0.00000   0.00000
 117       11D-1        0.00000   0.01108  -0.01136  -0.01170   0.01149
 118       11D+2        0.00000  -0.00793   0.00660   0.00852  -0.00764
 119       11D-2        0.00717   0.00000   0.00000   0.00000   0.00000
 120       12D 0        0.00000  -0.00123  -0.00748  -0.00078  -0.00394
 121       12D+1        0.00374   0.00000   0.00000   0.00000   0.00000
 122       12D-1        0.00000   0.00212  -0.00246  -0.00314   0.00233
 123       12D+2        0.00000  -0.00103  -0.00092   0.00490  -0.00512
 124       12D-2        0.00308   0.00000   0.00000   0.00000   0.00000
 125       13F 0        0.00000  -0.00101   0.00088   0.00091  -0.00093
 126       13F+1        0.00012   0.00000   0.00000   0.00000   0.00000
 127       13F-1        0.00000   0.00074  -0.00051  -0.00065   0.00081
 128       13F+2        0.00000  -0.00157   0.00158   0.00150  -0.00154
 129       13F-2        0.00119   0.00000   0.00000   0.00000   0.00000
 130       13F+3       -0.00062   0.00000   0.00000   0.00000   0.00000
 131       13F-3        0.00000  -0.00085   0.00069   0.00092  -0.00064
 132       14F 0        0.00000  -0.00087   0.00015   0.00218  -0.00198
 133       14F+1        0.00088   0.00000   0.00000   0.00000   0.00000
 134       14F-1        0.00000   0.00074  -0.00333  -0.00042   0.00043
 135       14F+2        0.00000  -0.00256   0.00263   0.00308  -0.00250
 136       14F-2        0.00197   0.00000   0.00000   0.00000   0.00000
 137       14F+3       -0.00189   0.00000   0.00000   0.00000   0.00000
 138       14F-3        0.00000  -0.00158   0.00142   0.00161  -0.00174
 139 4   F  1S          0.00000   0.02061   0.00531   0.00441   0.02165
 140        2S          0.00000  -0.06311  -0.02278  -0.00472  -0.05242
 141        3S          0.00000  -0.02277  -0.01009   0.00143  -0.01343
 142        4S          0.00000  -0.12040  -0.09237   0.04231   0.01424
 143        5S          0.00000  -0.02244  -0.03760   0.01392   0.02544
 144        6PX        -0.31554   0.00000   0.00000   0.00000   0.00000
 145        6PY         0.00000  -0.11736  -0.17464   0.07934   0.15806
 146        6PZ         0.00000   0.10007   0.00923  -0.12686  -0.12591
 147        7PX        -0.38418   0.00000   0.00000   0.00000   0.00000
 148        7PY         0.00000  -0.13965  -0.20924   0.09861   0.19466
 149        7PZ         0.00000   0.11864   0.00996  -0.15576  -0.15459
 150        8PX        -0.26477   0.00000   0.00000   0.00000   0.00000
 151        8PY         0.00000  -0.06128  -0.10793   0.04865   0.11837
 152        8PZ         0.00000   0.05522  -0.00889  -0.09869  -0.08649
 153        9PX        -0.02738   0.00000   0.00000   0.00000   0.00000
 154        9PY         0.00000   0.00299  -0.00494  -0.00254   0.00666
 155        9PZ         0.00000   0.00132  -0.01256  -0.00755  -0.00842
 156       10D 0        0.00000   0.00008   0.00011   0.00030   0.00000
 157       10D+1       -0.00207   0.00000   0.00000   0.00000   0.00000
 158       10D-1        0.00000  -0.00374  -0.00322   0.00258   0.00349
 159       10D+2        0.00000  -0.00242  -0.00215   0.00209   0.00207
 160       10D-2        0.00266   0.00000   0.00000   0.00000   0.00000
 161       11D 0        0.00000  -0.00021   0.00244   0.00119   0.00126
 162       11D+1       -0.00839   0.00000   0.00000   0.00000   0.00000
 163       11D-1        0.00000  -0.01039  -0.01137   0.01157   0.01216
 164       11D+2        0.00000  -0.00733  -0.00653   0.00821   0.00798
 165       11D-2        0.01136   0.00000   0.00000   0.00000   0.00000
 166       12D 0        0.00000  -0.00135   0.00738  -0.00131   0.00390
 167       12D+1       -0.00527   0.00000   0.00000   0.00000   0.00000
 168       12D-1        0.00000  -0.00203  -0.00241   0.00323   0.00256
 169       12D+2        0.00000  -0.00087   0.00094   0.00459   0.00534
 170       12D-2        0.00599   0.00000   0.00000   0.00000   0.00000
 171       13F 0        0.00000  -0.00093  -0.00089   0.00087   0.00097
 172       13F+1       -0.00024   0.00000   0.00000   0.00000   0.00000
 173       13F-1        0.00000  -0.00076  -0.00055   0.00066   0.00089
 174       13F+2        0.00000  -0.00146  -0.00158   0.00147   0.00162
 175       13F-2        0.00175   0.00000   0.00000   0.00000   0.00000
 176       13F+3        0.00113   0.00000   0.00000   0.00000   0.00000
 177       13F-3        0.00000   0.00078   0.00068  -0.00089  -0.00068
 178       14F 0        0.00000  -0.00085  -0.00006   0.00203   0.00206
 179       14F+1       -0.00097   0.00000   0.00000   0.00000   0.00000
 180       14F-1        0.00000  -0.00061  -0.00336   0.00068   0.00054
 181       14F+2        0.00000  -0.00240  -0.00262   0.00308   0.00267
 182       14F-2        0.00306   0.00000   0.00000   0.00000   0.00000
 183       14F+3        0.00259   0.00000   0.00000   0.00000   0.00000
 184       14F-3        0.00000   0.00146   0.00142  -0.00156  -0.00179
                          16        17        18        19        20
     Eigenvalues --     1.93986   0.05900   0.03825   0.03631   0.02447
   1 1   O  1S          0.00000   0.00000  -0.03370   0.00426   0.07133
   2        2S          0.00000   0.00000   0.13834  -0.01756  -0.27673
   3        3S          0.00000   0.00000   0.05010  -0.00653  -0.11575
   4        4S          0.00000   0.00000   0.17709  -0.02185  -0.49876
   5        5S          0.00000   0.00000   0.08279  -0.01000  -0.20280
   6        6PX         0.30121  -0.35155   0.00000   0.00000   0.00000
   7        6PY         0.00000   0.00000   0.04143   0.34062  -0.00016
   8        6PZ         0.00000   0.00000  -0.18984   0.02410   0.34669
   9        7PX         0.37594  -0.39421   0.00000   0.00000   0.00000
  10        7PY         0.00000   0.00000   0.03866   0.30893  -0.00067
  11        7PZ         0.00000   0.00000  -0.21772   0.02694   0.43088
  12        8PX         0.23974  -0.06940   0.00000   0.00000   0.00000
  13        8PY         0.00000   0.00000  -0.00428  -0.05073   0.00013
  14        8PZ         0.00000   0.00000   0.03078  -0.00496   0.15875
  15        9PX         0.01503  -0.00763   0.00000   0.00000   0.00000
  16        9PY         0.00000   0.00000  -0.00379  -0.03180   0.00006
  17        9PZ         0.00000   0.00000  -0.00527   0.00042   0.02035
  18       10D 0        0.00000   0.00000  -0.00317   0.00053   0.03087
  19       10D+1       -0.01118  -0.01640   0.00000   0.00000   0.00000
  20       10D-1        0.00000   0.00000   0.00322   0.02769  -0.00004
  21       10D+2        0.00000   0.00000  -0.00358   0.00048   0.00117
  22       10D-2        0.00001   0.00001   0.00000   0.00000   0.00000
  23       11D 0        0.00000   0.00000   0.00351  -0.00009   0.02469
  24       11D+1       -0.02917  -0.01830   0.00000   0.00000   0.00000
  25       11D-1        0.00000   0.00000   0.00584   0.05095  -0.00014
  26       11D+2        0.00000   0.00000  -0.00261   0.00049   0.00049
  27       11D-2        0.00000   0.00006   0.00000   0.00000   0.00000
  28       12D 0        0.00000   0.00000  -0.03300   0.00436  -0.02893
  29       12D+1       -0.00931   0.01920   0.00000   0.00000   0.00000
  30       12D-1        0.00000   0.00000   0.00047   0.00484  -0.00039
  31       12D+2        0.00000   0.00000   0.00525  -0.00049   0.00126
  32       12D-2       -0.00001   0.00002   0.00000   0.00000   0.00000
  33       13F 0        0.00000   0.00000  -0.00314   0.00037  -0.00194
  34       13F+1        0.00585   0.00446   0.00000   0.00000   0.00000
  35       13F-1        0.00000   0.00000  -0.00075  -0.00692  -0.00001
  36       13F+2        0.00000   0.00000  -0.00171   0.00023   0.00149
  37       13F-2       -0.00001   0.00002   0.00000   0.00000   0.00000
  38       13F+3        0.00100  -0.00260   0.00000   0.00000   0.00000
  39       13F-3        0.00000   0.00000   0.00022   0.00176   0.00001
  40       14F 0        0.00000   0.00000   0.00024  -0.00011  -0.00838
  41       14F+1        0.00367  -0.00390   0.00000   0.00000   0.00000
  42       14F-1        0.00000   0.00000  -0.00065  -0.00490   0.00015
  43       14F+2        0.00000   0.00000  -0.00271   0.00019  -0.00275
  44       14F-2        0.00000  -0.00002   0.00000   0.00000   0.00000
  45       14F+3        0.00059  -0.00167   0.00000   0.00000   0.00000
  46       14F-3        0.00000   0.00000   0.00027   0.00201  -0.00009
  47 2   C  1S          0.00000   0.00000   0.17622  -0.02195  -0.06131
  48        2S          0.00000   0.00000  -0.60686   0.07667   0.26457
  49        3S          0.00000   0.00000  -0.18481   0.02352   0.12237
  50        4S          0.00000   0.00000  -0.45684   0.05564   0.20082
  51        5S          0.00000   0.00000  -0.03932   0.00475   0.04243
  52        6PX         0.18329   0.32834   0.00000   0.00000   0.00000
  53        6PY         0.00000   0.00000  -0.04195  -0.34221   0.00028
  54        6PZ         0.00000   0.00000   0.11885  -0.01367   0.34721
  55        7PX         0.23364   0.46548   0.00000   0.00000   0.00000
  56        7PY         0.00000   0.00000  -0.07147  -0.59498   0.00141
  57        7PZ         0.00000   0.00000   0.19951  -0.02485   0.67617
  58        8PX         0.08703   0.13990   0.00000   0.00000   0.00000
  59        8PY         0.00000   0.00000  -0.01640  -0.13649  -0.00106
  60        8PZ         0.00000   0.00000  -0.03190   0.00437   0.14407
  61        9PX         0.00841   0.00742   0.00000   0.00000   0.00000
  62        9PY         0.00000   0.00000  -0.00037  -0.00332  -0.00003
  63        9PZ         0.00000   0.00000   0.00301  -0.00029   0.00722
  64       10D 0        0.00000   0.00000   0.00469  -0.00050  -0.03217
  65       10D+1        0.02593   0.00948   0.00000   0.00000   0.00000
  66       10D-1        0.00000   0.00000  -0.00240  -0.02103  -0.00010
  67       10D+2        0.00000   0.00000  -0.00056   0.00004  -0.00296
  68       10D-2        0.00006   0.00003   0.00000   0.00000   0.00000
  69       11D 0        0.00000   0.00000  -0.02383   0.00273   0.02755
  70       11D+1        0.04503   0.06069   0.00000   0.00000   0.00000
  71       11D-1        0.00000   0.00000   0.00938   0.07251  -0.00106
  72       11D+2        0.00000   0.00000   0.06125  -0.00785   0.02845
  73       11D-2        0.00016   0.00007   0.00000   0.00000   0.00000
  74       12D 0        0.00000   0.00000  -0.04090   0.00527   0.04640
  75       12D+1        0.00498   0.02197   0.00000   0.00000   0.00000
  76       12D-1        0.00000   0.00000  -0.00155  -0.01133   0.00060
  77       12D+2        0.00000   0.00000   0.00489  -0.00053   0.01099
  78       12D-2        0.00003   0.00003   0.00000   0.00000   0.00000
  79       13F 0        0.00000   0.00000  -0.00463   0.00056   0.01223
  80       13F+1        0.00771   0.01615   0.00000   0.00000   0.00000
  81       13F-1        0.00000   0.00000  -0.00353  -0.02676   0.00013
  82       13F+2        0.00000   0.00000  -0.02794   0.00351  -0.01277
  83       13F-2       -0.00002   0.00006   0.00000   0.00000   0.00000
  84       13F+3        0.00060  -0.00454   0.00000   0.00000   0.00000
  85       13F-3        0.00000   0.00000   0.00130   0.01171   0.00002
  86       14F 0        0.00000   0.00000  -0.04353   0.00617   0.00498
  87       14F+1        0.00768   0.02715   0.00000   0.00000   0.00000
  88       14F-1        0.00000   0.00000  -0.01919  -0.14930   0.00128
  89       14F+2        0.00000   0.00000  -0.03823   0.00509  -0.00641
  90       14F-2       -0.00003   0.00008   0.00000   0.00000   0.00000
  91       14F+3        0.00397   0.00760   0.00000   0.00000   0.00000
  92       14F-3        0.00000   0.00000  -0.00430  -0.03266   0.00059
  93 3   F  1S          0.00000   0.00000  -0.04668   0.05153  -0.01874
  94        2S          0.00000   0.00000   0.14597  -0.15193   0.04458
  95        3S          0.00000   0.00000   0.06564  -0.07495   0.02887
  96        4S          0.00000   0.00000   0.18873  -0.27707   0.10901
  97        5S          0.00000   0.00000   0.04290  -0.08589   0.05713
  98        6PX        -0.05782  -0.18572   0.00000   0.00000   0.00000
  99        6PY         0.00000   0.00000   0.26571  -0.13878   0.21444
 100        6PZ         0.00000   0.00000   0.11897  -0.23908  -0.17654
 101        7PX        -0.06989  -0.15275   0.00000   0.00000   0.00000
 102        7PY         0.00000   0.00000   0.25072  -0.16953   0.13734
 103        7PZ         0.00000   0.00000   0.13485  -0.20938  -0.06722
 104        8PX        -0.06368   0.02654   0.00000   0.00000   0.00000
 105        8PY         0.00000   0.00000  -0.02474  -0.19286  -0.07594
 106        8PZ         0.00000   0.00000   0.04831   0.08906   0.21655
 107        9PX        -0.01936  -0.00300   0.00000   0.00000   0.00000
 108        9PY         0.00000   0.00000   0.00275  -0.01256  -0.01271
 109        9PZ         0.00000   0.00000  -0.00968  -0.01010   0.03767
 110       10D 0        0.00000   0.00000   0.00290   0.00516   0.01261
 111       10D+1        0.00084   0.00408   0.00000   0.00000   0.00000
 112       10D-1        0.00000   0.00000  -0.00922   0.01261   0.00078
 113       10D+2        0.00000   0.00000   0.00815  -0.00534   0.01274
 114       10D-2        0.00077   0.00560   0.00000   0.00000   0.00000
 115       11D 0        0.00000   0.00000   0.01155   0.02622   0.03869
 116       11D+1        0.00260   0.01549   0.00000   0.00000   0.00000
 117       11D-1        0.00000   0.00000  -0.00985   0.02110   0.01261
 118       11D+2        0.00000   0.00000   0.01329   0.00040   0.03080
 119       11D-2        0.00199   0.01951   0.00000   0.00000   0.00000
 120       12D 0        0.00000   0.00000   0.01455   0.06459   0.02158
 121       12D+1        0.00224   0.01048   0.00000   0.00000   0.00000
 122       12D-1        0.00000   0.00000  -0.00509   0.00244   0.03107
 123       12D+2        0.00000   0.00000   0.01748   0.04159  -0.00067
 124       12D-2       -0.00158   0.00425   0.00000   0.00000   0.00000
 125       13F 0        0.00000   0.00000  -0.00044   0.00085   0.00155
 126       13F+1        0.00018   0.00051   0.00000   0.00000   0.00000
 127       13F-1        0.00000   0.00000   0.00126   0.00056   0.00313
 128       13F+2        0.00000   0.00000  -0.00148  -0.00030  -0.00038
 129       13F-2        0.00040   0.00085   0.00000   0.00000   0.00000
 130       13F+3       -0.00045  -0.00213   0.00000   0.00000   0.00000
 131       13F-3        0.00000   0.00000   0.00050   0.00067   0.00250
 132       14F 0        0.00000   0.00000   0.00309   0.00452   0.00113
 133       14F+1        0.00071   0.00149   0.00000   0.00000   0.00000
 134       14F-1        0.00000   0.00000   0.00206   0.01133   0.00469
 135       14F+2        0.00000   0.00000   0.00346  -0.00030   0.00141
 136       14F-2        0.00052   0.00404   0.00000   0.00000   0.00000
 137       14F+3        0.00080   0.00086   0.00000   0.00000   0.00000
 138       14F-3        0.00000   0.00000  -0.00005   0.00070   0.00134
 139 4   F  1S          0.00000   0.00000  -0.05732  -0.03832  -0.01886
 140        2S          0.00000   0.00000   0.17675   0.11064   0.04454
 141        3S          0.00000   0.00000   0.08086   0.05594   0.02905
 142        4S          0.00000   0.00000   0.24736   0.22105   0.10595
 143        5S          0.00000   0.00000   0.06196   0.07266   0.05787
 144        6PX        -0.05693  -0.18472   0.00000   0.00000   0.00000
 145        6PY         0.00000   0.00000  -0.29072  -0.06786  -0.21628
 146        6PZ         0.00000   0.00000   0.17518   0.20330  -0.17463
 147        7PX        -0.06878  -0.15184   0.00000   0.00000   0.00000
 148        7PY         0.00000   0.00000  -0.28312  -0.10212  -0.13783
 149        7PZ         0.00000   0.00000   0.18389   0.17117  -0.06624
 150        8PX        -0.06277   0.02766   0.00000   0.00000   0.00000
 151        8PY         0.00000   0.00000  -0.02151  -0.19448   0.08261
 152        8PZ         0.00000   0.00000   0.02523  -0.09718   0.21846
 153        9PX        -0.01917  -0.00260   0.00000   0.00000   0.00000
 154        9PY         0.00000   0.00000  -0.00540  -0.01176   0.01319
 155        9PZ         0.00000   0.00000  -0.00677   0.01190   0.03803
 156       10D 0        0.00000   0.00000   0.00149  -0.00577   0.01244
 157       10D+1        0.00083   0.00405   0.00000   0.00000   0.00000
 158       10D-1        0.00000   0.00000   0.01195   0.00977  -0.00040
 159       10D+2        0.00000   0.00000   0.00905   0.00303   0.01267
 160       10D-2       -0.00076  -0.00550   0.00000   0.00000   0.00000
 161       11D 0        0.00000   0.00000   0.00471  -0.02833   0.03886
 162       11D+1        0.00257   0.01552   0.00000   0.00000   0.00000
 163       11D-1        0.00000   0.00000   0.01486   0.01736  -0.01164
 164       11D+2        0.00000   0.00000   0.01269  -0.00392   0.03082
 165       11D-2       -0.00196  -0.01928   0.00000   0.00000   0.00000
 166       12D 0        0.00000   0.00000  -0.00190  -0.06654   0.02368
 167       12D+1        0.00222   0.01067   0.00000   0.00000   0.00000
 168       12D-1        0.00000   0.00000   0.00571   0.00016  -0.03064
 169       12D+2        0.00000   0.00000   0.00674  -0.04469   0.00082
 170       12D-2        0.00161  -0.00442   0.00000   0.00000   0.00000
 171       13F 0        0.00000   0.00000  -0.00060  -0.00065   0.00153
 172       13F+1        0.00017   0.00048   0.00000   0.00000   0.00000
 173       13F-1        0.00000   0.00000  -0.00113   0.00076  -0.00299
 174       13F+2        0.00000   0.00000  -0.00135   0.00062  -0.00033
 175       13F-2       -0.00039  -0.00081   0.00000   0.00000   0.00000
 176       13F+3       -0.00045  -0.00208   0.00000   0.00000   0.00000
 177       13F-3        0.00000   0.00000  -0.00032   0.00076  -0.00246
 178       14F 0        0.00000   0.00000   0.00178  -0.00558   0.00148
 179       14F+1        0.00071   0.00159   0.00000   0.00000   0.00000
 180       14F-1        0.00000   0.00000   0.00090   0.01144  -0.00496
 181       14F+2        0.00000   0.00000   0.00335  -0.00079   0.00149
 182       14F-2       -0.00049  -0.00407   0.00000   0.00000   0.00000
 183       14F+3        0.00081   0.00086   0.00000   0.00000   0.00000
 184       14F-3        0.00000   0.00000   0.00024   0.00074  -0.00139
                          21        22        23        24        25
     Eigenvalues --     0.01546   0.01408   0.01396   0.01350   0.01081
   1 1   O  1S         -0.03326   0.00000   0.00000   0.00075  -0.24019
   2        2S          0.06571   0.00000   0.00000  -0.00234   0.78065
   3        3S          0.10973   0.00000   0.00000  -0.00219   0.65966
   4        4S         -0.78978   0.00000   0.00000   0.00485  -1.20137
   5        5S         -0.44802   0.00000   0.00000   0.00052  -0.29489
   6        6PX         0.00000  -0.08182   0.24647   0.00000   0.00000
   7        6PY         0.00019   0.00000   0.00000   0.30382   0.00877
   8        6PZ         0.30207   0.00000   0.00000  -0.00195   0.20790
   9        7PX         0.00000  -0.06244   0.18788   0.00000   0.00000
  10        7PY         0.00016   0.00000   0.00000   0.16326   0.00503
  11        7PZ         0.29875   0.00000   0.00000  -0.00156  -0.02947
  12        8PX         0.00000   0.04437  -0.13399   0.00000   0.00000
  13        8PY        -0.00033   0.00000   0.00000  -0.18797  -0.00167
  14        8PZ         0.03961   0.00000   0.00000   0.00100  -0.10079
  15        9PX         0.00000   0.01003  -0.03029   0.00000   0.00000
  16        9PY         0.00029   0.00000   0.00000   0.00154  -0.00248
  17        9PZ         0.05766   0.00000   0.00000   0.00010   0.00044
  18       10D 0        0.05494   0.00000   0.00000  -0.00044  -0.01804
  19       10D+1        0.00000  -0.01276   0.03828   0.00000   0.00000
  20       10D-1       -0.00042   0.00000   0.00000  -0.00744   0.00021
  21       10D+2        0.01331   0.00000   0.00000  -0.00019  -0.02061
  22       10D-2        0.00000  -0.02213  -0.00771   0.00000   0.00000
  23       11D 0        0.08932   0.00000   0.00000  -0.00084  -0.06572
  24       11D+1        0.00000  -0.02387   0.07082   0.00000   0.00000
  25       11D-1       -0.00079   0.00000   0.00000  -0.04523  -0.00211
  26       11D+2        0.04548   0.00000   0.00000  -0.00074  -0.00695
  27       11D-2        0.00000  -0.07038  -0.02434   0.00000   0.00000
  28       12D 0        0.02287   0.00000   0.00000  -0.00061  -0.05111
  29       12D+1        0.00000   0.00497  -0.01513   0.00000   0.00000
  30       12D-1        0.00011   0.00000   0.00000  -0.04982  -0.00318
  31       12D+2        0.01907   0.00000   0.00000  -0.00035   0.01094
  32       12D-2        0.00000  -0.05128  -0.01748   0.00000   0.00000
  33       13F 0       -0.01003   0.00000   0.00000   0.00008   0.00118
  34       13F+1        0.00000   0.00219  -0.00635   0.00000   0.00000
  35       13F-1        0.00013   0.00000   0.00000   0.00550   0.00026
  36       13F+2       -0.00433   0.00000   0.00000   0.00004   0.00205
  37       13F-2        0.00000   0.00508   0.00177   0.00000   0.00000
  38       13F+3        0.00000   0.00017  -0.00066   0.00000   0.00000
  39       13F-3       -0.00002   0.00000   0.00000  -0.00142  -0.00005
  40       14F 0       -0.02616   0.00000   0.00000   0.00025   0.02179
  41       14F+1        0.00000   0.00337  -0.01006   0.00000   0.00000
  42       14F-1       -0.00016   0.00000   0.00000   0.00390   0.00029
  43       14F+2       -0.00084   0.00000   0.00000   0.00010  -0.00131
  44       14F-2        0.00000   0.02657   0.00895   0.00000   0.00000
  45       14F+3        0.00000  -0.00186   0.00598   0.00000   0.00000
  46       14F-3        0.00009   0.00000   0.00000   0.01272   0.00024
  47 2   C  1S         -0.03965   0.00000   0.00000   0.00088   0.00919
  48        2S          0.17250   0.00000   0.00000  -0.00445   0.05518
  49        3S          0.11921   0.00000   0.00000  -0.00220   0.05534
  50        4S         -0.12808   0.00000   0.00000  -0.00446   0.19660
  51        5S          0.06126   0.00000   0.00000  -0.00027   0.06169
  52        6PX         0.00000   0.03981  -0.11689   0.00000   0.00000
  53        6PY         0.00282   0.00000   0.00000   0.22077   0.00028
  54        6PZ         0.33440   0.00000   0.00000  -0.00086  -0.11541
  55        7PX         0.00000   0.05769  -0.17069   0.00000   0.00000
  56        7PY         0.00638   0.00000   0.00000   0.48013   0.00290
  57        7PZ         0.50116   0.00000   0.00000  -0.00026  -0.00570
  58        8PX         0.00000   0.05099  -0.15578   0.00000   0.00000
  59        8PY         0.00505   0.00000   0.00000   0.44382  -0.01168
  60        8PZ         0.44735   0.00000   0.00000  -0.00167  -0.02550
  61        9PX         0.00000   0.00253  -0.00750   0.00000   0.00000
  62        9PY        -0.00004   0.00000   0.00000  -0.00645   0.00070
  63        9PZ         0.02005   0.00000   0.00000  -0.00001   0.00465
  64       10D 0        0.05962   0.00000   0.00000  -0.00025  -0.02867
  65       10D+1        0.00000   0.03427  -0.10312   0.00000   0.00000
  66       10D-1        0.00008   0.00000   0.00000  -0.08512  -0.00123
  67       10D+2        0.04670   0.00000   0.00000  -0.00008  -0.02663
  68       10D-2        0.00000  -0.08601  -0.02947   0.00000   0.00000
  69       11D 0        0.18620   0.00000   0.00000   0.00060  -0.12340
  70       11D+1        0.00000   0.06498  -0.19803   0.00000   0.00000
  71       11D-1       -0.00122   0.00000   0.00000  -0.47036  -0.00976
  72       11D+2        0.18177   0.00000   0.00000   0.00021  -0.03943
  73       11D-2        0.00000  -0.13084  -0.04580   0.00000   0.00000
  74       12D 0        0.04853   0.00000   0.00000   0.00074   0.03267
  75       12D+1        0.00000   0.00192  -0.00634   0.00000   0.00000
  76       12D-1       -0.00164   0.00000   0.00000  -0.18985   0.00039
  77       12D+2        0.04318   0.00000   0.00000   0.00036   0.00695
  78       12D-2        0.00000   0.02407   0.00818   0.00000   0.00000
  79       13F 0       -0.01339   0.00000   0.00000  -0.00019  -0.00522
  80       13F+1        0.00000   0.00209  -0.00676   0.00000   0.00000
  81       13F-1        0.00028   0.00000   0.00000   0.04355  -0.00137
  82       13F+2       -0.01547   0.00000   0.00000  -0.00020  -0.00679
  83       13F-2        0.00000   0.02827   0.00951   0.00000   0.00000
  84       13F+3        0.00000   0.00803  -0.02507   0.00000   0.00000
  85       13F-3       -0.00015   0.00000   0.00000  -0.01139  -0.00070
  86       14F 0       -0.06856   0.00000   0.00000   0.00103  -0.05243
  87       14F+1        0.00000   0.01502  -0.04602   0.00000   0.00000
  88       14F-1       -0.00208   0.00000   0.00000  -0.12033  -0.00616
  89       14F+2       -0.07433   0.00000   0.00000   0.00081  -0.00416
  90       14F-2        0.00000   0.05879   0.02043   0.00000   0.00000
  91       14F+3        0.00000   0.00186  -0.00693   0.00000   0.00000
  92       14F-3       -0.00077   0.00000   0.00000  -0.07134  -0.00084
  93 3   F  1S          0.01390   0.00000   0.00000   0.04922  -0.02263
  94        2S         -0.02513   0.00000   0.00000  -0.12240   0.05490
  95        3S         -0.03793   0.00000   0.00000  -0.13618   0.05754
  96        4S          0.34422   0.00000   0.00000   0.68851  -0.11273
  97        5S          0.23802   0.00000   0.00000   0.53571  -0.00916
  98        6PX         0.00000  -0.30534  -0.52361   0.00000   0.00000
  99        6PY        -0.09237   0.00000   0.00000   0.34326   0.03343
 100        6PZ         0.32776   0.00000   0.00000  -0.01054  -0.11317
 101        7PX         0.00000  -0.09297  -0.15459   0.00000   0.00000
 102        7PY         0.01403   0.00000   0.00000   0.17935   0.00587
 103        7PZ         0.13955   0.00000   0.00000   0.05806  -0.02018
 104        8PX         0.00000   0.33115   0.64626   0.00000   0.00000
 105        8PY         0.20439   0.00000   0.00000  -0.25812  -0.04726
 106        8PZ        -0.27109   0.00000   0.00000   0.29695   0.13676
 107        9PX         0.00000   0.05270   0.09833   0.00000   0.00000
 108        9PY         0.05598   0.00000   0.00000   0.05285  -0.01318
 109        9PZ        -0.00284   0.00000   0.00000   0.05260   0.02094
 110       10D 0       -0.00131   0.00000   0.00000   0.00327   0.00041
 111       10D+1        0.00000   0.01548   0.00073   0.00000   0.00000
 112       10D-1       -0.01432   0.00000   0.00000  -0.02562   0.01724
 113       10D+2        0.00481   0.00000   0.00000   0.00997  -0.00156
 114       10D-2        0.00000   0.00333   0.01566   0.00000   0.00000
 115       11D 0        0.00264   0.00000   0.00000   0.00612  -0.00196
 116       11D+1        0.00000   0.04217   0.00586   0.00000   0.00000
 117       11D-1       -0.02513   0.00000   0.00000  -0.04706   0.05117
 118       11D+2        0.00998   0.00000   0.00000   0.00749  -0.00930
 119       11D-2        0.00000   0.01198   0.04841   0.00000   0.00000
 120       12D 0       -0.01221   0.00000   0.00000   0.06010  -0.00219
 121       12D+1        0.00000   0.02561   0.01548   0.00000   0.00000
 122       12D-1        0.00156   0.00000   0.00000   0.03157   0.04084
 123       12D+2        0.01193   0.00000   0.00000   0.03496  -0.00384
[...]
 111       10D+1        0.00000   0.00000   0.03118   0.00000   0.00000
 112       10D-1       -0.01283   0.02390   0.00000   0.00411   0.00195
 113       10D+2        0.02599  -0.01831   0.00000  -0.00645  -0.01089
 114       10D-2        0.00000   0.00000  -0.01011   0.00000   0.00000
 115       11D 0        0.04910  -0.04628   0.00000  -0.06837   0.01409
 116       11D+1        0.00000   0.00000  -0.11069   0.00000   0.00000
 117       11D-1        0.07390  -0.08256   0.00000  -0.03665  -0.01393
 118       11D+2       -0.09565   0.05602   0.00000   0.02662   0.03406
 119       11D-2        0.00000   0.00000   0.02331   0.00000   0.00000
 120       12D 0        0.41758   0.09917   0.00000   0.16181  -0.52104
 121       12D+1        0.00000   0.00000   0.26109   0.00000   0.00000
 122       12D-1        0.71170   0.49920   0.00000  -0.01453  -0.31261
 123       12D+2        0.11419  -0.12200   0.00000  -0.18789  -0.08902
 124       12D-2        0.00000   0.00000  -0.00574   0.00000   0.00000
 125       13F 0        0.00427   0.02241   0.00000  -0.01378   0.00340
 126       13F+1        0.00000   0.00000   0.00426   0.00000   0.00000
 127       13F-1       -0.04932   0.02244   0.00000   0.00337   0.01151
 128       13F+2        0.02783  -0.03346   0.00000   0.00022  -0.00598
 129       13F-2        0.00000   0.00000   0.01543   0.00000   0.00000
 130       13F+3        0.00000   0.00000   0.00756   0.00000   0.00000
 131       13F-3       -0.00900  -0.01918   0.00000   0.01589  -0.00932
 132       14F 0       -0.02105  -0.05358   0.00000   0.04327  -0.02151
 133       14F+1        0.00000   0.00000  -0.00250   0.00000   0.00000
 134       14F-1        0.15859  -0.04703   0.00000  -0.00128  -0.06815
 135       14F+2       -0.08493   0.05855   0.00000  -0.01062   0.02704
 136       14F-2        0.00000   0.00000  -0.04166   0.00000   0.00000
 137       14F+3        0.00000   0.00000  -0.00771   0.00000   0.00000
 138       14F-3        0.01624   0.04271   0.00000  -0.04639   0.01676
 139 4   F  1S          0.09512  -0.11469   0.00000   0.02002   0.00388
 140        2S          0.42857  -0.49283   0.00000   0.07639  -0.01132
 141        3S         -0.07826   0.12127   0.00000  -0.02776  -0.03445
 142        4S         -1.46311   3.35122   0.00000  -1.67607   0.58854
 143        5S          1.52485   6.29459   0.00000   2.57627   2.96477
 144        6PX         0.00000   0.00000  -0.00413   0.00000   0.00000
 145        6PY         0.00308  -0.00707   0.00000  -0.01241  -0.01154
 146        6PZ         0.01763   0.00455   0.00000  -0.00278   0.00723
 147        7PX         0.00000   0.00000   0.01045   0.00000   0.00000
 148        7PY        -0.00358   0.01928   0.00000   0.09891   0.05620
 149        7PZ        -0.09121  -0.01517   0.00000  -0.03441  -0.05939
 150        8PX         0.00000   0.00000   0.12253   0.00000   0.00000
 151        8PY         0.59182  -1.23950   0.00000   0.10229  -0.35686
 152        8PZ        -1.57048   1.32113   0.00000  -0.44471   1.47380
 153        9PX         0.00000   0.00000  -0.07392   0.00000   0.00000
 154        9PY        -1.75041  -1.42113   0.00000  -0.18423   0.56922
 155        9PZ         1.60863   3.31086   0.00000   2.37828   0.76893
 156       10D 0        0.00996   0.01339   0.00000   0.02062   0.00334
 157       10D+1        0.00000   0.00000   0.03122   0.00000   0.00000
 158       10D-1       -0.01298  -0.02410   0.00000  -0.00402   0.00162
 159       10D+2       -0.02612  -0.01887   0.00000  -0.00542   0.01070
 160       10D-2        0.00000   0.00000   0.01036   0.00000   0.00000
 161       11D 0       -0.05110  -0.04737   0.00000  -0.07000  -0.00977
 162       11D+1        0.00000   0.00000  -0.11045   0.00000   0.00000
 163       11D-1        0.07463   0.08224   0.00000   0.03668  -0.01450
 164       11D+2        0.09641   0.05706   0.00000   0.02388  -0.03403
 165       11D-2        0.00000   0.00000  -0.02444   0.00000   0.00000
 166       12D 0       -0.42012   0.10248   0.00000   0.20496   0.50983
 167       12D+1        0.00000   0.00000   0.26194   0.00000   0.00000
 168       12D-1        0.70815  -0.50170   0.00000  -0.00069  -0.31771
 169       12D+2       -0.11210  -0.12905   0.00000  -0.16778   0.10105
 170       12D-2        0.00000   0.00000   0.00387   0.00000   0.00000
 171       13F 0       -0.00426   0.02259   0.00000  -0.01399  -0.00259
 172       13F+1        0.00000   0.00000   0.00420   0.00000   0.00000
 173       13F-1       -0.04979  -0.02294   0.00000  -0.00249   0.01175
 174       13F+2       -0.02707  -0.03419   0.00000   0.00097   0.00531
 175       13F-2        0.00000   0.00000  -0.01486   0.00000   0.00000
 176       13F+3        0.00000   0.00000   0.00819   0.00000   0.00000
 177       13F-3       -0.00873   0.01912   0.00000  -0.01657  -0.00727
 178       14F 0        0.02008  -0.05417   0.00000   0.04555   0.01948
 179       14F+1        0.00000   0.00000  -0.00288   0.00000   0.00000
 180       14F-1        0.16076   0.04765   0.00000  -0.00378  -0.06778
 181       14F+2        0.08428   0.05921   0.00000  -0.01210  -0.02392
 182       14F-2        0.00000   0.00000   0.04036   0.00000   0.00000
 183       14F+3        0.00000   0.00000  -0.00942   0.00000   0.00000
 184       14F-3        0.01498  -0.04214   0.00000   0.04654   0.01093
                         181       182       183       184
     Eigenvalues --     0.00000   0.00000   0.00000   0.00000
   1 1   O  1S          0.00000   0.00045   0.11026  -0.05411
   2        2S          0.00000   0.00219   0.54896  -0.26948
   3        3S          0.00000  -0.00043  -0.04415   0.02685
   4        4S          0.00000  -0.04698  -2.97552   6.93049
   5        5S          0.00000  -0.04382 -10.57248  16.15874
   6        6PX         0.01344   0.00000   0.00000   0.00000
   7        6PY         0.00000  -0.00271   0.00000   0.00003
   8        6PZ         0.00000  -0.00002   0.01166  -0.00429
   9        7PX        -0.03752   0.00000   0.00000   0.00000
  10        7PY         0.00000   0.00997   0.00032   0.00028
  11        7PZ         0.00000  -0.00056  -0.07009  -0.12424
  12        8PX         0.72318   0.00000   0.00000   0.00000
  13        8PY         0.00000  -1.80291  -0.00628   0.02589
  14        8PZ         0.00000   0.02006   2.76136  -3.07887
  15        9PX        -1.53206   0.00000   0.00000   0.00000
  16        9PY         0.00000  -4.30709   0.01289   0.00333
  17        9PZ         0.00000   0.04019   2.84600  -3.46527
  18       10D 0        0.00000  -0.00036   0.01871  -0.00459
  19       10D+1        0.00831   0.00000   0.00000   0.00000
  20       10D-1        0.00000   0.00224   0.00014   0.00019
  21       10D+2        0.00000   0.00024  -0.00005  -0.00649
  22       10D-2       -0.00015   0.00000   0.00000   0.00000
  23       11D 0        0.00000   0.00138  -0.14481   0.09050
  24       11D+1       -0.09453   0.00000   0.00000   0.00000
  25       11D-1        0.00000   0.07935  -0.00069  -0.00152
  26       11D+2        0.00000  -0.00079  -0.00150   0.02751
  27       11D-2        0.00052   0.00000   0.00000   0.00000
  28       12D 0        0.00000  -0.00788  -0.79478   0.24799
  29       12D+1       -0.10907   0.00000   0.00000   0.00000
  30       12D-1        0.00000   1.07637   0.00073  -0.00926
  31       12D+2        0.00000  -0.00032  -0.03352   0.11346
  32       12D-2       -0.00064   0.00000   0.00000   0.00000
  33       13F 0        0.00000   0.00018   0.00263  -0.02156
  34       13F+1        0.00276   0.00000   0.00000   0.00000
  35       13F-1        0.00000   0.01536  -0.00009  -0.00011
  36       13F+2        0.00000  -0.00014  -0.00211   0.01957
  37       13F-2       -0.00017   0.00000   0.00000   0.00000
  38       13F+3       -0.00241   0.00000   0.00000   0.00000
  39       13F-3        0.00000  -0.00153   0.00017  -0.00007
  40       14F 0        0.00000   0.00057   0.11162   0.04172
  41       14F+1        0.05244   0.00000   0.00000   0.00000
  42       14F-1        0.00000  -0.18019   0.00076   0.00106
  43       14F+2        0.00000   0.00028   0.01197  -0.06732
  44       14F-2        0.00025   0.00000   0.00000   0.00000
  45       14F+3        0.02171   0.00000   0.00000   0.00000
  46       14F-3        0.00000   0.01894  -0.00060   0.00015
  47 2   C  1S          0.00000   0.00230   0.06750  -0.07659
  48        2S          0.00000   0.01323   0.41494  -0.40828
  49        3S          0.00000   0.00289   0.20628   0.18734
  50        4S          0.00000   0.13937  -4.57358 -18.06332
  51        5S          0.00000  -0.05116  -0.55322  -9.92564
  52        6PX        -0.00499   0.00000   0.00000   0.00000
  53        6PY         0.00000   0.02218  -0.00057   0.00000
  54        6PZ         0.00000  -0.00060  -0.01871   0.00546
  55        7PX        -0.07706   0.00000   0.00000   0.00000
  56        7PY         0.00000  -1.19381   0.03355   0.00539
  57        7PZ         0.00000   0.00579   1.63469  -0.16058
  58        8PX         0.66109   0.00000   0.00000   0.00000
  59        8PY         0.00000  -8.08059   0.16175  -0.00984
  60        8PZ         0.00000   0.08531   7.26735  -5.09087
  61        9PX         3.14521   0.00000   0.00000   0.00000
  62        9PY         0.00000   2.41668   0.00783   0.00568
  63        9PZ         0.00000   0.00160   1.94858  -0.01152
  64       10D 0        0.00000  -0.00030   0.01815   0.03488
  65       10D+1        0.00627   0.00000   0.00000   0.00000
  66       10D-1        0.00000  -0.01272  -0.00062  -0.00013
  67       10D+2        0.00000   0.00082  -0.00745  -0.02056
  68       10D-2       -0.00020   0.00000   0.00000   0.00000
  69       11D 0        0.00000  -0.00676   0.38582  -0.96981
  70       11D+1       -0.33134   0.00000   0.00000   0.00000
  71       11D-1        0.00000   2.32306  -0.01657  -0.00707
  72       11D+2        0.00000  -0.00770   0.88155   0.63032
  73       11D-2        0.00243   0.00000   0.00000   0.00000
  74       12D 0        0.00000  -0.01833   0.43289  -2.74414
  75       12D+1       -0.36558   0.00000   0.00000   0.00000
  76       12D-1        0.00000   4.62646  -0.02376  -0.01808
  77       12D+2        0.00000   0.00302   0.93697   0.02807
  78       12D-2       -0.00120   0.00000   0.00000   0.00000
  79       13F 0        0.00000  -0.00083  -0.05037  -0.02929
  80       13F+1       -0.04749   0.00000   0.00000   0.00000
  81       13F-1        0.00000  -0.00989  -0.00068  -0.00013
  82       13F+2        0.00000  -0.00057  -0.04547  -0.02272
  83       13F-2       -0.00043   0.00000   0.00000   0.00000
  84       13F+3        0.04643   0.00000   0.00000   0.00000
  85       13F-3        0.00000   0.06021  -0.00054   0.00006
  86       14F 0        0.00000   0.01225  -0.33482  -0.51149
  87       14F+1       -0.11282   0.00000   0.00000   0.00000
  88       14F-1        0.00000  -0.11556   0.00248  -0.01015
  89       14F+2        0.00000   0.00385  -0.23818  -0.38513
  90       14F-2       -0.00161   0.00000   0.00000   0.00000
  91       14F+3       -0.22642   0.00000   0.00000   0.00000
  92       14F-3        0.00000  -0.07744  -0.00104  -0.00137
  93 3   F  1S          0.00000   0.09675  -0.02437  -0.01750
  94        2S          0.00000   0.44935  -0.13582  -0.10079
  95        3S          0.00000  -0.06173  -0.01608  -0.01018
  96        4S          0.00000  -3.05909   1.89520   1.76100
  97        5S          0.00000 -16.37729   8.22419   2.62366
  98        6PX         0.01752   0.00000   0.00000   0.00000
  99        6PY         0.00000  -0.01045   0.01025   0.00485
 100        6PZ         0.00000  -0.00618   0.00727   0.00281
 101        7PX        -0.06741   0.00000   0.00000   0.00000
 102        7PY         0.00000   0.04938  -0.04571  -0.02096
 103        7PZ         0.00000   0.02183  -0.02842  -0.00986
 104        8PX         0.00778   0.00000   0.00000   0.00000
 105        8PY         0.00000  -2.50312   1.50076   1.25492
 106        8PZ         0.00000  -1.43008   1.33673   0.91689
 107        9PX        -1.35548   0.00000   0.00000   0.00000
 108        9PY         0.00000  -5.56856   1.51755   0.50216
 109        9PZ         0.00000  -1.93506   1.19622  -1.07307
 110       10D 0        0.00000   0.00193  -0.00445   0.00015
 111       10D+1       -0.00732   0.00000   0.00000   0.00000
 112       10D-1        0.00000  -0.00516  -0.00366  -0.00534
 113       10D+2        0.00000   0.01908  -0.00444   0.00094
 114       10D-2       -0.00847   0.00000   0.00000   0.00000
 115       11D 0        0.00000  -0.00968   0.02268  -0.00725
 116       11D+1        0.02409   0.00000   0.00000   0.00000
 117       11D-1        0.00000  -0.01452   0.04574   0.03156
 118       11D+2        0.00000  -0.04237  -0.00048  -0.01189
 119       11D-2        0.03121   0.00000   0.00000   0.00000
 120       12D 0        0.00000   0.26653   0.08260   0.00670
 121       12D+1       -0.16525   0.00000   0.00000   0.00000
 122       12D-1        0.00000  -0.67583   0.46813   0.24905
 123       12D+2        0.00000   0.64139  -0.19892  -0.17587
 124       12D-2       -0.13315   0.00000   0.00000   0.00000
 125       13F 0        0.00000  -0.01361   0.00346   0.00529
 126       13F+1        0.00548   0.00000   0.00000   0.00000
 127       13F-1        0.00000  -0.00213  -0.01239  -0.00226
 128       13F+2        0.00000   0.00662   0.00928   0.00169
 129       13F-2        0.01532   0.00000   0.00000   0.00000
 130       13F+3        0.00768   0.00000   0.00000   0.00000
 131       13F-3        0.00000   0.01000  -0.00935  -0.00827
 132       14F 0        0.00000   0.07092  -0.02362  -0.02482
 133       14F+1       -0.01936   0.00000   0.00000   0.00000
 134       14F-1        0.00000   0.00090   0.06221   0.00491
 135       14F+2        0.00000   0.03295  -0.05679  -0.01930
 136       14F-2       -0.03141   0.00000   0.00000   0.00000
 137       14F+3       -0.01773   0.00000   0.00000   0.00000
 138       14F-3        0.00000   0.01183   0.01395   0.00473
 139 4   F  1S          0.00000  -0.09591  -0.02226  -0.01731
 140        2S          0.00000  -0.44653  -0.12583  -0.09986
 141        3S          0.00000   0.05978  -0.01711  -0.01028
 142        4S          0.00000   3.00550   1.79640   1.73538
 143        5S          0.00000  16.43147   7.77540   2.61081
 144        6PX         0.01775   0.00000   0.00000   0.00000
 145        6PY         0.00000  -0.01077  -0.00983  -0.00493
 146        6PZ         0.00000   0.00641   0.00695   0.00292
 147        7PX        -0.06801   0.00000   0.00000   0.00000
 148        7PY         0.00000   0.05320   0.04473   0.02181
 149        7PZ         0.00000  -0.02404  -0.02767  -0.01060
 150        8PX         0.00739   0.00000   0.00000   0.00000
 151        8PY         0.00000  -2.50167  -1.42301  -1.24737
 152        8PZ         0.00000   1.43858   1.29759   0.91646
 153        9PX        -1.35688   0.00000   0.00000   0.00000
 154        9PY         0.00000  -5.56070  -1.39962  -0.50469
 155        9PZ         0.00000   1.97691   1.13785  -1.05465
 156       10D 0        0.00000  -0.00234  -0.00462   0.00010
 157       10D+1       -0.00750   0.00000   0.00000   0.00000
 158       10D-1        0.00000  -0.00539   0.00344   0.00534
 159       10D+2        0.00000  -0.01890  -0.00437   0.00081
 160       10D-2        0.00856   0.00000   0.00000   0.00000
 161       11D 0        0.00000   0.01167   0.02364  -0.00691
 162       11D+1        0.02448   0.00000   0.00000   0.00000
 163       11D-1        0.00000  -0.01420  -0.04372  -0.03134
 164       11D+2        0.00000   0.04186   0.00022  -0.01110
 165       11D-2       -0.03120   0.00000   0.00000   0.00000
 166       12D 0        0.00000  -0.26340   0.08918   0.00827
 167       12D+1       -0.16851   0.00000   0.00000   0.00000
 168       12D-1        0.00000  -0.68257  -0.45303  -0.25028
 169       12D+2        0.00000  -0.64524  -0.18296  -0.17690
 170       12D-2        0.13536   0.00000   0.00000   0.00000
 171       13F 0        0.00000   0.01351   0.00301   0.00521
 172       13F+1        0.00584   0.00000   0.00000   0.00000
 173       13F-1        0.00000  -0.00171   0.01261   0.00247
 174       13F+2        0.00000  -0.00600   0.00907   0.00182
 175       13F-2       -0.01547   0.00000   0.00000   0.00000
 176       13F+3        0.00772   0.00000   0.00000   0.00000
 177       13F-3        0.00000   0.00934   0.00952   0.00823
 178       14F 0        0.00000  -0.07077  -0.02126  -0.02460
 179       14F+1       -0.02028   0.00000   0.00000   0.00000
 180       14F-1        0.00000  -0.00121  -0.06289  -0.00563
 181       14F+2        0.00000  -0.03520  -0.05462  -0.01966
 182       14F-2        0.03230   0.00000   0.00000   0.00000
 183       14F+3       -0.01728   0.00000   0.00000   0.00000
 184       14F-3        0.00000   0.01388  -0.01531  -0.00476
          Condensed to atoms (all electrons):
              1          2          3          4
     1  O    7.942885   0.500260  -0.079852  -0.078121
     2  C    0.500260   4.518815   0.184998   0.184109
     3  F   -0.079852   0.184998   9.104612  -0.048946
     4  F   -0.078121   0.184109  -0.048946   9.108795
 Mulliken atomic charges:
              1
     1  O   -0.285171
     2  C    0.611819
     3  F   -0.160812
     4  F   -0.165836
 Sum of Mulliken atomic charges =   0.00000
 Mulliken charges with hydrogens summed into heavy atoms:
              1
     1  O   -0.285171
     2  C    0.611819
     3  F   -0.160812
     4  F   -0.165836
 Sum of Mulliken charges with hydrogens summed into heavy atoms =   0.00000
 Electronic spatial extent (au):  <R**2>=            240.2717
 Charge=              0.0000 electrons
 Dipole moment (field-independent basis, Debye):
    X=              0.0000    Y=             -0.0172    Z=             -1.0027  Tot=              1.0029
 Quadrupole moment (field-independent basis, Debye-Ang):
   XX=            -18.9116   YY=            -21.3350   ZZ=            -21.9452
   XY=              0.0000   XZ=              0.0000   YZ=              0.0217
 Traceless Quadrupole moment (field-independent basis, Debye-Ang):
   XX=              1.8190   YY=             -0.6044   ZZ=             -1.2146
   XY=              0.0000   XZ=              0.0000   YZ=              0.0217
 Octapole moment (field-independent basis, Debye-Ang**2):
  XXX=              0.0000  YYY=             -0.0491  ZZZ=             34.4990  XYY=              0.0000
  XXY=             -0.0139  XXZ=             10.4132  XZZ=              0.0000  YZZ=             -0.0442
  YYZ=             12.0953  XYZ=              0.0000
 Hexadecapole moment (field-independent basis, Debye-Ang**3):
 XXXX=            -13.4902 YYYY=            -80.0181 ZZZZ=           -133.2094 XXXY=              0.0000
 XXXZ=              0.0000 YYYX=              0.0000 YYYZ=              0.2009 ZZZX=              0.0000
 ZZZY=              0.2152 XXYY=            -15.6542 XXZZ=            -23.7032 YYZZ=            -36.3019
 XXYZ=              0.0644 YYXZ=              0.0000 ZZXY=              0.0000
 N-N= 1.197747896820D+02 E-N=-9.815882425213D+02  KE= 3.123668526927D+02
 1\1\GINC-TRAPISTA\SP\RQCISD-FC\Aug-CC-pVTZ\C1F2O1\BRUNS\27-Nov-2021\0\
 \# qcisd/aug-cc-pvtz nosymm density=current output=wfn\\f2co-wavefunct
 ion\\0,1\O,0,0.,0.,0.679927\C,0,0.,0.,-0.492216\F,0,0.,-1.058878,-1.26
 4305\F,0,0.,1.058878,-1.274305\\Version=EM64L-G09RevB.01\HF=-311.74082
 32\MP2=-312.6371857\MP3=-312.6245262\MP4D=-312.6401898\MP4DQ=-312.6240
 971\MP4SDQ=-312.6357623\QCISD=-312.6352544\RMSD=3.299e-09\Dipole=0.,-0
 .0067802,-0.3944973\Quadrupole=1.3523799,-0.4493401,-0.9030398,0.,0.,0
 .0161278\PG=CS [SG(C1F2O1)]\\@

 Writing a WFN file to GAUSSIAN.wfn.


 KNOWLEDGE IS EXPERIMENT'S DAUGHTER.
 -- LEONARDO DA VINCI, IN "PENSIERI" CA. 1492
 Job cpu time:  0 days  1 hours 50 minutes 39.7 seconds.
 File lengths (MBytes):  RWF=  17462 Int=      0 D2E=      0 Chk=      3 Scr=      1
 Normal termination of Gaussian 09 at Sat Nov 27 01:28:30 2021.
