 Entering Gaussian System, Link 0=/home/bruns/programas/chemistry/gaussian/g09/g09
 Input=GAUSSIAN.com
 Output=GAUSSIAN.log
 Initial command:
 /home/bruns/programas/chemistry/gaussian/g09/l1.exe /home/bruns/programas/chemistry/gaussian/work/Gau-18948.inp -scrdir=/home/bruns/programas/chemistry/gaussian/work/
 Entering Link 1 = /home/bruns/programas/chemistry/gaussian/g09/l1.exe PID=     18950.
  
 Copyright (c) 1988,1990,1992,1993,1995,1998,2003,2009,2010,
            Gaussian, Inc.  All Rights Reserved.
  
 This is part of the Gaussian(R) 09 program.  It is based on
 the Gaussian(R) 03 system (copyright 2003, Gaussian, Inc.),
 the Gaussian(R) 98 system (copyright 1998, Gaussian, Inc.),
 the Gaussian(R) 94 system (copyright 1995, Gaussian, Inc.),
 the Gaussian 92(TM) system (copyright 1992, Gaussian, Inc.),
 the Gaussian 90(TM) system (copyright 1990, Gaussian, Inc.),
 the Gaussian 88(TM) system (copyright 1988, Gaussian, Inc.),
 the Gaussian 86(TM) system (copyright 1986, Carnegie Mellon
 University), and the Gaussian 82(TM) system (copyright 1983,
 Carnegie Mellon University). Gaussian is a federally registered
 trademark of Gaussian, Inc.
  
 This software contains proprietary and confidential information,
 including trade secrets, belonging to Gaussian, Inc.
  
 This software is provided under written license and may be
 used, copied, transmitted, or stored only in accord with that
 written license.
  
 The following legend is applicable only to US Government
 contracts under FAR:
  
                    RESTRICTED RIGHTS LEGEND
  
 Use, reproduction and disclosure by the US Government is
 subject to restrictions as set forth in subparagraphs (a)
 and (c) of the Commercial Computer Software - Restricted
 Rights clause in FAR 52.227-19.
  
 Gaussian, Inc.
 340 Quinnipiac St., Bldg. 40, Wallingford CT 06492
  
  
 ---------------------------------------------------------------
 Warning -- This program may not be used in any manner that
 competes with the business of Gaussian, Inc. or will provide
 assistance to any competitor of Gaussian, Inc.  The licensee
 of this program is prohibited from giving any competitor of
 Gaussian, Inc. access to this program.  By using this program,
 the user acknowledges that Gaussian, Inc. is engaged in the
 business of creating and licensing software in the field of
 computational chemistry and represents and warrants to the
 licensee that it is not a competitor of Gaussian, Inc. and that
 it will not use this program in any manner prohibited above.
 ---------------------------------------------------------------
  

 Cite this work as:
 Gaussian 09, Revision B.01,
 M. J. Frisch, G. W. Trucks, H. B. Schlegel, G. E. Scuseria, 
 M. A. Robb, J. R. Cheeseman, G. Scalmani, V. Barone, B. Mennucci, 
 G. A. Petersson, H. Nakatsuji, M. Caricato, X. Li, H. P. Hratchian, 
 A. F. Izmaylov, J. Bloino, G. Zheng, J. L. Sonnenberg, M. Hada, 
 M. Ehara, K. Toyota, R. Fukuda, J. Hasegawa, M. Ishida, T. Nakajima, 
 Y. Honda, O. Kitao, H. Nakai, T. Vreven, J. A. Montgomery, Jr., 
 J. E. Peralta, F. Ogliaro, M. Bearpark, J. J. Heyd, E. Brothers, 
 K. N. Kudin, V. N. Staroverov, T. Keith, R. Kobayashi, J. Normand, 
 K. Raghavachari, A. Rendell, J. C. Burant, S. S. Iyengar, J. Tomasi, 
 M. Cossi, N. Rega, J. M. Millam, M. Klene, J. E. Knox, J. B. Cross, 
 V. Bakken, C. Adamo, J. Jaramillo, R. Gomperts, R. E. Stratmann, 
 O. Yazyev, A. J. Austin, R. Cammi, C. Pomelli, J. W. Ochterski, 
 R. L. Martin, K. Morokuma, V. G. Zakrzewski, G. A. Voth, 
 P. Salvador, J. J. Dannenberg, S. Dapprich, A. D. Daniels, 
 O. Farkas, J. B. Foresman, J. V. Ortiz, J. Cioslowski, 
 and D. J. Fox, Gaussian, Inc., Wallingford CT, 2010.
 
 ******************************************
 Gaussian 09:  EM64L-G09RevB.01 12-Aug-2010
                26-Nov-2021 
 ******************************************
 %nproc=8
 Will use up to    8 processors via shared memory.
 %mem=8GB
 -----------------------------------------------------
 # qcisd/aug-cc-pvtz nosymm density=current output=wfn
 -----------------------------------------------------
 1/30=1,38=1/1;
 2/12=2,15=1,17=6,18=5,40=1/2;
 3/5=16,6=1,7=10,11=9,16=1,25=1,30=1,71=1/1,2,3;
 4//1;
 5/5=2,38=5/2;
 8/6=4,9=120000,10=1/1,4;
 9/5=8,15=1/13;
 11/28=-7,31=1,32=3,42=3/11;
 10/5=6,13=10,31=1/2;
 6/7=2,8=2,9=2,10=2,22=-1,31=1/1;
 99/5=1,6=1100,9=1/99;
 -----------------
 f2co-wavefunction
 -----------------
 Symbolic Z-matrix:
 Charge =  0 Multiplicity = 1
 O                     0.        0.        0.67993 
 C                     0.01      0.       -0.49222 
 F                     0.       -1.05888  -1.26431 
 F                     0.        1.05888  -1.26431 
 
                          Input orientation:                          
 ---------------------------------------------------------------------
 Center     Atomic      Atomic             Coordinates (Angstroms)
 Number     Number       Type             X           Y           Z
 ---------------------------------------------------------------------
      1          8           0        0.000000    0.000000    0.679927
      2          6           0        0.010000    0.000000   -0.492216
      3          9           0        0.000000   -1.058878   -1.264305
      4          9           0        0.000000    1.058878   -1.264305
 ---------------------------------------------------------------------
                    Distance matrix (angstroms):
                    1          2          3          4
     1  O    0.000000
     2  C    1.172186   0.000000
     3  F    2.213879   1.310513   0.000000
     4  F    2.213879   1.310513   2.117756   0.000000
 Symmetry turned off by external request.
 Stoichiometry    CF2O
 Framework group  CS[SG(CO),X(F2)]
 Deg. of freedom     4
 Full point group                 CS      NOp   2
 Rotational constants (GHZ):     11.8622843     11.7725923      5.9087685
 Standard basis: Aug-CC-pVTZ (5D, 7F)
 Integral buffers will be    131072 words long.
 Raffenetti 1 integral format.
 Two-electron integral symmetry is turned off.
   184 basis functions,   288 primitive gaussians,   220 cartesian basis functions
    16 alpha electrons       16 beta electrons
       nuclear repulsion energy       119.9389995408 Hartrees.
 NAtoms=    4 NActive=    4 NUniq=    4 SFac= 1.00D+00 NAtFMM=   50 NAOKFM=F Big=F
 One-electron integrals computed using PRISM.
 NBasis=   184 RedAO= T  NBF=   184
 NBsUse=   184 1.00D-06 NBFU=   184
 Harris functional with IExCor=  205 diagonalized for initial guess.
 ExpMin= 3.57D-02 ExpMax= 1.95D+04 ExpMxC= 6.65D+02 IAcc=3 IRadAn=         0 AccDes= 0.00D+00
 HarFok:  IExCor=  205 AccDes= 0.00D+00 IRadAn=         0 IDoV= 1
 ScaDFX=  1.000000  1.000000  1.000000  1.000000
 FoFCou: FMM=F IPFlag=           0 FMFlag=      100000 FMFlg1=           0
         NFxFlg=           0 DoJE=T BraDBF=F KetDBF=T FulRan=T
         Omega=  0.000000  0.000000  1.000000  0.000000  0.000000 ICntrl=     500 IOpCl=  0
         NMat0=    1 NMatS0=    1 NMatT0=    0 NMatD0=    1 NMtDS0=    0 NMtDT0=    0
         I1Cent=           4 NGrid=           0.
 Symmetry not used in FoFCou.
 Requested convergence on RMS density matrix=1.00D-08 within 128 cycles.
 Requested convergence on MAX density matrix=1.00D-06.
 Requested convergence on             energy=1.00D-06.
 No special actions if energy rises.
 Keep R1 ints in memory in canonical form, NReq=301063473.
 SCF Done:  E(RHF) =  -311.741184424     A.U. after   11 cycles
             Convg  =    0.8489D-08             -V/T =  2.0014
 ExpMin= 3.57D-02 ExpMax= 1.95D+04 ExpMxC= 6.65D+02 IAcc=3 IRadAn=         5 AccDes= 0.00D+00
 HarFok:  IExCor=  205 AccDes= 0.00D+00 IRadAn=         5 IDoV=-2
 ScaDFX=  1.000000  1.000000  1.000000  1.000000
 DSYEVD returned Info=          93 IAlg= 4 N=    46 NDim=    46 NE2=    23339802 trying DSYEV.
 Range of M.O.s used for correlation:     5   184
 NBasis=   184 NAE=    16 NBE=    16 NFC=     4 NFV=     0
 NROrb=    180 NOA=    12 NOB=    12 NVA=   168 NVB=   168

 **** Warning!!: The largest alpha MO coefficient is  0.15466984D+02

 Semi-Direct transformation.
 ModeAB=           2 MOrb=            12 LenV=    1072785587
 LASXX=     33405819 LTotXX=    33405819 LenRXX=    33405819
 LTotAB=    33954012 MaxLAS=    52509600 LenRXY=    52509600
 NonZer=    66811638 LenScr=   100987392 LnRSAI=           0
 LnScr1=           0 LExtra=           0 Total=    186902811
 MaxDsk=          -1 SrtSym=           F ITran=            4
 JobTyp=0 Pass  1:  I=   1 to  12.
 (rs|ai) integrals will be sorted in core.
 Spin components of T(2) and E(2):
     alpha-alpha T2 =       0.2657505486D-01 E2=     -0.1191106224D+00
     alpha-beta  T2 =       0.1371362848D+00 E2=     -0.6576985298D+00
     beta-beta   T2 =       0.2657505486D-01 E2=     -0.1191106224D+00
 ANorm=    0.1091002472D+01
 E2 =    -0.8959197745D+00 EUMP2 =    -0.31263710419887D+03
 R2 and R3 integrals will be kept in memory, NReq=   596397230.
 Iterations=  50 Convergence= 0.100D-07
 Iteration Nr.   1
 **********************
 DD1Dir will call FoFMem   1 times, MxPair=       156
 NAB=    78 NAA=     0 NBB=     0.
 MP4(R+Q)=  0.16058640D-01
 E3=        0.12503661D-01        EUMP3=      -0.31262460054D+03
 E4(DQ)=    0.45666593D-03        UMP4(DQ)=   -0.31262414387D+03
 E4(SDQ)=  -0.11148507D-01        UMP4(SDQ)=  -0.31263574904D+03
 DE(Corr)= -0.86735747     E(Corr)=     -312.60854190    
 NORM(A)=   0.10858809D+01
 Iteration Nr.   2
 **********************
 DD1Dir will call FoFMem   1 times, MxPair=       156
 NAB=    78 NAA=     0 NBB=     0.
 DE(Corr)= -0.89322902     E(CORR)=     -312.63441344     Delta=-2.59D-02
 NORM(A)=   0.10931821D+01
 Iteration Nr.   3
 **********************
 DD1Dir will call FoFMem   1 times, MxPair=       156
 NAB=    78 NAA=     0 NBB=     0.
 DE(Corr)= -0.89147018     E(CORR)=     -312.63265461     Delta= 1.76D-03
 NORM(A)=   0.10954144D+01
 Iteration Nr.   4
 **********************
 DD1Dir will call FoFMem   1 times, MxPair=       156
 NAB=    78 NAA=     0 NBB=     0.
 DE(Corr)= -0.89377352     E(CORR)=     -312.63495794     Delta=-2.30D-03
 NORM(A)=   0.10962211D+01
 Iteration Nr.   5
 **********************
 DD1Dir will call FoFMem   1 times, MxPair=       156
 NAB=    78 NAA=     0 NBB=     0.
 DE(Corr)= -0.89403944     E(CORR)=     -312.63522386     Delta=-2.66D-04
 NORM(A)=   0.10964037D+01
 Iteration Nr.   6
 **********************
 DD1Dir will call FoFMem   1 times, MxPair=       156
 NAB=    78 NAA=     0 NBB=     0.
 DE(Corr)= -0.89406595     E(CORR)=     -312.63525037     Delta=-2.65D-05
 NORM(A)=   0.10964170D+01
 Iteration Nr.   7
 **********************
 DD1Dir will call FoFMem   1 times, MxPair=       156
 NAB=    78 NAA=     0 NBB=     0.
 DE(Corr)= -0.89406757     E(CORR)=     -312.63525199     Delta=-1.62D-06
 NORM(A)=   0.10964168D+01
 Iteration Nr.   8
 **********************
 DD1Dir will call FoFMem   1 times, MxPair=       156
 NAB=    78 NAA=     0 NBB=     0.
 DE(Corr)= -0.89406656     E(CORR)=     -312.63525098     Delta= 1.01D-06
 NORM(A)=   0.10964173D+01
 Iteration Nr.   9
 **********************
 DD1Dir will call FoFMem   1 times, MxPair=       156
 NAB=    78 NAA=     0 NBB=     0.
 DE(Corr)= -0.89406695     E(CORR)=     -312.63525138     Delta=-3.99D-07
 NORM(A)=   0.10964173D+01
 Iteration Nr.  10
 **********************
 DD1Dir will call FoFMem   1 times, MxPair=       156
 NAB=    78 NAA=     0 NBB=     0.
 DE(Corr)= -0.89406685     E(CORR)=     -312.63525128     Delta= 1.00D-07
 NORM(A)=   0.10964175D+01
 Iteration Nr.  11
 **********************
 DD1Dir will call FoFMem   1 times, MxPair=       156
 NAB=    78 NAA=     0 NBB=     0.
 DE(Corr)= -0.89406733     E(CORR)=     -312.63525175     Delta=-4.71D-07
 NORM(A)=   0.10964178D+01
 Iteration Nr.  12
 **********************
 DD1Dir will call FoFMem   1 times, MxPair=       156
 NAB=    78 NAA=     0 NBB=     0.
 DE(Corr)= -0.89406736     E(CORR)=     -312.63525178     Delta=-3.39D-08
 NORM(A)=   0.10964180D+01
 Iteration Nr.  13
 **********************
 DD1Dir will call FoFMem   1 times, MxPair=       156
 NAB=    78 NAA=     0 NBB=     0.
 DE(Corr)= -0.89406746     E(CORR)=     -312.63525188     Delta=-9.61D-08
 NORM(A)=   0.10964180D+01
 Iteration Nr.  14
 **********************
 DD1Dir will call FoFMem   1 times, MxPair=       156
 NAB=    78 NAA=     0 NBB=     0.
 DE(Corr)= -0.89406747     E(CORR)=     -312.63525190     Delta=-1.61D-08
 NORM(A)=   0.10964181D+01
 Iteration Nr.  15
 **********************
 DD1Dir will call FoFMem   1 times, MxPair=       156
 NAB=    78 NAA=     0 NBB=     0.
 DE(Corr)= -0.89406748     E(CORR)=     -312.63525191     Delta=-8.76D-09
 NORM(A)=   0.10964181D+01
 Iteration Nr.  16
 **********************
 DD1Dir will call FoFMem   1 times, MxPair=       156
 NAB=    78 NAA=     0 NBB=     0.
 DE(Corr)= -0.89406748     E(CORR)=     -312.63525191     Delta=-3.62D-09
 NORM(A)=   0.10964181D+01
 Largest amplitude= 5.77D-02

 Z-AMPLITUDE ITERATIONS

 Iteration Nr.   1
 **********************
 DD1Dir will call FoFMem   1 times, MxPair=       156
 NAB=    78 NAA=     0 NBB=     0.
 DE(Z)  -0.87476182D+00          E(Z)=    -0.31261594624D+03
 NORM(A)=   0.10963790D+01
 Iteration Nr.   2
 **********************
 DD1Dir will call FoFMem   1 times, MxPair=       156
 NAB=    78 NAA=     0 NBB=     0.
 DE(Z)  -0.87476169D+00          E(Z)=    -0.31261594611D+03
 NORM(A)=   0.10966874D+01
 Iteration Nr.   3
 **********************
 DD1Dir will call FoFMem   1 times, MxPair=       156
 NAB=    78 NAA=     0 NBB=     0.
 DE(Z)  -0.87476492D+00          E(Z)=    -0.31261594934D+03
 NORM(A)=   0.10962209D+01
 Iteration Nr.   4
 **********************
 DD1Dir will call FoFMem   1 times, MxPair=       156
 NAB=    78 NAA=     0 NBB=     0.
 DE(Z)  -0.87476021D+00          E(Z)=    -0.31261594463D+03
 NORM(A)=   0.10969198D+01
 Iteration Nr.   5
 **********************
 DD1Dir will call FoFMem   1 times, MxPair=       156
 NAB=    78 NAA=     0 NBB=     0.
 DE(Z)  -0.87476856D+00          E(Z)=    -0.31261595299D+03
 NORM(A)=   0.10919750D+01
 Iteration Nr.   6
 **********************
 DD1Dir will call FoFMem   1 times, MxPair=       156
 NAB=    78 NAA=     0 NBB=     0.
 DE(Z)  -0.87470627D+00          E(Z)=    -0.31261589069D+03
 NORM(A)=   0.10919749D+01
 Iteration Nr.   7
 **********************
 DD1Dir will call FoFMem   1 times, MxPair=       156
 NAB=    78 NAA=     0 NBB=     0.
 DE(Z)  -0.87470481D+00          E(Z)=    -0.31261588923D+03
 NORM(A)=   0.10919749D+01
 Iteration Nr.   8
 **********************
 DD1Dir will call FoFMem   1 times, MxPair=       156
 NAB=    78 NAA=     0 NBB=     0.
 DE(Z)  -0.87470530D+00          E(Z)=    -0.31261588973D+03
 NORM(A)=   0.10919752D+01
 Iteration Nr.   9
 **********************
 DD1Dir will call FoFMem   1 times, MxPair=       156
 NAB=    78 NAA=     0 NBB=     0.
 DE(Z)  -0.87470504D+00          E(Z)=    -0.31261588947D+03
 NORM(A)=   0.10919752D+01
 Iteration Nr.  10
 **********************
 DD1Dir will call FoFMem   1 times, MxPair=       156
 NAB=    78 NAA=     0 NBB=     0.
 DE(Z)  -0.87470514D+00          E(Z)=    -0.31261588956D+03
 NORM(A)=   0.10919753D+01
 Iteration Nr.  11
 **********************
 DD1Dir will call FoFMem   1 times, MxPair=       156
 NAB=    78 NAA=     0 NBB=     0.
 DE(Z)  -0.87470512D+00          E(Z)=    -0.31261588954D+03
 NORM(A)=   0.10919753D+01
 Iteration Nr.  12
 **********************
 DD1Dir will call FoFMem   1 times, MxPair=       156
 NAB=    78 NAA=     0 NBB=     0.
 DE(Z)  -0.87470513D+00          E(Z)=    -0.31261588955D+03
 NORM(A)=   0.10919753D+01
 Iteration Nr.  13
 **********************
 DD1Dir will call FoFMem   1 times, MxPair=       156
 NAB=    78 NAA=     0 NBB=     0.
 DE(Z)  -0.87470513D+00          E(Z)=    -0.31261588955D+03
 NORM(A)=   0.10919753D+01
 Discarding MO integrals.
          Differentiating once with respect to electric field.
                with respect to dipole field.
          Electric field/nuclear overlap derivatives assumed to be zero.
          Keep R1 ints in memory in canonical form, NReq=297441306.
          There are     1 degrees of freedom in the 1st order CPHF.  IDoFFX=0.
 LinEq1:  Iter=  0 NonCon=     1 RMS=3.07D-03 Max=8.43D-02
 AX will form     1 AO Fock derivatives at one time.
 LinEq1:  Iter=  1 NonCon=     1 RMS=7.55D-04 Max=1.11D-02
 LinEq1:  Iter=  2 NonCon=     1 RMS=2.24D-04 Max=3.37D-03
 LinEq1:  Iter=  3 NonCon=     1 RMS=9.88D-05 Max=1.54D-03
 LinEq1:  Iter=  4 NonCon=     1 RMS=2.27D-05 Max=3.72D-04
 LinEq1:  Iter=  5 NonCon=     1 RMS=1.09D-05 Max=2.97D-04
 LinEq1:  Iter=  6 NonCon=     1 RMS=2.61D-06 Max=4.74D-05
 LinEq1:  Iter=  7 NonCon=     1 RMS=5.34D-07 Max=1.03D-05
 LinEq1:  Iter=  8 NonCon=     1 RMS=9.47D-08 Max=1.20D-06
 LinEq1:  Iter=  9 NonCon=     1 RMS=1.31D-08 Max=1.78D-07
 LinEq1:  Iter= 10 NonCon=     1 RMS=1.98D-09 Max=2.19D-08
 LinEq1:  Iter= 11 NonCon=     1 RMS=4.24D-10 Max=6.15D-09
 LinEq1:  Iter= 12 NonCon=     0 RMS=6.08D-11 Max=4.81D-10
 Linear equations converged to 1.000D-10 1.000D-09 after    12 iterations.
 End of Minotr Frequency-dependent properties file   721 does not exist.
 End of Minotr Frequency-dependent properties file   722 does not exist.

 **********************************************************************

            Population analysis using the QCI/CC density.

 **********************************************************************

     Natural Orbital Coefficients:
                           1         2         3         4         5
     Eigenvalues --     2.00001   2.00000   2.00000   2.00000   1.98618
   1 1   O  1S         -0.63129  -0.72174   0.00000   0.19950  -0.01943
   2        2S          0.01166   0.01269   0.00000  -0.00382   0.04672
   3        3S         -0.02675  -0.03101   0.00000   0.00866   0.01304
   4        4S          0.00202   0.00275   0.00000  -0.00173  -0.00013
   5        5S         -0.00050   0.00091   0.00000  -0.00176  -0.01905
   6        6PX        -0.00004  -0.00001   0.00000  -0.00001   0.00012
   7        6PY         0.00000   0.00000  -0.00018   0.00000   0.00000
   8        6PZ         0.00404   0.00178   0.00000   0.00011  -0.01421
   9        7PX        -0.00002   0.00002   0.00000  -0.00003   0.00011
  10        7PY         0.00000   0.00000  -0.00012   0.00000   0.00000
  11        7PZ         0.00267  -0.00196   0.00000   0.00167  -0.01386
  12        8PX         0.00000  -0.00003   0.00000   0.00001  -0.00007
  13        8PY         0.00000   0.00000   0.00043   0.00000   0.00000
  14        8PZ         0.00320  -0.00075   0.00000   0.00059   0.00961
  15        9PX         0.00000   0.00000   0.00000   0.00000   0.00004
  16        9PY         0.00000   0.00000   0.00034   0.00000   0.00000
  17        9PZ         0.00035   0.00004   0.00000   0.00046   0.00545
  18       10D 0       -0.00026  -0.00011   0.00000  -0.00002   0.00115
  19       10D+1        0.00000   0.00000   0.00000   0.00000  -0.00001
  20       10D-1        0.00000   0.00000   0.00001   0.00000   0.00000
  21       10D+2        0.00005   0.00005   0.00000   0.00001   0.00002
  22       10D-2        0.00000   0.00000   0.00000   0.00000   0.00000
  23       11D 0       -0.00003   0.00091   0.00000  -0.00046  -0.00021
  24       11D+1        0.00000  -0.00001   0.00000   0.00000  -0.00001
  25       11D-1        0.00000   0.00000  -0.00005   0.00000   0.00000
  26       11D+2        0.00006   0.00001   0.00000  -0.00017  -0.00081
  27       11D-2        0.00000   0.00000   0.00001   0.00000   0.00000
  28       12D 0       -0.00044   0.00023   0.00000  -0.00009  -0.00566
  29       12D+1        0.00000   0.00001   0.00000  -0.00001   0.00004
  30       12D-1        0.00000   0.00000  -0.00013   0.00000   0.00000
  31       12D+2        0.00027  -0.00027   0.00000  -0.00017  -0.00213
  32       12D-2        0.00000   0.00000   0.00002   0.00000   0.00000
  33       13F 0       -0.00017   0.00008   0.00000  -0.00010  -0.00049
  34       13F+1        0.00000   0.00000   0.00000   0.00000   0.00000
  35       13F-1        0.00000   0.00000  -0.00002   0.00000   0.00000
  36       13F+2        0.00003   0.00002   0.00000   0.00002   0.00017
  37       13F-2        0.00000   0.00000   0.00000   0.00000   0.00000
  38       13F+3        0.00000   0.00000   0.00000   0.00000   0.00000
  39       13F-3        0.00000   0.00000   0.00002   0.00000   0.00000
  40       14F 0        0.00004  -0.00022   0.00000   0.00025   0.00165
  41       14F+1        0.00000   0.00001   0.00000   0.00000   0.00002
  42       14F-1        0.00000   0.00000   0.00008   0.00000   0.00000
  43       14F+2        0.00000   0.00002   0.00000   0.00017   0.00090
  44       14F-2        0.00000   0.00000  -0.00001   0.00000   0.00000
  45       14F+3        0.00000  -0.00001   0.00000  -0.00001  -0.00004
  46       14F-3        0.00000   0.00000  -0.00007   0.00000   0.00000
  47 2   C  1S          0.71627  -0.50386   0.00000   0.44199  -0.05154
  48        2S         -0.00912   0.00500   0.00000  -0.00397   0.10858
  49        3S          0.02924  -0.02123   0.00000   0.01786   0.02356
  50        4S         -0.00027   0.00065   0.00000   0.00014   0.01477
  51        5S          0.00023  -0.00010   0.00000   0.00036   0.00331
  52        6PX         0.00001  -0.00001   0.00000   0.00000  -0.00056
  53        6PY         0.00000   0.00000  -0.00003   0.00000   0.00000
  54        6PZ        -0.00185   0.00115   0.00000  -0.00107  -0.01578
  55        7PX        -0.00004   0.00004   0.00000  -0.00004  -0.00071
  56        7PY         0.00000   0.00000  -0.00091   0.00000   0.00000
  57        7PZ         0.00112  -0.00470   0.00000   0.00147  -0.01160
  58        8PX        -0.00002   0.00002   0.00000  -0.00001   0.00005
  59        8PY         0.00000   0.00000   0.00055   0.00000   0.00000
  60        8PZ         0.00080  -0.00026   0.00000   0.00202   0.01489
  61        9PX         0.00000   0.00000   0.00000  -0.00001  -0.00006
  62        9PY         0.00000   0.00000  -0.00029   0.00000   0.00000
  63        9PZ         0.00004  -0.00038   0.00000  -0.00006  -0.00015
  64       10D 0        0.00028  -0.00050   0.00000   0.00038   0.00513
  65       10D+1        0.00000   0.00001   0.00000   0.00000   0.00007
  66       10D-1        0.00000   0.00000   0.00018   0.00000   0.00000
  67       10D+2       -0.00041   0.00020   0.00000  -0.00042  -0.00852
  68       10D-2        0.00000   0.00000   0.00000   0.00000   0.00000
  69       11D 0       -0.00040  -0.00103   0.00000   0.00058   0.00660
  70       11D+1       -0.00001   0.00004   0.00000  -0.00002   0.00006
  71       11D-1        0.00000   0.00000   0.00099   0.00000   0.00000
  72       11D+2        0.00089  -0.00129   0.00000   0.00017  -0.00980
  73       11D-2        0.00000   0.00000   0.00001   0.00000   0.00000
  74       12D 0        0.00009   0.00060   0.00000   0.00030   0.00029
  75       12D+1       -0.00001   0.00000   0.00000  -0.00001  -0.00009
  76       12D-1        0.00000   0.00000  -0.00056   0.00000   0.00000
  77       12D+2        0.00005   0.00022   0.00000   0.00033   0.00346
  78       12D-2        0.00000   0.00000  -0.00001   0.00000   0.00000
  79       13F 0        0.00070  -0.00032   0.00000   0.00061   0.00431
  80       13F+1       -0.00001   0.00000   0.00000  -0.00001  -0.00009
  81       13F-1        0.00000   0.00000  -0.00023   0.00000   0.00000
  82       13F+2        0.00033   0.00010   0.00000   0.00060   0.00559
  83       13F-2        0.00000   0.00000  -0.00001   0.00000   0.00000
  84       13F+3        0.00000   0.00000   0.00000   0.00001   0.00008
  85       13F-3        0.00000   0.00000   0.00021   0.00000   0.00000
  86       14F 0       -0.00116   0.00045   0.00000   0.00056   0.00353
  87       14F+1        0.00000   0.00002   0.00000   0.00000   0.00005
  88       14F-1        0.00000   0.00000  -0.00087   0.00000   0.00000
  89       14F+2       -0.00098   0.00085   0.00000   0.00026   0.00488
  90       14F-2        0.00000   0.00000  -0.00004   0.00000   0.00000
  91       14F+3        0.00000   0.00001   0.00000   0.00000  -0.00001
  92       14F-3        0.00000   0.00000  -0.00006   0.00000   0.00000
  93 3   F  1S         -0.15773   0.30429   0.69212   0.60125  -0.14609
  94        2S          0.00335  -0.00549  -0.01112  -0.00905   0.37267
  95        3S         -0.00641   0.01289   0.02983   0.02617   0.11364
  96        4S          0.00267  -0.00292  -0.00058   0.00090   0.23161
  97        5S          0.00023  -0.00024   0.00070   0.00068   0.01424
  98        6PX        -0.00001   0.00002   0.00002   0.00001  -0.00022
  99        6PY        -0.00110   0.00130   0.00145   0.00093  -0.00564
 100        6PZ        -0.00089   0.00079   0.00111   0.00058  -0.01948
 101        7PX        -0.00001   0.00001   0.00000  -0.00001  -0.00024
 102        7PY        -0.00100   0.00063  -0.00015  -0.00043  -0.00286
 103        7PZ        -0.00091   0.00021   0.00012  -0.00050  -0.02145
 104        8PX         0.00001  -0.00001   0.00003   0.00001  -0.00031
 105        8PY        -0.00056   0.00030   0.00086   0.00112  -0.01192
 106        8PZ        -0.00031  -0.00008   0.00144   0.00059  -0.02300
 107        9PX         0.00000   0.00000   0.00000   0.00000  -0.00002
 108        9PY        -0.00007  -0.00003   0.00039   0.00009  -0.00089
 109        9PZ        -0.00004   0.00039   0.00008   0.00024  -0.00086
 110       10D 0        0.00000  -0.00001   0.00000   0.00000  -0.00011
 111       10D+1        0.00000   0.00000   0.00000   0.00000   0.00001
 112       10D-1        0.00003  -0.00002   0.00001   0.00004   0.00066
 113       10D+2        0.00001  -0.00001  -0.00002  -0.00002  -0.00064
 114       10D-2        0.00000   0.00000   0.00000   0.00000   0.00001
 115       11D 0       -0.00006   0.00004   0.00007  -0.00006  -0.00091
 116       11D+1        0.00000   0.00000   0.00000  -0.00001   0.00002
 117       11D-1       -0.00036   0.00003  -0.00024  -0.00046   0.00348
 118       11D+2        0.00010   0.00003   0.00019   0.00020  -0.00329
 119       11D-2        0.00000   0.00000   0.00000  -0.00001   0.00005
 120       12D 0       -0.00010   0.00000   0.00024   0.00005  -0.00002
 121       12D+1        0.00000   0.00000   0.00001   0.00001  -0.00002
 122       12D-1       -0.00002  -0.00001   0.00040   0.00019  -0.00275
 123       12D+2        0.00020  -0.00010  -0.00022  -0.00024   0.00129
 124       12D-2        0.00000  -0.00001   0.00001   0.00001  -0.00006
 125       13F 0        0.00000  -0.00002   0.00000  -0.00001  -0.00034
 126       13F+1        0.00000   0.00000   0.00000   0.00000   0.00000
 127       13F-1       -0.00001  -0.00003   0.00000  -0.00002   0.00009
 128       13F+2        0.00001   0.00003   0.00002   0.00003  -0.00046
 129       13F-2        0.00000   0.00000   0.00000   0.00000   0.00001
 130       13F+3        0.00000   0.00000   0.00000   0.00000  -0.00001
 131       13F-3        0.00001   0.00000   0.00006   0.00001  -0.00040
 132       14F 0        0.00014  -0.00001   0.00003   0.00014  -0.00031
 133       14F+1        0.00000   0.00000   0.00000   0.00000   0.00000
 134       14F-1       -0.00019   0.00017   0.00003  -0.00012   0.00000
 135       14F+2        0.00026  -0.00022   0.00000   0.00014  -0.00099
 136       14F-2        0.00000   0.00000   0.00000   0.00000   0.00001
 137       14F+3        0.00000   0.00000   0.00000   0.00000  -0.00002
 138       14F-3        0.00005  -0.00004  -0.00012   0.00003  -0.00052
 139 4   F  1S         -0.15773   0.30429  -0.69212   0.60125  -0.14609
 140        2S          0.00335  -0.00549   0.01112  -0.00905   0.37267
 141        3S         -0.00641   0.01289  -0.02983   0.02617   0.11364
 142        4S          0.00267  -0.00292   0.00058   0.00090   0.23161
 143        5S          0.00023  -0.00024  -0.00070   0.00068   0.01424
 144        6PX        -0.00001   0.00002  -0.00002   0.00001  -0.00022
 145        6PY         0.00110  -0.00130   0.00145  -0.00093   0.00564
 146        6PZ        -0.00089   0.00079  -0.00111   0.00058  -0.01948
 147        7PX        -0.00001   0.00001   0.00000  -0.00001  -0.00024
 148        7PY         0.00100  -0.00063  -0.00015   0.00043   0.00286
 149        7PZ        -0.00091   0.00021  -0.00012  -0.00050  -0.02145
 150        8PX         0.00001  -0.00001  -0.00003   0.00001  -0.00031
 151        8PY         0.00056  -0.00030   0.00086  -0.00112   0.01192
 152        8PZ        -0.00031  -0.00008  -0.00144   0.00059  -0.02300
 153        9PX         0.00000   0.00000   0.00000   0.00000  -0.00002
 154        9PY         0.00007   0.00003   0.00039  -0.00009   0.00089
 155        9PZ        -0.00004   0.00039  -0.00008   0.00024  -0.00086
 156       10D 0        0.00000  -0.00001   0.00000   0.00000  -0.00011
 157       10D+1        0.00000   0.00000   0.00000   0.00000   0.00001
 158       10D-1       -0.00003   0.00002   0.00001  -0.00004  -0.00066
 159       10D+2        0.00001  -0.00001   0.00002  -0.00002  -0.00064
 160       10D-2        0.00000   0.00000   0.00000   0.00000  -0.00001
 161       11D 0       -0.00006   0.00004  -0.00007  -0.00006  -0.00091
 162       11D+1        0.00000   0.00000   0.00000  -0.00001   0.00002
 163       11D-1        0.00036  -0.00003  -0.00024   0.00046  -0.00348
 164       11D+2        0.00010   0.00003  -0.00019   0.00020  -0.00329
 165       11D-2        0.00000   0.00000   0.00000   0.00001  -0.00005
 166       12D 0       -0.00010   0.00000  -0.00024   0.00005  -0.00002
 167       12D+1        0.00000   0.00000  -0.00001   0.00001  -0.00002
 168       12D-1        0.00002   0.00001   0.00040  -0.00019   0.00275
 169       12D+2        0.00020  -0.00010   0.00022  -0.00024   0.00129
 170       12D-2        0.00000   0.00001   0.00001  -0.00001   0.00006
 171       13F 0        0.00000  -0.00002   0.00000  -0.00001  -0.00034
 172       13F+1        0.00000   0.00000   0.00000   0.00000   0.00000
 173       13F-1        0.00001   0.00003   0.00000   0.00002  -0.00009
 174       13F+2        0.00001   0.00003  -0.00002   0.00003  -0.00046
 175       13F-2        0.00000   0.00000   0.00000   0.00000  -0.00001
 176       13F+3        0.00000   0.00000   0.00000   0.00000  -0.00001
 177       13F-3       -0.00001   0.00000   0.00006  -0.00001   0.00040
 178       14F 0        0.00014  -0.00001  -0.00003   0.00014  -0.00031
 179       14F+1        0.00000   0.00000   0.00000   0.00000   0.00000
 180       14F-1        0.00019  -0.00017   0.00003   0.00012   0.00000
 181       14F+2        0.00026  -0.00022   0.00000   0.00014  -0.00099
 182       14F-2        0.00000   0.00000   0.00000   0.00000  -0.00001
 183       14F+3        0.00000   0.00000   0.00000   0.00000  -0.00002
 184       14F-3       -0.00005   0.00004  -0.00012  -0.00003   0.00052
                           6         7         8         9        10
     Eigenvalues --     1.98560   1.98141   1.97345   1.97134   1.96828
   1 1   O  1S          0.00000  -0.19114  -0.03799   0.00000  -0.00325
   2        2S          0.00000   0.49178   0.10512   0.00000   0.00951
   3        3S          0.00000   0.13804   0.03119   0.00000   0.00290
   4        4S          0.00000   0.30618   0.08947   0.00000   0.01143
   5        5S          0.00000   0.03417  -0.00728   0.00000   0.00139
   6        6PX         0.00000  -0.00017  -0.00011   0.00000  -0.00675
   7        6PY         0.02083   0.00000   0.00000  -0.05085   0.00000
   8        6PZ         0.00000   0.00044   0.02516   0.00000   0.00815
   9        7PX         0.00000  -0.00020   0.00004   0.00000  -0.00911
  10        7PY         0.02602   0.00000   0.00000  -0.06907   0.00000
  11        7PZ         0.00000  -0.00512   0.02564   0.00000   0.00932
  12        8PX         0.00000  -0.00048   0.00045   0.00000  -0.01790
  13        8PY         0.01662   0.00000   0.00000  -0.06843   0.00000
  14        8PZ         0.00000   0.04806   0.00464   0.00000   0.00354
  15        9PX         0.00000  -0.00006   0.00026   0.00000  -0.00937
  16        9PY        -0.00183   0.00000   0.00000   0.00646   0.00000
  17        9PZ         0.00000   0.00288   0.00465   0.00000   0.00006
  18       10D 0        0.00000   0.00473  -0.00109   0.00000  -0.00040
  19       10D+1        0.00000  -0.00006   0.00003   0.00000  -0.00194
  20       10D-1       -0.00075   0.00000   0.00000   0.00318   0.00000
  21       10D+2        0.00000  -0.00003   0.00048   0.00000   0.00002
  22       10D-2        0.00001   0.00000   0.00000  -0.00001   0.00000
  23       11D 0        0.00000   0.01179  -0.00040   0.00000  -0.00058
  24       11D+1        0.00000  -0.00014  -0.00013   0.00000  -0.00233
  25       11D-1       -0.00193   0.00000   0.00000   0.01380   0.00000
  26       11D+2        0.00000   0.00007   0.00080   0.00000  -0.00004
  27       11D-2       -0.00001   0.00000   0.00000  -0.00016   0.00000
  28       12D 0        0.00000  -0.01282   0.00754   0.00000   0.00017
  29       12D+1        0.00000   0.00017  -0.00008   0.00000   0.00041
  30       12D-1       -0.00051   0.00000   0.00000   0.01398   0.00000
  31       12D+2        0.00000   0.00038   0.00073   0.00000  -0.00022
  32       12D-2       -0.00015   0.00000   0.00000  -0.00002   0.00000
  33       13F 0        0.00000  -0.00277   0.00065   0.00000   0.00015
  34       13F+1        0.00000   0.00005   0.00000   0.00000   0.00128
  35       13F-1        0.00076   0.00000   0.00000  -0.00263   0.00000
  36       13F+2        0.00000   0.00023  -0.00018   0.00000   0.00000
  37       13F-2       -0.00001   0.00000   0.00000   0.00004   0.00000
  38       13F+3        0.00000   0.00000   0.00000   0.00000  -0.00022
  39       13F-3        0.00000   0.00000   0.00000  -0.00006   0.00000
  40       14F 0        0.00000  -0.00058  -0.00039   0.00000   0.00003
  41       14F+1        0.00000   0.00003   0.00004   0.00000  -0.00181
  42       14F-1        0.00008   0.00000   0.00000  -0.00239   0.00000
  43       14F+2        0.00000  -0.00054   0.00095   0.00000   0.00017
  44       14F-2        0.00005   0.00000   0.00000   0.00008   0.00000
  45       14F+3        0.00000  -0.00001   0.00002   0.00000   0.00119
  46       14F-3        0.00035   0.00000   0.00000  -0.00058   0.00000
  47 2   C  1S          0.00000  -0.06836  -0.01112   0.00000   0.00771
  48        2S          0.00000   0.15839   0.02591   0.00000  -0.02123
  49        3S          0.00000   0.03834   0.00691   0.00000  -0.00552
  50        4S          0.00000   0.02753  -0.01764   0.00000  -0.00635
  51        5S          0.00000  -0.00233  -0.00026   0.00000  -0.00013
  52        6PX         0.00000  -0.00085  -0.00035   0.00000   0.10449
  53        6PY         0.03752   0.00000   0.00000  -0.07740   0.00000
  54        6PZ         0.00000   0.08040  -0.05182   0.00000   0.00160
  55        7PX         0.00000  -0.00095  -0.00057   0.00000   0.13168
  56        7PY         0.03135   0.00000   0.00000  -0.09798   0.00000
  57        7PZ         0.00000   0.05669  -0.08153   0.00000   0.00204
  58        8PX         0.00000   0.00001  -0.00022   0.00000   0.01768
  59        8PY        -0.01993   0.00000   0.00000   0.07394   0.00000
  60        8PZ         0.00000  -0.03067   0.02614   0.00000   0.00094
  61        9PX         0.00000  -0.00002  -0.00005   0.00000   0.00216
  62        9PY         0.00173   0.00000   0.00000  -0.00466   0.00000
  63        9PZ         0.00000  -0.00017   0.00215   0.00000  -0.00013
  64       10D 0        0.00000   0.01239   0.02006   0.00000  -0.00017
  65       10D+1        0.00000  -0.00023   0.00012   0.00000  -0.01455
  66       10D-1       -0.00892   0.00000   0.00000  -0.01008   0.00000
  67       10D+2        0.00000  -0.00253   0.01033   0.00000   0.00035
  68       10D-2       -0.00014   0.00000   0.00000   0.00023   0.00000
  69       11D 0        0.00000   0.00219   0.03776   0.00000   0.00022
  70       11D+1        0.00000  -0.00010   0.00007   0.00000  -0.02448
  71       11D-1       -0.01054   0.00000   0.00000   0.00691   0.00000
  72       11D+2        0.00000  -0.00758   0.02174   0.00000   0.00099
  73       11D-2       -0.00016   0.00000   0.00000   0.00052   0.00000
  74       12D 0        0.00000  -0.01206  -0.00403   0.00000   0.00034
  75       12D+1        0.00000   0.00017  -0.00051   0.00000   0.00030
  76       12D-1        0.01019   0.00000   0.00000  -0.01229   0.00000
  77       12D+2        0.00000  -0.00300   0.00098   0.00000   0.00008
  78       12D-2        0.00012   0.00000   0.00000  -0.00055   0.00000
  79       13F 0        0.00000   0.00622  -0.00584   0.00000  -0.00045
  80       13F+1        0.00000  -0.00008  -0.00015   0.00000   0.00450
  81       13F-1        0.00197   0.00000   0.00000   0.01098   0.00000
  82       13F+2        0.00000   0.00263   0.00018   0.00000  -0.00017
  83       13F-2        0.00006   0.00000   0.00000  -0.00001   0.00000
  84       13F+3        0.00000   0.00005  -0.00007   0.00000  -0.00773
  85       13F-3       -0.00207   0.00000   0.00000   0.00533   0.00000
  86       14F 0        0.00000  -0.00235  -0.00721   0.00000   0.00007
  87       14F+1        0.00000   0.00012  -0.00028   0.00000  -0.00080
  88       14F-1        0.00551   0.00000   0.00000   0.01636   0.00000
  89       14F+2        0.00000   0.00047  -0.00649   0.00000  -0.00019
  90       14F-2        0.00021   0.00000   0.00000  -0.00035   0.00000
  91       14F+3        0.00000   0.00003  -0.00010   0.00000  -0.00145
  92       14F-3        0.00087   0.00000   0.00000  -0.00099   0.00000
  93 3   F  1S          0.14944   0.01932   0.01629   0.01684  -0.00117
  94        2S         -0.38186  -0.04938  -0.04372  -0.04558   0.00358
  95        3S         -0.11694  -0.01553  -0.01471  -0.01560   0.00133
  96        4S         -0.25130  -0.05354  -0.03443  -0.05059   0.00679
  97        5S         -0.03184  -0.02245   0.00922   0.04901   0.00171
  98        6PX         0.00032   0.00012  -0.00055  -0.00148   0.25014
  99        6PY         0.03796  -0.00257   0.16659  -0.13046  -0.00911
 100        6PZ         0.00918   0.04623  -0.19496   0.23360  -0.00844
 101        7PX         0.00034   0.00014  -0.00066  -0.00181   0.30542
 102        7PY         0.04161  -0.00558   0.20188  -0.15862  -0.01094
 103        7PZ         0.00762   0.05430  -0.23636   0.28224  -0.01014
 104        8PX         0.00014  -0.00002  -0.00048  -0.00106   0.20896
 105        8PY         0.03533  -0.01308   0.12616  -0.13417  -0.00539
 106        8PZ         0.00458   0.02827  -0.16489   0.18665  -0.00555
 107        9PX         0.00003   0.00001  -0.00011  -0.00025   0.01568
 108        9PY        -0.00136  -0.00324   0.01324   0.00059   0.00001
 109        9PZ        -0.00040  -0.00364  -0.01416   0.02623  -0.00001
 110       10D 0       -0.00016   0.00060  -0.00264   0.00237  -0.00002
 111       10D+1        0.00000   0.00000  -0.00002   0.00002   0.00188
 112       10D-1       -0.00042   0.00079  -0.00062   0.00163  -0.00027
 113       10D+2        0.00009  -0.00003  -0.00222   0.00058   0.00021
 114       10D-2        0.00000   0.00000   0.00002  -0.00002   0.00304
 115       11D 0       -0.00101   0.00171  -0.00990   0.00866  -0.00006
 116       11D+1       -0.00005   0.00000  -0.00010   0.00008   0.00803
 117       11D-1       -0.00402   0.00016  -0.00243   0.00609  -0.00084
 118       11D+2        0.00192   0.00124  -0.00749   0.00191   0.00069
 119       11D-2       -0.00004  -0.00002   0.00005  -0.00007   0.01239
 120       12D 0       -0.00188   0.00014  -0.00477   0.00764  -0.00001
 121       12D+1       -0.00002  -0.00001  -0.00012   0.00004   0.00394
 122       12D-1       -0.00016  -0.00215  -0.00392  -0.00214  -0.00032
 123       12D+2       -0.00149   0.00179   0.00087   0.01009   0.00017
 124       12D-2       -0.00002  -0.00006   0.00003   0.00002   0.00788
 125       13F 0        0.00011   0.00005  -0.00067   0.00043   0.00005
 126       13F+1        0.00000   0.00000  -0.00002   0.00003   0.00029
 127       13F-1       -0.00029   0.00047  -0.00173   0.00183  -0.00006
 128       13F+2        0.00031  -0.00012  -0.00041  -0.00028   0.00013
 129       13F-2        0.00000   0.00000   0.00000   0.00001   0.00165
 130       13F+3        0.00000   0.00000  -0.00002   0.00001  -0.00156
 131       13F-3        0.00002   0.00009  -0.00107   0.00024   0.00009
 132       14F 0        0.00039   0.00073  -0.00186   0.00031   0.00010
 133       14F+1        0.00000   0.00001  -0.00007   0.00001   0.00016
 134       14F-1       -0.00098   0.00007  -0.00271   0.00305  -0.00009
 135       14F+2        0.00101   0.00058  -0.00043  -0.00080   0.00024
 136       14F-2       -0.00003  -0.00001  -0.00003   0.00002   0.00301
 137       14F+3        0.00001   0.00001  -0.00002   0.00001  -0.00198
 138       14F-3        0.00066   0.00031  -0.00071   0.00086   0.00017
 139 4   F  1S         -0.14944   0.01932   0.01629  -0.01684  -0.00117
 140        2S          0.38186  -0.04938  -0.04372   0.04558   0.00358
 141        3S          0.11694  -0.01553  -0.01471   0.01560   0.00133
 142        4S          0.25130  -0.05354  -0.03443   0.05059   0.00679
 143        5S          0.03184  -0.02245   0.00922  -0.04901   0.00171
 144        6PX        -0.00032   0.00012  -0.00055   0.00148   0.25014
 145        6PY         0.03796   0.00257  -0.16659  -0.13046   0.00911
 146        6PZ        -0.00918   0.04623  -0.19496  -0.23360  -0.00844
 147        7PX        -0.00034   0.00014  -0.00066   0.00181   0.30542
 148        7PY         0.04161   0.00558  -0.20188  -0.15862   0.01094
 149        7PZ        -0.00762   0.05430  -0.23636  -0.28224  -0.01014
 150        8PX        -0.00014  -0.00002  -0.00048   0.00106   0.20896
 151        8PY         0.03533   0.01308  -0.12616  -0.13417   0.00539
 152        8PZ        -0.00458   0.02827  -0.16489  -0.18665  -0.00555
 153        9PX        -0.00003   0.00001  -0.00011   0.00025   0.01568
 154        9PY        -0.00136   0.00324  -0.01324   0.00059  -0.00001
 155        9PZ         0.00040  -0.00364  -0.01416  -0.02623  -0.00001
 156       10D 0        0.00016   0.00060  -0.00264  -0.00237  -0.00002
 157       10D+1        0.00000   0.00000  -0.00002  -0.00002   0.00188
 158       10D-1       -0.00042  -0.00079   0.00062   0.00163   0.00027
 159       10D+2       -0.00009  -0.00003  -0.00222  -0.00058   0.00021
 160       10D-2        0.00000   0.00000  -0.00002  -0.00002  -0.00304
 161       11D 0        0.00101   0.00171  -0.00990  -0.00866  -0.00006
 162       11D+1        0.00005   0.00000  -0.00010  -0.00008   0.00803
 163       11D-1       -0.00402  -0.00016   0.00243   0.00609   0.00084
 164       11D+2       -0.00192   0.00124  -0.00749  -0.00191   0.00069
 165       11D-2       -0.00004   0.00002  -0.00005  -0.00007  -0.01239
 166       12D 0        0.00188   0.00014  -0.00477  -0.00764  -0.00001
 167       12D+1        0.00002  -0.00001  -0.00012  -0.00004   0.00394
 168       12D-1       -0.00016   0.00215   0.00392  -0.00214   0.00032
 169       12D+2        0.00149   0.00179   0.00087  -0.01009   0.00017
 170       12D-2       -0.00002   0.00006  -0.00003   0.00002  -0.00788
 171       13F 0       -0.00011   0.00005  -0.00067  -0.00043   0.00005
 172       13F+1        0.00000   0.00000  -0.00002  -0.00003   0.00029
 173       13F-1       -0.00029  -0.00047   0.00173   0.00183   0.00006
 174       13F+2       -0.00031  -0.00012  -0.00041   0.00028   0.00013
 175       13F-2        0.00000   0.00000   0.00000   0.00001  -0.00165
 176       13F+3        0.00000   0.00000  -0.00002  -0.00001  -0.00156
 177       13F-3        0.00002  -0.00009   0.00107   0.00024  -0.00009
 178       14F 0       -0.00039   0.00073  -0.00186  -0.00031   0.00010
 179       14F+1        0.00000   0.00001  -0.00007  -0.00001   0.00016
 180       14F-1       -0.00098  -0.00007   0.00271   0.00305   0.00009
 181       14F+2       -0.00101   0.00058  -0.00043   0.00080   0.00024
 182       14F-2       -0.00003   0.00001   0.00003   0.00002  -0.00301
 183       14F+3       -0.00001   0.00001  -0.00002  -0.00001  -0.00198
 184       14F-3        0.00066  -0.00031   0.00071   0.00086  -0.00017
                          11        12        13        14        15
     Eigenvalues --     1.96815   1.96674   1.96296   1.96122   1.95627
   1 1   O  1S          0.00000   0.05042   0.00000   0.00135   0.00000
   2        2S          0.00000  -0.15177   0.00000  -0.02577   0.00000
   3        3S          0.00000  -0.04656   0.00000  -0.01177   0.00000
   4        4S          0.00000  -0.21206   0.00000  -0.13288   0.00000
   5        5S          0.00000  -0.04562   0.00000  -0.04425   0.00000
   6        6PX         0.00000  -0.00113   0.00000   0.00022   0.00000
   7        6PY         0.00079   0.00000   0.23245   0.00000   0.25707
   8        6PZ         0.00000  -0.16440   0.00000  -0.26208   0.00000
   9        7PX         0.00000  -0.00159   0.00000   0.00024   0.00000
  10        7PY         0.00106   0.00000   0.28370   0.00000   0.31631
  11        7PZ         0.00000  -0.19037   0.00000  -0.31484   0.00000
  12        8PX         0.00000  -0.00222   0.00000  -0.00031   0.00000
  13        8PY         0.00092   0.00000   0.18759   0.00000   0.21666
  14        8PZ         0.00000  -0.08003   0.00000  -0.15300   0.00000
  15        9PX         0.00000  -0.00073   0.00000  -0.00009   0.00000
  16        9PY         0.00075   0.00000   0.02589   0.00000   0.02927
  17        9PZ         0.00000   0.00325   0.00000  -0.00437   0.00000
  18       10D 0        0.00000   0.00729   0.00000   0.01206   0.00000
  19       10D+1        0.00000  -0.00014   0.00000  -0.00013   0.00000
  20       10D-1       -0.00003   0.00000  -0.00761   0.00000  -0.00494
  21       10D+2        0.00000   0.00008   0.00000   0.00022   0.00000
  22       10D-2       -0.00022   0.00000   0.00009   0.00000   0.00006
  23       11D 0        0.00000   0.01229   0.00000   0.02938   0.00000
  24       11D+1        0.00000  -0.00011   0.00000  -0.00030   0.00000
  25       11D-1       -0.00024   0.00000  -0.01863   0.00000  -0.01224
  26       11D+2        0.00000  -0.00009   0.00000   0.00114   0.00000
  27       11D-2       -0.00279   0.00000   0.00011   0.00000   0.00013
  28       12D 0        0.00000  -0.00061   0.00000   0.00483   0.00000
  29       12D+1        0.00000   0.00013   0.00000   0.00004   0.00000
  30       12D-1       -0.00007   0.00000  -0.00867   0.00000  -0.00164
  31       12D+2        0.00000  -0.00064   0.00000   0.00295   0.00000
  32       12D-2       -0.00741   0.00000  -0.00013   0.00000   0.00009
  33       13F 0        0.00000  -0.00250   0.00000  -0.00480   0.00000
  34       13F+1        0.00000   0.00008   0.00000   0.00008   0.00000
  35       13F-1        0.00004   0.00000   0.00416   0.00000   0.00221
  36       13F+2        0.00000  -0.00027   0.00000  -0.00069   0.00000
  37       13F-2        0.00036   0.00000  -0.00007   0.00000  -0.00003
  38       13F+3        0.00000  -0.00001   0.00000  -0.00001   0.00000
  39       13F-3        0.00001   0.00000   0.00064   0.00000   0.00094
  40       14F 0        0.00000  -0.00088   0.00000  -0.00669   0.00000
  41       14F+1        0.00000  -0.00009   0.00000   0.00012   0.00000
  42       14F-1        0.00009   0.00000   0.00385   0.00000   0.00252
  43       14F+2        0.00000  -0.00010   0.00000  -0.00081   0.00000
  44       14F-2        0.00306   0.00000   0.00004   0.00000  -0.00006
  45       14F+3        0.00000   0.00002   0.00000   0.00004   0.00000
  46       14F-3       -0.00008   0.00000   0.00081   0.00000  -0.00077
  47 2   C  1S          0.00000  -0.14296   0.00000  -0.02099   0.00000
  48        2S          0.00000   0.39289   0.00000   0.06081   0.00000
  49        3S          0.00000   0.10170   0.00000   0.01675   0.00000
  50        4S          0.00000   0.15875   0.00000  -0.01940   0.00000
  51        5S          0.00000   0.00628   0.00000   0.00757   0.00000
  52        6PX         0.00000   0.00418   0.00000  -0.00206   0.00000
  53        6PY         0.00117   0.00000   0.18029   0.00000  -0.07129
  54        6PZ         0.00000  -0.01050   0.00000   0.22930   0.00000
  55        7PX         0.00000   0.00535   0.00000  -0.00247   0.00000
  56        7PY         0.00096   0.00000   0.21659   0.00000  -0.07964
  57        7PZ         0.00000  -0.02611   0.00000   0.22756   0.00000
  58        8PX         0.00000   0.00067   0.00000  -0.00052   0.00000
  59        8PY         0.00188   0.00000   0.05434   0.00000  -0.01370
  60        8PZ         0.00000  -0.00300   0.00000   0.02795   0.00000
  61        9PX         0.00000   0.00011   0.00000  -0.00006   0.00000
  62        9PY        -0.00042   0.00000  -0.00231   0.00000  -0.00298
  63        9PZ         0.00000  -0.00003   0.00000   0.00069   0.00000
  64       10D 0        0.00000   0.00787   0.00000   0.01855   0.00000
  65       10D+1        0.00000  -0.00103   0.00000  -0.00040   0.00000
  66       10D-1       -0.00010   0.00000   0.00086   0.00000   0.04363
  67       10D+2        0.00000  -0.00876   0.00000   0.01156   0.00000
  68       10D-2       -0.02028   0.00000  -0.00001   0.00000   0.00005
  69       11D 0        0.00000   0.00305   0.00000   0.01701   0.00000
  70       11D+1        0.00000  -0.00151   0.00000  -0.00044   0.00000
  71       11D-1       -0.00074   0.00000  -0.02245   0.00000   0.08693
  72       11D+2        0.00000  -0.02202   0.00000   0.02373   0.00000
  73       11D-2       -0.03306   0.00000   0.00000   0.00000   0.00030
  74       12D 0        0.00000   0.00132   0.00000  -0.00046   0.00000
  75       12D+1        0.00000  -0.00002   0.00000  -0.00006   0.00000
  76       12D-1       -0.00125   0.00000  -0.00898   0.00000   0.01294
  77       12D+2        0.00000   0.00356   0.00000   0.00242   0.00000
  78       12D-2        0.00374   0.00000   0.00021   0.00000   0.00014
  79       13F 0        0.00000   0.00788   0.00000   0.00493   0.00000
  80       13F+1        0.00000   0.00009   0.00000  -0.00022   0.00000
  81       13F-1        0.00005   0.00000   0.01434   0.00000   0.00450
  82       13F+2        0.00000   0.00602   0.00000  -0.00094   0.00000
  83       13F-2        0.00991   0.00000  -0.00012   0.00000  -0.00012
  84       13F+3        0.00000  -0.00038   0.00000   0.00000   0.00000
  85       13F-3        0.00021   0.00000   0.00034   0.00000   0.00307
  86       14F 0        0.00000   0.00378   0.00000  -0.01475   0.00000
  87       14F+1        0.00000   0.00004   0.00000   0.00000   0.00000
  88       14F-1        0.00026   0.00000   0.02997   0.00000   0.01126
  89       14F+2        0.00000   0.00917   0.00000  -0.01250   0.00000
  90       14F-2        0.01515   0.00000   0.00027   0.00000  -0.00046
  91       14F+3        0.00000   0.00003   0.00000  -0.00011   0.00000
  92       14F-3       -0.00006   0.00000   0.00325   0.00000   0.00913
  93 3   F  1S          0.00024   0.02047  -0.00462   0.00526  -0.02172
  94        2S         -0.00055  -0.06322   0.02101  -0.00715   0.05285
  95        3S         -0.00015  -0.02292   0.00955   0.00067   0.01367
  96        4S          0.00081  -0.12391   0.09059   0.04004  -0.01292
  97        5S          0.00241  -0.02418   0.03684   0.01368  -0.02562
  98        6PX         0.27557   0.01617  -0.00373  -0.00206   0.00266
  99        6PY        -0.00518   0.12510  -0.17504  -0.07960   0.15519
 100        6PZ        -0.00055   0.09985  -0.00726  -0.12814   0.12101
 101        7PX         0.33548   0.01971  -0.00453  -0.00253   0.00329
 102        7PY        -0.00624   0.14892  -0.20989  -0.09914   0.19114
 103        7PZ        -0.00065   0.11832  -0.00774  -0.15745   0.14856
 104        8PX         0.23069   0.01322  -0.00281  -0.00138   0.00222
 105        8PY        -0.00414   0.06614  -0.10821  -0.04928   0.11621
 106        8PZ        -0.00026   0.05422   0.00971  -0.09988   0.08255
 107        9PX         0.02480   0.00098  -0.00003   0.00003   0.00015
 108        9PY         0.00028  -0.00297  -0.00505   0.00242   0.00644
 109        9PZ         0.00018   0.00091   0.01248  -0.00793   0.00814
 110       10D 0       -0.00001   0.00001  -0.00006   0.00034  -0.00005
 111       10D+1        0.00178   0.00014  -0.00005  -0.00005   0.00005
 112       10D-1       -0.00006   0.00386  -0.00320  -0.00258   0.00342
 113       10D+2        0.00007  -0.00255   0.00219   0.00212  -0.00204
 114       10D-2        0.00221   0.00022  -0.00008  -0.00007   0.00006
 115       11D 0       -0.00002  -0.00033  -0.00231   0.00150  -0.00147
 116       11D+1        0.00710   0.00055  -0.00019  -0.00019   0.00017
 117       11D-1       -0.00022   0.01084  -0.01149  -0.01150   0.01175
 118       11D+2        0.00027  -0.00775   0.00671   0.00836  -0.00786
 119       11D-2        0.00950   0.00087  -0.00024  -0.00026   0.00025
 120       12D 0       -0.00005  -0.00131  -0.00744  -0.00102  -0.00402
 121       12D+1        0.00450   0.00028  -0.00015  -0.00005   0.00002
 122       12D-1       -0.00013   0.00203  -0.00252  -0.00311   0.00241
 123       12D+2        0.00026  -0.00099  -0.00092   0.00476  -0.00526
 124       12D-2        0.00452   0.00046  -0.00004  -0.00013   0.00021
 125       13F 0        0.00001  -0.00099   0.00090   0.00089  -0.00095
 126       13F+1        0.00017   0.00002   0.00000  -0.00001   0.00002
 127       13F-1       -0.00001   0.00074  -0.00052  -0.00063   0.00083
 128       13F+2        0.00005  -0.00154   0.00160   0.00147  -0.00157
 129       13F-2        0.00150   0.00013  -0.00005  -0.00005   0.00004
 130       13F+3       -0.00091  -0.00011   0.00004   0.00004  -0.00003
 131       13F-3        0.00004  -0.00083   0.00070   0.00090  -0.00066
 132       14F 0       -0.00001  -0.00087   0.00014   0.00212  -0.00204
 133       14F+1        0.00094   0.00002  -0.00006  -0.00003  -0.00002
 134       14F-1       -0.00004   0.00067  -0.00335  -0.00045   0.00043
 135       14F+2        0.00010  -0.00250   0.00265   0.00304  -0.00257
 136       14F-2        0.00254   0.00021  -0.00009  -0.00009   0.00009
 137       14F+3       -0.00228  -0.00017   0.00004   0.00006  -0.00009
 138       14F-3        0.00010  -0.00154   0.00144   0.00160  -0.00177
 139 4   F  1S         -0.00024   0.02047   0.00462   0.00526   0.02172
 140        2S          0.00055  -0.06322  -0.02101  -0.00715  -0.05285
 141        3S          0.00015  -0.02292  -0.00955   0.00067  -0.01367
 142        4S         -0.00081  -0.12391  -0.09059   0.04004   0.01292
 143        5S         -0.00241  -0.02418  -0.03684   0.01368   0.02562
 144        6PX        -0.27557   0.01617   0.00373  -0.00206  -0.00266
 145        6PY        -0.00518  -0.12510  -0.17504   0.07960   0.15519
 146        6PZ         0.00055   0.09985   0.00726  -0.12814  -0.12101
 147        7PX        -0.33548   0.01971   0.00453  -0.00253  -0.00329
 148        7PY        -0.00624  -0.14892  -0.20989   0.09914   0.19114
 149        7PZ         0.00065   0.11832   0.00774  -0.15745  -0.14856
 150        8PX        -0.23069   0.01322   0.00281  -0.00138  -0.00222
 151        8PY        -0.00414  -0.06614  -0.10821   0.04928   0.11621
 152        8PZ         0.00026   0.05422  -0.00971  -0.09988  -0.08255
 153        9PX        -0.02480   0.00098   0.00003   0.00003  -0.00015
 154        9PY         0.00028   0.00297  -0.00505  -0.00242   0.00644
 155        9PZ        -0.00018   0.00091  -0.01248  -0.00793  -0.00814
 156       10D 0        0.00001   0.00001   0.00006   0.00034   0.00005
 157       10D+1       -0.00178   0.00014   0.00005  -0.00005  -0.00005
 158       10D-1       -0.00006  -0.00386  -0.00320   0.00258   0.00342
 159       10D+2       -0.00007  -0.00255  -0.00219   0.00212   0.00204
 160       10D-2        0.00221  -0.00022  -0.00008   0.00007   0.00006
 161       11D 0        0.00002  -0.00033   0.00231   0.00150   0.00147
 162       11D+1       -0.00710   0.00055   0.00019  -0.00019  -0.00017
 163       11D-1       -0.00022  -0.01084  -0.01149   0.01150   0.01175
 164       11D+2       -0.00027  -0.00775  -0.00671   0.00836   0.00786
 165       11D-2        0.00950  -0.00087  -0.00024   0.00026   0.00025
 166       12D 0        0.00005  -0.00131   0.00744  -0.00102   0.00402
 167       12D+1       -0.00450   0.00028   0.00015  -0.00005  -0.00002
 168       12D-1       -0.00013  -0.00203  -0.00252   0.00311   0.00241
 169       12D+2       -0.00026  -0.00099   0.00092   0.00476   0.00526
 170       12D-2        0.00452  -0.00046  -0.00004   0.00013   0.00021
 171       13F 0       -0.00001  -0.00099  -0.00090   0.00089   0.00095
 172       13F+1       -0.00017   0.00002   0.00000  -0.00001  -0.00002
 173       13F-1       -0.00001  -0.00074  -0.00052   0.00063   0.00083
 174       13F+2       -0.00005  -0.00154  -0.00160   0.00147   0.00157
 175       13F-2        0.00150  -0.00013  -0.00005   0.00005   0.00004
 176       13F+3        0.00091  -0.00011  -0.00004   0.00004   0.00003
 177       13F-3        0.00004   0.00083   0.00070  -0.00090  -0.00066
 178       14F 0        0.00001  -0.00087  -0.00014   0.00212   0.00204
 179       14F+1       -0.00094   0.00002   0.00006  -0.00003   0.00002
 180       14F-1       -0.00004  -0.00067  -0.00335   0.00045   0.00043
 181       14F+2       -0.00010  -0.00250  -0.00265   0.00304   0.00257
 182       14F-2        0.00254  -0.00021  -0.00009   0.00009   0.00009
 183       14F+3        0.00228  -0.00017  -0.00004   0.00006   0.00009
 184       14F-3        0.00010   0.00154   0.00144  -0.00160  -0.00177
                          16        17        18        19        20
     Eigenvalues --     1.93991   0.05892   0.03796   0.03613   0.02446
   1 1   O  1S          0.00047   0.00050  -0.03412   0.00000   0.07142
   2        2S         -0.00150  -0.00208   0.13995   0.00000  -0.27658
   3        3S         -0.00049  -0.00049   0.05083   0.00000  -0.11578
   4        4S         -0.00229  -0.00321   0.17840   0.00000  -0.49841
   5        5S          0.00010  -0.00295   0.08344   0.00000  -0.20204
   6        6PX         0.30117  -0.35158  -0.00430   0.00000  -0.00288
   7        6PY         0.00000   0.00000   0.00000   0.34379   0.00000
   8        6PZ         0.00067   0.00054  -0.19202   0.00000   0.34681
   9        7PX         0.37590  -0.39419  -0.00374   0.00000  -0.00471
  10        7PY         0.00000   0.00000   0.00000   0.31085   0.00000
  11        7PZ         0.00092   0.00111  -0.21989   0.00000   0.43102
  12        8PX         0.23989  -0.06916   0.00017   0.00000  -0.00267
  13        8PY         0.00000   0.00000   0.00000  -0.05297   0.00000
  14        8PZ         0.00102  -0.00163   0.03182   0.00000   0.16041
  15        9PX         0.01513  -0.00759  -0.00012   0.00000  -0.00072
  16        9PY         0.00000   0.00000   0.00000  -0.03217   0.00000
  17        9PZ         0.00010   0.00075  -0.00522   0.00000   0.02026
  18       10D 0       -0.00007  -0.00029  -0.00334   0.00000   0.03090
  19       10D+1       -0.01117  -0.01640  -0.00050   0.00000  -0.00070
  20       10D-1        0.00000   0.00000   0.00000   0.02806   0.00000
  21       10D+2        0.00011   0.00025  -0.00364   0.00000   0.00117
  22       10D-2        0.00000   0.00000   0.00000  -0.00038   0.00000
  23       11D 0       -0.00024  -0.00060   0.00332   0.00000   0.02469
  24       11D+1       -0.02917  -0.01835  -0.00100   0.00000  -0.00025
  25       11D-1        0.00000   0.00000   0.00000   0.05168   0.00000
  26       11D+2        0.00026   0.00032  -0.00288   0.00000   0.00051
  27       11D-2        0.00000   0.00000   0.00000  -0.00032   0.00000
  28       12D 0       -0.00003   0.00125  -0.03359   0.00000  -0.02956
  29       12D+1       -0.00931   0.01919   0.00061   0.00000   0.00047
  30       12D-1        0.00000   0.00000   0.00000   0.00484   0.00000
  31       12D+2        0.00011  -0.00040   0.00500   0.00000   0.00142
  32       12D-2        0.00000   0.00000   0.00000   0.00108   0.00000
  33       13F 0        0.00010   0.00013  -0.00317   0.00000  -0.00194
  34       13F+1        0.00585   0.00447   0.00020   0.00000   0.00001
  35       13F-1        0.00000   0.00000   0.00000  -0.00705   0.00000
  36       13F+2       -0.00009  -0.00003  -0.00174   0.00000   0.00150
  37       13F-2        0.00000   0.00000   0.00000   0.00013   0.00000
  38       13F+3        0.00100  -0.00261  -0.00006   0.00000   0.00000
  39       13F-3        0.00000   0.00000   0.00000   0.00178   0.00000
  40       14F 0        0.00007   0.00001   0.00032   0.00000  -0.00842
  41       14F+1        0.00367  -0.00391  -0.00017   0.00000   0.00004
  42       14F-1        0.00000   0.00000   0.00000  -0.00482   0.00000
  43       14F+2       -0.00006   0.00019  -0.00253   0.00000  -0.00281
  44       14F-2        0.00000   0.00000   0.00000  -0.00037   0.00000
  45       14F+3        0.00058  -0.00166   0.00026   0.00000   0.00001
  46       14F-3        0.00000   0.00000   0.00000   0.00201   0.00000
  47 2   C  1S         -0.00179  -0.00338   0.17782   0.00000  -0.06121
  48        2S          0.00516   0.01136  -0.61366   0.00000   0.26382
  49        3S          0.00135   0.00362  -0.18680   0.00000   0.12220
  50        4S          0.00362   0.00925  -0.46162   0.00000   0.19810
  51        5S         -0.00015   0.00060  -0.03958   0.00000   0.04176
  52        6PX         0.18305   0.32823   0.00683   0.00000  -0.00142
  53        6PY         0.00000   0.00000   0.00000  -0.34458   0.00000
  54        6PZ         0.00189  -0.00079   0.11881   0.00000   0.34771
  55        7PX         0.23342   0.46532   0.01061   0.00000  -0.00152
  56        7PY         0.00000   0.00000   0.00000  -0.60093   0.00000
  57        7PZ         0.00204  -0.00163   0.20079   0.00000   0.67754
  58        8PX         0.08720   0.13997   0.00382   0.00000  -0.00036
  59        8PY         0.00000   0.00000   0.00000  -0.13439   0.00000
  60        8PZ         0.00080   0.00453  -0.03266   0.00000   0.14206
  61        9PX         0.00844   0.00754   0.00016   0.00000   0.00009
  62        9PY         0.00000   0.00000   0.00000  -0.00363   0.00000
  63        9PZ         0.00016  -0.00026   0.00294   0.00000   0.00736
  64       10D 0        0.00037  -0.00019   0.00459   0.00000  -0.03225
  65       10D+1        0.02594   0.00949   0.00007   0.00000   0.00043
  66       10D-1        0.00000   0.00000   0.00000  -0.02141   0.00000
  67       10D+2       -0.00009   0.00022  -0.00058   0.00000  -0.00296
  68       10D-2        0.00000   0.00000   0.00000  -0.00005   0.00000
  69       11D 0       -0.00006  -0.00054  -0.02309   0.00000   0.02853
  70       11D+1        0.04512   0.06072   0.00046   0.00000  -0.00077
  71       11D-1        0.00000   0.00000   0.00000   0.07328   0.00000
  72       11D+2       -0.00039  -0.00163   0.06277   0.00000   0.02956
  73       11D-2        0.00000   0.00000   0.00000   0.00110   0.00000
  74       12D 0       -0.00047   0.00113  -0.04083   0.00000   0.04565
  75       12D+1        0.00510   0.02202   0.00058   0.00000   0.00076
  76       12D-1        0.00000   0.00000   0.00000  -0.01216   0.00000
  77       12D+2       -0.00019   0.00004   0.00524   0.00000   0.01104
  78       12D-2        0.00000   0.00000   0.00000  -0.00065   0.00000
  79       13F 0        0.00024   0.00015  -0.00476   0.00000   0.01206
  80       13F+1        0.00770   0.01611   0.00041   0.00000   0.00037
  81       13F-1        0.00000   0.00000   0.00000  -0.02679   0.00000
  82       13F+2       -0.00008   0.00047  -0.02827   0.00000  -0.01295
  83       13F-2        0.00000   0.00000   0.00000  -0.00017   0.00000
  84       13F+3        0.00062  -0.00459  -0.00037   0.00000   0.00022
  85       13F-3        0.00000   0.00000   0.00000   0.01194   0.00000
  86       14F 0        0.00030   0.00213  -0.04415   0.00000   0.00410
  87       14F+1        0.00769   0.02707   0.00056   0.00000  -0.00011
  88       14F-1        0.00000   0.00000   0.00000  -0.15015   0.00000
  89       14F+2       -0.00001   0.00069  -0.03847   0.00000  -0.00672
  90       14F-2        0.00000   0.00000   0.00000  -0.00167   0.00000
  91       14F+3        0.00402   0.00755  -0.00051   0.00000  -0.00009
  92       14F-3        0.00000   0.00000   0.00000  -0.03310   0.00000
  93 3   F  1S          0.00013   0.00050  -0.05258   0.04548  -0.01865
  94        2S         -0.00036  -0.00190   0.16345  -0.13279   0.04447
  95        3S         -0.00010  -0.00059   0.07428  -0.06636   0.02870
  96        4S         -0.00061  -0.00338   0.22151  -0.25146   0.10959
  97        5S         -0.00018   0.00076   0.05312  -0.07762   0.05757
  98        6PX        -0.05776  -0.18561  -0.00123  -0.00276   0.00331
  99        6PY         0.00047  -0.00234   0.28145  -0.10444   0.21467
 100        6PZ         0.00011  -0.00149   0.14668  -0.22328  -0.17634
 101        7PX        -0.06983  -0.15258   0.00024  -0.00264   0.00205
 102        7PY         0.00053  -0.00291   0.26979  -0.13734   0.13756
 103        7PZ         0.00010  -0.00203   0.15917  -0.19141  -0.06703
 104        8PX        -0.06364   0.02667   0.00175   0.00037  -0.00166
 105        8PY         0.00060  -0.00024  -0.00213  -0.19603  -0.07777
 106        8PZ        -0.00036  -0.00213   0.03771   0.09478   0.21837
 107        9PX        -0.01936  -0.00303   0.00012  -0.00038   0.00000
 108        9PY         0.00014   0.00009   0.00399  -0.01156  -0.01280
 109        9PZ        -0.00027   0.00052  -0.00806  -0.01093   0.03747
 110       10D 0        0.00000  -0.00003   0.00231   0.00553   0.01260
 111       10D+1        0.00084   0.00408   0.00001   0.00017  -0.00004
 112       10D-1        0.00000   0.00002  -0.01071   0.01137   0.00075
 113       10D+2        0.00002   0.00006   0.00878  -0.00426   0.01273
 114       10D-2        0.00077   0.00560  -0.00001   0.00017  -0.00032
 115       11D 0       -0.00006  -0.00026   0.00841   0.02752   0.03882
 116       11D+1        0.00261   0.01550   0.00038   0.00053   0.00006
 117       11D-1       -0.00008  -0.00029  -0.01236   0.01972   0.01260
 118       11D+2        0.00002   0.00024   0.01325   0.00212   0.03085
 119       11D-2        0.00199   0.01952   0.00032   0.00018  -0.00091
 120       12D 0       -0.00014  -0.00048   0.00659   0.06594   0.02257
 121       12D+1        0.00225   0.01043   0.00007   0.00079   0.00028
 122       12D-1       -0.00014  -0.00059  -0.00536   0.00150   0.03140
 123       12D+2       -0.00012  -0.00038   0.01239   0.04374   0.00010
 124       12D-2       -0.00159   0.00430   0.00001  -0.00029  -0.00030
 125       13F 0        0.00000  -0.00001  -0.00053   0.00079   0.00155
 126       13F+1        0.00018   0.00052   0.00005  -0.00002   0.00000
 127       13F-1        0.00000  -0.00001   0.00119   0.00072   0.00312
 128       13F+2        0.00001   0.00003  -0.00143  -0.00048  -0.00038
 129       13F-2        0.00040   0.00085   0.00007  -0.00001  -0.00002
 130       13F+3       -0.00045  -0.00212  -0.00008  -0.00001   0.00004
 131       13F-3        0.00002   0.00007   0.00041   0.00073   0.00248
 132       14F 0        0.00002   0.00008   0.00248   0.00483   0.00117
 133       14F+1        0.00071   0.00146  -0.00003   0.00025   0.00017
 134       14F-1       -0.00006  -0.00018   0.00067   0.01145   0.00485
 135       14F+2        0.00004   0.00015   0.00347   0.00017   0.00141
 136       14F-2        0.00052   0.00403   0.00010   0.00017   0.00001
 137       14F+3        0.00080   0.00084   0.00002   0.00009   0.00020
 138       14F-3       -0.00006  -0.00009  -0.00010   0.00071   0.00143
 139 4   F  1S          0.00013   0.00050  -0.05258  -0.04548  -0.01865
 140        2S         -0.00036  -0.00190   0.16345   0.13279   0.04447
 141        3S         -0.00010  -0.00059   0.07428   0.06636   0.02870
 142        4S         -0.00061  -0.00338   0.22151   0.25146   0.10959
 143        5S         -0.00018   0.00076   0.05312   0.07762   0.05757
 144        6PX        -0.05776  -0.18561  -0.00123   0.00276   0.00331
 145        6PY        -0.00047   0.00234  -0.28145  -0.10444  -0.21467
 146        6PZ         0.00011  -0.00149   0.14668   0.22328  -0.17634
 147        7PX        -0.06983  -0.15258   0.00024   0.00264   0.00205
 148        7PY        -0.00053   0.00291  -0.26979  -0.13734  -0.13756
 149        7PZ         0.00010  -0.00203   0.15917   0.19141  -0.06703
 150        8PX        -0.06364   0.02667   0.00175  -0.00037  -0.00166
 151        8PY        -0.00060   0.00024   0.00213  -0.19603   0.07777
 152        8PZ        -0.00036  -0.00213   0.03771  -0.09478   0.21837
 153        9PX        -0.01936  -0.00303   0.00012   0.00038   0.00000
 154        9PY        -0.00014  -0.00009  -0.00399  -0.01156   0.01280
 155        9PZ        -0.00027   0.00052  -0.00806   0.01093   0.03747
 156       10D 0        0.00000  -0.00003   0.00231  -0.00553   0.01260
 157       10D+1        0.00084   0.00408   0.00001  -0.00017  -0.00004
 158       10D-1        0.00000  -0.00002   0.01071   0.01137  -0.00075
 159       10D+2        0.00002   0.00006   0.00878   0.00426   0.01273
 160       10D-2       -0.00077  -0.00560   0.00001   0.00017   0.00032
 161       11D 0       -0.00006  -0.00026   0.00841  -0.02752   0.03882
 162       11D+1        0.00261   0.01550   0.00038  -0.00053   0.00006
 163       11D-1        0.00008   0.00029   0.01236   0.01972  -0.01260
 164       11D+2        0.00002   0.00024   0.01325  -0.00212   0.03085
 165       11D-2       -0.00199  -0.01952  -0.00032   0.00018   0.00091
 166       12D 0       -0.00014  -0.00048   0.00659  -0.06594   0.02257
 167       12D+1        0.00225   0.01043   0.00007  -0.00079   0.00028
 168       12D-1        0.00014   0.00059   0.00536   0.00150  -0.03140
 169       12D+2       -0.00012  -0.00038   0.01239  -0.04374   0.00010
 170       12D-2        0.00159  -0.00430  -0.00001  -0.00029   0.00030
 171       13F 0        0.00000  -0.00001  -0.00053  -0.00079   0.00155
 172       13F+1        0.00018   0.00052   0.00005   0.00002   0.00000
 173       13F-1        0.00000   0.00001  -0.00119   0.00072  -0.00312
 174       13F+2        0.00001   0.00003  -0.00143   0.00048  -0.00038
 175       13F-2       -0.00040  -0.00085  -0.00007  -0.00001   0.00002
 176       13F+3       -0.00045  -0.00212  -0.00008   0.00001   0.00004
 177       13F-3       -0.00002  -0.00007  -0.00041   0.00073  -0.00248
 178       14F 0        0.00002   0.00008   0.00248  -0.00483   0.00117
 179       14F+1        0.00071   0.00146  -0.00003  -0.00025   0.00017
 180       14F-1        0.00006   0.00018  -0.00067   0.01145  -0.00485
 181       14F+2        0.00004   0.00015   0.00347  -0.00017   0.00141
 182       14F-2       -0.00052  -0.00403  -0.00010   0.00017  -0.00001
 183       14F+3        0.00080   0.00084   0.00002  -0.00009   0.00020
 184       14F-3        0.00006   0.00009   0.00010   0.00071  -0.00143
                          21        22        23        24        25
     Eigenvalues --     0.01543   0.01405   0.01393   0.01351   0.01081
   1 1   O  1S         -0.03453   0.00000  -0.00306   0.00000  -0.23974
   2        2S          0.06934   0.00000   0.00791   0.00000   0.78005
   3        3S          0.11255   0.00000   0.00811   0.00000   0.65848
   4        4S         -0.79580   0.00000  -0.03733   0.00000  -1.19582
   5        5S         -0.45364   0.00000  -0.01895   0.00000  -0.29216
   6        6PX        -0.00681   0.00000   0.26022   0.00000  -0.00372
   7        6PY         0.00000  -0.01167   0.00000   0.30535   0.00000
   8        6PZ         0.30177   0.00000   0.01229   0.00000   0.20681
   9        7PX        -0.00567   0.00000   0.19830   0.00000  -0.00131
  10        7PY         0.00000  -0.00544   0.00000   0.16431   0.00000
  11        7PZ         0.29792   0.00000   0.00971   0.00000  -0.03031
  12        8PX         0.00186   0.00000  -0.14172   0.00000   0.00035
  13        8PY         0.00000   0.00979   0.00000  -0.18762   0.00000
  14        8PZ         0.03807   0.00000   0.00054   0.00000  -0.10099
  15        9PX         0.00066   0.00000  -0.03205   0.00000  -0.00038
  16        9PY         0.00000   0.00347   0.00000   0.00124   0.00000
  17        9PZ         0.05856   0.00000   0.00235   0.00000   0.00002
  18       10D 0        0.05486   0.00000   0.00245   0.00000  -0.01834
  19       10D+1       -0.00175   0.00000   0.04035   0.00000  -0.00044
  20       10D-1        0.00000  -0.00044   0.00000  -0.00764   0.00000
  21       10D+2        0.01337   0.00000  -0.00070   0.00000  -0.02073
  22       10D-2        0.00000  -0.02361   0.00000  -0.00075   0.00000
  23       11D 0        0.08928   0.00000   0.00417   0.00000  -0.06609
  24       11D+1       -0.00377   0.00000   0.07451   0.00000  -0.00060
  25       11D-1        0.00000  -0.00159   0.00000  -0.04640   0.00000
  26       11D+2        0.04566   0.00000  -0.00141   0.00000  -0.00694
  27       11D-2        0.00000  -0.07493   0.00000  -0.00255   0.00000
  28       12D 0        0.02326   0.00000  -0.00052   0.00000  -0.05093
  29       12D+1        0.00029   0.00000  -0.01590   0.00000   0.00109
  30       12D-1        0.00000   0.00066   0.00000  -0.05106   0.00000
  31       12D+2        0.01875   0.00000  -0.00105   0.00000   0.01137
  32       12D-2        0.00000  -0.05458   0.00000  -0.00159   0.00000
  33       13F 0       -0.01006   0.00000  -0.00055   0.00000   0.00126
  34       13F+1        0.00053   0.00000  -0.00665   0.00000   0.00012
  35       13F-1        0.00000   0.00019   0.00000   0.00564   0.00000
  36       13F+2       -0.00437   0.00000   0.00009   0.00000   0.00209
  37       13F-2        0.00000   0.00542   0.00000   0.00017   0.00000
  38       13F+3       -0.00003   0.00000  -0.00073   0.00000   0.00002
  39       13F-3        0.00000   0.00007   0.00000  -0.00141   0.00000
  40       14F 0       -0.02596   0.00000  -0.00068   0.00000   0.02175
  41       14F+1        0.00066   0.00000  -0.01060   0.00000  -0.00038
  42       14F-1        0.00000   0.00064   0.00000   0.00420   0.00000
  43       14F+2       -0.00060   0.00000   0.00106   0.00000  -0.00154
  44       14F-2        0.00000   0.02809   0.00000   0.00122   0.00000
  45       14F+3        0.00028   0.00000   0.00645   0.00000  -0.00025
  46       14F-3        0.00000  -0.00090   0.00000   0.01271   0.00000
  47 2   C  1S         -0.03894   0.00000  -0.00155   0.00000   0.00907
  48        2S          0.16964   0.00000   0.00568   0.00000   0.05541
  49        3S          0.11825   0.00000   0.00380   0.00000   0.05510
  50        4S         -0.13096   0.00000   0.01058   0.00000   0.19884
  51        5S          0.06206   0.00000   0.00398   0.00000   0.06116
  52        6PX         0.00143   0.00000  -0.12275   0.00000   0.00263
  53        6PY         0.00000  -0.00643   0.00000   0.22231   0.00000
  54        6PZ         0.33392   0.00000   0.00744   0.00000  -0.11676
  55        7PX         0.00182   0.00000  -0.17933   0.00000   0.00332
  56        7PY         0.00000  -0.01575   0.00000   0.48336   0.00000
  57        7PZ         0.50047   0.00000   0.01141   0.00000  -0.00816
  58        8PX         0.00177   0.00000  -0.16463   0.00000   0.00170
  59        8PY         0.00000  -0.00721   0.00000   0.44478   0.00000
  60        8PZ         0.45261   0.00000   0.00887   0.00000  -0.02892
  61        9PX        -0.00012   0.00000  -0.00793   0.00000   0.00028
  62        9PY         0.00000  -0.00180   0.00000  -0.00681   0.00000
  63        9PZ         0.01990   0.00000  -0.00033   0.00000   0.00464
  64       10D 0        0.05982   0.00000   0.00093   0.00000  -0.02907
  65       10D+1        0.00206   0.00000  -0.10889   0.00000   0.00158
  66       10D-1        0.00000   0.00362   0.00000  -0.08527   0.00000
  67       10D+2        0.04687   0.00000  -0.00055   0.00000  -0.02686
  68       10D-2        0.00000  -0.09135   0.00000  -0.00310   0.00000
  69       11D 0        0.18706   0.00000   0.00493   0.00000  -0.12462
  70       11D+1        0.00131   0.00000  -0.20971   0.00000   0.00344
  71       11D-1        0.00000   0.01220   0.00000  -0.47293   0.00000
  72       11D+2        0.18278   0.00000   0.00271   0.00000  -0.04081
  73       11D-2        0.00000  -0.13983   0.00000  -0.00748   0.00000
  74       12D 0        0.05026   0.00000   0.00466   0.00000   0.03134
  75       12D+1       -0.00226   0.00000  -0.00724   0.00000   0.00075
  76       12D-1        0.00000  -0.00074   0.00000  -0.19055   0.00000
  77       12D+2        0.04415   0.00000   0.00299   0.00000   0.00628
  78       12D-2        0.00000   0.02590   0.00000  -0.00093   0.00000
  79       13F 0       -0.01337   0.00000  -0.00021   0.00000  -0.00529
  80       13F+1       -0.00042   0.00000  -0.00721   0.00000   0.00060
  81       13F-1        0.00000  -0.00223   0.00000   0.04311   0.00000
  82       13F+2       -0.01539   0.00000   0.00037   0.00000  -0.00683
  83       13F-2        0.00000   0.02984   0.00000   0.00165   0.00000
  84       13F+3        0.00001   0.00000  -0.02661   0.00000   0.00041
  85       13F-3        0.00000   0.00102   0.00000  -0.01151   0.00000
  86       14F 0       -0.06816   0.00000  -0.00164   0.00000  -0.05235
  87       14F+1       -0.00077   0.00000  -0.04874   0.00000   0.00194
  88       14F-1        0.00000   0.00420   0.00000  -0.12173   0.00000
  89       14F+2       -0.07427   0.00000   0.00039   0.00000  -0.00439
  90       14F-2        0.00000   0.06301   0.00000   0.00544   0.00000
  91       14F+3       -0.00074   0.00000  -0.00797   0.00000   0.00103
  92       14F-3        0.00000   0.00195   0.00000  -0.07157   0.00000
  93 3   F  1S          0.01377  -0.00078   0.00045   0.04904  -0.02384
  94        2S         -0.02464   0.00187  -0.00132  -0.12190   0.05839
  95        3S         -0.03750   0.00246  -0.00118  -0.13578   0.06097
  96        4S          0.34173  -0.01417   0.00510   0.69031  -0.12378
  97        5S          0.23623  -0.00574   0.00520   0.53765  -0.00753
  98        6PX         0.00812  -0.45554  -0.39948  -0.01231   0.00496
  99        6PY        -0.09420  -0.00765   0.00278   0.34084   0.03600
 100        6PZ         0.32886   0.00432   0.00508  -0.00609  -0.12333
 101        7PX         0.00330  -0.13737  -0.11695  -0.00269   0.00096
 102        7PY         0.01313  -0.00485   0.00108   0.17898   0.00562
 103        7PZ         0.13935  -0.00064   0.00162   0.05948  -0.02260
 104        8PX        -0.00762   0.51817   0.50798   0.01631  -0.00676
 105        8PY         0.20655   0.00536  -0.00255  -0.25363  -0.05492
 106        8PZ        -0.27565  -0.01347  -0.00357   0.29152   0.14541
 107        9PX        -0.00115   0.08126   0.07643   0.00306  -0.00095
 108        9PY         0.05563   0.00089  -0.00041   0.05432  -0.01303
 109        9PZ        -0.00254  -0.00184   0.00167   0.05145   0.02328
 110       10D 0       -0.00131  -0.00043   0.00021   0.00318   0.00030
 111       10D+1       -0.00016   0.01493  -0.00433   0.00019   0.00039
 112       10D-1       -0.01417   0.00063  -0.00004  -0.02559   0.01738
 113       10D+2        0.00477  -0.00007   0.00036   0.00999  -0.00173
 114       10D-2       -0.00054   0.00813   0.01381  -0.00018  -0.00005
 115       11D 0        0.00264  -0.00104   0.00089   0.00590  -0.00262
 116       11D+1       -0.00047   0.04185  -0.00809   0.00063   0.00116
 117       11D-1       -0.02487   0.00091   0.00015  -0.04687   0.05118
 118       11D+2        0.00996   0.00057   0.00123   0.00760  -0.00987
 119       11D-2       -0.00137   0.02676   0.04211  -0.00019   0.00007
 120       12D 0       -0.01307  -0.00272   0.00023   0.05938  -0.00240
 121       12D+1       -0.00034   0.02916   0.00628   0.00177   0.00086
 122       12D-1        0.00087  -0.00132   0.00062   0.03157   0.03975
[...]
 123       12D+2        0.11400  -0.12076  -0.00598  -0.17592   0.10192
 124       12D-2       -0.01331   0.00761  -0.00852  -0.02567   0.00347
 125       13F 0        0.00448   0.02250  -0.00149  -0.01369  -0.00292
 126       13F+1       -0.00146   0.00098   0.00419   0.00016  -0.00091
 127       13F-1       -0.04940   0.02223  -0.00175   0.00252  -0.01138
 128       13F+2        0.02731  -0.03342   0.00211   0.00064   0.00558
 129       13F-2       -0.00037   0.00076   0.01544   0.00096  -0.00050
 130       13F+3       -0.00077  -0.00066   0.00763   0.00076   0.00062
 131       13F-3       -0.00897  -0.01952   0.00082   0.01617   0.00876
 132       14F 0       -0.02134  -0.05358   0.00369   0.04376   0.02033
 133       14F+1        0.00406  -0.00109  -0.00245  -0.00162   0.00253
 134       14F-1        0.15984  -0.04577   0.00497   0.00266   0.06742
 135       14F+2       -0.08424   0.05824  -0.00584  -0.01195  -0.02534
 136       14F-2        0.00095  -0.00125  -0.04167  -0.00191   0.00172
 137       14F+3        0.00231   0.00130  -0.00770  -0.00161  -0.00103
 138       14F-3        0.01623   0.04396  -0.00227  -0.04632  -0.01481
 139 4   F  1S          0.09289  -0.11296   0.00469   0.01849  -0.00587
 140        2S          0.41869  -0.48528   0.01972   0.07029   0.00262
 141        3S         -0.07615   0.11984  -0.00530  -0.02579   0.03616
 142        4S         -1.46717   3.35034  -0.22331  -1.67615  -0.46337
 143        5S          1.58193   6.21740  -0.20336   2.55257  -2.79122
 144        6PX        -0.00009   0.00012  -0.00361   0.00241   0.00032
 145        6PY         0.00301  -0.00722  -0.00032  -0.01175   0.01156
 146        6PZ         0.01795   0.00426  -0.00069  -0.00301  -0.00695
 147        7PX         0.00000  -0.00094   0.00834  -0.00893  -0.00112
 148        7PY        -0.00180   0.01901   0.00380   0.09629  -0.05882
 149        7PZ        -0.09425  -0.01373   0.00016  -0.03232   0.06001
 150        8PX         0.01924   0.03409   0.12179  -0.03252  -0.00949
 151        8PY         0.59238  -1.22796   0.05629   0.09823   0.30416
 152        8PZ        -1.60181   1.31502  -0.05796  -0.46680  -1.43217
 153        9PX         0.00677   0.03482  -0.08926  -0.16598  -0.00287
 154        9PY        -1.75921  -1.37142   0.04858  -0.23426  -0.64123
 155        9PZ         1.65304   3.31514  -0.03566   2.34011  -0.81905
 156       10D 0        0.00958   0.01334   0.00136   0.02009  -0.00390
 157       10D+1        0.00076   0.00195   0.03093  -0.00268  -0.00010
 158       10D-1       -0.01293  -0.02397   0.00114  -0.00390  -0.00208
 159       10D+2       -0.02584  -0.01872  -0.00049  -0.00579  -0.01099
 160       10D-2       -0.00021   0.00024   0.01032   0.00062  -0.00006
 161       11D 0       -0.04955  -0.04727  -0.00458  -0.06806   0.01152
 162       11D+1       -0.00289  -0.00668  -0.10982   0.00907   0.00018
 163       11D-1        0.07471   0.08251  -0.00333   0.03557   0.01518
 164       11D+2        0.09532   0.05722   0.00146   0.02469   0.03447
 165       11D-2        0.00079  -0.00042  -0.02401  -0.00266   0.00015
 166       12D 0       -0.42598   0.10488   0.02004   0.18858  -0.51617
 167       12D+1        0.00036   0.02304   0.25843  -0.04167  -0.01013
 168       12D-1        0.71960  -0.50359   0.00703   0.00059   0.30542
 169       12D+2       -0.11400  -0.12076  -0.00598  -0.17592  -0.10192
 170       12D-2       -0.01331  -0.00761   0.00852   0.02567   0.00347
 171       13F 0       -0.00448   0.02250  -0.00149  -0.01369   0.00292
 172       13F+1        0.00146   0.00098   0.00419   0.00016   0.00091
 173       13F-1       -0.04940  -0.02223   0.00175  -0.00252  -0.01138
 174       13F+2       -0.02731  -0.03342   0.00211   0.00064  -0.00558
 175       13F-2       -0.00037  -0.00076  -0.01544  -0.00096  -0.00050
 176       13F+3        0.00077  -0.00066   0.00763   0.00076  -0.00062
 177       13F-3       -0.00897   0.01952  -0.00082  -0.01617   0.00876
 178       14F 0        0.02134  -0.05358   0.00369   0.04376  -0.02033
 179       14F+1       -0.00406  -0.00109  -0.00245  -0.00162  -0.00253
 180       14F-1        0.15984   0.04577  -0.00497  -0.00266   0.06742
 181       14F+2        0.08424   0.05824  -0.00584  -0.01195   0.02534
 182       14F-2        0.00095   0.00125   0.04167   0.00191   0.00172
 183       14F+3       -0.00231   0.00130  -0.00770  -0.00161   0.00103
 184       14F-3        0.01623  -0.04396   0.00227   0.04632  -0.01481
                         181       182       183       184
     Eigenvalues --     0.00000   0.00000   0.00000   0.00000
   1 1   O  1S          0.00373   0.00000   0.11007  -0.05385
   2        2S          0.02261   0.00000   0.54766  -0.26818
   3        3S          0.00538   0.00000  -0.04462   0.02672
   4        4S          0.20902   0.00000  -3.01417   6.92288
   5        5S          0.38653   0.00000 -10.68013  16.14045
   6        6PX         0.01321   0.00000  -0.00038   0.00036
   7        6PY         0.00000  -0.00244   0.00000   0.00000
   8        6PZ        -0.00121   0.00000   0.01195  -0.00426
   9        7PX        -0.03614   0.00000   0.00236   0.00008
  10        7PY         0.00000   0.00679   0.00000   0.00000
  11        7PZ         0.00260   0.00000  -0.06977  -0.12440
  12        8PX         0.69513   0.00000  -0.00183   0.08828
  13        8PY         0.00000  -1.80983   0.00000   0.00000
  14        8PZ         0.03934   0.00000   2.76461  -3.06997
  15        9PX        -1.55676   0.00000  -0.01005   0.04883
  16        9PY         0.00000  -4.25799   0.00000   0.00000
  17        9PZ        -0.46663   0.00000   2.87084  -3.45991
  18       10D 0        0.00752   0.00000   0.01864  -0.00457
  19       10D+1        0.00879   0.00000  -0.00018   0.00007
  20       10D-1        0.00000   0.00142   0.00000   0.00000
  21       10D+2       -0.00207   0.00000  -0.00001  -0.00660
  22       10D-2        0.00000  -0.00080   0.00000   0.00000
  23       11D 0       -0.03844   0.00000  -0.14397   0.09016
  24       11D+1       -0.09563   0.00000   0.00012  -0.00413
  25       11D-1        0.00000   0.08332   0.00000   0.00000
  26       11D+2        0.00897   0.00000  -0.00176   0.02794
  27       11D-2        0.00000   0.00236   0.00000   0.00000
  28       12D 0        0.02275   0.00000  -0.79004   0.24543
  29       12D+1       -0.09442   0.00000   0.00118  -0.03009
  30       12D-1        0.00000   1.07439   0.00000   0.00000
  31       12D+2        0.01824   0.00000  -0.03435   0.11512
  32       12D-2        0.00000  -0.00921   0.00000   0.00000
  33       13F 0        0.00152   0.00000   0.00261  -0.02164
  34       13F+1        0.00271   0.00000  -0.00008   0.00040
  35       13F-1        0.00000   0.01557   0.00000   0.00000
  36       13F+2        0.00188   0.00000  -0.00212   0.01978
  37       13F-2        0.00000   0.00026   0.00000   0.00000
  38       13F+3       -0.00220   0.00000   0.00028  -0.00033
  39       13F-3        0.00000  -0.00157   0.00000   0.00000
  40       14F 0        0.00567   0.00000   0.11047   0.04213
  41       14F+1        0.05177   0.00000  -0.00052   0.00286
  42       14F-1        0.00000  -0.18098   0.00000   0.00000
  43       14F+2       -0.00953   0.00000   0.01213  -0.06811
  44       14F-2        0.00000   0.00091   0.00000   0.00000
  45       14F+3        0.02124   0.00000  -0.00060   0.00098
  46       14F-3        0.00000   0.01909   0.00000   0.00000
  47 2   C  1S          0.01274   0.00000   0.06341  -0.07697
  48        2S          0.08034   0.00000   0.39090  -0.41025
  49        3S          0.02198   0.00000   0.20320   0.18746
  50        4S         -0.52169   0.00000  -4.57335 -18.09372
  51        5S          0.16865   0.00000  -0.51613  -9.91560
  52        6PX        -0.00526   0.00000  -0.00003   0.00012
  53        6PY         0.00000   0.02251   0.00000   0.00000
  54        6PZ         0.00246   0.00000  -0.01877   0.00532
  55        7PX        -0.07312   0.00000  -0.00150  -0.00064
  56        7PY         0.00000  -1.21687   0.00000   0.00000
  57        7PZ         0.05740   0.00000   1.63465  -0.15630
  58        8PX         0.69354   0.00000   0.00739   0.01489
  59        8PY         0.00000  -8.13493   0.00000   0.00000
  60        8PZ        -0.23368   0.00000   7.31661  -5.06372
  61        9PX         3.13689   0.00000   0.00471   0.02087
  62        9PY         0.00000   2.37460   0.00000   0.00000
  63        9PZ         0.36843   0.00000   1.94175  -0.00513
  64       10D 0        0.01228   0.00000   0.01765   0.03494
  65       10D+1        0.00573   0.00000  -0.00018  -0.00044
  66       10D-1        0.00000  -0.01214   0.00000   0.00000
  67       10D+2       -0.00907   0.00000  -0.00623  -0.02092
  68       10D-2        0.00000  -0.00108   0.00000   0.00000
  69       11D 0       -0.00796   0.00000   0.39579  -0.96777
  70       11D+1       -0.32389   0.00000  -0.01933  -0.00737
  71       11D-1        0.00000   2.32627   0.00000   0.00000
  72       11D+2        0.09023   0.00000   0.88130   0.63434
  73       11D-2        0.00000   0.03383   0.00000   0.00000
  74       12D 0       -0.05823   0.00000   0.46427  -2.75239
  75       12D+1       -0.33584   0.00000  -0.03205  -0.00761
  76       12D-1        0.00000   4.59014   0.00000   0.00000
  77       12D+2       -0.05626   0.00000   0.94674   0.02332
  78       12D-2        0.00000   0.02118   0.00000   0.00000
  79       13F 0        0.00091   0.00000  -0.05049  -0.02951
  80       13F+1       -0.04847   0.00000  -0.00030  -0.00069
  81       13F-1        0.00000  -0.00873   0.00000   0.00000
  82       13F+2       -0.00195   0.00000  -0.04529  -0.02274
  83       13F-2        0.00000  -0.00147   0.00000   0.00000
  84       13F+3        0.04609   0.00000  -0.00033  -0.00022
  85       13F-3        0.00000   0.06007   0.00000   0.00000
  86       14F 0       -0.11807   0.00000  -0.32755  -0.51233
  87       14F+1       -0.10646   0.00000  -0.00286  -0.00609
  88       14F-1        0.00000  -0.09808   0.00000   0.00000
  89       14F+2       -0.07237   0.00000  -0.23463  -0.38776
  90       14F-2        0.00000  -0.02786   0.00000   0.00000
  91       14F+3       -0.22455   0.00000  -0.00344   0.00155
  92       14F-3        0.00000  -0.07503   0.00000   0.00000
  93 3   F  1S         -0.00159   0.09630  -0.02389  -0.01723
  94        2S         -0.00572   0.44802  -0.13331  -0.09962
  95        3S          0.00236  -0.06046  -0.01595  -0.01048
  96        4S          0.21496  -3.04533   1.85870   1.76502
  97        5S         -0.29516 -16.45598   8.04369   2.62622
  98        6PX         0.01746  -0.00063   0.00003   0.00002
  99        6PY        -0.00153  -0.01073   0.00996   0.00487
 100        6PZ         0.00011  -0.00630   0.00712   0.00280
 101        7PX        -0.06703   0.00246  -0.00027  -0.00022
 102        7PY         0.01301   0.05139  -0.04469  -0.02095
 103        7PZ         0.00452   0.02310  -0.02776  -0.00965
 104        8PX         0.00742  -0.00651   0.01616   0.02186
 105        8PY         0.00743  -2.51434   1.46979   1.26027
 106        8PZ         0.09612  -1.44419   1.31293   0.91089
 107        9PX        -1.34515  -0.02033   0.00945   0.00544
 108        9PY        -0.02992  -5.56887   1.46544   0.51318
 109        9PZ        -0.24036  -1.95741   1.18102  -1.07379
 110       10D 0       -0.00206   0.00190  -0.00449   0.00018
 111       10D+1       -0.00744   0.00013  -0.00002  -0.00020
 112       10D-1       -0.00023  -0.00521  -0.00370  -0.00541
 113       10D+2        0.00021   0.01890  -0.00428   0.00077
 114       10D-2       -0.00839  -0.00006  -0.00007   0.00009
 115       11D 0        0.00738  -0.00956   0.02283  -0.00732
 116       11D+1        0.02462  -0.00060   0.00040   0.00081
 117       11D-1        0.00387  -0.01450   0.04536   0.03183
 118       11D+2       -0.00135  -0.04165  -0.00076  -0.01131
 119       11D-2        0.03096  -0.00012   0.00058   0.00000
 120       12D 0       -0.00572   0.26080   0.08283   0.00402
 121       12D+1       -0.16545   0.00431   0.00600   0.00398
 122       12D-1        0.01923  -0.68174   0.45969   0.24614
 123       12D+2        0.02534   0.64438  -0.19305  -0.17791
 124       12D-2       -0.13371   0.00224   0.00388   0.01000
 125       13F 0        0.00192  -0.01332   0.00328   0.00526
 126       13F+1        0.00540  -0.00049  -0.00020  -0.00005
 127       13F-1       -0.00115  -0.00199  -0.01236  -0.00222
 128       13F+2        0.00034   0.00624   0.00925   0.00162
 129       13F-2        0.01507  -0.00058  -0.00028   0.00001
 130       13F+3        0.00731   0.00106  -0.00021   0.00022
 131       13F-3       -0.00242   0.00962  -0.00937  -0.00842
 132       14F 0       -0.00577   0.07027  -0.02290  -0.02471
 133       14F+1       -0.01910   0.00124   0.00088   0.00003
 134       14F-1        0.00326  -0.00006   0.06189   0.00470
 135       14F+2       -0.00019   0.03425  -0.05623  -0.01907
 136       14F-2       -0.03093   0.00134   0.00159   0.00067
 137       14F+3       -0.01679  -0.00183   0.00021  -0.00139
 138       14F-3        0.00766   0.01298   0.01418   0.00501
 139 4   F  1S         -0.00159  -0.09630  -0.02389  -0.01723
 140        2S         -0.00572  -0.44802  -0.13331  -0.09962
 141        3S          0.00236   0.06046  -0.01595  -0.01048
 142        4S          0.21496   3.04533   1.85870   1.76502
 143        5S         -0.29516  16.45598   8.04369   2.62622
 144        6PX         0.01746   0.00063   0.00003   0.00002
 145        6PY         0.00153  -0.01073  -0.00996  -0.00487
 146        6PZ         0.00011   0.00630   0.00712   0.00280
 147        7PX        -0.06703  -0.00246  -0.00027  -0.00022
 148        7PY        -0.01301   0.05139   0.04469   0.02095
 149        7PZ         0.00452  -0.02310  -0.02776  -0.00965
 150        8PX         0.00742   0.00651   0.01616   0.02186
 151        8PY        -0.00743  -2.51434  -1.46979  -1.26027
 152        8PZ         0.09612   1.44419   1.31293   0.91089
 153        9PX        -1.34515   0.02033   0.00945   0.00544
 154        9PY         0.02992  -5.56887  -1.46544  -0.51318
 155        9PZ        -0.24036   1.95741   1.18102  -1.07379
 156       10D 0       -0.00206  -0.00190  -0.00449   0.00018
 157       10D+1       -0.00744  -0.00013  -0.00002  -0.00020
 158       10D-1        0.00023  -0.00521   0.00370   0.00541
 159       10D+2        0.00021  -0.01890  -0.00428   0.00077
 160       10D-2        0.00839  -0.00006   0.00007  -0.00009
 161       11D 0        0.00738   0.00956   0.02283  -0.00732
 162       11D+1        0.02462   0.00060   0.00040   0.00081
 163       11D-1       -0.00387  -0.01450  -0.04536  -0.03183
 164       11D+2       -0.00135   0.04165  -0.00076  -0.01131
 165       11D-2       -0.03096  -0.00012  -0.00058   0.00000
 166       12D 0       -0.00572  -0.26080   0.08283   0.00402
 167       12D+1       -0.16545  -0.00431   0.00600   0.00398
 168       12D-1       -0.01923  -0.68174  -0.45969  -0.24614
 169       12D+2        0.02534  -0.64438  -0.19305  -0.17791
 170       12D-2        0.13371   0.00224  -0.00388  -0.01000
 171       13F 0        0.00192   0.01332   0.00328   0.00526
 172       13F+1        0.00540   0.00049  -0.00020  -0.00005
 173       13F-1        0.00115  -0.00199   0.01236   0.00222
 174       13F+2        0.00034  -0.00624   0.00925   0.00162
 175       13F-2       -0.01507  -0.00058   0.00028  -0.00001
 176       13F+3        0.00731  -0.00106  -0.00021   0.00022
 177       13F-3        0.00242   0.00962   0.00937   0.00842
 178       14F 0       -0.00577  -0.07027  -0.02290  -0.02471
 179       14F+1       -0.01910  -0.00124   0.00088   0.00003
 180       14F-1       -0.00326  -0.00006  -0.06189  -0.00470
 181       14F+2       -0.00019  -0.03425  -0.05623  -0.01907
 182       14F-2        0.03093   0.00134  -0.00159  -0.00067
 183       14F+3       -0.01679   0.00183   0.00021  -0.00139
 184       14F-3       -0.00766   0.01298  -0.01418  -0.00501
          Condensed to atoms (all electrons):
              1          2          3          4
     1  O    7.946835   0.499991  -0.079641  -0.079641
     2  C    0.499991   4.519574   0.185094   0.185094
     3  F   -0.079641   0.185094   9.104405  -0.048507
     4  F   -0.079641   0.185094  -0.048507   9.104405
 Mulliken atomic charges:
              1
     1  O   -0.287545
     2  C    0.610247
     3  F   -0.161351
     4  F   -0.161351
 Sum of Mulliken atomic charges =   0.00000
 Mulliken charges with hydrogens summed into heavy atoms:
              1
     1  O   -0.287545
     2  C    0.610247
     3  F   -0.161351
     4  F   -0.161351
 Sum of Mulliken charges with hydrogens summed into heavy atoms =   0.00000
 Electronic spatial extent (au):  <R**2>=            239.4200
 Charge=              0.0000 electrons
 Dipole moment (field-independent basis, Debye):
    X=              0.0290    Y=              0.0000    Z=             -1.0331  Tot=              1.0335
 Quadrupole moment (field-independent basis, Debye-Ang):
   XX=            -18.9046   YY=            -21.3174   ZZ=            -21.9188
   XY=              0.0000   XZ=             -0.0221   YZ=              0.0000
 Traceless Quadrupole moment (field-independent basis, Debye-Ang):
   XX=              1.8090   YY=             -0.6038   ZZ=             -1.2052
   XY=              0.0000   XZ=             -0.0221   YZ=              0.0000
 Octapole moment (field-independent basis, Debye-Ang**2):
  XXX=             -0.1282  YYY=              0.0000  ZZZ=             34.2721  XYY=             -0.0624
  XXY=              0.0000  XXZ=             10.3471  XZZ=             -0.0544  YZZ=              0.0000
  YYZ=             12.0142  XYZ=              0.0000
 Hexadecapole moment (field-independent basis, Debye-Ang**3):
 XXXX=            -13.4848 YYYY=            -79.9322 ZZZZ=           -132.3945 XXXY=              0.0000
 XXXZ=              0.0472 YYYX=              0.0000 YYYZ=              0.0000 ZZZX=              0.0782
 ZZZY=              0.0000 XXYY=            -15.6419 XXZZ=            -23.5679 YYZZ=            -36.1545
 XXYZ=              0.0000 YYXZ=              0.0481 ZZXY=              0.0000
 N-N= 1.199389995408D+02 E-N=-9.819214529469D+02  KE= 3.123811982213D+02
 1\1\GINC-TRAPISTA\SP\RQCISD-FC\Aug-CC-pVTZ\C1F2O1\BRUNS\26-Nov-2021\0\
 \# qcisd/aug-cc-pvtz nosymm density=current output=wfn\\f2co-wavefunct
 ion\\0,1\O,0,0.,0.,0.679927\C,0,0.01,0.,-0.492216\F,0,0.,-1.058878,-1.
 264305\F,0,0.,1.058878,-1.264305\\Version=EM64L-G09RevB.01\HF=-311.741
 1844\MP2=-312.6371042\MP3=-312.6246005\MP4D=-312.6402025\MP4DQ=-312.62
 41439\MP4SDQ=-312.635749\QCISD=-312.6352519\RMSD=8.489e-09\Dipole=0.01
 14117,0.,-0.4064432\Quadrupole=1.3449516,-0.4489123,-0.8960393,0.,-0.0
 164282,0.\PG=CS [SG(C1O1),X(F2)]\\@

 Writing a WFN file to GAUSSIAN.wfn.


          EVOLUTION
 IN THE BEGINNING GOD MADE MAN.
 HE WORKED THE DIRT WITH HIS HANDS.
 THEN GOD DECIDED TO GIVE MAN SCIENCE,
 MAN SHOULD BE USEFUL (LIKE AN APPLIANCE.)
 BUT SOON MAN'S KNOWLEDGE GREW TOO GREAT,
 TO THE HEADING SCIENCE HE COULDN'T RELATE
 SO GOD SAID "LETS HAVE DIFFERENT FIELDS,
 WE'LL DIVIDE THEM UP, SEE WHAT IT YIELDS."
 ENTER PHYSICS, CHEMISTRY, BIO
 THEY SPRANG UP AROUND THE NILE.
 BUT CHEMISTRY SURPASSED THE REST
 FAR AND AWAY IT WAS THE BEST.
 EXPERIMENT WAS GOD'S DECREE
 EXPERIMENT DID CHEMISTS WITH LOTS OF GLEE
 BUT SOON THEIR TESTS BEGAN TO BOG,
 THEY FOUND THEMSELVES DEEP IN A FOG.
 "GIVE US SOME HELP" THEY CRIED TO GOD.
 GOD LOOKED AROUND, THEN GAVE THE NOD.
 ENTER EINSTEIN, HEISENBERG, BOHR,
 REACTION PATHS WERE CLEAR ONCE MORE.
 WITH THEORISTS GOD SEND DIRECTION
 AND THEN HE STOPPED, HE'D MADE PERFECTION.
          -- THOMAS A. HOLME, 1981
 Job cpu time:  0 days  1 hours 58 minutes 30.3 seconds.
 File lengths (MBytes):  RWF=  17462 Int=      0 D2E=      0 Chk=      3 Scr=      1
 Normal termination of Gaussian 09 at Fri Nov 26 19:42:17 2021.
