 f2co-wavefunction
GAUSSIAN            184 MOL ORBITALS    288 PRIMITIVES        4 NUCLEI
  O    1    (CENTRE  1)   0.00000000  0.00000000  1.28487582  CHARGE =  8.0
  C    2    (CENTRE  2)   0.00000000  0.00000000 -0.93015344  CHARGE =  6.0
  F    3    (CENTRE  3)   0.01889726 -2.00098943 -2.38919020  CHARGE =  9.0
  F    4    (CENTRE  4)   0.00000000  2.00098943 -2.38919020  CHARGE =  9.0
CENTRE ASSIGNMENTS    1  1  1  1  1  1  1  1  1  1  1  1  1  1  1  1  1  1  1  1
CENTRE ASSIGNMENTS    1  1  1  1  1  1  1  1  1  1  1  1  1  1  1  1  1  1  1  1
CENTRE ASSIGNMENTS    1  1  1  1  1  1  1  1  1  1  1  1  1  1  1  1  1  1  1  1
CENTRE ASSIGNMENTS    1  1  1  1  1  1  1  1  1  1  1  1  2  2  2  2  2  2  2  2
CENTRE ASSIGNMENTS    2  2  2  2  2  2  2  2  2  2  2  2  2  2  2  2  2  2  2  2
CENTRE ASSIGNMENTS    2  2  2  2  2  2  2  2  2  2  2  2  2  2  2  2  2  2  2  2
CENTRE ASSIGNMENTS    2  2  2  2  2  2  2  2  2  2  2  2  2  2  2  2  2  2  2  2
CENTRE ASSIGNMENTS    2  2  2  2  3  3  3  3  3  3  3  3  3  3  3  3  3  3  3  3
CENTRE ASSIGNMENTS    3  3  3  3  3  3  3  3  3  3  3  3  3  3  3  3  3  3  3  3
CENTRE ASSIGNMENTS    3  3  3  3  3  3  3  3  3  3  3  3  3  3  3  3  3  3  3  3
CENTRE ASSIGNMENTS    3  3  3  3  3  3  3  3  3  3  3  3  3  3  3  3  4  4  4  4
CENTRE ASSIGNMENTS    4  4  4  4  4  4  4  4  4  4  4  4  4  4  4  4  4  4  4  4
CENTRE ASSIGNMENTS    4  4  4  4  4  4  4  4  4  4  4  4  4  4  4  4  4  4  4  4
CENTRE ASSIGNMENTS    4  4  4  4  4  4  4  4  4  4  4  4  4  4  4  4  4  4  4  4
CENTRE ASSIGNMENTS    4  4  4  4  4  4  4  4
TYPE ASSIGNMENTS      1  1  1  1  1  1  1  1  1  1  1  1  1  1  1  1  2  2  2  3
TYPE ASSIGNMENTS      3  3  4  4  4  2  3  4  2  3  4  2  3  4  5  6  7  8  9 10
TYPE ASSIGNMENTS      5  6  7  8  9 10  5  6  7  8  9 10 11 12 13 17 14 15 18 19
TYPE ASSIGNMENTS     16 20 11 12 13 17 14 15 18 19 16 20  1  1  1  1  1  1  1  1
TYPE ASSIGNMENTS      1  1  1  1  1  1  1  1  2  2  2  3  3  3  4  4  4  2  3  4
TYPE ASSIGNMENTS      2  3  4  2  3  4  5  6  7  8  9 10  5  6  7  8  9 10  5  6
TYPE ASSIGNMENTS      7  8  9 10 11 12 13 17 14 15 18 19 16 20 11 12 13 17 14 15
TYPE ASSIGNMENTS     18 19 16 20  1  1  1  1  1  1  1  1  1  1  1  1  1  1  1  1
TYPE ASSIGNMENTS      2  2  2  3  3  3  4  4  4  2  3  4  2  3  4  2  3  4  5  6
TYPE ASSIGNMENTS      7  8  9 10  5  6  7  8  9 10  5  6  7  8  9 10 11 12 13 17
TYPE ASSIGNMENTS     14 15 18 19 16 20 11 12 13 17 14 15 18 19 16 20  1  1  1  1
TYPE ASSIGNMENTS      1  1  1  1  1  1  1  1  1  1  1  1  2  2  2  3  3  3  4  4
TYPE ASSIGNMENTS      4  2  3  4  2  3  4  2  3  4  5  6  7  8  9 10  5  6  7  8
TYPE ASSIGNMENTS      9 10  5  6  7  8  9 10 11 12 13 17 14 15 18 19 16 20 11 12
TYPE ASSIGNMENTS     13 17 14 15 18 19 16 20
EXPONENTS  0.1533000D+05 0.2299000D+04 0.5224000D+03 0.1473000D+03 0.4755000D+02
EXPONENTS  0.1676000D+02 0.6207000D+01 0.5224000D+03 0.1473000D+03 0.4755000D+02
EXPONENTS  0.1676000D+02 0.6207000D+01 0.6882000D+00 0.1752000D+01 0.2384000D+00
EXPONENTS  0.7376000D-01 0.3446000D+02 0.7749000D+01 0.2280000D+01 0.3446000D+02
EXPONENTS  0.7749000D+01 0.2280000D+01 0.3446000D+02 0.7749000D+01 0.2280000D+01
EXPONENTS  0.7156000D+00 0.7156000D+00 0.7156000D+00 0.2140000D+00 0.2140000D+00
EXPONENTS  0.2140000D+00 0.5974000D-01 0.5974000D-01 0.5974000D-01 0.2314000D+01
EXPONENTS  0.2314000D+01 0.2314000D+01 0.2314000D+01 0.2314000D+01 0.2314000D+01
EXPONENTS  0.6450000D+00 0.6450000D+00 0.6450000D+00 0.6450000D+00 0.6450000D+00
EXPONENTS  0.6450000D+00 0.2140000D+00 0.2140000D+00 0.2140000D+00 0.2140000D+00
EXPONENTS  0.2140000D+00 0.2140000D+00 0.1428000D+01 0.1428000D+01 0.1428000D+01
EXPONENTS  0.1428000D+01 0.1428000D+01 0.1428000D+01 0.1428000D+01 0.1428000D+01
EXPONENTS  0.1428000D+01 0.1428000D+01 0.5000000D+00 0.5000000D+00 0.5000000D+00
EXPONENTS  0.5000000D+00 0.5000000D+00 0.5000000D+00 0.5000000D+00 0.5000000D+00
EXPONENTS  0.5000000D+00 0.5000000D+00 0.8236000D+04 0.1235000D+04 0.2808000D+03
EXPONENTS  0.7927000D+02 0.2559000D+02 0.8997000D+01 0.3319000D+01 0.2808000D+03
EXPONENTS  0.7927000D+02 0.2559000D+02 0.8997000D+01 0.3319000D+01 0.3643000D+00
EXPONENTS  0.9059000D+00 0.1285000D+00 0.4402000D-01 0.1871000D+02 0.4133000D+01
EXPONENTS  0.1200000D+01 0.1871000D+02 0.4133000D+01 0.1200000D+01 0.1871000D+02
EXPONENTS  0.4133000D+01 0.1200000D+01 0.3827000D+00 0.3827000D+00 0.3827000D+00
EXPONENTS  0.1209000D+00 0.1209000D+00 0.1209000D+00 0.3569000D-01 0.3569000D-01
EXPONENTS  0.3569000D-01 0.1097000D+01 0.1097000D+01 0.1097000D+01 0.1097000D+01
EXPONENTS  0.1097000D+01 0.1097000D+01 0.3180000D+00 0.3180000D+00 0.3180000D+00
EXPONENTS  0.3180000D+00 0.3180000D+00 0.3180000D+00 0.1000000D+00 0.1000000D+00
EXPONENTS  0.1000000D+00 0.1000000D+00 0.1000000D+00 0.1000000D+00 0.7610000D+00
EXPONENTS  0.7610000D+00 0.7610000D+00 0.7610000D+00 0.7610000D+00 0.7610000D+00
EXPONENTS  0.7610000D+00 0.7610000D+00 0.7610000D+00 0.7610000D+00 0.2680000D+00
EXPONENTS  0.2680000D+00 0.2680000D+00 0.2680000D+00 0.2680000D+00 0.2680000D+00
EXPONENTS  0.2680000D+00 0.2680000D+00 0.2680000D+00 0.2680000D+00 0.1950000D+05
EXPONENTS  0.2923000D+04 0.6645000D+03 0.1875000D+03 0.6062000D+02 0.2142000D+02
EXPONENTS  0.7950000D+01 0.6645000D+03 0.1875000D+03 0.6062000D+02 0.2142000D+02
EXPONENTS  0.7950000D+01 0.8815000D+00 0.2257000D+01 0.3041000D+00 0.9158000D-01
EXPONENTS  0.4388000D+02 0.9926000D+01 0.2930000D+01 0.4388000D+02 0.9926000D+01
EXPONENTS  0.2930000D+01 0.4388000D+02 0.9926000D+01 0.2930000D+01 0.9132000D+00
EXPONENTS  0.9132000D+00 0.9132000D+00 0.2672000D+00 0.2672000D+00 0.2672000D+00
EXPONENTS  0.7361000D-01 0.7361000D-01 0.7361000D-01 0.3107000D+01 0.3107000D+01
EXPONENTS  0.3107000D+01 0.3107000D+01 0.3107000D+01 0.3107000D+01 0.8550000D+00
EXPONENTS  0.8550000D+00 0.8550000D+00 0.8550000D+00 0.8550000D+00 0.8550000D+00
EXPONENTS  0.2920000D+00 0.2920000D+00 0.2920000D+00 0.2920000D+00 0.2920000D+00
EXPONENTS  0.2920000D+00 0.1917000D+01 0.1917000D+01 0.1917000D+01 0.1917000D+01
EXPONENTS  0.1917000D+01 0.1917000D+01 0.1917000D+01 0.1917000D+01 0.1917000D+01
EXPONENTS  0.1917000D+01 0.7240000D+00 0.7240000D+00 0.7240000D+00 0.7240000D+00
EXPONENTS  0.7240000D+00 0.7240000D+00 0.7240000D+00 0.7240000D+00 0.7240000D+00
EXPONENTS  0.7240000D+00 0.1950000D+05 0.2923000D+04 0.6645000D+03 0.1875000D+03
EXPONENTS  0.6062000D+02 0.2142000D+02 0.7950000D+01 0.6645000D+03 0.1875000D+03
EXPONENTS  0.6062000D+02 0.2142000D+02 0.7950000D+01 0.8815000D+00 0.2257000D+01
EXPONENTS  0.3041000D+00 0.9158000D-01 0.4388000D+02 0.9926000D+01 0.2930000D+01
EXPONENTS  0.4388000D+02 0.9926000D+01 0.2930000D+01 0.4388000D+02 0.9926000D+01
EXPONENTS  0.2930000D+01 0.9132000D+00 0.9132000D+00 0.9132000D+00 0.2672000D+00
EXPONENTS  0.2672000D+00 0.2672000D+00 0.7361000D-01 0.7361000D-01 0.7361000D-01
EXPONENTS  0.3107000D+01 0.3107000D+01 0.3107000D+01 0.3107000D+01 0.3107000D+01
EXPONENTS  0.3107000D+01 0.8550000D+00 0.8550000D+00 0.8550000D+00 0.8550000D+00
EXPONENTS  0.8550000D+00 0.8550000D+00 0.2920000D+00 0.2920000D+00 0.2920000D+00
EXPONENTS  0.2920000D+00 0.2920000D+00 0.2920000D+00 0.1917000D+01 0.1917000D+01
EXPONENTS  0.1917000D+01 0.1917000D+01 0.1917000D+01 0.1917000D+01 0.1917000D+01
EXPONENTS  0.1917000D+01 0.1917000D+01 0.1917000D+01 0.7240000D+00 0.7240000D+00
EXPONENTS  0.7240000D+00 0.7240000D+00 0.7240000D+00 0.7240000D+00 0.7240000D+00
EXPONENTS  0.7240000D+00 0.7240000D+00 0.7240000D+00
MO    1     MO 0.0        OCC NO =    2.0000067  ORB. ENERGY =    0.000000
 -0.32217917D+00 -0.60048900D+00 -0.10182135D+01 -0.15409578D+01 -0.19222234D+01
 -0.16495537D+01 -0.63169143D+00 -0.40139863D-04 -0.43067439D-03 -0.15875469D-02
 -0.46418940D-02 -0.55937080D-02  0.67382140D-02 -0.29030680D-01  0.49038065D-03
 -0.49975521D-04  0.14523430D-04  0.14082841D-04  0.95002016D-05  0.69542000D-07
  0.67432347D-07  0.45489463D-07  0.19772187D-01  0.19172370D-01  0.12933568D-01
 -0.39306708D-06 -0.22379694D-08  0.25051523D-02 -0.16379892D-05 -0.74060413D-08
  0.66409099D-03 -0.73055905D-08 -0.90582532D-09  0.14584894D-04  0.12278643D-02
  0.65209029D-03 -0.18799546D-02  0.54375268D-05 -0.19591243D-05  0.27627842D-08
  0.50317583D-04 -0.25070749D-04 -0.25246834D-04  0.71206578D-06  0.23088034D-05
  0.18327567D-07  0.50127147D-04 -0.18440740D-05 -0.48283073D-04  0.49085825D-06
  0.72712108D-06  0.30997017D-08 -0.10600702D-06 -0.18511054D-07 -0.54863173D-03
 -0.29333239D-05  0.25243048D-07  0.10333229D-02  0.32513449D-05  0.30290116D-07
  0.61257232D-03  0.39734754D-05 -0.38159997D-07  0.46854650D-08  0.13142604D-04
  0.81271734D-06 -0.84376526D-08 -0.22372284D-04 -0.69823735D-06 -0.56187425D-08
 -0.17055527D-04 -0.50374403D-07  0.23921232D+00  0.44593995D+00  0.75369927D+00
  0.11329506D+01  0.13916269D+01  0.11744840D+01  0.44163665D+00  0.26518022D-04
  0.19820579D-03  0.74074028D-03  0.20665501D-02  0.27686073D-02 -0.32692090D-02
  0.19353341D-01 -0.41660773D-04  0.15423108D-04  0.35841345D-05  0.33603539D-05
  0.23927722D-05  0.65181663D-07  0.61111952D-07  0.43515350D-07 -0.40569379D-02
 -0.38036371D-02 -0.27084162D-02  0.36838738D-05  0.64402891D-07  0.48188300D-03
  0.32685104D-06 -0.52438845D-08  0.81625015D-04 -0.22786130D-07  0.19649802D-09
  0.82329851D-06 -0.95498919D-03  0.40688767D-03  0.54810152D-03 -0.12860633D-04
 -0.74434074D-05 -0.20046596D-06  0.21528229D-03 -0.12683804D-03 -0.88444243D-04
  0.32312011D-05  0.31933775D-05  0.16006628D-07 -0.31485744D-07 -0.26919333D-05
  0.27234190D-05  0.25115064D-07  0.90311397D-07  0.32623860D-08 -0.14825101D-05
  0.16715632D-07  0.56104748D-03  0.41203698D-05 -0.88644576D-07 -0.33692826D-03
  0.32716053D-06  0.38497679D-07 -0.13462142D-02  0.95305399D-05  0.86247635D-07
 -0.45571012D-08 -0.88315920D-04 -0.91485202D-06  0.12776737D-07 -0.11526574D-04
  0.65610911D-06  0.89456621D-09  0.27647433D-03 -0.27199700D-05 -0.96288391D-01
 -0.17948173D+00 -0.30426151D+00 -0.46069308D+00 -0.57596782D+00 -0.49543561D+00
 -0.19001022D+00 -0.11689202D-04 -0.15474315D-03 -0.56205526D-03 -0.16673264D-02
 -0.19212569D-02  0.23336526D-02 -0.84130012D-02  0.78009608D-03  0.27653530D-04
  0.71924567D-04  0.70340656D-04  0.46477045D-04 -0.74002174D-02 -0.72372510D-02
 -0.47819577D-02 -0.60159495D-02 -0.58834673D-02 -0.38874556D-02  0.12126071D-04
 -0.12759957D-02 -0.11543674D-02  0.34808689D-07 -0.15248585D-03 -0.84445715D-04
  0.74355409D-07 -0.37414224D-05 -0.19628924D-05  0.79772809D-04 -0.63880884D-04
 -0.15891924D-04  0.11209822D-05 -0.47799192D-05  0.66537918D-03  0.15025447D-03
 -0.73109383D-04 -0.77145090D-04  0.46460321D-05  0.69157774D-05 -0.78473235D-03
  0.42112987D-04 -0.22682291D-04 -0.19430696D-04  0.30157618D-06  0.68951796D-09
 -0.54957154D-05 -0.20596760D-05 -0.17836654D-04 -0.26554789D-05  0.61851385D-05
  0.23992978D-03  0.10257127D-03 -0.61105260D-08 -0.18641982D-03 -0.94604835D-04
  0.86099293D-05 -0.17321202D-05  0.57578298D-04  0.10166729D-03  0.16419912D-05
  0.16469940D-03  0.20470357D-03  0.35543695D-05 -0.33743429D-03 -0.50970544D-03
  0.12159079D-04 -0.96292392D-01 -0.17948918D+00 -0.30427416D+00 -0.46071222D+00
 -0.57599175D+00 -0.49545619D+00 -0.19001811D+00 -0.11689737D-04 -0.15475023D-03
 -0.56208098D-03 -0.16674026D-02 -0.19213448D-02  0.23337594D-02 -0.84133555D-02
  0.78008514D-03  0.27653170D-04  0.20378402D-05  0.19929632D-05  0.13168350D-05
  0.74010885D-02  0.72381029D-02  0.47825206D-02 -0.60166423D-02 -0.58841448D-02
 -0.38879032D-02  0.75674530D-07  0.12761930D-02 -0.11545482D-02 -0.14056514D-05
  0.15256089D-03 -0.84486413D-04  0.39022113D-07  0.37422060D-05 -0.19638616D-05
  0.79863491D-04 -0.63953126D-04 -0.15910366D-04  0.15920887D-05  0.15044179D-05
 -0.66521771D-03  0.15030021D-03 -0.73131199D-04 -0.77169006D-04 -0.42665700D-06
 -0.49539455D-06  0.78487828D-03  0.42123159D-04 -0.22693914D-04 -0.19429245D-04
  0.92243521D-06 -0.51326655D-07  0.55250816D-05  0.20669562D-06  0.17848904D-04
 -0.26974748D-05  0.11463406D-05 -0.23993487D-03  0.10257514D-03 -0.17664275D-05
  0.18638816D-03 -0.94482716D-04 -0.48854508D-05 -0.17646333D-06 -0.57583797D-04
  0.10167397D-03  0.16182469D-06 -0.16474827D-03  0.20477010D-03  0.36756532D-06
  0.33749966D-03 -0.50979202D-03  0.13359541D-05
MO    2     MO 0.0        OCC NO =    2.0000037  ORB. ENERGY =    0.000000
 -0.36839925D+00 -0.68663563D+00 -0.11642872D+01 -0.17620249D+01 -0.21979871D+01
 -0.18862000D+01 -0.72231439D+00 -0.43675853D-04 -0.46861324D-03 -0.17273966D-02
 -0.50508064D-02 -0.60864673D-02  0.73317949D-02 -0.33653575D-01  0.66749036D-03
  0.91511561D-04 -0.50396711D-05 -0.48867857D-05 -0.32965968D-05 -0.84544796D-07
 -0.81980012D-07 -0.55303232D-07  0.87234156D-02  0.84587788D-02  0.57062422D-02
 -0.13426775D-05 -0.17524674D-07 -0.18390314D-02  0.20326948D-05  0.11559086D-07
 -0.15544957D-03 -0.37978667D-07  0.94274311D-09  0.17896121D-05  0.69277493D-03
  0.89614377D-04 -0.78238930D-03  0.56963314D-05  0.70045420D-05  0.45678832D-07
 -0.33896192D-03 -0.35764015D-03  0.69660208D-03  0.17636307D-06 -0.38422326D-06
 -0.25241693D-08 -0.39187418D-04  0.13218000D-04  0.25969418D-04 -0.49494093D-06
 -0.70172657D-06 -0.49743489D-08 -0.47394517D-06  0.22854956D-07  0.24873696D-03
  0.38738559D-05 -0.40258993D-07 -0.22321469D-03 -0.24520204D-05 -0.28305875D-07
 -0.52299618D-03  0.28311600D-05  0.43351949D-06 -0.53938351D-08 -0.66632830D-04
 -0.10636464D-05  0.16593185D-07  0.11088812D-03 -0.23691211D-06 -0.41167986D-09
  0.89010365D-04  0.20671642D-06 -0.16823339D+00 -0.31362092D+00 -0.53006209D+00
 -0.79678218D+00 -0.97870420D+00 -0.82599182D+00 -0.31059449D+00 -0.14532576D-04
 -0.10862200D-03 -0.40594522D-03 -0.11325240D-02 -0.15172699D-02  0.17916128D-02
 -0.14045039D-01  0.99380789D-04 -0.68261511D-05 -0.27088185D-05 -0.25396895D-05
 -0.18084102D-05 -0.55156021D-07 -0.51712275D-07 -0.36822221D-07  0.25223347D-02
  0.23648491D-02  0.16839134D-02  0.43887800D-06  0.17901876D-07 -0.20185981D-02
 -0.64187608D-06  0.79913782D-08 -0.26010978D-04  0.32729925D-07 -0.26092335D-09
 -0.84485875D-05  0.82537855D-03  0.15036383D-03 -0.97574238D-03  0.63744560D-05
  0.38572905D-05  0.70249952D-07 -0.13254670D-03  0.36133094D-03 -0.22878424D-03
 -0.46641680D-05 -0.35720742D-05 -0.49008130D-07 -0.33235459D-05 -0.14292144D-04
  0.17615690D-04  0.10359889D-06 -0.92916774D-07 -0.37538884D-08 -0.73112423D-06
 -0.49006508D-08 -0.25380049D-03 -0.28418654D-06  0.49990782D-08  0.52927287D-03
  0.24775592D-05  0.97028742D-08  0.23212860D-03  0.28067662D-05 -0.39238992D-07
  0.60501477D-08  0.34355156D-04  0.13131450D-05 -0.16123843D-07  0.73144262D-04
 -0.11954280D-05 -0.20266000D-08 -0.17620973D-03  0.23549055D-05  0.18574557D+00
  0.34623006D+00  0.58693708D+00  0.88870212D+00  0.11110734D+01  0.95572236D+00
  0.36654009D+00  0.19126124D-04  0.25319407D-03  0.91964694D-03  0.27281153D-02
  0.31436019D-02 -0.38183727D-02  0.16914484D-01 -0.85317348D-03 -0.28937410D-04
 -0.88334741D-04 -0.86389447D-04 -0.57081160D-04  0.87677361D-02  0.85746544D-02
  0.56656367D-02  0.53355351D-02  0.52180368D-02  0.34477775D-02 -0.76613506D-05
  0.79513788D-03  0.27196303D-03  0.37137406D-06  0.81659702D-04 -0.20707831D-04
 -0.28184627D-07 -0.16489048D-05  0.21163222D-04 -0.31859494D-04  0.15669170D-03
 -0.12483220D-03 -0.11152407D-05  0.84747037D-06 -0.33600207D-03  0.41863859D-05
 -0.53518892D-04  0.49332507D-04  0.10373297D-05  0.61693175D-06  0.54727522D-04
 -0.16784835D-04  0.16032253D-04  0.75258144D-06  0.58262413D-06 -0.34740757D-06
 -0.25338343D-05 -0.17922754D-05  0.10639320D-03 -0.11834973D-03 -0.30650427D-05
  0.94911917D-04  0.57561230D-03  0.84418688D-05 -0.41409151D-03 -0.22056309D-03
  0.12604931D-04  0.15321232D-05 -0.55047502D-04 -0.69215597D-05 -0.46743103D-06
 -0.13639577D-03 -0.29135022D-03 -0.41289386D-05  0.30153827D-03  0.31211490D-03
 -0.10198819D-04  0.18574616D+00  0.34623116D+00  0.58693896D+00  0.88870496D+00
  0.11110769D+01  0.95572541D+00  0.36654126D+00  0.19126359D-04  0.25319717D-03
  0.91965820D-03  0.27281487D-02  0.31436404D-02 -0.38184195D-02  0.16914558D-01
 -0.85322800D-03 -0.28955858D-04 -0.55328835D-05 -0.54110393D-05 -0.35753024D-05
 -0.87686735D-02 -0.85755712D-02 -0.56662425D-02  0.53361416D-02  0.52186299D-02
  0.34481694D-02 -0.15211779D-06 -0.79524704D-03  0.27203647D-03  0.11428421D-05
 -0.81689739D-04 -0.20693591D-04 -0.43761579D-07  0.16512702D-05  0.21164330D-04
 -0.31900797D-04  0.15673464D-03 -0.12483385D-03 -0.24458739D-05 -0.23259867D-05
  0.33588855D-03  0.41747319D-05 -0.53514431D-04  0.49339699D-04  0.52632814D-07
  0.11338827D-05 -0.54780824D-04 -0.16784563D-04  0.16032711D-04  0.75185217D-06
 -0.12024859D-05 -0.37126970D-06  0.25120848D-05 -0.89608616D-06 -0.10641467D-03
 -0.11833345D-03 -0.18428408D-05 -0.94968183D-04  0.57572946D-03  0.45310993D-05
  0.41421219D-03 -0.22072910D-03  0.24346478D-05  0.24389877D-06  0.55053689D-04
 -0.69233285D-05  0.54948788D-06  0.13643408D-03 -0.29141657D-03 -0.12811842D-05
 -0.30159515D-03  0.31218655D-03 -0.12004801D-05
MO    3     MO 0.0        OCC NO =    2.0000022  ORB. ENERGY =    0.000000
  0.95631488D-05  0.17824137D-04  0.30223329D-04  0.45739795D-04  0.57056788D-04
  0.48963213D-04  0.18750309D-04  0.13156020D-08  0.14115546D-07  0.52032561D-07
  0.15214016D-06  0.18333628D-06 -0.22084798D-06  0.88061592D-06 -0.51188201D-07
 -0.23003015D-07  0.40787717D-05  0.39550365D-05  0.26680443D-05 -0.86363437D-03
 -0.83743482D-03 -0.56492859D-03 -0.36768895D-07 -0.35653460D-07 -0.24051613D-07
  0.53138496D-06 -0.11246032D-03  0.13874276D-06 -0.42736545D-06  0.90500450D-04
  0.65442175D-08 -0.68412278D-07  0.14485885D-04  0.23199184D-08 -0.79269881D-08
  0.25029638D-07 -0.17102650D-07  0.54656498D-05 -0.85113667D-06  0.18016604D-03
  0.20371084D-07  0.10855532D-07 -0.31226616D-07 -0.32574821D-05  0.29635468D-06
 -0.62763793D-04  0.42254969D-08 -0.39641838D-08 -0.26131311D-09 -0.12818192D-05
  0.11904473D-06 -0.25194295D-04 -0.76982789D-06 -0.11322611D-04 -0.21662591D-07
  0.16997245D-05  0.16297732D-03  0.58777621D-07  0.60975920D-06 -0.12900949D-03
  0.62101520D-08 -0.31483045D-05  0.31994286D-06  0.32516518D-05  0.58946222D-08
 -0.68588051D-06 -0.67740118D-04 -0.17935381D-07 -0.27394808D-06  0.57985163D-04
  0.25151488D-09  0.40828130D-05  0.10779999D-04  0.20096090D-04  0.33965130D-04
  0.51055925D-04  0.62713059D-04  0.52927610D-04  0.19902163D-04  0.11704204D-08
  0.87481674D-08  0.32693899D-07  0.91210888D-07  0.12219744D-06 -0.14429240D-06
  0.87312476D-06 -0.27623902D-07  0.23216981D-08  0.28400777D-06  0.26627534D-06
  0.18960390D-06 -0.60104323D-04 -0.56351624D-04 -0.40125713D-04 -0.16108713D-06
 -0.15102942D-06 -0.10754195D-06  0.18369573D-05 -0.38906699D-03  0.13106473D-06
 -0.26452447D-06  0.55998671D-04  0.31972100D-07  0.29945294D-07 -0.63406996D-05
 -0.17055707D-09 -0.20870053D-07 -0.34022930D-07  0.54892983D-07 -0.35602412D-05
 -0.28801552D-05  0.60994521D-03  0.19818465D-07 -0.25223094D-07  0.54046285D-08
 -0.22859423D-05 -0.17985984D-05  0.38099341D-03 -0.22773022D-09 -0.13638689D-08
  0.15915992D-08  0.17849729D-06  0.13343476D-06 -0.28255280D-04 -0.24392595D-05
 -0.24411663D-04  0.42385252D-07  0.52246904D-05  0.51651919D-03 -0.66890960D-07
  0.20930881D-05 -0.44328420D-03 -0.60264797D-07  0.13061733D-04 -0.14371092D-06
  0.44118663D-04  0.52552151D-08 -0.33749572D-06  0.30441168D-04 -0.25712619D-07
  0.76862848D-06 -0.16279716D-03  0.99469735D-08  0.43078779D-05  0.42248924D+00
  0.78752067D+00  0.13350230D+01  0.20214053D+01  0.25272019D+01  0.21738468D+01
  0.83371704D+00  0.38740080D-04  0.51284613D-03  0.18627504D-02  0.55258141D-02
  0.63673846D-02 -0.77341370D-02  0.39155118D-01 -0.16920744D-03  0.82978178D-04
 -0.10295909D-03 -0.10069174D-03 -0.66531288D-04  0.97652092D-02  0.95501613D-02
  0.63101954D-02  0.74578654D-02  0.72936295D-02  0.48192094D-02 -0.90377417D-06
 -0.18435521D-03  0.15282760D-03 -0.47433281D-05  0.23454861D-03  0.39552468D-03
 -0.86403935D-07  0.21148117D-04  0.41268820D-05 -0.14782212D-03  0.16432582D-03
 -0.16503699D-04 -0.21604037D-05  0.92971694D-06  0.25102749D-03  0.15561359D-03
 -0.24664403D-03  0.91030440D-04  0.68215731D-05  0.29771044D-05 -0.51861635D-03
 -0.58534996D-04  0.13660387D-04  0.44874608D-04 -0.20614559D-05 -0.18258709D-05
  0.13172076D-03 -0.45149994D-05 -0.27313710D-03  0.11237524D-04  0.15446209D-04
  0.88390201D-03  0.18501022D-03 -0.19012103D-05 -0.64490714D-04 -0.21872279D-03
  0.15430950D-04  0.98406464D-06  0.51290995D-04  0.19210689D-04 -0.32148324D-05
 -0.20828946D-03 -0.31009929D-04  0.26263849D-06  0.54416475D-04 -0.26622137D-04
 -0.35748544D-05 -0.42242818D+00 -0.78740685D+00 -0.13348300D+01 -0.20211132D+01
 -0.25268366D+01 -0.21735326D+01 -0.83359654D+00 -0.38734569D-04 -0.51277316D-03
 -0.18624854D-02 -0.55250279D-02 -0.63664788D-02  0.77330367D-02 -0.39149510D-01
  0.16931623D-03 -0.82944946D-04  0.10737282D-04  0.10500828D-04  0.69383408D-05
  0.97650645D-02  0.95500198D-02  0.63101019D-02 -0.74578365D-02 -0.72936012D-02
 -0.48191907D-02  0.26456177D-05 -0.18429536D-03 -0.15292246D-03  0.25283542D-05
  0.23449673D-03 -0.39549779D-03 -0.11332706D-06  0.21145608D-04 -0.41221936D-05
  0.14786123D-03 -0.16435777D-03  0.16496545D-04  0.37349723D-05 -0.33002203D-05
  0.25109697D-03 -0.15562338D-03  0.24666136D-03 -0.91037987D-04 -0.77725994D-06
  0.19208930D-05 -0.51852871D-03  0.58539732D-04 -0.13663908D-04 -0.44875825D-04
 -0.69752410D-06  0.58181419D-06  0.13171603D-03 -0.38340684D-05 -0.27317681D-03
 -0.11255158D-04  0.89908575D-05  0.88393235D-03 -0.18503983D-03  0.25113478D-05
 -0.64401929D-04  0.21880530D-03  0.78027803D-05  0.98336906D-06  0.51289257D-04
 -0.19197307D-04 -0.21731470D-05 -0.20830145D-03  0.31035754D-04 -0.77696022D-06
  0.54433680D-04  0.26556167D-04 -0.34914419D-05
MO    4     MO 0.0        OCC NO =    2.0000016  ORB. ENERGY =    0.000000
  0.10184682D+00  0.18982573D+00  0.32187619D+00  0.48712539D+00  0.60765053D+00
  0.52145456D+00  0.19968939D+00  0.13155498D-04  0.14114986D-03  0.52030495D-03
  0.15213412D-02  0.18332901D-02 -0.22083922D-02  0.93983966D-02 -0.42185082D-03
 -0.17764544D-03  0.10634369D-04  0.10311761D-04  0.69562531D-05  0.19292478D-06
  0.18707214D-06  0.12619776D-06  0.53316898D-03  0.51699456D-03  0.34876148D-03
  0.34338910D-05  0.29742233D-07  0.15687544D-02 -0.80244671D-06 -0.14569732D-07
  0.12171825D-03 -0.10379803D-06 -0.13601824D-08  0.19310412D-04  0.15192986D-03
 -0.91054749D-05 -0.14282439D-03  0.15202835D-05 -0.50977478D-05 -0.47591571D-07
  0.62580081D-04  0.28803612D-03 -0.35061620D-03 -0.21288713D-05  0.95456842D-06
  0.23502369D-07 -0.11794772D-04  0.21727711D-04 -0.99329388D-05 -0.31644750D-06
  0.84069774D-06  0.62952747D-08 -0.18849637D-05  0.87471314D-09 -0.31205061D-03
  0.58148102D-06 -0.42786033D-07  0.61581802D-03  0.50734100D-05  0.40161894D-07
  0.32033383D-03  0.27908868D-05  0.67990177D-06 -0.16595376D-08  0.77912715D-04
 -0.43839204D-06  0.19437555D-07 -0.15401901D-04 -0.16013133D-05 -0.14458942D-07
 -0.21833624D-03  0.19160794D-05  0.14761105D+00  0.27517674D+00  0.46508618D+00
  0.69911128D+00  0.85873299D+00  0.72474035D+00  0.27252130D+00  0.11535722D-04
  0.86222373D-04  0.32223269D-03  0.89897904D-03  0.12043841D-02 -0.14221530D-02
  0.11821619D-01  0.21424721D-04  0.24396273D-04  0.28057784D-05  0.26305956D-05
  0.18731408D-05  0.77852889D-07  0.72992032D-07  0.51974675D-07 -0.23511547D-02
 -0.22043570D-02 -0.15696335D-02  0.38284094D-05  0.16927023D-06  0.63207624D-03
 -0.15406398D-06  0.10962993D-07  0.20554600D-03  0.37665459D-07  0.62297624D-09
 -0.12683979D-05 -0.10774296D-02  0.33954247D-03  0.73788714D-03 -0.13380189D-04
 -0.87978651D-05 -0.34102188D-06 -0.31500053D-04 -0.98187635D-04  0.12968769D-03
  0.63042942D-06  0.14103505D-05 -0.70939258D-07  0.38522287D-05 -0.12784603D-04
  0.89323743D-05  0.15711247D-06  0.14221286D-06  0.23977314D-08 -0.33894283D-05
  0.29475820D-07  0.48380220D-03  0.75778872D-05 -0.19597129D-06  0.19728036D-03
  0.25903977D-05  0.10754383D-06 -0.16486870D-02  0.17431280D-04  0.34191186D-07
 -0.48302557D-08  0.42376184D-04  0.90738178D-07 -0.51987462D-08 -0.24720651D-04
 -0.19331174D-06  0.19689513D-07 -0.10240790D-03  0.73315181D-06  0.36695040D+00
  0.68399618D+00  0.11595259D+01  0.17556790D+01  0.21949855D+01  0.18880811D+01
  0.72411975D+00  0.31535601D-04  0.41747230D-03  0.15163354D-02  0.44981803D-02
  0.51832442D-02 -0.62958222D-02  0.34337942D-01  0.26314803D-03  0.80935190D-04
 -0.57484547D-04 -0.56218631D-04 -0.37146026D-04  0.62401589D-02  0.61027391D-02
  0.40323378D-02  0.39227350D-02  0.38363491D-02  0.25348381D-02  0.84447537D-05
 -0.54800156D-03 -0.64202825D-03 -0.28736942D-05  0.30579036D-03  0.16045664D-03
 -0.86215830D-07  0.49033502D-05  0.13402437D-04 -0.23367624D-03  0.17452242D-03
  0.59153822D-04 -0.62939131D-05 -0.76305275D-05  0.78324166D-03  0.25114479D-03
 -0.18029029D-03 -0.70854500D-04  0.10092367D-04  0.10118634D-04 -0.99178066D-03
 -0.44059831D-04  0.34799080D-04  0.92607513D-05 -0.17605745D-05 -0.10977086D-05
  0.61858108D-04 -0.57710335D-05  0.20885739D-04 -0.75401523D-04  0.85092390D-05
  0.27196723D-03  0.45885419D-03  0.88038614D-05 -0.33462445D-03 -0.23264962D-03
  0.14180358D-04 -0.19095739D-06  0.32931244D-04  0.10059503D-03  0.55730254D-06
  0.10915596D-03  0.44060829D-04  0.15569638D-07 -0.20794969D-03 -0.34584592D-03
  0.76100127D-05  0.36701925D+00  0.68412452D+00  0.11597435D+01  0.17560084D+01
  0.21953973D+01  0.18884354D+01  0.72425561D+00  0.31541584D-04  0.41755151D-03
  0.15166231D-02  0.44990337D-02  0.51842276D-02 -0.62970167D-02  0.34344435D-01
  0.26302375D-03  0.80913809D-04  0.14449277D-05  0.14131077D-05  0.93370002D-06
 -0.62421097D-02 -0.61046469D-02 -0.40335983D-02  0.39243093D-02  0.38378888D-02
  0.25358554D-02  0.32689521D-05  0.54821420D-03 -0.64212538D-03  0.13462282D-07
 -0.30576294D-03  0.16048508D-03 -0.39898319D-07 -0.49029431D-05  0.13401204D-04
 -0.23375752D-03  0.17459404D-03  0.59163482D-04 -0.14171101D-05 -0.23281111D-06
 -0.78345279D-03  0.25126553D-03 -0.18039680D-03 -0.70868730D-04 -0.19423982D-05
  0.75184918D-06  0.99207356D-03 -0.44069748D-04  0.34796402D-04  0.92733458D-05
  0.27120538D-06 -0.51372862D-06 -0.61861140D-04 -0.32010657D-05 -0.20810075D-04
 -0.75428065D-04  0.39598772D-05 -0.27227658D-03  0.45893676D-03  0.56433198D-05
  0.33470681D-03 -0.23265256D-03 -0.11198709D-05  0.83980509D-06 -0.32944442D-04
  0.10060712D-03 -0.57118106D-06 -0.10914115D-03  0.44111300D-04 -0.19482342D-05
  0.20797448D-03 -0.34593267D-03 -0.24409999D-06
MO    5     MO 0.0        OCC NO =    1.9861785  ORB. ENERGY =    0.000000
 -0.99171261D-02 -0.18483892D-01 -0.31342037D-01 -0.47432840D-01 -0.59168730D-01
 -0.50775573D-01 -0.19444347D-01 -0.16087777D-03 -0.17261129D-02 -0.63627772D-02
 -0.18604387D-01 -0.22419191D-01  0.27006292D-01  0.14152046D-01 -0.32605424D-04
 -0.19222300D-02 -0.44251834D-05 -0.42909393D-05 -0.28946423D-05  0.11721024D-04
  0.11365450D-04  0.76670657D-05 -0.69619478D-01 -0.67507475D-01 -0.45540144D-01
  0.27189782D-05  0.27256889D-05 -0.13005583D-01 -0.63436002D-06  0.32384655D-06
  0.19945836D-02 -0.11028158D-05 -0.28611237D-07  0.22950234D-03 -0.40045380D-02
 -0.42481530D-02  0.82526910D-02  0.22997000D-05 -0.29361756D-04 -0.12782059D-05
 -0.45533295D-03  0.61947679D-03 -0.16414384D-03 -0.10148330D-04  0.38707510D-05
 -0.30607483D-06  0.10941230D-03  0.51835432D-03 -0.62776662D-03 -0.38603821D-05
  0.13415811D-05 -0.19453821D-07 -0.90897540D-05 -0.20135489D-06 -0.16158820D-02
  0.47384876D-05 -0.35987513D-06  0.34860320D-02  0.22530774D-04  0.96393980D-06
  0.13616139D-02  0.20065231D-04  0.41686285D-05 -0.36985865D-07  0.50958500D-03
 -0.36707862D-05  0.89507686D-07 -0.22204552D-03 -0.88350994D-05  0.21449910D-07
 -0.13067095D-02  0.10240025D-04 -0.17212631D-01 -0.32087812D-01 -0.54232774D-01
 -0.81521975D-01 -0.10013514D+00 -0.84510529D-01 -0.31778166D-01 -0.31581850D-03
 -0.23605476D-02 -0.88219054D-02 -0.24611743D-01 -0.32972950D-01  0.38934905D-01
  0.15592397D-01  0.22623919D-02  0.22667600D-03  0.45549581D-03  0.42705627D-03
  0.30408951D-03  0.17727899D-04  0.16621032D-04  0.11835165D-04 -0.34514658D-01
 -0.32359685D-01 -0.23042024D-01  0.10451118D-03  0.27663799D-05 -0.49731724D-02
 -0.54690701D-05 -0.37981357D-06  0.15130247D-02  0.42966312D-06  0.98511419D-08
 -0.33052353D-05 -0.19255434D-01  0.93262054D-02  0.99292282D-02 -0.26988437D-03
 -0.22451841D-03 -0.76398928D-05 -0.26127887D-02  0.11486756D-02  0.14641131D-02
 -0.35518707D-04 -0.28231281D-04 -0.93735324D-06  0.83444756D-04 -0.92122086D-04
  0.86773303D-05  0.16574794D-05  0.17935466D-05  0.11086275D-06 -0.36252072D-04
  0.25646184D-06  0.34365772D-02  0.66981751D-04 -0.18028992D-05  0.34586210D-02
  0.41774465D-04  0.10335137D-05 -0.13768353D-01  0.16267512D-03  0.95715730D-08
 -0.66760873D-07  0.26839938D-03  0.31868712D-05 -0.38828258D-07  0.31672569D-03
 -0.32155860D-05  0.23911088D-06 -0.11219238D-02  0.13582026D-04 -0.89156791D-01
 -0.16618841D+00 -0.28172638D+00 -0.42657184D+00 -0.53330876D+00 -0.45874117D+00
 -0.17593711D+00 -0.12985096D-02 -0.17189836D-01 -0.62436613D-01 -0.18521704D+00
 -0.21342522D+00  0.25923672D+00  0.14912032D+00  0.67585435D-01  0.16889707D-02
  0.97266138D-03  0.95124159D-03  0.62852553D-03 -0.38028319D-01 -0.37190865D-01
 -0.24573577D-01 -0.13142300D+00 -0.12852882D+00 -0.84924427D-01  0.17871331D-03
 -0.36390425D-02 -0.27295882D-01  0.57032507D-04 -0.32642120D-02 -0.62978763D-02
  0.64732884D-06 -0.48625593D-04 -0.46740241D-04 -0.59969536D-02  0.73431214D-02
 -0.13461678D-02 -0.20069768D-03 -0.12078858D-03  0.13749630D-01 -0.29932300D-02
  0.41349505D-02 -0.11417205D-02 -0.11634214D-03 -0.57145854D-04  0.75464304D-02
  0.21592180D-03 -0.21182942D-03 -0.40923873D-05  0.12161432D-04  0.78459678D-05
 -0.91036586D-03  0.44030384D-04  0.16650225D-02 -0.21598501D-02 -0.13421216D-03
 -0.64246000D-02 -0.23928974D-02  0.21210099D-05  0.14295324D-02  0.88724478D-02
 -0.19502967D-03  0.11088160D-04  0.29380469D-03 -0.22199903D-03 -0.27114524D-04
 -0.87820018D-03 -0.10353726D-02 -0.61499558D-05 -0.32139069D-05  0.17013697D-02