 f2co-wavefunction
GAUSSIAN            184 MOL ORBITALS    288 PRIMITIVES        4 NUCLEI
  O    1    (CENTRE  1)   0.00000000  0.00000000  1.28487582  CHARGE =  8.0
  C    2    (CENTRE  2)   0.00000000  0.00000000 -0.93015344  CHARGE =  6.0
  F    3    (CENTRE  3)   0.00000000 -2.00098943 -2.38919020  CHARGE =  9.0
  F    4    (CENTRE  4)  -0.01889726  2.00098943 -2.38919020  CHARGE =  9.0
CENTRE ASSIGNMENTS    1  1  1  1  1  1  1  1  1  1  1  1  1  1  1  1  1  1  1  1
CENTRE ASSIGNMENTS    1  1  1  1  1  1  1  1  1  1  1  1  1  1  1  1  1  1  1  1
CENTRE ASSIGNMENTS    1  1  1  1  1  1  1  1  1  1  1  1  1  1  1  1  1  1  1  1
CENTRE ASSIGNMENTS    1  1  1  1  1  1  1  1  1  1  1  1  2  2  2  2  2  2  2  2
CENTRE ASSIGNMENTS    2  2  2  2  2  2  2  2  2  2  2  2  2  2  2  2  2  2  2  2
CENTRE ASSIGNMENTS    2  2  2  2  2  2  2  2  2  2  2  2  2  2  2  2  2  2  2  2
CENTRE ASSIGNMENTS    2  2  2  2  2  2  2  2  2  2  2  2  2  2  2  2  2  2  2  2
CENTRE ASSIGNMENTS    2  2  2  2  3  3  3  3  3  3  3  3  3  3  3  3  3  3  3  3
CENTRE ASSIGNMENTS    3  3  3  3  3  3  3  3  3  3  3  3  3  3  3  3  3  3  3  3
CENTRE ASSIGNMENTS    3  3  3  3  3  3  3  3  3  3  3  3  3  3  3  3  3  3  3  3
CENTRE ASSIGNMENTS    3  3  3  3  3  3  3  3  3  3  3  3  3  3  3  3  4  4  4  4
CENTRE ASSIGNMENTS    4  4  4  4  4  4  4  4  4  4  4  4  4  4  4  4  4  4  4  4
CENTRE ASSIGNMENTS    4  4  4  4  4  4  4  4  4  4  4  4  4  4  4  4  4  4  4  4
CENTRE ASSIGNMENTS    4  4  4  4  4  4  4  4  4  4  4  4  4  4  4  4  4  4  4  4
CENTRE ASSIGNMENTS    4  4  4  4  4  4  4  4
TYPE ASSIGNMENTS      1  1  1  1  1  1  1  1  1  1  1  1  1  1  1  1  2  2  2  3
TYPE ASSIGNMENTS      3  3  4  4  4  2  3  4  2  3  4  2  3  4  5  6  7  8  9 10
TYPE ASSIGNMENTS      5  6  7  8  9 10  5  6  7  8  9 10 11 12 13 17 14 15 18 19
TYPE ASSIGNMENTS     16 20 11 12 13 17 14 15 18 19 16 20  1  1  1  1  1  1  1  1
TYPE ASSIGNMENTS      1  1  1  1  1  1  1  1  2  2  2  3  3  3  4  4  4  2  3  4
TYPE ASSIGNMENTS      2  3  4  2  3  4  5  6  7  8  9 10  5  6  7  8  9 10  5  6
TYPE ASSIGNMENTS      7  8  9 10 11 12 13 17 14 15 18 19 16 20 11 12 13 17 14 15
TYPE ASSIGNMENTS     18 19 16 20  1  1  1  1  1  1  1  1  1  1  1  1  1  1  1  1
TYPE ASSIGNMENTS      2  2  2  3  3  3  4  4  4  2  3  4  2  3  4  2  3  4  5  6
TYPE ASSIGNMENTS      7  8  9 10  5  6  7  8  9 10  5  6  7  8  9 10 11 12 13 17
TYPE ASSIGNMENTS     14 15 18 19 16 20 11 12 13 17 14 15 18 19 16 20  1  1  1  1
TYPE ASSIGNMENTS      1  1  1  1  1  1  1  1  1  1  1  1  2  2  2  3  3  3  4  4
TYPE ASSIGNMENTS      4  2  3  4  2  3  4  2  3  4  5  6  7  8  9 10  5  6  7  8
TYPE ASSIGNMENTS      9 10  5  6  7  8  9 10 11 12 13 17 14 15 18 19 16 20 11 12
TYPE ASSIGNMENTS     13 17 14 15 18 19 16 20
EXPONENTS  0.1533000D+05 0.2299000D+04 0.5224000D+03 0.1473000D+03 0.4755000D+02
EXPONENTS  0.1676000D+02 0.6207000D+01 0.5224000D+03 0.1473000D+03 0.4755000D+02
EXPONENTS  0.1676000D+02 0.6207000D+01 0.6882000D+00 0.1752000D+01 0.2384000D+00
EXPONENTS  0.7376000D-01 0.3446000D+02 0.7749000D+01 0.2280000D+01 0.3446000D+02
EXPONENTS  0.7749000D+01 0.2280000D+01 0.3446000D+02 0.7749000D+01 0.2280000D+01
EXPONENTS  0.7156000D+00 0.7156000D+00 0.7156000D+00 0.2140000D+00 0.2140000D+00
EXPONENTS  0.2140000D+00 0.5974000D-01 0.5974000D-01 0.5974000D-01 0.2314000D+01
EXPONENTS  0.2314000D+01 0.2314000D+01 0.2314000D+01 0.2314000D+01 0.2314000D+01
EXPONENTS  0.6450000D+00 0.6450000D+00 0.6450000D+00 0.6450000D+00 0.6450000D+00
EXPONENTS  0.6450000D+00 0.2140000D+00 0.2140000D+00 0.2140000D+00 0.2140000D+00
EXPONENTS  0.2140000D+00 0.2140000D+00 0.1428000D+01 0.1428000D+01 0.1428000D+01
EXPONENTS  0.1428000D+01 0.1428000D+01 0.1428000D+01 0.1428000D+01 0.1428000D+01
EXPONENTS  0.1428000D+01 0.1428000D+01 0.5000000D+00 0.5000000D+00 0.5000000D+00
EXPONENTS  0.5000000D+00 0.5000000D+00 0.5000000D+00 0.5000000D+00 0.5000000D+00
EXPONENTS  0.5000000D+00 0.5000000D+00 0.8236000D+04 0.1235000D+04 0.2808000D+03
EXPONENTS  0.7927000D+02 0.2559000D+02 0.8997000D+01 0.3319000D+01 0.2808000D+03
EXPONENTS  0.7927000D+02 0.2559000D+02 0.8997000D+01 0.3319000D+01 0.3643000D+00
EXPONENTS  0.9059000D+00 0.1285000D+00 0.4402000D-01 0.1871000D+02 0.4133000D+01
EXPONENTS  0.1200000D+01 0.1871000D+02 0.4133000D+01 0.1200000D+01 0.1871000D+02
EXPONENTS  0.4133000D+01 0.1200000D+01 0.3827000D+00 0.3827000D+00 0.3827000D+00
EXPONENTS  0.1209000D+00 0.1209000D+00 0.1209000D+00 0.3569000D-01 0.3569000D-01
EXPONENTS  0.3569000D-01 0.1097000D+01 0.1097000D+01 0.1097000D+01 0.1097000D+01
EXPONENTS  0.1097000D+01 0.1097000D+01 0.3180000D+00 0.3180000D+00 0.3180000D+00
EXPONENTS  0.3180000D+00 0.3180000D+00 0.3180000D+00 0.1000000D+00 0.1000000D+00
EXPONENTS  0.1000000D+00 0.1000000D+00 0.1000000D+00 0.1000000D+00 0.7610000D+00
EXPONENTS  0.7610000D+00 0.7610000D+00 0.7610000D+00 0.7610000D+00 0.7610000D+00
EXPONENTS  0.7610000D+00 0.7610000D+00 0.7610000D+00 0.7610000D+00 0.2680000D+00
EXPONENTS  0.2680000D+00 0.2680000D+00 0.2680000D+00 0.2680000D+00 0.2680000D+00
EXPONENTS  0.2680000D+00 0.2680000D+00 0.2680000D+00 0.2680000D+00 0.1950000D+05
EXPONENTS  0.2923000D+04 0.6645000D+03 0.1875000D+03 0.6062000D+02 0.2142000D+02
EXPONENTS  0.7950000D+01 0.6645000D+03 0.1875000D+03 0.6062000D+02 0.2142000D+02
EXPONENTS  0.7950000D+01 0.8815000D+00 0.2257000D+01 0.3041000D+00 0.9158000D-01
EXPONENTS  0.4388000D+02 0.9926000D+01 0.2930000D+01 0.4388000D+02 0.9926000D+01
EXPONENTS  0.2930000D+01 0.4388000D+02 0.9926000D+01 0.2930000D+01 0.9132000D+00
EXPONENTS  0.9132000D+00 0.9132000D+00 0.2672000D+00 0.2672000D+00 0.2672000D+00
EXPONENTS  0.7361000D-01 0.7361000D-01 0.7361000D-01 0.3107000D+01 0.3107000D+01
EXPONENTS  0.3107000D+01 0.3107000D+01 0.3107000D+01 0.3107000D+01 0.8550000D+00
EXPONENTS  0.8550000D+00 0.8550000D+00 0.8550000D+00 0.8550000D+00 0.8550000D+00
EXPONENTS  0.2920000D+00 0.2920000D+00 0.2920000D+00 0.2920000D+00 0.2920000D+00
EXPONENTS  0.2920000D+00 0.1917000D+01 0.1917000D+01 0.1917000D+01 0.1917000D+01
EXPONENTS  0.1917000D+01 0.1917000D+01 0.1917000D+01 0.1917000D+01 0.1917000D+01
EXPONENTS  0.1917000D+01 0.7240000D+00 0.7240000D+00 0.7240000D+00 0.7240000D+00
EXPONENTS  0.7240000D+00 0.7240000D+00 0.7240000D+00 0.7240000D+00 0.7240000D+00
EXPONENTS  0.7240000D+00 0.1950000D+05 0.2923000D+04 0.6645000D+03 0.1875000D+03
EXPONENTS  0.6062000D+02 0.2142000D+02 0.7950000D+01 0.6645000D+03 0.1875000D+03
EXPONENTS  0.6062000D+02 0.2142000D+02 0.7950000D+01 0.8815000D+00 0.2257000D+01
EXPONENTS  0.3041000D+00 0.9158000D-01 0.4388000D+02 0.9926000D+01 0.2930000D+01
EXPONENTS  0.4388000D+02 0.9926000D+01 0.2930000D+01 0.4388000D+02 0.9926000D+01
EXPONENTS  0.2930000D+01 0.9132000D+00 0.9132000D+00 0.9132000D+00 0.2672000D+00
EXPONENTS  0.2672000D+00 0.2672000D+00 0.7361000D-01 0.7361000D-01 0.7361000D-01
EXPONENTS  0.3107000D+01 0.3107000D+01 0.3107000D+01 0.3107000D+01 0.3107000D+01
EXPONENTS  0.3107000D+01 0.8550000D+00 0.8550000D+00 0.8550000D+00 0.8550000D+00
EXPONENTS  0.8550000D+00 0.8550000D+00 0.2920000D+00 0.2920000D+00 0.2920000D+00
EXPONENTS  0.2920000D+00 0.2920000D+00 0.2920000D+00 0.1917000D+01 0.1917000D+01
EXPONENTS  0.1917000D+01 0.1917000D+01 0.1917000D+01 0.1917000D+01 0.1917000D+01
EXPONENTS  0.1917000D+01 0.1917000D+01 0.1917000D+01 0.7240000D+00 0.7240000D+00
EXPONENTS  0.7240000D+00 0.7240000D+00 0.7240000D+00 0.7240000D+00 0.7240000D+00
EXPONENTS  0.7240000D+00 0.7240000D+00 0.7240000D+00
MO    1     MO 0.0        OCC NO =    2.0000067  ORB. ENERGY =    0.000000
 -0.32217917D+00 -0.60048900D+00 -0.10182135D+01 -0.15409578D+01 -0.19222234D+01
 -0.16495537D+01 -0.63169143D+00 -0.40139864D-04 -0.43067440D-03 -0.15875469D-02
 -0.46418941D-02 -0.55937081D-02  0.67382141D-02 -0.29030680D-01  0.49038066D-03
 -0.49975520D-04 -0.14523428D-04 -0.14082840D-04 -0.95002006D-05 -0.69541936D-07
 -0.67432285D-07 -0.45489421D-07  0.19772187D-01  0.19172370D-01  0.12933568D-01
  0.39306736D-06  0.22380228D-08  0.25051522D-02  0.16379892D-05  0.74060925D-08
  0.66409099D-03  0.73055909D-08  0.90582832D-09  0.14584894D-04  0.12278643D-02
  0.65209029D-03 -0.18799546D-02  0.54375268D-05  0.19591240D-05 -0.27627277D-08
  0.50317579D-04 -0.25070753D-04 -0.25246826D-04  0.71206579D-06 -0.23088034D-05
 -0.18327611D-07  0.50127147D-04 -0.18440740D-05 -0.48283073D-04  0.49085825D-06
 -0.72712107D-06 -0.30997198D-08  0.10600701D-06  0.18511057D-07 -0.54863173D-03
  0.29333238D-05 -0.25243053D-07  0.10333229D-02 -0.32513449D-05 -0.30290118D-07
  0.61257232D-03  0.39734754D-05  0.38159998D-07 -0.46854690D-08  0.13142603D-04
 -0.81271734D-06  0.84376554D-08 -0.22372283D-04  0.69823734D-06  0.56187517D-08
 -0.17055526D-04 -0.50374410D-07  0.23921232D+00  0.44593995D+00  0.75369927D+00
  0.11329506D+01  0.13916269D+01  0.11744840D+01  0.44163665D+00  0.26518022D-04
  0.19820579D-03  0.74074028D-03  0.20665500D-02  0.27686073D-02 -0.32692090D-02
  0.19353340D-01 -0.41660772D-04  0.15423108D-04 -0.35841342D-05 -0.33603536D-05
 -0.23927720D-05 -0.65181692D-07 -0.61111980D-07 -0.43515370D-07 -0.40569378D-02
 -0.38036371D-02 -0.27084162D-02 -0.36838737D-05 -0.64402839D-07  0.48188299D-03
 -0.32685102D-06  0.52438955D-08  0.81625014D-04  0.22786130D-07 -0.19649874D-09
  0.82329848D-06 -0.95498918D-03  0.40688766D-03  0.54810151D-03 -0.12860633D-04
  0.74434074D-05  0.20046594D-06  0.21528229D-03 -0.12683804D-03 -0.88444245D-04
  0.32312010D-05 -0.31933775D-05 -0.16006713D-07 -0.31485791D-07 -0.26919333D-05
  0.27234191D-05  0.25115064D-07 -0.90311395D-07 -0.32623917D-08  0.14825101D-05
 -0.16715623D-07  0.56104748D-03 -0.41203698D-05  0.88644540D-07 -0.33692826D-03
 -0.32716049D-06 -0.38497670D-07 -0.13462142D-02  0.95305398D-05 -0.86247636D-07
  0.45571076D-08 -0.88315920D-04  0.91485201D-06 -0.12776739D-07 -0.11526573D-04
 -0.65610910D-06 -0.89458384D-09  0.27647433D-03 -0.27199700D-05 -0.96292392D-01
 -0.17948918D+00 -0.30427416D+00 -0.46071222D+00 -0.57599175D+00 -0.49545619D+00
 -0.19001811D+00 -0.11689737D-04 -0.15475023D-03 -0.56208098D-03 -0.16674026D-02
 -0.19213448D-02  0.23337594D-02 -0.84133555D-02  0.78008514D-03  0.27653169D-04
 -0.20378398D-05 -0.19929628D-05 -0.13168348D-05 -0.74010885D-02 -0.72381029D-02
 -0.47825206D-02 -0.60166423D-02 -0.58841448D-02 -0.38879032D-02 -0.75674433D-07
 -0.12761930D-02 -0.11545482D-02  0.14056514D-05 -0.15256089D-03 -0.84486414D-04
 -0.39022114D-07 -0.37422060D-05 -0.19638615D-05  0.79863493D-04 -0.63953127D-04
 -0.15910366D-04  0.15920887D-05 -0.15044179D-05  0.66521770D-03  0.15030020D-03
 -0.73131200D-04 -0.77169005D-04 -0.42665698D-06  0.49539456D-06 -0.78487828D-03
  0.42123159D-04 -0.22693914D-04 -0.19429245D-04  0.92243520D-06  0.51326659D-07
 -0.55250819D-05 -0.20669564D-06 -0.17848904D-04 -0.26974752D-05 -0.11463406D-05
  0.23993487D-03  0.10257514D-03  0.17664275D-05 -0.18638816D-03 -0.94482718D-04
 -0.48854508D-05  0.17646334D-06  0.57583797D-04  0.10167397D-03 -0.16182470D-06
  0.16474827D-03  0.20477010D-03 -0.36756531D-06 -0.33749966D-03 -0.50979202D-03
  0.13359541D-05 -0.96288391D-01 -0.17948173D+00 -0.30426151D+00 -0.46069308D+00
 -0.57596781D+00 -0.49543561D+00 -0.19001022D+00 -0.11689202D-04 -0.15474315D-03
 -0.56205526D-03 -0.16673263D-02 -0.19212569D-02  0.23336526D-02 -0.84130012D-02
  0.78009607D-03  0.27653529D-04 -0.71924567D-04 -0.70340655D-04 -0.46477045D-04
  0.74002174D-02  0.72372510D-02  0.47819577D-02 -0.60159495D-02 -0.58834672D-02
 -0.38874556D-02 -0.12126071D-04  0.12759957D-02 -0.11543674D-02 -0.34808707D-07
  0.15248585D-03 -0.84445716D-04 -0.74355410D-07  0.37414224D-05 -0.19628923D-05
  0.79772810D-04 -0.63880886D-04 -0.15891924D-04  0.11209822D-05  0.47799191D-05
 -0.66537917D-03  0.15025447D-03 -0.73109383D-04 -0.77145089D-04  0.46460321D-05
 -0.69157773D-05  0.78473235D-03  0.42112988D-04 -0.22682291D-04 -0.19430696D-04
  0.30157620D-06 -0.68952014D-09  0.54957157D-05  0.20596760D-05  0.17836653D-04
 -0.26554792D-05 -0.61851385D-05 -0.23992978D-03  0.10257127D-03  0.61104893D-08
  0.18641982D-03 -0.94604836D-04  0.86099294D-05  0.17321202D-05 -0.57578298D-04
  0.10166729D-03 -0.16419912D-05 -0.16469939D-03  0.20470357D-03 -0.35543695D-05
  0.33743429D-03 -0.50970544D-03  0.12159078D-04
MO    2     MO 0.0        OCC NO =    2.0000037  ORB. ENERGY =    0.000000
 -0.36839925D+00 -0.68663563D+00 -0.11642872D+01 -0.17620249D+01 -0.21979871D+01
 -0.18862000D+01 -0.72231438D+00 -0.43675852D-04 -0.46861323D-03 -0.17273966D-02
 -0.50508064D-02 -0.60864673D-02  0.73317948D-02 -0.33653574D-01  0.66749036D-03
  0.91511561D-04  0.50396719D-05  0.48867865D-05  0.32965973D-05  0.84546615D-07
  0.81981776D-07  0.55304422D-07  0.87234155D-02  0.84587787D-02  0.57062421D-02
  0.13426776D-05  0.17524863D-07 -0.18390314D-02 -0.20326948D-05 -0.11559346D-07
 -0.15544957D-03  0.37978667D-07 -0.94277450D-09  0.17896120D-05  0.69277492D-03
  0.89614374D-04 -0.78238929D-03  0.56963314D-05 -0.70045421D-05 -0.45679280D-07
 -0.33896192D-03 -0.35764015D-03  0.69660208D-03  0.17636305D-06  0.38422327D-06
  0.25243475D-08 -0.39187418D-04  0.13218000D-04  0.25969418D-04 -0.49494093D-06
  0.70172658D-06  0.49744277D-08  0.47394517D-06 -0.22854935D-07  0.24873696D-03
 -0.38738559D-05  0.40258640D-07 -0.22321470D-03  0.24520204D-05  0.28306164D-07
 -0.52299618D-03  0.28311600D-05 -0.43351950D-06  0.53938319D-08 -0.66632830D-04
  0.10636464D-05 -0.16593040D-07  0.11088812D-03  0.23691210D-06  0.41154420D-09
  0.89010365D-04  0.20671643D-06 -0.16823339D+00 -0.31362093D+00 -0.53006209D+00
 -0.79678219D+00 -0.97870421D+00 -0.82599183D+00 -0.31059450D+00 -0.14532576D-04
 -0.10862200D-03 -0.40594522D-03 -0.11325240D-02 -0.15172699D-02  0.17916128D-02
 -0.14045039D-01  0.99380789D-04 -0.68261511D-05  0.27088187D-05  0.25396897D-05
  0.18084103D-05  0.55156152D-07  0.51712398D-07  0.36822308D-07  0.25223347D-02
  0.23648491D-02  0.16839135D-02 -0.43887796D-06 -0.17901103D-07 -0.20185981D-02
  0.64187609D-06 -0.79914714D-08 -0.26010978D-04 -0.32729925D-07  0.26093683D-09
 -0.84485875D-05  0.82537855D-03  0.15036383D-03 -0.97574238D-03  0.63744561D-05
 -0.38572906D-05 -0.70251233D-07 -0.13254670D-03  0.36133094D-03 -0.22878424D-03
 -0.46641680D-05  0.35720742D-05  0.49007391D-07 -0.33235459D-05 -0.14292144D-04
  0.17615690D-04  0.10359889D-06  0.92916775D-07  0.37539489D-08  0.73112422D-06
  0.49006951D-08 -0.25380049D-03  0.28418655D-06 -0.50001533D-08  0.52927287D-03
 -0.24775592D-05 -0.97019321D-08  0.23212861D-03  0.28067662D-05  0.39238993D-07
 -0.60502502D-08  0.34355156D-04 -0.13131450D-05  0.16123774D-07  0.73144263D-04
  0.11954280D-05  0.20269761D-08 -0.17620973D-03  0.23549055D-05  0.18574616D+00
  0.34623116D+00  0.58693896D+00  0.88870496D+00  0.11110769D+01  0.95572541D+00
  0.36654126D+00  0.19126359D-04  0.25319717D-03  0.91965820D-03  0.27281487D-02
  0.31436404D-02 -0.38184195D-02  0.16914558D-01 -0.85322800D-03 -0.28955858D-04
  0.55328832D-05  0.54110389D-05  0.35753022D-05  0.87686736D-02  0.85755712D-02
  0.56662425D-02  0.53361416D-02  0.52186300D-02  0.34481695D-02  0.15211772D-06
  0.79524705D-03  0.27203648D-03 -0.11428421D-05  0.81689739D-04 -0.20693591D-04
  0.43761579D-07 -0.16512702D-05  0.21164330D-04 -0.31900797D-04  0.15673464D-03
 -0.12483385D-03 -0.24458739D-05  0.23259867D-05 -0.33588856D-03  0.41747304D-05
 -0.53514430D-04  0.49339700D-04  0.52632814D-07 -0.11338827D-05  0.54780831D-04
 -0.16784564D-04  0.16032711D-04  0.75185222D-06 -0.12024860D-05  0.37126971D-06
 -0.25120851D-05  0.89608618D-06  0.10641467D-03 -0.11833345D-03  0.18428408D-05
  0.94968179D-04  0.57572945D-03 -0.45310993D-05 -0.41421219D-03 -0.22072910D-03
  0.24346479D-05 -0.24389878D-06 -0.55053689D-04 -0.69233293D-05 -0.54948787D-06
 -0.13643408D-03 -0.29141657D-03  0.12811842D-05  0.30159515D-03  0.31218655D-03
 -0.12004801D-05  0.18574557D+00  0.34623006D+00  0.58693709D+00  0.88870213D+00
  0.11110734D+01  0.95572236D+00  0.36654010D+00  0.19126125D-04  0.25319408D-03
  0.91964695D-03  0.27281154D-02  0.31436019D-02 -0.38183728D-02  0.16914484D-01
 -0.85317349D-03 -0.28937409D-04  0.88334741D-04  0.86389448D-04  0.57081161D-04
 -0.87677362D-02 -0.85746545D-02 -0.56656368D-02  0.53355352D-02  0.52180369D-02
  0.34477776D-02  0.76613507D-05 -0.79513789D-03  0.27196304D-03 -0.37137405D-06
 -0.81659704D-04 -0.20707829D-04  0.28184628D-07  0.16489048D-05  0.21163222D-04
 -0.31859495D-04  0.15669170D-03 -0.12483220D-03 -0.11152408D-05 -0.84747043D-06
  0.33600207D-03  0.41863851D-05 -0.53518892D-04  0.49332507D-04  0.10373297D-05
 -0.61693171D-06 -0.54727527D-04 -0.16784835D-04  0.16032254D-04  0.75258169D-06
  0.58262413D-06  0.34740758D-06  0.25338340D-05  0.17922754D-05 -0.10639320D-03
 -0.11834973D-03  0.30650427D-05 -0.94911917D-04  0.57561230D-03 -0.84418688D-05
  0.41409151D-03 -0.22056309D-03  0.12604931D-04 -0.15321232D-05  0.55047502D-04
 -0.69215604D-05  0.46743105D-06  0.13639577D-03 -0.29135022D-03  0.41289386D-05
 -0.30153828D-03  0.31211490D-03 -0.10198820D-04
MO    3     MO 0.0        OCC NO =    2.0000022  ORB. ENERGY =    0.000000
  0.95641208D-05  0.17825949D-04  0.30226401D-04  0.45744444D-04  0.57062588D-04
  0.48968190D-04  0.18752215D-04  0.13157190D-08  0.14116802D-07  0.52037189D-07
  0.15215369D-06  0.18335259D-06 -0.22086763D-06  0.88070484D-06 -0.51190366D-07
 -0.23003540D-07 -0.40787717D-05 -0.39550365D-05 -0.26680443D-05  0.86363437D-03
  0.83743482D-03  0.56492859D-03 -0.36787485D-07 -0.35671485D-07 -0.24063773D-07
 -0.53138496D-06  0.11246032D-03  0.13874920D-06  0.42736547D-06 -0.90500450D-04
  0.65447406D-08  0.68412278D-07 -0.14485885D-04  0.23199512D-08 -0.79282562D-08
  0.25029388D-07 -0.17101131D-07  0.54656498D-05  0.85113670D-06 -0.18016604D-03
  0.20371916D-07  0.10856788D-07 -0.31228703D-07 -0.32574821D-05 -0.29635470D-06
  0.62763793D-04  0.42255624D-08 -0.39641740D-08 -0.26138836D-09 -0.12818192D-05
 -0.11904474D-06  0.25194295D-04  0.76982789D-06  0.11322611D-04 -0.21663644D-07
 -0.16997245D-05 -0.16297732D-03  0.58779137D-07 -0.60975921D-06  0.12900949D-03
  0.62117939D-08 -0.31483045D-05 -0.31994286D-06 -0.32516518D-05  0.58949009D-08
  0.68588050D-06  0.67740118D-04 -0.17935654D-07  0.27394809D-06 -0.57985163D-04
  0.25095150D-09  0.40828130D-05  0.10780601D-04  0.20097211D-04  0.33967025D-04
  0.51058774D-04  0.62716559D-04  0.52930563D-04  0.19903274D-04  0.11704698D-08
  0.87485363D-08  0.32695278D-07  0.91214733D-07  0.12220260D-06 -0.14429848D-06
  0.87317419D-06 -0.27624224D-07  0.23217520D-08 -0.28400776D-06 -0.26627533D-06
 -0.18960390D-06  0.60104324D-04  0.56351624D-04  0.40125713D-04 -0.16109640D-06
 -0.15103812D-06 -0.10754814D-06 -0.18369573D-05  0.38906699D-03  0.13107013D-06
  0.26452446D-06 -0.55998671D-04  0.31972540D-07 -0.29945294D-07  0.63406996D-05
 -0.17054167D-09 -0.20873643D-07 -0.34022678D-07  0.54896321D-07 -0.35602412D-05
  0.28801552D-05 -0.60994521D-03  0.19818716D-07 -0.25224045D-07  0.54053299D-08
 -0.22859423D-05  0.17985984D-05 -0.38099341D-03 -0.22771497D-09 -0.13638626D-08
  0.15915776D-08  0.17849729D-06 -0.13343476D-06  0.28255280D-04  0.24392595D-05
  0.24411663D-04  0.42386588D-07 -0.52246905D-05 -0.51651919D-03 -0.66891733D-07
 -0.20930881D-05  0.44328420D-03 -0.60268031D-07  0.13061733D-04  0.14371092D-06
 -0.44118663D-04  0.52552127D-08  0.33749572D-06 -0.30441168D-04 -0.25712820D-07
 -0.76862848D-06  0.16279716D-03  0.99471823D-08  0.43078779D-05 -0.42242818D+00
 -0.78740685D+00 -0.13348300D+01 -0.20211132D+01 -0.25268366D+01 -0.21735326D+01
 -0.83359654D+00 -0.38734569D-04 -0.51277316D-03 -0.18624854D-02 -0.55250279D-02
 -0.63664788D-02  0.77330367D-02 -0.39149510D-01  0.16931623D-03 -0.82944946D-04
 -0.10737282D-04 -0.10500827D-04 -0.69383407D-05 -0.97650645D-02 -0.95500198D-02
 -0.63101019D-02 -0.74578365D-02 -0.72936012D-02 -0.48191907D-02 -0.26456177D-05
  0.18429536D-03 -0.15292247D-03 -0.25283542D-05 -0.23449673D-03 -0.39549779D-03
  0.11332706D-06 -0.21145608D-04 -0.41221937D-05  0.14786123D-03 -0.16435777D-03
  0.16496545D-04  0.37349723D-05  0.33002203D-05 -0.25109697D-03 -0.15562337D-03
  0.24666136D-03 -0.91037987D-04 -0.77725994D-06 -0.19208930D-05  0.51852871D-03
  0.58539732D-04 -0.13663908D-04 -0.44875825D-04 -0.69752410D-06 -0.58181419D-06
 -0.13171603D-03  0.38340684D-05  0.27317681D-03 -0.11255158D-04 -0.89908575D-05
 -0.88393235D-03 -0.18503983D-03 -0.25113478D-05  0.64401929D-04  0.21880530D-03
  0.78027803D-05 -0.98336907D-06 -0.51289257D-04 -0.19197307D-04  0.21731470D-05
  0.20830145D-03  0.31035755D-04  0.77696022D-06 -0.54433681D-04  0.26556166D-04
 -0.34914419D-05  0.42248924D+00  0.78752067D+00  0.13350230D+01  0.20214053D+01
  0.25272019D+01  0.21738468D+01  0.83371704D+00  0.38740080D-04  0.51284613D-03
  0.18627504D-02  0.55258141D-02  0.63673846D-02 -0.77341371D-02  0.39155118D-01
 -0.16920744D-03  0.82978179D-04  0.10295909D-03  0.10069174D-03  0.66531288D-04
 -0.97652092D-02 -0.95501613D-02 -0.63101953D-02  0.74578655D-02  0.72936295D-02
  0.48192094D-02  0.90377409D-06  0.18435521D-03  0.15282760D-03  0.47433281D-05
 -0.23454861D-03  0.39552468D-03  0.86403935D-07 -0.21148117D-04  0.41268820D-05
 -0.14782212D-03  0.16432582D-03 -0.16503699D-04 -0.21604037D-05 -0.92971692D-06
 -0.25102750D-03  0.15561359D-03 -0.24664403D-03  0.91030440D-04  0.68215731D-05
 -0.29771044D-05  0.51861635D-03 -0.58534996D-04  0.13660387D-04  0.44874608D-04
 -0.20614559D-05  0.18258709D-05 -0.13172076D-03  0.45149995D-05  0.27313710D-03
  0.11237525D-04 -0.15446209D-04 -0.88390201D-03  0.18501022D-03  0.19012103D-05
  0.64490714D-04 -0.21872279D-03  0.15430950D-04 -0.98406464D-06 -0.51290995D-04
  0.19210689D-04  0.32148324D-05  0.20828946D-03 -0.31009928D-04 -0.26263849D-06
 -0.54416474D-04 -0.26622138D-04 -0.35748544D-05
MO    4     MO 0.0        OCC NO =    2.0000016  ORB. ENERGY =    0.000000
  0.10184682D+00  0.18982572D+00  0.32187619D+00  0.48712539D+00  0.60765052D+00
  0.52145455D+00  0.19968939D+00  0.13155498D-04  0.14114986D-03  0.52030494D-03
  0.15213411D-02  0.18332900D-02 -0.22083921D-02  0.93983965D-02 -0.42185082D-03
 -0.17764544D-03 -0.10634370D-04 -0.10311761D-04 -0.69562533D-05 -0.19292614D-06
 -0.18707346D-06 -0.12619865D-06  0.53316900D-03  0.51699459D-03  0.34876149D-03
 -0.34338911D-05 -0.29742441D-07  0.15687544D-02  0.80244672D-06  0.14569840D-07
  0.12171825D-03  0.10379803D-06  0.13602101D-08  0.19310412D-04  0.15192987D-03
 -0.91054746D-05 -0.14282439D-03  0.15202836D-05  0.50977478D-05  0.47591852D-07
  0.62580081D-04  0.28803612D-03 -0.35061620D-03 -0.21288713D-05 -0.95456843D-06
 -0.23502455D-07 -0.11794772D-04  0.21727711D-04 -0.99329390D-05 -0.31644750D-06
 -0.84069775D-06 -0.62952992D-08  0.18849637D-05 -0.87473377D-09 -0.31205062D-03
 -0.58148100D-06  0.42786315D-07  0.61581802D-03 -0.50734100D-05 -0.40162113D-07
  0.32033383D-03  0.27908868D-05 -0.67990177D-06  0.16595433D-08  0.77912715D-04
  0.43839204D-06 -0.19437672D-07 -0.15401901D-04  0.16013133D-05  0.14459042D-07
 -0.21833624D-03  0.19160794D-05  0.14761105D+00  0.27517674D+00  0.46508618D+00
  0.69911128D+00  0.85873299D+00  0.72474035D+00  0.27252130D+00  0.11535722D-04
  0.86222373D-04  0.32223269D-03  0.89897904D-03  0.12043841D-02 -0.14221530D-02
  0.11821619D-01  0.21424722D-04  0.24396273D-04 -0.28057785D-05 -0.26305957D-05
 -0.18731408D-05 -0.77852972D-07 -0.72992110D-07 -0.51974731D-07 -0.23511547D-02
 -0.22043570D-02 -0.15696335D-02 -0.38284094D-05 -0.16927095D-06  0.63207624D-03
  0.15406398D-06 -0.10962844D-07  0.20554600D-03 -0.37665459D-07 -0.62298809D-09
 -0.12683979D-05 -0.10774296D-02  0.33954247D-03  0.73788714D-03 -0.13380189D-04
  0.87978651D-05  0.34102296D-06 -0.31500053D-04 -0.98187635D-04  0.12968769D-03
  0.63042945D-06 -0.14103505D-05  0.70939953D-07  0.38522287D-05 -0.12784603D-04
  0.89323743D-05  0.15711247D-06 -0.14221286D-06 -0.23977861D-08  0.33894283D-05
 -0.29475869D-07  0.48380221D-03 -0.75778872D-05  0.19597221D-06  0.19728036D-03
 -0.25903977D-05 -0.10754461D-06 -0.16486870D-02  0.17431280D-04 -0.34191186D-07
  0.48303237D-08  0.42376183D-04 -0.90738175D-07  0.51987923D-08 -0.24720651D-04
  0.19331173D-06 -0.19689764D-07 -0.10240790D-03  0.73315179D-06  0.36701925D+00
  0.68412452D+00  0.11597435D+01  0.17560085D+01  0.21953973D+01  0.18884354D+01
  0.72425562D+00  0.31541584D-04  0.41755151D-03  0.15166231D-02  0.44990337D-02
  0.51842276D-02 -0.62970167D-02  0.34344435D-01  0.26302375D-03  0.80913810D-04
 -0.14449279D-05 -0.14131079D-05 -0.93370014D-06  0.62421097D-02  0.61046469D-02
  0.40335983D-02  0.39243094D-02  0.38378888D-02  0.25358554D-02 -0.32689521D-05
 -0.54821420D-03 -0.64212538D-03 -0.13462276D-07  0.30576294D-03  0.16048508D-03
  0.39898320D-07  0.49029431D-05  0.13401204D-04 -0.23375752D-03  0.17459404D-03
  0.59163483D-04 -0.14171101D-05  0.23281111D-06  0.78345280D-03  0.25126553D-03
 -0.18039680D-03 -0.70868730D-04 -0.19423982D-05 -0.75184919D-06 -0.99207357D-03
 -0.44069748D-04  0.34796402D-04  0.92733459D-05  0.27120539D-06  0.51372862D-06
  0.61861140D-04  0.32010657D-05  0.20810075D-04 -0.75428065D-04 -0.39598771D-05
  0.27227659D-03  0.45893676D-03 -0.56433199D-05 -0.33470681D-03 -0.23265256D-03
 -0.11198710D-05 -0.83980509D-06  0.32944443D-04  0.10060712D-03  0.57118106D-06
  0.10914115D-03  0.44111301D-04  0.19482342D-05 -0.20797448D-03 -0.34593267D-03
 -0.24409997D-06  0.36695040D+00  0.68399618D+00  0.11595259D+01  0.17556790D+01
  0.21949855D+01  0.18880811D+01  0.72411975D+00  0.31535600D-04  0.41747230D-03
  0.15163354D-02  0.44981803D-02  0.51832442D-02 -0.62958221D-02  0.34337941D-01
  0.26314804D-03  0.80935189D-04  0.57484546D-04  0.56218630D-04  0.37146026D-04
 -0.62401589D-02 -0.61027391D-02 -0.40323377D-02  0.39227349D-02  0.38363491D-02
  0.25348380D-02 -0.84447538D-05  0.54800156D-03 -0.64202825D-03  0.28736942D-05
 -0.30579036D-03  0.16045664D-03  0.86215829D-07 -0.49033501D-05  0.13402437D-04
 -0.23367624D-03  0.17452242D-03  0.59153822D-04 -0.62939131D-05  0.76305275D-05
 -0.78324166D-03  0.25114479D-03 -0.18029029D-03 -0.70854500D-04  0.10092368D-04
 -0.10118634D-04  0.99178066D-03 -0.44059831D-04  0.34799080D-04  0.92607512D-05
 -0.17605745D-05  0.10977085D-05 -0.61858107D-04  0.57710334D-05 -0.20885740D-04
 -0.75401523D-04 -0.85092390D-05 -0.27196723D-03  0.45885419D-03 -0.88038614D-05
  0.33462445D-03 -0.23264962D-03  0.14180358D-04  0.19095741D-06 -0.32931244D-04
  0.10059503D-03 -0.55730257D-06 -0.10915596D-03  0.44060829D-04 -0.15569649D-07
  0.20794969D-03 -0.34584592D-03  0.76100128D-05
MO    5     MO 0.0        OCC NO =    1.9861785  ORB. ENERGY =    0.000000
 -0.99171259D-02 -0.18483892D-01 -0.31342036D-01 -0.47432839D-01 -0.59168728D-01
 -0.50775572D-01 -0.19444346D-01 -0.16087777D-03 -0.17261129D-02 -0.63627770D-02
 -0.18604387D-01 -0.22419191D-01  0.27006291D-01  0.14152045D-01 -0.32605660D-04
 -0.19222300D-02  0.44252027D-05  0.42909581D-05  0.28946550D-05 -0.11721023D-04
 -0.11365450D-04 -0.76670651D-05 -0.69619479D-01 -0.67507476D-01 -0.45540144D-01
 -0.27189736D-05 -0.27256886D-05 -0.13005584D-01  0.63436056D-06 -0.32384672D-06
  0.19945836D-02  0.11028158D-05  0.28611233D-07  0.22950234D-03 -0.40045380D-02
 -0.42481530D-02  0.82526910D-02  0.22997001D-05  0.29361753D-04  0.12782056D-05
 -0.45533295D-03  0.61947680D-03 -0.16414384D-03 -0.10148330D-04 -0.38707516D-05
  0.30607494D-06  0.10941230D-03  0.51835431D-03 -0.62776661D-03 -0.38603821D-05
 -0.13415811D-05  0.19453917D-07  0.90897538D-05  0.20135487D-06 -0.16158820D-02
 -0.47384879D-05  0.35987507D-06  0.34860320D-02 -0.22530773D-04 -0.96393967D-06
  0.13616139D-02  0.20065231D-04 -0.41686285D-05  0.36985884D-07  0.50958500D-03
  0.36707862D-05 -0.89507641D-07 -0.22204552D-03  0.88350994D-05 -0.21450009D-07
 -0.13067095D-02  0.10240025D-04 -0.17212631D-01 -0.32087812D-01 -0.54232774D-01
 -0.81521975D-01 -0.10013514D+00 -0.84510530D-01 -0.31778166D-01 -0.31581850D-03
 -0.23605476D-02 -0.88219055D-02 -0.24611743D-01 -0.32972950D-01  0.38934905D-01
  0.15592397D-01  0.22623919D-02  0.22667600D-03 -0.45549580D-03 -0.42705626D-03
 -0.30408950D-03 -0.17727899D-04 -0.16621032D-04 -0.11835165D-04 -0.34514658D-01
 -0.32359686D-01 -0.23042024D-01 -0.10451118D-03 -0.27663796D-05 -0.49731725D-02
  0.54690702D-05  0.37981385D-06  0.15130247D-02 -0.42966312D-06 -0.98511393D-08
 -0.33052355D-05 -0.19255434D-01  0.93262054D-02  0.99292282D-02 -0.26988437D-03
  0.22451841D-03  0.76398927D-05 -0.26127887D-02  0.11486756D-02  0.14641131D-02
 -0.35518707D-04  0.28231281D-04  0.93735336D-06  0.83444756D-04 -0.92122087D-04
  0.86773311D-05  0.16574794D-05 -0.17935466D-05 -0.11086276D-06  0.36252072D-04
 -0.25646185D-06  0.34365772D-02 -0.66981750D-04  0.18028991D-05  0.34586211D-02
 -0.41774465D-04 -0.10335136D-05 -0.13768353D-01  0.16267512D-03 -0.95715656D-08
  0.66760887D-07  0.26839938D-03 -0.31868713D-05  0.38828220D-07  0.31672569D-03
  0.32155860D-05 -0.23911088D-06 -0.11219238D-02  0.13582026D-04 -0.89182903D-01
 -0.16623709D+00 -0.28180889D+00 -0.42669678D+00 -0.53346495D+00 -0.45887552D+00
 -0.17598864D+00 -0.12988884D-02 -0.17194850D-01 -0.62454824D-01 -0.18527106D+00
 -0.21348747D+00  0.25931234D+00  0.14916367D+00  0.67605469D-01  0.16901417D-02
 -0.61344556D-03 -0.59993636D-03 -0.39640332D-03 -0.38095614D-01 -0.37256679D-01
 -0.24617063D-01 -0.13144401D+00 -0.12854937D+00 -0.84938002D-01 -0.14432827D-03
 -0.36524654D-02 -0.27299286D-01 -0.26194930D-04 -0.32674025D-02 -0.62984076D-02
 -0.18840262D-06 -0.48588641D-04 -0.46733823D-04 -0.59990247D-02  0.73446315D-02
 -0.13456068D-02 -0.51280896D-04 -0.90690774D-05  0.13755348D-01 -0.29948213D-02
  0.41361046D-02 -0.11412833D-02 -0.18301033D-04 -0.14119885D-04  0.75501668D-02
  0.21605274D-03 -0.21212053D-03 -0.39322117D-05 -0.40771795D-05  0.75334496D-06
 -0.91042177D-03  0.16651092D-04  0.16653033D-02 -0.21603680D-02 -0.34331839D-04
 -0.64272384D-02 -0.23951115D-02 -0.15621438D-04  0.14313286D-02  0.88762156D-02
 -0.17777302D-04 -0.27921950D-05  0.29388126D-03 -0.22206732D-03  0.21965043D-05
 -0.87913716D-03 -0.10359118D-02  0.61800806D-05 -0.25066252D-05  0.17021138D-02