 f2co-wavefunction
GAUSSIAN            184 MOL ORBITALS    288 PRIMITIVES        4 NUCLEI
  O    1    (CENTRE  1)   0.00000000  0.01889726  1.28487582  CHARGE =  8.0
  C    2    (CENTRE  2)   0.00000000  0.00000000 -0.93015344  CHARGE =  6.0
  F    3    (CENTRE  3)   0.00000000 -2.00098943 -2.38919020  CHARGE =  9.0
  F    4    (CENTRE  4)   0.00000000  2.00098943 -2.38919020  CHARGE =  9.0
CENTRE ASSIGNMENTS    1  1  1  1  1  1  1  1  1  1  1  1  1  1  1  1  1  1  1  1
CENTRE ASSIGNMENTS    1  1  1  1  1  1  1  1  1  1  1  1  1  1  1  1  1  1  1  1
CENTRE ASSIGNMENTS    1  1  1  1  1  1  1  1  1  1  1  1  1  1  1  1  1  1  1  1
CENTRE ASSIGNMENTS    1  1  1  1  1  1  1  1  1  1  1  1  2  2  2  2  2  2  2  2
CENTRE ASSIGNMENTS    2  2  2  2  2  2  2  2  2  2  2  2  2  2  2  2  2  2  2  2
CENTRE ASSIGNMENTS    2  2  2  2  2  2  2  2  2  2  2  2  2  2  2  2  2  2  2  2
CENTRE ASSIGNMENTS    2  2  2  2  2  2  2  2  2  2  2  2  2  2  2  2  2  2  2  2
CENTRE ASSIGNMENTS    2  2  2  2  3  3  3  3  3  3  3  3  3  3  3  3  3  3  3  3
CENTRE ASSIGNMENTS    3  3  3  3  3  3  3  3  3  3  3  3  3  3  3  3  3  3  3  3
CENTRE ASSIGNMENTS    3  3  3  3  3  3  3  3  3  3  3  3  3  3  3  3  3  3  3  3
CENTRE ASSIGNMENTS    3  3  3  3  3  3  3  3  3  3  3  3  3  3  3  3  4  4  4  4
CENTRE ASSIGNMENTS    4  4  4  4  4  4  4  4  4  4  4  4  4  4  4  4  4  4  4  4
CENTRE ASSIGNMENTS    4  4  4  4  4  4  4  4  4  4  4  4  4  4  4  4  4  4  4  4
CENTRE ASSIGNMENTS    4  4  4  4  4  4  4  4  4  4  4  4  4  4  4  4  4  4  4  4
CENTRE ASSIGNMENTS    4  4  4  4  4  4  4  4
TYPE ASSIGNMENTS      1  1  1  1  1  1  1  1  1  1  1  1  1  1  1  1  2  2  2  3
TYPE ASSIGNMENTS      3  3  4  4  4  2  3  4  2  3  4  2  3  4  5  6  7  8  9 10
TYPE ASSIGNMENTS      5  6  7  8  9 10  5  6  7  8  9 10 11 12 13 17 14 15 18 19
TYPE ASSIGNMENTS     16 20 11 12 13 17 14 15 18 19 16 20  1  1  1  1  1  1  1  1
TYPE ASSIGNMENTS      1  1  1  1  1  1  1  1  2  2  2  3  3  3  4  4  4  2  3  4
TYPE ASSIGNMENTS      2  3  4  2  3  4  5  6  7  8  9 10  5  6  7  8  9 10  5  6
TYPE ASSIGNMENTS      7  8  9 10 11 12 13 17 14 15 18 19 16 20 11 12 13 17 14 15
TYPE ASSIGNMENTS     18 19 16 20  1  1  1  1  1  1  1  1  1  1  1  1  1  1  1  1
TYPE ASSIGNMENTS      2  2  2  3  3  3  4  4  4  2  3  4  2  3  4  2  3  4  5  6
TYPE ASSIGNMENTS      7  8  9 10  5  6  7  8  9 10  5  6  7  8  9 10 11 12 13 17
TYPE ASSIGNMENTS     14 15 18 19 16 20 11 12 13 17 14 15 18 19 16 20  1  1  1  1
TYPE ASSIGNMENTS      1  1  1  1  1  1  1  1  1  1  1  1  2  2  2  3  3  3  4  4
TYPE ASSIGNMENTS      4  2  3  4  2  3  4  2  3  4  5  6  7  8  9 10  5  6  7  8
TYPE ASSIGNMENTS      9 10  5  6  7  8  9 10 11 12 13 17 14 15 18 19 16 20 11 12
TYPE ASSIGNMENTS     13 17 14 15 18 19 16 20
EXPONENTS  0.1533000D+05 0.2299000D+04 0.5224000D+03 0.1473000D+03 0.4755000D+02
EXPONENTS  0.1676000D+02 0.6207000D+01 0.5224000D+03 0.1473000D+03 0.4755000D+02
EXPONENTS  0.1676000D+02 0.6207000D+01 0.6882000D+00 0.1752000D+01 0.2384000D+00
EXPONENTS  0.7376000D-01 0.3446000D+02 0.7749000D+01 0.2280000D+01 0.3446000D+02
EXPONENTS  0.7749000D+01 0.2280000D+01 0.3446000D+02 0.7749000D+01 0.2280000D+01
EXPONENTS  0.7156000D+00 0.7156000D+00 0.7156000D+00 0.2140000D+00 0.2140000D+00
EXPONENTS  0.2140000D+00 0.5974000D-01 0.5974000D-01 0.5974000D-01 0.2314000D+01
EXPONENTS  0.2314000D+01 0.2314000D+01 0.2314000D+01 0.2314000D+01 0.2314000D+01
EXPONENTS  0.6450000D+00 0.6450000D+00 0.6450000D+00 0.6450000D+00 0.6450000D+00
EXPONENTS  0.6450000D+00 0.2140000D+00 0.2140000D+00 0.2140000D+00 0.2140000D+00
EXPONENTS  0.2140000D+00 0.2140000D+00 0.1428000D+01 0.1428000D+01 0.1428000D+01
EXPONENTS  0.1428000D+01 0.1428000D+01 0.1428000D+01 0.1428000D+01 0.1428000D+01
EXPONENTS  0.1428000D+01 0.1428000D+01 0.5000000D+00 0.5000000D+00 0.5000000D+00
EXPONENTS  0.5000000D+00 0.5000000D+00 0.5000000D+00 0.5000000D+00 0.5000000D+00
EXPONENTS  0.5000000D+00 0.5000000D+00 0.8236000D+04 0.1235000D+04 0.2808000D+03
EXPONENTS  0.7927000D+02 0.2559000D+02 0.8997000D+01 0.3319000D+01 0.2808000D+03
EXPONENTS  0.7927000D+02 0.2559000D+02 0.8997000D+01 0.3319000D+01 0.3643000D+00
EXPONENTS  0.9059000D+00 0.1285000D+00 0.4402000D-01 0.1871000D+02 0.4133000D+01
EXPONENTS  0.1200000D+01 0.1871000D+02 0.4133000D+01 0.1200000D+01 0.1871000D+02
EXPONENTS  0.4133000D+01 0.1200000D+01 0.3827000D+00 0.3827000D+00 0.3827000D+00
EXPONENTS  0.1209000D+00 0.1209000D+00 0.1209000D+00 0.3569000D-01 0.3569000D-01
EXPONENTS  0.3569000D-01 0.1097000D+01 0.1097000D+01 0.1097000D+01 0.1097000D+01
EXPONENTS  0.1097000D+01 0.1097000D+01 0.3180000D+00 0.3180000D+00 0.3180000D+00
EXPONENTS  0.3180000D+00 0.3180000D+00 0.3180000D+00 0.1000000D+00 0.1000000D+00
EXPONENTS  0.1000000D+00 0.1000000D+00 0.1000000D+00 0.1000000D+00 0.7610000D+00
EXPONENTS  0.7610000D+00 0.7610000D+00 0.7610000D+00 0.7610000D+00 0.7610000D+00
EXPONENTS  0.7610000D+00 0.7610000D+00 0.7610000D+00 0.7610000D+00 0.2680000D+00
EXPONENTS  0.2680000D+00 0.2680000D+00 0.2680000D+00 0.2680000D+00 0.2680000D+00
EXPONENTS  0.2680000D+00 0.2680000D+00 0.2680000D+00 0.2680000D+00 0.1950000D+05
EXPONENTS  0.2923000D+04 0.6645000D+03 0.1875000D+03 0.6062000D+02 0.2142000D+02
EXPONENTS  0.7950000D+01 0.6645000D+03 0.1875000D+03 0.6062000D+02 0.2142000D+02
EXPONENTS  0.7950000D+01 0.8815000D+00 0.2257000D+01 0.3041000D+00 0.9158000D-01
EXPONENTS  0.4388000D+02 0.9926000D+01 0.2930000D+01 0.4388000D+02 0.9926000D+01
EXPONENTS  0.2930000D+01 0.4388000D+02 0.9926000D+01 0.2930000D+01 0.9132000D+00
EXPONENTS  0.9132000D+00 0.9132000D+00 0.2672000D+00 0.2672000D+00 0.2672000D+00
EXPONENTS  0.7361000D-01 0.7361000D-01 0.7361000D-01 0.3107000D+01 0.3107000D+01
EXPONENTS  0.3107000D+01 0.3107000D+01 0.3107000D+01 0.3107000D+01 0.8550000D+00
EXPONENTS  0.8550000D+00 0.8550000D+00 0.8550000D+00 0.8550000D+00 0.8550000D+00
EXPONENTS  0.2920000D+00 0.2920000D+00 0.2920000D+00 0.2920000D+00 0.2920000D+00
EXPONENTS  0.2920000D+00 0.1917000D+01 0.1917000D+01 0.1917000D+01 0.1917000D+01
EXPONENTS  0.1917000D+01 0.1917000D+01 0.1917000D+01 0.1917000D+01 0.1917000D+01
EXPONENTS  0.1917000D+01 0.7240000D+00 0.7240000D+00 0.7240000D+00 0.7240000D+00
EXPONENTS  0.7240000D+00 0.7240000D+00 0.7240000D+00 0.7240000D+00 0.7240000D+00
EXPONENTS  0.7240000D+00 0.1950000D+05 0.2923000D+04 0.6645000D+03 0.1875000D+03
EXPONENTS  0.6062000D+02 0.2142000D+02 0.7950000D+01 0.6645000D+03 0.1875000D+03
EXPONENTS  0.6062000D+02 0.2142000D+02 0.7950000D+01 0.8815000D+00 0.2257000D+01
EXPONENTS  0.3041000D+00 0.9158000D-01 0.4388000D+02 0.9926000D+01 0.2930000D+01
EXPONENTS  0.4388000D+02 0.9926000D+01 0.2930000D+01 0.4388000D+02 0.9926000D+01
EXPONENTS  0.2930000D+01 0.9132000D+00 0.9132000D+00 0.9132000D+00 0.2672000D+00
EXPONENTS  0.2672000D+00 0.2672000D+00 0.7361000D-01 0.7361000D-01 0.7361000D-01
EXPONENTS  0.3107000D+01 0.3107000D+01 0.3107000D+01 0.3107000D+01 0.3107000D+01
EXPONENTS  0.3107000D+01 0.8550000D+00 0.8550000D+00 0.8550000D+00 0.8550000D+00
EXPONENTS  0.8550000D+00 0.8550000D+00 0.2920000D+00 0.2920000D+00 0.2920000D+00
EXPONENTS  0.2920000D+00 0.2920000D+00 0.2920000D+00 0.1917000D+01 0.1917000D+01
EXPONENTS  0.1917000D+01 0.1917000D+01 0.1917000D+01 0.1917000D+01 0.1917000D+01
EXPONENTS  0.1917000D+01 0.1917000D+01 0.1917000D+01 0.7240000D+00 0.7240000D+00
EXPONENTS  0.7240000D+00 0.7240000D+00 0.7240000D+00 0.7240000D+00 0.7240000D+00
EXPONENTS  0.7240000D+00 0.7240000D+00 0.7240000D+00
MO    1     MO 0.0        OCC NO =    2.0000067  ORB. ENERGY =    0.000000
 -0.32220959D+00 -0.60054569D+00 -0.10183096D+01 -0.15411033D+01 -0.19224049D+01
 -0.16497094D+01 -0.63175107D+00 -0.40144506D-04 -0.43072420D-03 -0.15877305D-02
 -0.46424309D-02 -0.55943549D-02  0.67389934D-02 -0.29033177D-01  0.49041498D-03
 -0.49960907D-04 -0.21363380D-13 -0.20715292D-13 -0.13974414D-13  0.22182881D-03
  0.21509933D-03  0.14510474D-03  0.19770184D-01  0.19170428D-01  0.12932258D-01
 -0.71791904D-14  0.19453988D-04  0.25046296D-02 -0.13351947D-13  0.12365758D-05
  0.66411037D-03 -0.85462615D-15  0.34061682D-06  0.14585153D-04  0.12279003D-02
  0.65185291D-03 -0.18797532D-02  0.57644781D-14 -0.14425622D-13 -0.30424862D-04
  0.50323510D-04 -0.25025849D-04 -0.25297661D-04 -0.15052815D-14  0.13437211D-13
 -0.32486939D-05  0.50126197D-04 -0.18255975D-05 -0.48300600D-04  0.98111310D-16
  0.60659353D-14 -0.58850053D-06 -0.21474663D-14  0.60369408D-05 -0.54813035D-03
 -0.71246088D-14  0.11074208D-04  0.10328211D-02  0.13567008D-13 -0.29185031D-04
  0.61156993D-03  0.64538371D-14  0.20605002D-14 -0.88075912D-06  0.13133600D-04
  0.31660426D-14 -0.19942714D-05 -0.22401860D-04 -0.93475431D-14  0.46365487D-05
 -0.16998939D-04  0.10780729D-14  0.23919614D+00  0.44590979D+00  0.75364829D+00
  0.11328739D+01  0.13915327D+01  0.11744045D+01  0.44160677D+00  0.26515301D-04
  0.19818545D-03  0.74066427D-03  0.20663380D-02  0.27683232D-02 -0.32688735D-02
  0.19352206D-01 -0.41850255D-04  0.15411914D-04 -0.38600838D-14 -0.36190740D-14
 -0.25769963D-14 -0.35173601D-04 -0.32977486D-04 -0.23481935D-04 -0.40563534D-02
 -0.38030891D-02 -0.27080260D-02  0.15093715D-13  0.57559895D-05  0.48185387D-03
  0.37848174D-14  0.51129839D-05  0.81653936D-04  0.16246808D-15 -0.79569042D-07
  0.82292966D-06 -0.95499953D-03  0.40705165D-03  0.54794788D-03  0.26665133D-14
 -0.24593993D-14  0.13404434D-04  0.21534349D-03 -0.12684170D-03 -0.88501797D-04
 -0.35460702D-14  0.11487319D-13 -0.11919390D-04 -0.28187311D-07 -0.26927172D-05
  0.27209045D-05 -0.30840554D-15  0.10995180D-14 -0.12751113D-06 -0.27502704D-14
 -0.10397340D-04  0.56089102D-03  0.16946267D-14 -0.27383581D-05 -0.33682257D-03
  0.65561846D-14  0.33930379D-04 -0.13458505D-02  0.28047917D-14 -0.31043877D-15
 -0.10422822D-05 -0.88330978D-04 -0.82421241D-15 -0.70693056D-06 -0.11531138D-04
  0.17555287D-14  0.38337773D-05  0.27652407D-03  0.21332672D-14 -0.96548371D-01
 -0.17996633D+00 -0.30508302D+00 -0.46193696D+00 -0.57752294D+00 -0.49677329D+00
 -0.19052325D+00 -0.11732791D-04 -0.15532018D-03 -0.56415117D-03 -0.16735438D-02
 -0.19284212D-02  0.23423548D-02 -0.84366352D-02  0.78985868D-03  0.31721393D-04
  0.39499049D-13  0.38629208D-13  0.25523951D-13 -0.74023509D-02 -0.72393375D-02
 -0.47833363D-02 -0.60216687D-02 -0.58890605D-02 -0.38911512D-02  0.75286869D-14
 -0.12665195D-02 -0.11527471D-02 -0.52166331D-15 -0.14535622D-03 -0.88687927D-04
 -0.25458209D-15 -0.32570402D-05 -0.16610628D-05  0.75429214D-04 -0.72908930D-04
 -0.25202837D-05  0.45044249D-14  0.39235839D-14  0.67759352D-03  0.15059873D-03
 -0.66277801D-04 -0.84320928D-04 -0.15588764D-14  0.58231073D-15 -0.78588703D-03
  0.42294586D-04 -0.20212464D-04 -0.22082122D-04 -0.11925032D-14 -0.13300100D-14
 -0.69490584D-05 -0.28806885D-14 -0.19350967D-04 -0.24859355D-05  0.11783649D-14
  0.23615914D-03  0.99010657D-04  0.74637005D-14 -0.17810624D-03 -0.91552850D-04
  0.13237333D-13  0.79147055D-15  0.60977758D-04  0.99694947D-04 -0.25555899D-14
  0.16551873D-03  0.20848704D-03  0.18117826D-15 -0.34845200D-03 -0.50757188D-03
 -0.44316772D-14 -0.96020395D-01 -0.17898218D+00 -0.30341467D+00 -0.45941085D+00
 -0.57436475D+00 -0.49405668D+00 -0.18948137D+00 -0.11645590D-04 -0.15416580D-03
 -0.55995825D-03 -0.16611056D-02 -0.19140887D-02  0.23249458D-02 -0.83887446D-02
  0.77049956D-03  0.23643411D-04  0.13576674D-12  0.13277690D-12  0.87731314D-13
  0.73989677D-02  0.72360288D-02  0.47811502D-02 -0.60109660D-02 -0.58785934D-02
 -0.38842352D-02  0.27697143D-13  0.12854467D-02 -0.11559470D-02  0.88387238D-14
  0.15968829D-03 -0.80259659D-04  0.27672770D-15  0.42205691D-05 -0.22642960D-05
  0.84203939D-04 -0.55061083D-04 -0.29142856D-04  0.46670218D-15 -0.45997172D-15
 -0.65268199D-03  0.14994749D-03 -0.79926846D-04 -0.70020641D-04 -0.10010331D-15
  0.30555845D-14  0.78355076D-03  0.41970776D-04 -0.25177350D-04 -0.16793426D-04
 -0.26714271D-14  0.13681772D-14  0.41299359D-05  0.43352088D-15  0.16373146D-04
 -0.27727462D-05 -0.51796916D-14 -0.24331337D-03  0.10568752D-03  0.38791290D-14
  0.19419393D-03 -0.97369278D-04  0.18304828D-13 -0.36584713D-15 -0.54184737D-04
  0.10357758D-03  0.67146459D-15 -0.16403718D-03  0.20113480D-03  0.42607681D-15
  0.32659139D-03 -0.51186755D-03 -0.36145583D-14
MO    2     MO 0.0        OCC NO =    2.0000037  ORB. ENERGY =    0.000000
 -0.36837706D+00 -0.68659427D+00 -0.11642171D+01 -0.17619188D+01 -0.21978548D+01
 -0.18860864D+01 -0.72227088D+00 -0.43674531D-04 -0.46859906D-03 -0.17273444D-02
 -0.50506536D-02 -0.60862831D-02  0.73315730D-02 -0.33651458D-01  0.66768026D-03
  0.91560212D-04 -0.17827541D-14 -0.17286718D-14 -0.11661518D-14  0.10401803D-03
  0.10086250D-03  0.68041247D-04  0.87215501D-02  0.84569698D-02  0.57050219D-02
  0.47097800D-14 -0.10680379D-04 -0.18393377D-02  0.77260895D-14  0.45575163D-05
 -0.15551998D-03  0.50669209D-15 -0.12737001D-06  0.17860004D-05  0.69246288D-03
  0.89314552D-04 -0.78177743D-03  0.30859487D-14  0.81111390D-14 -0.12924497D-04
 -0.33900293D-03 -0.35762839D-03  0.69663132D-03  0.11126502D-14 -0.10309397D-13
  0.20183607D-04 -0.39176871D-04  0.13210012D-04  0.25966859D-04 -0.11695989D-15
 -0.33340854D-14  0.41907396D-07  0.10783861D-14 -0.55359606D-05  0.24836998D-03
  0.17802139D-14 -0.45931334D-05 -0.22284024D-03 -0.50153724D-14  0.21201015D-04
 -0.52226971D-03 -0.26975942D-14 -0.11772787D-14  0.15350386D-05 -0.66602351D-04
 -0.16475875D-14  0.24762841D-05  0.11087564D-03  0.51794235D-14 -0.70813999D-05
  0.88931416D-04 -0.13459760D-14 -0.16825481D+00 -0.31366086D+00 -0.53012958D+00
 -0.79688363D+00 -0.97882881D+00 -0.82609699D+00 -0.31063404D+00 -0.14534197D-04
 -0.10863412D-03 -0.40599051D-03 -0.11326503D-02 -0.15174391D-02  0.17918127D-02
 -0.14046606D-01  0.99299173D-04 -0.68347375D-05 -0.51125390D-14 -0.47933303D-14
 -0.34131367D-14  0.29542753D-04  0.27698209D-04  0.19722775D-04  0.25226555D-02
  0.23651498D-02  0.16841276D-02 -0.92119181D-14 -0.17998554D-04 -0.20186670D-02
 -0.18454193D-14 -0.46677890D-05 -0.26098348D-04 -0.76525454D-16  0.15598450D-07
 -0.84488879D-05  0.82558039D-03  0.15024702D-03 -0.97582741D-03  0.98551947D-15
  0.40065773D-15 -0.20422759D-04 -0.13255068D-03  0.36130887D-03 -0.22875819D-03
  0.80530419D-15 -0.82583691D-14 -0.36266080D-05 -0.33228809D-05 -0.14290094D-04
  0.17612975D-04  0.11844559D-15 -0.74522272D-15  0.34963423D-06  0.16181898D-14
  0.20917766D-06 -0.25395316D-03  0.18475913D-15  0.49787982D-05  0.52937527D-03
 -0.50393286D-14 -0.56063311D-05  0.23248420D-03 -0.10506882D-14  0.12283818D-15
  0.55170307D-06  0.34367197D-04  0.79822794D-15  0.15903474D-05  0.73159683D-04
 -0.11667425D-14 -0.32454566D-05 -0.17626127D-03 -0.84007531D-15  0.18616280D+00
  0.34700778D+00  0.58825549D+00  0.89069837D+00  0.11135691D+01  0.95786915D+00
  0.36736344D+00  0.19164646D-04  0.25370402D-03  0.92149918D-03  0.27336100D-02
  0.31499333D-02 -0.38260632D-02  0.16952384D-01 -0.86017993D-03 -0.32959075D-04
 -0.15584224D-12 -0.15241031D-12 -0.10070394D-12  0.87789201D-02  0.85855921D-02
  0.56728637D-02  0.53767988D-02  0.52583918D-02  0.34744418D-02 -0.32327557D-13
  0.79106948D-03  0.27681789D-03 -0.62612549D-14  0.79498278D-04 -0.20591757D-04
 -0.52455337D-16 -0.20315927D-05  0.20942775D-04 -0.33733989D-04  0.15414969D-03
 -0.12041570D-03  0.45866189D-14 -0.39951488D-14 -0.33454589D-03  0.58081742D-05
 -0.53358268D-04  0.47550093D-04 -0.13006869D-14 -0.32567832D-14  0.51941771D-04
 -0.16525396D-04  0.16068915D-04  0.45648069D-06 -0.63003797D-15 -0.24103977D-15
 -0.24523379D-05  0.75826698D-15  0.10432414D-03 -0.11421791D-03 -0.93252575D-15
  0.97300865D-04  0.57070467D-03 -0.13422752D-14 -0.41027328D-03 -0.22805092D-03
  0.56899197D-14  0.52683478D-15 -0.54075184D-04 -0.89553085D-05 -0.86021902D-15
 -0.13727396D-03 -0.28909904D-03 -0.72028532D-15  0.29949952D-03  0.31596497D-03
 -0.27489484D-14  0.18532659D+00  0.34544908D+00  0.58561316D+00  0.88669752D+00
  0.11085672D+01  0.95356658D+00  0.36571331D+00  0.19088329D-04  0.25269373D-03
  0.91782962D-03  0.27227243D-02  0.31373898D-02 -0.38108272D-02  0.16876303D-01
 -0.84634557D-03 -0.24967647D-04  0.90100294D-14  0.88116119D-14  0.58222046D-14
 -0.87593016D-02 -0.85664056D-02 -0.56601864D-02  0.52961271D-02  0.51794966D-02
  0.34223124D-02  0.31222023D-14 -0.79981121D-03  0.26764173D-03 -0.20955799D-14
 -0.83898366D-04 -0.20695228D-04 -0.20996053D-15  0.12722645D-05  0.21382444D-04
 -0.30130005D-04  0.15950960D-03 -0.12937959D-03 -0.75963924D-14 -0.75942444D-14
  0.33752431D-03  0.24687000D-05 -0.53696336D-04  0.51227636D-04 -0.92630383D-15
 -0.85395939D-15 -0.57992725D-04 -0.17059681D-04  0.15990867D-04  0.10688148D-05
  0.14675159D-14 -0.78545500D-15  0.25699723D-05 -0.31032437D-14 -0.10846706D-03
 -0.12240964D-03  0.50234061D-14 -0.92322591D-04  0.58046577D-03  0.42863249D-14
  0.41772376D-03 -0.21323684D-03 -0.71680681D-14  0.38044152D-16  0.56065608D-04
 -0.49161123D-05 -0.59263472D-15  0.13555088D-03 -0.29374581D-03  0.47850227D-15
 -0.30374770D-03  0.30849415D-03  0.20407374D-14
MO    3     MO 0.0        OCC NO =    2.0000022  ORB. ENERGY =    0.000000
  0.63703619D-03  0.11873307D-02  0.20132861D-02  0.30468944D-02  0.38007606D-02
  0.32616181D-02  0.12490264D-02  0.89556770D-07  0.96088537D-06  0.35420044D-05
  0.10356613D-04  0.12480222D-04 -0.15033750D-04  0.58477034D-04 -0.22914230D-06
 -0.43719558D-06 -0.22967432D-13 -0.22270683D-13 -0.15023671D-13 -0.86356503D-03
 -0.83736759D-03 -0.56488323D-03  0.23544930D-04  0.22830662D-04  0.15401430D-04
  0.56041553D-14 -0.11221667D-03  0.13382197D-04  0.11009004D-13  0.90581021D-04
 -0.10051528D-05  0.79158570D-15  0.14483322D-04  0.61713349D-07  0.53095094D-05
  0.89412619D-06 -0.62036355D-05 -0.43577870D-14  0.19960857D-13  0.18028714D-03
 -0.12744630D-05  0.13064098D-05 -0.31946771D-07 -0.56792502D-15 -0.15282091D-13
 -0.63098092D-04 -0.48049554D-06 -0.71554697D-07  0.55205023D-06  0.64456994D-15
 -0.54140650D-14 -0.25220852D-04  0.16163493D-14 -0.11409808D-04 -0.11009622D-05
 -0.34789666D-14  0.16292477D-03  0.68377410D-06 -0.13700813D-14 -0.12869535D-03
  0.26191124D-05  0.15574167D-13 -0.15060177D-14  0.32267882D-05 -0.21425245D-06
 -0.17022774D-14 -0.67743272D-04  0.30515956D-05  0.62203306D-14  0.58062907D-04
 -0.24088383D-05 -0.21441776D-14  0.10024309D-02  0.18687332D-02  0.31584137D-02
  0.47476848D-02  0.58316805D-02  0.49217326D-02  0.18507000D-02  0.85862952D-07
  0.64177237D-06  0.23984499D-05  0.66913017D-05  0.89644995D-05 -0.10585402D-04
  0.79457776D-04  0.12373115D-05 -0.22224872D-06  0.10651702D-13  0.99866474D-14
  0.71110879D-14 -0.60245543D-04 -0.56484026D-04 -0.40219992D-04 -0.14971375D-04
 -0.14036616D-04 -0.99949065D-05 -0.90801869D-14 -0.38914881D-03  0.13324392D-05
 -0.39925431D-14  0.55922138D-04  0.85415456D-06 -0.23785894D-15 -0.63395167D-05
 -0.97403476D-08 -0.61459571D-05  0.33473493D-05  0.27986078D-05 -0.20189186D-14
 -0.13939276D-14  0.61013967D-03 -0.39247000D-07 -0.18699609D-05  0.19092079D-05
 -0.24393547D-14 -0.14618861D-13  0.38091375D-03  0.79290770D-07 -0.24933850D-06
  0.17004773D-06 -0.19218083D-15 -0.71145465D-15 -0.28246943D-04  0.11024633D-14
 -0.24413429D-04  0.36490200D-05  0.42005307D-14  0.51663995D-03  0.26634033D-05
 -0.75079206D-14 -0.44339966D-03 -0.13610463D-04  0.17930903D-15  0.38073522D-15
  0.44101789D-04  0.33706407D-06  0.99669862D-15  0.30469617D-04  0.41068392D-06
 -0.21389043D-14 -0.16277499D-03 -0.14218761D-05 -0.33782414D-15  0.42391853D+00
  0.79018487D+00  0.13395394D+01  0.20282438D+01  0.25357515D+01  0.21812010D+01
  0.83653752D+00  0.38877908D-04  0.51467070D-03  0.18693776D-02  0.55454735D-02
  0.63900382D-02 -0.77616531D-02  0.39287642D-01 -0.16957690D-03  0.83389240D-04
  0.53253263D-13  0.52080528D-13  0.34411807D-13  0.97802476D-02  0.95648685D-02
  0.63199130D-02  0.74964859D-02  0.73313994D-02  0.48441656D-02  0.13085105D-13
 -0.19075670D-03  0.14987831D-03 -0.73617003D-15  0.23446748D-03  0.39671603D-03
  0.10407994D-15  0.21071362D-04  0.41950097D-05 -0.14791931D-03  0.16840630D-03
 -0.20486992D-04  0.26773985D-14  0.54719682D-14  0.25445805D-03  0.15739445D-03
 -0.24875825D-03  0.91363808D-04 -0.11166544D-14 -0.61003717D-15 -0.52542275D-03
 -0.58625108D-04  0.13645082D-04  0.44980026D-04 -0.92777200D-15 -0.15365278D-14
  0.13171116D-03 -0.15773815D-15 -0.27302170D-03  0.11018818D-04 -0.10639384D-14
  0.88446439D-03  0.18710655D-03  0.15371529D-14 -0.65399299D-04 -0.22016300D-03
  0.30129586D-13  0.84929647D-15  0.51291646D-04  0.20118349D-04 -0.10632527D-14
 -0.20676157D-03 -0.30377938D-04 -0.14846367D-14  0.52886635D-04 -0.29977108D-04
 -0.45341578D-14 -0.42098913D+00 -0.78472447D+00 -0.13302828D+01 -0.20142281D+01
 -0.25182287D+01 -0.21661283D+01 -0.83075681D+00 -0.38595767D-04 -0.51093569D-03
 -0.18558114D-02 -0.55052295D-02 -0.63436651D-02  0.77053261D-02 -0.39016179D-01
  0.16894015D-03 -0.82412759D-04  0.67375545D-13  0.65891812D-13  0.43537506D-13
  0.97506518D-02  0.95359245D-02  0.63007885D-02 -0.74194839D-02 -0.72560932D-02
 -0.47944076D-02  0.14766850D-13 -0.17790555D-03 -0.15579743D-03  0.15710615D-14
  0.23470478D-03 -0.39425147D-03  0.37205144D-15  0.21208417D-04 -0.40472221D-05
  0.14791780D-03 -0.16034027D-03  0.12422475D-04 -0.15438662D-13  0.56575825D-14
  0.24785048D-03 -0.15392078D-03  0.24457260D-03 -0.90651818D-04  0.88154061D-15
 -0.90883097D-15 -0.51181638D-03  0.58474353D-04 -0.13723773D-04 -0.44750581D-04
  0.24507382D-16  0.30995774D-16  0.13175246D-03  0.15128815D-15 -0.27337266D-03
 -0.11525489D-04  0.23927838D-15  0.88358047D-03 -0.18293079D-03 -0.69314283D-15
 -0.63462488D-04  0.21750725D-03 -0.25653790D-14 -0.64681347D-15  0.51300909D-04
 -0.18278499D-04  0.73821701D-15 -0.20985184D-03  0.31633434D-04  0.12022234D-14
  0.55949111D-04  0.23202064D-04  0.70108450D-15
MO    4     MO 0.0        OCC NO =    2.0000016  ORB. ENERGY =    0.000000
  0.10182940D+00  0.18979326D+00  0.32182115D+00  0.48704208D+00  0.60754661D+00
  0.52136538D+00  0.19965524D+00  0.13152399D-04  0.14111661D-03  0.52018241D-03
  0.15209829D-02  0.18328583D-02 -0.22078721D-02  0.93968604D-02 -0.42179471D-03
 -0.17764209D-03  0.19069376D-13  0.18490880D-13  0.12473838D-13  0.30395711D-05
  0.29473615D-05  0.19882726D-05  0.53309537D-03  0.51692318D-03  0.34871332D-03
  0.32910838D-14  0.30269990D-04  0.15683815D-02 -0.17698775D-13  0.53197449D-05
  0.12169105D-03 -0.11203104D-14  0.81945124D-07  0.19308900D-04  0.15190753D-03
 -0.90245484D-05 -0.14288298D-03 -0.71554129D-14 -0.29543471D-13 -0.10243798D-04
  0.62667909D-04  0.28782588D-03 -0.35049379D-03  0.87237603D-15  0.17314724D-13
 -0.25381937D-04 -0.11787207D-04  0.21709146D-04 -0.99219391D-05 -0.20669346D-15
  0.92609480D-14 -0.10060989D-05 -0.45231289D-14 -0.23065917D-05 -0.31191869D-03
 -0.56646225D-14 -0.28262351D-05  0.61541064D-03  0.19234009D-13  0.97460101D-05
  0.32034544D-03  0.48156876D-14  0.33718457D-14 -0.22050134D-05  0.77873708D-04
  0.26536186D-14  0.12330188D-05 -0.15449551D-04 -0.12769156D-13  0.53820215D-05
 -0.21817157D-03 -0.12193011D-14  0.14760951D+00  0.27517387D+00  0.46508132D+00
  0.69910397D+00  0.85872402D+00  0.72473277D+00  0.27251845D+00  0.11534792D-04
  0.86215421D-04  0.32220671D-03  0.89890656D-03  0.12042870D-02 -0.14220383D-02
  0.11821424D-01  0.21424689D-04  0.24400769D-04 -0.16182449D-13 -0.15172074D-13
 -0.10803421D-13 -0.21914521D-04 -0.20546256D-04 -0.14630158D-04 -0.23510250D-02
 -0.22042354D-02 -0.15695469D-02  0.21054394D-13  0.12058253D-04  0.63190095D-03
  0.81161691D-14 -0.47551518D-06  0.20554620D-03  0.31992761D-15  0.60676820D-07
 -0.12683090D-05 -0.10775857D-02  0.33971458D-03  0.73787111D-03 -0.17482594D-15
  0.46032797D-14  0.15523947D-04 -0.31515159D-04 -0.98108147D-04  0.12962331D-03
 -0.42017356D-14  0.17670184D-13 -0.93533797D-05  0.38521335D-05 -0.12783421D-04
  0.89312872D-05 -0.11045535D-15  0.89094080D-15  0.21370573D-06 -0.18474274D-14
 -0.11525215D-05  0.48382538D-03 -0.19594156D-14 -0.38094033D-05  0.19737205D-03
  0.75016979D-14  0.72669676D-05 -0.16488482D-02  0.50441750D-14 -0.86834936D-15
 -0.72392103D-06  0.42374544D-04  0.41145315D-16  0.27149136D-06 -0.24726166D-04
  0.25639028D-14  0.19002717D-05 -0.10239747D-03  0.13773893D-14  0.36501943D+00
  0.68039685D+00  0.11534242D+01  0.17464403D+01  0.21834350D+01  0.18781457D+01
  0.72030928D+00  0.31375396D-04  0.41535150D-03  0.15086322D-02  0.44753290D-02
  0.51569128D-02 -0.62638387D-02  0.34156965D-01  0.26918123D-03  0.80691676D-04
 -0.80373524D-13 -0.78603552D-13 -0.51936690D-13  0.61947151D-02  0.60582961D-02
  0.40029724D-02  0.39050349D-02  0.38190388D-02  0.25234004D-02 -0.17398369D-13
 -0.54400128D-03 -0.64233315D-03 -0.65691031D-14  0.30892484D-03  0.15989901D-03
 -0.68861987D-15  0.48138492D-05  0.13356047D-04 -0.23483754D-03  0.17599040D-03
  0.58847138D-04 -0.57388935D-15  0.50620211D-14  0.78306464D-03  0.25102232D-03
 -0.17838514D-03 -0.72637183D-04 -0.23519367D-14  0.57672719D-15 -0.98935913D-03
 -0.44102054D-04  0.35354479D-04  0.87475747D-05 -0.22284233D-14 -0.26715080D-14
  0.62366654D-04 -0.21674712D-14  0.23780986D-04 -0.75280677D-04 -0.16614612D-14
  0.26323590D-03  0.45699338D-03  0.81638747D-14 -0.33457885D-03 -0.23115135D-03
  0.57318195D-14  0.15396491D-14  0.32164301D-04  0.10056652D-03 -0.22240537D-14
  0.11225515D-03  0.45100531D-04 -0.23948937D-14 -0.20874805D-03 -0.34680010D-03
 -0.88294854D-14  0.36894866D+00  0.68772093D+00  0.11658402D+01  0.17652397D+01
  0.22069384D+01  0.18983628D+01  0.72806300D+00  0.31701096D-04  0.41966315D-03
  0.15242929D-02  0.45217862D-02  0.52104453D-02 -0.63288619D-02  0.34525429D-01
  0.25688106D-03  0.81129994D-04 -0.63335105D-13 -0.61940349D-13 -0.40926608D-13
 -0.62880916D-02 -0.61496163D-02 -0.40633115D-02  0.39416181D-02  0.38548164D-02
  0.25470402D-02 -0.13327173D-13  0.55238583D-03 -0.64210388D-03 -0.80184601D-15
 -0.30259897D-03  0.16089559D-03 -0.52035429D-15 -0.49923321D-05  0.13444886D-04
 -0.23264462D-03  0.17311129D-03  0.59533331D-04  0.87379709D-14 -0.92777515D-14
 -0.78382428D-03  0.25148494D-03 -0.18233609D-03 -0.69148843D-04  0.14066223D-14
  0.15666932D-14  0.99478736D-03 -0.44020683D-04  0.34258276D-04  0.97624069D-05
 -0.71650235D-15  0.21969942D-15 -0.61321933D-04  0.34515441D-15 -0.17899251D-04
 -0.75588712D-04 -0.42948768D-14 -0.28121164D-03  0.46101645D-03  0.32594135D-14
  0.33490939D-03 -0.23425031D-03 -0.39891619D-15  0.54643796D-15 -0.33728049D-04
  0.10064357D-03 -0.10230529D-14 -0.10604535D-03  0.43086127D-04 -0.61626094D-15
  0.20722950D-03 -0.34501685D-03 -0.22046846D-14
MO    5     MO 0.0        OCC NO =    1.9861786  ORB. ENERGY =    0.000000
 -0.99162791D-02 -0.18482314D-01 -0.31339360D-01 -0.47428789D-01 -0.59163676D-01
 -0.50771236D-01 -0.19442686D-01 -0.16087112D-03 -0.17260415D-02 -0.63625141D-02
 -0.18603618D-01 -0.22418264D-01  0.27005175D-01  0.14151602D-01 -0.31080550D-04
 -0.19218433D-02 -0.63921598D-13 -0.61982448D-13 -0.41812993D-13  0.19744019D-03
  0.19145057D-03  0.12915142D-03 -0.69618318D-01 -0.67506351D-01 -0.45539385D-01
 -0.19344877D-13  0.16111845D-03 -0.13007171D-01  0.29508528D-14  0.11917317D-03
  0.19934467D-02  0.44335704D-15  0.51097860D-05  0.22944604D-03 -0.40047215D-02
 -0.42476785D-02  0.82524000D-02  0.59231246D-14  0.18692261D-14  0.73560749D-04
 -0.45495522D-03  0.61816138D-03 -0.16320616D-03 -0.14130778D-14  0.35616037D-14
 -0.13141917D-03  0.10948322D-03  0.51802327D-03 -0.62750649D-03  0.13494109D-15
 -0.20108848D-14 -0.36114944D-04  0.83531729D-15 -0.22799401D-04 -0.16164785D-02
  0.30464799D-14 -0.13465343D-04  0.34855290D-02 -0.55524318D-14  0.81863545D-04
  0.13639065D-02  0.36949027D-14 -0.40635027D-16 -0.13959239D-04  0.50932723D-03
 -0.39007581D-15  0.46340391D-05 -0.22230060D-03  0.51198089D-15  0.37243677D-04
 -0.13056811D-02  0.16729662D-15 -0.17212891D-01 -0.32088296D-01 -0.54233592D-01
 -0.81523204D-01 -0.10013665D+00 -0.84511804D-01 -0.31778645D-01 -0.31581941D-03
 -0.23605544D-02 -0.88219307D-02 -0.24611813D-01 -0.32973044D-01  0.38935017D-01
  0.15592492D-01  0.22620455D-02  0.22655946D-03 -0.35253781D-13 -0.33052661D-13
 -0.23535463D-13  0.65401386D-03  0.61317957D-03  0.43662038D-03 -0.34526180D-01
 -0.32370488D-01 -0.23049716D-01 -0.13887712D-13  0.16173681D-03 -0.49751997D-02
 -0.34374324D-14 -0.30553454D-04  0.15128063D-02 -0.87329111D-16 -0.66621298D-06
 -0.32995553D-05 -0.19257024D-01  0.93290089D-02  0.99280147D-02 -0.57254064D-14
  0.38163548D-14  0.12494891D-03 -0.26130260D-02  0.11490840D-02  0.14639420D-02
  0.32280251D-14 -0.17827404D-14 -0.60812487D-04  0.83476356D-04 -0.92150790D-04
  0.86744340D-05  0.45024485D-16 -0.42106191D-15 -0.37380782D-05 -0.55492053D-15
 -0.17353946D-04  0.34362577D-02 -0.29159340D-15 -0.29900838D-04  0.34594658D-02
  0.19563550D-14  0.81962676D-04 -0.13768239D-01  0.14096190D-14  0.47133216D-15
  0.17906797D-05  0.26851681D-03  0.22257696D-15  0.97296827D-05  0.31669479D-03
 -0.16365734D-14 -0.15101722D-04 -0.11222452D-02 -0.14281859D-14 -0.88909860D-01
 -0.16572813D+00 -0.28094611D+00 -0.42539040D+00 -0.53183169D+00 -0.45747062D+00
 -0.17544983D+00 -0.12950102D-02 -0.17143510D-01 -0.62268349D-01 -0.18471789D+00
 -0.21285005D+00  0.25853809D+00  0.14872861D+00  0.67408174D-01  0.16735685D-02
 -0.28692500D-13 -0.28060638D-13 -0.18540850D-13 -0.37022409D-01 -0.36207107D-01
 -0.23923566D-01 -0.13199122D+00 -0.12908453D+00 -0.85291608D-01 -0.10986980D-13
 -0.34146821D-02 -0.27421082D-01  0.29779900D-14 -0.32059125D-02 -0.62956714D-02
  0.77263260D-16 -0.47422550D-04 -0.48807750D-04 -0.59846734D-02  0.73501379D-02
 -0.13654645D-02 -0.70741850D-14 -0.15473747D-14  0.13696226D-01 -0.29817099D-02
  0.41412227D-02 -0.11595128D-02 -0.22108980D-14 -0.11031472D-14  0.75114888D-02
  0.21367430D-03 -0.20770684D-03 -0.59674599D-05  0.22944390D-14  0.87982550D-15
 -0.89736097D-03  0.32842271D-14  0.16785269D-02 -0.21522502D-02 -0.11732141D-13
 -0.64261598D-02 -0.23897167D-02  0.18794596D-14  0.13905792D-02  0.88464674D-02
 -0.10915607D-13 -0.80385525D-15  0.29650762D-03 -0.22660094D-03  0.29032578D-14
 -0.86947130D-03 -0.10218162D-02 -0.49169201D-15 -0.20051551D-04  0.17016190D-02