 Entering Gaussian System, Link 0=/home/bruns/programas/chemistry/gaussian/g09/g09
 Input=GAUSSIAN.com
 Output=GAUSSIAN.log
 Initial command:
 /home/bruns/programas/chemistry/gaussian/g09/l1.exe /home/bruns/programas/chemistry/gaussian/work/Gau-21015.inp -scrdir=/home/bruns/programas/chemistry/gaussian/work/
 Entering Link 1 = /home/bruns/programas/chemistry/gaussian/g09/l1.exe PID=     21017.
  
 Copyright (c) 1988,1990,1992,1993,1995,1998,2003,2009,2010,
            Gaussian, Inc.  All Rights Reserved.
  
 This is part of the Gaussian(R) 09 program.  It is based on
 the Gaussian(R) 03 system (copyright 2003, Gaussian, Inc.),
 the Gaussian(R) 98 system (copyright 1998, Gaussian, Inc.),
 the Gaussian(R) 94 system (copyright 1995, Gaussian, Inc.),
 the Gaussian 92(TM) system (copyright 1992, Gaussian, Inc.),
 the Gaussian 90(TM) system (copyright 1990, Gaussian, Inc.),
 the Gaussian 88(TM) system (copyright 1988, Gaussian, Inc.),
 the Gaussian 86(TM) system (copyright 1986, Carnegie Mellon
 University), and the Gaussian 82(TM) system (copyright 1983,
 Carnegie Mellon University). Gaussian is a federally registered
 trademark of Gaussian, Inc.
  
 This software contains proprietary and confidential information,
 including trade secrets, belonging to Gaussian, Inc.
  
 This software is provided under written license and may be
 used, copied, transmitted, or stored only in accord with that
 written license.
  
 The following legend is applicable only to US Government
 contracts under FAR:
  
                    RESTRICTED RIGHTS LEGEND
  
 Use, reproduction and disclosure by the US Government is
 subject to restrictions as set forth in subparagraphs (a)
 and (c) of the Commercial Computer Software - Restricted
 Rights clause in FAR 52.227-19.
  
 Gaussian, Inc.
 340 Quinnipiac St., Bldg. 40, Wallingford CT 06492
  
  
 ---------------------------------------------------------------
 Warning -- This program may not be used in any manner that
 competes with the business of Gaussian, Inc. or will provide
 assistance to any competitor of Gaussian, Inc.  The licensee
 of this program is prohibited from giving any competitor of
 Gaussian, Inc. access to this program.  By using this program,
 the user acknowledges that Gaussian, Inc. is engaged in the
 business of creating and licensing software in the field of
 computational chemistry and represents and warrants to the
 licensee that it is not a competitor of Gaussian, Inc. and that
 it will not use this program in any manner prohibited above.
 ---------------------------------------------------------------
  

 Cite this work as:
 Gaussian 09, Revision B.01,
 M. J. Frisch, G. W. Trucks, H. B. Schlegel, G. E. Scuseria, 
 M. A. Robb, J. R. Cheeseman, G. Scalmani, V. Barone, B. Mennucci, 
 G. A. Petersson, H. Nakatsuji, M. Caricato, X. Li, H. P. Hratchian, 
 A. F. Izmaylov, J. Bloino, G. Zheng, J. L. Sonnenberg, M. Hada, 
 M. Ehara, K. Toyota, R. Fukuda, J. Hasegawa, M. Ishida, T. Nakajima, 
 Y. Honda, O. Kitao, H. Nakai, T. Vreven, J. A. Montgomery, Jr., 
 J. E. Peralta, F. Ogliaro, M. Bearpark, J. J. Heyd, E. Brothers, 
 K. N. Kudin, V. N. Staroverov, T. Keith, R. Kobayashi, J. Normand, 
 K. Raghavachari, A. Rendell, J. C. Burant, S. S. Iyengar, J. Tomasi, 
 M. Cossi, N. Rega, J. M. Millam, M. Klene, J. E. Knox, J. B. Cross, 
 V. Bakken, C. Adamo, J. Jaramillo, R. Gomperts, R. E. Stratmann, 
 O. Yazyev, A. J. Austin, R. Cammi, C. Pomelli, J. W. Ochterski, 
 R. L. Martin, K. Morokuma, V. G. Zakrzewski, G. A. Voth, 
 P. Salvador, J. J. Dannenberg, S. Dapprich, A. D. Daniels, 
 O. Farkas, J. B. Foresman, J. V. Ortiz, J. Cioslowski, 
 and D. J. Fox, Gaussian, Inc., Wallingford CT, 2010.
 
 ******************************************
 Gaussian 09:  EM64L-G09RevB.01 12-Aug-2010
                26-Nov-2021 
 ******************************************
 %nproc=8
 Will use up to    8 processors via shared memory.
 %mem=8GB
 -----------------------------------------------------
 # qcisd/aug-cc-pvtz nosymm density=current output=wfn
 -----------------------------------------------------
 1/30=1,38=1/1;
 2/12=2,15=1,17=6,18=5,40=1/2;
 3/5=16,6=1,7=10,11=9,16=1,25=1,30=1,71=1/1,2,3;
 4//1;
 5/5=2,38=5/2;
 8/6=4,9=120000,10=1/1,4;
 9/5=8,15=1/13;
 11/28=-7,31=1,32=3,42=3/11;
 10/5=6,13=10,31=1/2;
 6/7=2,8=2,9=2,10=2,22=-1,31=1/1;
 99/5=1,6=1100,9=1/99;
 -----------------
 f2co-wavefunction
 -----------------
 Symbolic Z-matrix:
 Charge =  0 Multiplicity = 1
 O                     0.        0.        0.67993 
 C                     0.        0.       -0.48222 
 F                     0.       -1.05888  -1.26431 
 F                     0.        1.05888  -1.26431 
 
                          Input orientation:                          
 ---------------------------------------------------------------------
 Center     Atomic      Atomic             Coordinates (Angstroms)
 Number     Number       Type             X           Y           Z
 ---------------------------------------------------------------------
      1          8           0        0.000000    0.000000    0.679927
      2          6           0        0.000000    0.000000   -0.482216
      3          9           0        0.000000   -1.058878   -1.264305
      4          9           0        0.000000    1.058878   -1.264305
 ---------------------------------------------------------------------
                    Distance matrix (angstroms):
                    1          2          3          4
     1  O    0.000000
     2  C    1.162143   0.000000
     3  F    2.213879   1.316391   0.000000
     4  F    2.213879   1.316391   2.117756   0.000000
 Symmetry turned off by external request.
 Stoichiometry    CF2O
 Framework group  C2V[C2(CO),SGV(F2)]
 Deg. of freedom     3
 Full point group                 C2V     NOp   4
 Rotational constants (GHZ):     11.8625553     11.7620412      5.9060422
 Standard basis: Aug-CC-pVTZ (5D, 7F)
 Integral buffers will be    131072 words long.
 Raffenetti 1 integral format.
 Two-electron integral symmetry is turned off.
   184 basis functions,   288 primitive gaussians,   220 cartesian basis functions
    16 alpha electrons       16 beta electrons
       nuclear repulsion energy       119.9315167445 Hartrees.
 NAtoms=    4 NActive=    4 NUniq=    4 SFac= 1.00D+00 NAtFMM=   50 NAOKFM=F Big=F
 One-electron integrals computed using PRISM.
 NBasis=   184 RedAO= T  NBF=   184
 NBsUse=   184 1.00D-06 NBFU=   184
 Harris functional with IExCor=  205 diagonalized for initial guess.
 ExpMin= 3.57D-02 ExpMax= 1.95D+04 ExpMxC= 6.65D+02 IAcc=3 IRadAn=         0 AccDes= 0.00D+00
 HarFok:  IExCor=  205 AccDes= 0.00D+00 IRadAn=         0 IDoV= 1
 ScaDFX=  1.000000  1.000000  1.000000  1.000000
 FoFCou: FMM=F IPFlag=           0 FMFlag=      100000 FMFlg1=           0
         NFxFlg=           0 DoJE=T BraDBF=F KetDBF=T FulRan=T
         Omega=  0.000000  0.000000  1.000000  0.000000  0.000000 ICntrl=     500 IOpCl=  0
         NMat0=    1 NMatS0=    1 NMatT0=    0 NMatD0=    1 NMtDS0=    0 NMtDT0=    0
         I1Cent=           4 NGrid=           0.
 Symmetry not used in FoFCou.
 Requested convergence on RMS density matrix=1.00D-08 within 128 cycles.
 Requested convergence on MAX density matrix=1.00D-06.
 Requested convergence on             energy=1.00D-06.
 No special actions if energy rises.
 Keep R1 ints in memory in canonical form, NReq=301063473.
 SCF Done:  E(RHF) =  -311.741263835     A.U. after   11 cycles
             Convg  =    0.8419D-08             -V/T =  2.0014
 ExpMin= 3.57D-02 ExpMax= 1.95D+04 ExpMxC= 6.65D+02 IAcc=3 IRadAn=         5 AccDes= 0.00D+00
 HarFok:  IExCor=  205 AccDes= 0.00D+00 IRadAn=         5 IDoV=-2
 ScaDFX=  1.000000  1.000000  1.000000  1.000000
 DSYEVD returned Info=          93 IAlg= 4 N=    46 NDim=    46 NE2=    23339802 trying DSYEV.
 Range of M.O.s used for correlation:     5   184
 NBasis=   184 NAE=    16 NBE=    16 NFC=     4 NFV=     0
 NROrb=    180 NOA=    12 NOB=    12 NVA=   168 NVB=   168

 **** Warning!!: The largest alpha MO coefficient is  0.15546860D+02

 Semi-Direct transformation.
 ModeAB=           2 MOrb=            12 LenV=    1072785587
 LASXX=     33405819 LTotXX=    33405819 LenRXX=    33405819
 LTotAB=    33954012 MaxLAS=    52509600 LenRXY=    52509600
 NonZer=    66811638 LenScr=   100987392 LnRSAI=           0
 LnScr1=           0 LExtra=           0 Total=    186902811
 MaxDsk=          -1 SrtSym=           F ITran=            4
 JobTyp=0 Pass  1:  I=   1 to  12.
 (rs|ai) integrals will be sorted in core.
 Spin components of T(2) and E(2):
     alpha-alpha T2 =       0.2652281379D-01 E2=     -0.1190498925D+00
     alpha-beta  T2 =       0.1368844843D+00 E2=     -0.6574825024D+00
     beta-beta   T2 =       0.2652281379D-01 E2=     -0.1190498925D+00
 ANorm=    0.1090839178D+01
 E2 =    -0.8955822875D+00 EUMP2 =    -0.31263684612214D+03
 R2 and R3 integrals will be kept in memory, NReq=   596397230.
 Iterations=  50 Convergence= 0.100D-07
 Iteration Nr.   1
 **********************
 DD1Dir will call FoFMem   1 times, MxPair=       156
 NAB=    78 NAA=     0 NBB=     0.
 MP4(R+Q)=  0.16021074D-01
 E3=        0.12350090D-01        EUMP3=      -0.31262449603D+03
 E4(DQ)=    0.47639408D-03        UMP4(DQ)=   -0.31262401964D+03
 E4(SDQ)=  -0.11068689D-01        UMP4(SDQ)=  -0.31263556472D+03
 DE(Corr)= -0.86721112     E(Corr)=     -312.60847496    
 NORM(A)=   0.10857713D+01
 Iteration Nr.   2
 **********************
 DD1Dir will call FoFMem   1 times, MxPair=       156
 NAB=    78 NAA=     0 NBB=     0.
 DE(Corr)= -0.89295863     E(CORR)=     -312.63422247     Delta=-2.57D-02
 NORM(A)=   0.10930269D+01
 Iteration Nr.   3
 **********************
 DD1Dir will call FoFMem   1 times, MxPair=       156
 NAB=    78 NAA=     0 NBB=     0.
 DE(Corr)= -0.89122921     E(CORR)=     -312.63249304     Delta= 1.73D-03
 NORM(A)=   0.10952293D+01
 Iteration Nr.   4
 **********************
 DD1Dir will call FoFMem   1 times, MxPair=       156
 NAB=    78 NAA=     0 NBB=     0.
 DE(Corr)= -0.89351273     E(CORR)=     -312.63477657     Delta=-2.28D-03
 NORM(A)=   0.10960202D+01
 Iteration Nr.   5
 **********************
 DD1Dir will call FoFMem   1 times, MxPair=       156
 NAB=    78 NAA=     0 NBB=     0.
 DE(Corr)= -0.89377508     E(CORR)=     -312.63503891     Delta=-2.62D-04
 NORM(A)=   0.10961997D+01
 Iteration Nr.   6
 **********************
 DD1Dir will call FoFMem   1 times, MxPair=       156
 NAB=    78 NAA=     0 NBB=     0.
 DE(Corr)= -0.89380153     E(CORR)=     -312.63506536     Delta=-2.65D-05
 NORM(A)=   0.10962132D+01
 Iteration Nr.   7
 **********************
 DD1Dir will call FoFMem   1 times, MxPair=       156
 NAB=    78 NAA=     0 NBB=     0.
 DE(Corr)= -0.89380323     E(CORR)=     -312.63506707     Delta=-1.71D-06
 NORM(A)=   0.10962129D+01
 Iteration Nr.   8
 **********************
 DD1Dir will call FoFMem   1 times, MxPair=       156
 NAB=    78 NAA=     0 NBB=     0.
 DE(Corr)= -0.89380226     E(CORR)=     -312.63506609     Delta= 9.74D-07
 NORM(A)=   0.10962134D+01
 Iteration Nr.   9
 **********************
 DD1Dir will call FoFMem   1 times, MxPair=       156
 NAB=    78 NAA=     0 NBB=     0.
 DE(Corr)= -0.89380262     E(CORR)=     -312.63506645     Delta=-3.57D-07
 NORM(A)=   0.10962133D+01
 Iteration Nr.  10
 **********************
 DD1Dir will call FoFMem   1 times, MxPair=       156
 NAB=    78 NAA=     0 NBB=     0.
 DE(Corr)= -0.89380253     E(CORR)=     -312.63506637     Delta= 8.34D-08
 NORM(A)=   0.10962135D+01
 Iteration Nr.  11
 **********************
 DD1Dir will call FoFMem   1 times, MxPair=       156
 NAB=    78 NAA=     0 NBB=     0.
 DE(Corr)= -0.89380305     E(CORR)=     -312.63506689     Delta=-5.22D-07
 NORM(A)=   0.10962139D+01
 Iteration Nr.  12
 **********************
 DD1Dir will call FoFMem   1 times, MxPair=       156
 NAB=    78 NAA=     0 NBB=     0.
 DE(Corr)= -0.89380311     E(CORR)=     -312.63506695     Delta=-5.68D-08
 NORM(A)=   0.10962141D+01
 Iteration Nr.  13
 **********************
 DD1Dir will call FoFMem   1 times, MxPair=       156
 NAB=    78 NAA=     0 NBB=     0.
 DE(Corr)= -0.89380323     E(CORR)=     -312.63506706     Delta=-1.15D-07
 NORM(A)=   0.10962142D+01
 Iteration Nr.  14
 **********************
 DD1Dir will call FoFMem   1 times, MxPair=       156
 NAB=    78 NAA=     0 NBB=     0.
 DE(Corr)= -0.89380324     E(CORR)=     -312.63506708     Delta=-1.88D-08
 NORM(A)=   0.10962143D+01
 Iteration Nr.  15
 **********************
 DD1Dir will call FoFMem   1 times, MxPair=       156
 NAB=    78 NAA=     0 NBB=     0.
 DE(Corr)= -0.89380326     E(CORR)=     -312.63506709     Delta=-1.23D-08
 NORM(A)=   0.10962143D+01
 Iteration Nr.  16
 **********************
 DD1Dir will call FoFMem   1 times, MxPair=       156
 NAB=    78 NAA=     0 NBB=     0.
 DE(Corr)= -0.89380326     E(CORR)=     -312.63506710     Delta=-3.84D-09
 NORM(A)=   0.10962143D+01
 Largest amplitude= 5.48D-02

 Z-AMPLITUDE ITERATIONS

 Iteration Nr.   1
 **********************
 DD1Dir will call FoFMem   1 times, MxPair=       156
 NAB=    78 NAA=     0 NBB=     0.
 DE(Z)  -0.87455741D+00          E(Z)=    -0.31261582124D+03
 NORM(A)=   0.10962061D+01
 Iteration Nr.   2
 **********************
 DD1Dir will call FoFMem   1 times, MxPair=       156
 NAB=    78 NAA=     0 NBB=     0.
 DE(Z)  -0.87455736D+00          E(Z)=    -0.31261582120D+03
 NORM(A)=   0.10962253D+01
 Iteration Nr.   3
 **********************
 DD1Dir will call FoFMem   1 times, MxPair=       156
 NAB=    78 NAA=     0 NBB=     0.
 DE(Z)  -0.87455755D+00          E(Z)=    -0.31261582139D+03
 NORM(A)=   0.10962025D+01
 Iteration Nr.   4
 **********************
 DD1Dir will call FoFMem   1 times, MxPair=       156
 NAB=    78 NAA=     0 NBB=     0.
 DE(Z)  -0.87455729D+00          E(Z)=    -0.31261582113D+03
 NORM(A)=   0.10962057D+01
 Iteration Nr.   5
 **********************
 DD1Dir will call FoFMem   1 times, MxPair=       156
 NAB=    78 NAA=     0 NBB=     0.
 DE(Z)  -0.87455727D+00          E(Z)=    -0.31261582111D+03
 NORM(A)=   0.10918046D+01
 Iteration Nr.   6
 **********************
 DD1Dir will call FoFMem   1 times, MxPair=       156
 NAB=    78 NAA=     0 NBB=     0.
 DE(Z)  -0.87449503D+00          E(Z)=    -0.31261575886D+03
 NORM(A)=   0.10918040D+01
 Iteration Nr.   7
 **********************
 DD1Dir will call FoFMem   1 times, MxPair=       156
 NAB=    78 NAA=     0 NBB=     0.
 DE(Z)  -0.87449403D+00          E(Z)=    -0.31261575786D+03
 NORM(A)=   0.10918041D+01
 Iteration Nr.   8
 **********************
 DD1Dir will call FoFMem   1 times, MxPair=       156
 NAB=    78 NAA=     0 NBB=     0.
 DE(Z)  -0.87449417D+00          E(Z)=    -0.31261575800D+03
 NORM(A)=   0.10918042D+01
 Iteration Nr.   9
 **********************
 DD1Dir will call FoFMem   1 times, MxPair=       156
 NAB=    78 NAA=     0 NBB=     0.
 DE(Z)  -0.87449400D+00          E(Z)=    -0.31261575783D+03
 NORM(A)=   0.10918044D+01
 Iteration Nr.  10
 **********************
 DD1Dir will call FoFMem   1 times, MxPair=       156
 NAB=    78 NAA=     0 NBB=     0.
 DE(Z)  -0.87449410D+00          E(Z)=    -0.31261575793D+03
 NORM(A)=   0.10918044D+01
 Iteration Nr.  11
 **********************
 DD1Dir will call FoFMem   1 times, MxPair=       156
 NAB=    78 NAA=     0 NBB=     0.
 DE(Z)  -0.87449408D+00          E(Z)=    -0.31261575792D+03
 NORM(A)=   0.10918044D+01
 Iteration Nr.  12
 **********************
 DD1Dir will call FoFMem   1 times, MxPair=       156
 NAB=    78 NAA=     0 NBB=     0.
 DE(Z)  -0.87449409D+00          E(Z)=    -0.31261575792D+03
 NORM(A)=   0.10918044D+01
 Iteration Nr.  13
 **********************
 DD1Dir will call FoFMem   1 times, MxPair=       156
 NAB=    78 NAA=     0 NBB=     0.
 DE(Z)  -0.87449409D+00          E(Z)=    -0.31261575792D+03
 NORM(A)=   0.10918044D+01
 Discarding MO integrals.
          Differentiating once with respect to electric field.
                with respect to dipole field.
          Electric field/nuclear overlap derivatives assumed to be zero.
          Keep R1 ints in memory in canonical form, NReq=297441306.
          There are     1 degrees of freedom in the 1st order CPHF.  IDoFFX=0.
 LinEq1:  Iter=  0 NonCon=     1 RMS=3.06D-03 Max=8.36D-02
 AX will form     1 AO Fock derivatives at one time.
 LinEq1:  Iter=  1 NonCon=     1 RMS=7.54D-04 Max=1.11D-02
 LinEq1:  Iter=  2 NonCon=     1 RMS=2.23D-04 Max=3.32D-03
 LinEq1:  Iter=  3 NonCon=     1 RMS=9.82D-05 Max=1.63D-03
 LinEq1:  Iter=  4 NonCon=     1 RMS=2.24D-05 Max=3.85D-04
 LinEq1:  Iter=  5 NonCon=     1 RMS=1.10D-05 Max=3.32D-04
 LinEq1:  Iter=  6 NonCon=     1 RMS=3.00D-06 Max=5.50D-05
 LinEq1:  Iter=  7 NonCon=     1 RMS=5.97D-07 Max=8.94D-06
 LinEq1:  Iter=  8 NonCon=     1 RMS=9.58D-08 Max=1.10D-06
 LinEq1:  Iter=  9 NonCon=     1 RMS=1.30D-08 Max=1.77D-07
 LinEq1:  Iter= 10 NonCon=     1 RMS=1.78D-09 Max=2.10D-08
 LinEq1:  Iter= 11 NonCon=     1 RMS=3.66D-10 Max=5.10D-09
 LinEq1:  Iter= 12 NonCon=     0 RMS=5.15D-11 Max=4.78D-10
 Linear equations converged to 1.000D-10 1.000D-09 after    12 iterations.
 End of Minotr Frequency-dependent properties file   721 does not exist.
 End of Minotr Frequency-dependent properties file   722 does not exist.

 **********************************************************************

            Population analysis using the QCI/CC density.

 **********************************************************************

     Natural Orbital Coefficients:
                           1         2         3         4         5
     Eigenvalues --     2.00001   2.00000   2.00000   2.00000   1.98616
   1 1   O  1S         -0.62064  -0.72917   0.00000   0.20567  -0.02009
   2        2S          0.01140   0.01277   0.00000  -0.00393   0.04829
   3        3S         -0.02635  -0.03134   0.00000   0.00891   0.01345
   4        4S          0.00194   0.00256   0.00000  -0.00166   0.00069
   5        5S         -0.00052   0.00080   0.00000  -0.00174  -0.01852
   6        6PX         0.00000   0.00000   0.00000   0.00000   0.00000
   7        6PY         0.00000   0.00000  -0.00018   0.00000   0.00000
   8        6PZ         0.00408   0.00181   0.00000   0.00011  -0.01457
   9        7PX         0.00000   0.00000   0.00000   0.00000   0.00000
  10        7PY         0.00000   0.00000  -0.00011   0.00000   0.00000
  11        7PZ         0.00278  -0.00188   0.00000   0.00166  -0.01423
  12        8PX         0.00000   0.00000   0.00000   0.00000   0.00000
  13        8PY         0.00000   0.00000   0.00047   0.00000   0.00000
  14        8PZ         0.00324  -0.00066   0.00000   0.00054   0.01006
  15        9PX         0.00000   0.00000   0.00000   0.00000   0.00000
  16        9PY         0.00000   0.00000   0.00035   0.00000   0.00000
  17        9PZ         0.00035   0.00005   0.00000   0.00046   0.00539
  18       10D 0       -0.00026  -0.00013   0.00000  -0.00001   0.00120
  19       10D+1        0.00000   0.00000   0.00000   0.00000   0.00000
  20       10D-1        0.00000   0.00000   0.00001   0.00000   0.00000
  21       10D+2        0.00005   0.00005   0.00000   0.00001   0.00002
  22       10D-2        0.00000   0.00000   0.00000   0.00000   0.00000
  23       11D 0       -0.00003   0.00088   0.00000  -0.00044  -0.00015
  24       11D+1        0.00000   0.00000   0.00000   0.00000   0.00000
  25       11D-1        0.00000   0.00000  -0.00005   0.00000   0.00000
  26       11D+2        0.00005   0.00001   0.00000  -0.00018  -0.00086
  27       11D-2        0.00000   0.00000   0.00000   0.00000   0.00000
  28       12D 0       -0.00044   0.00023   0.00000  -0.00009  -0.00587
  29       12D+1        0.00000   0.00000   0.00000   0.00000   0.00000
  30       12D-1        0.00000   0.00000  -0.00013   0.00000   0.00000
  31       12D+2        0.00028  -0.00028   0.00000  -0.00018  -0.00211
  32       12D-2        0.00000   0.00000   0.00000   0.00000   0.00000
  33       13F 0       -0.00019   0.00010   0.00000  -0.00011  -0.00051
  34       13F+1        0.00000   0.00000   0.00000   0.00000   0.00000
  35       13F-1        0.00000   0.00000  -0.00001   0.00000   0.00000
  36       13F+2        0.00003   0.00002   0.00000   0.00002   0.00018
  37       13F-2        0.00000   0.00000   0.00000   0.00000   0.00000
  38       13F+3        0.00000   0.00000   0.00000   0.00000   0.00000
  39       13F-3        0.00000   0.00000   0.00002   0.00000   0.00000
  40       14F 0        0.00004  -0.00022   0.00000   0.00026   0.00163
  41       14F+1        0.00000   0.00000   0.00000   0.00000   0.00000
  42       14F-1        0.00000   0.00000   0.00007   0.00000   0.00000
  43       14F+2        0.00000   0.00002   0.00000   0.00017   0.00092
  44       14F-2        0.00000   0.00000   0.00000   0.00000   0.00000
  45       14F+3        0.00000   0.00000   0.00000   0.00000   0.00000
  46       14F-3        0.00000   0.00000  -0.00007   0.00000   0.00000
  47 2   C  1S          0.72517  -0.49261   0.00000   0.44012  -0.05129
  48        2S         -0.00927   0.00491   0.00000  -0.00403   0.10844
  49        3S          0.02959  -0.02082   0.00000   0.01782   0.02357
  50        4S         -0.00019   0.00080   0.00000  -0.00001   0.01423
  51        5S          0.00023  -0.00006   0.00000   0.00034   0.00311
  52        6PX         0.00000   0.00000   0.00000   0.00000   0.00000
  53        6PY         0.00000   0.00000  -0.00002   0.00000   0.00000
  54        6PZ        -0.00189   0.00112   0.00000  -0.00106  -0.01490
  55        7PX         0.00000   0.00000   0.00000   0.00000   0.00000
  56        7PY         0.00000   0.00000  -0.00084   0.00000   0.00000
  57        7PZ         0.00123  -0.00457   0.00000   0.00148  -0.01097
  58        8PX         0.00000   0.00000   0.00000   0.00000   0.00000
  59        8PY         0.00000   0.00000   0.00054   0.00000   0.00000
  60        8PZ         0.00078  -0.00015   0.00000   0.00202   0.01398
  61        9PX         0.00000   0.00000   0.00000   0.00000   0.00000
  62        9PY         0.00000   0.00000  -0.00028   0.00000   0.00000
  63        9PZ         0.00004  -0.00037   0.00000  -0.00006  -0.00012
  64       10D 0        0.00031  -0.00049   0.00000   0.00038   0.00538
  65       10D+1        0.00000   0.00000   0.00000   0.00000   0.00000
  66       10D-1        0.00000   0.00000   0.00017   0.00000   0.00000
  67       10D+2       -0.00040   0.00019   0.00000  -0.00040  -0.00833
  68       10D-2        0.00000   0.00000   0.00000   0.00000   0.00000
  69       11D 0       -0.00038  -0.00095   0.00000   0.00058   0.00687
  70       11D+1        0.00000   0.00000   0.00000   0.00000   0.00000
  71       11D-1        0.00000   0.00000   0.00094   0.00000   0.00000
  72       11D+2        0.00089  -0.00125   0.00000   0.00021  -0.00939
  73       11D-2        0.00000   0.00000   0.00000   0.00000   0.00000
  74       12D 0        0.00009   0.00062   0.00000   0.00029  -0.00011
  75       12D+1        0.00000   0.00000   0.00000   0.00000   0.00000
  76       12D-1        0.00000   0.00000  -0.00056   0.00000   0.00000
  77       12D+2        0.00004   0.00022   0.00000   0.00033   0.00329
  78       12D-2        0.00000   0.00000   0.00000   0.00000   0.00000
  79       13F 0        0.00073  -0.00027   0.00000   0.00059   0.00427
  80       13F+1        0.00000   0.00000   0.00000   0.00000   0.00000
  81       13F-1        0.00000   0.00000  -0.00023   0.00000   0.00000
  82       13F+2        0.00032   0.00011   0.00000   0.00059   0.00556
  83       13F-2        0.00000   0.00000   0.00000   0.00000   0.00000
  84       13F+3        0.00000   0.00000   0.00000   0.00000   0.00000
  85       13F-3        0.00000   0.00000   0.00021   0.00000   0.00000
  86       14F 0       -0.00115   0.00044   0.00000   0.00055   0.00322
  87       14F+1        0.00000   0.00000   0.00000   0.00000   0.00000
  88       14F-1        0.00000   0.00000  -0.00089   0.00000   0.00000
  89       14F+2       -0.00097   0.00084   0.00000   0.00026   0.00483
  90       14F-2        0.00000   0.00000   0.00000   0.00000   0.00000
  91       14F+3        0.00000   0.00000   0.00000   0.00000   0.00000
  92       14F-3        0.00000   0.00000  -0.00006   0.00000   0.00000
  93 3   F  1S         -0.15855   0.30457   0.69212   0.60090  -0.14600
  94        2S          0.00337  -0.00548  -0.01113  -0.00905   0.37252
  95        3S         -0.00644   0.01291   0.02982   0.02614   0.11363
  96        4S          0.00270  -0.00287  -0.00054   0.00095   0.23226
  97        5S          0.00024  -0.00025   0.00071   0.00071   0.01414
  98        6PX         0.00000   0.00000   0.00000   0.00000   0.00000
  99        6PY        -0.00109   0.00127   0.00142   0.00091  -0.00535
 100        6PZ        -0.00090   0.00078   0.00111   0.00059  -0.01972
 101        7PX         0.00000   0.00000   0.00000   0.00000   0.00000
 102        7PY        -0.00098   0.00059  -0.00015  -0.00041  -0.00254
 103        7PZ        -0.00091   0.00019   0.00012  -0.00048  -0.02169
 104        8PX         0.00000   0.00000   0.00000   0.00000   0.00000
 105        8PY        -0.00052   0.00028   0.00087   0.00114  -0.01141
 106        8PZ        -0.00027  -0.00008   0.00147   0.00062  -0.02281
 107        9PX         0.00000   0.00000   0.00000   0.00000   0.00000
 108        9PY        -0.00007  -0.00003   0.00039   0.00010  -0.00083
 109        9PZ        -0.00004   0.00038   0.00008   0.00025  -0.00101
 110       10D 0        0.00000  -0.00001   0.00000   0.00001  -0.00011
 111       10D+1        0.00000   0.00000   0.00000   0.00000   0.00000
 112       10D-1        0.00003  -0.00002   0.00001   0.00004   0.00065
 113       10D+2        0.00001  -0.00001  -0.00001  -0.00002  -0.00063
 114       10D-2        0.00000   0.00000   0.00000   0.00000   0.00000
 115       11D 0       -0.00007   0.00004   0.00007  -0.00006  -0.00088
 116       11D+1        0.00000   0.00000   0.00000   0.00000   0.00000
 117       11D-1       -0.00036   0.00001  -0.00024  -0.00044   0.00347
 118       11D+2        0.00009   0.00003   0.00018   0.00019  -0.00322
 119       11D-2        0.00000   0.00000   0.00000   0.00000   0.00000
 120       12D 0       -0.00009   0.00000   0.00024   0.00005  -0.00001
 121       12D+1        0.00000   0.00000   0.00000   0.00000   0.00000
 122       12D-1        0.00000  -0.00001   0.00040   0.00020  -0.00258
 123       12D+2        0.00018  -0.00009  -0.00022  -0.00024   0.00129
 124       12D-2        0.00000   0.00000   0.00000   0.00000   0.00000
 125       13F 0        0.00000  -0.00002   0.00000  -0.00001  -0.00033
 126       13F+1        0.00000   0.00000   0.00000   0.00000   0.00000
 127       13F-1       -0.00001  -0.00003   0.00000  -0.00002   0.00009
 128       13F+2        0.00001   0.00003   0.00002   0.00003  -0.00044
 129       13F-2        0.00000   0.00000   0.00000   0.00000   0.00000
 130       13F+3        0.00000   0.00000   0.00000   0.00000   0.00000
 131       13F-3        0.00001   0.00000   0.00006   0.00001  -0.00039
 132       14F 0        0.00014   0.00000   0.00003   0.00013  -0.00034
 133       14F+1        0.00000   0.00000   0.00000   0.00000   0.00000
 134       14F-1       -0.00020   0.00017   0.00003  -0.00012   0.00002
 135       14F+2        0.00026  -0.00021   0.00000   0.00014  -0.00101
 136       14F-2        0.00000   0.00000   0.00000   0.00000   0.00000
 137       14F+3        0.00000   0.00000   0.00000   0.00000   0.00000
 138       14F-3        0.00004  -0.00004  -0.00012   0.00003  -0.00049
 139 4   F  1S         -0.15855   0.30457  -0.69212   0.60090  -0.14600
 140        2S          0.00337  -0.00548   0.01113  -0.00905   0.37252
 141        3S         -0.00644   0.01291  -0.02982   0.02614   0.11363
 142        4S          0.00270  -0.00287   0.00054   0.00095   0.23226
 143        5S          0.00024  -0.00025  -0.00071   0.00071   0.01414
 144        6PX         0.00000   0.00000   0.00000   0.00000   0.00000
 145        6PY         0.00109  -0.00127   0.00142  -0.00091   0.00535
 146        6PZ        -0.00090   0.00078  -0.00111   0.00059  -0.01972
 147        7PX         0.00000   0.00000   0.00000   0.00000   0.00000
 148        7PY         0.00098  -0.00059  -0.00015   0.00041   0.00254
 149        7PZ        -0.00091   0.00019  -0.00012  -0.00048  -0.02169
 150        8PX         0.00000   0.00000   0.00000   0.00000   0.00000
 151        8PY         0.00052  -0.00028   0.00087  -0.00114   0.01141
 152        8PZ        -0.00027  -0.00008  -0.00147   0.00062  -0.02281
 153        9PX         0.00000   0.00000   0.00000   0.00000   0.00000
 154        9PY         0.00007   0.00003   0.00039  -0.00010   0.00083
 155        9PZ        -0.00004   0.00038  -0.00008   0.00025  -0.00101
 156       10D 0        0.00000  -0.00001   0.00000   0.00001  -0.00011
 157       10D+1        0.00000   0.00000   0.00000   0.00000   0.00000
 158       10D-1       -0.00003   0.00002   0.00001  -0.00004  -0.00065
 159       10D+2        0.00001  -0.00001   0.00001  -0.00002  -0.00063
 160       10D-2        0.00000   0.00000   0.00000   0.00000   0.00000
 161       11D 0       -0.00007   0.00004  -0.00007  -0.00006  -0.00088
 162       11D+1        0.00000   0.00000   0.00000   0.00000   0.00000
 163       11D-1        0.00036  -0.00001  -0.00024   0.00044  -0.00347
 164       11D+2        0.00009   0.00003  -0.00018   0.00019  -0.00322
 165       11D-2        0.00000   0.00000   0.00000   0.00000   0.00000
 166       12D 0       -0.00009   0.00000  -0.00024   0.00005  -0.00001
 167       12D+1        0.00000   0.00000   0.00000   0.00000   0.00000
 168       12D-1        0.00000   0.00001   0.00040  -0.00020   0.00258
 169       12D+2        0.00018  -0.00009   0.00022  -0.00024   0.00129
 170       12D-2        0.00000   0.00000   0.00000   0.00000   0.00000
 171       13F 0        0.00000  -0.00002   0.00000  -0.00001  -0.00033
 172       13F+1        0.00000   0.00000   0.00000   0.00000   0.00000
 173       13F-1        0.00001   0.00003   0.00000   0.00002  -0.00009
 174       13F+2        0.00001   0.00003  -0.00002   0.00003  -0.00044
 175       13F-2        0.00000   0.00000   0.00000   0.00000   0.00000
 176       13F+3        0.00000   0.00000   0.00000   0.00000   0.00000
 177       13F-3       -0.00001   0.00000   0.00006  -0.00001   0.00039
 178       14F 0        0.00014   0.00000  -0.00003   0.00013  -0.00034
 179       14F+1        0.00000   0.00000   0.00000   0.00000   0.00000
 180       14F-1        0.00020  -0.00017   0.00003   0.00012  -0.00002
 181       14F+2        0.00026  -0.00021   0.00000   0.00014  -0.00101
 182       14F-2        0.00000   0.00000   0.00000   0.00000   0.00000
 183       14F+3        0.00000   0.00000   0.00000   0.00000   0.00000
 184       14F-3       -0.00004   0.00004  -0.00012  -0.00003   0.00049
                           6         7         8         9        10
     Eigenvalues --     1.98558   1.98151   1.97343   1.97129   1.96824
   1 1   O  1S          0.00000  -0.19123  -0.03733   0.00000   0.00000
   2        2S          0.00000   0.49133   0.10359   0.00000   0.00000
   3        3S          0.00000   0.13777   0.03076   0.00000   0.00000
   4        4S          0.00000   0.30392   0.08895   0.00000   0.00000
   5        5S          0.00000   0.03450  -0.00691   0.00000   0.00000
   6        6PX         0.00000   0.00000   0.00000   0.00000  -0.00582
   7        6PY         0.02096   0.00000   0.00000  -0.05118   0.00000
   8        6PZ         0.00000  -0.00180   0.02578   0.00000   0.00000
   9        7PX         0.00000   0.00000   0.00000   0.00000  -0.00814
  10        7PY         0.02614   0.00000   0.00000  -0.06948   0.00000
  11        7PZ         0.00000  -0.00737   0.02638   0.00000   0.00000
  12        8PX         0.00000   0.00000   0.00000   0.00000  -0.01767
  13        8PY         0.01650   0.00000   0.00000  -0.06772   0.00000
  14        8PZ         0.00000   0.04911   0.00541   0.00000   0.00000
  15        9PX         0.00000   0.00000   0.00000   0.00000  -0.00940
  16        9PY        -0.00178   0.00000   0.00000   0.00662   0.00000
  17        9PZ         0.00000   0.00284   0.00463   0.00000   0.00000
  18       10D 0        0.00000   0.00493  -0.00112   0.00000   0.00000
  19       10D+1        0.00000   0.00000   0.00000   0.00000  -0.00202
  20       10D-1       -0.00076   0.00000   0.00000   0.00326   0.00000
  21       10D+2        0.00000  -0.00002   0.00049   0.00000   0.00000
  22       10D-2        0.00000   0.00000   0.00000   0.00000   0.00000
  23       11D 0        0.00000   0.01192  -0.00048   0.00000   0.00000
  24       11D+1        0.00000   0.00000   0.00000   0.00000  -0.00233
  25       11D-1       -0.00196   0.00000   0.00000   0.01398   0.00000
  26       11D+2        0.00000   0.00006   0.00080   0.00000   0.00000
  27       11D-2        0.00000   0.00000   0.00000   0.00000   0.00000
  28       12D 0        0.00000  -0.01348   0.00739   0.00000   0.00000
  29       12D+1        0.00000   0.00000   0.00000   0.00000   0.00046
  30       12D-1       -0.00050   0.00000   0.00000   0.01387   0.00000
  31       12D+2        0.00000   0.00049   0.00079   0.00000   0.00000
  32       12D-2        0.00000   0.00000   0.00000   0.00000   0.00000
  33       13F 0        0.00000  -0.00281   0.00065   0.00000   0.00000
  34       13F+1        0.00000   0.00000   0.00000   0.00000   0.00130
  35       13F-1        0.00078   0.00000   0.00000  -0.00265   0.00000
  36       13F+2        0.00000   0.00023  -0.00018   0.00000   0.00000
  37       13F-2        0.00000   0.00000   0.00000   0.00000   0.00000
  38       13F+3        0.00000   0.00000   0.00000   0.00000  -0.00021
  39       13F-3        0.00000   0.00000   0.00000  -0.00007   0.00000
  40       14F 0        0.00000  -0.00051  -0.00039   0.00000   0.00000
  41       14F+1        0.00000   0.00000   0.00000   0.00000  -0.00182
  42       14F-1        0.00010   0.00000   0.00000  -0.00245   0.00000
  43       14F+2        0.00000  -0.00053   0.00095   0.00000   0.00000
  44       14F-2        0.00000   0.00000   0.00000   0.00000   0.00000
  45       14F+3        0.00000   0.00000   0.00000   0.00000   0.00117
  46       14F-3        0.00034   0.00000   0.00000  -0.00054   0.00000
  47 2   C  1S          0.00000  -0.06981  -0.01068   0.00000   0.00000
  48        2S          0.00000   0.16171   0.02465   0.00000   0.00000
  49        3S          0.00000   0.03916   0.00658   0.00000   0.00000
  50        4S          0.00000   0.02705  -0.01804   0.00000   0.00000
  51        5S          0.00000  -0.00252  -0.00057   0.00000   0.00000
  52        6PX         0.00000   0.00000   0.00000   0.00000   0.10370
  53        6PY         0.03691   0.00000   0.00000  -0.07702   0.00000
  54        6PZ         0.00000   0.08270  -0.05071   0.00000   0.00000
  55        7PX         0.00000   0.00000   0.00000   0.00000   0.13112
  56        7PY         0.03118   0.00000   0.00000  -0.09664   0.00000
  57        7PZ         0.00000   0.05804  -0.08014   0.00000   0.00000
  58        8PX         0.00000   0.00000   0.00000   0.00000   0.01808
  59        8PY        -0.01901   0.00000   0.00000   0.07277   0.00000
  60        8PZ         0.00000  -0.03257   0.02504   0.00000   0.00000
  61        9PX         0.00000   0.00000   0.00000   0.00000   0.00211
  62        9PY         0.00165   0.00000   0.00000  -0.00455   0.00000
  63        9PZ         0.00000  -0.00012   0.00221   0.00000   0.00000
  64       10D 0        0.00000   0.01292   0.01975   0.00000   0.00000
  65       10D+1        0.00000   0.00000   0.00000   0.00000  -0.01436
  66       10D-1       -0.00881   0.00000   0.00000  -0.00991   0.00000
  67       10D+2        0.00000  -0.00242   0.01023   0.00000   0.00000
  68       10D-2        0.00000   0.00000   0.00000   0.00000   0.00000
  69       11D 0        0.00000   0.00210   0.03794   0.00000   0.00000
  70       11D+1        0.00000   0.00000   0.00000   0.00000  -0.02417
  71       11D-1       -0.01060   0.00000   0.00000   0.00803   0.00000
  72       11D+2        0.00000  -0.00727   0.02203   0.00000   0.00000
  73       11D-2        0.00000   0.00000   0.00000   0.00000   0.00000
  74       12D 0        0.00000  -0.01279  -0.00429   0.00000   0.00000
  75       12D+1        0.00000   0.00000   0.00000   0.00000   0.00045
  76       12D-1        0.00999   0.00000   0.00000  -0.01254   0.00000
  77       12D+2        0.00000  -0.00317   0.00111   0.00000   0.00000
  78       12D-2        0.00000   0.00000   0.00000   0.00000   0.00000
  79       13F 0        0.00000   0.00639  -0.00598   0.00000   0.00000
  80       13F+1        0.00000   0.00000   0.00000   0.00000   0.00463
  81       13F-1        0.00202   0.00000   0.00000   0.01094   0.00000
  82       13F+2        0.00000   0.00268   0.00006   0.00000   0.00000
  83       13F-2        0.00000   0.00000   0.00000   0.00000   0.00000
  84       13F+3        0.00000   0.00000   0.00000   0.00000  -0.00763
  85       13F-3       -0.00204   0.00000   0.00000   0.00525   0.00000
  86       14F 0        0.00000  -0.00286  -0.00757   0.00000   0.00000
  87       14F+1        0.00000   0.00000   0.00000   0.00000  -0.00069
  88       14F-1        0.00575   0.00000   0.00000   0.01475   0.00000
  89       14F+2        0.00000   0.00037  -0.00659   0.00000   0.00000
  90       14F-2        0.00000   0.00000   0.00000   0.00000   0.00000
  91       14F+3        0.00000   0.00000   0.00000   0.00000  -0.00126
  92       14F-3        0.00089   0.00000   0.00000  -0.00138   0.00000
  93 3   F  1S          0.14943   0.01987   0.01634   0.01686   0.00000
  94        2S         -0.38186  -0.05070  -0.04375  -0.04570   0.00000
  95        3S         -0.11698  -0.01593  -0.01469  -0.01562   0.00000
  96        4S         -0.25123  -0.05411  -0.03400  -0.05080   0.00000
  97        5S         -0.03112  -0.02288   0.00885   0.04829   0.00000
  98        6PX         0.00000   0.00000   0.00000   0.00000   0.25076
  99        6PY         0.03787  -0.00261   0.16758  -0.13282   0.00000
 100        6PZ         0.00958   0.04511  -0.19433   0.23232   0.00000
 101        7PX         0.00000   0.00000   0.00000   0.00000   0.30607
 102        7PY         0.04159  -0.00560   0.20305  -0.16144   0.00000
 103        7PZ         0.00813   0.05289  -0.23550   0.28065   0.00000
 104        8PX         0.00000   0.00000   0.00000   0.00000   0.21020
 105        8PY         0.03539  -0.01305   0.12739  -0.13706   0.00000
 106        8PZ         0.00483   0.02755  -0.16419   0.18735   0.00000
 107        9PX         0.00000   0.00000   0.00000   0.00000   0.01602
 108        9PY        -0.00110  -0.00323   0.01331  -0.00006   0.00000
 109        9PZ        -0.00034  -0.00398  -0.01436   0.02640   0.00000
 110       10D 0       -0.00016   0.00059  -0.00262   0.00236   0.00000
 111       10D+1        0.00000   0.00000   0.00000   0.00000   0.00188
 112       10D-1       -0.00040   0.00077  -0.00058   0.00155   0.00000
 113       10D+2        0.00008  -0.00003  -0.00219   0.00058   0.00000
 114       10D-2        0.00000   0.00000   0.00000   0.00000   0.00299
 115       11D 0       -0.00105   0.00162  -0.00978   0.00869   0.00000
 116       11D+1        0.00000   0.00000   0.00000   0.00000   0.00806
 117       11D-1       -0.00395   0.00001  -0.00225   0.00585   0.00000
 118       11D+2        0.00186   0.00126  -0.00736   0.00193   0.00000
 119       11D-2        0.00000   0.00000   0.00000   0.00000   0.01223
 120       12D 0       -0.00195   0.00016  -0.00472   0.00835   0.00000
 121       12D+1        0.00000   0.00000   0.00000   0.00000   0.00423
 122       12D-1       -0.00014  -0.00209  -0.00366  -0.00205   0.00000
 123       12D+2       -0.00149   0.00184   0.00090   0.01035   0.00000
 124       12D-2        0.00000   0.00000   0.00000   0.00000   0.00795
 125       13F 0        0.00011   0.00006  -0.00068   0.00045   0.00000
 126       13F+1        0.00000   0.00000   0.00000   0.00000   0.00030
 127       13F-1       -0.00028   0.00045  -0.00169   0.00179   0.00000
 128       13F+2        0.00030  -0.00010  -0.00043  -0.00025   0.00000
 129       13F-2        0.00000   0.00000   0.00000   0.00000   0.00163
 130       13F+3        0.00000   0.00000   0.00000   0.00000  -0.00153
 131       13F-3        0.00001   0.00009  -0.00105   0.00024   0.00000
 132       14F 0        0.00035   0.00074  -0.00189   0.00043   0.00000
 133       14F+1        0.00000   0.00000   0.00000   0.00000   0.00024
 134       14F-1       -0.00099   0.00001  -0.00264   0.00312   0.00000
 135       14F+2        0.00100   0.00061  -0.00044  -0.00075   0.00000
 136       14F-2        0.00000   0.00000   0.00000   0.00000   0.00306
 137       14F+3        0.00000   0.00000   0.00000   0.00000  -0.00195
 138       14F-3        0.00065   0.00032  -0.00069   0.00086   0.00000
 139 4   F  1S         -0.14943   0.01987   0.01634  -0.01686   0.00000
 140        2S          0.38186  -0.05070  -0.04375   0.04570   0.00000
 141        3S          0.11698  -0.01593  -0.01469   0.01562   0.00000
 142        4S          0.25123  -0.05411  -0.03400   0.05080   0.00000
 143        5S          0.03112  -0.02288   0.00885  -0.04829   0.00000
 144        6PX         0.00000   0.00000   0.00000   0.00000   0.25076
 145        6PY         0.03787   0.00261  -0.16758  -0.13282   0.00000
 146        6PZ        -0.00958   0.04511  -0.19433  -0.23232   0.00000
 147        7PX         0.00000   0.00000   0.00000   0.00000   0.30607
 148        7PY         0.04159   0.00560  -0.20305  -0.16144   0.00000
 149        7PZ        -0.00813   0.05289  -0.23550  -0.28065   0.00000
 150        8PX         0.00000   0.00000   0.00000   0.00000   0.21020
 151        8PY         0.03539   0.01305  -0.12739  -0.13706   0.00000
 152        8PZ        -0.00483   0.02755  -0.16419  -0.18735   0.00000
 153        9PX         0.00000   0.00000   0.00000   0.00000   0.01602
 154        9PY        -0.00110   0.00323  -0.01331  -0.00006   0.00000
 155        9PZ         0.00034  -0.00398  -0.01436  -0.02640   0.00000
 156       10D 0        0.00016   0.00059  -0.00262  -0.00236   0.00000
 157       10D+1        0.00000   0.00000   0.00000   0.00000   0.00188
 158       10D-1       -0.00040  -0.00077   0.00058   0.00155   0.00000
 159       10D+2       -0.00008  -0.00003  -0.00219  -0.00058   0.00000
 160       10D-2        0.00000   0.00000   0.00000   0.00000  -0.00299
 161       11D 0        0.00105   0.00162  -0.00978  -0.00869   0.00000
 162       11D+1        0.00000   0.00000   0.00000   0.00000   0.00806
 163       11D-1       -0.00395  -0.00001   0.00225   0.00585   0.00000
 164       11D+2       -0.00186   0.00126  -0.00736  -0.00193   0.00000
 165       11D-2        0.00000   0.00000   0.00000   0.00000  -0.01223
 166       12D 0        0.00195   0.00016  -0.00472  -0.00835   0.00000
 167       12D+1        0.00000   0.00000   0.00000   0.00000   0.00423
 168       12D-1       -0.00014   0.00209   0.00366  -0.00205   0.00000
 169       12D+2        0.00149   0.00184   0.00090  -0.01035   0.00000
 170       12D-2        0.00000   0.00000   0.00000   0.00000  -0.00795
 171       13F 0       -0.00011   0.00006  -0.00068  -0.00045   0.00000
 172       13F+1        0.00000   0.00000   0.00000   0.00000   0.00030
 173       13F-1       -0.00028  -0.00045   0.00169   0.00179   0.00000
 174       13F+2       -0.00030  -0.00010  -0.00043   0.00025   0.00000
 175       13F-2        0.00000   0.00000   0.00000   0.00000  -0.00163
 176       13F+3        0.00000   0.00000   0.00000   0.00000  -0.00153
 177       13F-3        0.00001  -0.00009   0.00105   0.00024   0.00000
 178       14F 0       -0.00035   0.00074  -0.00189  -0.00043   0.00000
 179       14F+1        0.00000   0.00000   0.00000   0.00000   0.00024
 180       14F-1       -0.00099  -0.00001   0.00264   0.00312   0.00000
 181       14F+2       -0.00100   0.00061  -0.00044   0.00075   0.00000
 182       14F-2        0.00000   0.00000   0.00000   0.00000  -0.00306
 183       14F+3        0.00000   0.00000   0.00000   0.00000  -0.00195
 184       14F-3        0.00065  -0.00032   0.00069   0.00086   0.00000
                          11        12        13        14        15
     Eigenvalues --     1.96813   1.96674   1.96292   1.96153   1.95597
   1 1   O  1S          0.00000   0.05080   0.00000  -0.00107   0.00000
   2        2S          0.00000  -0.15450   0.00000  -0.01843   0.00000
   3        3S          0.00000  -0.04756   0.00000  -0.00926   0.00000
   4        4S          0.00000  -0.22299   0.00000  -0.12260   0.00000
   5        5S          0.00000  -0.04856   0.00000  -0.04034   0.00000
   6        6PX         0.00000   0.00000   0.00000   0.00000   0.00000
   7        6PY         0.00000   0.00000   0.23799   0.00000   0.25117
   8        6PZ         0.00000  -0.18208   0.00000  -0.25232   0.00000
   9        7PX         0.00000   0.00000   0.00000   0.00000   0.00000
  10        7PY         0.00000   0.00000   0.29044   0.00000   0.30908
  11        7PZ         0.00000  -0.21100   0.00000  -0.30246   0.00000
  12        8PX         0.00000   0.00000   0.00000   0.00000   0.00000
  13        8PY         0.00000   0.00000   0.19130   0.00000   0.21070
  14        8PZ         0.00000  -0.08858   0.00000  -0.14467   0.00000
  15        9PX         0.00000   0.00000   0.00000   0.00000   0.00000
  16        9PY         0.00000   0.00000   0.02622   0.00000   0.02837
  17        9PZ         0.00000   0.00310   0.00000  -0.00459   0.00000
  18       10D 0        0.00000   0.00811   0.00000   0.01167   0.00000
  19       10D+1        0.00000   0.00000   0.00000   0.00000   0.00000
  20       10D-1        0.00000   0.00000  -0.00793   0.00000  -0.00485
  21       10D+2        0.00000   0.00009   0.00000   0.00021   0.00000
  22       10D-2       -0.00023   0.00000   0.00000   0.00000   0.00000
  23       11D 0        0.00000   0.01394   0.00000   0.02822   0.00000
  24       11D+1        0.00000   0.00000   0.00000   0.00000   0.00000
  25       11D-1        0.00000   0.00000  -0.01937   0.00000  -0.01193
  26       11D+2        0.00000  -0.00007   0.00000   0.00115   0.00000
  27       11D-2       -0.00288   0.00000   0.00000   0.00000   0.00000
  28       12D 0        0.00000  -0.00080   0.00000   0.00389   0.00000
  29       12D+1        0.00000   0.00000   0.00000   0.00000   0.00000
  30       12D-1        0.00000   0.00000  -0.00899   0.00000  -0.00129
  31       12D+2        0.00000  -0.00053   0.00000   0.00321   0.00000
  32       12D-2       -0.00742   0.00000   0.00000   0.00000   0.00000
  33       13F 0        0.00000  -0.00277   0.00000  -0.00459   0.00000
  34       13F+1        0.00000   0.00000   0.00000   0.00000   0.00000
  35       13F-1        0.00000   0.00000   0.00431   0.00000   0.00210
  36       13F+2        0.00000  -0.00030   0.00000  -0.00066   0.00000
  37       13F-2        0.00038   0.00000   0.00000   0.00000   0.00000
  38       13F+3        0.00000   0.00000   0.00000   0.00000   0.00000
  39       13F-3        0.00000   0.00000   0.00065   0.00000   0.00092
  40       14F 0        0.00000  -0.00120   0.00000  -0.00644   0.00000
  41       14F+1        0.00000   0.00000   0.00000   0.00000   0.00000
  42       14F-1        0.00000   0.00000   0.00397   0.00000   0.00244
  43       14F+2        0.00000  -0.00012   0.00000  -0.00082   0.00000
  44       14F-2        0.00309   0.00000   0.00000   0.00000   0.00000
  45       14F+3        0.00000   0.00000   0.00000   0.00000   0.00000
  46       14F-3        0.00000   0.00000   0.00082   0.00000  -0.00081
  47 2   C  1S          0.00000  -0.14380   0.00000  -0.01199   0.00000
  48        2S          0.00000   0.39602   0.00000   0.03594   0.00000
  49        3S          0.00000   0.10241   0.00000   0.01032   0.00000
  50        4S          0.00000   0.15634   0.00000  -0.03202   0.00000
  51        5S          0.00000   0.00680   0.00000   0.00705   0.00000
  52        6PX         0.00000   0.00000   0.00000   0.00000   0.00000
  53        6PY         0.00000   0.00000   0.17992   0.00000  -0.07252
  54        6PZ         0.00000   0.00323   0.00000   0.22981   0.00000
  55        7PX         0.00000   0.00000   0.00000   0.00000   0.00000
  56        7PY         0.00000   0.00000   0.21608   0.00000  -0.08272
  57        7PZ         0.00000  -0.01291   0.00000   0.22894   0.00000
  58        8PX         0.00000   0.00000   0.00000   0.00000   0.00000
  59        8PY         0.00000   0.00000   0.05510   0.00000  -0.01424
  60        8PZ         0.00000  -0.00250   0.00000   0.02541   0.00000
  61        9PX         0.00000   0.00000   0.00000   0.00000   0.00000
  62        9PY         0.00000   0.00000  -0.00244   0.00000  -0.00316
  63        9PZ         0.00000  -0.00003   0.00000   0.00071   0.00000
  64       10D 0        0.00000   0.00944   0.00000   0.01829   0.00000
  65       10D+1        0.00000   0.00000   0.00000   0.00000   0.00000
  66       10D-1        0.00000   0.00000   0.00245   0.00000   0.04401
  67       10D+2        0.00000  -0.00789   0.00000   0.01184   0.00000
  68       10D-2       -0.01993   0.00000   0.00000   0.00000   0.00000
  69       11D 0        0.00000   0.00423   0.00000   0.01581   0.00000
  70       11D+1        0.00000   0.00000   0.00000   0.00000   0.00000
  71       11D-1        0.00000   0.00000  -0.02066   0.00000   0.08795
  72       11D+2        0.00000  -0.02006   0.00000   0.02459   0.00000
  73       11D-2       -0.03240   0.00000   0.00000   0.00000   0.00000
  74       12D 0        0.00000   0.00118   0.00000  -0.00141   0.00000
  75       12D+1        0.00000   0.00000   0.00000   0.00000   0.00000
  76       12D-1        0.00000   0.00000  -0.00982   0.00000   0.01250
  77       12D+2        0.00000   0.00366   0.00000   0.00180   0.00000
  78       12D-2        0.00349   0.00000   0.00000   0.00000   0.00000
  79       13F 0        0.00000   0.00826   0.00000   0.00481   0.00000
  80       13F+1        0.00000   0.00000   0.00000   0.00000   0.00000
  81       13F-1        0.00000   0.00000   0.01444   0.00000   0.00420
  82       13F+2        0.00000   0.00593   0.00000  -0.00127   0.00000
  83       13F-2        0.00993   0.00000   0.00000   0.00000   0.00000
  84       13F+3        0.00000   0.00000   0.00000   0.00000   0.00000
  85       13F-3        0.00000   0.00000   0.00039   0.00000   0.00307
  86       14F 0        0.00000   0.00236   0.00000  -0.01572   0.00000
  87       14F+1        0.00000   0.00000   0.00000   0.00000   0.00000
  88       14F-1        0.00000   0.00000   0.02999   0.00000   0.01027
  89       14F+2        0.00000   0.00841   0.00000  -0.01327   0.00000
  90       14F-2        0.01495   0.00000   0.00000   0.00000   0.00000
  91       14F+3        0.00000   0.00000   0.00000   0.00000   0.00000
  92       14F-3        0.00000   0.00000   0.00327   0.00000   0.00893
  93 3   F  1S          0.00000   0.02074  -0.00515   0.00375  -0.02174
  94        2S          0.00000  -0.06329   0.02219  -0.00251   0.05280
  95        3S          0.00000  -0.02274   0.00981   0.00233   0.01359
  96        4S          0.00000  -0.11976   0.08995   0.04790  -0.01362
  97        5S          0.00000  -0.02318   0.03779   0.01428  -0.02506
  98        6PX         0.27559   0.00000   0.00000   0.00000   0.00000
  99        6PY         0.00000   0.11959  -0.17080  -0.08652   0.15853
 100        6PZ         0.00000   0.09194  -0.00560  -0.13427   0.12318
 101        7PX         0.33541   0.00000   0.00000   0.00000   0.00000
 102        7PY         0.00000   0.14220  -0.20462  -0.10733   0.19517
 103        7PZ         0.00000   0.10865  -0.00561  -0.16473   0.15124
 104        8PX         0.23146   0.00000   0.00000   0.00000   0.00000
 105        8PY         0.00000   0.06343  -0.10587  -0.05311   0.11885
 106        8PZ         0.00000   0.04871   0.01117  -0.10295   0.08436
 107        9PX         0.02498   0.00000   0.00000   0.00000   0.00000
 108        9PY         0.00000  -0.00271  -0.00475   0.00259   0.00721
 109        9PZ         0.00000   0.00054   0.01269  -0.00820   0.00801
 110       10D 0        0.00000   0.00007  -0.00010   0.00029   0.00001
 111       10D+1        0.00177   0.00000   0.00000   0.00000   0.00000
 112       10D-1        0.00000   0.00367  -0.00310  -0.00281   0.00346
 113       10D+2        0.00000  -0.00238   0.00208   0.00224  -0.00204
 114       10D-2        0.00216   0.00000   0.00000   0.00000   0.00000
 115       11D 0        0.00000  -0.00020  -0.00245   0.00125  -0.00124
 116       11D+1        0.00710   0.00000   0.00000   0.00000   0.00000
 117       11D-1        0.00000   0.01006  -0.01113  -0.01228   0.01197
 118       11D+2        0.00000  -0.00714   0.00636   0.00868  -0.00784
 119       11D-2        0.00933   0.00000   0.00000   0.00000   0.00000
 120       12D 0        0.00000  -0.00134  -0.00743  -0.00101  -0.00381
 121       12D+1        0.00464   0.00000   0.00000   0.00000   0.00000
 122       12D-1        0.00000   0.00207  -0.00241  -0.00322   0.00246
 123       12D+2        0.00000  -0.00070  -0.00090   0.00482  -0.00517
 124       12D-2        0.00464   0.00000   0.00000   0.00000   0.00000
 125       13F 0        0.00000  -0.00091   0.00087   0.00093  -0.00096
 126       13F+1        0.00019   0.00000   0.00000   0.00000   0.00000
 127       13F-1        0.00000   0.00071  -0.00052  -0.00072   0.00088
 128       13F+2        0.00000  -0.00142   0.00154   0.00157  -0.00161
 129       13F-2        0.00149   0.00000   0.00000   0.00000   0.00000
 130       13F+3       -0.00088   0.00000   0.00000   0.00000   0.00000
 131       13F-3        0.00000  -0.00076   0.00066   0.00094  -0.00066
 132       14F 0        0.00000  -0.00076   0.00003   0.00214  -0.00203
 133       14F+1        0.00095   0.00000   0.00000   0.00000   0.00000
 134       14F-1        0.00000   0.00065  -0.00337  -0.00066   0.00051
 135       14F+2        0.00000  -0.00233   0.00260   0.00321  -0.00260
 136       14F-2        0.00256   0.00000   0.00000   0.00000   0.00000
 137       14F+3       -0.00226   0.00000   0.00000   0.00000   0.00000
 138       14F-3        0.00000  -0.00142   0.00140   0.00163  -0.00177
 139 4   F  1S          0.00000   0.02074   0.00515   0.00375   0.02174
 140        2S          0.00000  -0.06329  -0.02219  -0.00251  -0.05280
 141        3S          0.00000  -0.02274  -0.00981   0.00233  -0.01359
 142        4S          0.00000  -0.11976  -0.08995   0.04790   0.01362
 143        5S          0.00000  -0.02318  -0.03779   0.01428   0.02506
 144        6PX        -0.27559   0.00000   0.00000   0.00000   0.00000
 145        6PY         0.00000  -0.11959  -0.17080   0.08652   0.15853
 146        6PZ         0.00000   0.09194   0.00560  -0.13427  -0.12318
 147        7PX        -0.33541   0.00000   0.00000   0.00000   0.00000
 148        7PY         0.00000  -0.14220  -0.20462   0.10733   0.19517
 149        7PZ         0.00000   0.10865   0.00561  -0.16473  -0.15124
 150        8PX        -0.23146   0.00000   0.00000   0.00000   0.00000
 151        8PY         0.00000  -0.06343  -0.10587   0.05311   0.11885
 152        8PZ         0.00000   0.04871  -0.01117  -0.10295  -0.08436
 153        9PX        -0.02498   0.00000   0.00000   0.00000   0.00000
 154        9PY         0.00000   0.00271  -0.00475  -0.00259   0.00721
 155        9PZ         0.00000   0.00054  -0.01269  -0.00820  -0.00801
 156       10D 0        0.00000   0.00007   0.00010   0.00029  -0.00001
 157       10D+1       -0.00177   0.00000   0.00000   0.00000   0.00000
 158       10D-1        0.00000  -0.00367  -0.00310   0.00281   0.00346
 159       10D+2        0.00000  -0.00238  -0.00208   0.00224   0.00204
 160       10D-2        0.00216   0.00000   0.00000   0.00000   0.00000
 161       11D 0        0.00000  -0.00020   0.00245   0.00125   0.00124
 162       11D+1       -0.00710   0.00000   0.00000   0.00000   0.00000
 163       11D-1        0.00000  -0.01006  -0.01113   0.01228   0.01197
 164       11D+2        0.00000  -0.00714  -0.00636   0.00868   0.00784
 165       11D-2        0.00933   0.00000   0.00000   0.00000   0.00000
 166       12D 0        0.00000  -0.00134   0.00743  -0.00101   0.00381
 167       12D+1       -0.00464   0.00000   0.00000   0.00000   0.00000
 168       12D-1        0.00000  -0.00207  -0.00241   0.00322   0.00246
 169       12D+2        0.00000  -0.00070   0.00090   0.00482   0.00517
 170       12D-2        0.00464   0.00000   0.00000   0.00000   0.00000
 171       13F 0        0.00000  -0.00091  -0.00087   0.00093   0.00096
 172       13F+1       -0.00019   0.00000   0.00000   0.00000   0.00000
 173       13F-1        0.00000  -0.00071  -0.00052   0.00072   0.00088
 174       13F+2        0.00000  -0.00142  -0.00154   0.00157   0.00161
 175       13F-2        0.00149   0.00000   0.00000   0.00000   0.00000
 176       13F+3        0.00088   0.00000   0.00000   0.00000   0.00000
 177       13F-3        0.00000   0.00076   0.00066  -0.00094  -0.00066
 178       14F 0        0.00000  -0.00076  -0.00003   0.00214   0.00203
 179       14F+1       -0.00095   0.00000   0.00000   0.00000   0.00000
 180       14F-1        0.00000  -0.00065  -0.00337   0.00066   0.00051
 181       14F+2        0.00000  -0.00233  -0.00260   0.00321   0.00260
 182       14F-2        0.00256   0.00000   0.00000   0.00000   0.00000
 183       14F+3        0.00226   0.00000   0.00000   0.00000   0.00000
 184       14F-3        0.00000   0.00142   0.00140  -0.00163  -0.00177
                          16        17        18        19        20
     Eigenvalues --     1.94066   0.05819   0.03829   0.03634   0.02407
   1 1   O  1S          0.00000   0.00000  -0.03315   0.00000   0.07226
   2        2S          0.00000   0.00000   0.13566   0.00000  -0.28148
   3        3S          0.00000   0.00000   0.04991   0.00000  -0.11930
   4        4S          0.00000   0.00000   0.16603   0.00000  -0.49398
   5        5S          0.00000   0.00000   0.07914   0.00000  -0.19651
   6        6PX         0.30117  -0.35241   0.00000   0.00000   0.00000
   7        6PY         0.00000   0.00000   0.00000   0.34335   0.00000
   8        6PZ         0.00000   0.00000  -0.18331   0.00000   0.34636
   9        7PX         0.37577  -0.39572   0.00000   0.00000   0.00000
  10        7PY         0.00000   0.00000   0.00000   0.31385   0.00000
  11        7PZ         0.00000   0.00000  -0.20743   0.00000   0.42712
  12        8PX         0.23825  -0.07272   0.00000   0.00000   0.00000
  13        8PY         0.00000   0.00000   0.00000  -0.04347   0.00000
  14        8PZ         0.00000   0.00000   0.03837   0.00000   0.15321
  15        9PX         0.01454  -0.00864   0.00000   0.00000   0.00000
  16        9PY         0.00000   0.00000   0.00000  -0.03109   0.00000
  17        9PZ         0.00000   0.00000  -0.00491   0.00000   0.01888
  18       10D 0        0.00000   0.00000  -0.00247   0.00000   0.03047
  19       10D+1       -0.01140  -0.01676   0.00000   0.00000   0.00000
  20       10D-1        0.00000   0.00000   0.00000   0.02820   0.00000
  21       10D+2        0.00000   0.00000  -0.00354   0.00000   0.00101
  22       10D-2        0.00000   0.00000   0.00000   0.00000   0.00000
  23       11D 0        0.00000   0.00000   0.00387   0.00000   0.02481
  24       11D+1       -0.02950  -0.01803   0.00000   0.00000   0.00000
  25       11D-1        0.00000   0.00000   0.00000   0.05095   0.00000
  26       11D+2        0.00000   0.00000  -0.00232   0.00000   0.00009
  27       11D-2        0.00000   0.00000   0.00000   0.00000   0.00000
  28       12D 0        0.00000   0.00000  -0.03435   0.00000  -0.02826
  29       12D+1       -0.00922   0.02028   0.00000   0.00000   0.00000
  30       12D-1        0.00000   0.00000   0.00000   0.00400   0.00000
  31       12D+2        0.00000   0.00000   0.00570   0.00000   0.00104
  32       12D-2        0.00000   0.00000   0.00000   0.00000   0.00000
  33       13F 0        0.00000   0.00000  -0.00328   0.00000  -0.00174
  34       13F+1        0.00593   0.00441   0.00000   0.00000   0.00000
  35       13F-1        0.00000   0.00000   0.00000  -0.00692   0.00000
  36       13F+2        0.00000   0.00000  -0.00176   0.00000   0.00152
  37       13F-2        0.00000   0.00000   0.00000   0.00000   0.00000
  38       13F+3        0.00098  -0.00254   0.00000   0.00000   0.00000
  39       13F-3        0.00000   0.00000   0.00000   0.00173   0.00000
  40       14F 0        0.00000   0.00000  -0.00003   0.00000  -0.00835
  41       14F+1        0.00369  -0.00395   0.00000   0.00000   0.00000
  42       14F-1        0.00000   0.00000   0.00000  -0.00495   0.00000
  43       14F+2        0.00000   0.00000  -0.00278   0.00000  -0.00294
  44       14F-2        0.00000   0.00000   0.00000   0.00000   0.00000
  45       14F+3        0.00059  -0.00164   0.00000   0.00000   0.00000
  46       14F-3        0.00000   0.00000   0.00000   0.00199   0.00000
  47 2   C  1S          0.00000   0.00000   0.17589   0.00000  -0.06414
  48        2S          0.00000   0.00000  -0.60406   0.00000   0.27630
  49        3S          0.00000   0.00000  -0.18335   0.00000   0.12702
  50        4S          0.00000   0.00000  -0.45408   0.00000   0.20912
  51        5S          0.00000   0.00000  -0.03859   0.00000   0.04199
  52        6PX         0.18411   0.32829   0.00000   0.00000   0.00000
  53        6PY         0.00000   0.00000   0.00000  -0.34603   0.00000
  54        6PZ         0.00000   0.00000   0.12821   0.00000   0.33874
  55        7PX         0.23341   0.46692   0.00000   0.00000   0.00000
  56        7PY         0.00000   0.00000   0.00000  -0.59978   0.00000
  57        7PZ         0.00000   0.00000   0.21690   0.00000   0.66356
  58        8PX         0.08552   0.14006   0.00000   0.00000   0.00000
  59        8PY         0.00000   0.00000   0.00000  -0.14289   0.00000
  60        8PZ         0.00000   0.00000  -0.03023   0.00000   0.13647
  61        9PX         0.00832   0.00740   0.00000   0.00000   0.00000
  62        9PY         0.00000   0.00000   0.00000  -0.00288   0.00000
  63        9PZ         0.00000   0.00000   0.00354   0.00000   0.00655
  64       10D 0        0.00000   0.00000   0.00500   0.00000  -0.03422
  65       10D+1        0.02638   0.00949   0.00000   0.00000   0.00000
  66       10D-1        0.00000   0.00000   0.00000  -0.02104   0.00000
  67       10D+2        0.00000   0.00000  -0.00029   0.00000  -0.00411
  68       10D-2        0.00000   0.00000   0.00000   0.00000   0.00000
  69       11D 0        0.00000   0.00000  -0.02283   0.00000   0.02153
  70       11D+1        0.04490   0.06161   0.00000   0.00000   0.00000
  71       11D-1        0.00000   0.00000   0.00000   0.07265   0.00000
  72       11D+2        0.00000   0.00000   0.06282   0.00000   0.02285
  73       11D-2        0.00000   0.00000   0.00000   0.00000   0.00000
  74       12D 0        0.00000   0.00000  -0.04121   0.00000   0.04655
  75       12D+1        0.00455   0.02209   0.00000   0.00000   0.00000
  76       12D-1        0.00000   0.00000   0.00000  -0.00968   0.00000
  77       12D+2        0.00000   0.00000   0.00454   0.00000   0.01006
  78       12D-2        0.00000   0.00000   0.00000   0.00000   0.00000
  79       13F 0        0.00000   0.00000  -0.00399   0.00000   0.01186
  80       13F+1        0.00774   0.01649   0.00000   0.00000   0.00000
  81       13F-1        0.00000   0.00000   0.00000  -0.02745   0.00000
  82       13F+2        0.00000   0.00000  -0.02847   0.00000  -0.01214
  83       13F-2        0.00000   0.00000   0.00000   0.00000   0.00000
  84       13F+3        0.00062  -0.00465   0.00000   0.00000   0.00000
  85       13F-3        0.00000   0.00000   0.00000   0.01169   0.00000
  86       14F 0        0.00000   0.00000  -0.04444   0.00000   0.00672
  87       14F+1        0.00762   0.02780   0.00000   0.00000   0.00000
  88       14F-1        0.00000   0.00000   0.00000  -0.15174   0.00000
  89       14F+2        0.00000   0.00000  -0.03889   0.00000  -0.00471
  90       14F-2        0.00000   0.00000   0.00000   0.00000   0.00000
  91       14F+3        0.00386   0.00763   0.00000   0.00000   0.00000
  92       14F-3        0.00000   0.00000   0.00000  -0.03257   0.00000
  93 3   F  1S          0.00000   0.00000  -0.05265   0.04505  -0.01799
  94        2S          0.00000   0.00000   0.16271  -0.13169   0.04168
  95        3S          0.00000   0.00000   0.07407  -0.06561   0.02794
  96        4S          0.00000   0.00000   0.22146  -0.25048   0.09805
  97        5S          0.00000   0.00000   0.05341  -0.08452   0.05294
  98        6PX        -0.05806  -0.18595   0.00000   0.00000   0.00000
  99        6PY         0.00000   0.00000   0.28290  -0.10417   0.21307
 100        6PZ         0.00000   0.00000   0.14849  -0.22284  -0.18528
 101        7PX        -0.07015  -0.15216   0.00000   0.00000   0.00000
 102        7PY         0.00000   0.00000   0.27091  -0.13658   0.13269
 103        7PZ         0.00000   0.00000   0.16126  -0.19197  -0.07219
 104        8PX        -0.06379   0.02995   0.00000   0.00000   0.00000
 105        8PY         0.00000   0.00000  -0.00166  -0.19378  -0.08438
 106        8PZ         0.00000   0.00000   0.03916   0.09392   0.22402
 107        9PX        -0.01919  -0.00214   0.00000   0.00000   0.00000
 108        9PY         0.00000   0.00000   0.00405  -0.01336  -0.01424
 109        9PZ         0.00000   0.00000  -0.00836  -0.01131   0.03877
 110       10D 0        0.00000   0.00000   0.00227   0.00551   0.01266
 111       10D+1        0.00082   0.00409   0.00000   0.00000   0.00000
 112       10D-1        0.00000   0.00000  -0.01074   0.01126   0.00103
 113       10D+2        0.00000   0.00000   0.00879  -0.00418   0.01256
 114       10D-2        0.00074   0.00558   0.00000   0.00000   0.00000
 115       11D 0        0.00000   0.00000   0.00850   0.02747   0.03904
 116       11D+1        0.00253   0.01564   0.00000   0.00000   0.00000
 117       11D-1        0.00000   0.00000  -0.01261   0.01924   0.01298
 118       11D+2        0.00000   0.00000   0.01341   0.00220   0.03064
 119       11D-2        0.00190   0.01952   0.00000   0.00000   0.00000
 120       12D 0        0.00000   0.00000   0.00683   0.06621   0.02279
 121       12D+1        0.00211   0.01087   0.00000   0.00000   0.00000
 122       12D-1        0.00000   0.00000  -0.00464   0.00134   0.03101
 123       12D+2        0.00000   0.00000   0.01204   0.04312  -0.00036
 124       12D-2       -0.00172   0.00450   0.00000   0.00000   0.00000
 125       13F 0        0.00000   0.00000  -0.00049   0.00073   0.00154
 126       13F+1        0.00017   0.00049   0.00000   0.00000   0.00000
 127       13F-1        0.00000   0.00000   0.00123   0.00063   0.00303
 128       13F+2        0.00000   0.00000  -0.00140  -0.00045  -0.00033
 129       13F-2        0.00039   0.00081   0.00000   0.00000   0.00000
 130       13F+3       -0.00044  -0.00211   0.00000   0.00000   0.00000
 131       13F-3        0.00000   0.00000   0.00046   0.00072   0.00247
 132       14F 0        0.00000   0.00000   0.00247   0.00526   0.00125
 133       14F+1        0.00072   0.00160   0.00000   0.00000   0.00000
 134       14F-1        0.00000   0.00000   0.00063   0.01151   0.00486
 135       14F+2        0.00000   0.00000   0.00341   0.00030   0.00122
 136       14F-2        0.00048   0.00411   0.00000   0.00000   0.00000
 137       14F+3        0.00082   0.00089   0.00000   0.00000   0.00000
 138       14F-3        0.00000   0.00000  -0.00020   0.00072   0.00132
 139 4   F  1S          0.00000   0.00000  -0.05265  -0.04505  -0.01799
 140        2S          0.00000   0.00000   0.16271   0.13169   0.04168
 141        3S          0.00000   0.00000   0.07407   0.06561   0.02794
 142        4S          0.00000   0.00000   0.22146   0.25048   0.09805
 143        5S          0.00000   0.00000   0.05341   0.08452   0.05294
 144        6PX        -0.05806  -0.18595   0.00000   0.00000   0.00000
 145        6PY         0.00000   0.00000  -0.28290  -0.10417  -0.21307
 146        6PZ         0.00000   0.00000   0.14849   0.22284  -0.18528
 147        7PX        -0.07015  -0.15216   0.00000   0.00000   0.00000
 148        7PY         0.00000   0.00000  -0.27091  -0.13658  -0.13269
 149        7PZ         0.00000   0.00000   0.16126   0.19197  -0.07219
 150        8PX        -0.06379   0.02995   0.00000   0.00000   0.00000
 151        8PY         0.00000   0.00000   0.00166  -0.19378   0.08438
 152        8PZ         0.00000   0.00000   0.03916  -0.09392   0.22402
 153        9PX        -0.01919  -0.00214   0.00000   0.00000   0.00000
 154        9PY         0.00000   0.00000  -0.00405  -0.01336   0.01424
 155        9PZ         0.00000   0.00000  -0.00836   0.01131   0.03877
 156       10D 0        0.00000   0.00000   0.00227  -0.00551   0.01266
 157       10D+1        0.00082   0.00409   0.00000   0.00000   0.00000
 158       10D-1        0.00000   0.00000   0.01074   0.01126  -0.00103
 159       10D+2        0.00000   0.00000   0.00879   0.00418   0.01256
 160       10D-2       -0.00074  -0.00558   0.00000   0.00000   0.00000
 161       11D 0        0.00000   0.00000   0.00850  -0.02747   0.03904
 162       11D+1        0.00253   0.01564   0.00000   0.00000   0.00000
 163       11D-1        0.00000   0.00000   0.01261   0.01924  -0.01298
 164       11D+2        0.00000   0.00000   0.01341  -0.00220   0.03064
 165       11D-2       -0.00190  -0.01952   0.00000   0.00000   0.00000
 166       12D 0        0.00000   0.00000   0.00683  -0.06621   0.02279
 167       12D+1        0.00211   0.01087   0.00000   0.00000   0.00000
 168       12D-1        0.00000   0.00000   0.00464   0.00134  -0.03101
 169       12D+2        0.00000   0.00000   0.01204  -0.04312  -0.00036
 170       12D-2        0.00172  -0.00450   0.00000   0.00000   0.00000
 171       13F 0        0.00000   0.00000  -0.00049  -0.00073   0.00154
 172       13F+1        0.00017   0.00049   0.00000   0.00000   0.00000
 173       13F-1        0.00000   0.00000  -0.00123   0.00063  -0.00303
 174       13F+2        0.00000   0.00000  -0.00140   0.00045  -0.00033
 175       13F-2       -0.00039  -0.00081   0.00000   0.00000   0.00000
 176       13F+3       -0.00044  -0.00211   0.00000   0.00000   0.00000
 177       13F-3        0.00000   0.00000  -0.00046   0.00072  -0.00247
 178       14F 0        0.00000   0.00000   0.00247  -0.00526   0.00125
 179       14F+1        0.00072   0.00160   0.00000   0.00000   0.00000
 180       14F-1        0.00000   0.00000  -0.00063   0.01151  -0.00486
 181       14F+2        0.00000   0.00000   0.00341  -0.00030   0.00122
 182       14F-2       -0.00048  -0.00411   0.00000   0.00000   0.00000
 183       14F+3        0.00082   0.00089   0.00000   0.00000   0.00000
 184       14F-3        0.00000   0.00000   0.00020   0.00072  -0.00132
                          21        22        23        24        25
     Eigenvalues --     0.01543   0.01410   0.01398   0.01345   0.01079
   1 1   O  1S         -0.03199   0.00000   0.00000   0.00000  -0.23980
   2        2S          0.05951   0.00000   0.00000   0.00000   0.78310
   3        3S          0.10763   0.00000   0.00000   0.00000   0.65948
   4        4S         -0.80736   0.00000   0.00000   0.00000  -1.18752
   5        5S         -0.45293   0.00000   0.00000   0.00000  -0.28718
   6        6PX         0.00000   0.00000   0.25912   0.00000   0.00000
   7        6PY         0.00000   0.00000   0.00000   0.29625   0.00000
   8        6PZ         0.31461   0.00000   0.00000   0.00000   0.20686
   9        7PX         0.00000   0.00000   0.19906   0.00000   0.00000
  10        7PY         0.00000   0.00000   0.00000   0.15909   0.00000
  11        7PZ         0.31002   0.00000   0.00000   0.00000  -0.03378
  12        8PX         0.00000   0.00000  -0.13568   0.00000   0.00000
  13        8PY         0.00000   0.00000   0.00000  -0.17800   0.00000
  14        8PZ         0.04156   0.00000   0.00000   0.00000  -0.10510
  15        9PX         0.00000   0.00000  -0.03078   0.00000   0.00000
  16        9PY         0.00000   0.00000   0.00000   0.00514   0.00000
  17        9PZ         0.05759   0.00000   0.00000   0.00000  -0.00123
  18       10D 0        0.05653   0.00000   0.00000   0.00000  -0.01828
  19       10D+1        0.00000   0.00000   0.04087   0.00000   0.00000
  20       10D-1        0.00000   0.00000   0.00000  -0.00812   0.00000
  21       10D+2        0.01348   0.00000   0.00000   0.00000  -0.02089
  22       10D-2        0.00000  -0.02356   0.00000   0.00000   0.00000
  23       11D 0        0.09102   0.00000   0.00000   0.00000  -0.06710
  24       11D+1        0.00000   0.00000   0.07507   0.00000   0.00000
  25       11D-1        0.00000   0.00000   0.00000  -0.04437   0.00000
  26       11D+2        0.04595   0.00000   0.00000   0.00000  -0.00777
  27       11D-2        0.00000  -0.07498   0.00000   0.00000   0.00000
  28       12D 0        0.02193   0.00000   0.00000   0.00000  -0.05099
  29       12D+1        0.00000   0.00000  -0.01688   0.00000   0.00000
  30       12D-1        0.00000   0.00000   0.00000  -0.04940   0.00000
  31       12D+2        0.01963   0.00000   0.00000   0.00000   0.01086
  32       12D-2        0.00000  -0.05425   0.00000   0.00000   0.00000
  33       13F 0       -0.01019   0.00000   0.00000   0.00000   0.00137
  34       13F+1        0.00000   0.00000  -0.00675   0.00000   0.00000
  35       13F-1        0.00000   0.00000   0.00000   0.00567   0.00000
  36       13F+2       -0.00438   0.00000   0.00000   0.00000   0.00210
  37       13F-2        0.00000   0.00558   0.00000   0.00000   0.00000
  38       13F+3        0.00000   0.00000  -0.00064   0.00000   0.00000
  39       13F-3        0.00000   0.00000   0.00000  -0.00141   0.00000
  40       14F 0       -0.02642   0.00000   0.00000   0.00000   0.02153
  41       14F+1        0.00000   0.00000  -0.01073   0.00000   0.00000
  42       14F-1        0.00000   0.00000   0.00000   0.00314   0.00000
  43       14F+2       -0.00112   0.00000   0.00000   0.00000  -0.00138
  44       14F-2        0.00000   0.02812   0.00000   0.00000   0.00000
  45       14F+3        0.00000   0.00000   0.00615   0.00000   0.00000
  46       14F-3        0.00000   0.00000   0.00000   0.01262   0.00000
  47 2   C  1S         -0.04347   0.00000   0.00000   0.00000   0.01048
  48        2S          0.18869   0.00000   0.00000   0.00000   0.05161
  49        3S          0.12771   0.00000   0.00000   0.00000   0.05504
  50        4S         -0.12116   0.00000   0.00000   0.00000   0.19124
  51        5S          0.06214   0.00000   0.00000   0.00000   0.06073
  52        6PX         0.00000   0.00000  -0.12814   0.00000   0.00000
  53        6PY         0.00000   0.00000   0.00000   0.21627   0.00000
  54        6PZ         0.34256   0.00000   0.00000   0.00000  -0.11964
  55        7PX         0.00000   0.00000  -0.18491   0.00000   0.00000
  56        7PY         0.00000   0.00000   0.00000   0.47392   0.00000
  57        7PZ         0.51533   0.00000   0.00000   0.00000  -0.01731
  58        8PX         0.00000   0.00000  -0.16248   0.00000   0.00000
  59        8PY         0.00000   0.00000   0.00000   0.44471   0.00000
  60        8PZ         0.44578   0.00000   0.00000   0.00000  -0.03319
  61        9PX         0.00000   0.00000  -0.00791   0.00000   0.00000
  62        9PY         0.00000   0.00000   0.00000  -0.00652   0.00000
  63        9PZ         0.02014   0.00000   0.00000   0.00000   0.00448
  64       10D 0        0.05808   0.00000   0.00000   0.00000  -0.02832
  65       10D+1        0.00000   0.00000  -0.10871   0.00000   0.00000
  66       10D-1        0.00000   0.00000   0.00000  -0.08322   0.00000
  67       10D+2        0.04605   0.00000   0.00000   0.00000  -0.02671
  68       10D-2        0.00000  -0.09037   0.00000   0.00000   0.00000
  69       11D 0        0.18293   0.00000   0.00000   0.00000  -0.12712
  70       11D+1        0.00000   0.00000  -0.20755   0.00000   0.00000
  71       11D-1        0.00000   0.00000   0.00000  -0.46799   0.00000
  72       11D+2        0.18061   0.00000   0.00000   0.00000  -0.04049
  73       11D-2        0.00000  -0.13616   0.00000   0.00000   0.00000
  74       12D 0        0.04847   0.00000   0.00000   0.00000   0.03165
  75       12D+1        0.00000   0.00000  -0.00623   0.00000   0.00000
  76       12D-1        0.00000   0.00000   0.00000  -0.19008   0.00000
  77       12D+2        0.04309   0.00000   0.00000   0.00000   0.00608
  78       12D-2        0.00000   0.02493   0.00000   0.00000   0.00000
  79       13F 0       -0.01367   0.00000   0.00000   0.00000  -0.00580
  80       13F+1        0.00000   0.00000  -0.00718   0.00000   0.00000
  81       13F-1        0.00000   0.00000   0.00000   0.04565   0.00000
  82       13F+2       -0.01567   0.00000   0.00000   0.00000  -0.00674
  83       13F-2        0.00000   0.02975   0.00000   0.00000   0.00000
  84       13F+3        0.00000   0.00000  -0.02593   0.00000   0.00000
  85       13F-3        0.00000   0.00000   0.00000  -0.01077   0.00000
  86       14F 0       -0.07044   0.00000   0.00000   0.00000  -0.05299
  87       14F+1        0.00000   0.00000  -0.04860   0.00000   0.00000
  88       14F-1        0.00000   0.00000   0.00000  -0.11717   0.00000
  89       14F+2       -0.07501   0.00000   0.00000   0.00000  -0.00382
  90       14F-2        0.00000   0.06202   0.00000   0.00000   0.00000
  91       14F+3        0.00000   0.00000  -0.00641   0.00000   0.00000
  92       14F-3        0.00000   0.00000   0.00000  -0.07053   0.00000
  93 3   F  1S          0.01368   0.00000   0.00000   0.05093  -0.02401
  94        2S         -0.02526   0.00000   0.00000  -0.12767   0.05886
  95        3S         -0.03743   0.00000   0.00000  -0.14030   0.06143
  96        4S          0.33886   0.00000   0.00000   0.68748  -0.12455
  97        5S          0.23183   0.00000   0.00000   0.53431  -0.00840
  98        6PX         0.00000  -0.45525  -0.39932   0.00000   0.00000
  99        6PY        -0.09481   0.00000   0.00000   0.34527   0.03664
 100        6PZ         0.32178   0.00000   0.00000  -0.01447  -0.12188
 101        7PX         0.00000  -0.13797  -0.11768   0.00000   0.00000
 102        7PY         0.01205   0.00000   0.00000   0.17770   0.00568
 103        7PZ         0.13716   0.00000   0.00000   0.05649  -0.02221
 104        8PX         0.00000   0.52139   0.51006   0.00000   0.00000
 105        8PY         0.20692   0.00000   0.00000  -0.26789  -0.05630
 106        8PZ        -0.26670   0.00000   0.00000   0.30165   0.14423
 107        9PX         0.00000   0.08191   0.07697   0.00000   0.00000
 108        9PY         0.05514   0.00000   0.00000   0.05046  -0.01320
 109        9PZ        -0.00277   0.00000   0.00000   0.05499   0.02334
 110       10D 0       -0.00116   0.00000   0.00000   0.00289   0.00024
 111       10D+1        0.00000   0.01482  -0.00414   0.00000   0.00000
 112       10D-1       -0.01383   0.00000   0.00000  -0.02521   0.01717
 113       10D+2        0.00484   0.00000   0.00000   0.00941  -0.00190
 114       10D-2        0.00000   0.00777   0.01356   0.00000   0.00000
 115       11D 0        0.00326   0.00000   0.00000   0.00526  -0.00253
 116       11D+1        0.00000   0.04184  -0.00743   0.00000   0.00000
 117       11D-1       -0.02386   0.00000   0.00000  -0.04615   0.05087
 118       11D+2        0.01032   0.00000   0.00000   0.00625  -0.01022
 119       11D-2        0.00000   0.02592   0.04162   0.00000   0.00000
 120       12D 0       -0.01250   0.00000   0.00000   0.06134  -0.00224
 121       12D+1        0.00000   0.02999   0.00795   0.00000   0.00000
 122       12D-1        0.00266   0.00000   0.00000   0.03155   0.03924
[...]
 112       10D-1       -0.01264   0.02402   0.00000   0.00370   0.00157
 113       10D+2        0.02603  -0.01864   0.00000  -0.00550  -0.01058
 114       10D-2        0.00000   0.00000  -0.00860   0.00000   0.00000
 115       11D 0        0.04722  -0.04701   0.00000  -0.06857   0.01126
 116       11D+1        0.00000   0.00000  -0.11157   0.00000   0.00000
 117       11D-1        0.07210  -0.08305   0.00000  -0.03576  -0.01477
 118       11D+2       -0.09621   0.05693   0.00000   0.02416   0.03424
 119       11D-2        0.00000   0.00000   0.01829   0.00000   0.00000
 120       12D 0        0.38003   0.09422   0.00000   0.18448  -0.50826
 121       12D+1        0.00000   0.00000   0.27267   0.00000   0.00000
 122       12D-1        0.67555   0.48646   0.00000  -0.01316  -0.35092
 123       12D+2        0.10295  -0.13416   0.00000  -0.17291  -0.07231
 124       12D-2        0.00000   0.00000   0.01213   0.00000   0.00000
 125       13F 0        0.00406   0.02178   0.00000  -0.01416   0.00257
 126       13F+1        0.00000   0.00000   0.00422   0.00000   0.00000
 127       13F-1       -0.04791   0.02333   0.00000   0.00244   0.01236
 128       13F+2        0.02751  -0.03424   0.00000   0.00135  -0.00593
 129       13F-2        0.00000   0.00000   0.01429   0.00000   0.00000
 130       13F+3        0.00000   0.00000   0.00631   0.00000   0.00000
 131       13F-3       -0.00860  -0.01837   0.00000   0.01662  -0.00750
 132       14F 0       -0.02055  -0.05231   0.00000   0.04557  -0.01801
 133       14F+1        0.00000   0.00000  -0.00213   0.00000   0.00000
 134       14F-1        0.15194  -0.04903   0.00000   0.00254  -0.07008
 135       14F+2       -0.08364   0.05959   0.00000  -0.01256   0.02777
 136       14F-2        0.00000   0.00000  -0.03904   0.00000   0.00000
 137       14F+3        0.00000   0.00000  -0.00554   0.00000   0.00000
 138       14F-3        0.01473   0.03980   0.00000  -0.04688   0.01313
 139 4   F  1S          0.09104  -0.11280   0.00000   0.02134  -0.00065
 140        2S          0.40959  -0.48524   0.00000   0.08288  -0.03244
 141        3S         -0.07557   0.11898   0.00000  -0.02831  -0.03134
 142        4S         -1.41616   3.27097   0.00000  -1.73542   0.63207
 143        5S          1.79408   6.33246   0.00000   2.49139   3.52965
 144        6PX         0.00000   0.00000  -0.00450   0.00000   0.00000
 145        6PY         0.00254  -0.00747   0.00000  -0.01181  -0.01226
 146        6PZ         0.01764   0.00420   0.00000  -0.00293   0.00698
 147        7PX         0.00000   0.00000   0.01113   0.00000   0.00000
 148        7PY         0.00019   0.02362   0.00000   0.09616   0.06120
 149        7PZ        -0.09293  -0.01470   0.00000  -0.03297  -0.05968
 150        8PX         0.00000   0.00000   0.13635   0.00000   0.00000
 151        8PY         0.59781  -1.22878   0.00000   0.11913  -0.44765
 152        8PZ        -1.44427   1.27302   0.00000  -0.50711   1.50939
 153        9PX         0.00000   0.00000   0.01838   0.00000   0.00000
 154        9PY        -1.80606  -1.40074   0.00000  -0.22497   0.41509
 155        9PZ         1.64289   3.36278   0.00000   2.32013   0.86922
 156       10D 0        0.00923   0.01337   0.00000   0.02017   0.00386
 157       10D+1        0.00000   0.00000   0.03147   0.00000   0.00000
 158       10D-1       -0.01264  -0.02402   0.00000  -0.00370   0.00157
 159       10D+2       -0.02603  -0.01864   0.00000  -0.00550   0.01058
 160       10D-2        0.00000   0.00000   0.00860   0.00000   0.00000
 161       11D 0       -0.04722  -0.04701   0.00000  -0.06857  -0.01126
 162       11D+1        0.00000   0.00000  -0.11157   0.00000   0.00000
 163       11D-1        0.07210   0.08305   0.00000   0.03576  -0.01477
 164       11D+2        0.09621   0.05693   0.00000   0.02416  -0.03424
 165       11D-2        0.00000   0.00000  -0.01829   0.00000   0.00000
 166       12D 0       -0.38003   0.09422   0.00000   0.18448   0.50826
 167       12D+1        0.00000   0.00000   0.27267   0.00000   0.00000
 168       12D-1        0.67555  -0.48646   0.00000   0.01316  -0.35092
 169       12D+2       -0.10295  -0.13416   0.00000  -0.17291   0.07231
 170       12D-2        0.00000   0.00000  -0.01213   0.00000   0.00000
 171       13F 0       -0.00406   0.02178   0.00000  -0.01416  -0.00257
 172       13F+1        0.00000   0.00000   0.00422   0.00000   0.00000
 173       13F-1       -0.04791  -0.02333   0.00000  -0.00244   0.01236
 174       13F+2       -0.02751  -0.03424   0.00000   0.00135   0.00593
 175       13F-2        0.00000   0.00000  -0.01429   0.00000   0.00000
 176       13F+3        0.00000   0.00000   0.00631   0.00000   0.00000
 177       13F-3       -0.00860   0.01837   0.00000  -0.01662  -0.00750
 178       14F 0        0.02055  -0.05231   0.00000   0.04557   0.01801
 179       14F+1        0.00000   0.00000  -0.00213   0.00000   0.00000
 180       14F-1        0.15194   0.04903   0.00000  -0.00254  -0.07008
 181       14F+2        0.08364   0.05959   0.00000  -0.01256  -0.02777
 182       14F-2        0.00000   0.00000   0.03904   0.00000   0.00000
 183       14F+3        0.00000   0.00000  -0.00554   0.00000   0.00000
 184       14F-3        0.01473  -0.03980   0.00000   0.04688   0.01313
                         181       182       183       184
     Eigenvalues --     0.00000   0.00000   0.00000   0.00000
   1 1   O  1S          0.00000   0.00000   0.11040  -0.05449
   2        2S          0.00000   0.00000   0.55106  -0.27111
   3        3S          0.00000   0.00000  -0.04211   0.02799
   4        4S          0.00000   0.00000  -2.82939   7.10620
   5        5S          0.00000   0.00000 -10.17771  16.55334
   6        6PX         0.01358   0.00000   0.00000   0.00000
   7        6PY         0.00000  -0.00364   0.00000   0.00000
   8        6PZ         0.00000   0.00000   0.01010  -0.00374
   9        7PX        -0.03800   0.00000   0.00000   0.00000
  10        7PY         0.00000   0.01745   0.00000   0.00000
  11        7PZ         0.00000   0.00000  -0.06704  -0.13169
  12        8PX         0.82958   0.00000   0.00000   0.00000
  13        8PY         0.00000  -1.83886   0.00000   0.00000
  14        8PZ         0.00000   0.00000   2.73938  -3.09515
  15        9PX        -1.40186   0.00000   0.00000   0.00000
  16        9PY         0.00000  -4.50804   0.00000   0.00000
  17        9PZ         0.00000   0.00000   2.75170  -3.53260
  18       10D 0        0.00000   0.00000   0.01935  -0.00469
  19       10D+1        0.00627   0.00000   0.00000   0.00000
  20       10D-1        0.00000   0.00350   0.00000   0.00000
  21       10D+2        0.00000   0.00000   0.00016  -0.00647
  22       10D-2        0.00000   0.00000   0.00000   0.00000
  23       11D 0        0.00000   0.00000  -0.15065   0.09268
  24       11D+1       -0.09075   0.00000   0.00000   0.00000
  25       11D-1        0.00000   0.07403   0.00000   0.00000
  26       11D+2        0.00000   0.00000  -0.00212   0.02775
  27       11D-2        0.00000   0.00000   0.00000   0.00000
  28       12D 0        0.00000   0.00000  -0.80786   0.23782
  29       12D+1       -0.17057   0.00000   0.00000   0.00000
  30       12D-1        0.00000   1.09782   0.00000   0.00000
  31       12D+2        0.00000   0.00000  -0.02537   0.11706
  32       12D-2        0.00000   0.00000   0.00000   0.00000
  33       13F 0        0.00000   0.00000   0.00262  -0.02165
  34       13F+1        0.00244   0.00000   0.00000   0.00000
  35       13F-1        0.00000   0.01515   0.00000   0.00000
  36       13F+2        0.00000   0.00000  -0.00152   0.01929
  37       13F-2        0.00000   0.00000   0.00000   0.00000
  38       13F+3       -0.00283   0.00000   0.00000   0.00000
  39       13F-3        0.00000  -0.00158   0.00000   0.00000
  40       14F 0        0.00000   0.00000   0.11632   0.04181
  41       14F+1        0.05674   0.00000   0.00000   0.00000
  42       14F-1        0.00000  -0.17974   0.00000   0.00000
  43       14F+2        0.00000   0.00000   0.00989  -0.06736
  44       14F-2        0.00000   0.00000   0.00000   0.00000
  45       14F+3        0.02267   0.00000   0.00000   0.00000
  46       14F-3        0.00000   0.01964   0.00000   0.00000
  47 2   C  1S          0.00000   0.00000   0.07687  -0.07802
  48        2S          0.00000   0.00000   0.47142  -0.41792
  49        3S          0.00000   0.00000   0.22312   0.18376
  50        4S          0.00000   0.00000  -4.85140 -18.01721
  51        5S          0.00000   0.00000  -0.78427  -9.94828
  52        6PX        -0.00374   0.00000   0.00000   0.00000
  53        6PY         0.00000   0.02056   0.00000   0.00000
  54        6PZ         0.00000   0.00000  -0.01676   0.00609
  55        7PX        -0.10069   0.00000   0.00000   0.00000
  56        7PY         0.00000  -1.12932   0.00000   0.00000
  57        7PZ         0.00000   0.00000   1.65004  -0.20879
  58        8PX         0.53599   0.00000   0.00000   0.00000
  59        8PY         0.00000  -7.89779   0.00000   0.00000
  60        8PZ         0.00000   0.00000   7.07564  -5.35037
  61        9PX         3.10438   0.00000   0.00000   0.00000
  62        9PY         0.00000   2.56923   0.00000   0.00000
  63        9PZ         0.00000   0.00000   1.96213  -0.04370
  64       10D 0        0.00000   0.00000   0.02143   0.03372
  65       10D+1        0.00710   0.00000   0.00000   0.00000
  66       10D-1        0.00000  -0.01349   0.00000   0.00000
  67       10D+2        0.00000   0.00000  -0.00920  -0.01967
  68       10D-2        0.00000   0.00000   0.00000   0.00000
  69       11D 0        0.00000   0.00000   0.33536  -0.98832
  70       11D+1       -0.36590   0.00000   0.00000   0.00000
  71       11D-1        0.00000   2.32405   0.00000   0.00000
  72       11D+2        0.00000   0.00000   0.89289   0.60435
  73       11D-2        0.00000   0.00000   0.00000   0.00000
  74       12D 0        0.00000   0.00000   0.30135  -2.76956
  75       12D+1       -0.46521   0.00000   0.00000   0.00000
  76       12D-1        0.00000   4.73440   0.00000   0.00000
  77       12D+2        0.00000   0.00000   0.91006  -0.00104
  78       12D-2        0.00000   0.00000   0.00000   0.00000
  79       13F 0        0.00000   0.00000  -0.05132  -0.02926
  80       13F+1       -0.04517   0.00000   0.00000   0.00000
  81       13F-1        0.00000  -0.01164   0.00000   0.00000
  82       13F+2        0.00000   0.00000  -0.04549  -0.02203
  83       13F-2        0.00000   0.00000   0.00000   0.00000
  84       13F+3        0.04573   0.00000   0.00000   0.00000
  85       13F-3        0.00000   0.05953   0.00000   0.00000
  86       14F 0        0.00000   0.00000  -0.35465  -0.50529
  87       14F+1       -0.12774   0.00000   0.00000   0.00000
  88       14F-1        0.00000  -0.16322   0.00000   0.00000
  89       14F+2        0.00000   0.00000  -0.25015  -0.37916
  90       14F-2        0.00000   0.00000   0.00000   0.00000
  91       14F+3       -0.22573   0.00000   0.00000   0.00000
  92       14F-3        0.00000  -0.08975   0.00000   0.00000
  93 3   F  1S          0.00000   0.09652  -0.02321  -0.01689
  94        2S          0.00000   0.44778  -0.13067  -0.09741
  95        3S          0.00000  -0.06211  -0.01721  -0.00985
  96        4S          0.00000  -3.01831   1.86556   1.69055
  97        5S          0.00000 -16.32169   7.99394   2.37749
  98        6PX         0.01752   0.00000   0.00000   0.00000
  99        6PY         0.00000  -0.01023   0.01035   0.00469
 100        6PZ         0.00000  -0.00610   0.00723   0.00275
 101        7PX        -0.06699   0.00000   0.00000   0.00000
 102        7PY         0.00000   0.04961  -0.04661  -0.02073
 103        7PZ         0.00000   0.02113  -0.02866  -0.01007
 104        8PX         0.00348   0.00000   0.00000   0.00000
 105        8PY         0.00000  -2.49046   1.48727   1.21020
 106        8PZ         0.00000  -1.38233   1.33664   0.89203
 107        9PX        -1.36754   0.00000   0.00000   0.00000
 108        9PY         0.00000  -5.57301   1.46557   0.45442
 109        9PZ         0.00000  -1.93992   1.11035  -1.10611
 110       10D 0        0.00000   0.00238  -0.00459   0.00029
 111       10D+1       -0.00669   0.00000   0.00000   0.00000
 112       10D-1        0.00000  -0.00535  -0.00344  -0.00529
 113       10D+2        0.00000   0.01922  -0.00450   0.00100
 114       10D-2       -0.00920   0.00000   0.00000   0.00000
 115       11D 0        0.00000  -0.01153   0.02300  -0.00772
 116       11D+1        0.02148   0.00000   0.00000   0.00000
 117       11D-1        0.00000  -0.01362   0.04450   0.03048
 118       11D+2        0.00000  -0.04304   0.00002  -0.01147
 119       11D-2        0.03302   0.00000   0.00000   0.00000
 120       12D 0        0.00000   0.28416   0.08733   0.00924
 121       12D+1       -0.16201   0.00000   0.00000   0.00000
 122       12D-1        0.00000  -0.66753   0.46692   0.24236
 123       12D+2        0.00000   0.64487  -0.19581  -0.17115
 124       12D-2       -0.14065   0.00000   0.00000   0.00000
 125       13F 0        0.00000  -0.01376   0.00306   0.00524
 126       13F+1        0.00588   0.00000   0.00000   0.00000
 127       13F-1        0.00000  -0.00221  -0.01276  -0.00224
 128       13F+2        0.00000   0.00633   0.00942   0.00169
 129       13F-2        0.01575   0.00000   0.00000   0.00000
 130       13F+3        0.00779   0.00000   0.00000   0.00000
 131       13F-3        0.00000   0.00995  -0.00946  -0.00797
 132       14F 0        0.00000   0.07169  -0.02205  -0.02443
 133       14F+1       -0.02015   0.00000   0.00000   0.00000
 134       14F-1        0.00000   0.00196   0.06283   0.00456
 135       14F+2        0.00000   0.03347  -0.05605  -0.01878
 136       14F-2       -0.03320   0.00000   0.00000   0.00000
 137       14F+3       -0.01698   0.00000   0.00000   0.00000
 138       14F-3        0.00000   0.01219   0.01442   0.00436
 139 4   F  1S          0.00000  -0.09652  -0.02321  -0.01689
 140        2S          0.00000  -0.44778  -0.13067  -0.09741
 141        3S          0.00000   0.06211  -0.01721  -0.00985
 142        4S          0.00000   3.01831   1.86556   1.69055
 143        5S          0.00000  16.32169   7.99394   2.37749
 144        6PX         0.01752   0.00000   0.00000   0.00000
 145        6PY         0.00000  -0.01023  -0.01035  -0.00469
 146        6PZ         0.00000   0.00610   0.00723   0.00275
 147        7PX        -0.06699   0.00000   0.00000   0.00000
 148        7PY         0.00000   0.04961   0.04661   0.02073
 149        7PZ         0.00000  -0.02113  -0.02866  -0.01007
 150        8PX         0.00348   0.00000   0.00000   0.00000
 151        8PY         0.00000  -2.49046  -1.48727  -1.21020
 152        8PZ         0.00000   1.38233   1.33664   0.89203
 153        9PX        -1.36754   0.00000   0.00000   0.00000
 154        9PY         0.00000  -5.57301  -1.46557  -0.45442
 155        9PZ         0.00000   1.93992   1.11035  -1.10611
 156       10D 0        0.00000  -0.00238  -0.00459   0.00029
 157       10D+1       -0.00669   0.00000   0.00000   0.00000
 158       10D-1        0.00000  -0.00535   0.00344   0.00529
 159       10D+2        0.00000  -0.01922  -0.00450   0.00100
 160       10D-2        0.00920   0.00000   0.00000   0.00000
 161       11D 0        0.00000   0.01153   0.02300  -0.00772
 162       11D+1        0.02148   0.00000   0.00000   0.00000
 163       11D-1        0.00000  -0.01362  -0.04450  -0.03048
 164       11D+2        0.00000   0.04304   0.00002  -0.01147
 165       11D-2       -0.03302   0.00000   0.00000   0.00000
 166       12D 0        0.00000  -0.28416   0.08733   0.00924
 167       12D+1       -0.16201   0.00000   0.00000   0.00000
 168       12D-1        0.00000  -0.66753  -0.46692  -0.24236
 169       12D+2        0.00000  -0.64487  -0.19581  -0.17115
 170       12D-2        0.14065   0.00000   0.00000   0.00000
 171       13F 0        0.00000   0.01376   0.00306   0.00524
 172       13F+1        0.00588   0.00000   0.00000   0.00000
 173       13F-1        0.00000  -0.00221   0.01276   0.00224
 174       13F+2        0.00000  -0.00633   0.00942   0.00169
 175       13F-2       -0.01575   0.00000   0.00000   0.00000
 176       13F+3        0.00779   0.00000   0.00000   0.00000
 177       13F-3        0.00000   0.00995   0.00946   0.00797
 178       14F 0        0.00000  -0.07169  -0.02205  -0.02443
 179       14F+1       -0.02015   0.00000   0.00000   0.00000
 180       14F-1        0.00000   0.00196  -0.06283  -0.00456
 181       14F+2        0.00000  -0.03347  -0.05605  -0.01878
 182       14F-2        0.03320   0.00000   0.00000   0.00000
 183       14F+3       -0.01698   0.00000   0.00000   0.00000
 184       14F-3        0.00000   0.01219  -0.01442  -0.00436
          Condensed to atoms (all electrons):
              1          2          3          4
     1  O    7.933397   0.504813  -0.079750  -0.079750
     2  C    0.504813   4.514476   0.183738   0.183738
     3  F   -0.079750   0.183738   9.112761  -0.049487
     4  F   -0.079750   0.183738  -0.049487   9.112761
 Mulliken atomic charges:
              1
     1  O   -0.278711
     2  C    0.613235
     3  F   -0.167262
     4  F   -0.167262
 Sum of Mulliken atomic charges =   0.00000
 Mulliken charges with hydrogens summed into heavy atoms:
              1
     1  O   -0.278711
     2  C    0.613235
     3  F   -0.167262
     4  F   -0.167262
 Sum of Mulliken charges with hydrogens summed into heavy atoms =   0.00000
 Electronic spatial extent (au):  <R**2>=            239.2809
 Charge=              0.0000 electrons
 Dipole moment (field-independent basis, Debye):
    X=              0.0000    Y=              0.0000    Z=             -0.9249  Tot=              0.9249
 Quadrupole moment (field-independent basis, Debye-Ang):
   XX=            -18.8886   YY=            -21.3538   ZZ=            -21.9949
   XY=              0.0000   XZ=              0.0000   YZ=              0.0000
 Traceless Quadrupole moment (field-independent basis, Debye-Ang):
   XX=              1.8572   YY=             -0.6081   ZZ=             -1.2491
   XY=              0.0000   XZ=              0.0000   YZ=              0.0000
 Octapole moment (field-independent basis, Debye-Ang**2):
  XXX=              0.0000  YYY=              0.0000  ZZZ=             34.3289  XYY=              0.0000
  XXY=              0.0000  XXZ=             10.3649  XZZ=              0.0000  YZZ=              0.0000
  YYZ=             12.0798  XYZ=              0.0000
 Hexadecapole moment (field-independent basis, Debye-Ang**3):
 XXXX=            -13.4412 YYYY=            -80.1502 ZZZZ=           -132.3163 XXXY=              0.0000
 XXXZ=              0.0000 YYYX=              0.0000 YYYZ=              0.0000 ZZZX=              0.0000
 ZZZY=              0.0000 XXYY=            -15.6614 XXZZ=            -23.5554 YYZZ=            -36.1812
 XXYZ=              0.0000 YYXZ=              0.0000 ZZXY=              0.0000
 N-N= 1.199315167445D+02 E-N=-9.819418273490D+02  KE= 3.124014157164D+02
 1\1\GINC-TRAPISTA\SP\RQCISD-FC\Aug-CC-pVTZ\C1F2O1\BRUNS\26-Nov-2021\0\
 \# qcisd/aug-cc-pvtz nosymm density=current output=wfn\\f2co-wavefunct
 ion\\0,1\O,0,0.,0.,0.679927\C,0,0.,0.,-0.482216\F,0,0.,-1.058878,-1.26
 4305\F,0,0.,1.058878,-1.264305\\Version=EM64L-G09RevB.01\HF=-311.74126
 38\MP2=-312.6368461\MP3=-312.624496\MP4D=-312.6400407\MP4DQ=-312.62401
 96\MP4SDQ=-312.6355647\QCISD=-312.6350671\RMSD=8.419e-09\Dipole=0.,0.,
 -0.3638768\Quadrupole=1.3807593,-0.4520814,-0.9286778,0.,0.,0.\PG=C02V
  [C2(C1O1),SGV(F2)]\\@

 Writing a WFN file to GAUSSIAN.wfn.


 DEFINE YOUR TERMS, YOU WILL PERMIT ME AGAIN TO SAY, 
 OR WE SHALL NEVER UNDERSTAND ONE ANOTHER.

                                    -- VOLTAIRE
 Job cpu time:  0 days  1 hours 59 minutes 46.7 seconds.
 File lengths (MBytes):  RWF=  17462 Int=      0 D2E=      0 Chk=      3 Scr=      1
 Normal termination of Gaussian 09 at Fri Nov 26 21:04:54 2021.
