 Entering Gaussian System, Link 0=/home/bruns/programas/chemistry/gaussian/g09/g09
 Input=GAUSSIAN.com
 Output=GAUSSIAN.log
 Initial command:
 /home/bruns/programas/chemistry/gaussian/g09/l1.exe /home/bruns/programas/chemistry/gaussian/work/Gau-18437.inp -scrdir=/home/bruns/programas/chemistry/gaussian/work/
 Entering Link 1 = /home/bruns/programas/chemistry/gaussian/g09/l1.exe PID=     18439.
  
 Copyright (c) 1988,1990,1992,1993,1995,1998,2003,2009,2010,
            Gaussian, Inc.  All Rights Reserved.
  
 This is part of the Gaussian(R) 09 program.  It is based on
 the Gaussian(R) 03 system (copyright 2003, Gaussian, Inc.),
 the Gaussian(R) 98 system (copyright 1998, Gaussian, Inc.),
 the Gaussian(R) 94 system (copyright 1995, Gaussian, Inc.),
 the Gaussian 92(TM) system (copyright 1992, Gaussian, Inc.),
 the Gaussian 90(TM) system (copyright 1990, Gaussian, Inc.),
 the Gaussian 88(TM) system (copyright 1988, Gaussian, Inc.),
 the Gaussian 86(TM) system (copyright 1986, Carnegie Mellon
 University), and the Gaussian 82(TM) system (copyright 1983,
 Carnegie Mellon University). Gaussian is a federally registered
 trademark of Gaussian, Inc.
  
 This software contains proprietary and confidential information,
 including trade secrets, belonging to Gaussian, Inc.
  
 This software is provided under written license and may be
 used, copied, transmitted, or stored only in accord with that
 written license.
  
 The following legend is applicable only to US Government
 contracts under FAR:
  
                    RESTRICTED RIGHTS LEGEND
  
 Use, reproduction and disclosure by the US Government is
 subject to restrictions as set forth in subparagraphs (a)
 and (c) of the Commercial Computer Software - Restricted
 Rights clause in FAR 52.227-19.
  
 Gaussian, Inc.
 340 Quinnipiac St., Bldg. 40, Wallingford CT 06492
  
  
 ---------------------------------------------------------------
 Warning -- This program may not be used in any manner that
 competes with the business of Gaussian, Inc. or will provide
 assistance to any competitor of Gaussian, Inc.  The licensee
 of this program is prohibited from giving any competitor of
 Gaussian, Inc. access to this program.  By using this program,
 the user acknowledges that Gaussian, Inc. is engaged in the
 business of creating and licensing software in the field of
 computational chemistry and represents and warrants to the
 licensee that it is not a competitor of Gaussian, Inc. and that
 it will not use this program in any manner prohibited above.
 ---------------------------------------------------------------
  

 Cite this work as:
 Gaussian 09, Revision B.01,
 M. J. Frisch, G. W. Trucks, H. B. Schlegel, G. E. Scuseria, 
 M. A. Robb, J. R. Cheeseman, G. Scalmani, V. Barone, B. Mennucci, 
 G. A. Petersson, H. Nakatsuji, M. Caricato, X. Li, H. P. Hratchian, 
 A. F. Izmaylov, J. Bloino, G. Zheng, J. L. Sonnenberg, M. Hada, 
 M. Ehara, K. Toyota, R. Fukuda, J. Hasegawa, M. Ishida, T. Nakajima, 
 Y. Honda, O. Kitao, H. Nakai, T. Vreven, J. A. Montgomery, Jr., 
 J. E. Peralta, F. Ogliaro, M. Bearpark, J. J. Heyd, E. Brothers, 
 K. N. Kudin, V. N. Staroverov, T. Keith, R. Kobayashi, J. Normand, 
 K. Raghavachari, A. Rendell, J. C. Burant, S. S. Iyengar, J. Tomasi, 
 M. Cossi, N. Rega, J. M. Millam, M. Klene, J. E. Knox, J. B. Cross, 
 V. Bakken, C. Adamo, J. Jaramillo, R. Gomperts, R. E. Stratmann, 
 O. Yazyev, A. J. Austin, R. Cammi, C. Pomelli, J. W. Ochterski, 
 R. L. Martin, K. Morokuma, V. G. Zakrzewski, G. A. Voth, 
 P. Salvador, J. J. Dannenberg, S. Dapprich, A. D. Daniels, 
 O. Farkas, J. B. Foresman, J. V. Ortiz, J. Cioslowski, 
 and D. J. Fox, Gaussian, Inc., Wallingford CT, 2010.
 
 ******************************************
 Gaussian 09:  EM64L-G09RevB.01 12-Aug-2010
                26-Nov-2021 
 ******************************************
 %nproc=8
 Will use up to    8 processors via shared memory.
 %mem=8GB
 -----------------------------------------------------
 # qcisd/aug-cc-pvtz nosymm density=current output=wfn
 -----------------------------------------------------
 1/30=1,38=1/1;
 2/12=2,15=1,17=6,18=5,40=1/2;
 3/5=16,6=1,7=10,11=9,16=1,25=1,30=1,71=1/1,2,3;
 4//1;
 5/5=2,38=5/2;
 8/6=4,9=120000,10=1/1,4;
 9/5=8,15=1/13;
 11/28=-7,31=1,32=3,42=3/11;
 10/5=6,13=10,31=1/2;
 6/7=2,8=2,9=2,10=2,22=-1,31=1/1;
 99/5=1,6=1100,9=1/99;
 -----------------
 f2co-wavefunction
 -----------------
 Symbolic Z-matrix:
 Charge =  0 Multiplicity = 1
 O                     0.        0.        0.66993 
 C                     0.        0.       -0.49222 
 F                     0.       -1.05888  -1.26431 
 F                     0.        1.05888  -1.26431 
 
                          Input orientation:                          
 ---------------------------------------------------------------------
 Center     Atomic      Atomic             Coordinates (Angstroms)
 Number     Number       Type             X           Y           Z
 ---------------------------------------------------------------------
      1          8           0        0.000000    0.000000    0.669927
      2          6           0        0.000000    0.000000   -0.492216
      3          9           0        0.000000   -1.058878   -1.264305
      4          9           0        0.000000    1.058878   -1.264305
 ---------------------------------------------------------------------
                    Distance matrix (angstroms):
                    1          2          3          4
     1  O    0.000000
     2  C    1.162143   0.000000
     3  F    2.205102   1.310475   0.000000
     4  F    2.205102   1.310475   2.117756   0.000000
 Symmetry turned off by external request.
 Stoichiometry    CF2O
 Framework group  C2V[C2(CO),SGV(F2)]
 Deg. of freedom     3
 Full point group                 C2V     NOp   4
 Rotational constants (GHZ):     11.8906067     11.8625553      5.9382822
 Standard basis: Aug-CC-pVTZ (5D, 7F)
 Integral buffers will be    131072 words long.
 Raffenetti 1 integral format.
 Two-electron integral symmetry is turned off.
   184 basis functions,   288 primitive gaussians,   220 cartesian basis functions
    16 alpha electrons       16 beta electrons
       nuclear repulsion energy       120.2645242552 Hartrees.
 NAtoms=    4 NActive=    4 NUniq=    4 SFac= 1.00D+00 NAtFMM=   50 NAOKFM=F Big=F
 One-electron integrals computed using PRISM.
 NBasis=   184 RedAO= T  NBF=   184
 NBsUse=   184 1.00D-06 NBFU=   184
 Harris functional with IExCor=  205 diagonalized for initial guess.
 ExpMin= 3.57D-02 ExpMax= 1.95D+04 ExpMxC= 6.65D+02 IAcc=3 IRadAn=         0 AccDes= 0.00D+00
 HarFok:  IExCor=  205 AccDes= 0.00D+00 IRadAn=         0 IDoV= 1
 ScaDFX=  1.000000  1.000000  1.000000  1.000000
 FoFCou: FMM=F IPFlag=           0 FMFlag=      100000 FMFlg1=           0
         NFxFlg=           0 DoJE=T BraDBF=F KetDBF=T FulRan=T
         Omega=  0.000000  0.000000  1.000000  0.000000  0.000000 ICntrl=     500 IOpCl=  0
         NMat0=    1 NMatS0=    1 NMatT0=    0 NMatD0=    1 NMtDS0=    0 NMtDT0=    0
         I1Cent=           4 NGrid=           0.
 Symmetry not used in FoFCou.
 Requested convergence on RMS density matrix=1.00D-08 within 128 cycles.
 Requested convergence on MAX density matrix=1.00D-06.
 Requested convergence on             energy=1.00D-06.
 No special actions if energy rises.
 Keep R1 ints in memory in canonical form, NReq=301063473.
 SCF Done:  E(RHF) =  -311.742050737     A.U. after   11 cycles
             Convg  =    0.8310D-08             -V/T =  2.0013
 ExpMin= 3.57D-02 ExpMax= 1.95D+04 ExpMxC= 6.65D+02 IAcc=3 IRadAn=         5 AccDes= 0.00D+00
 HarFok:  IExCor=  205 AccDes= 0.00D+00 IRadAn=         5 IDoV=-2
 ScaDFX=  1.000000  1.000000  1.000000  1.000000
 DSYEVD returned Info=          93 IAlg= 4 N=    46 NDim=    46 NE2=    23339802 trying DSYEV.
 DSYEVD returned Info=          93 IAlg= 4 N=    46 NDim=    46 NE2=    23339802 trying DSYEV.
 Range of M.O.s used for correlation:     5   184
 NBasis=   184 NAE=    16 NBE=    16 NFC=     4 NFV=     0
 NROrb=    180 NOA=    12 NOB=    12 NVA=   168 NVB=   168

 **** Warning!!: The largest alpha MO coefficient is  0.15577757D+02

 Semi-Direct transformation.
 ModeAB=           2 MOrb=            12 LenV=    1072785495
 LASXX=     33405819 LTotXX=    33405819 LenRXX=    33405819
 LTotAB=    33954012 MaxLAS=    52509600 LenRXY=    52509600
 NonZer=    66811638 LenScr=   100987392 LnRSAI=           0
 LnScr1=           0 LExtra=           0 Total=    186902811
 MaxDsk=          -1 SrtSym=           F ITran=            4
 JobTyp=0 Pass  1:  I=   1 to  12.
 (rs|ai) integrals will be sorted in core.
 Spin components of T(2) and E(2):
     alpha-alpha T2 =       0.2642478718D-01 E2=     -0.1189421002D+00
     alpha-beta  T2 =       0.1363505497D+00 E2=     -0.6567876685D+00
     beta-beta   T2 =       0.2642478718D-01 E2=     -0.1189421002D+00
 ANorm=    0.1090504527D+01
 E2 =    -0.8946718690D+00 EUMP2 =    -0.31263672260599D+03
 R2 and R3 integrals will be kept in memory, NReq=   596397230.
 Iterations=  50 Convergence= 0.100D-07
 Iteration Nr.   1
 **********************
 DD1Dir will call FoFMem   1 times, MxPair=       156
 NAB=    78 NAA=     0 NBB=     0.
 MP4(R+Q)=  0.15950145D-01
 E3=        0.12033672D-01        EUMP3=      -0.31262468893D+03
 E4(DQ)=    0.53107324D-03        UMP4(DQ)=   -0.31262415786D+03
 E4(SDQ)=  -0.10892256D-01        UMP4(SDQ)=  -0.31263558119D+03
 DE(Corr)= -0.86668805     E(Corr)=     -312.60873879    
 NORM(A)=   0.10855028D+01
 Iteration Nr.   2
 **********************
 DD1Dir will call FoFMem   1 times, MxPair=       156
 NAB=    78 NAA=     0 NBB=     0.
 DE(Corr)= -0.89219878     E(CORR)=     -312.63424951     Delta=-2.55D-02
 NORM(A)=   0.10926928D+01
 Iteration Nr.   3
 **********************
 DD1Dir will call FoFMem   1 times, MxPair=       156
 NAB=    78 NAA=     0 NBB=     0.
 DE(Corr)= -0.89051740     E(CORR)=     -312.63256813     Delta= 1.68D-03
 NORM(A)=   0.10948606D+01
 Iteration Nr.   4
 **********************
 DD1Dir will call FoFMem   1 times, MxPair=       156
 NAB=    78 NAA=     0 NBB=     0.
 DE(Corr)= -0.89276966     E(CORR)=     -312.63482040     Delta=-2.25D-03
 NORM(A)=   0.10956371D+01
 Iteration Nr.   5
 **********************
 DD1Dir will call FoFMem   1 times, MxPair=       156
 NAB=    78 NAA=     0 NBB=     0.
 DE(Corr)= -0.89302684     E(CORR)=     -312.63507758     Delta=-2.57D-04
 NORM(A)=   0.10958121D+01
 Iteration Nr.   6
 **********************
 DD1Dir will call FoFMem   1 times, MxPair=       156
 NAB=    78 NAA=     0 NBB=     0.
 DE(Corr)= -0.89305251     E(CORR)=     -312.63510325     Delta=-2.57D-05
 NORM(A)=   0.10958250D+01
 Iteration Nr.   7
 **********************
 DD1Dir will call FoFMem   1 times, MxPair=       156
 NAB=    78 NAA=     0 NBB=     0.
 DE(Corr)= -0.89305410     E(CORR)=     -312.63510484     Delta=-1.59D-06
 NORM(A)=   0.10958247D+01
 Iteration Nr.   8
 **********************
 DD1Dir will call FoFMem   1 times, MxPair=       156
 NAB=    78 NAA=     0 NBB=     0.
 DE(Corr)= -0.89305314     E(CORR)=     -312.63510388     Delta= 9.59D-07
 NORM(A)=   0.10958251D+01
 Iteration Nr.   9
 **********************
 DD1Dir will call FoFMem   1 times, MxPair=       156
 NAB=    78 NAA=     0 NBB=     0.
 DE(Corr)= -0.89305348     E(CORR)=     -312.63510422     Delta=-3.40D-07
 NORM(A)=   0.10958251D+01
 Iteration Nr.  10
 **********************
 DD1Dir will call FoFMem   1 times, MxPair=       156
 NAB=    78 NAA=     0 NBB=     0.
 DE(Corr)= -0.89305341     E(CORR)=     -312.63510415     Delta= 7.10D-08
 NORM(A)=   0.10958253D+01
 Iteration Nr.  11
 **********************
 DD1Dir will call FoFMem   1 times, MxPair=       156
 NAB=    78 NAA=     0 NBB=     0.
 DE(Corr)= -0.89305389     E(CORR)=     -312.63510463     Delta=-4.79D-07
 NORM(A)=   0.10958256D+01
 Iteration Nr.  12
 **********************
 DD1Dir will call FoFMem   1 times, MxPair=       156
 NAB=    78 NAA=     0 NBB=     0.
 DE(Corr)= -0.89305394     E(CORR)=     -312.63510468     Delta=-5.17D-08
 NORM(A)=   0.10958258D+01
 Iteration Nr.  13
 **********************
 DD1Dir will call FoFMem   1 times, MxPair=       156
 NAB=    78 NAA=     0 NBB=     0.
 DE(Corr)= -0.89305404     E(CORR)=     -312.63510478     Delta=-1.04D-07
 NORM(A)=   0.10958259D+01
 Iteration Nr.  14
 **********************
 DD1Dir will call FoFMem   1 times, MxPair=       156
 NAB=    78 NAA=     0 NBB=     0.
 DE(Corr)= -0.89305406     E(CORR)=     -312.63510480     Delta=-1.72D-08
 NORM(A)=   0.10958260D+01
 Iteration Nr.  15
 **********************
 DD1Dir will call FoFMem   1 times, MxPair=       156
 NAB=    78 NAA=     0 NBB=     0.
 DE(Corr)= -0.89305407     E(CORR)=     -312.63510481     Delta=-1.11D-08
 NORM(A)=   0.10958260D+01
 Iteration Nr.  16
 **********************
 DD1Dir will call FoFMem   1 times, MxPair=       156
 NAB=    78 NAA=     0 NBB=     0.
 DE(Corr)= -0.89305408     E(CORR)=     -312.63510481     Delta=-3.36D-09
 NORM(A)=   0.10958260D+01
 Largest amplitude= 5.36D-02

 Z-AMPLITUDE ITERATIONS

 Iteration Nr.   1
 **********************
 DD1Dir will call FoFMem   1 times, MxPair=       156
 NAB=    78 NAA=     0 NBB=     0.
 DE(Z)  -0.87391382D+00          E(Z)=    -0.31261596455D+03
 NORM(A)=   0.10958268D+01
 Iteration Nr.   2
 **********************
 DD1Dir will call FoFMem   1 times, MxPair=       156
 NAB=    78 NAA=     0 NBB=     0.
 DE(Z)  -0.87391382D+00          E(Z)=    -0.31261596456D+03
 NORM(A)=   0.10958280D+01
 Iteration Nr.   3
 **********************
 DD1Dir will call FoFMem   1 times, MxPair=       156
 NAB=    78 NAA=     0 NBB=     0.
 DE(Z)  -0.87391384D+00          E(Z)=    -0.31261596458D+03
 NORM(A)=   0.10958263D+01
 Iteration Nr.   4
 **********************
 DD1Dir will call FoFMem   1 times, MxPair=       156
 NAB=    78 NAA=     0 NBB=     0.
 DE(Z)  -0.87391382D+00          E(Z)=    -0.31261596456D+03
 NORM(A)=   0.10958259D+01
 Iteration Nr.   5
 **********************
 DD1Dir will call FoFMem   1 times, MxPair=       156
 NAB=    78 NAA=     0 NBB=     0.
 DE(Z)  -0.87391381D+00          E(Z)=    -0.31261596455D+03
 NORM(A)=   0.10914798D+01
 Iteration Nr.   6
 **********************
 DD1Dir will call FoFMem   1 times, MxPair=       156
 NAB=    78 NAA=     0 NBB=     0.
 DE(Z)  -0.87387014D+00          E(Z)=    -0.31261592088D+03
 NORM(A)=   0.10914653D+01
 Iteration Nr.   7
 **********************
 DD1Dir will call FoFMem   1 times, MxPair=       156
 NAB=    78 NAA=     0 NBB=     0.
 DE(Z)  -0.87384392D+00          E(Z)=    -0.31261589466D+03
 NORM(A)=   0.10914558D+01
 Iteration Nr.   8
 **********************
 DD1Dir will call FoFMem   1 times, MxPair=       156
 NAB=    78 NAA=     0 NBB=     0.
 DE(Z)  -0.87384879D+00          E(Z)=    -0.31261589953D+03
 NORM(A)=   0.10914547D+01
 Iteration Nr.   9
 **********************
 DD1Dir will call FoFMem   1 times, MxPair=       156
 NAB=    78 NAA=     0 NBB=     0.
 DE(Z)  -0.87384666D+00          E(Z)=    -0.31261589740D+03
 NORM(A)=   0.10914547D+01
 Iteration Nr.  10
 **********************
 DD1Dir will call FoFMem   1 times, MxPair=       156
 NAB=    78 NAA=     0 NBB=     0.
 DE(Z)  -0.87384733D+00          E(Z)=    -0.31261589807D+03
 NORM(A)=   0.10914549D+01
 Iteration Nr.  11
 **********************
 DD1Dir will call FoFMem   1 times, MxPair=       156
 NAB=    78 NAA=     0 NBB=     0.
 DE(Z)  -0.87384731D+00          E(Z)=    -0.31261589805D+03
 NORM(A)=   0.10914550D+01
 Iteration Nr.  12
 **********************
 DD1Dir will call FoFMem   1 times, MxPair=       156
 NAB=    78 NAA=     0 NBB=     0.
 DE(Z)  -0.87384731D+00          E(Z)=    -0.31261589805D+03
 NORM(A)=   0.10914550D+01
 Iteration Nr.  13
 **********************
 DD1Dir will call FoFMem   1 times, MxPair=       156
 NAB=    78 NAA=     0 NBB=     0.
 DE(Z)  -0.87384734D+00          E(Z)=    -0.31261589808D+03
 NORM(A)=   0.10914550D+01
 Iteration Nr.  14
 **********************
 DD1Dir will call FoFMem   1 times, MxPair=       156
 NAB=    78 NAA=     0 NBB=     0.
 DE(Z)  -0.87384732D+00          E(Z)=    -0.31261589806D+03
 NORM(A)=   0.10914550D+01
 Iteration Nr.  15
 **********************
 DD1Dir will call FoFMem   1 times, MxPair=       156
 NAB=    78 NAA=     0 NBB=     0.
 DE(Z)  -0.87384733D+00          E(Z)=    -0.31261589806D+03
 NORM(A)=   0.10914550D+01
 Discarding MO integrals.
          Differentiating once with respect to electric field.
                with respect to dipole field.
          Electric field/nuclear overlap derivatives assumed to be zero.
          Keep R1 ints in memory in canonical form, NReq=297441306.
          There are     1 degrees of freedom in the 1st order CPHF.  IDoFFX=0.
 LinEq1:  Iter=  0 NonCon=     1 RMS=3.05D-03 Max=8.25D-02
 AX will form     1 AO Fock derivatives at one time.
 LinEq1:  Iter=  1 NonCon=     1 RMS=7.45D-04 Max=1.09D-02
 LinEq1:  Iter=  2 NonCon=     1 RMS=2.19D-04 Max=3.26D-03
 LinEq1:  Iter=  3 NonCon=     1 RMS=9.60D-05 Max=1.60D-03
 LinEq1:  Iter=  4 NonCon=     1 RMS=2.18D-05 Max=3.75D-04
 LinEq1:  Iter=  5 NonCon=     1 RMS=1.06D-05 Max=3.11D-04
 LinEq1:  Iter=  6 NonCon=     1 RMS=2.82D-06 Max=5.16D-05
 LinEq1:  Iter=  7 NonCon=     1 RMS=5.68D-07 Max=9.04D-06
 LinEq1:  Iter=  8 NonCon=     1 RMS=9.36D-08 Max=1.12D-06
 LinEq1:  Iter=  9 NonCon=     1 RMS=1.28D-08 Max=1.70D-07
 LinEq1:  Iter= 10 NonCon=     1 RMS=1.84D-09 Max=2.08D-08
 LinEq1:  Iter= 11 NonCon=     1 RMS=3.79D-10 Max=5.49D-09
 LinEq1:  Iter= 12 NonCon=     0 RMS=5.10D-11 Max=4.57D-10
 Linear equations converged to 1.000D-10 1.000D-09 after    12 iterations.
 End of Minotr Frequency-dependent properties file   721 does not exist.
 End of Minotr Frequency-dependent properties file   722 does not exist.

 **********************************************************************

            Population analysis using the QCI/CC density.

 **********************************************************************

     Natural Orbital Coefficients:
                           1         2         3         4         5
     Eigenvalues --     2.00001   2.00000   2.00000   2.00000   1.98618
   1 1   O  1S         -0.61672  -0.73240   0.00000   0.20592  -0.02047
   2        2S          0.01129   0.01281   0.00000  -0.00392   0.04919
   3        3S         -0.02619  -0.03149   0.00000   0.00893   0.01369
   4        4S          0.00188   0.00257   0.00000  -0.00166   0.00077
   5        5S         -0.00055   0.00081   0.00000  -0.00174  -0.01891
   6        6PX         0.00000   0.00000   0.00000   0.00000   0.00000
   7        6PY         0.00000   0.00000  -0.00018   0.00000   0.00000
   8        6PZ         0.00406   0.00183   0.00000   0.00011  -0.01457
   9        7PX         0.00000   0.00000   0.00000   0.00000   0.00000
  10        7PY         0.00000   0.00000  -0.00012   0.00000   0.00000
  11        7PZ         0.00279  -0.00187   0.00000   0.00166  -0.01419
  12        8PX         0.00000   0.00000   0.00000   0.00000   0.00000
  13        8PY         0.00000   0.00000   0.00045   0.00000   0.00000
  14        8PZ         0.00323  -0.00064   0.00000   0.00054   0.01030
  15        9PX         0.00000   0.00000   0.00000   0.00000   0.00000
  16        9PY         0.00000   0.00000   0.00035   0.00000   0.00000
  17        9PZ         0.00035   0.00006   0.00000   0.00046   0.00549
  18       10D 0       -0.00026  -0.00013   0.00000  -0.00001   0.00121
  19       10D+1        0.00000   0.00000   0.00000   0.00000   0.00000
  20       10D-1        0.00000   0.00000   0.00002   0.00000   0.00000
  21       10D+2        0.00005   0.00005   0.00000   0.00001   0.00002
  22       10D-2        0.00000   0.00000   0.00000   0.00000   0.00000
  23       11D 0       -0.00004   0.00087   0.00000  -0.00044  -0.00015
  24       11D+1        0.00000   0.00000   0.00000   0.00000   0.00000
  25       11D-1        0.00000   0.00000  -0.00005   0.00000   0.00000
  26       11D+2        0.00005   0.00001   0.00000  -0.00018  -0.00085
  27       11D-2        0.00000   0.00000   0.00000   0.00000   0.00000
  28       12D 0       -0.00043   0.00023   0.00000  -0.00009  -0.00595
  29       12D+1        0.00000   0.00000   0.00000   0.00000   0.00000
  30       12D-1        0.00000   0.00000  -0.00013   0.00000   0.00000
  31       12D+2        0.00027  -0.00027   0.00000  -0.00018  -0.00214
  32       12D-2        0.00000   0.00000   0.00000   0.00000   0.00000
  33       13F 0       -0.00019   0.00010   0.00000  -0.00011  -0.00052
  34       13F+1        0.00000   0.00000   0.00000   0.00000   0.00000
  35       13F-1        0.00000   0.00000  -0.00002   0.00000   0.00000
  36       13F+2        0.00003   0.00003   0.00000   0.00002   0.00018
  37       13F-2        0.00000   0.00000   0.00000   0.00000   0.00000
  38       13F+3        0.00000   0.00000   0.00000   0.00000   0.00000
  39       13F-3        0.00000   0.00000   0.00002   0.00000   0.00000
  40       14F 0        0.00004  -0.00022   0.00000   0.00026   0.00165
  41       14F+1        0.00000   0.00000   0.00000   0.00000   0.00000
  42       14F-1        0.00000   0.00000   0.00008   0.00000   0.00000
  43       14F+2        0.00001   0.00002   0.00000   0.00017   0.00091
  44       14F-2        0.00000   0.00000   0.00000   0.00000   0.00000
  45       14F+3        0.00000   0.00000   0.00000   0.00000   0.00000
  46       14F-3        0.00000   0.00000  -0.00007   0.00000   0.00000
  47 2   C  1S          0.72782  -0.48861   0.00000   0.44020  -0.05212
  48        2S         -0.00927   0.00486   0.00000  -0.00397   0.11009
  49        3S          0.02973  -0.02068   0.00000   0.01784   0.02397
  50        4S         -0.00019   0.00084   0.00000   0.00007   0.01513
  51        5S          0.00023  -0.00006   0.00000   0.00034   0.00327
  52        6PX         0.00000   0.00000   0.00000   0.00000   0.00000
  53        6PY         0.00000   0.00000  -0.00003   0.00000   0.00000
  54        6PZ        -0.00191   0.00111   0.00000  -0.00108  -0.01503
  55        7PX         0.00000   0.00000   0.00000   0.00000   0.00000
  56        7PY         0.00000   0.00000  -0.00092   0.00000   0.00000
  57        7PZ         0.00124  -0.00458   0.00000   0.00144  -0.01093
  58        8PX         0.00000   0.00000   0.00000   0.00000   0.00000
  59        8PY         0.00000   0.00000   0.00054   0.00000   0.00000
  60        8PZ         0.00083  -0.00019   0.00000   0.00200   0.01412
  61        9PX         0.00000   0.00000   0.00000   0.00000   0.00000
  62        9PY         0.00000   0.00000  -0.00029   0.00000   0.00000
  63        9PZ         0.00004  -0.00037   0.00000  -0.00006  -0.00015
  64       10D 0        0.00031  -0.00048   0.00000   0.00038   0.00528
  65       10D+1        0.00000   0.00000   0.00000   0.00000   0.00000
  66       10D-1        0.00000   0.00000   0.00018   0.00000   0.00000
  67       10D+2       -0.00041   0.00019   0.00000  -0.00042  -0.00853
  68       10D-2        0.00000   0.00000   0.00000   0.00000   0.00000
  69       11D 0       -0.00032  -0.00098   0.00000   0.00058   0.00662
  70       11D+1        0.00000   0.00000   0.00000   0.00000   0.00000
  71       11D-1        0.00000   0.00000   0.00098   0.00000   0.00000
  72       11D+2        0.00093  -0.00127   0.00000   0.00019  -0.00971
  73       11D-2        0.00000   0.00000   0.00000   0.00000   0.00000
  74       12D 0        0.00010   0.00062   0.00000   0.00030   0.00009
  75       12D+1        0.00000   0.00000   0.00000   0.00000   0.00000
  76       12D-1        0.00000   0.00000  -0.00056   0.00000   0.00000
  77       12D+2        0.00005   0.00022   0.00000   0.00033   0.00340
  78       12D-2        0.00000   0.00000   0.00000   0.00000   0.00000
  79       13F 0        0.00074  -0.00027   0.00000   0.00060   0.00438
  80       13F+1        0.00000   0.00000   0.00000   0.00000   0.00000
  81       13F-1        0.00000   0.00000  -0.00023   0.00000   0.00000
  82       13F+2        0.00033   0.00011   0.00000   0.00060   0.00561
  83       13F-2        0.00000   0.00000   0.00000   0.00000   0.00000
  84       13F+3        0.00000   0.00000   0.00000   0.00000   0.00000
  85       13F-3        0.00000   0.00000   0.00021   0.00000   0.00000
  86       14F 0       -0.00115   0.00044   0.00000   0.00056   0.00339
  87       14F+1        0.00000   0.00000   0.00000   0.00000   0.00000
  88       14F-1        0.00000   0.00000  -0.00087   0.00000   0.00000
  89       14F+2       -0.00098   0.00084   0.00000   0.00027   0.00491
  90       14F-2        0.00000   0.00000   0.00000   0.00000   0.00000
  91       14F+3        0.00000   0.00000   0.00000   0.00000   0.00000
  92       14F-3        0.00000   0.00000  -0.00005   0.00000   0.00000
  93 3   F  1S         -0.16013   0.30389   0.69211   0.60081  -0.14597
  94        2S          0.00340  -0.00547  -0.01111  -0.00903   0.37228
  95        3S         -0.00651   0.01288   0.02984   0.02615   0.11351
  96        4S          0.00273  -0.00289  -0.00057   0.00091   0.23138
  97        5S          0.00025  -0.00025   0.00070   0.00069   0.01406
  98        6PX         0.00000   0.00000   0.00000   0.00000   0.00000
  99        6PY        -0.00111   0.00128   0.00144   0.00093  -0.00561
 100        6PZ        -0.00090   0.00077   0.00110   0.00059  -0.01924
 101        7PX         0.00000   0.00000   0.00000   0.00000   0.00000
 102        7PY        -0.00102   0.00059  -0.00015  -0.00042  -0.00285
 103        7PZ        -0.00091   0.00018   0.00012  -0.00049  -0.02118
 104        8PX         0.00000   0.00000   0.00000   0.00000   0.00000
 105        8PY        -0.00055   0.00029   0.00086   0.00112  -0.01196
 106        8PZ        -0.00028  -0.00008   0.00144   0.00059  -0.02270
 107        9PX         0.00000   0.00000   0.00000   0.00000   0.00000
 108        9PY        -0.00007  -0.00003   0.00039   0.00009  -0.00092
 109        9PZ        -0.00004   0.00039   0.00008   0.00025  -0.00092
 110       10D 0        0.00000  -0.00001   0.00000   0.00000  -0.00011
 111       10D+1        0.00000   0.00000   0.00000   0.00000   0.00000
 112       10D-1        0.00003  -0.00002   0.00001   0.00004   0.00067
 113       10D+2        0.00001  -0.00001  -0.00002  -0.00002  -0.00064
 114       10D-2        0.00000   0.00000   0.00000   0.00000   0.00000
 115       11D 0       -0.00006   0.00004   0.00007  -0.00006  -0.00090
 116       11D+1        0.00000   0.00000   0.00000   0.00000   0.00000
 117       11D-1       -0.00037   0.00001  -0.00024  -0.00045   0.00348
 118       11D+2        0.00010   0.00003   0.00019   0.00020  -0.00328
 119       11D-2        0.00000   0.00000   0.00000   0.00000   0.00000
 120       12D 0       -0.00009   0.00001   0.00023   0.00005   0.00002
 121       12D+1        0.00000   0.00000   0.00000   0.00000   0.00000
 122       12D-1       -0.00001   0.00000   0.00040   0.00019  -0.00268
 123       12D+2        0.00019  -0.00010  -0.00022  -0.00024   0.00131
 124       12D-2        0.00000   0.00000   0.00000   0.00000   0.00000
 125       13F 0        0.00000  -0.00002   0.00000  -0.00001  -0.00034
 126       13F+1        0.00000   0.00000   0.00000   0.00000   0.00000
 127       13F-1       -0.00001  -0.00003   0.00000  -0.00002   0.00009
 128       13F+2        0.00001   0.00003   0.00002   0.00003  -0.00046
 129       13F-2        0.00000   0.00000   0.00000   0.00000   0.00000
 130       13F+3        0.00000   0.00000   0.00000   0.00000   0.00000
 131       13F-3        0.00001   0.00000   0.00006   0.00001  -0.00040
 132       14F 0        0.00015   0.00000   0.00003   0.00014  -0.00031
 133       14F+1        0.00000   0.00000   0.00000   0.00000   0.00000
 134       14F-1       -0.00020   0.00017   0.00003  -0.00012   0.00001
 135       14F+2        0.00026  -0.00021   0.00000   0.00014  -0.00100
 136       14F-2        0.00000   0.00000   0.00000   0.00000   0.00000
 137       14F+3        0.00000   0.00000   0.00000   0.00000   0.00000
 138       14F-3        0.00005  -0.00004  -0.00012   0.00004  -0.00052
 139 4   F  1S         -0.16013   0.30389  -0.69211   0.60081  -0.14597
 140        2S          0.00340  -0.00547   0.01111  -0.00903   0.37228
 141        3S         -0.00651   0.01288  -0.02984   0.02615   0.11351
 142        4S          0.00273  -0.00289   0.00057   0.00091   0.23138
 143        5S          0.00025  -0.00025  -0.00070   0.00069   0.01406
 144        6PX         0.00000   0.00000   0.00000   0.00000   0.00000
 145        6PY         0.00111  -0.00128   0.00144  -0.00093   0.00561
 146        6PZ        -0.00090   0.00077  -0.00110   0.00059  -0.01924
 147        7PX         0.00000   0.00000   0.00000   0.00000   0.00000
 148        7PY         0.00102  -0.00059  -0.00015   0.00042   0.00285
 149        7PZ        -0.00091   0.00018  -0.00012  -0.00049  -0.02118
 150        8PX         0.00000   0.00000   0.00000   0.00000   0.00000
 151        8PY         0.00055  -0.00029   0.00086  -0.00112   0.01196
 152        8PZ        -0.00028  -0.00008  -0.00144   0.00059  -0.02270
 153        9PX         0.00000   0.00000   0.00000   0.00000   0.00000
 154        9PY         0.00007   0.00003   0.00039  -0.00009   0.00092
 155        9PZ        -0.00004   0.00039  -0.00008   0.00025  -0.00092
 156       10D 0        0.00000  -0.00001   0.00000   0.00000  -0.00011
 157       10D+1        0.00000   0.00000   0.00000   0.00000   0.00000
 158       10D-1       -0.00003   0.00002   0.00001  -0.00004  -0.00067
 159       10D+2        0.00001  -0.00001   0.00002  -0.00002  -0.00064
 160       10D-2        0.00000   0.00000   0.00000   0.00000   0.00000
 161       11D 0       -0.00006   0.00004  -0.00007  -0.00006  -0.00090
 162       11D+1        0.00000   0.00000   0.00000   0.00000   0.00000
 163       11D-1        0.00037  -0.00001  -0.00024   0.00045  -0.00348
 164       11D+2        0.00010   0.00003  -0.00019   0.00020  -0.00328
 165       11D-2        0.00000   0.00000   0.00000   0.00000   0.00000
 166       12D 0       -0.00009   0.00001  -0.00023   0.00005   0.00002
 167       12D+1        0.00000   0.00000   0.00000   0.00000   0.00000
 168       12D-1        0.00001   0.00000   0.00040  -0.00019   0.00268
 169       12D+2        0.00019  -0.00010   0.00022  -0.00024   0.00131
 170       12D-2        0.00000   0.00000   0.00000   0.00000   0.00000
 171       13F 0        0.00000  -0.00002   0.00000  -0.00001  -0.00034
 172       13F+1        0.00000   0.00000   0.00000   0.00000   0.00000
 173       13F-1        0.00001   0.00003   0.00000   0.00002  -0.00009
 174       13F+2        0.00001   0.00003  -0.00002   0.00003  -0.00046
 175       13F-2        0.00000   0.00000   0.00000   0.00000   0.00000
 176       13F+3        0.00000   0.00000   0.00000   0.00000   0.00000
 177       13F-3       -0.00001   0.00000   0.00006  -0.00001   0.00040
 178       14F 0        0.00015   0.00000  -0.00003   0.00014  -0.00031
 179       14F+1        0.00000   0.00000   0.00000   0.00000   0.00000
 180       14F-1        0.00020  -0.00017   0.00003   0.00012  -0.00001
 181       14F+2        0.00026  -0.00021   0.00000   0.00014  -0.00100
 182       14F-2        0.00000   0.00000   0.00000   0.00000   0.00000
 183       14F+3        0.00000   0.00000   0.00000   0.00000   0.00000
 184       14F-3       -0.00005   0.00004  -0.00012  -0.00004   0.00052
                           6         7         8         9        10
     Eigenvalues --     1.98561   1.98152   1.97346   1.97138   1.96834
   1 1   O  1S          0.00000  -0.19100  -0.03799   0.00000   0.00000
   2        2S          0.00000   0.49046   0.10516   0.00000   0.00000
   3        3S          0.00000   0.13745   0.03121   0.00000   0.00000
   4        4S          0.00000   0.30358   0.08957   0.00000   0.00000
   5        5S          0.00000   0.03492  -0.00812   0.00000   0.00000
   6        6PX         0.00000   0.00000   0.00000   0.00000  -0.00539
   7        6PY         0.02111   0.00000   0.00000  -0.05288   0.00000
   8        6PZ         0.00000  -0.00202   0.02585   0.00000   0.00000
   9        7PX         0.00000   0.00000   0.00000   0.00000  -0.00753
  10        7PY         0.02640   0.00000   0.00000  -0.07170   0.00000
  11        7PZ         0.00000  -0.00769   0.02646   0.00000   0.00000
  12        8PX         0.00000   0.00000   0.00000   0.00000  -0.01731
  13        8PY         0.01685   0.00000   0.00000  -0.06986   0.00000
  14        8PZ         0.00000   0.04879   0.00474   0.00000   0.00000
  15        9PX         0.00000   0.00000   0.00000   0.00000  -0.00941
  16        9PY        -0.00183   0.00000   0.00000   0.00642   0.00000
  17        9PZ         0.00000   0.00275   0.00489   0.00000   0.00000
  18       10D 0        0.00000   0.00494  -0.00112   0.00000   0.00000
  19       10D+1        0.00000   0.00000   0.00000   0.00000  -0.00205
  20       10D-1       -0.00078   0.00000   0.00000   0.00334   0.00000
  21       10D+2        0.00000  -0.00002   0.00050   0.00000   0.00000
  22       10D-2        0.00000   0.00000   0.00000   0.00000   0.00000
  23       11D 0        0.00000   0.01198  -0.00049   0.00000   0.00000
  24       11D+1        0.00000   0.00000   0.00000   0.00000  -0.00245
  25       11D-1       -0.00203   0.00000   0.00000   0.01415   0.00000
  26       11D+2        0.00000   0.00006   0.00081   0.00000   0.00000
  27       11D-2        0.00000   0.00000   0.00000   0.00000   0.00000
  28       12D 0        0.00000  -0.01340   0.00771   0.00000   0.00000
  29       12D+1        0.00000   0.00000   0.00000   0.00000   0.00052
  30       12D-1       -0.00055   0.00000   0.00000   0.01393   0.00000
  31       12D+2        0.00000   0.00049   0.00070   0.00000   0.00000
  32       12D-2        0.00000   0.00000   0.00000   0.00000   0.00000
  33       13F 0        0.00000  -0.00282   0.00066   0.00000   0.00000
  34       13F+1        0.00000   0.00000   0.00000   0.00000   0.00134
  35       13F-1        0.00080   0.00000   0.00000  -0.00268   0.00000
  36       13F+2        0.00000   0.00023  -0.00017   0.00000   0.00000
  37       13F-2        0.00000   0.00000   0.00000   0.00000   0.00000
  38       13F+3        0.00000   0.00000   0.00000   0.00000  -0.00021
  39       13F-3        0.00000   0.00000   0.00000  -0.00007   0.00000
  40       14F 0        0.00000  -0.00054  -0.00034   0.00000   0.00000
  41       14F+1        0.00000   0.00000   0.00000   0.00000  -0.00182
  42       14F-1        0.00011   0.00000   0.00000  -0.00242   0.00000
  43       14F+2        0.00000  -0.00054   0.00097   0.00000   0.00000
  44       14F-2        0.00000   0.00000   0.00000   0.00000   0.00000
  45       14F+3        0.00000   0.00000   0.00000   0.00000   0.00122
  46       14F-3        0.00035   0.00000   0.00000  -0.00059   0.00000
  47 2   C  1S          0.00000  -0.06978  -0.01098   0.00000   0.00000
  48        2S          0.00000   0.16178   0.02544   0.00000   0.00000
  49        3S          0.00000   0.03915   0.00676   0.00000   0.00000
  50        4S          0.00000   0.02786  -0.01744   0.00000   0.00000
  51        5S          0.00000  -0.00243  -0.00008   0.00000   0.00000
  52        6PX         0.00000   0.00000   0.00000   0.00000   0.10493
  53        6PY         0.03778   0.00000   0.00000  -0.07887   0.00000
  54        6PZ         0.00000   0.08300  -0.05128   0.00000   0.00000
  55        7PX         0.00000   0.00000   0.00000   0.00000   0.13239
  56        7PY         0.03149   0.00000   0.00000  -0.09889   0.00000
  57        7PZ         0.00000   0.05805  -0.08110   0.00000   0.00000
  58        8PX         0.00000   0.00000   0.00000   0.00000   0.01820
  59        8PY        -0.01985   0.00000   0.00000   0.07346   0.00000
  60        8PZ         0.00000  -0.03264   0.02712   0.00000   0.00000
  61        9PX         0.00000   0.00000   0.00000   0.00000   0.00221
  62        9PY         0.00172   0.00000   0.00000  -0.00465   0.00000
  63        9PZ         0.00000  -0.00015   0.00211   0.00000   0.00000
  64       10D 0        0.00000   0.01279   0.02004   0.00000   0.00000
  65       10D+1        0.00000   0.00000   0.00000   0.00000  -0.01442
  66       10D-1       -0.00887   0.00000   0.00000  -0.01016   0.00000
  67       10D+2        0.00000  -0.00246   0.01037   0.00000   0.00000
  68       10D-2        0.00000   0.00000   0.00000   0.00000   0.00000
  69       11D 0        0.00000   0.00192   0.03780   0.00000   0.00000
  70       11D+1        0.00000   0.00000   0.00000   0.00000  -0.02433
  71       11D-1       -0.01060   0.00000   0.00000   0.00736   0.00000
  72       11D+2        0.00000  -0.00744   0.02176   0.00000   0.00000
  73       11D-2        0.00000   0.00000   0.00000   0.00000   0.00000
  74       12D 0        0.00000  -0.01267  -0.00378   0.00000   0.00000
  75       12D+1        0.00000   0.00000   0.00000   0.00000   0.00031
  76       12D-1        0.01012   0.00000   0.00000  -0.01204   0.00000
  77       12D+2        0.00000  -0.00320   0.00114   0.00000   0.00000
  78       12D-2        0.00000   0.00000   0.00000   0.00000   0.00000
  79       13F 0        0.00000   0.00637  -0.00585   0.00000   0.00000
  80       13F+1        0.00000   0.00000   0.00000   0.00000   0.00455
  81       13F-1        0.00194   0.00000   0.00000   0.01096   0.00000
  82       13F+2        0.00000   0.00267   0.00021   0.00000   0.00000
  83       13F-2        0.00000   0.00000   0.00000   0.00000   0.00000
  84       13F+3        0.00000   0.00000   0.00000   0.00000  -0.00774
  85       13F-3       -0.00207   0.00000   0.00000   0.00530   0.00000
  86       14F 0        0.00000  -0.00283  -0.00710   0.00000   0.00000
  87       14F+1        0.00000   0.00000   0.00000   0.00000  -0.00079
  88       14F-1        0.00554   0.00000   0.00000   0.01594   0.00000
  89       14F+2        0.00000   0.00039  -0.00651   0.00000   0.00000
  90       14F-2        0.00000   0.00000   0.00000   0.00000   0.00000
  91       14F+3        0.00000   0.00000   0.00000   0.00000  -0.00150
  92       14F-3        0.00086   0.00000   0.00000  -0.00099   0.00000
  93 3   F  1S          0.14942   0.02028   0.01625   0.01696   0.00000
  94        2S         -0.38171  -0.05181  -0.04358  -0.04598   0.00000
  95        3S         -0.11688  -0.01627  -0.01464  -0.01574   0.00000
  96        4S         -0.25119  -0.05537  -0.03426  -0.05147   0.00000
  97        5S         -0.03185  -0.02338   0.00963   0.04863   0.00000
  98        6PX         0.00000   0.00000   0.00000   0.00000   0.25049
  99        6PY         0.03795  -0.00234   0.16612  -0.12903   0.00000
 100        6PZ         0.00914   0.04591  -0.19537   0.23357   0.00000
 101        7PX         0.00000   0.00000   0.00000   0.00000   0.30585
 102        7PY         0.04159  -0.00539   0.20130  -0.15691   0.00000
 103        7PZ         0.00757   0.05380  -0.23686   0.28221   0.00000
 104        8PX         0.00000   0.00000   0.00000   0.00000   0.20928
 105        8PY         0.03538  -0.01307   0.12592  -0.13330   0.00000
 106        8PZ         0.00454   0.02806  -0.16543   0.18681   0.00000
 107        9PX         0.00000   0.00000   0.00000   0.00000   0.01572
 108        9PY        -0.00133  -0.00331   0.01331   0.00054   0.00000
 109        9PZ        -0.00041  -0.00396  -0.01408   0.02628   0.00000
 110       10D 0       -0.00016   0.00060  -0.00264   0.00237   0.00000
 111       10D+1        0.00000   0.00000   0.00000   0.00000   0.00188
 112       10D-1       -0.00042   0.00079  -0.00063   0.00165   0.00000
 113       10D+2        0.00009  -0.00003  -0.00221   0.00056   0.00000
 114       10D-2        0.00000   0.00000   0.00000   0.00000   0.00305
 115       11D 0       -0.00102   0.00172  -0.00989   0.00867   0.00000
 116       11D+1        0.00000   0.00000   0.00000   0.00000   0.00805
 117       11D-1       -0.00403   0.00008  -0.00247   0.00619   0.00000
 118       11D+2        0.00193   0.00129  -0.00744   0.00183   0.00000
 119       11D-2        0.00000   0.00000   0.00000   0.00000   0.01242
 120       12D 0       -0.00190   0.00018  -0.00480   0.00776   0.00000
 121       12D+1        0.00000   0.00000   0.00000   0.00000   0.00394
 122       12D-1       -0.00017  -0.00208  -0.00399  -0.00206   0.00000
 123       12D+2       -0.00149   0.00185   0.00089   0.01005   0.00000
 124       12D-2        0.00000   0.00000   0.00000   0.00000   0.00786
 125       13F 0        0.00011   0.00006  -0.00066   0.00042   0.00000
 126       13F+1        0.00000   0.00000   0.00000   0.00000   0.00029
 127       13F-1       -0.00029   0.00046  -0.00173   0.00183   0.00000
 128       13F+2        0.00031  -0.00011  -0.00040  -0.00029   0.00000
 129       13F-2        0.00000   0.00000   0.00000   0.00000   0.00165
 130       13F+3        0.00000   0.00000   0.00000   0.00000  -0.00157
 131       13F-3        0.00002   0.00009  -0.00106   0.00023   0.00000
 132       14F 0        0.00039   0.00076  -0.00184   0.00030   0.00000
 133       14F+1        0.00000   0.00000   0.00000   0.00000   0.00015
 134       14F-1       -0.00098   0.00008  -0.00272   0.00308   0.00000
 135       14F+2        0.00102   0.00058  -0.00041  -0.00084   0.00000
 136       14F-2        0.00000   0.00000   0.00000   0.00000   0.00301
 137       14F+3        0.00000   0.00000   0.00000   0.00000  -0.00198
 138       14F-3        0.00066   0.00032  -0.00070   0.00083   0.00000
 139 4   F  1S         -0.14942   0.02028   0.01625  -0.01696   0.00000
 140        2S          0.38171  -0.05181  -0.04358   0.04598   0.00000
 141        3S          0.11688  -0.01627  -0.01464   0.01574   0.00000
 142        4S          0.25119  -0.05537  -0.03426   0.05147   0.00000
 143        5S          0.03185  -0.02338   0.00963  -0.04863   0.00000
 144        6PX         0.00000   0.00000   0.00000   0.00000   0.25049
 145        6PY         0.03795   0.00234  -0.16612  -0.12903   0.00000
 146        6PZ        -0.00914   0.04591  -0.19537  -0.23357   0.00000
 147        7PX         0.00000   0.00000   0.00000   0.00000   0.30585
 148        7PY         0.04159   0.00539  -0.20130  -0.15691   0.00000
 149        7PZ        -0.00757   0.05380  -0.23686  -0.28221   0.00000
 150        8PX         0.00000   0.00000   0.00000   0.00000   0.20928
 151        8PY         0.03538   0.01307  -0.12592  -0.13330   0.00000
 152        8PZ        -0.00454   0.02806  -0.16543  -0.18681   0.00000
 153        9PX         0.00000   0.00000   0.00000   0.00000   0.01572
 154        9PY        -0.00133   0.00331  -0.01331   0.00054   0.00000
 155        9PZ         0.00041  -0.00396  -0.01408  -0.02628   0.00000
 156       10D 0        0.00016   0.00060  -0.00264  -0.00237   0.00000
 157       10D+1        0.00000   0.00000   0.00000   0.00000   0.00188
 158       10D-1       -0.00042  -0.00079   0.00063   0.00165   0.00000
 159       10D+2       -0.00009  -0.00003  -0.00221  -0.00056   0.00000
 160       10D-2        0.00000   0.00000   0.00000   0.00000  -0.00305
 161       11D 0        0.00102   0.00172  -0.00989  -0.00867   0.00000
 162       11D+1        0.00000   0.00000   0.00000   0.00000   0.00805
 163       11D-1       -0.00403  -0.00008   0.00247   0.00619   0.00000
 164       11D+2       -0.00193   0.00129  -0.00744  -0.00183   0.00000
 165       11D-2        0.00000   0.00000   0.00000   0.00000  -0.01242
 166       12D 0        0.00190   0.00018  -0.00480  -0.00776   0.00000
 167       12D+1        0.00000   0.00000   0.00000   0.00000   0.00394
 168       12D-1       -0.00017   0.00208   0.00399  -0.00206   0.00000
 169       12D+2        0.00149   0.00185   0.00089  -0.01005   0.00000
 170       12D-2        0.00000   0.00000   0.00000   0.00000  -0.00786
 171       13F 0       -0.00011   0.00006  -0.00066  -0.00042   0.00000
 172       13F+1        0.00000   0.00000   0.00000   0.00000   0.00029
 173       13F-1       -0.00029  -0.00046   0.00173   0.00183   0.00000
 174       13F+2       -0.00031  -0.00011  -0.00040   0.00029   0.00000
 175       13F-2        0.00000   0.00000   0.00000   0.00000  -0.00165
 176       13F+3        0.00000   0.00000   0.00000   0.00000  -0.00157
 177       13F-3        0.00002  -0.00009   0.00106   0.00023   0.00000
 178       14F 0       -0.00039   0.00076  -0.00184  -0.00030   0.00000
 179       14F+1        0.00000   0.00000   0.00000   0.00000   0.00015
 180       14F-1       -0.00098  -0.00008   0.00272   0.00308   0.00000
 181       14F+2       -0.00102   0.00058  -0.00041   0.00084   0.00000
 182       14F-2        0.00000   0.00000   0.00000   0.00000  -0.00301
 183       14F+3        0.00000   0.00000   0.00000   0.00000  -0.00198
 184       14F-3        0.00066  -0.00032   0.00070   0.00083   0.00000
                          11        12        13        14        15
     Eigenvalues --     1.96819   1.96692   1.96313   1.96168   1.95635
   1 1   O  1S          0.00000   0.05110   0.00000  -0.00010   0.00000
   2        2S          0.00000  -0.15473   0.00000  -0.02146   0.00000
   3        3S          0.00000  -0.04750   0.00000  -0.01022   0.00000
   4        4S          0.00000  -0.22068   0.00000  -0.12744   0.00000
   5        5S          0.00000  -0.04804   0.00000  -0.04219   0.00000
   6        6PX         0.00000   0.00000   0.00000   0.00000   0.00000
   7        6PY         0.00000   0.00000   0.23456   0.00000   0.25441
   8        6PZ         0.00000  -0.17622   0.00000  -0.25641   0.00000
   9        7PX         0.00000   0.00000   0.00000   0.00000   0.00000
  10        7PY         0.00000   0.00000   0.28616   0.00000   0.31298
  11        7PZ         0.00000  -0.20391   0.00000  -0.30735   0.00000
  12        8PX         0.00000   0.00000   0.00000   0.00000   0.00000
  13        8PY         0.00000   0.00000   0.18869   0.00000   0.21364
  14        8PZ         0.00000  -0.08557   0.00000  -0.14749   0.00000
  15        9PX         0.00000   0.00000   0.00000   0.00000   0.00000
  16        9PY         0.00000   0.00000   0.02619   0.00000   0.02888
  17        9PZ         0.00000   0.00319   0.00000  -0.00453   0.00000
  18       10D 0        0.00000   0.00783   0.00000   0.01185   0.00000
  19       10D+1        0.00000   0.00000   0.00000   0.00000   0.00000
  20       10D-1        0.00000   0.00000  -0.00780   0.00000  -0.00493
  21       10D+2        0.00000   0.00009   0.00000   0.00023   0.00000
  22       10D-2       -0.00023   0.00000   0.00000   0.00000   0.00000
  23       11D 0        0.00000   0.01331   0.00000   0.02865   0.00000
  24       11D+1        0.00000   0.00000   0.00000   0.00000   0.00000
  25       11D-1        0.00000   0.00000  -0.01905   0.00000  -0.01211
  26       11D+2        0.00000  -0.00007   0.00000   0.00113   0.00000
  27       11D-2       -0.00289   0.00000   0.00000   0.00000   0.00000
  28       12D 0        0.00000  -0.00075   0.00000   0.00413   0.00000
  29       12D+1        0.00000   0.00000   0.00000   0.00000   0.00000
  30       12D-1        0.00000   0.00000  -0.00882   0.00000  -0.00144
  31       12D+2        0.00000  -0.00050   0.00000   0.00306   0.00000
  32       12D-2       -0.00754   0.00000   0.00000   0.00000   0.00000
  33       13F 0        0.00000  -0.00267   0.00000  -0.00466   0.00000
  34       13F+1        0.00000   0.00000   0.00000   0.00000   0.00000
  35       13F-1        0.00000   0.00000   0.00425   0.00000   0.00214
  36       13F+2        0.00000  -0.00029   0.00000  -0.00067   0.00000
  37       13F-2        0.00038   0.00000   0.00000   0.00000   0.00000
  38       13F+3        0.00000   0.00000   0.00000   0.00000   0.00000
  39       13F-3        0.00000   0.00000   0.00065   0.00000   0.00093
  40       14F 0        0.00000  -0.00110   0.00000  -0.00647   0.00000
  41       14F+1        0.00000   0.00000   0.00000   0.00000   0.00000
  42       14F-1        0.00000   0.00000   0.00393   0.00000   0.00245
  43       14F+2        0.00000  -0.00012   0.00000  -0.00079   0.00000
  44       14F-2        0.00310   0.00000   0.00000   0.00000   0.00000
  45       14F+3        0.00000   0.00000   0.00000   0.00000   0.00000
  46       14F-3        0.00000   0.00000   0.00081   0.00000  -0.00080
  47 2   C  1S          0.00000  -0.14335   0.00000  -0.01503   0.00000
  48        2S          0.00000   0.39443   0.00000   0.04464   0.00000
  49        3S          0.00000   0.10197   0.00000   0.01241   0.00000
  50        4S          0.00000   0.15687   0.00000  -0.02766   0.00000
  51        5S          0.00000   0.00672   0.00000   0.00734   0.00000
  52        6PX         0.00000   0.00000   0.00000   0.00000   0.00000
  53        6PY         0.00000   0.00000   0.17983   0.00000  -0.07178
  54        6PZ         0.00000  -0.00182   0.00000   0.23000   0.00000
  55        7PX         0.00000   0.00000   0.00000   0.00000   0.00000
  56        7PY         0.00000   0.00000   0.21496   0.00000  -0.08090
  57        7PZ         0.00000  -0.01778   0.00000   0.22787   0.00000
  58        8PX         0.00000   0.00000   0.00000   0.00000   0.00000
  59        8PY         0.00000   0.00000   0.05417   0.00000  -0.01417
  60        8PZ         0.00000  -0.00264   0.00000   0.02592   0.00000
  61        9PX         0.00000   0.00000   0.00000   0.00000   0.00000
  62        9PY         0.00000   0.00000  -0.00248   0.00000  -0.00309
  63        9PZ         0.00000  -0.00002   0.00000   0.00073   0.00000
  64       10D 0        0.00000   0.00889   0.00000   0.01866   0.00000
  65       10D+1        0.00000   0.00000   0.00000   0.00000   0.00000
  66       10D-1        0.00000   0.00000   0.00172   0.00000   0.04409
  67       10D+2        0.00000  -0.00827   0.00000   0.01185   0.00000
  68       10D-2       -0.02026   0.00000   0.00000   0.00000   0.00000
  69       11D 0        0.00000   0.00361   0.00000   0.01647   0.00000
  70       11D+1        0.00000   0.00000   0.00000   0.00000   0.00000
  71       11D-1        0.00000   0.00000  -0.02179   0.00000   0.08751
  72       11D+2        0.00000  -0.02092   0.00000   0.02451   0.00000
  73       11D-2       -0.03298   0.00000   0.00000   0.00000   0.00000
  74       12D 0        0.00000   0.00116   0.00000  -0.00099   0.00000
  75       12D+1        0.00000   0.00000   0.00000   0.00000   0.00000
  76       12D-1        0.00000   0.00000  -0.00956   0.00000   0.01273
  77       12D+2        0.00000   0.00360   0.00000   0.00207   0.00000
  78       12D-2        0.00371   0.00000   0.00000   0.00000   0.00000
  79       13F 0        0.00000   0.00820   0.00000   0.00492   0.00000
  80       13F+1        0.00000   0.00000   0.00000   0.00000   0.00000
  81       13F-1        0.00000   0.00000   0.01456   0.00000   0.00452
  82       13F+2        0.00000   0.00599   0.00000  -0.00111   0.00000
  83       13F-2        0.00994   0.00000   0.00000   0.00000   0.00000
  84       13F+3        0.00000   0.00000   0.00000   0.00000   0.00000
  85       13F-3        0.00000   0.00000   0.00047   0.00000   0.00311
  86       14F 0        0.00000   0.00281   0.00000  -0.01554   0.00000
  87       14F+1        0.00000   0.00000   0.00000   0.00000   0.00000
  88       14F-1        0.00000   0.00000   0.03019   0.00000   0.01104
  89       14F+2        0.00000   0.00861   0.00000  -0.01293   0.00000
  90       14F-2        0.01527   0.00000   0.00000   0.00000   0.00000
  91       14F+3        0.00000   0.00000   0.00000   0.00000   0.00000
  92       14F-3        0.00000   0.00000   0.00334   0.00000   0.00913
  93 3   F  1S          0.00000   0.02066  -0.00490   0.00430  -0.02185
  94        2S          0.00000  -0.06345   0.02174  -0.00425   0.05318
  95        3S          0.00000  -0.02286   0.00973   0.00173   0.01374
  96        4S          0.00000  -0.12203   0.09049   0.04540  -0.01335
  97        5S          0.00000  -0.02365   0.03738   0.01414  -0.02562
  98        6PX         0.27556   0.00000   0.00000   0.00000   0.00000
  99        6PY         0.00000   0.12266  -0.17432  -0.08460   0.15725
 100        6PZ         0.00000   0.09437  -0.00379  -0.13202   0.12160
 101        7PX         0.33546   0.00000   0.00000   0.00000   0.00000
 102        7PY         0.00000   0.14585  -0.20896  -0.10513   0.19365
 103        7PZ         0.00000   0.11157  -0.00351  -0.16210   0.14926
 104        8PX         0.23078   0.00000   0.00000   0.00000   0.00000
 105        8PY         0.00000   0.06488  -0.10803  -0.05201   0.11769
 106        8PZ         0.00000   0.05024   0.01230  -0.10171   0.08291
 107        9PX         0.02489   0.00000   0.00000   0.00000   0.00000
 108        9PY         0.00000  -0.00278  -0.00492   0.00251   0.00670
 109        9PZ         0.00000   0.00065   0.01277  -0.00808   0.00814
 110       10D 0        0.00000   0.00001  -0.00004   0.00033  -0.00005
 111       10D+1        0.00178   0.00000   0.00000   0.00000   0.00000
 112       10D-1        0.00000   0.00375  -0.00314  -0.00274   0.00345
 113       10D+2        0.00000  -0.00247   0.00217   0.00223  -0.00207
 114       10D-2        0.00221   0.00000   0.00000   0.00000   0.00000
 115       11D 0        0.00000  -0.00032  -0.00230   0.00149  -0.00151
 116       11D+1        0.00710   0.00000   0.00000   0.00000   0.00000
 117       11D-1        0.00000   0.01036  -0.01137  -0.01198   0.01182
 118       11D+2        0.00000  -0.00746   0.00666   0.00868  -0.00793
 119       11D-2        0.00949   0.00000   0.00000   0.00000   0.00000
 120       12D 0        0.00000  -0.00135  -0.00746  -0.00096  -0.00402
 121       12D+1        0.00452   0.00000   0.00000   0.00000   0.00000
 122       12D-1        0.00000   0.00203  -0.00257  -0.00307   0.00238
 123       12D+2        0.00000  -0.00080  -0.00088   0.00486  -0.00525
 124       12D-2        0.00449   0.00000   0.00000   0.00000   0.00000
 125       13F 0        0.00000  -0.00095   0.00089   0.00093  -0.00096
 126       13F+1        0.00017   0.00000   0.00000   0.00000   0.00000
 127       13F-1        0.00000   0.00070  -0.00049  -0.00067   0.00083
 128       13F+2        0.00000  -0.00148   0.00158   0.00154  -0.00159
 129       13F-2        0.00150   0.00000   0.00000   0.00000   0.00000
 130       13F+3       -0.00091   0.00000   0.00000   0.00000   0.00000
 131       13F-3        0.00000  -0.00080   0.00070   0.00093  -0.00067
 132       14F 0        0.00000  -0.00079   0.00010   0.00217  -0.00207
 133       14F+1        0.00094   0.00000   0.00000   0.00000   0.00000
 134       14F-1        0.00000   0.00066  -0.00337  -0.00046   0.00040
 135       14F+2        0.00000  -0.00241   0.00265   0.00312  -0.00258
 136       14F-2        0.00253   0.00000   0.00000   0.00000   0.00000
 137       14F+3       -0.00227   0.00000   0.00000   0.00000   0.00000
 138       14F-3        0.00000  -0.00149   0.00145   0.00165  -0.00179
 139 4   F  1S          0.00000   0.02066   0.00490   0.00430   0.02185
 140        2S          0.00000  -0.06345  -0.02174  -0.00425  -0.05318
 141        3S          0.00000  -0.02286  -0.00973   0.00173  -0.01374
 142        4S          0.00000  -0.12203  -0.09049   0.04540   0.01335
 143        5S          0.00000  -0.02365  -0.03738   0.01414   0.02562
 144        6PX        -0.27556   0.00000   0.00000   0.00000   0.00000
 145        6PY         0.00000  -0.12266  -0.17432   0.08460   0.15725
 146        6PZ         0.00000   0.09437   0.00379  -0.13202  -0.12160
 147        7PX        -0.33546   0.00000   0.00000   0.00000   0.00000
 148        7PY         0.00000  -0.14585  -0.20896   0.10513   0.19365
 149        7PZ         0.00000   0.11157   0.00351  -0.16210  -0.14926
 150        8PX        -0.23078   0.00000   0.00000   0.00000   0.00000
 151        8PY         0.00000  -0.06488  -0.10803   0.05201   0.11769
 152        8PZ         0.00000   0.05024  -0.01230  -0.10171  -0.08291
 153        9PX        -0.02489   0.00000   0.00000   0.00000   0.00000
 154        9PY         0.00000   0.00278  -0.00492  -0.00251   0.00670
 155        9PZ         0.00000   0.00065  -0.01277  -0.00808  -0.00814
 156       10D 0        0.00000   0.00001   0.00004   0.00033   0.00005
 157       10D+1       -0.00178   0.00000   0.00000   0.00000   0.00000
 158       10D-1        0.00000  -0.00375  -0.00314   0.00274   0.00345
 159       10D+2        0.00000  -0.00247  -0.00217   0.00223   0.00207
 160       10D-2        0.00221   0.00000   0.00000   0.00000   0.00000
 161       11D 0        0.00000  -0.00032   0.00230   0.00149   0.00151
 162       11D+1       -0.00710   0.00000   0.00000   0.00000   0.00000
 163       11D-1        0.00000  -0.01036  -0.01137   0.01198   0.01182
 164       11D+2        0.00000  -0.00746  -0.00666   0.00868   0.00793
 165       11D-2        0.00949   0.00000   0.00000   0.00000   0.00000
 166       12D 0        0.00000  -0.00135   0.00746  -0.00096   0.00402
 167       12D+1       -0.00452   0.00000   0.00000   0.00000   0.00000
 168       12D-1        0.00000  -0.00203  -0.00257   0.00307   0.00238
 169       12D+2        0.00000  -0.00080   0.00088   0.00486   0.00525
 170       12D-2        0.00449   0.00000   0.00000   0.00000   0.00000
 171       13F 0        0.00000  -0.00095  -0.00089   0.00093   0.00096
 172       13F+1       -0.00017   0.00000   0.00000   0.00000   0.00000
 173       13F-1        0.00000  -0.00070  -0.00049   0.00067   0.00083
 174       13F+2        0.00000  -0.00148  -0.00158   0.00154   0.00159
 175       13F-2        0.00150   0.00000   0.00000   0.00000   0.00000
 176       13F+3        0.00091   0.00000   0.00000   0.00000   0.00000
 177       13F-3        0.00000   0.00080   0.00070  -0.00093  -0.00067
 178       14F 0        0.00000  -0.00079  -0.00010   0.00217   0.00207
 179       14F+1       -0.00094   0.00000   0.00000   0.00000   0.00000
 180       14F-1        0.00000  -0.00066  -0.00337   0.00046   0.00040
 181       14F+2        0.00000  -0.00241  -0.00265   0.00312   0.00258
 182       14F-2        0.00253   0.00000   0.00000   0.00000   0.00000
 183       14F+3        0.00227   0.00000   0.00000   0.00000   0.00000
 184       14F-3        0.00000   0.00149   0.00145  -0.00165  -0.00179
                          16        17        18        19        20
     Eigenvalues --     1.94079   0.05800   0.03777   0.03591   0.02406
   1 1   O  1S          0.00000   0.00000  -0.03342   0.00000   0.07249
   2        2S          0.00000   0.00000   0.13657   0.00000  -0.28137
   3        3S          0.00000   0.00000   0.05049   0.00000  -0.11945
   4        4S          0.00000   0.00000   0.16573   0.00000  -0.49369
   5        5S          0.00000   0.00000   0.07930   0.00000  -0.19511
   6        6PX         0.30112  -0.35254   0.00000   0.00000   0.00000
   7        6PY         0.00000   0.00000   0.00000   0.34467   0.00000
   8        6PZ         0.00000   0.00000  -0.18440   0.00000   0.34685
   9        7PX         0.37572  -0.39571   0.00000   0.00000   0.00000
  10        7PY         0.00000   0.00000   0.00000   0.31291   0.00000
  11        7PZ         0.00000   0.00000  -0.20818   0.00000   0.42774
  12        8PX         0.23856  -0.07220   0.00000   0.00000   0.00000
  13        8PY         0.00000   0.00000   0.00000  -0.04732   0.00000
  14        8PZ         0.00000   0.00000   0.03999   0.00000   0.15660
  15        9PX         0.01474  -0.00858   0.00000   0.00000   0.00000
  16        9PY         0.00000   0.00000   0.00000  -0.03135   0.00000
  17        9PZ         0.00000   0.00000  -0.00483   0.00000   0.01871
  18       10D 0        0.00000   0.00000  -0.00269   0.00000   0.03058
  19       10D+1       -0.01139  -0.01679   0.00000   0.00000   0.00000
  20       10D-1        0.00000   0.00000   0.00000   0.02857   0.00000
  21       10D+2        0.00000   0.00000  -0.00360   0.00000   0.00102
  22       10D-2        0.00000   0.00000   0.00000   0.00000   0.00000
  23       11D 0        0.00000   0.00000   0.00358   0.00000   0.02485
  24       11D+1       -0.02950  -0.01818   0.00000   0.00000   0.00000
  25       11D-1        0.00000   0.00000   0.00000   0.05174   0.00000
  26       11D+2        0.00000   0.00000  -0.00280   0.00000   0.00016
  27       11D-2        0.00000   0.00000   0.00000   0.00000   0.00000
  28       12D 0        0.00000   0.00000  -0.03507   0.00000  -0.02948
  29       12D+1       -0.00922   0.02030   0.00000   0.00000   0.00000
  30       12D-1        0.00000   0.00000   0.00000   0.00386   0.00000
  31       12D+2        0.00000   0.00000   0.00520   0.00000   0.00141
  32       12D-2        0.00000   0.00000   0.00000   0.00000   0.00000
  33       13F 0        0.00000   0.00000  -0.00331   0.00000  -0.00173
  34       13F+1        0.00592   0.00445   0.00000   0.00000   0.00000
  35       13F-1        0.00000   0.00000   0.00000  -0.00711   0.00000
  36       13F+2        0.00000   0.00000  -0.00178   0.00000   0.00154
  37       13F-2        0.00000   0.00000   0.00000   0.00000   0.00000
  38       13F+3        0.00099  -0.00257   0.00000   0.00000   0.00000
  39       13F-3        0.00000   0.00000   0.00000   0.00176   0.00000
  40       14F 0        0.00000   0.00000   0.00009   0.00000  -0.00846
  41       14F+1        0.00370  -0.00398   0.00000   0.00000   0.00000
  42       14F-1        0.00000   0.00000   0.00000  -0.00470   0.00000
  43       14F+2        0.00000   0.00000  -0.00244   0.00000  -0.00308
  44       14F-2        0.00000   0.00000   0.00000   0.00000   0.00000
  45       14F+3        0.00058  -0.00160   0.00000   0.00000   0.00000
  46       14F-3        0.00000   0.00000   0.00000   0.00193   0.00000
  47 2   C  1S          0.00000   0.00000   0.17641   0.00000  -0.06410
  48        2S          0.00000   0.00000  -0.60816   0.00000   0.27544
  49        3S          0.00000   0.00000  -0.18437   0.00000   0.12689
  50        4S          0.00000   0.00000  -0.45719   0.00000   0.20420
  51        5S          0.00000   0.00000  -0.03855   0.00000   0.04071
  52        6PX         0.18365   0.32820   0.00000   0.00000   0.00000
  53        6PY         0.00000   0.00000   0.00000  -0.34570   0.00000
  54        6PZ         0.00000   0.00000   0.12679   0.00000   0.33975
  55        7PX         0.23297   0.46685   0.00000   0.00000   0.00000
  56        7PY         0.00000   0.00000   0.00000  -0.60314   0.00000
  57        7PZ         0.00000   0.00000   0.21695   0.00000   0.66637
  58        8PX         0.08587   0.14028   0.00000   0.00000   0.00000
  59        8PY         0.00000   0.00000   0.00000  -0.13703   0.00000
  60        8PZ         0.00000   0.00000  -0.03134   0.00000   0.13254
  61        9PX         0.00838   0.00766   0.00000   0.00000   0.00000
  62        9PY         0.00000   0.00000   0.00000  -0.00345   0.00000
  63        9PZ         0.00000   0.00000   0.00340   0.00000   0.00686
  64       10D 0        0.00000   0.00000   0.00475   0.00000  -0.03440
  65       10D+1        0.02643   0.00949   0.00000   0.00000   0.00000
  66       10D-1        0.00000   0.00000   0.00000  -0.02154   0.00000
  67       10D+2        0.00000   0.00000  -0.00032   0.00000  -0.00413
  68       10D-2        0.00000   0.00000   0.00000   0.00000   0.00000
  69       11D 0        0.00000   0.00000  -0.02097   0.00000   0.02349
  70       11D+1        0.04510   0.06169   0.00000   0.00000   0.00000
  71       11D-1        0.00000   0.00000   0.00000   0.07298   0.00000
  72       11D+2        0.00000   0.00000   0.06506   0.00000   0.02496
  73       11D-2        0.00000   0.00000   0.00000   0.00000   0.00000
  74       12D 0        0.00000   0.00000  -0.04052   0.00000   0.04509
  75       12D+1        0.00480   0.02221   0.00000   0.00000   0.00000
  76       12D-1        0.00000   0.00000   0.00000  -0.01111   0.00000
  77       12D+2        0.00000   0.00000   0.00513   0.00000   0.01015
  78       12D-2        0.00000   0.00000   0.00000   0.00000   0.00000
  79       13F 0        0.00000   0.00000  -0.00416   0.00000   0.01150
  80       13F+1        0.00772   0.01643   0.00000   0.00000   0.00000
  81       13F-1        0.00000   0.00000   0.00000  -0.02705   0.00000
  82       13F+2        0.00000   0.00000  -0.02874   0.00000  -0.01251
  83       13F-2        0.00000   0.00000   0.00000   0.00000   0.00000
  84       13F+3        0.00066  -0.00476   0.00000   0.00000   0.00000
  85       13F-3        0.00000   0.00000   0.00000   0.01201   0.00000
  86       14F 0        0.00000   0.00000  -0.04495   0.00000   0.00495
  87       14F+1        0.00764   0.02765   0.00000   0.00000   0.00000
  88       14F-1        0.00000   0.00000   0.00000  -0.15123   0.00000
  89       14F+2        0.00000   0.00000  -0.03877   0.00000  -0.00539
  90       14F-2        0.00000   0.00000   0.00000   0.00000   0.00000
  91       14F+3        0.00394   0.00752   0.00000   0.00000   0.00000
  92       14F-3        0.00000   0.00000   0.00000  -0.03294   0.00000
  93 3   F  1S          0.00000   0.00000  -0.05299   0.04553  -0.01765
  94        2S          0.00000   0.00000   0.16436  -0.13293   0.04134
  95        3S          0.00000   0.00000   0.07492  -0.06657   0.02734
  96        4S          0.00000   0.00000   0.22514  -0.25194   0.10211
  97        5S          0.00000   0.00000   0.05392  -0.08027   0.05300
  98        6PX        -0.05888  -0.18680   0.00000   0.00000   0.00000
  99        6PY         0.00000   0.00000   0.28503  -0.10492   0.21145
 100        6PZ         0.00000   0.00000   0.14543  -0.22351  -0.18681
 101        7PX        -0.07120  -0.15272   0.00000   0.00000   0.00000
 102        7PY         0.00000   0.00000   0.27256  -0.13772   0.13243
 103        7PZ         0.00000   0.00000   0.15856  -0.19111  -0.07280
 104        8PX        -0.06467   0.02919   0.00000   0.00000   0.00000
 105        8PY         0.00000   0.00000  -0.00246  -0.19584  -0.08129
 106        8PZ         0.00000   0.00000   0.04084   0.09601   0.22570
 107        9PX        -0.01938  -0.00260   0.00000   0.00000   0.00000
 108        9PY         0.00000   0.00000   0.00387  -0.01207  -0.01395
 109        9PZ         0.00000   0.00000  -0.00797  -0.01101   0.03801
 110       10D 0        0.00000   0.00000   0.00247   0.00556   0.01281
 111       10D+1        0.00083   0.00413   0.00000   0.00000   0.00000
 112       10D-1        0.00000   0.00000  -0.01080   0.01146   0.00137
 113       10D+2        0.00000   0.00000   0.00900  -0.00431   0.01261
 114       10D-2        0.00075   0.00568   0.00000   0.00000   0.00000
 115       11D 0        0.00000   0.00000   0.00896   0.02756   0.03911
 116       11D+1        0.00257   0.01565   0.00000   0.00000   0.00000
 117       11D-1        0.00000   0.00000  -0.01232   0.01992   0.01395
 118       11D+2        0.00000   0.00000   0.01371   0.00208   0.03074
 119       11D-2        0.00193   0.01980   0.00000   0.00000   0.00000
 120       12D 0        0.00000   0.00000   0.00724   0.06602   0.02265
 121       12D+1        0.00216   0.01060   0.00000   0.00000   0.00000
 122       12D-1        0.00000   0.00000  -0.00429   0.00174   0.03210
 123       12D+2        0.00000   0.00000   0.01241   0.04366  -0.00033
 124       12D-2       -0.00171   0.00442   0.00000   0.00000   0.00000
 125       13F 0        0.00000   0.00000  -0.00049   0.00081   0.00156
 126       13F+1        0.00018   0.00053   0.00000   0.00000   0.00000
 127       13F-1        0.00000   0.00000   0.00122   0.00075   0.00315
 128       13F+2        0.00000   0.00000  -0.00143  -0.00049  -0.00038
 129       13F-2        0.00039   0.00086   0.00000   0.00000   0.00000
 130       13F+3       -0.00044  -0.00215   0.00000   0.00000   0.00000
 131       13F-3        0.00000   0.00000   0.00045   0.00074   0.00248
 132       14F 0        0.00000   0.00000   0.00247   0.00475   0.00099
 133       14F+1        0.00073   0.00144   0.00000   0.00000   0.00000
 134       14F-1        0.00000   0.00000   0.00080   0.01145   0.00490
 135       14F+2        0.00000   0.00000   0.00344   0.00013   0.00114
 136       14F-2        0.00052   0.00408   0.00000   0.00000   0.00000
 137       14F+3        0.00081   0.00086   0.00000   0.00000   0.00000
 138       14F-3        0.00000   0.00000  -0.00011   0.00068   0.00145
 139 4   F  1S          0.00000   0.00000  -0.05299  -0.04553  -0.01765
 140        2S          0.00000   0.00000   0.16436   0.13293   0.04134
 141        3S          0.00000   0.00000   0.07492   0.06657   0.02734
 142        4S          0.00000   0.00000   0.22514   0.25194   0.10211
 143        5S          0.00000   0.00000   0.05392   0.08027   0.05300
 144        6PX        -0.05888  -0.18680   0.00000   0.00000   0.00000
 145        6PY         0.00000   0.00000  -0.28503  -0.10492  -0.21145
 146        6PZ         0.00000   0.00000   0.14543   0.22351  -0.18681
 147        7PX        -0.07120  -0.15272   0.00000   0.00000   0.00000
 148        7PY         0.00000   0.00000  -0.27256  -0.13772  -0.13243
 149        7PZ         0.00000   0.00000   0.15856   0.19111  -0.07280
 150        8PX        -0.06467   0.02919   0.00000   0.00000   0.00000
 151        8PY         0.00000   0.00000   0.00246  -0.19584   0.08129
 152        8PZ         0.00000   0.00000   0.04084  -0.09601   0.22570
 153        9PX        -0.01938  -0.00260   0.00000   0.00000   0.00000
 154        9PY         0.00000   0.00000  -0.00387  -0.01207   0.01395
 155        9PZ         0.00000   0.00000  -0.00797   0.01101   0.03801
 156       10D 0        0.00000   0.00000   0.00247  -0.00556   0.01281
 157       10D+1        0.00083   0.00413   0.00000   0.00000   0.00000
 158       10D-1        0.00000   0.00000   0.01080   0.01146  -0.00137
 159       10D+2        0.00000   0.00000   0.00900   0.00431   0.01261
 160       10D-2       -0.00075  -0.00568   0.00000   0.00000   0.00000
 161       11D 0        0.00000   0.00000   0.00896  -0.02756   0.03911
 162       11D+1        0.00257   0.01565   0.00000   0.00000   0.00000
 163       11D-1        0.00000   0.00000   0.01232   0.01992  -0.01395
 164       11D+2        0.00000   0.00000   0.01371  -0.00208   0.03074
 165       11D-2       -0.00193  -0.01980   0.00000   0.00000   0.00000
 166       12D 0        0.00000   0.00000   0.00724  -0.06602   0.02265
 167       12D+1        0.00216   0.01060   0.00000   0.00000   0.00000
 168       12D-1        0.00000   0.00000   0.00429   0.00174  -0.03210
 169       12D+2        0.00000   0.00000   0.01241  -0.04366  -0.00033
 170       12D-2        0.00171  -0.00442   0.00000   0.00000   0.00000
 171       13F 0        0.00000   0.00000  -0.00049  -0.00081   0.00156
 172       13F+1        0.00018   0.00053   0.00000   0.00000   0.00000
 173       13F-1        0.00000   0.00000  -0.00122   0.00075  -0.00315
 174       13F+2        0.00000   0.00000  -0.00143   0.00049  -0.00038
 175       13F-2       -0.00039  -0.00086   0.00000   0.00000   0.00000
 176       13F+3       -0.00044  -0.00215   0.00000   0.00000   0.00000
 177       13F-3        0.00000   0.00000  -0.00045   0.00074  -0.00248
 178       14F 0        0.00000   0.00000   0.00247  -0.00475   0.00099
 179       14F+1        0.00073   0.00144   0.00000   0.00000   0.00000
 180       14F-1        0.00000   0.00000  -0.00080   0.01145  -0.00490
 181       14F+2        0.00000   0.00000   0.00344  -0.00013   0.00114
 182       14F-2       -0.00052  -0.00408   0.00000   0.00000   0.00000
 183       14F+3        0.00081   0.00086   0.00000   0.00000   0.00000
 184       14F-3        0.00000   0.00000   0.00011   0.00068  -0.00145
                          21        22        23        24        25
     Eigenvalues --     0.01538   0.01406   0.01390   0.01346   0.01081
   1 1   O  1S         -0.03459   0.00000   0.00000   0.00000  -0.23881
   2        2S          0.06709   0.00000   0.00000   0.00000   0.78159
   3        3S          0.11349   0.00000   0.00000   0.00000   0.65684
   4        4S         -0.82000   0.00000   0.00000   0.00000  -1.17662
   5        5S         -0.46462   0.00000   0.00000   0.00000  -0.28204
   6        6PX         0.00000   0.00000   0.26053   0.00000   0.00000
   7        6PY         0.00000   0.00000   0.00000   0.29993   0.00000
   8        6PZ         0.31432   0.00000   0.00000   0.00000   0.20468
   9        7PX         0.00000   0.00000   0.19999   0.00000   0.00000
  10        7PY         0.00000   0.00000   0.00000   0.16147   0.00000
  11        7PZ         0.30852   0.00000   0.00000   0.00000  -0.03527
  12        8PX         0.00000   0.00000  -0.13675   0.00000   0.00000
  13        8PY         0.00000   0.00000   0.00000  -0.17756   0.00000
  14        8PZ         0.03853   0.00000   0.00000   0.00000  -0.10520
  15        9PX         0.00000   0.00000  -0.03105   0.00000   0.00000
  16        9PY         0.00000   0.00000   0.00000   0.00440   0.00000
  17        9PZ         0.05949   0.00000   0.00000   0.00000  -0.00198
  18       10D 0        0.05647   0.00000   0.00000   0.00000  -0.01883
  19       10D+1        0.00000   0.00000   0.04100   0.00000   0.00000
  20       10D-1        0.00000   0.00000   0.00000  -0.00848   0.00000
  21       10D+2        0.01357   0.00000   0.00000   0.00000  -0.02114
  22       10D-2        0.00000  -0.02395   0.00000   0.00000   0.00000
  23       11D 0        0.09112   0.00000   0.00000   0.00000  -0.06772
  24       11D+1        0.00000   0.00000   0.07492   0.00000   0.00000
  25       11D-1        0.00000   0.00000   0.00000  -0.04655   0.00000
  26       11D+2        0.04621   0.00000   0.00000   0.00000  -0.00784
  27       11D-2        0.00000  -0.07610   0.00000   0.00000   0.00000
  28       12D 0        0.02265   0.00000   0.00000   0.00000  -0.05068
  29       12D+1        0.00000   0.00000  -0.01683   0.00000   0.00000
  30       12D-1        0.00000   0.00000   0.00000  -0.05195   0.00000
  31       12D+2        0.01895   0.00000   0.00000   0.00000   0.01166
  32       12D-2        0.00000  -0.05529   0.00000   0.00000   0.00000
  33       13F 0       -0.01029   0.00000   0.00000   0.00000   0.00151
  34       13F+1        0.00000   0.00000  -0.00665   0.00000   0.00000
  35       13F-1        0.00000   0.00000   0.00000   0.00595   0.00000
  36       13F+2       -0.00446   0.00000   0.00000   0.00000   0.00218
  37       13F-2        0.00000   0.00568   0.00000   0.00000   0.00000
  38       13F+3        0.00000   0.00000  -0.00074   0.00000   0.00000
  39       13F-3        0.00000   0.00000   0.00000  -0.00139   0.00000
  40       14F 0       -0.02605   0.00000   0.00000   0.00000   0.02145
  41       14F+1        0.00000   0.00000  -0.01078   0.00000   0.00000
  42       14F-1        0.00000   0.00000   0.00000   0.00368   0.00000
  43       14F+2       -0.00060   0.00000   0.00000   0.00000  -0.00178
  44       14F-2        0.00000   0.02837   0.00000   0.00000   0.00000
  45       14F+3        0.00000   0.00000   0.00656   0.00000   0.00000
  46       14F-3        0.00000   0.00000   0.00000   0.01267   0.00000
  47 2   C  1S         -0.04208   0.00000   0.00000   0.00000   0.01024
  48        2S          0.18303   0.00000   0.00000   0.00000   0.05188
  49        3S          0.12589   0.00000   0.00000   0.00000   0.05449
  50        4S         -0.12708   0.00000   0.00000   0.00000   0.19567
  51        5S          0.06380   0.00000   0.00000   0.00000   0.05974
  52        6PX         0.00000   0.00000  -0.12675   0.00000   0.00000
  53        6PY         0.00000   0.00000   0.00000   0.21952   0.00000
  54        6PZ         0.34172   0.00000   0.00000   0.00000  -0.12224
  55        7PX         0.00000   0.00000  -0.18330   0.00000   0.00000
  56        7PY         0.00000   0.00000   0.00000   0.48083   0.00000
  57        7PZ         0.51409   0.00000   0.00000   0.00000  -0.02188
  58        8PX         0.00000   0.00000  -0.16399   0.00000   0.00000
  59        8PY         0.00000   0.00000   0.00000   0.44671   0.00000
  60        8PZ         0.45623   0.00000   0.00000   0.00000  -0.03975
  61        9PX         0.00000   0.00000  -0.00790   0.00000   0.00000
  62        9PY         0.00000   0.00000   0.00000  -0.00718   0.00000
  63        9PZ         0.01978   0.00000   0.00000   0.00000   0.00442
  64       10D 0        0.05849   0.00000   0.00000   0.00000  -0.02906
  65       10D+1        0.00000   0.00000  -0.10926   0.00000   0.00000
  66       10D-1        0.00000   0.00000   0.00000  -0.08375   0.00000
  67       10D+2        0.04636   0.00000   0.00000   0.00000  -0.02717
  68       10D-2        0.00000  -0.09136   0.00000   0.00000   0.00000
  69       11D 0        0.18474   0.00000   0.00000   0.00000  -0.12906
  70       11D+1        0.00000   0.00000  -0.21014   0.00000   0.00000
  71       11D-1        0.00000   0.00000   0.00000  -0.47371   0.00000
  72       11D+2        0.18275   0.00000   0.00000   0.00000  -0.04299
  73       11D-2        0.00000  -0.13900   0.00000   0.00000   0.00000
  74       12D 0        0.05195   0.00000   0.00000   0.00000   0.02920
  75       12D+1        0.00000   0.00000  -0.00735   0.00000   0.00000
  76       12D-1        0.00000   0.00000   0.00000  -0.19132   0.00000
  77       12D+2        0.04511   0.00000   0.00000   0.00000   0.00488
  78       12D-2        0.00000   0.02583   0.00000   0.00000   0.00000
  79       13F 0       -0.01365   0.00000   0.00000   0.00000  -0.00591
  80       13F+1        0.00000   0.00000  -0.00742   0.00000   0.00000
  81       13F-1        0.00000   0.00000   0.00000   0.04491   0.00000
  82       13F+2       -0.01550   0.00000   0.00000   0.00000  -0.00680
  83       13F-2        0.00000   0.02987   0.00000   0.00000   0.00000
  84       13F+3        0.00000   0.00000  -0.02651   0.00000   0.00000
  85       13F-3        0.00000   0.00000   0.00000  -0.01104   0.00000
  86       14F 0       -0.06977   0.00000   0.00000   0.00000  -0.05287
  87       14F+1        0.00000   0.00000  -0.04932   0.00000   0.00000
  88       14F-1        0.00000   0.00000   0.00000  -0.12037   0.00000
  89       14F+2       -0.07490   0.00000   0.00000   0.00000  -0.00423
  90       14F-2        0.00000   0.06402   0.00000   0.00000   0.00000
  91       14F+3        0.00000   0.00000  -0.00797   0.00000   0.00000
  92       14F-3        0.00000   0.00000   0.00000  -0.07116   0.00000
  93 3   F  1S          0.01371   0.00000   0.00000   0.05054  -0.02596
  94        2S         -0.02456   0.00000   0.00000  -0.12584   0.06387
  95        3S         -0.03740   0.00000   0.00000  -0.13940   0.06653
  96        4S          0.34444   0.00000   0.00000   0.69683  -0.13696
  97        5S          0.23949   0.00000   0.00000   0.54090  -0.01336
  98        6PX         0.00000  -0.45559  -0.39955   0.00000   0.00000
  99        6PY        -0.09091   0.00000   0.00000   0.34347   0.03428
 100        6PZ         0.32270   0.00000   0.00000  -0.01136  -0.12569
 101        7PX         0.00000  -0.13763  -0.11661   0.00000   0.00000
 102        7PY         0.01429   0.00000   0.00000   0.17892   0.00505
 103        7PZ         0.13701   0.00000   0.00000   0.05768  -0.02321
 104        8PX         0.00000   0.51800   0.50885   0.00000   0.00000
 105        8PY         0.20469   0.00000   0.00000  -0.25708  -0.05560
 106        8PZ        -0.26873   0.00000   0.00000   0.29776   0.14674
 107        9PX         0.00000   0.08158   0.07655   0.00000   0.00000
 108        9PY         0.05553   0.00000   0.00000   0.05406  -0.01359
 109        9PZ        -0.00080   0.00000   0.00000   0.05283   0.02259
 110       10D 0       -0.00085   0.00000   0.00000   0.00330  -0.00009
 111       10D+1        0.00000   0.01488  -0.00448   0.00000   0.00000
 112       10D-1       -0.01381   0.00000   0.00000  -0.02531   0.01742
 113       10D+2        0.00510   0.00000   0.00000   0.00983  -0.00211
 114       10D-2        0.00000   0.00808   0.01368   0.00000   0.00000
 115       11D 0        0.00393   0.00000   0.00000   0.00573  -0.00372
[...]
 114       10D-2        0.00000   0.00000  -0.00877   0.00000   0.00000
 115       11D 0        0.04615  -0.04767   0.00000  -0.06728  -0.01033
 116       11D+1        0.00000   0.00000  -0.11094   0.00000   0.00000
 117       11D-1        0.07272  -0.08330   0.00000  -0.03373   0.01683
 118       11D+2       -0.09450   0.05816   0.00000   0.02319  -0.03486
 119       11D-2        0.00000   0.00000   0.01857   0.00000   0.00000
 120       12D 0        0.39515   0.10207   0.00000   0.19433   0.51047
 121       12D+1        0.00000   0.00000   0.27014   0.00000   0.00000
 122       12D-1        0.69651   0.49285   0.00000  -0.00567   0.33577
 123       12D+2        0.10369  -0.12432   0.00000  -0.17250   0.08322
 124       12D-2        0.00000   0.00000   0.00708   0.00000   0.00000
 125       13F 0        0.00438   0.02184   0.00000  -0.01409  -0.00246
 126       13F+1        0.00000   0.00000   0.00427   0.00000   0.00000
 127       13F-1       -0.04771   0.02251   0.00000   0.00173  -0.01195
 128       13F+2        0.02727  -0.03357   0.00000   0.00148   0.00581
 129       13F-2        0.00000   0.00000   0.01496   0.00000   0.00000
 130       13F+3        0.00000   0.00000   0.00585   0.00000   0.00000
 131       13F-3       -0.00892  -0.01914   0.00000   0.01684   0.00841
 132       14F 0       -0.02176  -0.05185   0.00000   0.04516   0.01764
 133       14F+1        0.00000   0.00000  -0.00181   0.00000   0.00000
 134       14F-1        0.15258  -0.04609   0.00000   0.00486   0.06934
 135       14F+2       -0.08301   0.05863   0.00000  -0.01383  -0.02775
 136       14F-2        0.00000   0.00000  -0.04050   0.00000   0.00000
 137       14F+3        0.00000   0.00000  -0.00394   0.00000   0.00000
 138       14F-3        0.01620   0.04289   0.00000  -0.04771  -0.01514
 139 4   F  1S          0.09039  -0.11137   0.00000   0.02095  -0.00124
 140        2S          0.40683  -0.47896   0.00000   0.08072   0.02374
 141        3S         -0.07474   0.11782   0.00000  -0.02851   0.03269
 142        4S         -1.44378   3.29445   0.00000  -1.77758  -0.58373
 143        5S          1.77632   6.39808   0.00000   2.44267  -3.23489
 144        6PX         0.00000   0.00000  -0.00374   0.00000   0.00000
 145        6PY         0.00258  -0.00762   0.00000  -0.01166   0.01186
 146        6PZ         0.01794   0.00405   0.00000  -0.00289  -0.00689
 147        7PX         0.00000   0.00000   0.00808   0.00000   0.00000
 148        7PY         0.00119   0.02255   0.00000   0.09676  -0.06006
 149        7PZ        -0.09545  -0.01399   0.00000  -0.03391   0.05907
 150        8PX         0.00000   0.00000   0.14320   0.00000   0.00000
 151        8PY         0.60656  -1.22079   0.00000   0.13135   0.39239
 152        8PZ        -1.51078   1.28148   0.00000  -0.48277  -1.49393
 153        9PX         0.00000   0.00000  -0.01699   0.00000   0.00000
 154        9PY        -1.80287  -1.39308   0.00000  -0.20001  -0.50502
 155        9PZ         1.66753   3.40857   0.00000   2.28322  -0.83746
 156       10D 0        0.00894   0.01358   0.00000   0.01983  -0.00364
 157       10D+1        0.00000   0.00000   0.03119   0.00000   0.00000
 158       10D-1       -0.01265  -0.02398   0.00000  -0.00330  -0.00215
 159       10D+2       -0.02553  -0.01886   0.00000  -0.00523  -0.01086
 160       10D-2        0.00000   0.00000   0.00877   0.00000   0.00000
 161       11D 0       -0.04615  -0.04767   0.00000  -0.06728   0.01033
 162       11D+1        0.00000   0.00000  -0.11094   0.00000   0.00000
 163       11D-1        0.07272   0.08330   0.00000   0.03373   0.01683
 164       11D+2        0.09450   0.05816   0.00000   0.02319   0.03486
 165       11D-2        0.00000   0.00000  -0.01857   0.00000   0.00000
 166       12D 0       -0.39515   0.10207   0.00000   0.19433  -0.51047
 167       12D+1        0.00000   0.00000   0.27014   0.00000   0.00000
 168       12D-1        0.69651  -0.49285   0.00000   0.00567   0.33577
 169       12D+2       -0.10369  -0.12432   0.00000  -0.17250  -0.08322
 170       12D-2        0.00000   0.00000  -0.00708   0.00000   0.00000
 171       13F 0       -0.00438   0.02184   0.00000  -0.01409   0.00246
 172       13F+1        0.00000   0.00000   0.00427   0.00000   0.00000
 173       13F-1       -0.04771  -0.02251   0.00000  -0.00173  -0.01195
 174       13F+2       -0.02727  -0.03357   0.00000   0.00148  -0.00581
 175       13F-2        0.00000   0.00000  -0.01496   0.00000   0.00000
 176       13F+3        0.00000   0.00000   0.00585   0.00000   0.00000
 177       13F-3       -0.00892   0.01914   0.00000  -0.01684   0.00841
 178       14F 0        0.02176  -0.05185   0.00000   0.04516  -0.01764
 179       14F+1        0.00000   0.00000  -0.00181   0.00000   0.00000
 180       14F-1        0.15258   0.04609   0.00000  -0.00486   0.06934
 181       14F+2        0.08301   0.05863   0.00000  -0.01383   0.02775
 182       14F-2        0.00000   0.00000   0.04050   0.00000   0.00000
 183       14F+3        0.00000   0.00000  -0.00394   0.00000   0.00000
 184       14F-3        0.01620  -0.04289   0.00000   0.04771  -0.01514
                         181       182       183       184
     Eigenvalues --     0.00000   0.00000   0.00000   0.00000
   1 1   O  1S          0.00000   0.00000   0.11005  -0.05404
   2        2S          0.00000   0.00000   0.54862  -0.26881
   3        3S          0.00000   0.00000  -0.04316   0.02784
   4        4S          0.00000   0.00000  -2.90313   7.09757
   5        5S          0.00000   0.00000 -10.38308  16.53442
   6        6PX         0.01318   0.00000   0.00000   0.00000
   7        6PY         0.00000  -0.00313   0.00000   0.00000
   8        6PZ         0.00000   0.00000   0.01071  -0.00371
   9        7PX        -0.03530   0.00000   0.00000   0.00000
  10        7PY         0.00000   0.01152   0.00000   0.00000
  11        7PZ         0.00000   0.00000  -0.06682  -0.13220
  12        8PX         0.73015   0.00000   0.00000   0.00000
  13        8PY         0.00000  -1.85360   0.00000   0.00000
  14        8PZ         0.00000   0.00000   2.74381  -3.07911
  15        9PX        -1.52240   0.00000   0.00000   0.00000
  16        9PY         0.00000  -4.42535   0.00000   0.00000
  17        9PZ         0.00000   0.00000   2.79943  -3.52529
  18       10D 0        0.00000   0.00000   0.01921  -0.00464
  19       10D+1        0.00799   0.00000   0.00000   0.00000
  20       10D-1        0.00000   0.00206   0.00000   0.00000
  21       10D+2        0.00000   0.00000   0.00024  -0.00669
  22       10D-2        0.00000   0.00000   0.00000   0.00000
  23       11D 0        0.00000   0.00000  -0.14874   0.09206
  24       11D+1       -0.09565   0.00000   0.00000   0.00000
  25       11D-1        0.00000   0.08118   0.00000   0.00000
  26       11D+2        0.00000   0.00000  -0.00267   0.02852
  27       11D-2        0.00000   0.00000   0.00000   0.00000
  28       12D 0        0.00000   0.00000  -0.79834   0.23279
  29       12D+1       -0.11539   0.00000   0.00000   0.00000
  30       12D-1        0.00000   1.09497   0.00000   0.00000
  31       12D+2        0.00000   0.00000  -0.02704   0.12007
  32       12D-2        0.00000   0.00000   0.00000   0.00000
  33       13F 0        0.00000   0.00000   0.00251  -0.02183
  34       13F+1        0.00266   0.00000   0.00000   0.00000
  35       13F-1        0.00000   0.01541   0.00000   0.00000
  36       13F+2        0.00000   0.00000  -0.00152   0.01971
  37       13F-2        0.00000   0.00000   0.00000   0.00000
  38       13F+3       -0.00234   0.00000   0.00000   0.00000
  39       13F-3        0.00000  -0.00161   0.00000   0.00000
  40       14F 0        0.00000   0.00000   0.11410   0.04269
  41       14F+1        0.05430   0.00000   0.00000   0.00000
  42       14F-1        0.00000  -0.18084   0.00000   0.00000
  43       14F+2        0.00000   0.00000   0.01019  -0.06884
  44       14F-2        0.00000   0.00000   0.00000   0.00000
  45       14F+3        0.02190   0.00000   0.00000   0.00000
  46       14F-3        0.00000   0.01986   0.00000   0.00000
  47 2   C  1S          0.00000   0.00000   0.06846  -0.07843
  48        2S          0.00000   0.00000   0.42197  -0.41991
  49        3S          0.00000   0.00000   0.21700   0.18414
  50        4S          0.00000   0.00000  -4.86317 -18.07490
  51        5S          0.00000   0.00000  -0.71666  -9.93165
  52        6PX        -0.00489   0.00000   0.00000   0.00000
  53        6PY         0.00000   0.02104   0.00000   0.00000
  54        6PZ         0.00000   0.00000  -0.01690   0.00585
  55        7PX        -0.08165   0.00000   0.00000   0.00000
  56        7PY         0.00000  -1.17173   0.00000   0.00000
  57        7PZ         0.00000   0.00000   1.65045  -0.20076
  58        8PX         0.68466   0.00000   0.00000   0.00000
  59        8PY         0.00000  -7.99577   0.00000   0.00000
  60        8PZ         0.00000   0.00000   7.17177  -5.30575
  61        9PX         3.14768   0.00000   0.00000   0.00000
  62        9PY         0.00000   2.50191   0.00000   0.00000
  63        9PZ         0.00000   0.00000   1.94809  -0.03226
  64       10D 0        0.00000   0.00000   0.02039   0.03392
  65       10D+1        0.00578   0.00000   0.00000   0.00000
  66       10D-1        0.00000  -0.01254   0.00000   0.00000
  67       10D+2        0.00000   0.00000  -0.00674  -0.02041
  68       10D-2        0.00000   0.00000   0.00000   0.00000
  69       11D 0        0.00000   0.00000   0.35518  -0.98567
  70       11D+1       -0.34346   0.00000   0.00000   0.00000
  71       11D-1        0.00000   2.32998   0.00000   0.00000
  72       11D+2        0.00000   0.00000   0.89296   0.61105
  73       11D-2        0.00000   0.00000   0.00000   0.00000
  74       12D 0        0.00000   0.00000   0.36112  -2.79083
  75       12D+1       -0.37932   0.00000   0.00000   0.00000
  76       12D-1        0.00000   4.67013   0.00000   0.00000
  77       12D+2        0.00000   0.00000   0.92874  -0.01316
  78       12D-2        0.00000   0.00000   0.00000   0.00000
  79       13F 0        0.00000   0.00000  -0.05166  -0.02968
  80       13F+1       -0.04847   0.00000   0.00000   0.00000
  81       13F-1        0.00000  -0.00946   0.00000   0.00000
  82       13F+2        0.00000   0.00000  -0.04517  -0.02200
  83       13F-2        0.00000   0.00000   0.00000   0.00000
  84       13F+3        0.04624   0.00000   0.00000   0.00000
  85       13F-3        0.00000   0.05931   0.00000   0.00000
  86       14F 0        0.00000   0.00000  -0.34021  -0.50641
  87       14F+1       -0.10589   0.00000   0.00000   0.00000
  88       14F-1        0.00000  -0.13080   0.00000   0.00000
  89       14F+2        0.00000   0.00000  -0.24333  -0.38440
  90       14F-2        0.00000   0.00000   0.00000   0.00000
  91       14F+3       -0.22914   0.00000   0.00000   0.00000
  92       14F-3        0.00000  -0.08636   0.00000   0.00000
  93 3   F  1S          0.00000   0.09654  -0.02435  -0.01650
  94        2S          0.00000   0.44819  -0.13563  -0.09579
  95        3S          0.00000  -0.06175  -0.01595  -0.01037
  96        4S          0.00000  -3.04196   1.89328   1.72226
  97        5S          0.00000 -16.42426   8.08398   2.38559
  98        6PX         0.01752   0.00000   0.00000   0.00000
  99        6PY         0.00000  -0.01045   0.01020   0.00465
 100        6PZ         0.00000  -0.00613   0.00726   0.00262
 101        7PX        -0.06695   0.00000   0.00000   0.00000
 102        7PY         0.00000   0.04973  -0.04557  -0.01988
 103        7PZ         0.00000   0.02146  -0.02804  -0.00890
 104        8PX        -0.00465   0.00000   0.00000   0.00000
 105        8PY         0.00000  -2.51275   1.50473   1.22776
 106        8PZ         0.00000  -1.39635   1.32826   0.87917
 107        9PX        -1.36775   0.00000   0.00000   0.00000
 108        9PY         0.00000  -5.58850   1.48053   0.47275
 109        9PZ         0.00000  -1.94093   1.13630  -1.12900
 110       10D 0        0.00000   0.00191  -0.00451   0.00040
 111       10D+1       -0.00721   0.00000   0.00000   0.00000
 112       10D-1        0.00000  -0.00527  -0.00378  -0.00543
 113       10D+2        0.00000   0.01910  -0.00426   0.00081
 114       10D-2       -0.00903   0.00000   0.00000   0.00000
 115       11D 0        0.00000  -0.00935   0.02237  -0.00825
 116       11D+1        0.02375   0.00000   0.00000   0.00000
 117       11D-1        0.00000  -0.01361   0.04589   0.03118
 118       11D+2        0.00000  -0.04237  -0.00124  -0.01114
 119       11D-2        0.03284   0.00000   0.00000   0.00000
 120       12D 0        0.00000   0.27763   0.08103   0.00231
 121       12D+1       -0.16671   0.00000   0.00000   0.00000
 122       12D-1        0.00000  -0.67147   0.46496   0.23488
 123       12D+2        0.00000   0.64701  -0.20042  -0.17442
 124       12D-2       -0.14391   0.00000   0.00000   0.00000
 125       13F 0        0.00000  -0.01329   0.00315   0.00523
 126       13F+1        0.00534   0.00000   0.00000   0.00000
 127       13F-1        0.00000  -0.00239  -0.01248  -0.00195
 128       13F+2        0.00000   0.00626   0.00959   0.00143
 129       13F-2        0.01523   0.00000   0.00000   0.00000
 130       13F+3        0.00717   0.00000   0.00000   0.00000
 131       13F-3        0.00000   0.00999  -0.00933  -0.00825
 132       14F 0        0.00000   0.07052  -0.02293  -0.02434
 133       14F+1       -0.01889   0.00000   0.00000   0.00000
 134       14F-1        0.00000   0.00238   0.06154   0.00336
 135       14F+2        0.00000   0.03355  -0.05715  -0.01792
 136       14F-2       -0.03160   0.00000   0.00000   0.00000
 137       14F+3       -0.01592   0.00000   0.00000   0.00000
 138       14F-3        0.00000   0.01209   0.01354   0.00477
 139 4   F  1S          0.00000  -0.09654  -0.02435  -0.01650
 140        2S          0.00000  -0.44819  -0.13563  -0.09579
 141        3S          0.00000   0.06175  -0.01595  -0.01037
 142        4S          0.00000   3.04196   1.89328   1.72226
 143        5S          0.00000  16.42426   8.08398   2.38559
 144        6PX         0.01752   0.00000   0.00000   0.00000
 145        6PY         0.00000  -0.01045  -0.01020  -0.00465
 146        6PZ         0.00000   0.00613   0.00726   0.00262
 147        7PX        -0.06695   0.00000   0.00000   0.00000
 148        7PY         0.00000   0.04973   0.04557   0.01988
 149        7PZ         0.00000  -0.02146  -0.02804  -0.00890
 150        8PX        -0.00465   0.00000   0.00000   0.00000
 151        8PY         0.00000  -2.51275  -1.50473  -1.22776
 152        8PZ         0.00000   1.39635   1.32826   0.87917
 153        9PX        -1.36775   0.00000   0.00000   0.00000
 154        9PY         0.00000  -5.58850  -1.48053  -0.47275
 155        9PZ         0.00000   1.94093   1.13630  -1.12900
 156       10D 0        0.00000  -0.00191  -0.00451   0.00040
 157       10D+1       -0.00721   0.00000   0.00000   0.00000
 158       10D-1        0.00000  -0.00527   0.00378   0.00543
 159       10D+2        0.00000  -0.01910  -0.00426   0.00081
 160       10D-2        0.00903   0.00000   0.00000   0.00000
 161       11D 0        0.00000   0.00935   0.02237  -0.00825
 162       11D+1        0.02375   0.00000   0.00000   0.00000
 163       11D-1        0.00000  -0.01361  -0.04589  -0.03118
 164       11D+2        0.00000   0.04237  -0.00124  -0.01114
 165       11D-2       -0.03284   0.00000   0.00000   0.00000
 166       12D 0        0.00000  -0.27763   0.08103   0.00231
 167       12D+1       -0.16671   0.00000   0.00000   0.00000
 168       12D-1        0.00000  -0.67147  -0.46496  -0.23488
 169       12D+2        0.00000  -0.64701  -0.20042  -0.17442
 170       12D-2        0.14391   0.00000   0.00000   0.00000
 171       13F 0        0.00000   0.01329   0.00315   0.00523
 172       13F+1        0.00534   0.00000   0.00000   0.00000
 173       13F-1        0.00000  -0.00239   0.01248   0.00195
 174       13F+2        0.00000  -0.00626   0.00959   0.00143
 175       13F-2       -0.01523   0.00000   0.00000   0.00000
 176       13F+3        0.00717   0.00000   0.00000   0.00000
 177       13F-3        0.00000   0.00999   0.00933   0.00825
 178       14F 0        0.00000  -0.07052  -0.02293  -0.02434
 179       14F+1       -0.01889   0.00000   0.00000   0.00000
 180       14F-1        0.00000   0.00238  -0.06154  -0.00336
 181       14F+2        0.00000  -0.03355  -0.05715  -0.01792
 182       14F-2        0.03160   0.00000   0.00000   0.00000
 183       14F+3       -0.01592   0.00000   0.00000   0.00000
 184       14F-3        0.00000   0.01209  -0.01354  -0.00477
          Condensed to atoms (all electrons):
              1          2          3          4
     1  O    7.941448   0.504272  -0.081158  -0.081158
     2  C    0.504272   4.515981   0.184868   0.184868
     3  F   -0.081158   0.184868   9.108172  -0.048579
     4  F   -0.081158   0.184868  -0.048579   9.108172
 Mulliken atomic charges:
              1
     1  O   -0.283405
     2  C    0.610011
     3  F   -0.163303
     4  F   -0.163303
 Sum of Mulliken atomic charges =   0.00000
 Mulliken charges with hydrogens summed into heavy atoms:
              1
     1  O   -0.283405
     2  C    0.610011
     3  F   -0.163303
     4  F   -0.163303
 Sum of Mulliken charges with hydrogens summed into heavy atoms =   0.00000
 Electronic spatial extent (au):  <R**2>=            239.0134
 Charge=              0.0000 electrons
 Dipole moment (field-independent basis, Debye):
    X=              0.0000    Y=              0.0000    Z=             -0.9860  Tot=              0.9860
 Quadrupole moment (field-independent basis, Debye-Ang):
   XX=            -18.8752   YY=            -21.3179   ZZ=            -21.9223
   XY=              0.0000   XZ=              0.0000   YZ=              0.0000
 Traceless Quadrupole moment (field-independent basis, Debye-Ang):
   XX=              1.8299   YY=             -0.6128   ZZ=             -1.2171
   XY=              0.0000   XZ=              0.0000   YZ=              0.0000
 Octapole moment (field-independent basis, Debye-Ang**2):
  XXX=              0.0000  YYY=              0.0000  ZZZ=             34.5336  XYY=              0.0000
  XXY=              0.0000  XXZ=             10.4221  XZZ=              0.0000  YZZ=              0.0000
  YYZ=             12.1303  XYZ=              0.0000
 Hexadecapole moment (field-independent basis, Debye-Ang**3):
 XXXX=            -13.4249 YYYY=            -79.9747 ZZZZ=           -132.0665 XXXY=              0.0000
 XXXZ=              0.0000 YYYX=              0.0000 YYYZ=              0.0000 ZZZX=              0.0000
 ZZZY=              0.0000 XXYY=            -15.6356 XXZZ=            -23.4930 YYZZ=            -36.1274
 XXYZ=              0.0000 YYXZ=              0.0000 ZZXY=              0.0000
 N-N= 1.202645242552D+02 E-N=-9.826177000049D+02  KE= 3.124308103474D+02
 1\1\GINC-TRAPISTA\SP\RQCISD-FC\Aug-CC-pVTZ\C1F2O1\BRUNS\26-Nov-2021\0\
 \# qcisd/aug-cc-pvtz nosymm density=current output=wfn\\f2co-wavefunct
 ion\\0,1\O,0,0.,0.,0.669927\C,0,0.,0.,-0.492216\F,0,0.,-1.058878,-1.26
 4305\F,0,0.,1.058878,-1.264305\\Version=EM64L-G09RevB.01\HF=-311.74205
 07\MP2=-312.6367226\MP3=-312.6246889\MP4D=-312.640108\MP4DQ=-312.62415
 79\MP4SDQ=-312.6355812\QCISD=-312.6351048\RMSD=8.310e-09\Dipole=0.,0.,
 -0.3879109\Quadrupole=1.3604878,-0.4555705,-0.9049173,0.,0.,0.\PG=C02V
  [C2(C1O1),SGV(F2)]\\@

 Writing a WFN file to GAUSSIAN.wfn.


 CHARLIE BROWN -- WHICH DO YOU THINK LASTS LONGER IN LIFE, THE GOOD THINGS 
                  OR THE BAD THINGS?
 LINUS --         GOOD THINGS LAST EIGHT SECONDS ..
                  BAD THINGS LAST THREE WEEKS
 CHARLIE BROWN -- WHAT ABOUT IN BETWEEN?
 SNOOPY --        IN BETWEEN YOU SHOULD TAKE A NAP ...
 Job cpu time:  0 days  1 hours 54 minutes 11.3 seconds.
 File lengths (MBytes):  RWF=  17462 Int=      0 D2E=      0 Chk=      3 Scr=      1
 Normal termination of Gaussian 09 at Fri Nov 26 19:20:22 2021.
