 Entering Gaussian System, Link 0=/home/bruns/programas/chemistry/gaussian/g09/g09
 Input=GAUSSIAN.com
 Output=GAUSSIAN.log
 Initial command:
 /home/bruns/programas/chemistry/gaussian/g09/l1.exe /home/bruns/programas/chemistry/gaussian/work/Gau-20476.inp -scrdir=/home/bruns/programas/chemistry/gaussian/work/
 Entering Link 1 = /home/bruns/programas/chemistry/gaussian/g09/l1.exe PID=     20478.
  
 Copyright (c) 1988,1990,1992,1993,1995,1998,2003,2009,2010,
            Gaussian, Inc.  All Rights Reserved.
  
 This is part of the Gaussian(R) 09 program.  It is based on
 the Gaussian(R) 03 system (copyright 2003, Gaussian, Inc.),
 the Gaussian(R) 98 system (copyright 1998, Gaussian, Inc.),
 the Gaussian(R) 94 system (copyright 1995, Gaussian, Inc.),
 the Gaussian 92(TM) system (copyright 1992, Gaussian, Inc.),
 the Gaussian 90(TM) system (copyright 1990, Gaussian, Inc.),
 the Gaussian 88(TM) system (copyright 1988, Gaussian, Inc.),
 the Gaussian 86(TM) system (copyright 1986, Carnegie Mellon
 University), and the Gaussian 82(TM) system (copyright 1983,
 Carnegie Mellon University). Gaussian is a federally registered
 trademark of Gaussian, Inc.
  
 This software contains proprietary and confidential information,
 including trade secrets, belonging to Gaussian, Inc.
  
 This software is provided under written license and may be
 used, copied, transmitted, or stored only in accord with that
 written license.
  
 The following legend is applicable only to US Government
 contracts under FAR:
  
                    RESTRICTED RIGHTS LEGEND
  
 Use, reproduction and disclosure by the US Government is
 subject to restrictions as set forth in subparagraphs (a)
 and (c) of the Commercial Computer Software - Restricted
 Rights clause in FAR 52.227-19.
  
 Gaussian, Inc.
 340 Quinnipiac St., Bldg. 40, Wallingford CT 06492
  
  
 ---------------------------------------------------------------
 Warning -- This program may not be used in any manner that
 competes with the business of Gaussian, Inc. or will provide
 assistance to any competitor of Gaussian, Inc.  The licensee
 of this program is prohibited from giving any competitor of
 Gaussian, Inc. access to this program.  By using this program,
 the user acknowledges that Gaussian, Inc. is engaged in the
 business of creating and licensing software in the field of
 computational chemistry and represents and warrants to the
 licensee that it is not a competitor of Gaussian, Inc. and that
 it will not use this program in any manner prohibited above.
 ---------------------------------------------------------------
  

 Cite this work as:
 Gaussian 09, Revision B.01,
 M. J. Frisch, G. W. Trucks, H. B. Schlegel, G. E. Scuseria, 
 M. A. Robb, J. R. Cheeseman, G. Scalmani, V. Barone, B. Mennucci, 
 G. A. Petersson, H. Nakatsuji, M. Caricato, X. Li, H. P. Hratchian, 
 A. F. Izmaylov, J. Bloino, G. Zheng, J. L. Sonnenberg, M. Hada, 
 M. Ehara, K. Toyota, R. Fukuda, J. Hasegawa, M. Ishida, T. Nakajima, 
 Y. Honda, O. Kitao, H. Nakai, T. Vreven, J. A. Montgomery, Jr., 
 J. E. Peralta, F. Ogliaro, M. Bearpark, J. J. Heyd, E. Brothers, 
 K. N. Kudin, V. N. Staroverov, T. Keith, R. Kobayashi, J. Normand, 
 K. Raghavachari, A. Rendell, J. C. Burant, S. S. Iyengar, J. Tomasi, 
 M. Cossi, N. Rega, J. M. Millam, M. Klene, J. E. Knox, J. B. Cross, 
 V. Bakken, C. Adamo, J. Jaramillo, R. Gomperts, R. E. Stratmann, 
 O. Yazyev, A. J. Austin, R. Cammi, C. Pomelli, J. W. Ochterski, 
 R. L. Martin, K. Morokuma, V. G. Zakrzewski, G. A. Voth, 
 P. Salvador, J. J. Dannenberg, S. Dapprich, A. D. Daniels, 
 O. Farkas, J. B. Foresman, J. V. Ortiz, J. Cioslowski, 
 and D. J. Fox, Gaussian, Inc., Wallingford CT, 2010.
 
 ******************************************
 Gaussian 09:  EM64L-G09RevB.01 12-Aug-2010
                26-Nov-2021 
 ******************************************
 %nproc=8
 Will use up to    8 processors via shared memory.
 %mem=8GB
 -----------------------------------------------------
 # qcisd/aug-cc-pvtz nosymm density=current output=wfn
 -----------------------------------------------------
 1/30=1,38=1/1;
 2/12=2,15=1,17=6,18=5,40=1/2;
 3/5=16,6=1,7=10,11=9,16=1,25=1,30=1,71=1/1,2,3;
 4//1;
 5/5=2,38=5/2;
 8/6=4,9=120000,10=1/1,4;
 9/5=8,15=1/13;
 11/28=-7,31=1,32=3,42=3/11;
 10/5=6,13=10,31=1/2;
 6/7=2,8=2,9=2,10=2,22=-1,31=1/1;
 99/5=1,6=1100,9=1/99;
 -----------------
 f2co-wavefunction
 -----------------
 Symbolic Z-matrix:
 Charge =  0 Multiplicity = 1
 O                     0.        0.        0.67993 
 C                     0.       -0.01     -0.49222 
 F                     0.       -1.05888  -1.26431 
 F                     0.        1.05888  -1.26431 
 
                          Input orientation:                          
 ---------------------------------------------------------------------
 Center     Atomic      Atomic             Coordinates (Angstroms)
 Number     Number       Type             X           Y           Z
 ---------------------------------------------------------------------
      1          8           0        0.000000    0.000000    0.679927
      2          6           0        0.000000   -0.010000   -0.492216
      3          9           0        0.000000   -1.058878   -1.264305
      4          9           0        0.000000    1.058878   -1.264305
 ---------------------------------------------------------------------
                    Distance matrix (angstroms):
                    1          2          3          4
     1  O    0.000000
     2  C    1.172186   0.000000
     3  F    2.213879   1.302408   0.000000
     4  F    2.213879   1.318568   2.117756   0.000000
 Symmetry turned off by external request.
 Stoichiometry    CF2O
 Framework group  CS[SG(CF2O)]
 Deg. of freedom     5
 Full point group                 CS      NOp   2
 Rotational constants (GHZ):     11.8625998     11.7725484      5.9087013
 Standard basis: Aug-CC-pVTZ (5D, 7F)
 Integral buffers will be    131072 words long.
 Raffenetti 1 integral format.
 Two-electron integral symmetry is turned off.
   184 basis functions,   288 primitive gaussians,   220 cartesian basis functions
    16 alpha electrons       16 beta electrons
       nuclear repulsion energy       119.9414863912 Hartrees.
 NAtoms=    4 NActive=    4 NUniq=    4 SFac= 1.00D+00 NAtFMM=   50 NAOKFM=F Big=F
 One-electron integrals computed using PRISM.
 NBasis=   184 RedAO= T  NBF=   184
 NBsUse=   184 1.00D-06 NBFU=   184
 Harris functional with IExCor=  205 diagonalized for initial guess.
 ExpMin= 3.57D-02 ExpMax= 1.95D+04 ExpMxC= 6.65D+02 IAcc=3 IRadAn=         0 AccDes= 0.00D+00
 HarFok:  IExCor=  205 AccDes= 0.00D+00 IRadAn=         0 IDoV= 1
 ScaDFX=  1.000000  1.000000  1.000000  1.000000
 FoFCou: FMM=F IPFlag=           0 FMFlag=      100000 FMFlg1=           0
         NFxFlg=           0 DoJE=T BraDBF=F KetDBF=T FulRan=T
         Omega=  0.000000  0.000000  1.000000  0.000000  0.000000 ICntrl=     500 IOpCl=  0
         NMat0=    1 NMatS0=    1 NMatT0=    0 NMatD0=    1 NMtDS0=    0 NMtDT0=    0
         I1Cent=           4 NGrid=           0.
 Symmetry not used in FoFCou.
 Requested convergence on RMS density matrix=1.00D-08 within 128 cycles.
 Requested convergence on MAX density matrix=1.00D-06.
 Requested convergence on             energy=1.00D-06.
 No special actions if energy rises.
 Keep R1 ints in memory in canonical form, NReq=301063473.
 SCF Done:  E(RHF) =  -311.741129010     A.U. after   12 cycles
             Convg  =    0.3673D-08             -V/T =  2.0014
 ExpMin= 3.57D-02 ExpMax= 1.95D+04 ExpMxC= 6.65D+02 IAcc=3 IRadAn=         5 AccDes= 0.00D+00
 HarFok:  IExCor=  205 AccDes= 0.00D+00 IRadAn=         5 IDoV=-2
 ScaDFX=  1.000000  1.000000  1.000000  1.000000
 Range of M.O.s used for correlation:     5   184
 NBasis=   184 NAE=    16 NBE=    16 NFC=     4 NFV=     0
 NROrb=    180 NOA=    12 NOB=    12 NVA=   168 NVB=   168

 **** Warning!!: The largest alpha MO coefficient is  0.15536915D+02

 Semi-Direct transformation.
 ModeAB=           2 MOrb=            12 LenV=    1072785587
 LASXX=     33405819 LTotXX=    33405819 LenRXX=    33405819
 LTotAB=    33954012 MaxLAS=    52509600 LenRXY=    52509600
 NonZer=    66811638 LenScr=   100987392 LnRSAI=           0
 LnScr1=           0 LExtra=           0 Total=    186902811
 MaxDsk=          -1 SrtSym=           F ITran=            4
 JobTyp=0 Pass  1:  I=   1 to  12.
 (rs|ai) integrals will be sorted in core.
 Spin components of T(2) and E(2):
     alpha-alpha T2 =       0.2657478057D-01 E2=     -0.1191107615D+00
     alpha-beta  T2 =       0.1371320138D+00 E2=     -0.6576933786D+00
     beta-beta   T2 =       0.2657478057D-01 E2=     -0.1191107615D+00
 ANorm=    0.1091000263D+01
 E2 =    -0.8959149015D+00 EUMP2 =    -0.31263704391129D+03
 R2 and R3 integrals will be kept in memory, NReq=   596397230.
 Iterations=  50 Convergence= 0.100D-07
 Iteration Nr.   1
 **********************
 DD1Dir will call FoFMem   1 times, MxPair=       156
 NAB=    78 NAA=     0 NBB=     0.
 MP4(R+Q)=  0.16058105D-01
 E3=        0.12505438D-01        EUMP3=      -0.31262453847D+03
 E4(DQ)=    0.45682833D-03        UMP4(DQ)=   -0.31262408165D+03
 E4(SDQ)=  -0.11148337D-01        UMP4(SDQ)=  -0.31263568681D+03
 DE(Corr)= -0.86735136     E(Corr)=     -312.60848037    
 NORM(A)=   0.10858780D+01
 Iteration Nr.   2
 **********************
 DD1Dir will call FoFMem   1 times, MxPair=       156
 NAB=    78 NAA=     0 NBB=     0.
 DE(Corr)= -0.89322257     E(CORR)=     -312.63435158     Delta=-2.59D-02
 NORM(A)=   0.10931786D+01
 Iteration Nr.   3
 **********************
 DD1Dir will call FoFMem   1 times, MxPair=       156
 NAB=    78 NAA=     0 NBB=     0.
 DE(Corr)= -0.89146340     E(CORR)=     -312.63259241     Delta= 1.76D-03
 NORM(A)=   0.10954107D+01
 Iteration Nr.   4
 **********************
 DD1Dir will call FoFMem   1 times, MxPair=       156
 NAB=    78 NAA=     0 NBB=     0.
 DE(Corr)= -0.89376660     E(CORR)=     -312.63489561     Delta=-2.30D-03
 NORM(A)=   0.10962173D+01
 Iteration Nr.   5
 **********************
 DD1Dir will call FoFMem   1 times, MxPair=       156
 NAB=    78 NAA=     0 NBB=     0.
 DE(Corr)= -0.89403250     E(CORR)=     -312.63516151     Delta=-2.66D-04
 NORM(A)=   0.10963999D+01
 Iteration Nr.   6
 **********************
 DD1Dir will call FoFMem   1 times, MxPair=       156
 NAB=    78 NAA=     0 NBB=     0.
 DE(Corr)= -0.89405901     E(CORR)=     -312.63518802     Delta=-2.65D-05
 NORM(A)=   0.10964132D+01
 Iteration Nr.   7
 **********************
 DD1Dir will call FoFMem   1 times, MxPair=       156
 NAB=    78 NAA=     0 NBB=     0.
 DE(Corr)= -0.89406064     E(CORR)=     -312.63518965     Delta=-1.63D-06
 NORM(A)=   0.10964130D+01
 Iteration Nr.   8
 **********************
 DD1Dir will call FoFMem   1 times, MxPair=       156
 NAB=    78 NAA=     0 NBB=     0.
 DE(Corr)= -0.89405963     E(CORR)=     -312.63518864     Delta= 1.01D-06
 NORM(A)=   0.10964135D+01
 Iteration Nr.   9
 **********************
 DD1Dir will call FoFMem   1 times, MxPair=       156
 NAB=    78 NAA=     0 NBB=     0.
 DE(Corr)= -0.89406002     E(CORR)=     -312.63518903     Delta=-3.88D-07
 NORM(A)=   0.10964135D+01
 Iteration Nr.  10
 **********************
 DD1Dir will call FoFMem   1 times, MxPair=       156
 NAB=    78 NAA=     0 NBB=     0.
 DE(Corr)= -0.89405992     E(CORR)=     -312.63518893     Delta= 9.60D-08
 NORM(A)=   0.10964137D+01
 Iteration Nr.  11
 **********************
 DD1Dir will call FoFMem   1 times, MxPair=       156
 NAB=    78 NAA=     0 NBB=     0.
 DE(Corr)= -0.89406039     E(CORR)=     -312.63518940     Delta=-4.72D-07
 NORM(A)=   0.10964140D+01
 Iteration Nr.  12
 **********************
 DD1Dir will call FoFMem   1 times, MxPair=       156
 NAB=    78 NAA=     0 NBB=     0.
 DE(Corr)= -0.89406043     E(CORR)=     -312.63518944     Delta=-3.70D-08
 NORM(A)=   0.10964142D+01
 Iteration Nr.  13
 **********************
 DD1Dir will call FoFMem   1 times, MxPair=       156
 NAB=    78 NAA=     0 NBB=     0.
 DE(Corr)= -0.89406053     E(CORR)=     -312.63518954     Delta=-9.73D-08
 NORM(A)=   0.10964143D+01
 Iteration Nr.  14
 **********************
 DD1Dir will call FoFMem   1 times, MxPair=       156
 NAB=    78 NAA=     0 NBB=     0.
 DE(Corr)= -0.89406055     E(CORR)=     -312.63518955     Delta=-1.65D-08
 NORM(A)=   0.10964143D+01
 Iteration Nr.  15
 **********************
 DD1Dir will call FoFMem   1 times, MxPair=       156
 NAB=    78 NAA=     0 NBB=     0.
 DE(Corr)= -0.89406055     E(CORR)=     -312.63518956     Delta=-9.33D-09
 NORM(A)=   0.10964143D+01
 Iteration Nr.  16
 **********************
 DD1Dir will call FoFMem   1 times, MxPair=       156
 NAB=    78 NAA=     0 NBB=     0.
 DE(Corr)= -0.89406056     E(CORR)=     -312.63518957     Delta=-3.95D-09
 NORM(A)=   0.10964143D+01
 Largest amplitude= 5.78D-02

 Z-AMPLITUDE ITERATIONS

 Iteration Nr.   1
 **********************
 DD1Dir will call FoFMem   1 times, MxPair=       156
 NAB=    78 NAA=     0 NBB=     0.
 DE(Z)  -0.87475610D+00          E(Z)=    -0.31261588511D+03
 NORM(A)=   0.10964057D+01
 Iteration Nr.   2
 **********************
 DD1Dir will call FoFMem   1 times, MxPair=       156
 NAB=    78 NAA=     0 NBB=     0.
 DE(Z)  -0.87475607D+00          E(Z)=    -0.31261588508D+03
 NORM(A)=   0.10962456D+01
 Iteration Nr.   3
 **********************
 DD1Dir will call FoFMem   1 times, MxPair=       156
 NAB=    78 NAA=     0 NBB=     0.
 DE(Z)  -0.87475416D+00          E(Z)=    -0.31261588317D+03
 NORM(A)=   0.10963703D+01
 Iteration Nr.   4
 **********************
 DD1Dir will call FoFMem   1 times, MxPair=       156
 NAB=    78 NAA=     0 NBB=     0.
 DE(Z)  -0.87475574D+00          E(Z)=    -0.31261588475D+03
 NORM(A)=   0.10964706D+01
 Iteration Nr.   5
 **********************
 DD1Dir will call FoFMem   1 times, MxPair=       156
 NAB=    78 NAA=     0 NBB=     0.
 DE(Z)  -0.87475686D+00          E(Z)=    -0.31261588587D+03
 NORM(A)=   0.10919720D+01
 Iteration Nr.   6
 **********************
 DD1Dir will call FoFMem   1 times, MxPair=       156
 NAB=    78 NAA=     0 NBB=     0.
 DE(Z)  -0.87470045D+00          E(Z)=    -0.31261582946D+03
 NORM(A)=   0.10919718D+01
 Iteration Nr.   7
 **********************
 DD1Dir will call FoFMem   1 times, MxPair=       156
 NAB=    78 NAA=     0 NBB=     0.
 DE(Z)  -0.87469924D+00          E(Z)=    -0.31261582825D+03
 NORM(A)=   0.10919718D+01
 Iteration Nr.   8
 **********************
 DD1Dir will call FoFMem   1 times, MxPair=       156
 NAB=    78 NAA=     0 NBB=     0.
 DE(Z)  -0.87469957D+00          E(Z)=    -0.31261582858D+03
 NORM(A)=   0.10919721D+01
 Iteration Nr.   9
 **********************
 DD1Dir will call FoFMem   1 times, MxPair=       156
 NAB=    78 NAA=     0 NBB=     0.
 DE(Z)  -0.87469933D+00          E(Z)=    -0.31261582834D+03
 NORM(A)=   0.10919722D+01
 Iteration Nr.  10
 **********************
 DD1Dir will call FoFMem   1 times, MxPair=       156
 NAB=    78 NAA=     0 NBB=     0.
 DE(Z)  -0.87469943D+00          E(Z)=    -0.31261582843D+03
 NORM(A)=   0.10919722D+01
 Iteration Nr.  11
 **********************
 DD1Dir will call FoFMem   1 times, MxPair=       156
 NAB=    78 NAA=     0 NBB=     0.
 DE(Z)  -0.87469940D+00          E(Z)=    -0.31261582841D+03
 NORM(A)=   0.10919722D+01
 Iteration Nr.  12
 **********************
 DD1Dir will call FoFMem   1 times, MxPair=       156
 NAB=    78 NAA=     0 NBB=     0.
 DE(Z)  -0.87469941D+00          E(Z)=    -0.31261582842D+03
 NORM(A)=   0.10919722D+01
 Iteration Nr.  13
 **********************
 DD1Dir will call FoFMem   1 times, MxPair=       156
 NAB=    78 NAA=     0 NBB=     0.
 DE(Z)  -0.87469941D+00          E(Z)=    -0.31261582842D+03
 NORM(A)=   0.10919722D+01
 Discarding MO integrals.
          Differentiating once with respect to electric field.
                with respect to dipole field.
          Electric field/nuclear overlap derivatives assumed to be zero.
          Keep R1 ints in memory in canonical form, NReq=297441306.
          There are     1 degrees of freedom in the 1st order CPHF.  IDoFFX=0.
 LinEq1:  Iter=  0 NonCon=     1 RMS=3.07D-03 Max=8.43D-02
 AX will form     1 AO Fock derivatives at one time.
 LinEq1:  Iter=  1 NonCon=     1 RMS=7.55D-04 Max=1.10D-02
 LinEq1:  Iter=  2 NonCon=     1 RMS=2.24D-04 Max=3.36D-03
 LinEq1:  Iter=  3 NonCon=     1 RMS=9.88D-05 Max=1.57D-03
 LinEq1:  Iter=  4 NonCon=     1 RMS=2.27D-05 Max=3.70D-04
 LinEq1:  Iter=  5 NonCon=     1 RMS=1.09D-05 Max=2.98D-04
 LinEq1:  Iter=  6 NonCon=     1 RMS=2.62D-06 Max=4.73D-05
 LinEq1:  Iter=  7 NonCon=     1 RMS=5.36D-07 Max=1.03D-05
 LinEq1:  Iter=  8 NonCon=     1 RMS=1.05D-07 Max=1.23D-06
 LinEq1:  Iter=  9 NonCon=     1 RMS=3.73D-08 Max=5.20D-07
 LinEq1:  Iter= 10 NonCon=     1 RMS=1.11D-08 Max=1.33D-07
 LinEq1:  Iter= 11 NonCon=     1 RMS=1.47D-09 Max=1.72D-08
 LinEq1:  Iter= 12 NonCon=     1 RMS=2.96D-10 Max=3.40D-09
 LinEq1:  Iter= 13 NonCon=     0 RMS=4.81D-11 Max=4.28D-10
 Linear equations converged to 1.000D-10 1.000D-09 after    13 iterations.
 End of Minotr Frequency-dependent properties file   721 does not exist.
 End of Minotr Frequency-dependent properties file   722 does not exist.

 **********************************************************************

            Population analysis using the QCI/CC density.

 **********************************************************************

     Natural Orbital Coefficients:
                           1         2         3         4         5
     Eigenvalues --     2.00001   2.00000   2.00000   2.00000   1.98618
   1 1   O  1S         -0.63128  -0.72177   0.00668   0.19934  -0.01938
   2        2S          0.01166   0.01269  -0.00014  -0.00382   0.04659
   3        3S         -0.02675  -0.03101   0.00029   0.00865   0.01301
   4        4S          0.00202   0.00275  -0.00009  -0.00173  -0.00021
   5        5S         -0.00050   0.00091  -0.00009  -0.00176  -0.01903
   6        6PX         0.00000   0.00000   0.00000   0.00000   0.00000
   7        6PY         0.00005   0.00003   0.00018  -0.00001  -0.00097
   8        6PZ         0.00404   0.00178  -0.00001   0.00011  -0.01418
   9        7PX         0.00000   0.00000   0.00000   0.00000   0.00000
  10        7PY         0.00002  -0.00001   0.00012   0.00003  -0.00105
  11        7PZ         0.00267  -0.00196   0.00005   0.00167  -0.01381
  12        8PX         0.00000   0.00000   0.00000   0.00000   0.00000
  13        8PY         0.00001   0.00002  -0.00043   0.00005  -0.00009
  14        8PZ         0.00320  -0.00075   0.00002   0.00059   0.00965
  15        9PX         0.00000   0.00000   0.00000   0.00000   0.00000
  16        9PY         0.00002  -0.00001  -0.00034   0.00001   0.00036
  17        9PZ         0.00035   0.00004   0.00002   0.00046   0.00545
  18       10D 0       -0.00026  -0.00011   0.00000  -0.00002   0.00115
  19       10D+1        0.00000   0.00000   0.00000   0.00000   0.00000
  20       10D-1        0.00000   0.00000  -0.00001   0.00000   0.00004
  21       10D+2        0.00005   0.00005   0.00000   0.00001   0.00002
  22       10D-2        0.00000   0.00000   0.00000   0.00000   0.00000
  23       11D 0       -0.00003   0.00091  -0.00002  -0.00046  -0.00023
  24       11D+1        0.00000   0.00000   0.00000   0.00000   0.00000
  25       11D-1        0.00000   0.00002   0.00005  -0.00003   0.00000
  26       11D+2        0.00006   0.00001   0.00000  -0.00017  -0.00081
  27       11D-2        0.00000   0.00000   0.00000   0.00000   0.00000
  28       12D 0       -0.00044   0.00023  -0.00001  -0.00009  -0.00567
  29       12D+1        0.00000   0.00000   0.00000   0.00000   0.00000
  30       12D-1        0.00000   0.00000   0.00013  -0.00001  -0.00013
  31       12D+2        0.00027  -0.00027  -0.00001  -0.00017  -0.00212
  32       12D-2        0.00000   0.00000   0.00000   0.00000   0.00000
  33       13F 0       -0.00017   0.00008   0.00000  -0.00009  -0.00049
  34       13F+1        0.00000   0.00000   0.00000   0.00000   0.00000
  35       13F-1        0.00000   0.00000   0.00002   0.00000  -0.00003
  36       13F+2        0.00003   0.00002   0.00000   0.00002   0.00017
  37       13F-2        0.00000   0.00000   0.00000   0.00000   0.00000
  38       13F+3        0.00000   0.00000   0.00000   0.00000   0.00000
  39       13F-3        0.00000   0.00000  -0.00002   0.00000   0.00000
  40       14F 0        0.00004  -0.00022   0.00001   0.00025   0.00165
  41       14F+1        0.00000   0.00000   0.00000   0.00000   0.00000
  42       14F-1        0.00001  -0.00001  -0.00008   0.00001   0.00001
  43       14F+2        0.00000   0.00002   0.00000   0.00017   0.00090
  44       14F-2        0.00000   0.00000   0.00000   0.00000   0.00000
  45       14F+3        0.00000   0.00000   0.00000   0.00000   0.00000
  46       14F-3        0.00000   0.00000   0.00007   0.00000   0.00001
  47 2   C  1S          0.71628  -0.50388   0.01066   0.44183  -0.05151
  48        2S         -0.00912   0.00500  -0.00014  -0.00396   0.10850
  49        3S          0.02924  -0.02123   0.00044   0.01786   0.02355
  50        4S         -0.00028   0.00065  -0.00008   0.00014   0.01478
  51        5S          0.00022  -0.00010   0.00002   0.00036   0.00330
  52        6PX         0.00000   0.00000   0.00000   0.00000   0.00000
  53        6PY        -0.00003   0.00002   0.00003  -0.00002  -0.00271
  54        6PZ        -0.00186   0.00115  -0.00002  -0.00108  -0.01583
  55        7PX         0.00000   0.00000   0.00000   0.00000   0.00000
  56        7PY        -0.00003  -0.00006   0.00090  -0.00012  -0.00186
  57        7PZ         0.00112  -0.00471   0.00013   0.00147  -0.01157
  58        8PX         0.00000   0.00000   0.00000   0.00000   0.00000
  59        8PY         0.00008  -0.00009  -0.00055  -0.00005   0.00117
  60        8PZ         0.00081  -0.00026   0.00012   0.00202   0.01486
  61        9PX         0.00000   0.00000   0.00000   0.00000   0.00000
  62        9PY        -0.00001   0.00001   0.00029  -0.00001  -0.00018
  63        9PZ         0.00004  -0.00038   0.00000  -0.00006  -0.00015
  64       10D 0        0.00028  -0.00050   0.00001   0.00038   0.00513
  65       10D+1        0.00000   0.00000   0.00000   0.00000   0.00000
  66       10D-1        0.00002  -0.00001  -0.00018   0.00004   0.00087
  67       10D+2       -0.00041   0.00020   0.00000  -0.00042  -0.00852
  68       10D-2        0.00000   0.00000   0.00000   0.00000   0.00000
  69       11D 0       -0.00040  -0.00103   0.00000   0.00059   0.00662
  70       11D+1        0.00000   0.00000   0.00000   0.00000   0.00000
  71       11D-1       -0.00003   0.00003  -0.00099   0.00006   0.00073
  72       11D+2        0.00089  -0.00129   0.00002   0.00017  -0.00977
  73       11D-2        0.00000   0.00000   0.00000   0.00000   0.00000
  74       12D 0        0.00009   0.00060   0.00002   0.00030   0.00028
  75       12D+1        0.00000   0.00000   0.00000   0.00000   0.00000
  76       12D-1       -0.00003   0.00003   0.00056  -0.00001  -0.00093
  77       12D+2        0.00005   0.00022   0.00002   0.00033   0.00346
  78       12D-2        0.00000   0.00000   0.00000   0.00000   0.00000
  79       13F 0        0.00070  -0.00032   0.00002   0.00061   0.00431
  80       13F+1        0.00000   0.00000   0.00000   0.00000   0.00000
  81       13F-1        0.00001   0.00000   0.00023  -0.00002  -0.00014
  82       13F+2        0.00033   0.00010   0.00001   0.00060   0.00558
  83       13F-2        0.00000   0.00000   0.00000   0.00000   0.00000
  84       13F+3        0.00000   0.00000   0.00000   0.00000   0.00000
  85       13F-3        0.00001   0.00000  -0.00021   0.00001   0.00009
  86       14F 0       -0.00116   0.00045   0.00002   0.00056   0.00351
  87       14F+1        0.00000   0.00000   0.00000   0.00000   0.00000
  88       14F-1        0.00003  -0.00003   0.00087  -0.00004  -0.00066
  89       14F+2       -0.00098   0.00085   0.00000   0.00026   0.00487
  90       14F-2        0.00000   0.00000   0.00000   0.00000   0.00000
  91       14F+3        0.00000   0.00000   0.00000   0.00000   0.00000
  92       14F-3        0.00000   0.00001   0.00006   0.00000  -0.00010
  93 3   F  1S         -0.15955   0.30513  -0.67303   0.62163  -0.15445
  94        2S          0.00340  -0.00551   0.01082  -0.00936   0.39392
  95        3S         -0.00649   0.01293  -0.02902   0.02706   0.12011
  96        4S          0.00270  -0.00299   0.00066   0.00083   0.24504
  97        5S          0.00027  -0.00031  -0.00064   0.00064   0.01616
  98        6PX         0.00000   0.00000   0.00000   0.00000   0.00000
  99        6PY        -0.00111   0.00132  -0.00143   0.00097  -0.00734
 100        6PZ        -0.00091   0.00082  -0.00111   0.00063  -0.02020
 101        7PX         0.00000   0.00000   0.00000   0.00000   0.00000
 102        7PY        -0.00102   0.00063   0.00014  -0.00045  -0.00464
 103        7PZ        -0.00094   0.00023  -0.00013  -0.00052  -0.02208
 104        8PX         0.00000   0.00000   0.00000   0.00000   0.00000
 105        8PY        -0.00059   0.00032  -0.00079   0.00109  -0.01385
 106        8PZ        -0.00036  -0.00006  -0.00143   0.00061  -0.02336
 107        9PX         0.00000   0.00000   0.00000   0.00000   0.00000
 108        9PY        -0.00006  -0.00005  -0.00038   0.00008  -0.00071
 109        9PZ        -0.00003   0.00039  -0.00006   0.00024  -0.00087
 110       10D 0        0.00000  -0.00001   0.00000   0.00001  -0.00010
 111       10D+1        0.00000   0.00000   0.00000   0.00000   0.00000
 112       10D-1        0.00003  -0.00002  -0.00001   0.00004   0.00071
 113       10D+2        0.00001  -0.00001   0.00002  -0.00002  -0.00067
 114       10D-2        0.00000   0.00000   0.00000   0.00000   0.00000
 115       11D 0       -0.00007   0.00004  -0.00007  -0.00006  -0.00085
 116       11D+1        0.00000   0.00000   0.00000   0.00000   0.00000
 117       11D-1       -0.00037   0.00003   0.00023  -0.00048   0.00381
 118       11D+2        0.00010   0.00002  -0.00018   0.00021  -0.00346
 119       11D-2        0.00000   0.00000   0.00000   0.00000   0.00000
 120       12D 0       -0.00011   0.00000  -0.00024   0.00006   0.00015
 121       12D+1        0.00000   0.00000   0.00000   0.00000   0.00000
 122       12D-1       -0.00004   0.00000  -0.00039   0.00019  -0.00272
 123       12D+2        0.00021  -0.00011   0.00021  -0.00023   0.00144
 124       12D-2        0.00000   0.00000   0.00000   0.00000   0.00000
 125       13F 0        0.00000  -0.00002   0.00000  -0.00001  -0.00035
 126       13F+1        0.00000   0.00000   0.00000   0.00000   0.00000
 127       13F-1       -0.00001  -0.00003   0.00000  -0.00002   0.00012
 128       13F+2        0.00001   0.00003  -0.00002   0.00003  -0.00049
 129       13F-2        0.00000   0.00000   0.00000   0.00000   0.00000
 130       13F+3        0.00000   0.00000   0.00000   0.00000   0.00000
 131       13F-3        0.00001   0.00000  -0.00006   0.00001  -0.00041
 132       14F 0        0.00014  -0.00001  -0.00002   0.00014  -0.00034
 133       14F+1        0.00000   0.00000   0.00000   0.00000   0.00000
 134       14F-1       -0.00021   0.00018  -0.00003  -0.00012   0.00007
 135       14F+2        0.00026  -0.00022   0.00000   0.00015  -0.00106
 136       14F-2        0.00000   0.00000   0.00000   0.00000   0.00000
 137       14F+3        0.00000   0.00000   0.00000   0.00000   0.00000
 138       14F-3        0.00005  -0.00004   0.00011   0.00003  -0.00055
 139 4   F  1S         -0.15591   0.30335   0.71057   0.58033  -0.13726
 140        2S          0.00331  -0.00546  -0.01141  -0.00873   0.35020
 141        3S         -0.00633   0.01284   0.03062   0.02525   0.10680
 142        4S          0.00265  -0.00286  -0.00050   0.00097   0.21736
 143        5S          0.00020  -0.00018   0.00075   0.00072   0.01227
 144        6PX         0.00000   0.00000   0.00000   0.00000   0.00000
 145        6PY         0.00108  -0.00128  -0.00147  -0.00088   0.00391
 146        6PZ        -0.00087   0.00077   0.00110   0.00054  -0.01871
 147        7PX         0.00000   0.00000   0.00000   0.00000   0.00000
 148        7PY         0.00099  -0.00062   0.00015   0.00041   0.00106
 149        7PZ        -0.00088   0.00020   0.00011  -0.00049  -0.02075
 150        8PX         0.00000   0.00000   0.00000   0.00000   0.00000
 151        8PY         0.00052  -0.00028  -0.00093  -0.00114   0.00998
 152        8PZ        -0.00026  -0.00009   0.00146   0.00057  -0.02256
 153        9PX         0.00000   0.00000   0.00000   0.00000   0.00000
 154        9PY         0.00008   0.00001  -0.00040  -0.00009   0.00107
 155        9PZ        -0.00004   0.00039   0.00009   0.00025  -0.00085
 156       10D 0        0.00000  -0.00001   0.00000   0.00000  -0.00012
 157       10D+1        0.00000   0.00000   0.00000   0.00000   0.00000
 158       10D-1       -0.00003   0.00002  -0.00001  -0.00004  -0.00061
 159       10D+2        0.00001  -0.00001  -0.00001  -0.00002  -0.00062
 160       10D-2        0.00000   0.00000   0.00000   0.00000   0.00000
 161       11D 0       -0.00005   0.00004   0.00007  -0.00005  -0.00097
 162       11D+1        0.00000   0.00000   0.00000   0.00000   0.00000
 163       11D-1        0.00035  -0.00002   0.00024   0.00044  -0.00316
 164       11D+2        0.00010   0.00003   0.00019   0.00019  -0.00311
 165       11D-2        0.00000   0.00000   0.00000   0.00000   0.00000
 166       12D 0       -0.00009   0.00001   0.00023   0.00004  -0.00019
 167       12D+1        0.00000   0.00000   0.00000   0.00000   0.00000
 168       12D-1       -0.00001   0.00002  -0.00041  -0.00019   0.00277
 169       12D+2        0.00019  -0.00009  -0.00023  -0.00024   0.00114
 170       12D-2        0.00000   0.00000   0.00000   0.00000   0.00000
 171       13F 0        0.00000  -0.00002   0.00000  -0.00001  -0.00032
 172       13F+1        0.00000   0.00000   0.00000   0.00000   0.00000
 173       13F-1        0.00001   0.00003   0.00000   0.00002  -0.00007
 174       13F+2        0.00001   0.00003   0.00002   0.00003  -0.00042
 175       13F-2        0.00000   0.00000   0.00000   0.00000   0.00000
 176       13F+3        0.00000   0.00000   0.00000   0.00000   0.00000
 177       13F-3       -0.00001   0.00000  -0.00006  -0.00001   0.00039
 178       14F 0        0.00014  -0.00001   0.00003   0.00014  -0.00028
 179       14F+1        0.00000   0.00000   0.00000   0.00000   0.00000
 180       14F-1        0.00018  -0.00017  -0.00003   0.00011   0.00007
 181       14F+2        0.00025  -0.00021   0.00000   0.00014  -0.00092
 182       14F-2        0.00000   0.00000   0.00000   0.00000   0.00000
 183       14F+3        0.00000   0.00000   0.00000   0.00000   0.00000
 184       14F-3       -0.00005   0.00003   0.00012  -0.00003   0.00049
                           6         7         8         9        10
     Eigenvalues --     1.98560   1.98141   1.97345   1.97134   1.96830
   1 1   O  1S         -0.00148  -0.19114  -0.03798  -0.00011   0.00000
   2        2S          0.00364   0.49178   0.10511  -0.00009   0.00000
   3        3S          0.00100   0.13804   0.03119  -0.00005   0.00000
   4        4S          0.00138   0.30621   0.08953  -0.00178   0.00000
   5        5S         -0.00070   0.03420  -0.00720  -0.00171   0.00000
   6        6PX         0.00000   0.00000   0.00000   0.00000  -0.00624
   7        6PY         0.02081   0.00029  -0.00045  -0.05086   0.00000
   8        6PZ        -0.00102   0.00045   0.02518  -0.00001   0.00000
   9        7PX         0.00000   0.00000   0.00000   0.00000  -0.00846
  10        7PY         0.02600   0.00036  -0.00038  -0.06908   0.00000
  11        7PZ        -0.00125  -0.00511   0.02565   0.00020   0.00000
  12        8PX         0.00000   0.00000   0.00000   0.00000  -0.01687
  13        8PY         0.01662   0.00054   0.00084  -0.06841   0.00000
  14        8PZ        -0.00028   0.04806   0.00467   0.00001   0.00000
  15        9PX         0.00000   0.00000   0.00000   0.00000  -0.00888
  16        9PY        -0.00182   0.00022  -0.00001   0.00648   0.00000
  17        9PZ         0.00016   0.00287   0.00464   0.00030   0.00000
  18       10D 0        0.00009   0.00473  -0.00109  -0.00003   0.00000
  19       10D+1        0.00000   0.00000   0.00000   0.00000  -0.00183
  20       10D-1       -0.00074   0.00006  -0.00002   0.00318   0.00000
  21       10D+2        0.00000  -0.00003   0.00048  -0.00001   0.00000
  22       10D-2        0.00000   0.00000   0.00000   0.00000  -0.00008
  23       11D 0        0.00015   0.01179  -0.00040  -0.00007   0.00000
  24       11D+1        0.00000   0.00000   0.00000   0.00000  -0.00215
  25       11D-1       -0.00193   0.00011  -0.00018   0.01379   0.00000
  26       11D+2       -0.00002   0.00007   0.00080  -0.00016   0.00000
  27       11D-2        0.00000   0.00000   0.00000   0.00000  -0.00105
  28       12D 0       -0.00012  -0.01282   0.00753   0.00017   0.00000
  29       12D+1        0.00000   0.00000   0.00000   0.00000   0.00043
  30       12D-1       -0.00051  -0.00008  -0.00048   0.01397   0.00000
  31       12D+2       -0.00010   0.00039   0.00074  -0.00022   0.00000
  32       12D-2        0.00000   0.00000   0.00000   0.00000  -0.00292
  33       13F 0       -0.00006  -0.00277   0.00065   0.00002   0.00000
  34       13F+1        0.00000   0.00000   0.00000   0.00000   0.00120
  35       13F-1        0.00076  -0.00004   0.00004  -0.00263   0.00000
  36       13F+2        0.00000   0.00023  -0.00018   0.00004   0.00000
  37       13F-2        0.00000   0.00000   0.00000   0.00000   0.00013
  38       13F+3        0.00000   0.00000   0.00000   0.00000  -0.00021
  39       13F-3        0.00000   0.00000   0.00000  -0.00006   0.00000
  40       14F 0        0.00004  -0.00058  -0.00039   0.00003   0.00000
  41       14F+1        0.00000   0.00000   0.00000   0.00000  -0.00172
  42       14F-1        0.00008   0.00000   0.00003  -0.00238   0.00000
  43       14F+2        0.00002  -0.00054   0.00095   0.00014   0.00000
  44       14F-2        0.00000   0.00000   0.00000   0.00000   0.00121
  45       14F+3        0.00000   0.00000   0.00000   0.00000   0.00110
  46       14F-3        0.00035   0.00001   0.00003  -0.00058   0.00000
  47 2   C  1S         -0.00225  -0.06836  -0.01113  -0.00104   0.00000
  48        2S          0.00503   0.15839   0.02593   0.00268   0.00000
  49        3S          0.00104   0.03835   0.00691   0.00066   0.00000
  50        4S          0.00056   0.02751  -0.01763   0.00089   0.00000
  51        5S          0.00016  -0.00235  -0.00028   0.00043   0.00000
  52        6PX         0.00000   0.00000   0.00000   0.00000   0.09848
  53        6PY         0.03744   0.00040   0.00145  -0.07744   0.00000
  54        6PZ        -0.00011   0.08040  -0.05187   0.00050   0.00000
  55        7PX         0.00000   0.00000   0.00000   0.00000   0.12405
  56        7PY         0.03130  -0.00057   0.00149  -0.09802   0.00000
  57        7PZ        -0.00073   0.05667  -0.08155  -0.00001   0.00000
  58        8PX         0.00000   0.00000   0.00000   0.00000   0.01672
  59        8PY        -0.01990   0.00033  -0.00139   0.07393   0.00000
  60        8PZ         0.00064  -0.03068   0.02603   0.00229   0.00000
  61        9PX         0.00000   0.00000   0.00000   0.00000   0.00209
  62        9PY         0.00173  -0.00014   0.00006  -0.00467   0.00000
  63        9PZ        -0.00001  -0.00016   0.00215   0.00004   0.00000
  64       10D 0        0.00020   0.01238   0.02007  -0.00017   0.00000
  65       10D+1        0.00000   0.00000   0.00000   0.00000  -0.01375
  66       10D-1       -0.00889   0.00032   0.00012  -0.01007   0.00000
  67       10D+2       -0.00040  -0.00254   0.01034  -0.00019   0.00000
  68       10D-2        0.00000   0.00000   0.00000   0.00000  -0.00747
  69       11D 0        0.00004   0.00220   0.03777   0.00039   0.00000
  70       11D+1        0.00000   0.00000   0.00000   0.00000  -0.02309
  71       11D-1       -0.01051   0.00058  -0.00056   0.00690   0.00000
  72       11D+2       -0.00069  -0.00757   0.02175  -0.00010   0.00000
  73       11D-2        0.00000   0.00000   0.00000   0.00000  -0.01219
  74       12D 0        0.00014  -0.01207  -0.00406   0.00055   0.00000
  75       12D+1        0.00000   0.00000   0.00000   0.00000   0.00041
  76       12D-1        0.01017  -0.00058   0.00011  -0.01230   0.00000
  77       12D+2        0.00018  -0.00300   0.00097   0.00000   0.00000
  78       12D-2        0.00000   0.00000   0.00000   0.00000   0.00148
  79       13F 0        0.00020   0.00622  -0.00585   0.00014   0.00000
  80       13F+1        0.00000   0.00000   0.00000   0.00000   0.00426
  81       13F-1        0.00196   0.00003  -0.00026   0.01098   0.00000
  82       13F+2        0.00029   0.00263   0.00018   0.00013   0.00000
  83       13F-2        0.00000   0.00000   0.00000   0.00000   0.00367
  84       13F+3        0.00000   0.00000   0.00000   0.00000  -0.00725
  85       13F-3       -0.00207   0.00004  -0.00009   0.00533   0.00000
  86       14F 0        0.00027  -0.00235  -0.00722   0.00012   0.00000
  87       14F+1        0.00000   0.00000   0.00000   0.00000  -0.00069
  88       14F-1        0.00548  -0.00023  -0.00095   0.01638   0.00000
  89       14F+2        0.00027   0.00047  -0.00649  -0.00008   0.00000
  90       14F-2        0.00000   0.00000   0.00000   0.00000   0.00592
  91       14F+3        0.00000   0.00000   0.00000   0.00000  -0.00145
  92       14F-3        0.00086  -0.00009  -0.00019  -0.00098   0.00000
  93 3   F  1S          0.14090   0.01902   0.01602   0.01690   0.00000
  94        2S         -0.36002  -0.04862  -0.04298  -0.04592   0.00000
  95        3S         -0.11025  -0.01529  -0.01447  -0.01575   0.00000
  96        4S         -0.23741  -0.05381  -0.03423  -0.05154   0.00000
  97        5S         -0.03105  -0.02217   0.00835   0.05011   0.00000
  98        6PX         0.00000   0.00000   0.00000   0.00000   0.33200
  99        6PY         0.03759  -0.00276   0.17001  -0.12843   0.00000
 100        6PZ         0.00821   0.04647  -0.19661   0.23142   0.00000
 101        7PX         0.00000   0.00000   0.00000   0.00000   0.40516
 102        7PY         0.04137  -0.00589   0.20606  -0.15623   0.00000
 103        7PZ         0.00650   0.05451  -0.23843   0.27967   0.00000
 104        8PX         0.00000   0.00000   0.00000   0.00000   0.27580
 105        8PY         0.03470  -0.01386   0.12806  -0.13255   0.00000
 106        8PZ         0.00332   0.02808  -0.16519   0.18372   0.00000
 107        9PX         0.00000   0.00000   0.00000   0.00000   0.02298
 108        9PY        -0.00143  -0.00310   0.01307   0.00101   0.00000
 109        9PZ        -0.00044  -0.00381  -0.01417   0.02608   0.00000
 110       10D 0       -0.00017   0.00061  -0.00273   0.00242   0.00000
 111       10D+1        0.00000   0.00000   0.00000   0.00000   0.00247
 112       10D-1       -0.00040   0.00080  -0.00060   0.00165   0.00000
 113       10D+2        0.00006  -0.00002  -0.00228   0.00056   0.00000
 114       10D-2        0.00000   0.00000   0.00000   0.00000   0.00370
 115       11D 0       -0.00111   0.00174  -0.01018   0.00877   0.00000
 116       11D+1        0.00000   0.00000   0.00000   0.00000   0.01027
 117       11D-1       -0.00388   0.00012  -0.00238   0.00614   0.00000
 118       11D+2        0.00174   0.00126  -0.00762   0.00185   0.00000
 119       11D-2        0.00000   0.00000   0.00000   0.00000   0.01513
 120       12D 0       -0.00192   0.00019  -0.00453   0.00751   0.00000
 121       12D+1        0.00000   0.00000   0.00000   0.00000   0.00516
 122       12D-1       -0.00031  -0.00230  -0.00373  -0.00241   0.00000
 123       12D+2       -0.00141   0.00196   0.00098   0.01000   0.00000
 124       12D-2        0.00000   0.00000   0.00000   0.00000   0.00853
 125       13F 0        0.00009   0.00006  -0.00071   0.00045   0.00000
 126       13F+1        0.00000   0.00000   0.00000   0.00000   0.00036
 127       13F-1       -0.00029   0.00048  -0.00177   0.00185   0.00000
 128       13F+2        0.00029  -0.00012  -0.00044  -0.00028   0.00000
 129       13F-2        0.00000   0.00000   0.00000   0.00000   0.00214
 130       13F+3        0.00000   0.00000   0.00000   0.00000  -0.00182
 131       13F-3       -0.00001   0.00009  -0.00109   0.00024   0.00000
 132       14F 0        0.00036   0.00075  -0.00189   0.00032   0.00000
 133       14F+1        0.00000   0.00000   0.00000   0.00000   0.00052
 134       14F-1       -0.00098   0.00006  -0.00268   0.00303   0.00000
 135       14F+2        0.00095   0.00059  -0.00045  -0.00080   0.00000
 136       14F-2        0.00000   0.00000   0.00000   0.00000   0.00369
 137       14F+3        0.00000   0.00000   0.00000   0.00000  -0.00258
 138       14F-3        0.00063   0.00030  -0.00070   0.00083   0.00000
 139 4   F  1S         -0.15748   0.01962   0.01657  -0.01679   0.00000
 140        2S          0.40244  -0.05014  -0.04447   0.04523   0.00000
 141        3S          0.12326  -0.01577  -0.01495   0.01545   0.00000
 142        4S          0.26442  -0.05329  -0.03468   0.04965   0.00000
 143        5S          0.03254  -0.02275   0.01000  -0.04793   0.00000
 144        6PX         0.00000   0.00000   0.00000   0.00000   0.13658
 145        6PY         0.03826   0.00239  -0.16318  -0.13236   0.00000
 146        6PZ        -0.01008   0.04600  -0.19322  -0.23578   0.00000
 147        7PX         0.00000   0.00000   0.00000   0.00000   0.16707
 148        7PY         0.04177   0.00527  -0.19772  -0.16087   0.00000
 149        7PZ        -0.00868   0.05409  -0.23417  -0.28481   0.00000
 150        8PX         0.00000   0.00000   0.00000   0.00000   0.11476
 151        8PY         0.03585   0.01232  -0.12423  -0.13566   0.00000
 152        8PZ        -0.00581   0.02845  -0.16446  -0.18953   0.00000
 153        9PX         0.00000   0.00000   0.00000   0.00000   0.00609
 154        9PY        -0.00128   0.00339  -0.01339   0.00018   0.00000
 155        9PZ         0.00036  -0.00349  -0.01417  -0.02638   0.00000
 156       10D 0        0.00015   0.00058  -0.00255  -0.00233   0.00000
 157       10D+1        0.00000   0.00000   0.00000   0.00000   0.00109
 158       10D-1       -0.00043  -0.00078   0.00063   0.00162   0.00000
 159       10D+2       -0.00012  -0.00004  -0.00216  -0.00059   0.00000
 160       10D-2        0.00000   0.00000   0.00000   0.00000  -0.00203
 161       11D 0        0.00092   0.00168  -0.00964  -0.00855   0.00000
 162       11D+1        0.00000   0.00000   0.00000   0.00000   0.00492
 163       11D-1       -0.00413  -0.00020   0.00247   0.00606   0.00000
 164       11D+2       -0.00208   0.00123  -0.00736  -0.00196   0.00000
 165       11D-2        0.00000   0.00000   0.00000   0.00000  -0.00817
 166       12D 0        0.00183   0.00009  -0.00499  -0.00775   0.00000
 167       12D+1        0.00000   0.00000   0.00000   0.00000   0.00214
 168       12D-1       -0.00002   0.00199   0.00410  -0.00187   0.00000
 169       12D+2        0.00155   0.00162   0.00077  -0.01015   0.00000
 170       12D-2        0.00000   0.00000   0.00000   0.00000  -0.00604
 171       13F 0       -0.00013   0.00005  -0.00062  -0.00041   0.00000
 172       13F+1        0.00000   0.00000   0.00000   0.00000   0.00021
 173       13F-1       -0.00028  -0.00046   0.00168   0.00180   0.00000
 174       13F+2       -0.00033  -0.00012  -0.00038   0.00028   0.00000
 175       13F-2        0.00000   0.00000   0.00000   0.00000  -0.00098
 176       13F+3        0.00000   0.00000   0.00000   0.00000  -0.00112
 177       13F-3        0.00004  -0.00009   0.00105   0.00024   0.00000
 178       14F 0       -0.00042   0.00071  -0.00183  -0.00030   0.00000
 179       14F+1        0.00000   0.00000   0.00000   0.00000  -0.00022
 180       14F-1       -0.00097  -0.00008   0.00274   0.00308   0.00000
 181       14F+2       -0.00107   0.00056  -0.00042   0.00081   0.00000
 182       14F-2        0.00000   0.00000   0.00000   0.00000  -0.00195
 183       14F+3        0.00000   0.00000   0.00000   0.00000  -0.00109
 184       14F-3        0.00069  -0.00031   0.00073   0.00089   0.00000
                          11        12        13        14        15
     Eigenvalues --     1.96813   1.96676   1.96297   1.96121   1.95626
   1 1   O  1S          0.00000   0.05046   0.00227   0.00130  -0.00101
   2        2S          0.00000  -0.15183  -0.00917  -0.02546   0.00218
   3        3S          0.00000  -0.04657  -0.00324  -0.01166   0.00058
   4        4S          0.00000  -0.21181  -0.02278  -0.13178  -0.00211
   5        5S          0.00000  -0.04545  -0.00741  -0.04372  -0.00238
   6        6PX         0.00269   0.00000   0.00000   0.00000   0.00000
   7        6PY         0.00000  -0.00608   0.23004  -0.03740   0.25642
   8        6PZ         0.00000  -0.16364  -0.03662  -0.25990  -0.01030
   9        7PX         0.00352   0.00000   0.00000   0.00000   0.00000
  10        7PY         0.00000  -0.00715   0.28078  -0.04565   0.31552
  11        7PZ         0.00000  -0.18944  -0.04387  -0.31222  -0.01225
  12        8PX         0.00624   0.00000   0.00000   0.00000   0.00000
  13        8PY         0.00000  -0.00413   0.18579  -0.02930   0.21618
  14        8PZ         0.00000  -0.07950  -0.02189  -0.15161  -0.00637
  15        9PX         0.00309   0.00000   0.00000   0.00000   0.00000
  16        9PY         0.00000  -0.00078   0.02568  -0.00358   0.02923
  17        9PZ         0.00000   0.00324  -0.00008  -0.00438  -0.00032
  18       10D 0        0.00000   0.00725   0.00172   0.01195   0.00042
  19       10D+1        0.00067   0.00000   0.00000   0.00000   0.00000
  20       10D-1        0.00000   0.00030  -0.00752   0.00124  -0.00492
  21       10D+2        0.00000   0.00008   0.00011   0.00021   0.00008
  22       10D-2       -0.00021   0.00000   0.00000   0.00000   0.00000
  23       11D 0        0.00000   0.01219   0.00400   0.02914   0.00096
  24       11D+1        0.00088   0.00000   0.00000   0.00000   0.00000
  25       11D-1        0.00000   0.00057  -0.01842   0.00295  -0.01219
  26       11D+2        0.00000  -0.00009   0.00030   0.00111   0.00018
  27       11D-2       -0.00259   0.00000   0.00000   0.00000   0.00000
  28       12D 0        0.00000  -0.00065   0.00089   0.00476   0.00010
  29       12D+1       -0.00006   0.00000   0.00000   0.00000   0.00000
  30       12D-1        0.00000   0.00028  -0.00861   0.00090  -0.00164
  31       12D+2        0.00000  -0.00063   0.00031   0.00293   0.00017
  32       12D-2       -0.00683   0.00000   0.00000   0.00000   0.00000
  33       13F 0        0.00000  -0.00248  -0.00073  -0.00476  -0.00017
  34       13F+1       -0.00045   0.00000   0.00000   0.00000   0.00000
  35       13F-1        0.00000  -0.00016   0.00412  -0.00066   0.00220
  36       13F+2        0.00000  -0.00027  -0.00015  -0.00068  -0.00007
  37       13F-2        0.00034   0.00000   0.00000   0.00000   0.00000
  38       13F+3        0.00007   0.00000   0.00000   0.00000   0.00000
  39       13F-3        0.00000  -0.00002   0.00063  -0.00011   0.00094
  40       14F 0        0.00000  -0.00086  -0.00079  -0.00664  -0.00027
  41       14F+1        0.00060   0.00000   0.00000   0.00000   0.00000
  42       14F-1        0.00000  -0.00013   0.00380  -0.00063   0.00251
  43       14F+2        0.00000  -0.00010  -0.00015  -0.00080  -0.00003
  44       14F-2        0.00282   0.00000   0.00000   0.00000   0.00000
  45       14F+3       -0.00044   0.00000   0.00000   0.00000   0.00000
  46       14F-3        0.00000  -0.00002   0.00081  -0.00007  -0.00077
  47 2   C  1S          0.00000  -0.14298  -0.00794  -0.02075   0.00119
  48        2S          0.00000   0.39293   0.02268   0.06010  -0.00350
  49        3S          0.00000   0.10172   0.00593   0.01656  -0.00047
  50        4S          0.00000   0.15878   0.00325  -0.01916  -0.00528
  51        5S          0.00000   0.00627   0.00075   0.00753   0.00028
  52        6PX        -0.03530   0.00000   0.00000   0.00000   0.00000
  53        6PY         0.00000  -0.00829   0.17945  -0.01466  -0.07139
  54        6PZ         0.00000  -0.01121   0.02347   0.22792   0.00823
  55        7PX        -0.04466   0.00000   0.00000   0.00000   0.00000
  56        7PY         0.00000  -0.00976   0.21535  -0.01986  -0.07984
  57        7PZ         0.00000  -0.02670   0.02184   0.22621   0.00995
  58        8PX        -0.00588   0.00000   0.00000   0.00000   0.00000
  59        8PY         0.00000  -0.00285   0.05396  -0.00593  -0.01377
  60        8PZ         0.00000  -0.00317   0.00401   0.02754   0.00229
  61        9PX        -0.00059   0.00000   0.00000   0.00000   0.00000
  62        9PY         0.00000   0.00021  -0.00231   0.00010  -0.00298
  63        9PZ         0.00000  -0.00001  -0.00013   0.00070   0.00016
  64       10D 0        0.00000   0.00783   0.00186   0.01846   0.00068
  65       10D+1        0.00488   0.00000   0.00000   0.00000   0.00000
  66       10D-1        0.00000   0.00110   0.00078  -0.00175   0.04359
  67       10D+2        0.00000  -0.00878   0.00071   0.01152   0.00054
  68       10D-2       -0.01886   0.00000   0.00000   0.00000   0.00000
  69       11D 0        0.00000   0.00304   0.00057   0.01705   0.00064
  70       11D+1        0.00829   0.00000   0.00000   0.00000   0.00000
  71       11D-1        0.00000   0.00262  -0.02245  -0.00078   0.08687
  72       11D+2        0.00000  -0.02205   0.00109   0.02365   0.00148
  73       11D-2       -0.03075   0.00000   0.00000   0.00000   0.00000
  74       12D 0        0.00000   0.00129   0.00038  -0.00052   0.00011
  75       12D+1        0.00024   0.00000   0.00000   0.00000   0.00000
  76       12D-1        0.00000   0.00074  -0.00895   0.00037   0.01293
  77       12D+2        0.00000   0.00352   0.00086   0.00234   0.00034
  78       12D-2        0.00344   0.00000   0.00000   0.00000   0.00000
  79       13F 0        0.00000   0.00788   0.00072   0.00491   0.00006
  80       13F+1       -0.00148   0.00000   0.00000   0.00000   0.00000
  81       13F-1        0.00000  -0.00053   0.01425  -0.00158   0.00448
  82       13F+2        0.00000   0.00601   0.00007  -0.00093  -0.00022
  83       13F-2        0.00921   0.00000   0.00000   0.00000   0.00000
  84       13F+3        0.00272   0.00000   0.00000   0.00000   0.00000
  85       13F-3        0.00000   0.00000   0.00034  -0.00010   0.00307
  86       14F 0        0.00000   0.00378  -0.00103  -0.01468  -0.00113
  87       14F+1        0.00041   0.00000   0.00000   0.00000   0.00000
  88       14F-1        0.00000  -0.00130   0.02966  -0.00431   0.01120
  89       14F+2        0.00000   0.00917  -0.00084  -0.01242  -0.00101
  90       14F-2        0.01398   0.00000   0.00000   0.00000   0.00000
  91       14F+3        0.00026   0.00000   0.00000   0.00000   0.00000
  92       14F-3        0.00000  -0.00002   0.00319  -0.00091   0.00911
  93 3   F  1S          0.00000   0.02025  -0.00293   0.00645  -0.02170
  94        2S          0.00000  -0.06335   0.01698  -0.01098   0.05330
  95        3S          0.00000  -0.02318   0.00845  -0.00069   0.01399
  96        4S          0.00000  -0.12991   0.08996   0.03146  -0.00982
  97        5S          0.00000  -0.02718   0.03818   0.01045  -0.02414
  98        6PX         0.16858   0.00000   0.00000   0.00000   0.00000
  99        6PY         0.00000   0.13689  -0.17687  -0.06664   0.14873
 100        6PZ         0.00000   0.10281  -0.01829  -0.13227   0.11371
 101        7PX         0.20499   0.00000   0.00000   0.00000   0.00000
 102        7PY         0.00000   0.16311  -0.21242  -0.08384   0.18326
 103        7PZ         0.00000   0.12180  -0.02142  -0.16276   0.13965
 104        8PX         0.14066   0.00000   0.00000   0.00000   0.00000
 105        8PY         0.00000   0.07331  -0.10907  -0.04217   0.11173
 106        8PZ         0.00000   0.05479   0.00003  -0.10334   0.07653
 107        9PX         0.01734   0.00000   0.00000   0.00000   0.00000
 108        9PY         0.00000  -0.00293  -0.00479   0.00297   0.00653
 109        9PZ         0.00000   0.00028   0.01186  -0.00948   0.00760
 110       10D 0        0.00000   0.00004  -0.00007   0.00033   0.00001
 111       10D+1        0.00102   0.00000   0.00000   0.00000   0.00000
 112       10D-1        0.00000   0.00414  -0.00336  -0.00243   0.00330
 113       10D+2        0.00000  -0.00272   0.00229   0.00201  -0.00192
 114       10D-2        0.00100   0.00000   0.00000   0.00000   0.00000
 115       11D 0        0.00000  -0.00025  -0.00235   0.00172  -0.00128
 116       11D+1        0.00389   0.00000   0.00000   0.00000   0.00000
 117       11D-1        0.00000   0.01174  -0.01236  -0.01097   0.01120
 118       11D+2        0.00000  -0.00832   0.00720   0.00803  -0.00735
 119       11D-2        0.00453   0.00000   0.00000   0.00000   0.00000
 120       12D 0        0.00000  -0.00109  -0.00781   0.00020  -0.00408
 121       12D+1        0.00273   0.00000   0.00000   0.00000   0.00000
 122       12D-1        0.00000   0.00212  -0.00284  -0.00293   0.00225
 123       12D+2        0.00000  -0.00103  -0.00053   0.00522  -0.00493
 124       12D-2        0.00131   0.00000   0.00000   0.00000   0.00000
 125       13F 0        0.00000  -0.00106   0.00094   0.00083  -0.00089
 126       13F+1        0.00007   0.00000   0.00000   0.00000   0.00000
 127       13F-1        0.00000   0.00080  -0.00059  -0.00063   0.00081
 128       13F+2        0.00000  -0.00167   0.00169   0.00138  -0.00148
 129       13F-2        0.00084   0.00000   0.00000   0.00000   0.00000
 130       13F+3       -0.00030   0.00000   0.00000   0.00000   0.00000
 131       13F-3        0.00000  -0.00089   0.00074   0.00086  -0.00060
 132       14F 0        0.00000  -0.00092   0.00028   0.00220  -0.00194
 133       14F+1        0.00082   0.00000   0.00000   0.00000   0.00000
 134       14F-1        0.00000   0.00082  -0.00340  -0.00018   0.00043
 135       14F+2        0.00000  -0.00269   0.00286   0.00289  -0.00240
 136       14F-2        0.00130   0.00000   0.00000   0.00000   0.00000
 137       14F+3       -0.00140   0.00000   0.00000   0.00000   0.00000
 138       14F-3        0.00000  -0.00165   0.00154   0.00147  -0.00166
 139 4   F  1S          0.00000   0.02068   0.00617   0.00390   0.02168
 140        2S          0.00000  -0.06311  -0.02457  -0.00301  -0.05230
 141        3S          0.00000  -0.02268  -0.01050   0.00210  -0.01332
 142        4S          0.00000  -0.11836  -0.09011   0.04818   0.01609
 143        5S          0.00000  -0.02142  -0.03509   0.01646   0.02711
 144        6PX        -0.34685   0.00000   0.00000   0.00000   0.00000
 145        6PY         0.00000  -0.11403  -0.17157   0.09179   0.16186
 146        6PZ         0.00000   0.09824  -0.00318  -0.12231  -0.12800
 147        7PX        -0.42242   0.00000   0.00000   0.00000   0.00000
 148        7PY         0.00000  -0.13561  -0.20542   0.11348   0.19926
 149        7PZ         0.00000   0.11648  -0.00514  -0.15006  -0.15705
 150        8PX        -0.29171   0.00000   0.00000   0.00000   0.00000
 151        8PY         0.00000  -0.05933  -0.10652   0.05602   0.12081
 152        8PZ         0.00000   0.05469  -0.01890  -0.09495  -0.08838
 153        9PX        -0.02930   0.00000   0.00000   0.00000   0.00000
 154        9PY         0.00000   0.00302  -0.00524  -0.00183   0.00640
 155        9PZ         0.00000   0.00157  -0.01292  -0.00634  -0.00864
 156       10D 0        0.00000   0.00000   0.00005   0.00034   0.00010
 157       10D+1       -0.00226   0.00000   0.00000   0.00000   0.00000
 158       10D-1        0.00000  -0.00361  -0.00302   0.00269   0.00353
 159       10D+2        0.00000  -0.00240  -0.00207   0.00222   0.00217
 160       10D-2        0.00309   0.00000   0.00000   0.00000   0.00000
 161       11D 0        0.00000  -0.00040   0.00226   0.00129   0.00165
 162       11D+1       -0.00927   0.00000   0.00000   0.00000   0.00000
 163       11D-1        0.00000  -0.01005  -0.01057   0.01188   0.01227
 164       11D+2        0.00000  -0.00726  -0.00619   0.00861   0.00835
 165       11D-2        0.01317   0.00000   0.00000   0.00000   0.00000
 166       12D 0        0.00000  -0.00149   0.00691  -0.00215   0.00394
 167       12D+1       -0.00574   0.00000   0.00000   0.00000   0.00000
 168       12D-1        0.00000  -0.00199  -0.00218   0.00324   0.00257
 169       12D+2        0.00000  -0.00097   0.00123   0.00425   0.00558
 170       12D-2        0.00740   0.00000   0.00000   0.00000   0.00000
 171       13F 0        0.00000  -0.00093  -0.00085   0.00094   0.00102
 172       13F+1       -0.00024   0.00000   0.00000   0.00000   0.00000
 173       13F-1        0.00000  -0.00069  -0.00044   0.00062   0.00084
 174       13F+2        0.00000  -0.00142  -0.00149   0.00155   0.00167
 175       13F-2        0.00194   0.00000   0.00000   0.00000   0.00000
 176       13F+3        0.00138   0.00000   0.00000   0.00000   0.00000
 177       13F-3        0.00000   0.00078   0.00066  -0.00093  -0.00073
 178       14F 0        0.00000  -0.00083   0.00000   0.00202   0.00213
 179       14F+1       -0.00090   0.00000   0.00000   0.00000   0.00000
 180       14F-1        0.00000  -0.00054  -0.00326   0.00072   0.00042
 181       14F+2        0.00000  -0.00235  -0.00243   0.00316   0.00274
 182       14F-2        0.00347   0.00000   0.00000   0.00000   0.00000
 183       14F+3        0.00291   0.00000   0.00000   0.00000   0.00000
 184       14F-3        0.00000   0.00146   0.00133  -0.00170  -0.00189
                          16        17        18        19        20
     Eigenvalues --     1.93992   0.05890   0.03807   0.03602   0.02446
   1 1   O  1S          0.00000   0.00000  -0.03295   0.00916   0.07138
   2        2S          0.00000   0.00000   0.13522  -0.03729  -0.27646
   3        3S          0.00000   0.00000   0.04910  -0.01362  -0.11573
   4        4S          0.00000   0.00000   0.17180  -0.05073  -0.49836
   5        5S          0.00000   0.00000   0.08112  -0.02050  -0.20217
   6        6PX         0.30119  -0.35161   0.00000   0.00000   0.00000
   7        6PY         0.00000   0.00000   0.07669   0.33517  -0.00523
   8        6PZ         0.00000   0.00000  -0.18604   0.04891   0.34662
   9        7PX         0.37593  -0.39420   0.00000   0.00000   0.00000
  10        7PY         0.00000   0.00000   0.06901   0.30316  -0.00308
  11        7PZ         0.00000   0.00000  -0.21282   0.05708   0.43084
  12        8PX         0.23991  -0.06912   0.00000   0.00000   0.00000
  13        8PY         0.00000   0.00000  -0.01212  -0.05156   0.00143
  14        8PZ         0.00000   0.00000   0.03141  -0.00497   0.16042
  15        9PX         0.01514  -0.00759   0.00000   0.00000   0.00000
  16        9PY         0.00000   0.00000  -0.00592  -0.03167   0.00059
  17        9PZ         0.00000   0.00000  -0.00528   0.00047   0.02031
  18       10D 0        0.00000   0.00000  -0.00327   0.00076   0.03091
  19       10D+1       -0.01117  -0.01641   0.00000   0.00000   0.00000
  20       10D-1        0.00000   0.00000   0.00615   0.02738  -0.00027
  21       10D+2        0.00000   0.00000  -0.00358   0.00069   0.00117
  22       10D-2       -0.00011  -0.00011   0.00000   0.00000   0.00000
  23       11D 0        0.00000   0.00000   0.00323  -0.00072   0.02468
  24       11D+1       -0.02917  -0.01837   0.00000   0.00000   0.00000
  25       11D-1        0.00000   0.00000   0.01217   0.05021  -0.00009
  26       11D+2        0.00000   0.00000  -0.00288   0.00041   0.00049
  27       11D-2       -0.00029  -0.00029   0.00000   0.00000   0.00000
  28       12D 0        0.00000   0.00000  -0.03261   0.00807  -0.02960
  29       12D+1       -0.00931   0.01920   0.00000   0.00000   0.00000
  30       12D-1        0.00000   0.00000   0.00170   0.00456   0.00086
  31       12D+2        0.00000   0.00000   0.00496  -0.00082   0.00140
  32       12D-2       -0.00011  -0.00036   0.00000   0.00000   0.00000
  33       13F 0        0.00000   0.00000  -0.00305   0.00088  -0.00194
  34       13F+1        0.00585   0.00447   0.00000   0.00000   0.00000
  35       13F-1        0.00000   0.00000  -0.00183  -0.00681   0.00000
  36       13F+2        0.00000   0.00000  -0.00166   0.00051   0.00150
  37       13F-2        0.00009   0.00000   0.00000   0.00000   0.00000
  38       13F+3        0.00100  -0.00261   0.00000   0.00000   0.00000
  39       13F-3        0.00000   0.00000   0.00040   0.00174  -0.00002
  40       14F 0        0.00000   0.00000   0.00021  -0.00053  -0.00840
  41       14F+1        0.00367  -0.00391   0.00000   0.00000   0.00000
  42       14F-1        0.00000   0.00000  -0.00121  -0.00466  -0.00042
  43       14F+2        0.00000   0.00000  -0.00245   0.00067  -0.00280
  44       14F-2        0.00008   0.00023   0.00000   0.00000   0.00000
  45       14F+3        0.00058  -0.00165   0.00000   0.00000   0.00000
  46       14F-3        0.00000   0.00000   0.00032   0.00197  -0.00012
  47 2   C  1S          0.00000   0.00000   0.17258  -0.04315  -0.06105
  48        2S          0.00000   0.00000  -0.59503   0.15149   0.26320
  49        3S          0.00000   0.00000  -0.18111   0.04636   0.12200
  50        4S          0.00000   0.00000  -0.44582   0.12269   0.19758
  51        5S          0.00000   0.00000  -0.03818   0.01087   0.04175
  52        6PX         0.18304   0.32829   0.00000   0.00000   0.00000
  53        6PY         0.00000   0.00000  -0.08152  -0.33469   0.00691
  54        6PZ         0.00000   0.00000   0.11701  -0.02006   0.34768
  55        7PX         0.23341   0.46548   0.00000   0.00000   0.00000
  56        7PY         0.00000   0.00000  -0.13803  -0.58457   0.01697
  57        7PZ         0.00000   0.00000   0.19669  -0.03870   0.67768
  58        8PX         0.08722   0.14007   0.00000   0.00000   0.00000
  59        8PY         0.00000   0.00000  -0.02707  -0.13174   0.00581
  60        8PZ         0.00000   0.00000  -0.03252   0.00476   0.14234
  61        9PX         0.00844   0.00755   0.00000   0.00000   0.00000
  62        9PY         0.00000   0.00000  -0.00172  -0.00331   0.00020
  63        9PZ         0.00000   0.00000   0.00298  -0.00015   0.00735
  64       10D 0        0.00000   0.00000   0.00439  -0.00149  -0.03225
  65       10D+1        0.02595   0.00949   0.00000   0.00000   0.00000
  66       10D-1        0.00000   0.00000  -0.00419  -0.02103   0.00054
  67       10D+2        0.00000   0.00000  -0.00057   0.00016  -0.00297
  68       10D-2        0.00025   0.00005   0.00000   0.00000   0.00000
  69       11D 0        0.00000   0.00000  -0.02100   0.01207   0.02833
  70       11D+1        0.04513   0.06070   0.00000   0.00000   0.00000
  71       11D-1        0.00000   0.00000   0.01857   0.07082   0.00192
  72       11D+2        0.00000   0.00000   0.06153  -0.01241   0.02950
  73       11D-2        0.00028  -0.00014   0.00000   0.00000   0.00000
  74       12D 0        0.00000   0.00000  -0.03951   0.01081   0.04566
  75       12D+1        0.00510   0.02203   0.00000   0.00000   0.00000
  76       12D-1        0.00000   0.00000  -0.00467  -0.01134   0.00135
  77       12D+2        0.00000   0.00000   0.00488  -0.00202   0.01108
  78       12D-2       -0.00024   0.00014   0.00000   0.00000   0.00000
  79       13F 0        0.00000   0.00000  -0.00457   0.00133   0.01206
  80       13F+1        0.00770   0.01612   0.00000   0.00000   0.00000
  81       13F-1        0.00000   0.00000  -0.00543  -0.02624   0.00145
  82       13F+2        0.00000   0.00000  -0.02742   0.00690  -0.01299
  83       13F-2        0.00011   0.00047   0.00000   0.00000   0.00000
  84       13F+3        0.00062  -0.00460   0.00000   0.00000   0.00000
  85       13F-3        0.00000   0.00000   0.00287   0.01159  -0.00024
  86       14F 0        0.00000   0.00000  -0.04300   0.01028   0.00410
  87       14F+1        0.00769   0.02709   0.00000   0.00000   0.00000
  88       14F-1        0.00000   0.00000  -0.03269  -0.14642   0.00512
  89       14F+2        0.00000   0.00000  -0.03736   0.00937  -0.00677
  90       14F-2        0.00008   0.00138   0.00000   0.00000   0.00000
  91       14F+3        0.00402   0.00754   0.00000   0.00000   0.00000
  92       14F-3        0.00000   0.00000  -0.00737  -0.03223   0.00111
  93 3   F  1S          0.00000   0.00000  -0.04107   0.05638  -0.01991
  94        2S          0.00000   0.00000   0.12990  -0.16863   0.04830
  95        3S          0.00000   0.00000   0.05771  -0.08219   0.03081
  96        4S          0.00000   0.00000   0.16036  -0.30190   0.11746
  97        5S          0.00000   0.00000   0.03755  -0.09196   0.06028
  98        6PX        -0.05868  -0.18701   0.00000   0.00000   0.00000
  99        6PY         0.00000   0.00000   0.24885  -0.16219   0.21751
 100        6PZ         0.00000   0.00000   0.09153  -0.25486  -0.17075
 101        7PX        -0.07101  -0.15389   0.00000   0.00000   0.00000
 102        7PY         0.00000   0.00000   0.23044  -0.19293   0.14108
 103        7PZ         0.00000   0.00000   0.11103  -0.22579  -0.06258
 104        8PX        -0.06475   0.02418   0.00000   0.00000   0.00000
 105        8PY         0.00000   0.00000  -0.04509  -0.19262  -0.07086
 106        8PZ         0.00000   0.00000   0.05793   0.08652   0.21376
 107        9PX        -0.01967  -0.00358   0.00000   0.00000   0.00000
 108        9PY         0.00000   0.00000   0.00294  -0.01303  -0.01197
 109        9PZ         0.00000   0.00000  -0.01033  -0.00919   0.03737
 110       10D 0        0.00000   0.00000   0.00349   0.00519   0.01261
 111       10D+1        0.00085   0.00420   0.00000   0.00000   0.00000
 112       10D-1        0.00000   0.00000  -0.00787   0.01374   0.00028
 113       10D+2        0.00000   0.00000   0.00760  -0.00605   0.01305
 114       10D-2        0.00079   0.00572   0.00000   0.00000   0.00000
 115       11D 0        0.00000   0.00000   0.01445   0.02602   0.03843
 116       11D+1        0.00262   0.01568   0.00000   0.00000   0.00000
 117       11D-1        0.00000   0.00000  -0.00733   0.02216   0.01171
 118       11D+2        0.00000   0.00000   0.01319  -0.00030   0.03104
 119       11D-2        0.00196   0.01953   0.00000   0.00000   0.00000
 120       12D 0        0.00000   0.00000   0.02114   0.06394   0.02060
 121       12D+1        0.00224   0.01024   0.00000   0.00000   0.00000
 122       12D-1        0.00000   0.00000  -0.00511   0.00303   0.03107
 123       12D+2        0.00000   0.00000   0.02174   0.03950  -0.00142
 124       12D-2       -0.00167   0.00343   0.00000   0.00000   0.00000
 125       13F 0        0.00000   0.00000  -0.00031   0.00094   0.00159
 126       13F+1        0.00018   0.00052   0.00000   0.00000   0.00000
 127       13F-1        0.00000   0.00000   0.00140   0.00052   0.00317
 128       13F+2        0.00000   0.00000  -0.00149  -0.00013  -0.00034
 129       13F-2        0.00041   0.00093   0.00000   0.00000   0.00000
 130       13F+3       -0.00046  -0.00220   0.00000   0.00000   0.00000
 131       13F-3        0.00000   0.00000   0.00063   0.00069   0.00252
 132       14F 0        0.00000   0.00000   0.00355   0.00434   0.00115
 133       14F+1        0.00074   0.00159   0.00000   0.00000   0.00000
 134       14F-1        0.00000   0.00000   0.00310   0.01118   0.00436
 135       14F+2        0.00000   0.00000   0.00341  -0.00060   0.00152
 136       14F-2        0.00051   0.00392   0.00000   0.00000   0.00000
 137       14F+3        0.00083   0.00104   0.00000   0.00000   0.00000
 138       14F-3        0.00000   0.00000  -0.00014   0.00067   0.00131
 139 4   F  1S          0.00000   0.00000  -0.06127  -0.03227  -0.01748
 140        2S          0.00000   0.00000   0.18758   0.09057   0.04097
 141        3S          0.00000   0.00000   0.08668   0.04730   0.02674
 142        4S          0.00000   0.00000   0.26818   0.18917   0.10236
 143        5S          0.00000   0.00000   0.06433   0.06136   0.05521
 144        6PX        -0.05689  -0.18427   0.00000   0.00000   0.00000
 145        6PY         0.00000   0.00000  -0.30041  -0.04005  -0.21228
 146        6PZ         0.00000   0.00000   0.19238   0.18010  -0.18171
 147        7PX        -0.06870  -0.15129   0.00000   0.00000   0.00000
 148        7PY         0.00000   0.00000  -0.29565  -0.07372  -0.13444
 149        7PZ         0.00000   0.00000   0.19751   0.14704  -0.07119
 150        8PX        -0.06258   0.02916   0.00000   0.00000   0.00000
 151        8PY         0.00000   0.00000  -0.04011  -0.18978   0.08468
 152        8PZ         0.00000   0.00000   0.01650  -0.09836   0.22301
 153        9PX        -0.01906  -0.00249   0.00000   0.00000   0.00000
 154        9PY         0.00000   0.00000  -0.00466  -0.01034   0.01363
 155        9PZ         0.00000   0.00000  -0.00562   0.01218   0.03768
 156       10D 0        0.00000   0.00000   0.00115  -0.00564   0.01260
 157       10D+1        0.00083   0.00398   0.00000   0.00000   0.00000
 158       10D-1        0.00000   0.00000   0.01288   0.00842  -0.00119
 159       10D+2        0.00000   0.00000   0.00952   0.00225   0.01243
 160       10D-2       -0.00076  -0.00549   0.00000   0.00000   0.00000
 161       11D 0        0.00000   0.00000   0.00238  -0.02770   0.03919
 162       11D+1        0.00259   0.01533   0.00000   0.00000   0.00000
 163       11D-1        0.00000   0.00000   0.01664   0.01614  -0.01345
 164       11D+2        0.00000   0.00000   0.01282  -0.00459   0.03069
 165       11D-2       -0.00201  -0.01951   0.00000   0.00000   0.00000
 166       12D 0        0.00000   0.00000  -0.00782  -0.06464   0.02448
 167       12D+1        0.00227   0.01063   0.00000   0.00000   0.00000
 168       12D-1        0.00000   0.00000   0.00522   0.00004  -0.03171
 169       12D+2        0.00000   0.00000   0.00227  -0.04567   0.00165
 170       12D-2        0.00151  -0.00515   0.00000   0.00000   0.00000
 171       13F 0        0.00000   0.00000  -0.00069  -0.00061   0.00151
 172       13F+1        0.00017   0.00052   0.00000   0.00000   0.00000
 173       13F-1        0.00000   0.00000  -0.00096   0.00086  -0.00306
 174       13F+2        0.00000   0.00000  -0.00129   0.00081  -0.00042
 175       13F-2       -0.00039  -0.00078   0.00000   0.00000   0.00000
 176       13F+3       -0.00045  -0.00206   0.00000   0.00000   0.00000
 177       13F-3        0.00000   0.00000  -0.00020   0.00071  -0.00244
 178       14F 0        0.00000   0.00000   0.00136  -0.00507   0.00119
 179       14F+1        0.00069   0.00134   0.00000   0.00000   0.00000
 180       14F-1        0.00000   0.00000   0.00175   0.01118  -0.00532
 181       14F+2        0.00000   0.00000   0.00334  -0.00092   0.00130
 182       14F-2       -0.00054  -0.00416   0.00000   0.00000   0.00000
 183       14F+3        0.00077   0.00065   0.00000   0.00000   0.00000
 184       14F-3        0.00000   0.00000   0.00009   0.00079  -0.00156
                          21        22        23        24        25
     Eigenvalues --     0.01543   0.01410   0.01388   0.01350   0.01081
   1 1   O  1S         -0.03450   0.00000   0.00000   0.00383  -0.23971
   2        2S          0.06929   0.00000   0.00000  -0.01156   0.77993
   3        3S          0.11249   0.00000   0.00000  -0.01046   0.65839
   4        4S         -0.79572   0.00000   0.00000   0.03065  -1.19598
   5        5S         -0.45346   0.00000   0.00000   0.01761  -0.29224
   6        6PX         0.00000  -0.12626   0.22783   0.00000   0.00000
   7        6PY         0.00688   0.00000   0.00000   0.30544   0.00083
   8        6PZ         0.30170   0.00000   0.00000  -0.01367   0.20678
   9        7PX         0.00000  -0.09729   0.17296   0.00000   0.00000
  10        7PY         0.00514   0.00000   0.00000   0.16430  -0.00107
  11        7PZ         0.29795   0.00000   0.00000  -0.00755  -0.03022
  12        8PX         0.00000   0.06672  -0.12520   0.00000   0.00000
  13        8PY         0.00261   0.00000   0.00000  -0.18797   0.00034
  14        8PZ         0.03834   0.00000   0.00000   0.00808  -0.10075
  15        9PX         0.00000   0.01480  -0.02848   0.00000   0.00000
  16        9PY         0.00313   0.00000   0.00000   0.00101   0.00073
  17        9PZ         0.05855   0.00000   0.00000  -0.00090   0.00005
  18       10D 0        0.05487   0.00000   0.00000  -0.00148  -0.01831
  19       10D+1        0.00000  -0.01936   0.03548   0.00000   0.00000
  20       10D-1        0.00092   0.00000   0.00000  -0.00767  -0.00112
  21       10D+2        0.01334   0.00000   0.00000  -0.00056  -0.02073
  22       10D-2        0.00000  -0.02070  -0.01136   0.00000   0.00000
  23       11D 0        0.08930   0.00000   0.00000  -0.00244  -0.06603
  24       11D+1        0.00000  -0.03518   0.06589   0.00000   0.00000
  25       11D-1        0.00168   0.00000   0.00000  -0.04644  -0.00143
  26       11D+2        0.04558   0.00000   0.00000  -0.00169  -0.00697
  27       11D-2        0.00000  -0.06536  -0.03678   0.00000   0.00000
  28       12D 0        0.02320   0.00000   0.00000  -0.00111  -0.05098
  29       12D+1        0.00000   0.00840  -0.01350   0.00000   0.00000
  30       12D-1       -0.00193   0.00000   0.00000  -0.05102  -0.00085
  31       12D+2        0.01876   0.00000   0.00000  -0.00003   0.01135
  32       12D-2        0.00000  -0.04681  -0.02829   0.00000   0.00000
  33       13F 0       -0.01007   0.00000   0.00000   0.00021   0.00125
  34       13F+1        0.00000   0.00315  -0.00588   0.00000   0.00000
  35       13F-1       -0.00033   0.00000   0.00000   0.00565   0.00003
  36       13F+2       -0.00436   0.00000   0.00000   0.00016   0.00209
  37       13F-2        0.00000   0.00479   0.00254   0.00000   0.00000
  38       13F+3        0.00000   0.00027  -0.00069   0.00000   0.00000
  39       13F-3       -0.00007   0.00000   0.00000  -0.00141   0.00004
  40       14F 0       -0.02596   0.00000   0.00000   0.00069   0.02175
  41       14F+1        0.00000   0.00485  -0.00947   0.00000   0.00000
  42       14F-1       -0.00057   0.00000   0.00000   0.00420   0.00030
  43       14F+2       -0.00058   0.00000   0.00000  -0.00029  -0.00152
  44       14F-2        0.00000   0.02419   0.01442   0.00000   0.00000
  45       14F+3        0.00000  -0.00328   0.00556   0.00000   0.00000
  46       14F-3        0.00027   0.00000   0.00000   0.01273   0.00004
  47 2   C  1S         -0.03884   0.00000   0.00000   0.00343   0.00906
  48        2S          0.16923   0.00000   0.00000  -0.01592   0.05534
  49        3S          0.11807   0.00000   0.00000  -0.00901   0.05502
  50        4S         -0.13106   0.00000   0.00000   0.00326   0.19918
  51        5S          0.06201   0.00000   0.00000  -0.00334   0.06121
  52        6PX         0.00000   0.06278  -0.10546   0.00000   0.00000
  53        6PY         0.01067   0.00000   0.00000   0.22221   0.00093
  54        6PZ         0.33401   0.00000   0.00000  -0.00456  -0.11674
  55        7PX         0.00000   0.09209  -0.15379   0.00000   0.00000
  56        7PY         0.02098   0.00000   0.00000   0.48329   0.01037
  57        7PZ         0.50084   0.00000   0.00000  -0.00077  -0.00797
  58        8PX         0.00000   0.08180  -0.14279   0.00000   0.00000
  59        8PY         0.02036   0.00000   0.00000   0.44418   0.01085
  60        8PZ         0.45230   0.00000   0.00000  -0.01272  -0.02907
  61        9PX         0.00000   0.00433  -0.00664   0.00000   0.00000
  62        9PY        -0.00091   0.00000   0.00000  -0.00673   0.00003
  63        9PZ         0.01987   0.00000   0.00000  -0.00051   0.00462
  64       10D 0        0.05975   0.00000   0.00000  -0.00241  -0.02909
  65       10D+1        0.00000   0.05269  -0.09537   0.00000   0.00000
  66       10D-1       -0.00230   0.00000   0.00000  -0.08530  -0.00027
  67       10D+2        0.04681   0.00000   0.00000  -0.00133  -0.02688
  68       10D-2        0.00000  -0.07885  -0.04626   0.00000   0.00000
  69       11D 0        0.18706   0.00000   0.00000  -0.00405  -0.12453
  70       11D+1        0.00000   0.10069  -0.18407   0.00000   0.00000
  71       11D-1       -0.00917   0.00000   0.00000  -0.47292  -0.00487
  72       11D+2        0.18276   0.00000   0.00000  -0.00552  -0.04083
  73       11D-2        0.00000  -0.12011  -0.07219   0.00000   0.00000
  74       12D 0        0.05022   0.00000   0.00000  -0.00348   0.03140
  75       12D+1        0.00000   0.00479  -0.00554   0.00000   0.00000
  76       12D-1       -0.00505   0.00000   0.00000  -0.19035  -0.00204
  77       12D+2        0.04411   0.00000   0.00000  -0.00297   0.00629
  78       12D-2        0.00000   0.02199   0.01366   0.00000   0.00000
  79       13F 0       -0.01333   0.00000   0.00000   0.00131  -0.00526
  80       13F+1        0.00000   0.00403  -0.00598   0.00000   0.00000
  81       13F-1        0.00250   0.00000   0.00000   0.04311   0.00101
  82       13F+2       -0.01541   0.00000   0.00000   0.00006  -0.00682
  83       13F-2        0.00000   0.02575   0.01520   0.00000   0.00000
  84       13F+3        0.00000   0.01287  -0.02330   0.00000   0.00000
  85       13F-3       -0.00014   0.00000   0.00000  -0.01154  -0.00001
  86       14F 0       -0.06814   0.00000   0.00000   0.00553  -0.05233
  87       14F+1        0.00000   0.02437  -0.04222   0.00000   0.00000
  88       14F-1       -0.00566   0.00000   0.00000  -0.12165  -0.00232
  89       14F+2       -0.07423   0.00000   0.00000   0.00419  -0.00432
  90       14F-2        0.00000   0.05402   0.03296   0.00000   0.00000
  91       14F+3        0.00000   0.00243  -0.00780   0.00000   0.00000
  92       14F-3       -0.00339   0.00000   0.00000  -0.07151  -0.00103
  93 3   F  1S          0.01402   0.00000   0.00000   0.04764  -0.02105
  94        2S         -0.02434   0.00000   0.00000  -0.11807   0.05094
  95        3S         -0.03861   0.00000   0.00000  -0.13250   0.05364
  96        4S          0.36033   0.00000   0.00000   0.68415  -0.10405
  97        5S          0.25573   0.00000   0.00000   0.53186   0.00398
  98        6PX         0.00000  -0.19753  -0.57368   0.00000   0.00000
  99        6PY        -0.08258   0.00000   0.00000   0.34519   0.04163
 100        6PZ         0.32408   0.00000   0.00000  -0.01262  -0.12527
 101        7PX         0.00000  -0.06089  -0.16799   0.00000   0.00000
 102        7PY         0.02016   0.00000   0.00000   0.17994   0.00702
 103        7PZ         0.14024   0.00000   0.00000   0.05841  -0.02235
 104        8PX         0.00000   0.19604   0.69446   0.00000   0.00000
 105        8PY         0.19265   0.00000   0.00000  -0.25783  -0.05848
 106        8PZ        -0.25392   0.00000   0.00000   0.30068   0.15319
 107        9PX         0.00000   0.03198   0.10573   0.00000   0.00000
 108        9PY         0.05756   0.00000   0.00000   0.05301  -0.01159
 109        9PZ         0.00231   0.00000   0.00000   0.05092   0.02490
 110       10D 0       -0.00131   0.00000   0.00000   0.00305   0.00041
 111       10D+1        0.00000   0.01520   0.00394   0.00000   0.00000
 112       10D-1       -0.01518   0.00000   0.00000  -0.02592   0.01733
 113       10D+2        0.00525   0.00000   0.00000   0.01003  -0.00173
 114       10D-2        0.00000   0.00034   0.01629   0.00000   0.00000
 115       11D 0        0.00286   0.00000   0.00000   0.00530  -0.00219
 116       11D+1        0.00000   0.04057   0.01418   0.00000   0.00000
 117       11D-1       -0.02676   0.00000   0.00000  -0.04767   0.05126
 118       11D+2        0.01066   0.00000   0.00000   0.00732  -0.00998
 119       11D-2        0.00000   0.00242   0.05004   0.00000   0.00000
 120       12D 0       -0.00827   0.00000   0.00000   0.06029  -0.00123
 121       12D+1        0.00000   0.02151   0.01901   0.00000   0.00000
 122       12D-1        0.00213   0.00000   0.00000   0.03010   0.04131
 123       12D+2        0.01490   0.00000   0.00000   0.03344  -0.00273
[...]
 113       10D+2        0.02350  -0.02060   0.00000  -0.00481  -0.01155
 114       10D-2        0.00000   0.00000  -0.01040   0.00000   0.00000
 115       11D 0        0.04866  -0.05028   0.00000  -0.06957   0.00615
 116       11D+1        0.00000   0.00000  -0.11001   0.00000   0.00000
 117       11D-1        0.06519  -0.08956   0.00000  -0.03198  -0.01984
 118       11D+2       -0.08708   0.06521   0.00000   0.02152   0.03692
 119       11D-2        0.00000   0.00000   0.02401   0.00000   0.00000
 120       12D 0        0.44201   0.06795   0.00000   0.23144  -0.51043
 121       12D+1        0.00000   0.00000   0.25995   0.00000   0.00000
 122       12D-1        0.76468   0.41847   0.00000   0.03105  -0.31504
 123       12D+2        0.09637  -0.11015   0.00000  -0.18045  -0.11363
 124       12D-2        0.00000   0.00000  -0.00563   0.00000   0.00000
 125       13F 0        0.00479   0.02212   0.00000  -0.01386   0.00181
 126       13F+1        0.00000   0.00000   0.00386   0.00000   0.00000
 127       13F-1       -0.04783   0.02663   0.00000   0.00203   0.01164
 128       13F+2        0.02376  -0.03580   0.00000   0.00118  -0.00601
 129       13F-2        0.00000   0.00000   0.01542   0.00000   0.00000
 130       13F+3        0.00000   0.00000   0.00813   0.00000   0.00000
 131       13F-3       -0.01053  -0.01857   0.00000   0.01685  -0.00757
 132       14F 0       -0.02100  -0.05079   0.00000   0.04484  -0.01621
 133       14F+1        0.00000   0.00000  -0.00182   0.00000   0.00000
 134       14F-1        0.15635  -0.06179   0.00000   0.00814  -0.06808
 135       14F+2       -0.07666   0.06831   0.00000  -0.01575   0.02685
 136       14F-2        0.00000   0.00000  -0.04201   0.00000   0.00000
 137       14F+3        0.00000   0.00000  -0.00824   0.00000   0.00000
 138       14F-3        0.01971   0.04325   0.00000  -0.04838   0.01219
 139 4   F  1S          0.08055  -0.12262   0.00000   0.01919   0.01043
 140        2S          0.36575  -0.52928   0.00000   0.07669   0.01623
 141        3S         -0.06298   0.12690   0.00000  -0.02282  -0.04175
 142        4S         -1.20270   3.48240   0.00000  -1.73600   0.31028
 143        5S          1.98098   6.16931   0.00000   2.21909   3.30994
 144        6PX         0.00000   0.00000  -0.00340   0.00000   0.00000
 145        6PY         0.00201  -0.00763   0.00000  -0.01055  -0.01324
 146        6PZ         0.01809   0.00287   0.00000  -0.00390   0.00704
 147        7PX         0.00000   0.00000   0.00725   0.00000   0.00000
 148        7PY         0.00279   0.02079   0.00000   0.08947   0.06901
 149        7PZ        -0.09409  -0.00759   0.00000  -0.02478  -0.06292
 150        8PX         0.00000   0.00000   0.12282   0.00000   0.00000
 151        8PY         0.48501  -1.33742   0.00000   0.16687  -0.31404
 152        8PZ        -1.45997   1.46350   0.00000  -0.60920   1.35863
 153        9PX         0.00000   0.00000  -0.06630   0.00000   0.00000
 154        9PY        -1.85996  -1.25629   0.00000  -0.29022   0.56174
 155        9PZ         1.84868   3.17204   0.00000   2.24322   1.07296
 156       10D 0        0.00999   0.01286   0.00000   0.01987   0.00537
 157       10D+1        0.00000   0.00000   0.03129   0.00000   0.00000
 158       10D-1       -0.01530  -0.02298   0.00000  -0.00453   0.00115
 159       10D+2       -0.02796  -0.01653   0.00000  -0.00674   0.01022
 160       10D-2        0.00000   0.00000   0.01022   0.00000   0.00000
 161       11D 0       -0.05036  -0.04406   0.00000  -0.06737  -0.01671
 162       11D+1        0.00000   0.00000  -0.11059   0.00000   0.00000
 163       11D-1        0.08326   0.07485   0.00000   0.03875  -0.01014
 164       11D+2        0.10250   0.04816   0.00000   0.02778  -0.03151
 165       11D-2        0.00000   0.00000  -0.02391   0.00000   0.00000
 166       12D 0       -0.40687   0.13734   0.00000   0.14696   0.51694
 167       12D+1        0.00000   0.00000   0.26095   0.00000   0.00000
 168       12D-1        0.66613  -0.58254   0.00000   0.03438  -0.29602
 169       12D+2       -0.13339  -0.12885   0.00000  -0.17450   0.08759
 170       12D-2        0.00000   0.00000   0.00910   0.00000   0.00000
 171       13F 0       -0.00409   0.02304   0.00000  -0.01376  -0.00404
 172       13F+1        0.00000   0.00000   0.00459   0.00000   0.00000
 173       13F-1       -0.05056  -0.01792   0.00000  -0.00309   0.01110
 174       13F+2       -0.03066  -0.03083   0.00000   0.00025   0.00509
 175       13F-2        0.00000   0.00000  -0.01549   0.00000   0.00000
 176       13F+3        0.00000   0.00000   0.00705   0.00000   0.00000
 177       13F-3       -0.00742   0.02036   0.00000  -0.01576  -0.00989
 178       14F 0        0.02115  -0.05686   0.00000   0.04316   0.02421
 179       14F+1        0.00000   0.00000  -0.00310   0.00000   0.00000
 180       14F-1        0.16169   0.03021   0.00000   0.00300  -0.06625
 181       14F+2        0.09073   0.04788   0.00000  -0.00885  -0.02369
 182       14F-2        0.00000   0.00000   0.04141   0.00000   0.00000
 183       14F+3        0.00000   0.00000  -0.00701   0.00000   0.00000
 184       14F-3        0.01299  -0.04438   0.00000   0.04533   0.01742
                         181       182       183       184
     Eigenvalues --     0.00000   0.00000   0.00000   0.00000
   1 1   O  1S          0.00000   0.00516   0.11005  -0.05383
   2        2S          0.00000   0.02481   0.54762  -0.26806
   3        3S          0.00000  -0.00395  -0.04460   0.02677
   4        4S          0.00000  -0.11331  -3.01595   6.92253
   5        5S          0.00000  -0.28680 -10.68458  16.13511
   6        6PX         0.01326   0.00000   0.00000   0.00000
   7        6PY         0.00000  -0.00250  -0.00087   0.00005
   8        6PZ         0.00000   0.00011   0.01200  -0.00425
   9        7PX        -0.03635   0.00000   0.00000   0.00000
  10        7PY         0.00000   0.00749   0.00606  -0.00154
  11        7PZ         0.00000  -0.00319  -0.06996  -0.12442
  12        8PX         0.67991   0.00000   0.00000   0.00000
  13        8PY         0.00000  -1.80489   0.05391  -0.01451
  14        8PZ         0.00000   0.07901   2.76551  -3.06801
  15        9PX        -1.58287   0.00000   0.00000   0.00000
  16        9PY         0.00000  -4.26466   0.09660   0.06724
  17        9PZ         0.00000   0.06374   2.87179  -3.45741
  18       10D 0        0.00000   0.00054   0.01862  -0.00456
  19       10D+1        0.00904   0.00000   0.00000   0.00000
  20       10D-1        0.00000   0.00162   0.00112  -0.00035
  21       10D+2        0.00000  -0.00061   0.00001  -0.00658
  22       10D-2        0.00011   0.00000   0.00000   0.00000
  23       11D 0        0.00000  -0.00308  -0.14376   0.09004
  24       11D+1       -0.09652   0.00000   0.00000   0.00000
  25       11D-1        0.00000   0.08224  -0.00992   0.00249
  26       11D+2        0.00000   0.00164  -0.00178   0.02783
  27       11D-2       -0.00050   0.00000   0.00000   0.00000
  28       12D 0        0.00000  -0.03498  -0.78954   0.24508
  29       12D+1       -0.08534   0.00000   0.00000   0.00000
  30       12D-1        0.00000   1.07321  -0.02645  -0.00418
  31       12D+2        0.00000  -0.00910  -0.03405   0.11507
  32       12D-2        0.00233   0.00000   0.00000   0.00000
  33       13F 0        0.00000  -0.00128   0.00261  -0.02160
  34       13F+1        0.00281   0.00000   0.00000   0.00000
  35       13F-1        0.00000   0.01542  -0.00042  -0.00036
  36       13F+2        0.00000   0.00022  -0.00214   0.01978
  37       13F-2        0.00066   0.00000   0.00000   0.00000
  38       13F+3       -0.00215   0.00000   0.00000   0.00000
  39       13F-3        0.00000  -0.00154   0.00006   0.00020
  40       14F 0        0.00000   0.00866   0.11017   0.04209
  41       14F+1        0.05142   0.00000   0.00000   0.00000
  42       14F-1        0.00000  -0.18031   0.00844   0.00073
  43       14F+2        0.00000   0.00037   0.01210  -0.06805
  44       14F-2       -0.00134   0.00000   0.00000   0.00000
  45       14F+3        0.02125   0.00000   0.00000   0.00000
  46       14F-3        0.00000   0.01907  -0.00002  -0.00072
  47 2   C  1S          0.00000   0.00375   0.06290  -0.07685
  48        2S          0.00000   0.02671   0.38773  -0.40971
  49        3S          0.00000   0.02086   0.20222   0.18732
  50        4S          0.00000  -0.12384  -4.56019 -18.10052
  51        5S          0.00000  -0.10138  -0.50396  -9.91790
  52        6PX        -0.00548   0.00000   0.00000   0.00000
  53        6PY         0.00000   0.02232  -0.00156  -0.00003
  54        6PZ         0.00000  -0.00101  -0.01868   0.00530
  55        7PX        -0.06907   0.00000   0.00000   0.00000
  56        7PY         0.00000  -1.21011   0.10509   0.02747
  57        7PZ         0.00000   0.02340   1.63492  -0.15440
  58        8PX         0.72312   0.00000   0.00000   0.00000
  59        8PY         0.00000  -8.11172   0.52980   0.15635
  60        8PZ         0.00000   0.19876   7.31412  -5.05772
  61        9PX         3.16206   0.00000   0.00000   0.00000
  62        9PY         0.00000   2.38606   0.00536  -0.06950
  63        9PZ         0.00000   0.08226   1.93908  -0.00391
  64       10D 0        0.00000   0.00062   0.01756   0.03496
  65       10D+1        0.00574   0.00000   0.00000   0.00000
  66       10D-1        0.00000  -0.01245  -0.00206  -0.00025
  67       10D+2        0.00000  -0.00099  -0.00606  -0.02092
  68       10D-2       -0.00011   0.00000   0.00000   0.00000
  69       11D 0        0.00000   0.01388   0.39642  -0.96752
  70       11D+1       -0.32122   0.00000   0.00000   0.00000
  71       11D-1        0.00000   2.32118  -0.08333  -0.04611
  72       11D+2        0.00000   0.04988   0.87939   0.63448
  73       11D-2       -0.00025   0.00000   0.00000   0.00000
  74       12D 0        0.00000   0.04024   0.46407  -2.75422
  75       12D+1       -0.32701   0.00000   0.00000   0.00000
  76       12D-1        0.00000   4.58892  -0.13006  -0.13862
  77       12D+2        0.00000   0.04607   0.94371   0.02315
  78       12D-2        0.01114   0.00000   0.00000   0.00000
  79       13F 0        0.00000  -0.00559  -0.05037  -0.02944
  80       13F+1       -0.04891   0.00000   0.00000   0.00000
  81       13F-1        0.00000  -0.00897  -0.00366   0.00133
  82       13F+2        0.00000  -0.00485  -0.04511  -0.02273
  83       13F-2       -0.00026   0.00000   0.00000   0.00000
  84       13F+3        0.04660   0.00000   0.00000   0.00000
  85       13F-3        0.00000   0.05994  -0.00196  -0.00038
  86       14F 0        0.00000  -0.01477  -0.32684  -0.51238
  87       14F+1       -0.10305   0.00000   0.00000   0.00000
  88       14F-1        0.00000  -0.10179  -0.01263  -0.00976
  89       14F+2        0.00000  -0.02490  -0.23364  -0.38779
  90       14F-2       -0.01033   0.00000   0.00000   0.00000
  91       14F+3       -0.22740   0.00000   0.00000   0.00000
  92       14F-3        0.00000  -0.07634  -0.00714  -0.00470
  93 3   F  1S          0.00000   0.09720  -0.02857  -0.01906
  94        2S          0.00000   0.44969  -0.15534  -0.10803
  95        3S          0.00000  -0.06447  -0.01326  -0.00921
  96        4S          0.00000  -3.01160   2.02814   1.85631
  97        5S          0.00000 -16.15284   8.85915   3.03017
  98        6PX         0.01734   0.00000   0.00000   0.00000
  99        6PY         0.00000  -0.01010   0.01094   0.00477
 100        6PZ         0.00000  -0.00603   0.00737   0.00281
 101        7PX        -0.06687   0.00000   0.00000   0.00000
 102        7PY         0.00000   0.04679  -0.04804  -0.01951
 103        7PZ         0.00000   0.02079  -0.02898  -0.00882
 104        8PX         0.00954   0.00000   0.00000   0.00000
 105        8PY         0.00000  -2.43679   1.56835   1.29096
 106        8PZ         0.00000  -1.39036   1.42826   0.95486
 107        9PX        -1.35377   0.00000   0.00000   0.00000
 108        9PY         0.00000  -5.50682   1.67634   0.64134
 109        9PZ         0.00000  -1.91543   1.30462  -1.04427
 110       10D 0        0.00000   0.00189  -0.00456   0.00009
 111       10D+1       -0.00759   0.00000   0.00000   0.00000
 112       10D-1        0.00000  -0.00538  -0.00374  -0.00538
 113       10D+2        0.00000   0.01882  -0.00461   0.00074
 114       10D-2       -0.00802   0.00000   0.00000   0.00000
 115       11D 0        0.00000  -0.00948   0.02418  -0.00689
 116       11D+1        0.02532   0.00000   0.00000   0.00000
 117       11D-1        0.00000  -0.01200   0.04761   0.03281
 118       11D+2        0.00000  -0.04266  -0.00025  -0.01199
 119       11D-2        0.03033   0.00000   0.00000   0.00000
 120       12D 0        0.00000   0.26570   0.09545   0.00800
 121       12D+1       -0.16802   0.00000   0.00000   0.00000
 122       12D-1        0.00000  -0.66203   0.49458   0.25610
 123       12D+2        0.00000   0.62836  -0.20803  -0.17917
 124       12D-2       -0.12896   0.00000   0.00000   0.00000
 125       13F 0        0.00000  -0.01364   0.00348   0.00511
 126       13F+1        0.00590   0.00000   0.00000   0.00000
 127       13F-1        0.00000  -0.00242  -0.01279  -0.00234
 128       13F+2        0.00000   0.00699   0.00911   0.00124
 129       13F-2        0.01499   0.00000   0.00000   0.00000
 130       13F+3        0.00739   0.00000   0.00000   0.00000
 131       13F-3        0.00000   0.00925  -0.00950  -0.00866
 132       14F 0        0.00000   0.07006  -0.02378  -0.02473
 133       14F+1       -0.02036   0.00000   0.00000   0.00000
 134       14F-1        0.00000   0.00223   0.06570   0.00545
 135       14F+2        0.00000   0.03031  -0.05798  -0.01891
 136       14F-2       -0.03022   0.00000   0.00000   0.00000
 137       14F+3       -0.01758   0.00000   0.00000   0.00000
 138       14F-3        0.00000   0.01211   0.01389   0.00519
 139 4   F  1S          0.00000  -0.09508  -0.01943  -0.01546
 140        2S          0.00000  -0.44472  -0.11212  -0.09149
 141        3S          0.00000   0.05649  -0.01821  -0.01170
 142        4S          0.00000   3.06325   1.68801   1.67804
 143        5S          0.00000  16.70003   7.20937   2.23592
 144        6PX         0.01791   0.00000   0.00000   0.00000
 145        6PY         0.00000  -0.01127  -0.00894  -0.00498
 146        6PZ         0.00000   0.00657   0.00682   0.00280
 147        7PX        -0.06844   0.00000   0.00000   0.00000
 148        7PY         0.00000   0.05574   0.04109   0.02236
 149        7PZ         0.00000  -0.02534  -0.02625  -0.01041
 150        8PX        -0.00059   0.00000   0.00000   0.00000
 151        8PY         0.00000  -2.58292  -1.36536  -1.23092
 152        8PZ         0.00000   1.48060   1.19601   0.86855
 153        9PX        -1.35584   0.00000   0.00000   0.00000
 154        9PY         0.00000  -5.62528  -1.25064  -0.38715
 155        9PZ         0.00000   1.98951   1.05755  -1.10318
 156       10D 0        0.00000  -0.00191  -0.00444   0.00024
 157       10D+1       -0.00762   0.00000   0.00000   0.00000
 158       10D-1        0.00000  -0.00508   0.00369   0.00544
 159       10D+2        0.00000  -0.01906  -0.00394   0.00080
 160       10D-2        0.00881   0.00000   0.00000   0.00000
 161       11D 0        0.00000   0.00958   0.02164  -0.00766
 162       11D+1        0.02505   0.00000   0.00000   0.00000
 163       11D-1        0.00000  -0.01648  -0.04312  -0.03086
 164       11D+2        0.00000   0.04106  -0.00118  -0.01066
 165       11D-2       -0.03181   0.00000   0.00000   0.00000
 166       12D 0        0.00000  -0.26045   0.07080   0.00012
 167       12D+1       -0.16884   0.00000   0.00000   0.00000
 168       12D-1        0.00000  -0.69671  -0.42394  -0.23641
 169       12D+2        0.00000  -0.65998  -0.17721  -0.17693
 170       12D-2        0.14188   0.00000   0.00000   0.00000
 171       13F 0        0.00000   0.01304   0.00308   0.00539
 172       13F+1        0.00489   0.00000   0.00000   0.00000
 173       13F-1        0.00000  -0.00173   0.01191   0.00212
 174       13F+2        0.00000  -0.00557   0.00940   0.00202
 175       13F-2       -0.01531   0.00000   0.00000   0.00000
 176       13F+3        0.00737   0.00000   0.00000   0.00000
 177       13F-3        0.00000   0.01009   0.00918   0.00813
 178       14F 0        0.00000  -0.07061  -0.02189  -0.02464
 179       14F+1       -0.01800   0.00000   0.00000   0.00000
 180       14F-1        0.00000  -0.00143  -0.05812  -0.00396
 181       14F+2        0.00000  -0.03773  -0.05442  -0.01924
 182       14F-2        0.03199   0.00000   0.00000   0.00000
 183       14F+3       -0.01631   0.00000   0.00000   0.00000
 184       14F-3        0.00000   0.01359  -0.01444  -0.00473
          Condensed to atoms (all electrons):
              1          2          3          4
     1  O    7.947078   0.499938  -0.081053  -0.078350
     2  C    0.499938   4.519603   0.186238   0.184124
     3  F   -0.081053   0.186238   9.095890  -0.048510
     4  F   -0.078350   0.184124  -0.048510   9.112653
 Mulliken atomic charges:
              1
     1  O   -0.287614
     2  C    0.610096
     3  F   -0.152565
     4  F   -0.169917
 Sum of Mulliken atomic charges =   0.00000
 Mulliken charges with hydrogens summed into heavy atoms:
              1
     1  O   -0.287614
     2  C    0.610096
     3  F   -0.152565
     4  F   -0.169917
 Sum of Mulliken charges with hydrogens summed into heavy atoms =   0.00000
 Electronic spatial extent (au):  <R**2>=            239.4195
 Charge=              0.0000 electrons
 Dipole moment (field-independent basis, Debye):
    X=              0.0000    Y=             -0.0971    Z=             -1.0333  Tot=              1.0378
 Quadrupole moment (field-independent basis, Debye-Ang):
   XX=            -18.9051   YY=            -21.3164   ZZ=            -21.9186
   XY=              0.0000   XZ=              0.0000   YZ=              0.1114
 Traceless Quadrupole moment (field-independent basis, Debye-Ang):
   XX=              1.8083   YY=             -0.6031   ZZ=             -1.2052
   XY=              0.0000   XZ=              0.0000   YZ=              0.1114
 Octapole moment (field-independent basis, Debye-Ang**2):
  XXX=              0.0000  YYY=             -0.0114  ZZZ=             34.2715  XYY=              0.0000
  XXY=             -0.0016  XXZ=             10.3472  XZZ=              0.0000  YZZ=             -0.0958
  YYZ=             12.0137  XYZ=              0.0000
 Hexadecapole moment (field-independent basis, Debye-Ang**3):
 XXXX=            -13.4828 YYYY=            -79.9332 ZZZZ=           -132.3940 XXXY=              0.0000
 XXXZ=              0.0000 YYYX=              0.0000 YYYZ=              0.1185 ZZZX=              0.0000
 ZZZY=              0.2381 XXYY=            -15.6417 XXZZ=            -23.5678 YYZZ=            -36.1546
 XXYZ=              0.0389 YYXZ=              0.0000 ZZXY=              0.0000
 N-N= 1.199414863912D+02 E-N=-9.819263699177D+02  KE= 3.123818260976D+02
 1\1\GINC-TRAPISTA\SP\RQCISD-FC\Aug-CC-pVTZ\C1F2O1\BRUNS\26-Nov-2021\0\
 \# qcisd/aug-cc-pvtz nosymm density=current output=wfn\\f2co-wavefunct
 ion\\0,1\O,0,0.,0.,0.679927\C,0,0.,-0.01,-0.492216\F,0,0.,-1.058878,-1
 .264305\F,0,0.,1.058878,-1.264305\\Version=EM64L-G09RevB.01\HF=-311.74
 1129\MP2=-312.6370439\MP3=-312.6245385\MP4D=-312.6401397\MP4DQ=-312.62
 40816\MP4SDQ=-312.6356868\QCISD=-312.6351896\RMSD=3.673e-09\Dipole=0.,
 -0.0381992,-0.4065306\Quadrupole=1.3444389,-0.4483766,-0.8960623,0.,0.
 ,0.0828425\PG=CS [SG(C1F2O1)]\\@

 Writing a WFN file to GAUSSIAN.wfn.


 KNOWLEDGE IS OF TWO KINDS:  WE KNOW A SUBJECT OURSELVES OR WE KNOW 
 WHERE WE CAN FIND INFORMATION UPON IT.

                                    -- SAMUEL JOHNSON
 Job cpu time:  0 days  1 hours 52 minutes 23.9 seconds.
 File lengths (MBytes):  RWF=  17462 Int=      0 D2E=      0 Chk=      3 Scr=      1
 Normal termination of Gaussian 09 at Fri Nov 26 20:45:23 2021.
