 f2co-wavefunction
GAUSSIAN            184 MOL ORBITALS    288 PRIMITIVES        4 NUCLEI
  O    1    (CENTRE  1)   0.00000000 -0.01889726  1.28487582  CHARGE =  8.0
  C    2    (CENTRE  2)   0.00000000  0.00000000 -0.93015344  CHARGE =  6.0
  F    3    (CENTRE  3)   0.00000000 -2.00098943 -2.38919020  CHARGE =  9.0
  F    4    (CENTRE  4)   0.00000000  2.00098943 -2.38919020  CHARGE =  9.0
CENTRE ASSIGNMENTS    1  1  1  1  1  1  1  1  1  1  1  1  1  1  1  1  1  1  1  1
CENTRE ASSIGNMENTS    1  1  1  1  1  1  1  1  1  1  1  1  1  1  1  1  1  1  1  1
CENTRE ASSIGNMENTS    1  1  1  1  1  1  1  1  1  1  1  1  1  1  1  1  1  1  1  1
CENTRE ASSIGNMENTS    1  1  1  1  1  1  1  1  1  1  1  1  2  2  2  2  2  2  2  2
CENTRE ASSIGNMENTS    2  2  2  2  2  2  2  2  2  2  2  2  2  2  2  2  2  2  2  2
CENTRE ASSIGNMENTS    2  2  2  2  2  2  2  2  2  2  2  2  2  2  2  2  2  2  2  2
CENTRE ASSIGNMENTS    2  2  2  2  2  2  2  2  2  2  2  2  2  2  2  2  2  2  2  2
CENTRE ASSIGNMENTS    2  2  2  2  3  3  3  3  3  3  3  3  3  3  3  3  3  3  3  3
CENTRE ASSIGNMENTS    3  3  3  3  3  3  3  3  3  3  3  3  3  3  3  3  3  3  3  3
CENTRE ASSIGNMENTS    3  3  3  3  3  3  3  3  3  3  3  3  3  3  3  3  3  3  3  3
CENTRE ASSIGNMENTS    3  3  3  3  3  3  3  3  3  3  3  3  3  3  3  3  4  4  4  4
CENTRE ASSIGNMENTS    4  4  4  4  4  4  4  4  4  4  4  4  4  4  4  4  4  4  4  4
CENTRE ASSIGNMENTS    4  4  4  4  4  4  4  4  4  4  4  4  4  4  4  4  4  4  4  4
CENTRE ASSIGNMENTS    4  4  4  4  4  4  4  4  4  4  4  4  4  4  4  4  4  4  4  4
CENTRE ASSIGNMENTS    4  4  4  4  4  4  4  4
TYPE ASSIGNMENTS      1  1  1  1  1  1  1  1  1  1  1  1  1  1  1  1  2  2  2  3
TYPE ASSIGNMENTS      3  3  4  4  4  2  3  4  2  3  4  2  3  4  5  6  7  8  9 10
TYPE ASSIGNMENTS      5  6  7  8  9 10  5  6  7  8  9 10 11 12 13 17 14 15 18 19
TYPE ASSIGNMENTS     16 20 11 12 13 17 14 15 18 19 16 20  1  1  1  1  1  1  1  1
TYPE ASSIGNMENTS      1  1  1  1  1  1  1  1  2  2  2  3  3  3  4  4  4  2  3  4
TYPE ASSIGNMENTS      2  3  4  2  3  4  5  6  7  8  9 10  5  6  7  8  9 10  5  6
TYPE ASSIGNMENTS      7  8  9 10 11 12 13 17 14 15 18 19 16 20 11 12 13 17 14 15
TYPE ASSIGNMENTS     18 19 16 20  1  1  1  1  1  1  1  1  1  1  1  1  1  1  1  1
TYPE ASSIGNMENTS      2  2  2  3  3  3  4  4  4  2  3  4  2  3  4  2  3  4  5  6
TYPE ASSIGNMENTS      7  8  9 10  5  6  7  8  9 10  5  6  7  8  9 10 11 12 13 17
TYPE ASSIGNMENTS     14 15 18 19 16 20 11 12 13 17 14 15 18 19 16 20  1  1  1  1
TYPE ASSIGNMENTS      1  1  1  1  1  1  1  1  1  1  1  1  2  2  2  3  3  3  4  4
TYPE ASSIGNMENTS      4  2  3  4  2  3  4  2  3  4  5  6  7  8  9 10  5  6  7  8
TYPE ASSIGNMENTS      9 10  5  6  7  8  9 10 11 12 13 17 14 15 18 19 16 20 11 12
TYPE ASSIGNMENTS     13 17 14 15 18 19 16 20
EXPONENTS  0.1533000D+05 0.2299000D+04 0.5224000D+03 0.1473000D+03 0.4755000D+02
EXPONENTS  0.1676000D+02 0.6207000D+01 0.5224000D+03 0.1473000D+03 0.4755000D+02
EXPONENTS  0.1676000D+02 0.6207000D+01 0.6882000D+00 0.1752000D+01 0.2384000D+00
EXPONENTS  0.7376000D-01 0.3446000D+02 0.7749000D+01 0.2280000D+01 0.3446000D+02
EXPONENTS  0.7749000D+01 0.2280000D+01 0.3446000D+02 0.7749000D+01 0.2280000D+01
EXPONENTS  0.7156000D+00 0.7156000D+00 0.7156000D+00 0.2140000D+00 0.2140000D+00
EXPONENTS  0.2140000D+00 0.5974000D-01 0.5974000D-01 0.5974000D-01 0.2314000D+01
EXPONENTS  0.2314000D+01 0.2314000D+01 0.2314000D+01 0.2314000D+01 0.2314000D+01
EXPONENTS  0.6450000D+00 0.6450000D+00 0.6450000D+00 0.6450000D+00 0.6450000D+00
EXPONENTS  0.6450000D+00 0.2140000D+00 0.2140000D+00 0.2140000D+00 0.2140000D+00
EXPONENTS  0.2140000D+00 0.2140000D+00 0.1428000D+01 0.1428000D+01 0.1428000D+01
EXPONENTS  0.1428000D+01 0.1428000D+01 0.1428000D+01 0.1428000D+01 0.1428000D+01
EXPONENTS  0.1428000D+01 0.1428000D+01 0.5000000D+00 0.5000000D+00 0.5000000D+00
EXPONENTS  0.5000000D+00 0.5000000D+00 0.5000000D+00 0.5000000D+00 0.5000000D+00
EXPONENTS  0.5000000D+00 0.5000000D+00 0.8236000D+04 0.1235000D+04 0.2808000D+03
EXPONENTS  0.7927000D+02 0.2559000D+02 0.8997000D+01 0.3319000D+01 0.2808000D+03
EXPONENTS  0.7927000D+02 0.2559000D+02 0.8997000D+01 0.3319000D+01 0.3643000D+00
EXPONENTS  0.9059000D+00 0.1285000D+00 0.4402000D-01 0.1871000D+02 0.4133000D+01
EXPONENTS  0.1200000D+01 0.1871000D+02 0.4133000D+01 0.1200000D+01 0.1871000D+02
EXPONENTS  0.4133000D+01 0.1200000D+01 0.3827000D+00 0.3827000D+00 0.3827000D+00
EXPONENTS  0.1209000D+00 0.1209000D+00 0.1209000D+00 0.3569000D-01 0.3569000D-01
EXPONENTS  0.3569000D-01 0.1097000D+01 0.1097000D+01 0.1097000D+01 0.1097000D+01
EXPONENTS  0.1097000D+01 0.1097000D+01 0.3180000D+00 0.3180000D+00 0.3180000D+00
EXPONENTS  0.3180000D+00 0.3180000D+00 0.3180000D+00 0.1000000D+00 0.1000000D+00
EXPONENTS  0.1000000D+00 0.1000000D+00 0.1000000D+00 0.1000000D+00 0.7610000D+00
EXPONENTS  0.7610000D+00 0.7610000D+00 0.7610000D+00 0.7610000D+00 0.7610000D+00
EXPONENTS  0.7610000D+00 0.7610000D+00 0.7610000D+00 0.7610000D+00 0.2680000D+00
EXPONENTS  0.2680000D+00 0.2680000D+00 0.2680000D+00 0.2680000D+00 0.2680000D+00
EXPONENTS  0.2680000D+00 0.2680000D+00 0.2680000D+00 0.2680000D+00 0.1950000D+05
EXPONENTS  0.2923000D+04 0.6645000D+03 0.1875000D+03 0.6062000D+02 0.2142000D+02
EXPONENTS  0.7950000D+01 0.6645000D+03 0.1875000D+03 0.6062000D+02 0.2142000D+02
EXPONENTS  0.7950000D+01 0.8815000D+00 0.2257000D+01 0.3041000D+00 0.9158000D-01
EXPONENTS  0.4388000D+02 0.9926000D+01 0.2930000D+01 0.4388000D+02 0.9926000D+01
EXPONENTS  0.2930000D+01 0.4388000D+02 0.9926000D+01 0.2930000D+01 0.9132000D+00
EXPONENTS  0.9132000D+00 0.9132000D+00 0.2672000D+00 0.2672000D+00 0.2672000D+00
EXPONENTS  0.7361000D-01 0.7361000D-01 0.7361000D-01 0.3107000D+01 0.3107000D+01
EXPONENTS  0.3107000D+01 0.3107000D+01 0.3107000D+01 0.3107000D+01 0.8550000D+00
EXPONENTS  0.8550000D+00 0.8550000D+00 0.8550000D+00 0.8550000D+00 0.8550000D+00
EXPONENTS  0.2920000D+00 0.2920000D+00 0.2920000D+00 0.2920000D+00 0.2920000D+00
EXPONENTS  0.2920000D+00 0.1917000D+01 0.1917000D+01 0.1917000D+01 0.1917000D+01
EXPONENTS  0.1917000D+01 0.1917000D+01 0.1917000D+01 0.1917000D+01 0.1917000D+01
EXPONENTS  0.1917000D+01 0.7240000D+00 0.7240000D+00 0.7240000D+00 0.7240000D+00
EXPONENTS  0.7240000D+00 0.7240000D+00 0.7240000D+00 0.7240000D+00 0.7240000D+00
EXPONENTS  0.7240000D+00 0.1950000D+05 0.2923000D+04 0.6645000D+03 0.1875000D+03
EXPONENTS  0.6062000D+02 0.2142000D+02 0.7950000D+01 0.6645000D+03 0.1875000D+03
EXPONENTS  0.6062000D+02 0.2142000D+02 0.7950000D+01 0.8815000D+00 0.2257000D+01
EXPONENTS  0.3041000D+00 0.9158000D-01 0.4388000D+02 0.9926000D+01 0.2930000D+01
EXPONENTS  0.4388000D+02 0.9926000D+01 0.2930000D+01 0.4388000D+02 0.9926000D+01
EXPONENTS  0.2930000D+01 0.9132000D+00 0.9132000D+00 0.9132000D+00 0.2672000D+00
EXPONENTS  0.2672000D+00 0.2672000D+00 0.7361000D-01 0.7361000D-01 0.7361000D-01
EXPONENTS  0.3107000D+01 0.3107000D+01 0.3107000D+01 0.3107000D+01 0.3107000D+01
EXPONENTS  0.3107000D+01 0.8550000D+00 0.8550000D+00 0.8550000D+00 0.8550000D+00
EXPONENTS  0.8550000D+00 0.8550000D+00 0.2920000D+00 0.2920000D+00 0.2920000D+00
EXPONENTS  0.2920000D+00 0.2920000D+00 0.2920000D+00 0.1917000D+01 0.1917000D+01
EXPONENTS  0.1917000D+01 0.1917000D+01 0.1917000D+01 0.1917000D+01 0.1917000D+01
EXPONENTS  0.1917000D+01 0.1917000D+01 0.1917000D+01 0.7240000D+00 0.7240000D+00
EXPONENTS  0.7240000D+00 0.7240000D+00 0.7240000D+00 0.7240000D+00 0.7240000D+00
EXPONENTS  0.7240000D+00 0.7240000D+00 0.7240000D+00
MO    1     MO 0.0        OCC NO =    2.0000067  ORB. ENERGY =    0.000000
 -0.32220958D+00 -0.60054568D+00 -0.10183096D+01 -0.15411033D+01 -0.19224049D+01
 -0.16497094D+01 -0.63175106D+00 -0.40144505D-04 -0.43072419D-03 -0.15877305D-02
 -0.46424308D-02 -0.55943548D-02  0.67389932D-02 -0.29033177D-01  0.49041496D-03
 -0.49960909D-04  0.36544770D-13  0.35436134D-13  0.23905006D-13 -0.22182881D-03
 -0.21509933D-03 -0.14510473D-03  0.19770184D-01  0.19170428D-01  0.12932258D-01
  0.12700479D-13 -0.19453988D-04  0.25046297D-02 -0.14046891D-14 -0.12365757D-05
  0.66411038D-03 -0.14849938D-15 -0.34061684D-06  0.14585153D-04  0.12279003D-02
  0.65185292D-03 -0.18797532D-02 -0.17903115D-13 -0.21114374D-14  0.30424862D-04
  0.50323516D-04 -0.25025842D-04 -0.25297674D-04  0.16446298D-14 -0.80635180D-16
  0.32486943D-05  0.50126198D-04 -0.18255977D-05 -0.48300600D-04 -0.10343843D-14
  0.15226276D-14  0.58850052D-06 -0.17609373D-14 -0.60369409D-05 -0.54813036D-03
 -0.41208755D-14 -0.11074209D-04  0.10328211D-02  0.94036873D-14  0.29185031D-04
  0.61156993D-03 -0.15717195D-13  0.58530642D-15  0.88075914D-06  0.13133601D-04
  0.86071293D-15  0.19942714D-05 -0.22401861D-04 -0.26166322D-14 -0.46365489D-05
 -0.16998941D-04  0.17362480D-14  0.23919614D+00  0.44590979D+00  0.75364830D+00
  0.11328740D+01  0.13915328D+01  0.11744046D+01  0.44160678D+00  0.26515301D-04
  0.19818545D-03  0.74066428D-03  0.20663380D-02  0.27683233D-02 -0.32688736D-02
  0.19352206D-01 -0.41850257D-04  0.15411915D-04  0.16648953D-13  0.15609451D-13
  0.11114859D-13  0.35173602D-04  0.32977488D-04  0.23481936D-04 -0.40563535D-02
 -0.38030892D-02 -0.27080261D-02  0.11594351D-13 -0.57559896D-05  0.48185389D-03
  0.10081792D-14 -0.51129841D-05  0.81653938D-04 -0.84579129D-17  0.79569048D-07
  0.82292981D-06 -0.95499954D-03  0.40705166D-03  0.54794789D-03  0.14191864D-16
  0.92813751D-15 -0.13404434D-04  0.21534349D-03 -0.12684170D-03 -0.88501793D-04
 -0.44951458D-15  0.92595888D-15  0.11919390D-04 -0.28187246D-07 -0.26927171D-05
  0.27209043D-05  0.30158392D-15  0.19221698D-15  0.12751117D-06 -0.20203090D-14
  0.10397340D-04  0.56089103D-03  0.45536508D-14  0.27383577D-05 -0.33682257D-03
  0.15072763D-14 -0.33930378D-04 -0.13458505D-02  0.18544049D-15 -0.39097178D-16
  0.10422822D-05 -0.88330978D-04  0.11334656D-15  0.70693056D-06 -0.11531140D-04
  0.39449730D-17 -0.38337772D-05  0.27652407D-03  0.10936288D-14 -0.96020396D-01
 -0.17898218D+00 -0.30341467D+00 -0.45941085D+00 -0.57436475D+00 -0.49405668D+00
 -0.18948137D+00 -0.11645590D-04 -0.15416580D-03 -0.55995825D-03 -0.16611056D-02
 -0.19140887D-02  0.23249458D-02 -0.83887446D-02  0.77049957D-03  0.23643411D-04
  0.11830594D-12  0.11570063D-12  0.76448296D-13 -0.73989678D-02 -0.72360289D-02
 -0.47811502D-02 -0.60109661D-02 -0.58785935D-02 -0.38842353D-02  0.27775705D-13
 -0.12854467D-02 -0.11559470D-02  0.28454955D-14 -0.15968829D-03 -0.80259659D-04
  0.34166128D-15 -0.42205691D-05 -0.22642962D-05  0.84203939D-04 -0.55061083D-04
 -0.29142855D-04  0.25949708D-14  0.26249890D-13  0.65268199D-03  0.14994749D-03
 -0.79926846D-04 -0.70020643D-04  0.11616370D-14 -0.61391272D-15 -0.78355077D-03
  0.41970776D-04 -0.25177350D-04 -0.16793426D-04 -0.53036988D-15 -0.34441925D-15
 -0.41299355D-05 -0.32552918D-14 -0.16373147D-04 -0.27727454D-05  0.15496223D-13
  0.24331337D-03  0.10568751D-03 -0.57303474D-14 -0.19419393D-03 -0.97369275D-04
  0.19228568D-13  0.30780558D-15  0.54184738D-04  0.10357758D-03 -0.11826598D-14
  0.16403718D-03  0.20113481D-03  0.25924310D-15 -0.32659140D-03 -0.51186756D-03
 -0.42992196D-14 -0.96548371D-01 -0.17996633D+00 -0.30508302D+00 -0.46193695D+00
 -0.57752293D+00 -0.49677329D+00 -0.19052325D+00 -0.11732791D-04 -0.15532018D-03
 -0.56415116D-03 -0.16735438D-02 -0.19284212D-02  0.23423548D-02 -0.84366352D-02
  0.78985869D-03  0.31721394D-04  0.85655898D-14  0.83769597D-14  0.55350115D-14
  0.74023509D-02  0.72393375D-02  0.47833364D-02 -0.60216688D-02 -0.58890605D-02
 -0.38911513D-02  0.43355978D-14  0.12665195D-02 -0.11527472D-02 -0.26838226D-15
  0.14535622D-03 -0.88687926D-04 -0.12876636D-15  0.32570401D-05 -0.16610630D-05
  0.75429214D-04 -0.72908930D-04 -0.25202833D-05 -0.46076228D-14  0.19362003D-13
 -0.67759353D-03  0.15059873D-03 -0.66277801D-04 -0.84320930D-04 -0.22391999D-15
 -0.14450144D-14  0.78588703D-03  0.42294585D-04 -0.20212464D-04 -0.22082122D-04
  0.81728572D-16 -0.50094724D-15  0.69490577D-05 -0.28655519D-15  0.19350968D-04
 -0.24859348D-05  0.43509814D-14 -0.23615914D-03  0.99010652D-04 -0.34913159D-14
  0.17810624D-03 -0.91552847D-04 -0.10728641D-13  0.79179412D-15 -0.60977760D-04
  0.99694948D-04 -0.13004999D-14 -0.16551873D-03  0.20848704D-03 -0.10748825D-14
  0.34845201D-03 -0.50757189D-03  0.49786710D-14
MO    2     MO 0.0        OCC NO =    2.0000037  ORB. ENERGY =    0.000000
 -0.36837707D+00 -0.68659428D+00 -0.11642171D+01 -0.17619188D+01 -0.21978548D+01
 -0.18860864D+01 -0.72227089D+00 -0.43674532D-04 -0.46859906D-03 -0.17273444D-02
 -0.50506536D-02 -0.60862832D-02  0.73315731D-02 -0.33651458D-01  0.66768028D-03
  0.91560213D-04  0.34566773D-13  0.33518142D-13  0.22611140D-13 -0.10401804D-03
 -0.10086251D-03 -0.68041250D-04  0.87215503D-02  0.84569701D-02  0.57050220D-02
  0.88590574D-14  0.10680379D-04 -0.18393377D-02  0.19587635D-14 -0.45575162D-05
 -0.15551997D-03 -0.63081569D-16  0.12737004D-06  0.17860005D-05  0.69246289D-03
  0.89314561D-04 -0.78177745D-03  0.13490167D-13 -0.57915141D-14  0.12924498D-04
 -0.33900293D-03 -0.35762839D-03  0.69663132D-03  0.12848343D-15 -0.29001675D-14
 -0.20183607D-04 -0.39176870D-04  0.13210012D-04  0.25966859D-04  0.12930837D-14
 -0.62864679D-15 -0.41907424D-07 -0.71235975D-16  0.55359605D-05  0.24836998D-03
  0.21852856D-14  0.45931336D-05 -0.22284023D-03 -0.19715776D-14 -0.21201015D-04
 -0.52226970D-03  0.12355756D-13 -0.34845607D-15 -0.15350386D-05 -0.66602350D-04
 -0.84315880D-15 -0.24762843D-05  0.11087563D-03  0.18885270D-14  0.70813999D-05
  0.88931416D-04 -0.32542338D-14 -0.16825480D+00 -0.31366085D+00 -0.53012957D+00
 -0.79688362D+00 -0.97882880D+00 -0.82609697D+00 -0.31063403D+00 -0.14534197D-04
 -0.10863412D-03 -0.40599050D-03 -0.11326503D-02 -0.15174391D-02  0.17918127D-02
 -0.14046606D-01  0.99299173D-04 -0.68347375D-05  0.10707071D-13  0.10038560D-13
  0.71480527D-14 -0.29542753D-04 -0.27698209D-04 -0.19722775D-04  0.25226554D-02
  0.23651498D-02  0.16841276D-02 -0.30403571D-15  0.17998553D-04 -0.20186670D-02
  0.82986909D-15  0.46677891D-05 -0.26098349D-04  0.72802457D-16 -0.15598463D-07
 -0.84488878D-05  0.82558038D-03  0.15024702D-03 -0.97582740D-03  0.19176668D-15
 -0.76846834D-15  0.20422760D-04 -0.13255068D-03  0.36130887D-03 -0.22875819D-03
  0.14402921D-14 -0.11245053D-14  0.36266090D-05 -0.33228809D-05 -0.14290094D-04
  0.17612975D-04 -0.34432833D-15 -0.62796372D-16 -0.34963430D-06  0.14784346D-14
 -0.20917757D-06 -0.25395315D-03 -0.20437790D-14 -0.49787970D-05  0.52937526D-03
 -0.23915250D-14  0.56063297D-05  0.23248419D-03 -0.22584898D-14 -0.18838007D-15
 -0.55170297D-06  0.34367195D-04  0.30407096D-15 -0.15903473D-05  0.73159683D-04
  0.26106924D-15  0.32454562D-05 -0.17626127D-03 -0.21694730D-14  0.18532659D+00
  0.34544908D+00  0.58561315D+00  0.88669751D+00  0.11085672D+01  0.95356657D+00
  0.36571330D+00  0.19088329D-04  0.25269373D-03  0.91782961D-03  0.27227242D-02
  0.31373898D-02 -0.38108272D-02  0.16876303D-01 -0.84634557D-03 -0.24967647D-04
 -0.73586689D-13 -0.71966175D-13 -0.47551094D-13  0.87593015D-02  0.85664056D-02
  0.56601863D-02  0.52961270D-02  0.51794965D-02  0.34223123D-02 -0.14012187D-13
  0.79981120D-03  0.26764172D-03 -0.20686948D-14  0.83898363D-04 -0.20695230D-04
 -0.41855220D-15 -0.12722645D-05  0.21382443D-04 -0.30130006D-04  0.15950960D-03
 -0.12937959D-03 -0.20056163D-13 -0.86416257D-14 -0.33752430D-03  0.24687018D-05
 -0.53696337D-04  0.51227635D-04  0.10888102D-14  0.21057118D-14  0.57992715D-04
 -0.17059681D-04  0.15990866D-04  0.10688146D-05  0.47805460D-15 -0.23280916D-15
 -0.25699724D-05 -0.20984985D-15  0.10846706D-03 -0.12240964D-03 -0.30422307D-14
  0.92322596D-04  0.58046577D-03  0.36717802D-14 -0.41772376D-03 -0.21323684D-03
 -0.44710662D-14 -0.79180595D-16 -0.56065607D-04 -0.49161110D-05  0.79503578D-15
 -0.13555088D-03 -0.29374581D-03 -0.55749399D-15  0.30374770D-03  0.30849414D-03
  0.34257443D-14  0.18616280D+00  0.34700777D+00  0.58825548D+00  0.89069836D+00
  0.11135691D+01  0.95786914D+00  0.36736343D+00  0.19164645D-04  0.25370402D-03
  0.92149916D-03  0.27336099D-02  0.31499333D-02 -0.38260631D-02  0.16952384D-01
 -0.86017992D-03 -0.32959075D-04  0.45345120D-13  0.44346537D-13  0.29301632D-13
 -0.87789199D-02 -0.85855920D-02 -0.56728636D-02  0.53767987D-02  0.52583917D-02
  0.34744417D-02  0.93360713D-14 -0.79106947D-03  0.27681788D-03 -0.19547976D-15
 -0.79498274D-04 -0.20591761D-04  0.95766859D-16  0.20315929D-05  0.20942775D-04
 -0.33733989D-04  0.15414969D-03 -0.12041570D-03  0.49218803D-14  0.11769347D-13
  0.33454588D-03  0.58081753D-05 -0.53358268D-04  0.47550092D-04 -0.98570868D-15
  0.11922892D-14 -0.51941763D-04 -0.16525395D-04  0.16068914D-04  0.45648021D-06
  0.10899627D-14 -0.31765878D-15  0.24523387D-05  0.82235140D-16 -0.10432414D-03
 -0.11421791D-03  0.52967453D-14 -0.97300866D-04  0.57070467D-03 -0.55434507D-14
  0.41027328D-03 -0.22805092D-03 -0.19423630D-14 -0.10071854D-15  0.54075184D-04
 -0.89553073D-05 -0.90312789D-15  0.13727396D-03 -0.28909904D-03  0.12052835D-14
 -0.29949951D-03  0.31596496D-03 -0.78663068D-15
MO    3     MO 0.0        OCC NO =    2.0000022  ORB. ENERGY =    0.000000
  0.63703559D-03  0.11873296D-02  0.20132842D-02  0.30468915D-02  0.38007570D-02
  0.32616150D-02  0.12490253D-02  0.89556699D-07  0.96088461D-06  0.35420016D-05
  0.10356605D-04  0.12480213D-04 -0.15033739D-04  0.58476978D-04 -0.22914114D-06
 -0.43719526D-06  0.32042542D-13  0.31070487D-13  0.20959967D-13  0.86356502D-03
  0.83736758D-03  0.56488322D-03  0.23544931D-04  0.22830663D-04  0.15401431D-04
  0.29214260D-14  0.11221667D-03  0.13382189D-04 -0.34399984D-14 -0.90581021D-04
 -0.10051537D-05  0.87296685D-16 -0.14483322D-04  0.61713331D-07  0.53095097D-05
  0.89412578D-06 -0.62036355D-05 -0.30689443D-14 -0.21327661D-13 -0.18028714D-03
 -0.12744638D-05  0.13064088D-05 -0.31944982D-07  0.55603769D-15  0.10896372D-13
  0.63098092D-04 -0.48049566D-06 -0.71554674D-07  0.55205033D-06  0.10969711D-14
  0.19263174D-14  0.25220852D-04 -0.17618141D-14  0.11409808D-04 -0.11009608D-05
 -0.53869553D-14 -0.16292477D-03  0.68377213D-06  0.10672397D-13  0.12869535D-03
  0.26191104D-05  0.10666282D-13  0.12413401D-14 -0.32267882D-05 -0.21425266D-06
  0.19693564D-14  0.67743272D-04  0.30515959D-05 -0.56933765D-14 -0.58062907D-04
 -0.24088379D-05 -0.28852894D-14  0.10024302D-02  0.18687319D-02  0.31584114D-02
  0.47476815D-02  0.58316763D-02  0.49217291D-02  0.18506987D-02  0.85862886D-07
  0.64177188D-06  0.23984480D-05  0.66912966D-05  0.89644926D-05 -0.10585394D-04
  0.79457718D-04  0.12373118D-05 -0.22224876D-06  0.86073593D-14  0.80699464D-14
  0.57462826D-14  0.60245544D-04  0.56484027D-04  0.40219992D-04 -0.14971364D-04
 -0.14036605D-04 -0.99948993D-05  0.10570700D-13  0.38914881D-03  0.13324339D-05
 -0.62147500D-15 -0.55922138D-04  0.85415432D-06 -0.14269540D-15  0.63395166D-05
 -0.97403661D-08 -0.61459536D-05  0.33473490D-05  0.27986046D-05 -0.82147982D-15
  0.29177224D-14 -0.61013967D-03 -0.39247482D-07 -0.18699600D-05  0.19092074D-05
  0.11418525D-14  0.75669837D-14 -0.38091375D-03  0.79290759D-07 -0.24933852D-06
  0.17004776D-06 -0.27746308D-15  0.36068305D-15  0.28246942D-04 -0.26445700D-14
  0.24413429D-04  0.36490185D-05 -0.66810395D-16 -0.51663995D-03  0.26634046D-05
  0.80005203D-14  0.44339966D-03 -0.13610460D-04 -0.32454393D-14  0.22562404D-15
 -0.44101789D-04  0.33706420D-06 -0.58021286D-15 -0.30469617D-04  0.41068412D-06
 -0.96659254D-16  0.16277499D-03 -0.14218767D-05 -0.22672381D-14 -0.42098913D+00
 -0.78472447D+00 -0.13302828D+01 -0.20142281D+01 -0.25182287D+01 -0.21661283D+01
 -0.83075681D+00 -0.38595767D-04 -0.51093569D-03 -0.18558114D-02 -0.55052295D-02
 -0.63436651D-02  0.77053261D-02 -0.39016179D-01  0.16894015D-03 -0.82412759D-04
  0.12653715D-13  0.12375057D-13  0.81767236D-14 -0.97506518D-02 -0.95359245D-02
 -0.63007885D-02 -0.74194839D-02 -0.72560932D-02 -0.47944076D-02  0.41850763D-14
  0.17790555D-03 -0.15579743D-03  0.38609244D-14 -0.23470478D-03 -0.39425147D-03
  0.94801229D-16 -0.21208417D-04 -0.40472221D-05  0.14791780D-03 -0.16034027D-03
  0.12422475D-04 -0.93643882D-15 -0.35592098D-14 -0.24785048D-03 -0.15392078D-03
  0.24457260D-03 -0.90651818D-04 -0.88031356D-15  0.59359203D-15  0.51181639D-03
  0.58474353D-04 -0.13723773D-04 -0.44750581D-04  0.21848093D-14  0.49843332D-15
 -0.13175246D-03 -0.17468221D-15  0.27337266D-03 -0.11525489D-04  0.16081130D-14
 -0.88358047D-03 -0.18293078D-03 -0.10840664D-14  0.63462487D-04  0.21750725D-03
  0.35235191D-15  0.26567300D-15 -0.51300909D-04 -0.18278499D-04  0.90482424D-15
  0.20985184D-03  0.31633433D-04 -0.17018432D-14 -0.55949110D-04  0.23202066D-04
  0.14329097D-14  0.42391853D+00  0.79018487D+00  0.13395394D+01  0.20282438D+01
  0.25357515D+01  0.21812010D+01  0.83653752D+00  0.38877908D-04  0.51467070D-03
  0.18693776D-02  0.55454735D-02  0.63900382D-02 -0.77616531D-02  0.39287642D-01
 -0.16957691D-03  0.83389240D-04  0.45397630D-13  0.44397890D-13  0.29335563D-13
 -0.97802476D-02 -0.95648686D-02 -0.63199131D-02  0.74964859D-02  0.73313995D-02
  0.48441656D-02  0.98304951D-14  0.19075669D-03  0.14987831D-03  0.17973503D-14
 -0.23446748D-03  0.39671603D-03  0.67857097D-15 -0.21071362D-04  0.41950098D-05
 -0.14791931D-03  0.16840630D-03 -0.20486993D-04 -0.98816783D-14  0.12758230D-13
 -0.25445805D-03  0.15739445D-03 -0.24875825D-03  0.91363808D-04  0.45899956D-14
 -0.39685812D-14  0.52542275D-03 -0.58625108D-04  0.13645082D-04  0.44980026D-04
 -0.10230815D-14  0.94917985D-15 -0.13171116D-03 -0.37888779D-14  0.27302170D-03
  0.11018818D-04  0.36812690D-14 -0.88446439D-03  0.18710655D-03  0.76853647D-14
  0.65399300D-04 -0.22016300D-03 -0.13964847D-13 -0.68070546D-16 -0.51291646D-04
  0.20118348D-04 -0.57979380D-15  0.20676157D-03 -0.30377938D-04  0.78400544D-15
 -0.52886636D-04 -0.29977107D-04  0.46407611D-14
MO    4     MO 0.0        OCC NO =    2.0000016  ORB. ENERGY =    0.000000
  0.10182940D+00  0.18979326D+00  0.32182115D+00  0.48704209D+00  0.60754662D+00
  0.52136539D+00  0.19965524D+00  0.13152400D-04  0.14111662D-03  0.52018242D-03
  0.15209829D-02  0.18328583D-02 -0.22078721D-02  0.93968606D-02 -0.42179472D-03
 -0.17764209D-03 -0.11440812D-13 -0.11093739D-13 -0.74837707D-14 -0.30395703D-05
 -0.29473608D-05 -0.19882722D-05  0.53309532D-03  0.51692314D-03  0.34871329D-03
  0.34144708D-14 -0.30269990D-04  0.15683815D-02  0.20998121D-14 -0.53197449D-05
  0.12169105D-03 -0.24878455D-15 -0.81945133D-07  0.19308900D-04  0.15190752D-03
 -0.90245493D-05 -0.14288298D-03 -0.61630192D-14  0.25235082D-14  0.10243798D-04
  0.62667909D-04  0.28782588D-03 -0.35049379D-03  0.36127399D-15 -0.60377823D-14
  0.25381937D-04 -0.11787207D-04  0.21709146D-04 -0.99219385D-05  0.43382149D-16
 -0.10956971D-14  0.10060989D-05  0.13195088D-14  0.23065917D-05 -0.31191869D-03
 -0.58640297D-15  0.28262351D-05  0.61541064D-03 -0.33721233D-14 -0.97460103D-05
  0.32034543D-03  0.31236184D-14 -0.78365767D-15  0.22050134D-05  0.77873708D-04
 -0.94148628D-15 -0.12330188D-05 -0.15449550D-04  0.32924593D-14 -0.53820215D-05
 -0.21817157D-03 -0.36064309D-16  0.14760951D+00  0.27517386D+00  0.46508132D+00
  0.69910396D+00  0.85872400D+00  0.72473276D+00  0.27251844D+00  0.11534791D-04
  0.86215420D-04  0.32220671D-03  0.89890655D-03  0.12042869D-02 -0.14220383D-02
  0.11821424D-01  0.21424689D-04  0.24400769D-04  0.10921228D-13  0.10239345D-13
  0.72910238D-14  0.21914521D-04  0.20546256D-04  0.14630158D-04 -0.23510250D-02
 -0.22042354D-02 -0.15695469D-02  0.35647164D-14 -0.12058253D-04  0.63190094D-03
  0.12815117D-14  0.47551510D-06  0.20554620D-03  0.18634994D-15 -0.60676815D-07
 -0.12683091D-05 -0.10775857D-02  0.33971458D-03  0.73787110D-03  0.83481209D-15
 -0.35467902D-14 -0.15523947D-04 -0.31515161D-04 -0.98108146D-04  0.12962331D-03
  0.66220209D-15 -0.70973715D-14  0.93533793D-05  0.38521335D-05 -0.12783421D-04
  0.89312873D-05  0.51079563D-16 -0.13757100D-15 -0.21370571D-06  0.21813710D-15
  0.11525214D-05  0.48382538D-03  0.37426633D-14  0.38094029D-05  0.19737206D-03
 -0.43970747D-14 -0.72669671D-05 -0.16488482D-02 -0.11786232D-14 -0.26189193D-15
  0.72392100D-06  0.42374545D-04  0.76091380D-15 -0.27149138D-06 -0.24726166D-04
  0.24761977D-16 -0.19002716D-05 -0.10239747D-03 -0.39500986D-15  0.36894866D+00
  0.68772093D+00  0.11658402D+01  0.17652397D+01  0.22069384D+01  0.18983628D+01
  0.72806300D+00  0.31701096D-04  0.41966315D-03  0.15242929D-02  0.45217862D-02
  0.52104453D-02 -0.63288619D-02  0.34525429D-01  0.25688105D-03  0.81129994D-04
  0.69486069D-13  0.67955858D-13  0.44901308D-13  0.62880917D-02  0.61496164D-02
  0.40633115D-02  0.39416181D-02  0.38548164D-02  0.25470402D-02  0.17176847D-13
 -0.55238582D-03 -0.64210387D-03 -0.31322627D-15  0.30259897D-03  0.16089559D-03
 -0.23487856D-15  0.49923321D-05  0.13444886D-04 -0.23264462D-03  0.17311129D-03
  0.59533330D-04  0.25806069D-13 -0.36103584D-14  0.78382427D-03  0.25148494D-03
 -0.18233609D-03 -0.69148843D-04  0.14477229D-14 -0.21421907D-14 -0.99478735D-03
 -0.44020684D-04  0.34258277D-04  0.97624070D-05 -0.15493958D-14 -0.90580795D-15
  0.61321933D-04 -0.34501516D-14  0.17899252D-04 -0.75588713D-04  0.10965582D-13
  0.28121164D-03  0.46101645D-03 -0.61512744D-15 -0.33490939D-03 -0.23425031D-03
 -0.33857449D-14  0.46104202D-15  0.33728049D-04  0.10064357D-03 -0.83145151D-15
  0.10604535D-03  0.43086125D-04 -0.55167454D-15 -0.20722950D-03 -0.34501685D-03
 -0.21857520D-14  0.36501943D+00  0.68039685D+00  0.11534243D+01  0.17464403D+01
  0.21834350D+01  0.18781457D+01  0.72030929D+00  0.31375396D-04  0.41535150D-03
  0.15086322D-02  0.44753291D-02  0.51569128D-02 -0.62638387D-02  0.34156965D-01
  0.26918122D-03  0.80691676D-04  0.12372217D-12  0.12099758D-12  0.79948218D-13
 -0.61947152D-02 -0.60582961D-02 -0.40029724D-02  0.39050349D-02  0.38190389D-02
  0.25234004D-02  0.29536610D-13  0.54400127D-03 -0.64233314D-03  0.10743340D-14
 -0.30892484D-03  0.15989901D-03 -0.33392344D-15 -0.48138493D-05  0.13356048D-04
 -0.23483754D-03  0.17599040D-03  0.58847137D-04 -0.39681962D-14 -0.78155995D-14
 -0.78306463D-03  0.25102232D-03 -0.17838514D-03 -0.72637182D-04 -0.40848669D-14
  0.44875974D-15  0.98935913D-03 -0.44102054D-04  0.35354479D-04  0.87475749D-05
  0.24326936D-14 -0.14484932D-14 -0.62366654D-04 -0.34962063D-14 -0.23780986D-04
 -0.75280677D-04 -0.25738708D-16 -0.26323589D-03  0.45699338D-03  0.10514358D-13
  0.33457885D-03 -0.23115135D-03 -0.12011434D-13  0.88937141D-15 -0.32164301D-04
  0.10056652D-03 -0.14707612D-14 -0.11225515D-03  0.45100529D-04 -0.11973530D-14
  0.20874805D-03 -0.34680009D-03  0.25413632D-14
MO    5     MO 0.0        OCC NO =    1.9861786  ORB. ENERGY =    0.000000
 -0.99162793D-02 -0.18482314D-01 -0.31339361D-01 -0.47428790D-01 -0.59163678D-01
 -0.50771237D-01 -0.19442687D-01 -0.16087112D-03 -0.17260416D-02 -0.63625143D-02
 -0.18603619D-01 -0.22418265D-01  0.27005176D-01  0.14151603D-01 -0.31080328D-04
 -0.19218432D-02  0.63023199D-13  0.61111303D-13  0.41225324D-13 -0.19744017D-03
 -0.19145055D-03 -0.12915141D-03 -0.69618318D-01 -0.67506350D-01 -0.45539385D-01
  0.18302186D-13 -0.16111844D-03 -0.13007171D-01  0.26440778D-14 -0.11917317D-03
  0.19934467D-02 -0.95668020D-16 -0.51097860D-05  0.22944604D-03 -0.40047215D-02
 -0.42476786D-02  0.82524001D-02  0.19952572D-14 -0.13962919D-13 -0.73560754D-04
 -0.45495523D-03  0.61816137D-03 -0.16320614D-03 -0.19490446D-15 -0.23364140D-14
  0.13141916D-03  0.10948322D-03  0.51802327D-03 -0.62750650D-03 -0.78165713D-16
 -0.51845961D-15  0.36114944D-04 -0.15555301D-14  0.22799400D-04 -0.16164785D-02
  0.15156292D-14  0.13465342D-04  0.34855290D-02  0.31509611D-14 -0.81863543D-04
  0.13639065D-02  0.49896125D-15  0.28152351D-15  0.13959239D-04  0.50932723D-03
 -0.86553882D-15 -0.46340391D-05 -0.22230059D-03  0.20968278D-16 -0.37243677D-04
 -0.13056811D-02  0.81057564D-16 -0.17212891D-01 -0.32088296D-01 -0.54233592D-01
 -0.81523204D-01 -0.10013665D+00 -0.84511804D-01 -0.31778645D-01 -0.31581940D-03
 -0.23605544D-02 -0.88219307D-02 -0.24611813D-01 -0.32973044D-01  0.38935017D-01
  0.15592492D-01  0.22620455D-02  0.22655947D-03  0.50181899D-13  0.47048720D-13
  0.33501491D-13 -0.65401385D-03 -0.61317955D-03 -0.43662037D-03 -0.34526179D-01
 -0.32370487D-01 -0.23049715D-01  0.99703942D-14 -0.16173681D-03 -0.49751996D-02
 -0.34885036D-15  0.30553453D-04  0.15128063D-02 -0.25483500D-17  0.66621299D-06
 -0.32995562D-05 -0.19257024D-01  0.93290088D-02  0.99280148D-02  0.99741780D-15
 -0.18238170D-14 -0.12494892D-03 -0.26130260D-02  0.11490839D-02  0.14639420D-02
 -0.48708691D-14 -0.47415677D-15  0.60812486D-04  0.83476356D-04 -0.92150790D-04
  0.86744334D-05 -0.10381573D-15  0.26068508D-15  0.37380783D-05 -0.73194835D-15
  0.17353946D-04  0.34362577D-02  0.46165739D-15  0.29900837D-04  0.34594658D-02
  0.17341877D-14 -0.81962676D-04 -0.13768239D-01  0.41625455D-14  0.16282724D-15
 -0.17906797D-05  0.26851680D-03  0.37064053D-15 -0.97296826D-05  0.31669478D-03
 -0.85912224D-15  0.15101722D-04 -0.11222452D-02  0.15085044D-14 -0.89429070D-01
 -0.16669594D+00 -0.28258676D+00 -0.42787457D+00 -0.53493745D+00 -0.46014213D+00
 -0.17647441D+00 -0.13023732D-02 -0.17240983D-01 -0.62622387D-01 -0.18576813D+00
 -0.21406025D+00  0.26000806D+00  0.14955319D+00  0.67780278D-01  0.17051941D-02
  0.21823189D-12  0.21342602D-12  0.14101959D-12 -0.39103418D-01 -0.38242289D-01
 -0.25268297D-01 -0.13086172D+00 -0.12797991D+00 -0.84561734D-01  0.49699193D-13
 -0.38768870D-02 -0.27170692D-01  0.57490161D-14 -0.33263859D-02 -0.63012205D-02
  0.23974384D-15 -0.49862075D-04 -0.44742653D-04 -0.60130952D-02  0.73393204D-02
 -0.13262252D-02  0.56923784D-14  0.83473468D-14  0.13812609D-01 -0.30073700D-02
  0.41306851D-02 -0.11233151D-02  0.37072650D-14  0.30414999D-14  0.75864493D-02
  0.21841827D-03 -0.21615970D-03 -0.22585742D-05 -0.37498977D-15 -0.15709988D-14
 -0.92388390D-03 -0.30502510D-14  0.16521756D-02 -0.21683793D-02  0.10999761D-14
 -0.64283183D-02 -0.24000955D-02  0.80507770D-14  0.14717916D-02  0.89052333D-02
  0.22719086D-13  0.49564319D-15  0.29143625D-03 -0.21742783D-03  0.60677873D-15
 -0.88839329D-03 -0.10496708D-02 -0.20937083D-14  0.14084549D-04  0.17019543D-02