 f2co-wavefunction
GAUSSIAN            184 MOL ORBITALS    288 PRIMITIVES        4 NUCLEI
  O    1    (CENTRE  1)   0.00000000  0.00000000  1.28487582  CHARGE =  8.0
  C    2    (CENTRE  2)   0.00000000  0.00000000 -0.93015344  CHARGE =  6.0
  F    3    (CENTRE  3)   0.00000000 -2.00098943 -2.38919020  CHARGE =  9.0
  F    4    (CENTRE  4)   0.00000000  2.00098943 -2.38919020  CHARGE =  9.0
CENTRE ASSIGNMENTS    1  1  1  1  1  1  1  1  1  1  1  1  1  1  1  1  1  1  1  1
CENTRE ASSIGNMENTS    1  1  1  1  1  1  1  1  1  1  1  1  1  1  1  1  1  1  1  1
CENTRE ASSIGNMENTS    1  1  1  1  1  1  1  1  1  1  1  1  1  1  1  1  1  1  1  1
CENTRE ASSIGNMENTS    1  1  1  1  1  1  1  1  1  1  1  1  2  2  2  2  2  2  2  2
CENTRE ASSIGNMENTS    2  2  2  2  2  2  2  2  2  2  2  2  2  2  2  2  2  2  2  2
CENTRE ASSIGNMENTS    2  2  2  2  2  2  2  2  2  2  2  2  2  2  2  2  2  2  2  2
CENTRE ASSIGNMENTS    2  2  2  2  2  2  2  2  2  2  2  2  2  2  2  2  2  2  2  2
CENTRE ASSIGNMENTS    2  2  2  2  3  3  3  3  3  3  3  3  3  3  3  3  3  3  3  3
CENTRE ASSIGNMENTS    3  3  3  3  3  3  3  3  3  3  3  3  3  3  3  3  3  3  3  3
CENTRE ASSIGNMENTS    3  3  3  3  3  3  3  3  3  3  3  3  3  3  3  3  3  3  3  3
CENTRE ASSIGNMENTS    3  3  3  3  3  3  3  3  3  3  3  3  3  3  3  3  4  4  4  4
CENTRE ASSIGNMENTS    4  4  4  4  4  4  4  4  4  4  4  4  4  4  4  4  4  4  4  4
CENTRE ASSIGNMENTS    4  4  4  4  4  4  4  4  4  4  4  4  4  4  4  4  4  4  4  4
CENTRE ASSIGNMENTS    4  4  4  4  4  4  4  4  4  4  4  4  4  4  4  4  4  4  4  4
CENTRE ASSIGNMENTS    4  4  4  4  4  4  4  4
TYPE ASSIGNMENTS      1  1  1  1  1  1  1  1  1  1  1  1  1  1  1  1  2  2  2  3
TYPE ASSIGNMENTS      3  3  4  4  4  2  3  4  2  3  4  2  3  4  5  6  7  8  9 10
TYPE ASSIGNMENTS      5  6  7  8  9 10  5  6  7  8  9 10 11 12 13 17 14 15 18 19
TYPE ASSIGNMENTS     16 20 11 12 13 17 14 15 18 19 16 20  1  1  1  1  1  1  1  1
TYPE ASSIGNMENTS      1  1  1  1  1  1  1  1  2  2  2  3  3  3  4  4  4  2  3  4
TYPE ASSIGNMENTS      2  3  4  2  3  4  5  6  7  8  9 10  5  6  7  8  9 10  5  6
TYPE ASSIGNMENTS      7  8  9 10 11 12 13 17 14 15 18 19 16 20 11 12 13 17 14 15
TYPE ASSIGNMENTS     18 19 16 20  1  1  1  1  1  1  1  1  1  1  1  1  1  1  1  1
TYPE ASSIGNMENTS      2  2  2  3  3  3  4  4  4  2  3  4  2  3  4  2  3  4  5  6
TYPE ASSIGNMENTS      7  8  9 10  5  6  7  8  9 10  5  6  7  8  9 10 11 12 13 17
TYPE ASSIGNMENTS     14 15 18 19 16 20 11 12 13 17 14 15 18 19 16 20  1  1  1  1
TYPE ASSIGNMENTS      1  1  1  1  1  1  1  1  1  1  1  1  2  2  2  3  3  3  4  4
TYPE ASSIGNMENTS      4  2  3  4  2  3  4  2  3  4  5  6  7  8  9 10  5  6  7  8
TYPE ASSIGNMENTS      9 10  5  6  7  8  9 10 11 12 13 17 14 15 18 19 16 20 11 12
TYPE ASSIGNMENTS     13 17 14 15 18 19 16 20
EXPONENTS  0.1533000D+05 0.2299000D+04 0.5224000D+03 0.1473000D+03 0.4755000D+02
EXPONENTS  0.1676000D+02 0.6207000D+01 0.5224000D+03 0.1473000D+03 0.4755000D+02
EXPONENTS  0.1676000D+02 0.6207000D+01 0.6882000D+00 0.1752000D+01 0.2384000D+00
EXPONENTS  0.7376000D-01 0.3446000D+02 0.7749000D+01 0.2280000D+01 0.3446000D+02
EXPONENTS  0.7749000D+01 0.2280000D+01 0.3446000D+02 0.7749000D+01 0.2280000D+01
EXPONENTS  0.7156000D+00 0.7156000D+00 0.7156000D+00 0.2140000D+00 0.2140000D+00
EXPONENTS  0.2140000D+00 0.5974000D-01 0.5974000D-01 0.5974000D-01 0.2314000D+01
EXPONENTS  0.2314000D+01 0.2314000D+01 0.2314000D+01 0.2314000D+01 0.2314000D+01
EXPONENTS  0.6450000D+00 0.6450000D+00 0.6450000D+00 0.6450000D+00 0.6450000D+00
EXPONENTS  0.6450000D+00 0.2140000D+00 0.2140000D+00 0.2140000D+00 0.2140000D+00
EXPONENTS  0.2140000D+00 0.2140000D+00 0.1428000D+01 0.1428000D+01 0.1428000D+01
EXPONENTS  0.1428000D+01 0.1428000D+01 0.1428000D+01 0.1428000D+01 0.1428000D+01
EXPONENTS  0.1428000D+01 0.1428000D+01 0.5000000D+00 0.5000000D+00 0.5000000D+00
EXPONENTS  0.5000000D+00 0.5000000D+00 0.5000000D+00 0.5000000D+00 0.5000000D+00
EXPONENTS  0.5000000D+00 0.5000000D+00 0.8236000D+04 0.1235000D+04 0.2808000D+03
EXPONENTS  0.7927000D+02 0.2559000D+02 0.8997000D+01 0.3319000D+01 0.2808000D+03
EXPONENTS  0.7927000D+02 0.2559000D+02 0.8997000D+01 0.3319000D+01 0.3643000D+00
EXPONENTS  0.9059000D+00 0.1285000D+00 0.4402000D-01 0.1871000D+02 0.4133000D+01
EXPONENTS  0.1200000D+01 0.1871000D+02 0.4133000D+01 0.1200000D+01 0.1871000D+02
EXPONENTS  0.4133000D+01 0.1200000D+01 0.3827000D+00 0.3827000D+00 0.3827000D+00
EXPONENTS  0.1209000D+00 0.1209000D+00 0.1209000D+00 0.3569000D-01 0.3569000D-01
EXPONENTS  0.3569000D-01 0.1097000D+01 0.1097000D+01 0.1097000D+01 0.1097000D+01
EXPONENTS  0.1097000D+01 0.1097000D+01 0.3180000D+00 0.3180000D+00 0.3180000D+00
EXPONENTS  0.3180000D+00 0.3180000D+00 0.3180000D+00 0.1000000D+00 0.1000000D+00
EXPONENTS  0.1000000D+00 0.1000000D+00 0.1000000D+00 0.1000000D+00 0.7610000D+00
EXPONENTS  0.7610000D+00 0.7610000D+00 0.7610000D+00 0.7610000D+00 0.7610000D+00
EXPONENTS  0.7610000D+00 0.7610000D+00 0.7610000D+00 0.7610000D+00 0.2680000D+00
EXPONENTS  0.2680000D+00 0.2680000D+00 0.2680000D+00 0.2680000D+00 0.2680000D+00
EXPONENTS  0.2680000D+00 0.2680000D+00 0.2680000D+00 0.2680000D+00 0.1950000D+05
EXPONENTS  0.2923000D+04 0.6645000D+03 0.1875000D+03 0.6062000D+02 0.2142000D+02
EXPONENTS  0.7950000D+01 0.6645000D+03 0.1875000D+03 0.6062000D+02 0.2142000D+02
EXPONENTS  0.7950000D+01 0.8815000D+00 0.2257000D+01 0.3041000D+00 0.9158000D-01
EXPONENTS  0.4388000D+02 0.9926000D+01 0.2930000D+01 0.4388000D+02 0.9926000D+01
EXPONENTS  0.2930000D+01 0.4388000D+02 0.9926000D+01 0.2930000D+01 0.9132000D+00
EXPONENTS  0.9132000D+00 0.9132000D+00 0.2672000D+00 0.2672000D+00 0.2672000D+00
EXPONENTS  0.7361000D-01 0.7361000D-01 0.7361000D-01 0.3107000D+01 0.3107000D+01
EXPONENTS  0.3107000D+01 0.3107000D+01 0.3107000D+01 0.3107000D+01 0.8550000D+00
EXPONENTS  0.8550000D+00 0.8550000D+00 0.8550000D+00 0.8550000D+00 0.8550000D+00
EXPONENTS  0.2920000D+00 0.2920000D+00 0.2920000D+00 0.2920000D+00 0.2920000D+00
EXPONENTS  0.2920000D+00 0.1917000D+01 0.1917000D+01 0.1917000D+01 0.1917000D+01
EXPONENTS  0.1917000D+01 0.1917000D+01 0.1917000D+01 0.1917000D+01 0.1917000D+01
EXPONENTS  0.1917000D+01 0.7240000D+00 0.7240000D+00 0.7240000D+00 0.7240000D+00
EXPONENTS  0.7240000D+00 0.7240000D+00 0.7240000D+00 0.7240000D+00 0.7240000D+00
EXPONENTS  0.7240000D+00 0.1950000D+05 0.2923000D+04 0.6645000D+03 0.1875000D+03
EXPONENTS  0.6062000D+02 0.2142000D+02 0.7950000D+01 0.6645000D+03 0.1875000D+03
EXPONENTS  0.6062000D+02 0.2142000D+02 0.7950000D+01 0.8815000D+00 0.2257000D+01
EXPONENTS  0.3041000D+00 0.9158000D-01 0.4388000D+02 0.9926000D+01 0.2930000D+01
EXPONENTS  0.4388000D+02 0.9926000D+01 0.2930000D+01 0.4388000D+02 0.9926000D+01
EXPONENTS  0.2930000D+01 0.9132000D+00 0.9132000D+00 0.9132000D+00 0.2672000D+00
EXPONENTS  0.2672000D+00 0.2672000D+00 0.7361000D-01 0.7361000D-01 0.7361000D-01
EXPONENTS  0.3107000D+01 0.3107000D+01 0.3107000D+01 0.3107000D+01 0.3107000D+01
EXPONENTS  0.3107000D+01 0.8550000D+00 0.8550000D+00 0.8550000D+00 0.8550000D+00
EXPONENTS  0.8550000D+00 0.8550000D+00 0.2920000D+00 0.2920000D+00 0.2920000D+00
EXPONENTS  0.2920000D+00 0.2920000D+00 0.2920000D+00 0.1917000D+01 0.1917000D+01
EXPONENTS  0.1917000D+01 0.1917000D+01 0.1917000D+01 0.1917000D+01 0.1917000D+01
EXPONENTS  0.1917000D+01 0.1917000D+01 0.1917000D+01 0.7240000D+00 0.7240000D+00
EXPONENTS  0.7240000D+00 0.7240000D+00 0.7240000D+00 0.7240000D+00 0.7240000D+00
EXPONENTS  0.7240000D+00 0.7240000D+00 0.7240000D+00
MO    1     MO 0.0        OCC NO =    2.0000067  ORB. ENERGY =    0.000000
 -0.32217476D+00 -0.60048077D+00 -0.10181995D+01 -0.15409367D+01 -0.19221971D+01
 -0.16495311D+01 -0.63168277D+00 -0.40139092D-04 -0.43066612D-03 -0.15875164D-02
 -0.46418048D-02 -0.55936005D-02  0.67380846D-02 -0.29030298D-01  0.49037455D-03
 -0.49976529D-04 -0.14790049D-13 -0.14341372D-13 -0.96746051D-14 -0.15772712D-12
 -0.15294225D-12 -0.10317394D-12  0.19772064D-01  0.19172251D-01  0.12933487D-01
 -0.53378880D-14 -0.37660278D-13  0.25052059D-02 -0.43996774D-14  0.55206203D-14
  0.66408492D-03 -0.11677030D-15 -0.79179890D-15  0.14584732D-04  0.12278801D-02
  0.65208633D-03 -0.18799664D-02  0.19872610D-14 -0.94318497D-14  0.19700202D-13
  0.50330003D-04 -0.25054289D-04 -0.25275714D-04  0.30882889D-15  0.64796936D-14
  0.10750453D-15  0.50128333D-04 -0.18470260D-05 -0.48281307D-04  0.47618373D-15
  0.19139579D-14 -0.10473448D-14 -0.29937819D-14 -0.10768934D-13 -0.54860466D-03
  0.52293783D-14  0.53449849D-13  0.10333072D-02  0.37519673D-14 -0.21143046D-13
  0.61250679D-03  0.37809593D-14  0.79838108D-15  0.30275352D-14  0.13144992D-04
  0.73724492D-15 -0.22597278D-13 -0.22371578D-04 -0.31323881D-14  0.13514672D-13
 -0.17063399D-04 -0.18898790D-14  0.23921417D+00  0.44594341D+00  0.75370511D+00
  0.11329594D+01  0.13916377D+01  0.11744931D+01  0.44164007D+00  0.26517829D-04
  0.19820434D-03  0.74073487D-03  0.20665350D-02  0.27685871D-02 -0.32691851D-02
  0.19353563D-01 -0.41696214D-04  0.15424249D-04 -0.32984147D-13 -0.30924734D-13
 -0.22020253D-13 -0.34514372D-13 -0.32359417D-13 -0.23041833D-13 -0.40570615D-02
 -0.38037530D-02 -0.27084988D-02 -0.42338363D-14 -0.15788520D-12  0.48191385D-03
 -0.32918184D-16 -0.37295750D-13  0.81636345D-04 -0.53983337D-16 -0.64569920D-15
  0.82330304D-06 -0.95513486D-03  0.40698265D-03  0.54815221D-03 -0.17270149D-14
  0.73782305D-14  0.18971983D-12  0.21530000D-03 -0.12683957D-03 -0.88460423D-04
  0.42890415D-14  0.60823577D-14  0.15252958D-12 -0.31227250D-07 -0.26921048D-05
  0.27233321D-05  0.16946322D-15  0.42882429D-15  0.32450062D-14  0.21879032D-15
 -0.80809374D-14  0.56109311D-03 -0.25542649D-14  0.14749269D-12 -0.33689804D-03
  0.18978939D-14 -0.12324988D-12 -0.13463813D-02 -0.41481633D-15  0.70258588D-16
  0.53722373D-14 -0.88317638D-04 -0.46785570D-15  0.13516432D-13 -0.11537170D-04
  0.25707994D-15 -0.29633144D-13  0.27649009D-03 -0.25617133D-14 -0.96293261D-01
 -0.17949080D+00 -0.30427690D+00 -0.46071638D+00 -0.57599695D+00 -0.49546066D+00
 -0.19001983D+00 -0.11689785D-04 -0.15475086D-03 -0.56208328D-03 -0.16674095D-02
 -0.19213526D-02  0.23337689D-02 -0.84134316D-02  0.78012330D-03  0.27657431D-04
 -0.20642026D-12 -0.20187451D-12 -0.13338702D-12 -0.74011142D-02 -0.72381280D-02
 -0.47825372D-02 -0.60166229D-02 -0.58841258D-02 -0.38878907D-02 -0.49222492D-13
 -0.12761947D-02 -0.11545526D-02 -0.23222640D-14 -0.15253327D-03 -0.84487198D-04
  0.26506533D-15 -0.37412581D-05 -0.19631724D-05  0.79883886D-04 -0.63997165D-04
 -0.15886720D-04  0.14079149D-14 -0.39124797D-14  0.66526462D-03  0.15029536D-03
 -0.73114205D-04 -0.77181157D-04 -0.52493411D-14 -0.23308351D-14 -0.78490790D-03
  0.42122052D-04 -0.22687425D-04 -0.19434627D-04  0.29458045D-14  0.17074586D-14
 -0.55202132D-05  0.60460131D-14 -0.17854097D-04 -0.26914554D-05 -0.72521780D-14
  0.23996257D-03  0.10256656D-03 -0.10885861D-13 -0.18640028D-03 -0.94492194D-04
 -0.43727552D-13 -0.12889500D-14  0.57595720D-04  0.10167505D-03  0.19946746D-14
  0.16473284D-03  0.20477694D-03  0.18721753D-14 -0.33752000D-03 -0.50980208D-03
  0.54745721D-14 -0.96293261D-01 -0.17949080D+00 -0.30427690D+00 -0.46071638D+00
 -0.57599695D+00 -0.49546067D+00 -0.19001983D+00 -0.11689785D-04 -0.15475086D-03
 -0.56208328D-03 -0.16674095D-02 -0.19213526D-02  0.23337689D-02 -0.84134316D-02
  0.78012330D-03  0.27657431D-04 -0.16312635D-12 -0.15953401D-12 -0.10541086D-12
  0.74011142D-02  0.72381280D-02  0.47825372D-02 -0.60166229D-02 -0.58841258D-02
 -0.38878907D-02 -0.35771210D-13  0.12761947D-02 -0.11545526D-02 -0.70903421D-14
  0.15253327D-03 -0.84487198D-04  0.72347186D-17  0.37412581D-05 -0.19631724D-05
  0.79883886D-04 -0.63997166D-04 -0.15886720D-04  0.16778080D-13 -0.15259992D-13
 -0.66526461D-03  0.15029536D-03 -0.73114204D-04 -0.77181157D-04  0.35185420D-14
 -0.41203574D-15  0.78490790D-03  0.42122052D-04 -0.22687425D-04 -0.19434627D-04
  0.15821926D-14 -0.94042960D-15  0.55202132D-05 -0.21942832D-14  0.17854097D-04
 -0.26914554D-05  0.35040370D-14 -0.23996257D-03  0.10256656D-03  0.30788128D-14
  0.18640028D-03 -0.94492194D-04  0.53628974D-14  0.43315052D-15 -0.57595720D-04
  0.10167505D-03 -0.14864361D-14 -0.16473284D-03  0.20477694D-03  0.18698451D-15
  0.33752000D-03 -0.50980208D-03  0.38082317D-14
MO    2     MO 0.0        OCC NO =    2.0000037  ORB. ENERGY =    0.000000
 -0.36840324D+00 -0.68664307D+00 -0.11642998D+01 -0.17620440D+01 -0.21980110D+01
 -0.18862204D+01 -0.72232221D+00 -0.43676074D-04 -0.46861561D-03 -0.17274054D-02
 -0.50508320D-02 -0.60864981D-02  0.73318320D-02 -0.33653968D-01  0.66746886D-03
  0.91505608D-04 -0.55165430D-13 -0.53491910D-13 -0.36085327D-13 -0.97073163D-13
 -0.94128314D-13 -0.63498405D-13  0.87236771D-02  0.84590323D-02  0.57064132D-02
 -0.14448991D-13  0.93878371D-14 -0.18390234D-02 -0.56826638D-15  0.41139673D-13
 -0.15544491D-03 -0.67544337D-16  0.47200513D-14  0.17906492D-05  0.69280020D-03
  0.89608720D-04 -0.78240892D-03 -0.30690183D-14  0.22720671D-13  0.72154239D-13
 -0.33897294D-03 -0.35764888D-03  0.69662182D-03  0.87205482D-15 -0.15180335D-14
 -0.39476418D-13 -0.39188946D-04  0.13220821D-04  0.25968125D-04 -0.34586436D-15
 -0.53846137D-15 -0.15279158D-13  0.15728947D-14  0.32733953D-14  0.24870830D-03
  0.16010312D-15  0.13109784D-13 -0.22316080D-03 -0.48787871D-14 -0.22929969D-13
 -0.52296410D-03  0.34018437D-14 -0.85510670D-15 -0.35022360D-14 -0.66632906D-04
  0.60358900D-15 -0.44222582D-14  0.11088806D-03  0.19617311D-14  0.14928966D-13
  0.89010662D-04  0.58906961D-15 -0.16823044D+00 -0.31361544D+00 -0.53005282D+00
 -0.79676824D+00 -0.97868708D+00 -0.82597737D+00 -0.31058906D+00 -0.14532051D-04
 -0.10861808D-03 -0.40593057D-03 -0.11324831D-02 -0.15172151D-02  0.17915481D-02
 -0.14044869D-01  0.99431013D-04 -0.68246471D-05 -0.30274624D-13 -0.28384384D-13
 -0.20211372D-13 -0.27642604D-13 -0.25916698D-13 -0.18454233D-13  0.25223086D-02
  0.23648246D-02  0.16838960D-02 -0.97187620D-14  0.27610527D-13 -0.20186446D-02
  0.12439260D-15  0.28902873D-13 -0.26022254D-04  0.78365923D-16 -0.11432685D-14
 -0.84491435D-05  0.82543714D-03  0.15033201D-03 -0.97576915D-03 -0.10936181D-15
 -0.40951233D-14  0.23984187D-13 -0.13257407D-03  0.36133083D-03 -0.22875676D-03
 -0.19557342D-14 -0.19297627D-14 -0.48097092D-13 -0.33239678D-05 -0.14294569D-04
  0.17618537D-04  0.42024752D-16 -0.22836980D-15 -0.99636835D-14  0.13155852D-14
  0.39717435D-14 -0.25381727D-03 -0.54225012D-15  0.21512585D-13  0.52929413D-03
 -0.34045056D-14 -0.33427816D-13  0.23215767D-03  0.17704052D-14 -0.10138498D-15
  0.67487144D-14  0.34357527D-04 -0.42501266D-16  0.89281038D-15  0.73151437D-04
  0.34665620D-15 -0.21138954D-13 -0.17622402D-03  0.82996912D-15  0.18574461D+00
  0.34622827D+00  0.58693405D+00  0.88869752D+00  0.11110676D+01  0.95571741D+00
  0.36653820D+00  0.19126139D-04  0.25319427D-03  0.91964766D-03  0.27281175D-02
  0.31436043D-02 -0.38183757D-02  0.16914429D-01 -0.85323137D-03 -0.28948118D-04
 -0.81931192D-13 -0.80126916D-13 -0.52943241D-13  0.87685035D-02  0.85754049D-02
  0.56661326D-02  0.53360147D-02  0.52185058D-02  0.34480874D-02 -0.17070241D-13
  0.79522024D-03  0.27201300D-03 -0.45002711D-14  0.81667136D-04 -0.20676402D-04
 -0.21221583D-15 -0.16517140D-05  0.21166236D-04 -0.31921942D-04  0.15678625D-03
 -0.12486431D-03 -0.55176010D-14  0.29799307D-14 -0.33593158D-03  0.41833631D-05
 -0.53533818D-04  0.49350455D-04 -0.62280896D-15 -0.62448303D-15  0.54794068D-04
 -0.16788062D-04  0.16029020D-04  0.75904155D-06 -0.17612330D-14 -0.57253752D-15
 -0.25105660D-05 -0.21232922D-14  0.10641854D-03 -0.11834970D-03  0.72134920D-15
  0.94961010D-04  0.57577555D-03  0.56485273D-14 -0.41421664D-03 -0.22072645D-03
 -0.10690509D-13  0.60760061D-15 -0.55061162D-04 -0.69180805D-05 -0.12453981D-14
 -0.13642329D-03 -0.29143090D-03 -0.57740368D-15  0.30160677D-03  0.31218514D-03
 -0.16730104D-14  0.18574461D+00  0.34622827D+00  0.58693405D+00  0.88869752D+00
  0.11110676D+01  0.95571741D+00  0.36653820D+00  0.19126139D-04  0.25319427D-03
  0.91964766D-03  0.27281175D-02  0.31436043D-02 -0.38183757D-02  0.16914429D-01
 -0.85323138D-03 -0.28948118D-04 -0.11339355D-12 -0.11089642D-12 -0.73273951D-13
 -0.87685035D-02 -0.85754049D-02 -0.56661326D-02  0.53360147D-02  0.52185058D-02
  0.34480874D-02 -0.25969462D-13 -0.79522024D-03  0.27201300D-03 -0.34795148D-14
 -0.81667136D-04 -0.20676402D-04 -0.28224967D-15  0.16517140D-05  0.21166236D-04
 -0.31921942D-04  0.15678625D-03 -0.12486431D-03  0.15907294D-13  0.79083640D-14
  0.33593158D-03  0.41833631D-05 -0.53533818D-04  0.49350455D-04  0.10856435D-14
 -0.20253152D-14 -0.54794068D-04 -0.16788062D-04  0.16029020D-04  0.75904154D-06
  0.43908881D-15  0.37724837D-15  0.25105661D-05  0.24636651D-14 -0.10641854D-03
 -0.11834970D-03 -0.12792512D-13 -0.94961010D-04  0.57577555D-03  0.54015169D-14
  0.41421664D-03 -0.22072645D-03  0.61090885D-14  0.18194098D-15  0.55061162D-04
 -0.69180805D-05 -0.20071740D-15  0.13642329D-03 -0.29143090D-03 -0.34510553D-15
 -0.30160677D-03  0.31218514D-03 -0.31016415D-15
MO    3     MO 0.0        OCC NO =    2.0000022  ORB. ENERGY =    0.000000
  0.46533449D-09  0.86730698D-09  0.14706409D-08  0.22256586D-08  0.27763336D-08
  0.23825073D-08  0.91237372D-09  0.59435513D-13  0.63770405D-12  0.23506972D-11
  0.68733007D-11  0.82826616D-11 -0.99773436D-11  0.42729854D-10 -0.16373792D-11
 -0.61724872D-12  0.44199791D-13  0.42858930D-13  0.28912381D-13 -0.86370185D-03
 -0.83750026D-03 -0.56497273D-03 -0.42136889D-11 -0.40858608D-11 -0.27562976D-11
  0.48490623D-14 -0.11245487D-03  0.48449678D-11 -0.35852263D-14  0.90524714D-04
  0.25773892D-12  0.37508649D-16  0.14487098D-04  0.64421928D-13  0.13542469D-12
 -0.22149037D-12  0.86065672D-13 -0.74838725D-14 -0.34427262D-13  0.18022602D-03
  0.22765256D-12  0.10301884D-11 -0.12578410D-11  0.59484967D-15  0.11235992D-13
 -0.62804562D-04 -0.49850017D-13  0.75951823D-13 -0.26101806D-13 -0.29280592D-15
  0.17630681D-14 -0.25200280D-04 -0.37853347D-14 -0.11342331D-04 -0.95511802D-12
  0.19768130D-14  0.16302403D-03  0.18931049D-11  0.93791910D-14 -0.12899703D-03
  0.97224914D-12 -0.93874587D-14  0.96146489D-15  0.32567053D-05  0.27424596D-12
  0.11887336D-14 -0.67761334D-04 -0.62709685D-13 -0.40731283D-14  0.57991218D-04
 -0.76002819D-12  0.83869054D-15  0.45711706D-09  0.85215829D-09  0.14402636D-08
  0.21649848D-08  0.26592961D-08  0.22443521D-08  0.84393499D-09  0.33392452D-13
  0.24958789D-12  0.93276693D-12  0.26022745D-11  0.34863304D-11 -0.41167061D-11
  0.36608964D-10  0.74454046D-13  0.82993788D-13  0.21515870D-13  0.20172495D-13
  0.14364018D-13 -0.60145788D-04 -0.56390499D-04 -0.40153395D-04 -0.71963144D-11
 -0.67470022D-11 -0.48042675D-11  0.11423676D-13 -0.38915878D-03  0.21945644D-11
  0.47437794D-15  0.55976529D-04  0.69212942D-12 -0.74940483D-16 -0.63412199D-05
 -0.42585628D-14 -0.35352815D-11  0.10515487D-11  0.24837329D-11 -0.44213432D-14
  0.29498873D-14  0.61010585D-03 -0.15703704D-12 -0.32561001D-12  0.48264705D-12
  0.61918417D-14  0.70299881D-14  0.38100298D-03  0.13819491D-13 -0.42611582D-13
  0.28792091D-13  0.38383994D-15  0.30132430D-15 -0.28257417D-04 -0.18084283D-14
 -0.24427575D-04  0.15396004D-11 -0.13382162D-14  0.51661173D-03  0.74149324D-12
  0.67635010D-14 -0.44332900D-03 -0.53602944D-11 -0.29535639D-14 -0.47201358D-16
  0.44116673D-04  0.16808696D-12 -0.80678252D-15  0.30455440D-04 -0.87829555D-13
  0.94838659D-15 -0.16280546D-03 -0.41643133D-12 -0.19714443D-14  0.42245868D+00
  0.78746371D+00  0.13349264D+01  0.20212591D+01  0.25270191D+01  0.21736896D+01
  0.83365674D+00  0.38737050D-04  0.51280601D-03  0.18626047D-02  0.55253818D-02
  0.63668865D-02 -0.77335320D-02  0.39152376D-01 -0.16927046D-03  0.82953522D-04
  0.12294676D-12  0.12023924D-12  0.79447152D-13  0.97655027D-02  0.95504483D-02
  0.63103850D-02  0.74581690D-02  0.72939264D-02  0.48194056D-02  0.24083921D-13
 -0.18433804D-03  0.15289585D-03  0.94002243D-14  0.23453574D-03  0.39550351D-03
  0.43486169D-15  0.21147188D-04  0.41228976D-05 -0.14788037D-03  0.16436052D-03
 -0.16480153D-04  0.10055644D-14  0.45167053D-14  0.25118270D-03  0.15563743D-03
 -0.24666362D-03  0.91026192D-04  0.86641167D-15  0.29022909D-14 -0.51861398D-03
 -0.58544964D-04  0.13673377D-04  0.44871587D-04  0.33701887D-14  0.27870434D-14
  0.13172190D-03 -0.84527629D-15 -0.27321409D-03  0.11272112D-04 -0.37089803D-14
  0.88407453D-03  0.18500055D-03  0.62448091D-14 -0.64432266D-04 -0.21881688D-03
  0.69139915D-14 -0.10649359D-14  0.51307080D-04  0.19196858D-04  0.19347937D-14
 -0.20833342D-03 -0.31006345D-04  0.12600138D-14  0.54412176D-04 -0.26584228D-04
  0.54805812D-14 -0.42245868D+00 -0.78746371D+00 -0.13349264D+01 -0.20212591D+01
 -0.25270191D+01 -0.21736896D+01 -0.83365674D+00 -0.38737050D-04 -0.51280601D-03
 -0.18626047D-02 -0.55253818D-02 -0.63668865D-02  0.77335320D-02 -0.39152376D-01
  0.16927047D-03 -0.82953521D-04  0.10427944D-13  0.10198301D-13  0.67384488D-14
  0.97655026D-02  0.95504483D-02  0.63103850D-02 -0.74581690D-02 -0.72939264D-02
 -0.48194056D-02  0.54179914D-14 -0.18433804D-03 -0.15289585D-03 -0.22853332D-14
  0.23453574D-03 -0.39550351D-03 -0.11173090D-15  0.21147188D-04 -0.41228975D-05
  0.14788037D-03 -0.16436052D-03  0.16480153D-04 -0.21730433D-14  0.16255473D-14
  0.25118269D-03 -0.15563742D-03  0.24666362D-03 -0.91026193D-04  0.11108122D-14
 -0.35211804D-15 -0.51861397D-03  0.58544963D-04 -0.13673376D-04 -0.44871587D-04
  0.15790887D-14 -0.10027074D-14  0.13172190D-03 -0.17362838D-14 -0.27321409D-03
 -0.11272112D-04 -0.58058250D-14  0.88407453D-03 -0.18500054D-03  0.11014677D-13
 -0.64432264D-04  0.21881688D-03 -0.28341700D-13  0.82305395D-15  0.51307080D-04
 -0.19196857D-04 -0.13396963D-14 -0.20833342D-03  0.31006346D-04 -0.11294655D-14
  0.54412177D-04  0.26584226D-04  0.71173751D-14
MO    4     MO 0.0        OCC NO =    2.0000016  ORB. ENERGY =    0.000000
  0.10184626D+00  0.18982468D+00  0.32187442D+00  0.48712270D+00  0.60764718D+00
  0.52145168D+00  0.19968829D+00  0.13155503D-04  0.14114992D-03  0.52030517D-03
  0.15213418D-02  0.18332908D-02 -0.22083931D-02  0.93983558D-02 -0.42185170D-03
 -0.17764757D-03 -0.49150859D-13 -0.47659800D-13 -0.32151020D-13  0.29138581D-11
  0.28254622D-11  0.19060401D-11  0.53317060D-03  0.51699614D-03  0.34876254D-03
 -0.13647270D-13  0.37869229D-12  0.15687543D-02 -0.14911345D-14 -0.28791333D-12
  0.12170748D-03  0.30286101D-16 -0.50094320D-13  0.19311132D-04  0.15194752D-03
 -0.91246538D-05 -0.14282287D-03 -0.75925137D-14 -0.55252318D-14 -0.55973754D-12
  0.62568376D-04  0.28805391D-03 -0.35062229D-03  0.36815090D-14  0.31633183D-14
  0.19131719D-12 -0.11798344D-04  0.21730855D-04 -0.99325118D-05  0.12978756D-14
 -0.47324505D-15  0.73344634D-13  0.38273611D-15  0.44601855D-13 -0.31205085D-03
  0.39771959D-14 -0.55908537D-12  0.61583361D-03 -0.51254043D-14  0.42527981D-12
  0.32031895D-03  0.49006463D-14 -0.47531713D-16 -0.13208888D-13  0.77919243D-04
 -0.40895866D-15  0.23034564D-12 -0.15396741D-04  0.55155380D-15 -0.19071897D-12
 -0.21836099D-03 -0.46165343D-14  0.14761140D+00  0.27517738D+00  0.46508726D+00
  0.69911290D+00  0.85873498D+00  0.72474203D+00  0.27252193D+00  0.11535174D-04
  0.86218276D-04  0.32221738D-03  0.89893632D-03  0.12043268D-02 -0.14220854D-02
  0.11821685D-01  0.21459370D-04  0.24396660D-04 -0.12493500D-13 -0.11713450D-13
 -0.83406744D-14  0.16629695D-12  0.15591396D-12  0.11102003D-12 -0.23512168D-02
 -0.22044152D-02 -0.15696749D-02 -0.26031211D-15  0.14138408D-11  0.63198917D-03
  0.54875593D-15 -0.21445939D-12  0.20554611D-03 -0.79305434D-16  0.22050952D-13
 -0.12688357D-05 -0.10775870D-02  0.33966571D-03  0.73792128D-03 -0.13087305D-14
 -0.12167110D-14 -0.21458309D-11 -0.31512784D-04 -0.98172872D-04  0.12968566D-03
  0.67492199D-14 -0.35453280D-14 -0.13989635D-11  0.38525843D-05 -0.12786077D-04
  0.89334929D-05  0.22957747D-15 -0.84453888D-16  0.98856759D-13 -0.75362323D-15
  0.90270885D-13  0.48381846D-03  0.17934870D-14 -0.18135497D-11  0.19739419D-03
  0.46738271D-15  0.15427371D-11 -0.16488496D-02 -0.48999083D-14 -0.25618940D-15
 -0.15546841D-12  0.42382390D-04  0.44886815D-15 -0.10175400D-12 -0.24718731D-04
  0.31970005D-15  0.56815923D-12 -0.10242844D-03 -0.56838615D-14  0.36698467D+00
  0.68406006D+00  0.11596342D+01  0.17558430D+01  0.21951905D+01  0.18882575D+01
  0.72418738D+00  0.31538388D-04  0.41750921D-03  0.15164694D-02  0.44985779D-02
  0.51837024D-02 -0.62963787D-02  0.34341258D-01  0.26305087D-03  0.80922457D-04
 -0.12918145D-14 -0.12633663D-14 -0.83475956D-15  0.62414106D-02  0.61039633D-02
  0.40331466D-02  0.39236607D-02  0.38372545D-02  0.25354363D-02  0.19993261D-15
 -0.54816707D-03 -0.64216219D-03  0.38212841D-14  0.30576111D-03  0.16045323D-03
  0.81969984D-16  0.49020785D-05  0.13402832D-04 -0.23374816D-03  0.17460333D-03
  0.59144835D-04  0.10279181D-14 -0.15717801D-13  0.78343005D-03  0.25124793D-03
 -0.18037178D-03 -0.70876155D-04 -0.53961736D-15  0.32919940D-14 -0.99203390D-03
 -0.44067913D-04  0.34797882D-04  0.92700309D-05  0.22906548D-14  0.39710665D-15
  0.61848762D-04 -0.12990004D-14  0.20845885D-04 -0.75462826D-04 -0.78770158D-14
  0.27215188D-03  0.45898876D-03  0.11774017D-13 -0.33468954D-03 -0.23260028D-03
 -0.93166807D-15  0.26157860D-15  0.32938073D-04  0.10061818D-03  0.17671588D-14
  0.10917166D-03  0.44090275D-04 -0.25518946D-14 -0.20798587D-03 -0.34594480D-03
  0.55641760D-14  0.36698467D+00  0.68406006D+00  0.11596342D+01  0.17558430D+01
  0.21951905D+01  0.18882575D+01  0.72418738D+00  0.31538388D-04  0.41750921D-03
  0.15164694D-02  0.44985779D-02  0.51837025D-02 -0.62963787D-02  0.34341258D-01
  0.26305087D-03  0.80922458D-04  0.82104298D-13  0.80296210D-13  0.53055101D-13
 -0.62414107D-02 -0.61039633D-02 -0.40331467D-02  0.39236608D-02  0.38372545D-02
  0.25354363D-02  0.21009601D-13  0.54816707D-03 -0.64216219D-03 -0.51680916D-14
 -0.30576112D-03  0.16045323D-03 -0.38680403D-16 -0.49020787D-05  0.13402832D-04
 -0.23374816D-03  0.17460333D-03  0.59144835D-04 -0.15805882D-14  0.98538291D-14
 -0.78343005D-03  0.25124794D-03 -0.18037178D-03 -0.70876154D-04  0.48632235D-15
 -0.18474716D-14  0.99203391D-03 -0.44067913D-04  0.34797882D-04  0.92700313D-05
  0.49947048D-14 -0.25302610D-14 -0.61848762D-04 -0.61313649D-15 -0.20845883D-04
 -0.75462826D-04  0.17521871D-13 -0.27215189D-03  0.45898876D-03 -0.15682461D-13
  0.33468954D-03 -0.23260029D-03 -0.13499332D-13  0.13803306D-14 -0.32938073D-04
  0.10061818D-03 -0.46930543D-14 -0.10917166D-03  0.44090274D-04  0.55206245D-15
  0.20798587D-03 -0.34594481D-03  0.90805625D-14
MO    5     MO 0.0        OCC NO =    1.9861786  ORB. ENERGY =    0.000000
 -0.99171846D-02 -0.18484001D-01 -0.31342222D-01 -0.47433120D-01 -0.59169079D-01
 -0.50775872D-01 -0.19444462D-01 -0.16087805D-03 -0.17261159D-02 -0.63627884D-02
 -0.18604420D-01 -0.22419231D-01  0.27006339D-01  0.14152107D-01 -0.33024173D-04
 -0.19223470D-02 -0.71764279D-13 -0.69587210D-13 -0.46943121D-13  0.17151150D-11
  0.16630846D-11  0.11219070D-11 -0.69618511D-01 -0.67506537D-01 -0.45539511D-01
 -0.28842484D-13  0.22919457D-12 -0.13005109D-01 -0.16515354D-13 -0.50074284D-12
  0.19948427D-02 -0.87317579D-15  0.52433072D-13  0.22951966D-03 -0.40044886D-02
 -0.42481508D-02  0.82526394D-02  0.62131993D-14 -0.15004378D-13 -0.31562890D-12
 -0.45532012D-03  0.61961232D-03 -0.16429220D-03 -0.15282184D-14  0.19078239D-13
  0.16679612D-12  0.10940649D-03  0.51840363D-03 -0.62781012D-03 -0.63633277D-15
  0.60070111D-14  0.23365542D-12  0.16373097D-14 -0.19071909D-13 -0.16158796D-02
 -0.55635542D-14 -0.12160361D-12  0.34861284D-02  0.65162500D-15  0.17881933D-12
  0.13615105D-02 -0.13428887D-13  0.10572381D-14  0.13101158D-13  0.50963130D-03
  0.37897464D-14  0.61771918D-13 -0.22203802D-03 -0.69614607D-14 -0.10107539D-12
 -0.13068559D-02  0.39940198D-14 -0.17213406D-01 -0.32089256D-01 -0.54235214D-01
 -0.81525642D-01 -0.10013965D+00 -0.84514331D-01 -0.31779596D-01 -0.31583142D-03
 -0.23606442D-02 -0.88222664D-02 -0.24612750D-01 -0.32974299D-01  0.38936498D-01
  0.15593169D-01  0.22629749D-02  0.22670357D-03 -0.36842058D-13 -0.34541771D-13
 -0.24595799D-13  0.13319428D-11  0.12487811D-11  0.88920651D-12 -0.34519903D-01
 -0.32364603D-01 -0.23045525D-01 -0.16438416D-14  0.49672520D-12 -0.49737473D-02
  0.28554957D-14  0.95805914D-12  0.15130446D-02  0.12805866D-15 -0.13867634D-13
 -0.33079495D-05 -0.19257439D-01  0.93274573D-02  0.99299814D-02  0.45484109D-14
 -0.32230590D-14 -0.63139333D-12 -0.26130527D-02  0.11488006D-02  0.14642521D-02
  0.48115223D-15  0.17221788D-13 -0.18028711D-12  0.83454270D-04 -0.92133964D-04
  0.86796945D-05 -0.32829487D-15  0.11560772D-14 -0.12056775D-12  0.28137305D-15
 -0.29581204D-13  0.34366119D-02 -0.65924410D-14 -0.10919688D-12  0.34594988D-02
  0.57483218D-14  0.19794050D-12 -0.13769335D-01 -0.23756670D-14 -0.16620032D-15
 -0.69699776D-13  0.26842750D-03 -0.26514337D-14 -0.10546506D-12  0.31676793D-03
  0.31500347D-14  0.31456438D-12 -0.11220504D-02  0.24892971D-14 -0.89169794D-01
 -0.16621265D+00 -0.28176747D+00 -0.42663406D+00 -0.53338654D+00 -0.45880807D+00
 -0.17596277D+00 -0.12986959D-02 -0.17192302D-01 -0.62445568D-01 -0.18524360D+00
 -0.21345583D+00  0.25927390D+00  0.14914143D+00  0.67594625D-01  0.16895009D-02
 -0.17781500D-12 -0.17389919D-12 -0.11490254D-12 -0.38060045D-01 -0.37221892D-01
 -0.24594078D-01 -0.13143438D+00 -0.12853996D+00 -0.84931785D-01 -0.43476540D-13
 -0.36452451D-02 -0.27297868D-01 -0.31171003D-14 -0.32660577D-02 -0.62983808D-02
 -0.35497339D-15 -0.48619333D-04 -0.46734367D-04 -0.59989169D-02  0.73448335D-02
 -0.13459166D-02 -0.12339026D-13 -0.17771167D-13  0.13754066D-01 -0.29944239D-02
  0.41359703D-02 -0.11415464D-02 -0.10625165D-14  0.17261024D-14  0.75488067D-02
  0.21602478D-03 -0.21201145D-03 -0.40133332D-05  0.66302547D-15  0.18913392D-14
 -0.91048046D-03  0.52926756D-14  0.16654940D-02 -0.21603449D-02  0.26445383D-15
 -0.64272594D-02 -0.23945124D-02 -0.16142481D-13  0.14307774D-02  0.88755472D-02
 -0.26898429D-13 -0.11883571D-14  0.29392843D-03 -0.22199687D-03 -0.89804686D-15
 -0.87888283D-03 -0.10358485D-02  0.44631183D-14 -0.29024576D-05  0.17018392D-02