 f2co-wavefunction
GAUSSIAN            184 MOL ORBITALS    288 PRIMITIVES        4 NUCLEI
  O    1    (CENTRE  1)   0.00000000  0.00000000  1.28487582  CHARGE =  8.0
  C    2    (CENTRE  2)   0.00000000  0.01889726 -0.93015344  CHARGE =  6.0
  F    3    (CENTRE  3)   0.00000000 -2.00098943 -2.38919020  CHARGE =  9.0
  F    4    (CENTRE  4)   0.00000000  2.00098943 -2.38919020  CHARGE =  9.0
CENTRE ASSIGNMENTS    1  1  1  1  1  1  1  1  1  1  1  1  1  1  1  1  1  1  1  1
CENTRE ASSIGNMENTS    1  1  1  1  1  1  1  1  1  1  1  1  1  1  1  1  1  1  1  1
CENTRE ASSIGNMENTS    1  1  1  1  1  1  1  1  1  1  1  1  1  1  1  1  1  1  1  1
CENTRE ASSIGNMENTS    1  1  1  1  1  1  1  1  1  1  1  1  2  2  2  2  2  2  2  2
CENTRE ASSIGNMENTS    2  2  2  2  2  2  2  2  2  2  2  2  2  2  2  2  2  2  2  2
CENTRE ASSIGNMENTS    2  2  2  2  2  2  2  2  2  2  2  2  2  2  2  2  2  2  2  2
CENTRE ASSIGNMENTS    2  2  2  2  2  2  2  2  2  2  2  2  2  2  2  2  2  2  2  2
CENTRE ASSIGNMENTS    2  2  2  2  3  3  3  3  3  3  3  3  3  3  3  3  3  3  3  3
CENTRE ASSIGNMENTS    3  3  3  3  3  3  3  3  3  3  3  3  3  3  3  3  3  3  3  3
CENTRE ASSIGNMENTS    3  3  3  3  3  3  3  3  3  3  3  3  3  3  3  3  3  3  3  3
CENTRE ASSIGNMENTS    3  3  3  3  3  3  3  3  3  3  3  3  3  3  3  3  4  4  4  4
CENTRE ASSIGNMENTS    4  4  4  4  4  4  4  4  4  4  4  4  4  4  4  4  4  4  4  4
CENTRE ASSIGNMENTS    4  4  4  4  4  4  4  4  4  4  4  4  4  4  4  4  4  4  4  4
CENTRE ASSIGNMENTS    4  4  4  4  4  4  4  4  4  4  4  4  4  4  4  4  4  4  4  4
CENTRE ASSIGNMENTS    4  4  4  4  4  4  4  4
TYPE ASSIGNMENTS      1  1  1  1  1  1  1  1  1  1  1  1  1  1  1  1  2  2  2  3
TYPE ASSIGNMENTS      3  3  4  4  4  2  3  4  2  3  4  2  3  4  5  6  7  8  9 10
TYPE ASSIGNMENTS      5  6  7  8  9 10  5  6  7  8  9 10 11 12 13 17 14 15 18 19
TYPE ASSIGNMENTS     16 20 11 12 13 17 14 15 18 19 16 20  1  1  1  1  1  1  1  1
TYPE ASSIGNMENTS      1  1  1  1  1  1  1  1  2  2  2  3  3  3  4  4  4  2  3  4
TYPE ASSIGNMENTS      2  3  4  2  3  4  5  6  7  8  9 10  5  6  7  8  9 10  5  6
TYPE ASSIGNMENTS      7  8  9 10 11 12 13 17 14 15 18 19 16 20 11 12 13 17 14 15
TYPE ASSIGNMENTS     18 19 16 20  1  1  1  1  1  1  1  1  1  1  1  1  1  1  1  1
TYPE ASSIGNMENTS      2  2  2  3  3  3  4  4  4  2  3  4  2  3  4  2  3  4  5  6
TYPE ASSIGNMENTS      7  8  9 10  5  6  7  8  9 10  5  6  7  8  9 10 11 12 13 17
TYPE ASSIGNMENTS     14 15 18 19 16 20 11 12 13 17 14 15 18 19 16 20  1  1  1  1
TYPE ASSIGNMENTS      1  1  1  1  1  1  1  1  1  1  1  1  2  2  2  3  3  3  4  4
TYPE ASSIGNMENTS      4  2  3  4  2  3  4  2  3  4  5  6  7  8  9 10  5  6  7  8
TYPE ASSIGNMENTS      9 10  5  6  7  8  9 10 11 12 13 17 14 15 18 19 16 20 11 12
TYPE ASSIGNMENTS     13 17 14 15 18 19 16 20
EXPONENTS  0.1533000D+05 0.2299000D+04 0.5224000D+03 0.1473000D+03 0.4755000D+02
EXPONENTS  0.1676000D+02 0.6207000D+01 0.5224000D+03 0.1473000D+03 0.4755000D+02
EXPONENTS  0.1676000D+02 0.6207000D+01 0.6882000D+00 0.1752000D+01 0.2384000D+00
EXPONENTS  0.7376000D-01 0.3446000D+02 0.7749000D+01 0.2280000D+01 0.3446000D+02
EXPONENTS  0.7749000D+01 0.2280000D+01 0.3446000D+02 0.7749000D+01 0.2280000D+01
EXPONENTS  0.7156000D+00 0.7156000D+00 0.7156000D+00 0.2140000D+00 0.2140000D+00
EXPONENTS  0.2140000D+00 0.5974000D-01 0.5974000D-01 0.5974000D-01 0.2314000D+01
EXPONENTS  0.2314000D+01 0.2314000D+01 0.2314000D+01 0.2314000D+01 0.2314000D+01
EXPONENTS  0.6450000D+00 0.6450000D+00 0.6450000D+00 0.6450000D+00 0.6450000D+00
EXPONENTS  0.6450000D+00 0.2140000D+00 0.2140000D+00 0.2140000D+00 0.2140000D+00
EXPONENTS  0.2140000D+00 0.2140000D+00 0.1428000D+01 0.1428000D+01 0.1428000D+01
EXPONENTS  0.1428000D+01 0.1428000D+01 0.1428000D+01 0.1428000D+01 0.1428000D+01
EXPONENTS  0.1428000D+01 0.1428000D+01 0.5000000D+00 0.5000000D+00 0.5000000D+00
EXPONENTS  0.5000000D+00 0.5000000D+00 0.5000000D+00 0.5000000D+00 0.5000000D+00
EXPONENTS  0.5000000D+00 0.5000000D+00 0.8236000D+04 0.1235000D+04 0.2808000D+03
EXPONENTS  0.7927000D+02 0.2559000D+02 0.8997000D+01 0.3319000D+01 0.2808000D+03
EXPONENTS  0.7927000D+02 0.2559000D+02 0.8997000D+01 0.3319000D+01 0.3643000D+00
EXPONENTS  0.9059000D+00 0.1285000D+00 0.4402000D-01 0.1871000D+02 0.4133000D+01
EXPONENTS  0.1200000D+01 0.1871000D+02 0.4133000D+01 0.1200000D+01 0.1871000D+02
EXPONENTS  0.4133000D+01 0.1200000D+01 0.3827000D+00 0.3827000D+00 0.3827000D+00
EXPONENTS  0.1209000D+00 0.1209000D+00 0.1209000D+00 0.3569000D-01 0.3569000D-01
EXPONENTS  0.3569000D-01 0.1097000D+01 0.1097000D+01 0.1097000D+01 0.1097000D+01
EXPONENTS  0.1097000D+01 0.1097000D+01 0.3180000D+00 0.3180000D+00 0.3180000D+00
EXPONENTS  0.3180000D+00 0.3180000D+00 0.3180000D+00 0.1000000D+00 0.1000000D+00
EXPONENTS  0.1000000D+00 0.1000000D+00 0.1000000D+00 0.1000000D+00 0.7610000D+00
EXPONENTS  0.7610000D+00 0.7610000D+00 0.7610000D+00 0.7610000D+00 0.7610000D+00
EXPONENTS  0.7610000D+00 0.7610000D+00 0.7610000D+00 0.7610000D+00 0.2680000D+00
EXPONENTS  0.2680000D+00 0.2680000D+00 0.2680000D+00 0.2680000D+00 0.2680000D+00
EXPONENTS  0.2680000D+00 0.2680000D+00 0.2680000D+00 0.2680000D+00 0.1950000D+05
EXPONENTS  0.2923000D+04 0.6645000D+03 0.1875000D+03 0.6062000D+02 0.2142000D+02
EXPONENTS  0.7950000D+01 0.6645000D+03 0.1875000D+03 0.6062000D+02 0.2142000D+02
EXPONENTS  0.7950000D+01 0.8815000D+00 0.2257000D+01 0.3041000D+00 0.9158000D-01
EXPONENTS  0.4388000D+02 0.9926000D+01 0.2930000D+01 0.4388000D+02 0.9926000D+01
EXPONENTS  0.2930000D+01 0.4388000D+02 0.9926000D+01 0.2930000D+01 0.9132000D+00
EXPONENTS  0.9132000D+00 0.9132000D+00 0.2672000D+00 0.2672000D+00 0.2672000D+00
EXPONENTS  0.7361000D-01 0.7361000D-01 0.7361000D-01 0.3107000D+01 0.3107000D+01
EXPONENTS  0.3107000D+01 0.3107000D+01 0.3107000D+01 0.3107000D+01 0.8550000D+00
EXPONENTS  0.8550000D+00 0.8550000D+00 0.8550000D+00 0.8550000D+00 0.8550000D+00
EXPONENTS  0.2920000D+00 0.2920000D+00 0.2920000D+00 0.2920000D+00 0.2920000D+00
EXPONENTS  0.2920000D+00 0.1917000D+01 0.1917000D+01 0.1917000D+01 0.1917000D+01
EXPONENTS  0.1917000D+01 0.1917000D+01 0.1917000D+01 0.1917000D+01 0.1917000D+01
EXPONENTS  0.1917000D+01 0.7240000D+00 0.7240000D+00 0.7240000D+00 0.7240000D+00
EXPONENTS  0.7240000D+00 0.7240000D+00 0.7240000D+00 0.7240000D+00 0.7240000D+00
EXPONENTS  0.7240000D+00 0.1950000D+05 0.2923000D+04 0.6645000D+03 0.1875000D+03
EXPONENTS  0.6062000D+02 0.2142000D+02 0.7950000D+01 0.6645000D+03 0.1875000D+03
EXPONENTS  0.6062000D+02 0.2142000D+02 0.7950000D+01 0.8815000D+00 0.2257000D+01
EXPONENTS  0.3041000D+00 0.9158000D-01 0.4388000D+02 0.9926000D+01 0.2930000D+01
EXPONENTS  0.4388000D+02 0.9926000D+01 0.2930000D+01 0.4388000D+02 0.9926000D+01
EXPONENTS  0.2930000D+01 0.9132000D+00 0.9132000D+00 0.9132000D+00 0.2672000D+00
EXPONENTS  0.2672000D+00 0.2672000D+00 0.7361000D-01 0.7361000D-01 0.7361000D-01
EXPONENTS  0.3107000D+01 0.3107000D+01 0.3107000D+01 0.3107000D+01 0.3107000D+01
EXPONENTS  0.3107000D+01 0.8550000D+00 0.8550000D+00 0.8550000D+00 0.8550000D+00
EXPONENTS  0.8550000D+00 0.8550000D+00 0.2920000D+00 0.2920000D+00 0.2920000D+00
EXPONENTS  0.2920000D+00 0.2920000D+00 0.2920000D+00 0.1917000D+01 0.1917000D+01
EXPONENTS  0.1917000D+01 0.1917000D+01 0.1917000D+01 0.1917000D+01 0.1917000D+01
EXPONENTS  0.1917000D+01 0.1917000D+01 0.1917000D+01 0.7240000D+00 0.7240000D+00
EXPONENTS  0.7240000D+00 0.7240000D+00 0.7240000D+00 0.7240000D+00 0.7240000D+00
EXPONENTS  0.7240000D+00 0.7240000D+00 0.7240000D+00
MO    1     MO 0.0        OCC NO =    2.0000067  ORB. ENERGY =    0.000000
 -0.32220400D+00 -0.60053527D+00 -0.10182919D+01 -0.15410766D+01 -0.19223716D+01
 -0.16496808D+01 -0.63174011D+00 -0.40144042D-04 -0.43071923D-03 -0.15877122D-02
 -0.46423773D-02 -0.55942903D-02  0.67389156D-02 -0.29032424D-01  0.49038447D-03
 -0.50053787D-04  0.29983799D-13  0.29074199D-13  0.19613283D-13 -0.22141734D-03
 -0.21470034D-03 -0.14483558D-03  0.19769871D-01  0.19170124D-01  0.12932053D-01
 -0.29333820D-14 -0.19623528D-04  0.25049155D-02 -0.88371217D-14 -0.11017809D-05
  0.66407165D-03 -0.52599167D-15 -0.70967144D-06  0.14600824D-04  0.12278436D-02
  0.65189095D-03 -0.18797346D-02  0.64199731D-14 -0.17308045D-13  0.35508055D-04
  0.50421304D-04 -0.24948981D-04 -0.25472322D-04 -0.18928871D-14  0.11885733D-13
  0.64089927D-05  0.50116273D-04 -0.18381704D-05 -0.48278102D-04 -0.35300838D-15
  0.36857231D-14  0.44857091D-06  0.11259423D-14 -0.80031877D-05 -0.54785733D-03
 -0.72372561D-14 -0.11476285D-04  0.10324324D-02  0.38594291D-14  0.35485849D-04
  0.61113962D-03 -0.55892288D-14  0.58822435D-15  0.12404902D-05  0.13146656D-04
  0.37040474D-14  0.19022679D-05 -0.22419643D-04 -0.54687205D-14 -0.56237383D-05
 -0.17020325D-04  0.20279257D-14  0.23920030D+00  0.44591755D+00  0.75366142D+00
  0.11328937D+01  0.13915570D+01  0.11744250D+01  0.44161447D+00  0.26513724D-04
  0.19817366D-03  0.74062022D-03  0.20662151D-02  0.27681586D-02 -0.32686791D-02
  0.19353520D-01 -0.42390005D-04  0.15382318D-04  0.29456697D-13  0.27617526D-13
  0.19665324D-13  0.55615985D-04  0.52143521D-04  0.37129293D-04 -0.40570976D-02
 -0.38037869D-02 -0.27085229D-02  0.12479386D-13  0.14150109D-04  0.48250431D-03
  0.12909395D-14 -0.79867266D-05  0.81947934D-04  0.20126674D-16  0.20834039D-06
  0.82239782D-06 -0.95536524D-03  0.40704677D-03  0.54831847D-03  0.18181250D-14
 -0.22829386D-14 -0.83429426D-04  0.21549035D-03 -0.12677304D-03 -0.88717311D-04
 -0.29316146D-14  0.12369508D-13  0.12323178D-04 -0.20410685D-07 -0.26938636D-05
  0.27142743D-05  0.35133365D-16  0.10333496D-14  0.13284975D-05 -0.22450178D-14
  0.92343807D-05  0.56110318D-03 -0.22187688D-14 -0.94289112D-05 -0.33711560D-03
  0.89538221D-14 -0.18274231D-04 -0.13461939D-02  0.51174096D-14  0.79093750D-16
  0.94223986D-06 -0.88308841D-04 -0.21150834D-14  0.19407179D-05 -0.11580923D-04
  0.18778021D-14 -0.47674375D-05  0.27650745D-03  0.12889165D-14 -0.95163528D-01
 -0.17738498D+00 -0.30070706D+00 -0.45531116D+00 -0.56923923D+00 -0.48964781D+00
 -0.18779047D+00 -0.11531108D-04 -0.15265027D-03 -0.55445357D-03 -0.16447761D-02
 -0.18952722D-02  0.23020904D-02 -0.83129955D-02  0.77311389D-03  0.23921156D-04
  0.19701402D-12  0.19267541D-12  0.12730879D-12 -0.72891373D-02 -0.71286170D-02
 -0.47101787D-02 -0.58658729D-02 -0.57366956D-02 -0.37904773D-02  0.44800004D-13
 -0.12558191D-02 -0.11181847D-02  0.88746919D-14 -0.14232196D-03 -0.71862612D-04
  0.43054653D-15 -0.41572460D-05 -0.20509160D-05  0.64630404D-04 -0.39381012D-04
 -0.25249393D-04  0.11905515D-13 -0.91349700D-14  0.68978475D-03  0.14526744D-03
 -0.79955280D-04 -0.65312158D-04  0.32662216D-14  0.23479576D-14 -0.75898981D-03
  0.39207604D-04 -0.22030269D-04 -0.17177335D-04  0.13556630D-14  0.16318294D-14
  0.20572213D-05  0.19337053D-14 -0.21024238D-04  0.55830414D-05  0.81182081D-14
  0.26100600D-03  0.11741073D-03 -0.13919324D-13 -0.19793328D-03 -0.13415985D-03
 -0.10653112D-13 -0.40681789D-15  0.51303248D-04  0.10209962D-03 -0.11563292D-14
  0.16298581D-03  0.19788328D-03  0.23767829D-14 -0.31689556D-03 -0.50418215D-03
  0.59733005D-14 -0.97385628D-01 -0.18152698D+00 -0.30772867D+00 -0.46594282D+00
 -0.58253115D+00 -0.50108125D+00 -0.19217545D+00 -0.11844824D-04 -0.15680329D-03
 -0.56953807D-03 -0.16895240D-02 -0.19468351D-02  0.23647212D-02 -0.85108771D-02
  0.78785468D-03  0.31849637D-04  0.18637960D-12  0.18227518D-12  0.12043692D-12
  0.75135598D-02  0.73480974D-02  0.48551986D-02 -0.61700128D-02 -0.60341377D-02
 -0.39870099D-02  0.39497390D-13  0.12960120D-02 -0.11915712D-02  0.12727931D-13
  0.16250746D-03 -0.97531244D-04  0.31658747D-15  0.32989133D-05 -0.18581506D-05
  0.95154758D-04 -0.88710708D-04 -0.64440501D-05  0.86696755D-15 -0.14790135D-13
 -0.63987939D-03  0.15514490D-03 -0.65399665D-04 -0.89745238D-04 -0.62652443D-14
  0.67666609D-14  0.81028204D-03  0.45080614D-04 -0.23226691D-04 -0.21853923D-04
 -0.35107945D-14  0.28493671D-14  0.13300390D-04  0.39882830D-14  0.14552993D-04
 -0.11913242D-04 -0.11897391D-13 -0.21554928D-03  0.85342080D-04 -0.67457724D-16
  0.17189030D-03 -0.49602355D-04  0.21070793D-13 -0.19801051D-14 -0.64030947D-04
  0.10104459D-03  0.29318054D-14 -0.16650353D-03  0.21177244D-03  0.30085099D-14
  0.35859637D-03 -0.51490620D-03 -0.11509808D-13
MO    2     MO 0.0        OCC NO =    2.0000037  ORB. ENERGY =    0.000000
 -0.36839045D+00 -0.68661922D+00 -0.11642594D+01 -0.17619828D+01 -0.21979346D+01
 -0.18861549D+01 -0.72229713D+00 -0.43677273D-04 -0.46862848D-03 -0.17274528D-02
 -0.50509707D-02 -0.60866653D-02  0.73320333D-02 -0.33652683D-01  0.66776665D-03
  0.91638362D-04  0.11124828D-13  0.10787341D-13  0.72770764D-14 -0.12976332D-03
 -0.12582677D-03 -0.84881995D-04  0.87220115D-02  0.84574172D-02  0.57053237D-02
  0.11926127D-13  0.59530900D-05 -0.18395606D-02  0.36355481D-14 -0.37226844D-05
 -0.15537861D-03 -0.30022431D-16  0.60246782D-06  0.17725547D-05  0.69235139D-03
  0.89316710D-04 -0.78166810D-03 -0.11856279D-14 -0.21206613D-14  0.18271556D-04
 -0.33903955D-03 -0.35770083D-03  0.69674038D-03 -0.44528623D-15 -0.10346549D-13
 -0.20505791D-04 -0.39153480D-04  0.13225376D-04  0.25928104D-04  0.27261243D-15
 -0.79727436D-15 -0.74673096D-06 -0.36392224D-14  0.74599855D-05  0.24822900D-03
  0.66170965D-14  0.58786853D-05 -0.22276137D-03  0.43005707D-14 -0.28258642D-04
 -0.52192562D-03 -0.26240921D-14 -0.32664993D-15 -0.16936204D-05 -0.66624718D-04
 -0.16871949D-14 -0.23063460D-05  0.11086764D-03  0.26671447D-14  0.73872071D-05
  0.89006512D-04 -0.75173403D-15 -0.16826900D+00 -0.31368731D+00 -0.53017430D+00
 -0.79695085D+00 -0.97891138D+00 -0.82616667D+00 -0.31066024D+00 -0.14534692D-04
 -0.10863782D-03 -0.40600434D-03 -0.11326889D-02 -0.15174908D-02  0.17918737D-02
 -0.14048225D-01  0.99637086D-04 -0.68117649D-05  0.11725352D-13  0.10993263D-13
  0.78278581D-14 -0.47487239D-04 -0.44522305D-04 -0.31702534D-04  0.25229780D-02
  0.23654522D-02  0.16843429D-02  0.27375534D-14  0.24683835D-04 -0.20187413D-02
  0.14756852D-14  0.93313259D-05 -0.26361125D-04  0.95364801D-16 -0.19149127D-06
 -0.84467613D-05  0.82591005D-03  0.15033599D-03 -0.97624603D-03  0.12799023D-14
 -0.17553022D-14  0.42503895D-04 -0.13261332D-03  0.36130285D-03 -0.22868953D-03
  0.44147862D-14 -0.69418733D-14 -0.99914139D-05 -0.33285573D-05 -0.14281334D-04
  0.17609892D-04 -0.40323360D-16 -0.38622171D-15 -0.17530556D-05  0.12355682D-14
 -0.17107461D-05 -0.25404612D-03  0.20396866D-14  0.39942715D-06  0.52922165D-03
 -0.57463911D-14  0.47328110D-05  0.23291671D-03 -0.46513358D-14 -0.32376567D-15
 -0.61653139D-06  0.34330139D-04  0.16808995D-14 -0.29302887D-05  0.73216520D-04
 -0.70960243D-15  0.47798829D-05 -0.17620694D-03 -0.11196642D-14  0.18516068D+00
  0.34513983D+00  0.58508890D+00  0.88590372D+00  0.11075748D+01  0.95271292D+00
  0.36538591D+00  0.19034987D-04  0.25198758D-03  0.91526475D-03  0.27151157D-02
  0.31286224D-02 -0.38001779D-02  0.16856921D-01 -0.83496248D-03 -0.21226025D-04
 -0.48553100D-13 -0.47483871D-13 -0.31374601D-13  0.86536560D-02  0.84630866D-02
  0.55919191D-02  0.51688994D-02  0.50550707D-02  0.33400990D-02 -0.10310054D-13
  0.78467110D-03  0.25245738D-03 -0.35635495D-14  0.76105912D-04 -0.23585985D-04
 -0.37293103D-15 -0.70206863D-06  0.21135448D-04 -0.20049347D-04  0.14879678D-03
 -0.12874743D-03 -0.13982489D-13 -0.10015540D-13 -0.36024797D-03  0.58520433D-05
 -0.55533593D-04  0.49681549D-04  0.21920811D-14 -0.17173106D-15  0.45335566D-04
 -0.15346426D-04  0.14107469D-04  0.12389570D-05 -0.33869941D-15 -0.84371520D-15
 -0.63370039D-05 -0.18379367D-14  0.10900107D-03 -0.12560450D-03 -0.37512402D-14
  0.79466119D-04  0.56648187D-03  0.92650504D-14 -0.40646933D-03 -0.18966839D-03
 -0.78891475D-14 -0.64451592D-16 -0.54883591D-04 -0.46022552D-05  0.12305313D-14
 -0.13268706D-03 -0.28873845D-03 -0.10371765D-14  0.29733784D-03  0.30254521D-03
 -0.22280094D-14  0.18624709D+00  0.34716490D+00  0.58852186D+00  0.89110168D+00
  0.11140734D+01  0.95830288D+00  0.36752978D+00  0.19210336D-04  0.25430887D-03
  0.92369610D-03  0.27401271D-02  0.31574430D-02 -0.38351848D-02  0.16964434D-01
 -0.87187782D-03 -0.37023320D-04  0.11922979D-12  0.11660413D-12  0.77045281D-13
 -0.88825401D-02 -0.86869302D-02 -0.57398221D-02  0.55064464D-02  0.53851843D-02
  0.35582190D-02  0.29937612D-13 -0.80656771D-03  0.29276818D-03 -0.15584614D-14
 -0.87456978D-04 -0.17438886D-04 -0.24422362D-15  0.26057979D-05  0.21165038D-04
 -0.43782427D-04  0.16425989D-03 -0.12047746D-03 -0.60334610D-14  0.69732328D-14
  0.31221691D-03  0.22758795D-05 -0.51330977D-04  0.49055097D-04 -0.41952429D-18
 -0.96852695D-15 -0.65392554D-04 -0.18267075D-04  0.17946377D-04  0.32069785D-06
  0.26785541D-14 -0.26545095D-14 -0.15577017D-05 -0.35339382D-14 -0.10415682D-03
 -0.11052758D-03 -0.37221319D-14 -0.11177697D-03  0.58602147D-03  0.14323947D-13
  0.42424743D-03 -0.25443874D-03 -0.18843709D-13  0.12802821D-14  0.55352651D-04
 -0.93893178D-05 -0.45617819D-15  0.14030851D-03 -0.29419728D-03 -0.33846681D-14
 -0.30636647D-03  0.32236523D-03  0.85074698D-14
MO    3     MO 0.0        OCC NO =    2.0000022  ORB. ENERGY =    0.000000
  0.34092795D-02  0.63543363D-02  0.10774670D-01  0.16306318D-01  0.20340846D-01
  0.17455472D-01  0.66845185D-02  0.46700396D-06  0.50106461D-05  0.18470185D-04
  0.54005737D-04  0.65079539D-04 -0.78395201D-04  0.31412704D-03 -0.21416429D-04
 -0.92927402D-05 -0.20365231D-13 -0.19747424D-13 -0.13321495D-13 -0.86139562D-03
 -0.83526400D-03 -0.56346416D-03 -0.39088279D-04 -0.37902482D-04 -0.25568791D-04
 -0.22191304D-14 -0.11339220D-03  0.45311092D-04  0.77663487D-17  0.90192735D-04
  0.37739217D-05 -0.64247136D-16  0.14465897D-04  0.91961479D-06  0.22540659D-05
 -0.12162908D-05 -0.10377751D-05  0.15263375D-15  0.61753954D-14  0.18018944D-03
  0.33902128D-05  0.97835559D-05 -0.13173769D-04 -0.84842159D-15 -0.37201647D-14
 -0.61681354D-04 -0.29137497D-06  0.95373432D-06 -0.66235934D-06  0.12661079D-14
  0.19853773D-15 -0.25170055D-04 -0.65337078D-15 -0.11231990D-04 -0.80583702D-05
 -0.54838798D-14  0.16322475D-03  0.17880363D-04  0.74439922D-14 -0.12952878D-03
  0.62947479D-05  0.50792843D-14 -0.27127138D-15  0.33219583D-05  0.27062123D-05
 -0.12075302D-14 -0.67771205D-04 -0.24847029D-05  0.20213443D-14  0.57805330D-04
 -0.56339339D-05 -0.35386822D-14  0.35593770D-02  0.66353957D-02  0.11214723D-01
  0.16857820D-01  0.20706813D-01  0.17475819D-01  0.65713644D-02  0.40928949D-06
  0.30591853D-05  0.11432874D-04  0.31895939D-04  0.42731764D-04 -0.50458246D-04
  0.29004616D-03 -0.12944146D-04  0.12038163D-05 -0.10894663D-13 -0.10214439D-13
 -0.72732892D-14 -0.59871637D-04 -0.56133465D-04 -0.39970371D-04 -0.53200777D-04
 -0.49879110D-04 -0.35516898D-04 -0.55958226D-14 -0.38774797D-03  0.54110596D-04
 -0.15251621D-15  0.56039132D-04  0.12671351D-04  0.61309092D-16 -0.63362003D-05
 -0.62418381D-07 -0.98142815D-05 -0.10626253D-04  0.20440535D-04 -0.84310881D-15
 -0.16045941D-14  0.60689641D-03  0.38639133D-05 -0.42443450D-05  0.38043174D-06
 -0.96635329D-15 -0.93235361D-15  0.38021087D-03  0.18129730D-06 -0.68443104D-06
  0.50313374D-06 -0.40625722D-15 -0.34230749D-16 -0.28230133D-04  0.24622847D-15
 -0.24421170D-04  0.14286937D-04  0.16192726D-14  0.51568570D-03 -0.48665945D-05
 -0.23579580D-14 -0.44242219D-03 -0.37994217D-04 -0.15618970D-14 -0.93199138D-17
  0.44035128D-04  0.18848828D-05  0.41740410D-16  0.30416188D-04 -0.26832925D-05
 -0.13780669D-16 -0.16252157D-03 -0.29713559D-05 -0.14268056D-14  0.43372538D+00
  0.80846486D+00  0.13705281D+01  0.20751648D+01  0.25944131D+01  0.22316605D+01
  0.85588983D+00  0.39745826D-04  0.52616031D-03  0.19111100D-02  0.56692718D-02
  0.65326906D-02 -0.79349258D-02  0.40185529D-01 -0.14543744D-03  0.89497825D-04
  0.11463874D-13  0.11211418D-13  0.74078579D-14  0.98882860D-02  0.96705277D-02
  0.63897266D-02  0.74196816D-02  0.72562865D-02  0.47945353D-02  0.28971135D-14
 -0.18651184D-03  0.13622182D-03  0.76714393D-15  0.25334649D-03  0.39974943D-03
 -0.35178804D-15  0.21717688D-04  0.50425481D-05 -0.13781992D-03  0.15144277D-03
 -0.13622845D-04 -0.77152846D-14  0.82743619D-14  0.22834071D-03  0.15757622D-03
 -0.24667187D-03  0.89095648D-04  0.16538284D-14  0.21042523D-14 -0.53025898D-03
 -0.60256757D-04  0.15887992D-04  0.44368765D-04  0.34739097D-15 -0.18738519D-15
  0.13519979D-03  0.20446106D-14 -0.27158016D-03  0.80259352D-05 -0.18509970D-13
  0.89235472D-03  0.19993998D-03  0.12376138D-13 -0.77614250D-04 -0.22401778D-03
 -0.15186737D-13 -0.18036240D-15  0.52760633D-04  0.20985913D-04  0.24746919D-14
 -0.20960248D-03 -0.33328286D-04 -0.19336047D-14  0.51320578D-04 -0.29629454D-04
  0.36887298D-14 -0.41081192D+00 -0.76575413D+00 -0.12981239D+01 -0.19655351D+01
 -0.24573517D+01 -0.21137632D+01 -0.81067367D+00 -0.37695371D-04 -0.49901613D-03
 -0.18125174D-02 -0.53767987D-02 -0.61956744D-02  0.75255694D-02 -0.38083363D-01
  0.19211454D-03 -0.76413221D-04 -0.98072315D-13 -0.95912582D-13 -0.63373498D-13
  0.96295266D-02  0.94174667D-02  0.62225185D-02 -0.74844922D-02 -0.73196699D-02
 -0.48364154D-02 -0.24217612D-13 -0.18110506D-03 -0.17047876D-03 -0.32965872D-14
  0.21663417D-03 -0.39083089D-03  0.25710335D-15  0.20572555D-04 -0.32068522D-05
  0.15751750D-03 -0.17616015D-03  0.18642646D-04 -0.12152670D-13  0.11467293D-13
  0.27280633D-03 -0.15310610D-03  0.24611057D-03 -0.93004468D-04  0.14089505D-14
 -0.11950360D-14 -0.50465553D-03  0.56899994D-04 -0.11788642D-04 -0.45111351D-04
  0.47355856D-15  0.77397340D-15  0.12834988D-03  0.32593099D-14 -0.27512867D-03
 -0.14985524D-04 -0.14504436D-14  0.87621858D-03 -0.17023914D-03 -0.83274861D-14
 -0.50832575D-04  0.21519572D-03  0.41121249D-14 -0.27086136D-15  0.49933959D-04
 -0.17163329D-04 -0.21848334D-15 -0.20742153D-03  0.28881472D-04  0.10310674D-14
  0.57619656D-04  0.22608516D-04 -0.87686016D-15
MO    4     MO 0.0        OCC NO =    2.0000016  ORB. ENERGY =    0.000000
  0.10174388D+00  0.18963387D+00  0.32155087D+00  0.48663305D+00  0.60703637D+00
  0.52092752D+00  0.19948756D+00  0.13139009D-04  0.14097295D-03  0.51965283D-03
  0.15194344D-02  0.18309923D-02 -0.22056243D-02  0.93890740D-02 -0.42106432D-03
 -0.17736919D-03  0.81417824D-15  0.78947902D-15  0.53257788D-15  0.57319339D-04
  0.55580478D-04  0.37494262D-04  0.53461304D-03  0.51839482D-03  0.34970608D-03
 -0.36920193D-14 -0.24517773D-04  0.15673407D-02 -0.67226811D-14 -0.98765631D-05
  0.12170774D-03 -0.33405396D-15 -0.44992904D-06  0.19283469D-04  0.15178087D-03
 -0.89996630D-05 -0.14278120D-03  0.14875509D-13 -0.66058990D-14  0.28256591D-06
  0.62678211D-04  0.28759239D-03 -0.35027060D-03 -0.17690880D-14  0.72788629D-14
  0.33396156D-04 -0.11760516D-04  0.21689505D-04 -0.99289892D-05  0.64015017D-15
  0.33057837D-14  0.19900148D-05  0.23312139D-14  0.15129574D-05 -0.31146650D-03
 -0.10130468D-13 -0.16606734D-05  0.61465887D-03  0.31368267D-14 -0.28781988D-05
  0.31974062D-03  0.79285459D-14  0.59529797D-15  0.23770712D-05  0.77826734D-04
  0.24258785D-14  0.11655751D-05 -0.15446500D-04 -0.42117724D-14 -0.82967889D-05
 -0.21803370D-03 -0.17624088D-14  0.14754699D+00  0.27505731D+00  0.46488434D+00
  0.69880786D+00  0.85836030D+00  0.72442581D+00  0.27240302D+00  0.11521669D-04
  0.86117336D-04  0.32184015D-03  0.89788389D-03  0.12029169D-02 -0.14204205D-02
  0.11817405D-01  0.21579879D-04  0.24360414D-04 -0.99171694D-14 -0.92979767D-14
 -0.66207133D-14  0.49301779D-04  0.46223551D-04  0.32913922D-04 -0.23510542D-02
 -0.22042628D-02 -0.15695664D-02  0.26848843D-14  0.51932985D-04  0.63014047D-03
  0.25230480D-14  0.54249945D-05  0.20515133D-03  0.17191876D-15  0.12769664D-06
 -0.12658736D-05 -0.10780826D-02  0.33990881D-03  0.73817380D-03  0.17174982D-14
 -0.16010633D-14 -0.14231499D-03 -0.31505486D-04 -0.98168818D-04  0.12967430D-03
 -0.20891423D-14  0.90402355D-14 -0.23483738D-04  0.38556647D-05 -0.12768551D-04
  0.89128860D-05 -0.20898511D-15  0.14119329D-15  0.51708601D-06  0.14148807D-16
 -0.15189931D-05  0.48340653D-03 -0.39656847D-14 -0.28505930D-04  0.19751465D-03
  0.39232382D-14  0.33062910D-04 -0.16477342D-02  0.41333603D-14 -0.18030214D-15
 -0.15007362D-05  0.42294316D-04 -0.72472388D-15 -0.23149062D-05 -0.24628162D-04
  0.12656303D-14  0.68171150D-05 -0.10225478D-03  0.23450960D-15  0.35422736D+00
  0.66028040D+00  0.11193224D+01  0.16948055D+01  0.21188801D+01  0.18226169D+01
  0.69901279D+00  0.30420589D-04  0.40271164D-03  0.14627219D-02  0.43391371D-02
  0.49999791D-02 -0.60732193D-02  0.33137949D-01  0.28262878D-03  0.85458382D-04
 -0.12284355D-12 -0.12013831D-12 -0.79380458D-13  0.59299830D-02  0.57993939D-02
  0.38319047D-02  0.36119143D-02  0.35323732D-02  0.23339884D-02 -0.27694263D-13
 -0.51922134D-03 -0.62155151D-03 -0.40187939D-14  0.31084210D-03  0.15485121D-03
 -0.49871417D-15  0.51912328D-05  0.13676191D-04 -0.22088529D-03  0.16341366D-03
  0.57471630D-04 -0.97915605D-14  0.77723527D-14  0.74818663D-03  0.23798894D-03
 -0.17173695D-03 -0.66251994D-04 -0.12842124D-14  0.12758974D-14 -0.94357676D-03
 -0.43908770D-04  0.36792091D-04  0.71166788D-05 -0.57737091D-15 -0.32706091D-15
  0.62211187D-04 -0.33214230D-14  0.21418105D-04 -0.70059713D-04  0.73025985D-15
  0.26659527D-03  0.45786976D-03  0.92340092D-14 -0.33084958D-03 -0.24769062D-03
  0.42543611D-14  0.43410489D-16  0.30917831D-04  0.98017631D-04 -0.55623894D-15
  0.10731728D-03  0.40366895D-04  0.42600747D-15 -0.20007077D-03 -0.33441979D-03
 -0.12843026D-14  0.37943493D+00  0.70726736D+00  0.11989757D+01  0.18154114D+01
  0.22696641D+01  0.19523182D+01  0.74875603D+00  0.32626770D-04  0.43191734D-03
  0.15688024D-02  0.46538226D-02  0.53625906D-02 -0.65136650D-02  0.35517403D-01
  0.24232138D-03  0.75966991D-04  0.29535016D-13  0.28884601D-13  0.19085277D-13
 -0.65501040D-02 -0.64058586D-02 -0.42326216D-02  0.42416989D-02  0.41482889D-02
  0.27409499D-02  0.55579525D-14  0.57743717D-03 -0.66290960D-03  0.43419429D-14
 -0.29984446D-03  0.16587423D-03 -0.19962913D-15 -0.45879935D-05  0.13065035D-04
 -0.24776508D-03  0.18685611D-03  0.60908977D-04  0.92630170D-14  0.10272615D-13
 -0.82119775D-03  0.26457315D-03 -0.18879570D-03 -0.75777453D-04 -0.28381860D-14
  0.31012653D-14  0.10403938D-02 -0.44125568D-04  0.32697484D-04  0.11428084D-04
 -0.99071094D-15  0.14017230D-14 -0.61313857D-04  0.20416642D-14 -0.20182783D-04
 -0.80982816D-04 -0.30088318D-14 -0.27589564D-03  0.45818479D-03 -0.31161609D-14
  0.33644399D-03 -0.21523635D-03  0.66401628D-14 -0.13591366D-14 -0.34918748D-04
  0.10305487D-03  0.24911907D-14 -0.11120457D-03  0.48051692D-04  0.15862191D-14
  0.21596082D-03 -0.35721630D-03 -0.60519483D-14
MO    5     MO 0.0        OCC NO =    1.9861808  ORB. ENERGY =    0.000000
 -0.98895419D-02 -0.18432480D-01 -0.31254860D-01 -0.47300907D-01 -0.59004153D-01
 -0.50634342D-01 -0.19390263D-01 -0.16042995D-03 -0.17213081D-02 -0.63450657D-02
 -0.18552600D-01 -0.22356785D-01  0.26931117D-01  0.14115096D-01 -0.50204125D-04
 -0.19198991D-02  0.35211624D-13  0.34143431D-13  0.23032957D-13  0.47516159D-02
  0.46074691D-02  0.31081714D-02 -0.69448496D-01 -0.67341680D-01 -0.45428300D-01
  0.50294040D-14  0.98228610D-03 -0.12957957D-01  0.10484547D-14  0.18652227D-04
  0.20029683D-02  0.41814850D-15 -0.14989501D-04  0.22934943D-03 -0.39938919D-02
 -0.42333082D-02  0.82272001D-02 -0.26984568D-14 -0.10833580D-13 -0.55365212D-03
 -0.44981768D-03  0.62218670D-03 -0.17236902D-03  0.42375308D-16  0.29080557D-14
 -0.52335731D-05  0.11042973D-03  0.51774878D-03 -0.62817852D-03 -0.67127889D-15
 -0.30405181D-15  0.25195135D-04 -0.30212870D-15 -0.71464392D-04 -0.16055875D-02
 -0.15090854D-14 -0.65053395D-04  0.34713643D-02  0.24154715D-14  0.27944657D-03
  0.13453981D-02 -0.73796695D-14  0.37556470D-15  0.56597388D-05  0.50938878D-03
  0.19489026D-15 -0.64144913D-05 -0.22282220D-03 -0.13215844D-14 -0.10564725D-04
 -0.13053441D-02  0.14922746D-14 -0.17202430D-01 -0.32068794D-01 -0.54200631D-01
 -0.81473658D-01 -0.10007580D+00 -0.84460442D-01 -0.31759332D-01 -0.31557570D-03
 -0.23587328D-02 -0.88151231D-02 -0.24592821D-01 -0.32947600D-01  0.38904972D-01
  0.15583402D-01  0.22600896D-02  0.22583735D-03  0.31116082D-13  0.29173305D-13
  0.20773131D-13  0.59225535D-02  0.55527704D-02  0.39539033D-02 -0.34607240D-01
 -0.32446487D-01 -0.23103832D-01  0.11585410D-13  0.79761809D-03 -0.49639502D-02
 -0.19508006D-15 -0.11888945D-03  0.15103213D-02 -0.11278369D-15  0.39675835D-05
 -0.32361163D-05 -0.19241423D-01  0.93119937D-02  0.99294290D-02 -0.46007364D-15
 -0.29808417D-14 -0.29030337D-02 -0.26092557D-02  0.11418698D-02  0.14673858D-02
  0.17156370D-14 -0.44008065D-15 -0.27867053D-03  0.83550472D-04 -0.91702054D-04
  0.81515824D-05  0.43464176D-15 -0.27698949D-15  0.46966278D-04 -0.25950170D-14
 -0.80097700D-05  0.34338671D-02  0.33039288D-14 -0.24713152D-03  0.34508445D-02
  0.44811222D-14  0.27116083D-03 -0.13752446D-01 -0.19566343D-14 -0.30499348D-19
 -0.36312424D-04  0.26720331D-03 -0.35447105D-15 -0.13450057D-04  0.31689400D-03
  0.35456254D-15  0.12238733D-03 -0.11185039D-02  0.14321182D-15 -0.83778709D-01
 -0.15616366D+00 -0.26473219D+00 -0.40084034D+00 -0.50113871D+00 -0.43106915D+00
 -0.16532430D+00 -0.12203858D-02 -0.16155623D-01 -0.58680163D-01 -0.17407360D+00
 -0.20058466D+00  0.24363995D+00  0.14016467D+00  0.63439819D-01  0.14554845D-02
  0.14538395D-12  0.14218232D-12  0.93945872D-13 -0.26377606D-01 -0.25796723D-01
 -0.17044985D-01 -0.12624618D+00 -0.12346600D+00 -0.81579209D-01  0.30198256D-13
 -0.13486413D-02 -0.26409024D-01  0.51269457D-14 -0.27321145D-02 -0.61776296D-02
  0.42017616D-15 -0.58375278D-04 -0.46300272D-04 -0.57256523D-02  0.71625804D-02
 -0.14369281D-02  0.22720868D-13  0.10111016D-13  0.12728651D-01 -0.27673101D-02
  0.39777046D-02 -0.12103944D-02 -0.73150840D-15 -0.25294794D-14  0.68396650D-02
  0.20642792D-03 -0.17104916D-03 -0.35378767D-04  0.39577744D-15  0.13087102D-14
 -0.91742214D-03 -0.35186480D-14  0.16859582D-02 -0.20558278D-02  0.77794752D-14
 -0.61455932D-02 -0.21122092D-02  0.27764689D-14  0.10877185D-02  0.82796928D-02
  0.29582578D-14  0.64795414D-15  0.30380185D-03 -0.20224742D-03 -0.17848887D-14
 -0.78898641D-03 -0.96260376D-03 -0.15897371D-15 -0.12241913D-03  0.15693460D-02