 f2co-wavefunction
GAUSSIAN            184 MOL ORBITALS    288 PRIMITIVES        4 NUCLEI
  O    1    (CENTRE  1)   0.00000000  0.00000000  1.28487582  CHARGE =  8.0
  C    2    (CENTRE  2)   0.00000000  0.00000000 -0.93015344  CHARGE =  6.0
  F    3    (CENTRE  3)   0.00000000 -2.00098943 -2.37029294  CHARGE =  9.0
  F    4    (CENTRE  4)   0.00000000  2.00098943 -2.38919020  CHARGE =  9.0
CENTRE ASSIGNMENTS    1  1  1  1  1  1  1  1  1  1  1  1  1  1  1  1  1  1  1  1
CENTRE ASSIGNMENTS    1  1  1  1  1  1  1  1  1  1  1  1  1  1  1  1  1  1  1  1
CENTRE ASSIGNMENTS    1  1  1  1  1  1  1  1  1  1  1  1  1  1  1  1  1  1  1  1
CENTRE ASSIGNMENTS    1  1  1  1  1  1  1  1  1  1  1  1  2  2  2  2  2  2  2  2
CENTRE ASSIGNMENTS    2  2  2  2  2  2  2  2  2  2  2  2  2  2  2  2  2  2  2  2
CENTRE ASSIGNMENTS    2  2  2  2  2  2  2  2  2  2  2  2  2  2  2  2  2  2  2  2
CENTRE ASSIGNMENTS    2  2  2  2  2  2  2  2  2  2  2  2  2  2  2  2  2  2  2  2
CENTRE ASSIGNMENTS    2  2  2  2  3  3  3  3  3  3  3  3  3  3  3  3  3  3  3  3
CENTRE ASSIGNMENTS    3  3  3  3  3  3  3  3  3  3  3  3  3  3  3  3  3  3  3  3
CENTRE ASSIGNMENTS    3  3  3  3  3  3  3  3  3  3  3  3  3  3  3  3  3  3  3  3
CENTRE ASSIGNMENTS    3  3  3  3  3  3  3  3  3  3  3  3  3  3  3  3  4  4  4  4
CENTRE ASSIGNMENTS    4  4  4  4  4  4  4  4  4  4  4  4  4  4  4  4  4  4  4  4
CENTRE ASSIGNMENTS    4  4  4  4  4  4  4  4  4  4  4  4  4  4  4  4  4  4  4  4
CENTRE ASSIGNMENTS    4  4  4  4  4  4  4  4  4  4  4  4  4  4  4  4  4  4  4  4
CENTRE ASSIGNMENTS    4  4  4  4  4  4  4  4
TYPE ASSIGNMENTS      1  1  1  1  1  1  1  1  1  1  1  1  1  1  1  1  2  2  2  3
TYPE ASSIGNMENTS      3  3  4  4  4  2  3  4  2  3  4  2  3  4  5  6  7  8  9 10
TYPE ASSIGNMENTS      5  6  7  8  9 10  5  6  7  8  9 10 11 12 13 17 14 15 18 19
TYPE ASSIGNMENTS     16 20 11 12 13 17 14 15 18 19 16 20  1  1  1  1  1  1  1  1
TYPE ASSIGNMENTS      1  1  1  1  1  1  1  1  2  2  2  3  3  3  4  4  4  2  3  4
TYPE ASSIGNMENTS      2  3  4  2  3  4  5  6  7  8  9 10  5  6  7  8  9 10  5  6
TYPE ASSIGNMENTS      7  8  9 10 11 12 13 17 14 15 18 19 16 20 11 12 13 17 14 15
TYPE ASSIGNMENTS     18 19 16 20  1  1  1  1  1  1  1  1  1  1  1  1  1  1  1  1
TYPE ASSIGNMENTS      2  2  2  3  3  3  4  4  4  2  3  4  2  3  4  2  3  4  5  6
TYPE ASSIGNMENTS      7  8  9 10  5  6  7  8  9 10  5  6  7  8  9 10 11 12 13 17
TYPE ASSIGNMENTS     14 15 18 19 16 20 11 12 13 17 14 15 18 19 16 20  1  1  1  1
TYPE ASSIGNMENTS      1  1  1  1  1  1  1  1  1  1  1  1  2  2  2  3  3  3  4  4
TYPE ASSIGNMENTS      4  2  3  4  2  3  4  2  3  4  5  6  7  8  9 10  5  6  7  8
TYPE ASSIGNMENTS      9 10  5  6  7  8  9 10 11 12 13 17 14 15 18 19 16 20 11 12
TYPE ASSIGNMENTS     13 17 14 15 18 19 16 20
EXPONENTS  0.1533000D+05 0.2299000D+04 0.5224000D+03 0.1473000D+03 0.4755000D+02
EXPONENTS  0.1676000D+02 0.6207000D+01 0.5224000D+03 0.1473000D+03 0.4755000D+02
EXPONENTS  0.1676000D+02 0.6207000D+01 0.6882000D+00 0.1752000D+01 0.2384000D+00
EXPONENTS  0.7376000D-01 0.3446000D+02 0.7749000D+01 0.2280000D+01 0.3446000D+02
EXPONENTS  0.7749000D+01 0.2280000D+01 0.3446000D+02 0.7749000D+01 0.2280000D+01
EXPONENTS  0.7156000D+00 0.7156000D+00 0.7156000D+00 0.2140000D+00 0.2140000D+00
EXPONENTS  0.2140000D+00 0.5974000D-01 0.5974000D-01 0.5974000D-01 0.2314000D+01
EXPONENTS  0.2314000D+01 0.2314000D+01 0.2314000D+01 0.2314000D+01 0.2314000D+01
EXPONENTS  0.6450000D+00 0.6450000D+00 0.6450000D+00 0.6450000D+00 0.6450000D+00
EXPONENTS  0.6450000D+00 0.2140000D+00 0.2140000D+00 0.2140000D+00 0.2140000D+00
EXPONENTS  0.2140000D+00 0.2140000D+00 0.1428000D+01 0.1428000D+01 0.1428000D+01
EXPONENTS  0.1428000D+01 0.1428000D+01 0.1428000D+01 0.1428000D+01 0.1428000D+01
EXPONENTS  0.1428000D+01 0.1428000D+01 0.5000000D+00 0.5000000D+00 0.5000000D+00
EXPONENTS  0.5000000D+00 0.5000000D+00 0.5000000D+00 0.5000000D+00 0.5000000D+00
EXPONENTS  0.5000000D+00 0.5000000D+00 0.8236000D+04 0.1235000D+04 0.2808000D+03
EXPONENTS  0.7927000D+02 0.2559000D+02 0.8997000D+01 0.3319000D+01 0.2808000D+03
EXPONENTS  0.7927000D+02 0.2559000D+02 0.8997000D+01 0.3319000D+01 0.3643000D+00
EXPONENTS  0.9059000D+00 0.1285000D+00 0.4402000D-01 0.1871000D+02 0.4133000D+01
EXPONENTS  0.1200000D+01 0.1871000D+02 0.4133000D+01 0.1200000D+01 0.1871000D+02
EXPONENTS  0.4133000D+01 0.1200000D+01 0.3827000D+00 0.3827000D+00 0.3827000D+00
EXPONENTS  0.1209000D+00 0.1209000D+00 0.1209000D+00 0.3569000D-01 0.3569000D-01
EXPONENTS  0.3569000D-01 0.1097000D+01 0.1097000D+01 0.1097000D+01 0.1097000D+01
EXPONENTS  0.1097000D+01 0.1097000D+01 0.3180000D+00 0.3180000D+00 0.3180000D+00
EXPONENTS  0.3180000D+00 0.3180000D+00 0.3180000D+00 0.1000000D+00 0.1000000D+00
EXPONENTS  0.1000000D+00 0.1000000D+00 0.1000000D+00 0.1000000D+00 0.7610000D+00
EXPONENTS  0.7610000D+00 0.7610000D+00 0.7610000D+00 0.7610000D+00 0.7610000D+00
EXPONENTS  0.7610000D+00 0.7610000D+00 0.7610000D+00 0.7610000D+00 0.2680000D+00
EXPONENTS  0.2680000D+00 0.2680000D+00 0.2680000D+00 0.2680000D+00 0.2680000D+00
EXPONENTS  0.2680000D+00 0.2680000D+00 0.2680000D+00 0.2680000D+00 0.1950000D+05
EXPONENTS  0.2923000D+04 0.6645000D+03 0.1875000D+03 0.6062000D+02 0.2142000D+02
EXPONENTS  0.7950000D+01 0.6645000D+03 0.1875000D+03 0.6062000D+02 0.2142000D+02
EXPONENTS  0.7950000D+01 0.8815000D+00 0.2257000D+01 0.3041000D+00 0.9158000D-01
EXPONENTS  0.4388000D+02 0.9926000D+01 0.2930000D+01 0.4388000D+02 0.9926000D+01
EXPONENTS  0.2930000D+01 0.4388000D+02 0.9926000D+01 0.2930000D+01 0.9132000D+00
EXPONENTS  0.9132000D+00 0.9132000D+00 0.2672000D+00 0.2672000D+00 0.2672000D+00
EXPONENTS  0.7361000D-01 0.7361000D-01 0.7361000D-01 0.3107000D+01 0.3107000D+01
EXPONENTS  0.3107000D+01 0.3107000D+01 0.3107000D+01 0.3107000D+01 0.8550000D+00
EXPONENTS  0.8550000D+00 0.8550000D+00 0.8550000D+00 0.8550000D+00 0.8550000D+00
EXPONENTS  0.2920000D+00 0.2920000D+00 0.2920000D+00 0.2920000D+00 0.2920000D+00
EXPONENTS  0.2920000D+00 0.1917000D+01 0.1917000D+01 0.1917000D+01 0.1917000D+01
EXPONENTS  0.1917000D+01 0.1917000D+01 0.1917000D+01 0.1917000D+01 0.1917000D+01
EXPONENTS  0.1917000D+01 0.7240000D+00 0.7240000D+00 0.7240000D+00 0.7240000D+00
EXPONENTS  0.7240000D+00 0.7240000D+00 0.7240000D+00 0.7240000D+00 0.7240000D+00
EXPONENTS  0.7240000D+00 0.1950000D+05 0.2923000D+04 0.6645000D+03 0.1875000D+03
EXPONENTS  0.6062000D+02 0.2142000D+02 0.7950000D+01 0.6645000D+03 0.1875000D+03
EXPONENTS  0.6062000D+02 0.2142000D+02 0.7950000D+01 0.8815000D+00 0.2257000D+01
EXPONENTS  0.3041000D+00 0.9158000D-01 0.4388000D+02 0.9926000D+01 0.2930000D+01
EXPONENTS  0.4388000D+02 0.9926000D+01 0.2930000D+01 0.4388000D+02 0.9926000D+01
EXPONENTS  0.2930000D+01 0.9132000D+00 0.9132000D+00 0.9132000D+00 0.2672000D+00
EXPONENTS  0.2672000D+00 0.2672000D+00 0.7361000D-01 0.7361000D-01 0.7361000D-01
EXPONENTS  0.3107000D+01 0.3107000D+01 0.3107000D+01 0.3107000D+01 0.3107000D+01
EXPONENTS  0.3107000D+01 0.8550000D+00 0.8550000D+00 0.8550000D+00 0.8550000D+00
EXPONENTS  0.8550000D+00 0.8550000D+00 0.2920000D+00 0.2920000D+00 0.2920000D+00
EXPONENTS  0.2920000D+00 0.2920000D+00 0.2920000D+00 0.1917000D+01 0.1917000D+01
EXPONENTS  0.1917000D+01 0.1917000D+01 0.1917000D+01 0.1917000D+01 0.1917000D+01
EXPONENTS  0.1917000D+01 0.1917000D+01 0.1917000D+01 0.7240000D+00 0.7240000D+00
EXPONENTS  0.7240000D+00 0.7240000D+00 0.7240000D+00 0.7240000D+00 0.7240000D+00
EXPONENTS  0.7240000D+00 0.7240000D+00 0.7240000D+00
MO    1     MO 0.0        OCC NO =    2.0000067  ORB. ENERGY =    0.000000
 -0.32115901D+00 -0.59858760D+00 -0.10149894D+01 -0.15360785D+01 -0.19161369D+01
 -0.16443305D+01 -0.62969123D+00 -0.39956252D-04 -0.42870436D-03 -0.15802850D-02
 -0.46206606D-02 -0.55681207D-02  0.67073915D-02 -0.28943441D-01  0.48293399D-03
 -0.51367710D-04  0.28180246D-13  0.27325359D-13  0.18433526D-13 -0.29823750D-04
 -0.28919005D-04 -0.19508590D-04  0.19729571D-01  0.19131048D-01  0.12905692D-01
  0.81077864D-14  0.94232969D-06  0.25113462D-02  0.12196655D-13  0.23216427D-05
  0.66289790D-03  0.74619577D-15  0.14005901D-07  0.14696682D-04  0.12308069D-02
  0.64911805D-03 -0.18799249D-02  0.62080247D-14  0.16981925D-13 -0.91445359D-05
  0.49318167D-04 -0.23090384D-04 -0.26227783D-04 -0.13495741D-14 -0.12462297D-13
  0.89993797D-06  0.49703421D-04 -0.18374218D-05 -0.47865999D-04 -0.40178534D-16
 -0.55807891D-14 -0.38138325D-07  0.34670744D-14  0.29940903D-06 -0.55040061D-03
  0.58947215D-14 -0.99951514D-06  0.10365522D-02 -0.16295945D-13  0.10128804D-06
  0.61464964D-03 -0.66499209D-14 -0.21018342D-14  0.29080458D-06  0.13239767D-04
 -0.22652911D-14  0.10335597D-05 -0.20588585D-04  0.85707937D-14 -0.19059734D-05
 -0.19130717D-04  0.88510730D-15  0.23968017D+00  0.44681212D+00  0.75517335D+00
  0.11351664D+01  0.13943486D+01  0.11767810D+01  0.44250040D+00  0.26520564D-04
  0.19822479D-03  0.74081128D-03  0.20667481D-02  0.27688727D-02 -0.32695224D-02
  0.19401559D-01 -0.41840545D-04  0.15659883D-04  0.71908066D-15  0.67418382D-15
  0.48005905D-15 -0.74155299D-05 -0.69525307D-05 -0.49506160D-05 -0.40815879D-02
 -0.38267481D-02 -0.27248726D-02 -0.14559317D-13 -0.79902686D-05  0.48448527D-03
 -0.37904696D-14 -0.13028430D-05  0.84286227D-04 -0.15166641D-15  0.72995269D-09
  0.80746113D-06 -0.96662787D-03  0.42240854D-03  0.54421933D-03  0.37441395D-14
  0.26120072D-14  0.19422705D-04  0.21591828D-03 -0.13323883D-03 -0.82679450D-04
 -0.18954031D-14 -0.10232460D-13  0.70133182D-05 -0.76690701D-08 -0.29183100D-05
  0.29259790D-05 -0.30548233D-15 -0.81245868D-15 -0.31864870D-06  0.28496516D-14
 -0.22398909D-06  0.56519922D-03 -0.18376202D-14  0.42787432D-05 -0.33375653D-03
 -0.67113347D-14 -0.36067759D-05 -0.13618411D-02 -0.44028645D-15  0.40705823D-15
  0.19390782D-05 -0.88424961D-04  0.13171729D-15 -0.12640136D-06 -0.11996198D-04
 -0.13528920D-14 -0.56908332D-05  0.27727108D-03  0.13409505D-14 -0.96941204D-01
 -0.18069857D+00 -0.30632434D+00 -0.46381647D+00 -0.57987275D+00 -0.49879455D+00
 -0.19129844D+00 -0.11755535D-04 -0.15562127D-03 -0.56524478D-03 -0.16767880D-02
 -0.19321595D-02  0.23468955D-02 -0.84701884D-02  0.77937745D-03  0.26246827D-04
 -0.18872799D-12 -0.18457185D-12 -0.12195443D-12 -0.75533112D-02 -0.73869734D-02
 -0.48808857D-02 -0.60431656D-02 -0.59100840D-02 -0.39050424D-02 -0.40904127D-13
 -0.13193500D-02 -0.11687210D-02 -0.87961264D-14 -0.16697827D-03 -0.85147226D-04
 -0.22005148D-15 -0.40850445D-05 -0.20414993D-05  0.97853893D-04 -0.60031559D-04
 -0.37822334D-04 -0.25571200D-13 -0.88773737D-14  0.62744987D-03  0.15377425D-03
 -0.87777557D-04 -0.65996697D-04 -0.42451732D-15 -0.10331512D-14 -0.80194164D-03
  0.43848596D-04 -0.26302928D-04 -0.17545668D-04 -0.17246675D-14 -0.84030465D-15
 -0.78785144D-05  0.47332527D-14 -0.13226034D-04 -0.70290923D-05 -0.15624736D-13
  0.22833035D-03  0.92060908D-04  0.14249774D-14 -0.18865225D-03 -0.70973632D-04
 -0.27046109D-15 -0.54899146D-16  0.51492003D-04  0.10787993D-03 -0.14671143D-14
  0.16784542D-03  0.20305392D-03  0.16318118D-14 -0.32232143D-03 -0.52669371D-03
 -0.20341095D-14 -0.96623465D-01 -0.18010630D+00 -0.30532031D+00 -0.46229624D+00
 -0.57797213D+00 -0.49715967D+00 -0.19067143D+00 -0.11722721D-04 -0.15518688D-03
 -0.56366699D-03 -0.16721075D-02 -0.19267662D-02  0.23403445D-02 -0.84425004D-02
  0.79173669D-03  0.30641224D-04 -0.24618847D-13 -0.24076694D-13 -0.15908490D-13
  0.74164802D-02  0.72531557D-02  0.47924666D-02 -0.60125331D-02 -0.58801261D-02
 -0.38852479D-02 -0.66104171D-14  0.12760283D-02 -0.11514955D-02  0.10833756D-14
  0.14550189D-03 -0.85227558D-04  0.32911782D-15  0.35081344D-05 -0.15999700D-05
  0.78482131D-04 -0.64496807D-04 -0.13985324D-04  0.25622031D-13 -0.56221801D-14
 -0.66848966D-03  0.15091222D-03 -0.72954851D-04 -0.77957369D-04 -0.11864950D-14
 -0.17939795D-14  0.78598229D-03  0.41997952D-04 -0.21185263D-04 -0.20812688D-04
 -0.90071986D-15  0.13625649D-14  0.49984917D-05  0.51563300D-14  0.17514044D-04
 -0.20565859D-05 -0.11688905D-13 -0.23835207D-03  0.10084735D-03 -0.37800851D-14
  0.18580994D-03 -0.94677592D-04  0.64112194D-14 -0.83314304D-15 -0.58021947D-04
  0.10159098D-03  0.18576083D-14 -0.16604078D-03  0.20631206D-03  0.64182086D-15
  0.34010663D-03 -0.51108499D-03 -0.17606692D-14
MO    2     MO 0.0        OCC NO =    2.0000037  ORB. ENERGY =    0.000000
 -0.36926698D+00 -0.68825293D+00 -0.11670296D+01 -0.17661751D+01 -0.22031643D+01
 -0.18906427D+01 -0.72401572D+00 -0.43758502D-04 -0.46950001D-03 -0.17306654D-02
 -0.50603642D-02 -0.60979849D-02  0.73456691D-02 -0.33737654D-01  0.66960202D-03
  0.91777094D-04  0.39682416D-13  0.38478595D-13  0.25957433D-13 -0.75391416D-05
 -0.73104314D-05 -0.49315738D-05  0.87686290D-02  0.85026206D-02  0.57358176D-02
  0.83154419D-14 -0.99583386D-06 -0.18360165D-02 -0.30239400D-14 -0.34827756D-05
 -0.15370018D-03 -0.37493482D-15 -0.91344010D-07  0.18391824D-05  0.69436488D-03
  0.91134207D-04 -0.78549909D-03  0.35158032D-14 -0.26735722D-14 -0.28431560D-05
 -0.33733218D-03 -0.35818728D-03  0.69551946D-03  0.68309730D-15  0.19712611D-14
 -0.13266850D-05 -0.38812697D-04  0.13182355D-04  0.25630342D-04  0.58748633D-15
  0.21455788D-14  0.32016624D-06 -0.25661556D-14 -0.14063720D-06  0.24909415D-03
  0.50833913D-15  0.94344515D-06 -0.22158050D-03  0.71901277D-14 -0.52153355D-06
 -0.52570194D-03  0.56713391D-14  0.60300978D-15 -0.38744642D-06 -0.66382588D-04
  0.46580846D-15 -0.91106897D-06  0.10898558D-03 -0.22748378D-14  0.20734082D-05
  0.90162181D-04 -0.19086666D-14 -0.16755535D+00 -0.31235694D+00 -0.52792578D+00
 -0.79357091D+00 -0.97475973D+00 -0.82266282D+00 -0.30934270D+00 -0.14459249D-04
 -0.10807393D-03 -0.40389695D-03 -0.11268096D-02 -0.15096142D-02  0.17825729D-02
 -0.13998233D-01  0.10254282D-03 -0.70504239D-05  0.15723134D-13  0.14741438D-13
  0.10496782D-13  0.21279540D-05  0.19950922D-05  0.14206245D-05  0.25191696D-02
  0.23618817D-02  0.16818005D-02  0.11058903D-13 -0.21491954D-05 -0.20217666D-02
  0.24845665D-14  0.71124758D-06 -0.27886896D-04  0.12980189D-15  0.15017747D-07
 -0.84519849D-05  0.82673056D-03  0.14203686D-03 -0.96876742D-03  0.27164412D-16
 -0.81171067D-15 -0.72897780D-05 -0.13333906D-03  0.36580424D-03 -0.23246518D-03
  0.35997831D-16  0.28950953D-14  0.12574619D-05 -0.33440301D-05 -0.14270772D-04
  0.17614802D-04  0.40140983D-16  0.23938205D-15  0.61668020D-06 -0.91743013D-15
  0.16225425D-05 -0.25333772D-03  0.62854204D-15 -0.22247258D-05  0.52667007D-03
  0.21237484D-14 -0.26429018D-05  0.23334308D-03  0.11781948D-14 -0.30822804D-15
 -0.11137716D-05  0.34486438D-04  0.18388576D-15 -0.46601700D-07  0.73198888D-04
  0.74079836D-15  0.33879166D-05 -0.17665820D-03 -0.11452050D-14  0.18533393D+00
  0.34546276D+00  0.58563635D+00  0.88673263D+00  0.11086111D+01  0.95360434D+00
  0.36572779D+00  0.19110374D-04  0.25298557D-03  0.91888962D-03  0.27258687D-02
  0.31410131D-02 -0.38152283D-02  0.16881671D-01 -0.85685443D-03 -0.28254384D-04
  0.33957544D-13  0.33209737D-13  0.21943077D-13  0.88642560D-02  0.86690488D-02
  0.57280071D-02  0.52743087D-02  0.51581587D-02  0.34082136D-02  0.74595836D-14
  0.80832984D-03  0.26444093D-03  0.75903667D-15  0.86493388D-04 -0.19698644D-04
 -0.10973134D-15 -0.16301223D-05  0.21432387D-04 -0.35939823D-04  0.16290637D-03
 -0.12696655D-03  0.14508840D-13  0.24117083D-13 -0.32476717D-03  0.40055124D-07
 -0.51270749D-04  0.51230694D-04 -0.12711533D-14 -0.87668199D-15  0.66534235D-04
 -0.18331970D-04  0.17017763D-04  0.13142069D-05 -0.29226910D-16 -0.21450092D-15
 -0.33112625D-06  0.21352517D-14  0.10545990D-03 -0.11630778D-03 -0.72889994D-14
  0.11030062D-03  0.59040289D-03  0.88324428D-15 -0.42668034D-03 -0.24147954D-03
 -0.32893720D-14  0.41041748D-15 -0.53558032D-04 -0.76175070D-05 -0.20088179D-15
 -0.14077509D-03 -0.29553530D-03 -0.10303707D-14  0.30144919D-03  0.31838782D-03
 -0.17502356D-14  0.18571782D+00  0.34617833D+00  0.58684939D+00  0.88856934D+00
  0.11109074D+01  0.95557956D+00  0.36648533D+00  0.19117941D-04  0.25308575D-03
  0.91925347D-03  0.27269481D-02  0.31422569D-02 -0.38167390D-02  0.16913384D-01
 -0.85608724D-03 -0.29783396D-04  0.90088085D-13  0.88104180D-13  0.58214157D-13
 -0.87488035D-02 -0.85561388D-02 -0.56534027D-02  0.53097451D-02  0.51928148D-02
  0.34311123D-02  0.21833137D-13 -0.78973073D-03  0.26576031D-03  0.16072846D-14
 -0.78540472D-04 -0.21037097D-04 -0.18860183D-15  0.18287883D-05  0.21005805D-04
 -0.30636766D-04  0.15523118D-03 -0.12459441D-03  0.11275195D-13  0.11916661D-13
  0.33405005D-03  0.43998547D-05 -0.52937676D-04  0.48537822D-04 -0.24689140D-14
  0.31054017D-14 -0.51794566D-04 -0.16775564D-04  0.15713008D-04  0.10625559D-05
  0.81704754D-15 -0.48957067D-15  0.27897312D-05 -0.34702040D-14 -0.10572116D-03
 -0.11850513D-03  0.10492775D-13 -0.97189184D-04  0.57517506D-03 -0.82162632D-16
  0.41435267D-03 -0.21965966D-03  0.10866894D-13  0.44765227D-15  0.54514712D-04
 -0.67574424D-05 -0.68264981D-15  0.13687453D-03 -0.29063113D-03 -0.66030701D-15
 -0.30041866D-03  0.31090346D-03  0.11472273D-14
MO    3     MO 0.0        OCC NO =    2.0000022  ORB. ENERGY =    0.000000
  0.18330079D-02  0.34164253D-02  0.57930293D-02  0.87671338D-02  0.10936308D-01
  0.93849796D-02  0.35939486D-02  0.25375178D-06  0.27225901D-05  0.10035980D-04
  0.29344616D-04  0.35361690D-04 -0.42596902D-04  0.16868866D-03 -0.80901800D-05
 -0.38077870D-05  0.22697051D-13  0.22008504D-13  0.14846807D-13  0.86957179D-03
  0.84319213D-03  0.56881243D-03  0.33126771D-05  0.32121824D-05  0.21669193D-05
  0.71495783D-14  0.12041541D-03  0.28358134D-04  0.96543851D-14 -0.88505268D-04
  0.87249301D-06  0.24341319D-15 -0.14505335D-04  0.46177363D-06  0.57902056D-05
 -0.51625932D-06 -0.52739463D-05 -0.86186989D-14  0.17882507D-13 -0.18912744D-03
  0.15521347D-07  0.51388587D-05 -0.51543801D-05  0.20257103D-14 -0.12672560D-13
  0.62227650D-04 -0.55446256D-06  0.40849986D-06  0.14596270D-06 -0.13744359D-15
 -0.43948839D-14  0.25270189D-04  0.62933317D-15  0.10008097D-04 -0.45617393D-05
  0.24030376D-14 -0.16629508D-03  0.80829545D-05 -0.42910372D-14  0.13627079D-03
  0.56022633D-05  0.73170239D-14 -0.17098297D-14 -0.30665702D-05  0.10801577D-05
 -0.24705517D-14  0.69297284D-04  0.15783682D-05  0.76000408D-14 -0.60097574D-04
 -0.48188411D-05 -0.11070325D-14  0.22241560D-02  0.41462749D-02  0.70077694D-02
  0.10533984D-01  0.12939113D-01  0.10920155D-01  0.41062635D-02  0.22728783D-06
  0.16988357D-05  0.63489371D-05  0.17712546D-04  0.23729928D-04 -0.28020620D-04
  0.17911047D-03 -0.33990047D-05  0.23910089D-06  0.28824968D-13  0.27025240D-13
  0.19243581D-13  0.64726471D-04  0.60685181D-04  0.43211464D-04 -0.33571288D-04
 -0.31475217D-04 -0.22412229D-04 -0.46553994D-14  0.40578300D-03  0.18915826D-04
 -0.15487042D-14 -0.55692579D-04  0.56511299D-05  0.51673817D-16  0.63833745D-05
 -0.61949798D-07 -0.94827537D-05 -0.34865037D-05  0.12969257D-04 -0.62347718D-15
 -0.47854733D-14 -0.62805049D-03  0.13097388D-05 -0.50753857D-05  0.37656469D-05
  0.23858846D-14 -0.11380754D-13 -0.38882858D-03  0.13761498D-06 -0.34850116D-06
  0.21088618D-06  0.41244523D-16 -0.59380985D-15  0.28146068D-04  0.12171255D-14
  0.27271782D-04  0.66178282D-05  0.23370178D-14 -0.52057876D-03  0.32385267D-05
 -0.59883944D-14  0.43876342D-03 -0.23092011D-04 -0.69504543D-14  0.38582245D-16
 -0.43118043D-04  0.25251365D-06  0.73978398D-15 -0.30901049D-04 -0.45423794D-06
 -0.85553072D-15  0.16025518D-03 -0.30330302D-06 -0.36957614D-15 -0.41688402D+00
 -0.77707253D+00 -0.13173111D+01 -0.19945871D+01 -0.24936732D+01 -0.21450061D+01
 -0.82265600D+00 -0.38186201D-04 -0.50551380D-03 -0.18361181D-02 -0.54468098D-02
 -0.62763481D-02  0.76235597D-02 -0.38648933D-01  0.18204766D-03 -0.79519378D-04
  0.12453372D-12  0.12179126D-12  0.80472635D-13 -0.98159687D-02 -0.95998030D-02
 -0.63429958D-02 -0.73632390D-02 -0.72010869D-02 -0.47580626D-02  0.29194236D-13
  0.17611735D-03 -0.16000092D-03  0.39196513D-14 -0.22908546D-03 -0.38730133D-03
 -0.16015950D-15 -0.21061112D-04 -0.35405980D-05  0.15920394D-03 -0.16943658D-03
  0.10232636D-04  0.15677930D-13 -0.56455774D-14 -0.27223450D-03 -0.15513399D-03
  0.24928143D-03 -0.94147432D-04  0.29971162D-14  0.25472158D-14  0.50627992D-03
  0.57087941D-04 -0.13821393D-04 -0.43266548D-04  0.24593344D-16  0.48147171D-15
 -0.13022992D-03  0.56575516D-15  0.27528235D-03 -0.16134660D-04 -0.74363821D-15
 -0.87999440D-03 -0.16913124D-03 -0.95362726D-15  0.54147359D-04  0.21753522D-03
 -0.66129446D-14 -0.61804636D-15 -0.50515924D-04 -0.16009458D-04  0.98437112D-15
  0.20760251D-03  0.27264180D-04  0.86976798D-15 -0.56054739D-04  0.20764193D-04
  0.53796892D-14  0.42792857D+00  0.79765959D+00  0.13522107D+01  0.20474299D+01
  0.25597383D+01  0.22018340D+01  0.84445072D+00  0.39192497D-04  0.51883528D-03
  0.18845041D-02  0.55903460D-02  0.64417446D-02 -0.78244583D-02  0.39664951D-01
 -0.16584034D-03  0.85157912D-04  0.86934495D-13  0.85020038D-13  0.56176334D-13
 -0.98685160D-02 -0.96511931D-02 -0.63769513D-02  0.75036018D-02  0.73383587D-02
  0.48487639D-02  0.21380348D-13  0.19180080D-03  0.14019425D-03 -0.67938805D-16
 -0.23843851D-03  0.39489773D-03 -0.95103091D-16 -0.21306668D-04  0.45449474D-05
 -0.15199335D-03  0.16538228D-03 -0.13388933D-04 -0.77190604D-14 -0.19367718D-14
 -0.26597952D-03  0.16006744D-03 -0.24867836D-03  0.88610920D-04 -0.93817426D-15
 -0.24868582D-14  0.53512513D-03 -0.58448707D-04  0.14007778D-04  0.44440929D-04
  0.21220238D-14 -0.10440649D-14 -0.13201812D-03 -0.35455876D-14  0.27163427D-03
  0.12519311D-04  0.13416383D-13 -0.88502995D-03  0.19200369D-03 -0.27796196D-14
  0.70127148D-04 -0.22956162D-03 -0.19012554D-13  0.76986600D-15 -0.51780337D-04
  0.19707888D-04 -0.21030747D-14  0.20524940D-03 -0.29635007D-04 -0.20652325D-15
 -0.49908387D-04 -0.29488658D-04  0.50447970D-14
MO    4     MO 0.0        OCC NO =    2.0000015  ORB. ENERGY =    0.000000
  0.10189261D+00  0.18991107D+00  0.32202091D+00  0.48734440D+00  0.60792373D+00
  0.52168900D+00  0.19977917D+00  0.13147696D-04  0.14106615D-03  0.51999640D-03
  0.15204390D-02  0.18322029D-02 -0.22070826D-02  0.94040189D-02 -0.42252214D-03
 -0.17774517D-03 -0.19271002D-13 -0.18686390D-13 -0.12605728D-13 -0.21189816D-04
 -0.20546994D-04 -0.13860881D-04  0.52230696D-03  0.50646206D-03  0.34165631D-03
  0.27464550D-14 -0.11616285D-04  0.15658456D-02  0.14080135D-13 -0.77575761D-06
  0.12163973D-03  0.44104053D-15  0.18057884D-06  0.19291081D-04  0.14969814D-03
 -0.94043663D-05 -0.14029378D-03  0.41699840D-14  0.21670680D-13  0.82738105D-05
  0.62649127D-04  0.28831222D-03 -0.35096134D-03 -0.90397103D-15 -0.19116221D-13
  0.51305549D-05 -0.11791360D-04  0.21757293D-04 -0.99659324D-05 -0.15098249D-15
 -0.72009749D-14 -0.92234342D-07  0.30223997D-14  0.30853052D-05 -0.31270641D-03
  0.68628020D-14  0.61497212D-05  0.61772838D-03 -0.15930001D-13 -0.15405637D-04
  0.32039085D-03 -0.12454065D-13 -0.31896407D-14  0.12764502D-06  0.78092179D-04
 -0.36820252D-14 -0.16543870D-05 -0.16071216D-04  0.13250947D-13  0.12714519D-05
 -0.21820532D-03  0.12518111D-14  0.14760313D+00  0.27516197D+00  0.46506121D+00
  0.69907374D+00  0.85868688D+00  0.72470144D+00  0.27250667D+00  0.11442074D-04
  0.85522416D-04  0.31961680D-03  0.89168110D-03  0.11946068D-02 -0.14106079D-02
  0.11826434D-01  0.27596987D-04  0.24535997D-04  0.75299422D-14  0.70597994D-14
  0.50269978D-14 -0.93618972D-05 -0.87773737D-05 -0.62500130D-05 -0.23638460D-02
 -0.22162558D-02 -0.15781062D-02 -0.19222408D-13 -0.27351059D-04  0.62320621D-03
 -0.35265599D-14 -0.54992041D-06  0.20426254D-03 -0.21624863D-18 -0.10908210D-06
 -0.12645114D-05 -0.10912457D-02  0.35859093D-03  0.73265479D-03  0.42778759D-14
 -0.27380284D-14  0.41493322D-04 -0.33635433D-04 -0.95785645D-04  0.12942108D-03
 -0.12043020D-14 -0.17578773D-13  0.19386175D-04  0.38170291D-05 -0.12824126D-04
  0.90070973D-05 -0.16868318D-15 -0.76998258D-15 -0.17967061D-06  0.35637550D-14
 -0.62970836D-05  0.48781012D-03  0.11859520D-14  0.14811687D-04  0.19893056D-03
 -0.11877217D-13  0.40795641D-05 -0.16623609D-02 -0.12270907D-14  0.19514078D-15
  0.70009350D-06  0.42897806D-04  0.78396296D-15  0.47896134D-06 -0.24724013D-04
 -0.13693853D-14 -0.25792419D-05 -0.10396941D-03  0.13406824D-14  0.37332349D+00
  0.69587564D+00  0.11796642D+01  0.17861712D+01  0.22331074D+01  0.19208728D+01
  0.73669606D+00  0.32058807D-04  0.42439858D-03  0.15414929D-02  0.45728095D-02
  0.52692393D-02 -0.64002760D-02  0.34950416D-01  0.24508735D-03  0.78380040D-04
 -0.10782402D-12 -0.10544954D-12 -0.69674966D-13  0.64644755D-02  0.63221159D-02
  0.41772892D-02  0.40037225D-02  0.39155531D-02  0.25871715D-02 -0.22017316D-13
 -0.57756261D-03 -0.65258505D-03 -0.70711360D-14  0.29937115D-03  0.15751910D-03
 -0.24613127D-15  0.47946276D-05  0.13219119D-04 -0.23841607D-03  0.18643682D-03
  0.51979250D-04  0.25106101D-14 -0.17995848D-13  0.80626173D-03  0.25866955D-03
 -0.19700375D-03 -0.61665796D-04 -0.48043836D-15 -0.11109946D-14 -0.10212396D-02
 -0.43918526D-04  0.33913583D-04  0.10004943D-04 -0.25246762D-14 -0.87198942D-15
  0.58746857D-04 -0.17499472D-14  0.15953028D-04 -0.77720300D-04  0.88594921D-14
  0.28347965D-03  0.45488897D-03 -0.36096504D-14 -0.33133873D-03 -0.22172807D-03
  0.10881299D-13  0.14735751D-15  0.31802366D-04  0.10509500D-03 -0.13272994D-14
  0.10798366D-03  0.44661329D-04  0.88522684D-15 -0.20339076D-03 -0.35994634D-03
 -0.16027849D-14  0.36051589D+00  0.67200223D+00  0.11391935D+01  0.17248930D+01
  0.21564962D+01  0.18549734D+01  0.71142223D+00  0.30955469D-04  0.40979245D-03
  0.14884407D-02  0.44154314D-02  0.50878929D-02 -0.61800038D-02  0.33743362D-01
  0.27122854D-03  0.81419819D-04  0.11147740D-12  0.10902246D-12  0.72035747D-13
 -0.61136881D-02 -0.59790535D-02 -0.39506134D-02  0.38015641D-02  0.37178467D-02
  0.24565385D-02  0.24383949D-13  0.54224731D-03 -0.64284122D-03  0.40856214D-14
 -0.30771048D-03  0.15557509D-03  0.53438005D-17 -0.47194332D-05  0.13405354D-04
 -0.23048410D-03  0.17294139D-03  0.57542710D-04  0.72966067D-14 -0.89446817D-14
 -0.78099303D-03  0.24857030D-03 -0.17760196D-03 -0.70968339D-04 -0.40595544D-14
  0.29441940D-14  0.98331961D-03 -0.43932677D-04  0.35830811D-04  0.81018656D-05
  0.23857682D-15  0.40445108D-15 -0.60513009D-04  0.22474892D-14 -0.23876466D-04
 -0.76599800D-04  0.62536626D-14 -0.25976240D-03  0.45418247D-03 -0.12996130D-13
  0.33139180D-03 -0.22438307D-03 -0.23042995D-14 -0.10019566D-14 -0.32257629D-04
  0.10129142D-03  0.24854587D-14 -0.11186718D-03  0.44711392D-04  0.52041107D-15
  0.20864007D-03 -0.34858564D-03 -0.63376910D-14
MO    5     MO 0.0        OCC NO =    1.9861927  ORB. ENERGY =    0.000000
 -0.10013027D-01 -0.18662636D-01 -0.31645122D-01 -0.47891528D-01 -0.59740906D-01
 -0.51266585D-01 -0.19632379D-01 -0.16241683D-03 -0.17426260D-02 -0.64236474D-02
 -0.18782368D-01 -0.22633667D-01  0.27264651D-01  0.14281820D-01 -0.21029897D-04
 -0.19416712D-02  0.92221606D-13  0.89423937D-13  0.60324859D-13 -0.22732929D-02
 -0.22043294D-02 -0.14870276D-02 -0.69612521D-01 -0.67500729D-01 -0.45535593D-01
  0.20268917D-13 -0.57575380D-03 -0.12978341D-01  0.25372444D-14 -0.10910247D-03
  0.20184401D-02  0.87552694D-16  0.18934188D-05  0.23156594D-03 -0.40425593D-02
 -0.42585620D-02  0.83011212D-02  0.43073786D-14 -0.19663136D-13  0.25724179D-03
 -0.45322902D-03  0.61773106D-03 -0.16450204D-03 -0.45816172D-15 -0.13716760D-16
  0.11749984D-03  0.11020379D-03  0.52174851D-03 -0.63195230D-03  0.62041576D-15
 -0.82839893D-15  0.13485058D-04  0.95782622D-15  0.54197389D-04 -0.16363747D-02
 -0.11519732D-14  0.53344336D-04  0.35226821D-02 -0.17215055D-14 -0.21593650D-03
  0.13864420D-02  0.13759025D-13 -0.34657818D-15  0.46684591D-05  0.51211132D-03
  0.31200185D-15 -0.29862787D-05 -0.22908783D-03  0.72773271D-15 -0.11019099D-04
 -0.13072461D-02 -0.27549943D-14 -0.17351337D-01 -0.32346388D-01 -0.54669802D-01
 -0.82178909D-01 -0.10094207D+00 -0.85191547D-01 -0.32034246D-01 -0.31820724D-03
 -0.23784020D-02 -0.88886312D-02 -0.24797897D-01 -0.33222345D-01  0.39229395D-01
  0.15725745D-01  0.23309972D-02  0.23202195D-03  0.50810982D-13  0.47638525D-13
  0.33921468D-13 -0.29690651D-02 -0.27836872D-02 -0.19821511D-02 -0.34652064D-01
 -0.32488512D-01 -0.23133756D-01  0.12240394D-13 -0.46853407D-03 -0.49618808D-02
 -0.95454789D-16  0.80704222D-04  0.15194132D-02 -0.46361564D-16 -0.87775703D-06
 -0.36572868D-05 -0.19370493D-01  0.95477056D-02  0.98227875D-02 -0.16405777D-14
  0.25944056D-14  0.95416286D-03 -0.26301465D-02  0.11945684D-02  0.14355782D-02
 -0.54322116D-14  0.38427500D-15  0.16101959D-03  0.83380750D-04 -0.95130307D-04
  0.11749558D-04 -0.54047871D-16  0.21922964D-15 -0.12881605D-04 -0.17755048D-14
 -0.47201720D-04  0.34784398D-02  0.18183919D-14  0.13480128D-03  0.34321966D-02
  0.35081224D-14  0.68038792D-05 -0.13867516D-01  0.61841921D-14  0.70930751D-16
  0.61529949D-05  0.27485198D-03 -0.10072694D-14 -0.27473175D-05  0.31325491D-03
  0.79447716D-15 -0.15711667D-04 -0.11378109D-02 -0.22729144D-16 -0.91303018D-01
 -0.17018898D+00 -0.28850824D+00 -0.43684050D+00 -0.54614684D+00 -0.46978422D+00
 -0.18017236D+00 -0.13292648D-02 -0.17596978D-01 -0.63915424D-01 -0.18960390D+00
 -0.21848020D+00  0.26537675D+00  0.15260620D+00  0.69097559D-01  0.17853402D-02
  0.22992956D-12  0.22486609D-12  0.14857853D-12 -0.44718192D-01 -0.43733415D-01
 -0.28896517D-01 -0.13079556D+00 -0.12791520D+00 -0.84518980D-01  0.51835478D-13
 -0.50120511D-02 -0.27110613D-01  0.66697125D-14 -0.36218131D-02 -0.63057125D-02
  0.24027084D-15 -0.48665572D-04 -0.42253626D-04 -0.61746029D-02  0.75538440D-02
 -0.13792411D-02  0.14374151D-13  0.10673318D-13  0.14308496D-01 -0.31123613D-02
  0.42611547D-02 -0.11487934D-02  0.22476697D-14  0.21318200D-14  0.78098881D-02
  0.22215569D-03 -0.23871245D-03  0.16556764D-04 -0.81099711D-15 -0.16162277D-15
 -0.93502831D-03 -0.48066973D-14  0.17078935D-02 -0.22458833D-02  0.14968033D-13
 -0.65983421D-02 -0.24950392D-02 -0.54794075D-15  0.14746618D-02  0.92326891D-02
  0.14499700D-13  0.92373856D-15  0.30542757D-03 -0.21473756D-03 -0.30308178D-14
 -0.93992100D-03 -0.10776574D-02  0.25960211D-15  0.23638303D-04  0.17218701D-02