 Entering Gaussian System, Link 0=/home/bruns/programas/chemistry/gaussian/g09/g09
 Input=GAUSSIAN.com
 Output=GAUSSIAN.log
 Initial command:
 /home/bruns/programas/chemistry/gaussian/g09/l1.exe /home/bruns/programas/chemistry/gaussian/work/Gau-21509.inp -scrdir=/home/bruns/programas/chemistry/gaussian/work/
 Entering Link 1 = /home/bruns/programas/chemistry/gaussian/g09/l1.exe PID=     21511.
  
 Copyright (c) 1988,1990,1992,1993,1995,1998,2003,2009,2010,
            Gaussian, Inc.  All Rights Reserved.
  
 This is part of the Gaussian(R) 09 program.  It is based on
 the Gaussian(R) 03 system (copyright 2003, Gaussian, Inc.),
 the Gaussian(R) 98 system (copyright 1998, Gaussian, Inc.),
 the Gaussian(R) 94 system (copyright 1995, Gaussian, Inc.),
 the Gaussian 92(TM) system (copyright 1992, Gaussian, Inc.),
 the Gaussian 90(TM) system (copyright 1990, Gaussian, Inc.),
 the Gaussian 88(TM) system (copyright 1988, Gaussian, Inc.),
 the Gaussian 86(TM) system (copyright 1986, Carnegie Mellon
 University), and the Gaussian 82(TM) system (copyright 1983,
 Carnegie Mellon University). Gaussian is a federally registered
 trademark of Gaussian, Inc.
  
 This software contains proprietary and confidential information,
 including trade secrets, belonging to Gaussian, Inc.
  
 This software is provided under written license and may be
 used, copied, transmitted, or stored only in accord with that
 written license.
  
 The following legend is applicable only to US Government
 contracts under FAR:
  
                    RESTRICTED RIGHTS LEGEND
  
 Use, reproduction and disclosure by the US Government is
 subject to restrictions as set forth in subparagraphs (a)
 and (c) of the Commercial Computer Software - Restricted
 Rights clause in FAR 52.227-19.
  
 Gaussian, Inc.
 340 Quinnipiac St., Bldg. 40, Wallingford CT 06492
  
  
 ---------------------------------------------------------------
 Warning -- This program may not be used in any manner that
 competes with the business of Gaussian, Inc. or will provide
 assistance to any competitor of Gaussian, Inc.  The licensee
 of this program is prohibited from giving any competitor of
 Gaussian, Inc. access to this program.  By using this program,
 the user acknowledges that Gaussian, Inc. is engaged in the
 business of creating and licensing software in the field of
 computational chemistry and represents and warrants to the
 licensee that it is not a competitor of Gaussian, Inc. and that
 it will not use this program in any manner prohibited above.
 ---------------------------------------------------------------
  

 Cite this work as:
 Gaussian 09, Revision B.01,
 M. J. Frisch, G. W. Trucks, H. B. Schlegel, G. E. Scuseria, 
 M. A. Robb, J. R. Cheeseman, G. Scalmani, V. Barone, B. Mennucci, 
 G. A. Petersson, H. Nakatsuji, M. Caricato, X. Li, H. P. Hratchian, 
 A. F. Izmaylov, J. Bloino, G. Zheng, J. L. Sonnenberg, M. Hada, 
 M. Ehara, K. Toyota, R. Fukuda, J. Hasegawa, M. Ishida, T. Nakajima, 
 Y. Honda, O. Kitao, H. Nakai, T. Vreven, J. A. Montgomery, Jr., 
 J. E. Peralta, F. Ogliaro, M. Bearpark, J. J. Heyd, E. Brothers, 
 K. N. Kudin, V. N. Staroverov, T. Keith, R. Kobayashi, J. Normand, 
 K. Raghavachari, A. Rendell, J. C. Burant, S. S. Iyengar, J. Tomasi, 
 M. Cossi, N. Rega, J. M. Millam, M. Klene, J. E. Knox, J. B. Cross, 
 V. Bakken, C. Adamo, J. Jaramillo, R. Gomperts, R. E. Stratmann, 
 O. Yazyev, A. J. Austin, R. Cammi, C. Pomelli, J. W. Ochterski, 
 R. L. Martin, K. Morokuma, V. G. Zakrzewski, G. A. Voth, 
 P. Salvador, J. J. Dannenberg, S. Dapprich, A. D. Daniels, 
 O. Farkas, J. B. Foresman, J. V. Ortiz, J. Cioslowski, 
 and D. J. Fox, Gaussian, Inc., Wallingford CT, 2010.
 
 ******************************************
 Gaussian 09:  EM64L-G09RevB.01 12-Aug-2010
                26-Nov-2021 
 ******************************************
 %nproc=8
 Will use up to    8 processors via shared memory.
 %mem=8GB
 -----------------------------------------------------
 # qcisd/aug-cc-pvtz nosymm density=current output=wfn
 -----------------------------------------------------
 1/30=1,38=1/1;
 2/12=2,15=1,17=6,18=5,40=1/2;
 3/5=16,6=1,7=10,11=9,16=1,25=1,30=1,71=1/1,2,3;
 4//1;
 5/5=2,38=5/2;
 8/6=4,9=120000,10=1/1,4;
 9/5=8,15=1/13;
 11/28=-7,31=1,32=3,42=3/11;
 10/5=6,13=10,31=1/2;
 6/7=2,8=2,9=2,10=2,22=-1,31=1/1;
 99/5=1,6=1100,9=1/99;
 -----------------
 f2co-wavefunction
 -----------------
 Symbolic Z-matrix:
 Charge =  0 Multiplicity = 1
 O                     0.        0.        0.67993 
 C                     0.        0.       -0.50222 
 F                     0.       -1.05888  -1.26431 
 F                     0.        1.05888  -1.26431 
 
                          Input orientation:                          
 ---------------------------------------------------------------------
 Center     Atomic      Atomic             Coordinates (Angstroms)
 Number     Number       Type             X           Y           Z
 ---------------------------------------------------------------------
      1          8           0        0.000000    0.000000    0.679927
      2          6           0        0.000000    0.000000   -0.502216
      3          9           0        0.000000   -1.058878   -1.264305
      4          9           0        0.000000    1.058878   -1.264305
 ---------------------------------------------------------------------
                    Distance matrix (angstroms):
                    1          2          3          4
     1  O    0.000000
     2  C    1.182143   0.000000
     3  F    2.213879   1.304608   0.000000
     4  F    2.213879   1.304608   2.117756   0.000000
 Symmetry turned off by external request.
 Stoichiometry    CF2O
 Framework group  C2V[C2(CO),SGV(F2)]
 Deg. of freedom     3
 Full point group                 C2V     NOp   4
 Rotational constants (GHZ):     11.8625553     11.7831623      5.9113627
 Standard basis: Aug-CC-pVTZ (5D, 7F)
 Integral buffers will be    131072 words long.
 Raffenetti 1 integral format.
 Two-electron integral symmetry is turned off.
   184 basis functions,   288 primitive gaussians,   220 cartesian basis functions
    16 alpha electrons       16 beta electrons
       nuclear repulsion energy       119.9538584656 Hartrees.
 NAtoms=    4 NActive=    4 NUniq=    4 SFac= 1.00D+00 NAtFMM=   50 NAOKFM=F Big=F
 One-electron integrals computed using PRISM.
 NBasis=   184 RedAO= T  NBF=   184
 NBsUse=   184 1.00D-06 NBFU=   184
 Harris functional with IExCor=  205 diagonalized for initial guess.
 ExpMin= 3.57D-02 ExpMax= 1.95D+04 ExpMxC= 6.65D+02 IAcc=3 IRadAn=         0 AccDes= 0.00D+00
 HarFok:  IExCor=  205 AccDes= 0.00D+00 IRadAn=         0 IDoV= 1
 ScaDFX=  1.000000  1.000000  1.000000  1.000000
 FoFCou: FMM=F IPFlag=           0 FMFlag=      100000 FMFlg1=           0
         NFxFlg=           0 DoJE=T BraDBF=F KetDBF=T FulRan=T
         Omega=  0.000000  0.000000  1.000000  0.000000  0.000000 ICntrl=     500 IOpCl=  0
         NMat0=    1 NMatS0=    1 NMatT0=    0 NMatD0=    1 NMtDS0=    0 NMtDT0=    0
         I1Cent=           4 NGrid=           0.
 Symmetry not used in FoFCou.
 Requested convergence on RMS density matrix=1.00D-08 within 128 cycles.
 Requested convergence on MAX density matrix=1.00D-06.
 Requested convergence on             energy=1.00D-06.
 No special actions if energy rises.
 Keep R1 ints in memory in canonical form, NReq=301063473.
 SCF Done:  E(RHF) =  -311.740780826     A.U. after   11 cycles
             Convg  =    0.8572D-08             -V/T =  2.0015
 ExpMin= 3.57D-02 ExpMax= 1.95D+04 ExpMxC= 6.65D+02 IAcc=3 IRadAn=         5 AccDes= 0.00D+00
 HarFok:  IExCor=  205 AccDes= 0.00D+00 IRadAn=         5 IDoV=-2
 ScaDFX=  1.000000  1.000000  1.000000  1.000000
 DSYEVD returned Info=          93 IAlg= 4 N=    46 NDim=    46 NE2=    23339802 trying DSYEV.
 Range of M.O.s used for correlation:     5   184
 NBasis=   184 NAE=    16 NBE=    16 NFC=     4 NFV=     0
 NROrb=    180 NOA=    12 NOB=    12 NVA=   168 NVB=   168

 **** Warning!!: The largest alpha MO coefficient is  0.15617653D+02

 Semi-Direct transformation.
 ModeAB=           2 MOrb=            12 LenV=    1072785601
 LASXX=     33405819 LTotXX=    33405819 LenRXX=    33405819
 LTotAB=    33954012 MaxLAS=    52509600 LenRXY=    52509600
 NonZer=    66811638 LenScr=   100987392 LnRSAI=           0
 LnScr1=           0 LExtra=           0 Total=    186902811
 MaxDsk=          -1 SrtSym=           F ITran=            4
 JobTyp=0 Pass  1:  I=   1 to  12.
 (rs|ai) integrals will be sorted in core.
 Spin components of T(2) and E(2):
     alpha-alpha T2 =       0.2662486769D-01 E2=     -0.1191674564D+00
     alpha-beta  T2 =       0.1373720131D+00 E2=     -0.6578896105D+00
     beta-beta   T2 =       0.2662486769D-01 E2=     -0.1191674564D+00
 ANorm=    0.1091156152D+01
 E2 =    -0.8962245233D+00 EUMP2 =    -0.31263700534952D+03
 R2 and R3 integrals will be kept in memory, NReq=   596397230.
 Iterations=  50 Convergence= 0.100D-07
 Iteration Nr.   1
 **********************
 DD1Dir will call FoFMem   1 times, MxPair=       156
 NAB=    78 NAA=     0 NBB=     0.
 MP4(R+Q)=  0.16094355D-01
 E3=        0.12651697D-01        EUMP3=      -0.31262435365D+03
 E4(DQ)=    0.43824760D-03        UMP4(DQ)=   -0.31262391540D+03
 E4(SDQ)=  -0.11225112D-01        UMP4(SDQ)=  -0.31263557876D+03
 DE(Corr)= -0.86747847     E(Corr)=     -312.60825930    
 NORM(A)=   0.10859818D+01
 Iteration Nr.   2
 **********************
 DD1Dir will call FoFMem   1 times, MxPair=       156
 NAB=    78 NAA=     0 NBB=     0.
 DE(Corr)= -0.89346980     E(CORR)=     -312.63425063     Delta=-2.60D-02
 NORM(A)=   0.10933276D+01
 Iteration Nr.   3
 **********************
 DD1Dir will call FoFMem   1 times, MxPair=       156
 NAB=    78 NAA=     0 NBB=     0.
 DE(Corr)= -0.89168168     E(CORR)=     -312.63246250     Delta= 1.79D-03
 NORM(A)=   0.10955904D+01
 Iteration Nr.   4
 **********************
 DD1Dir will call FoFMem   1 times, MxPair=       156
 NAB=    78 NAA=     0 NBB=     0.
 DE(Corr)= -0.89400467     E(CORR)=     -312.63478550     Delta=-2.32D-03
 NORM(A)=   0.10964140D+01
 Iteration Nr.   5
 **********************
 DD1Dir will call FoFMem   1 times, MxPair=       156
 NAB=    78 NAA=     0 NBB=     0.
 DE(Corr)= -0.89427441     E(CORR)=     -312.63505523     Delta=-2.70D-04
 NORM(A)=   0.10966005D+01
 Iteration Nr.   6
 **********************
 DD1Dir will call FoFMem   1 times, MxPair=       156
 NAB=    78 NAA=     0 NBB=     0.
 DE(Corr)= -0.89430105     E(CORR)=     -312.63508187     Delta=-2.66D-05
 NORM(A)=   0.10966139D+01
 Iteration Nr.   7
 **********************
 DD1Dir will call FoFMem   1 times, MxPair=       156
 NAB=    78 NAA=     0 NBB=     0.
 DE(Corr)= -0.89430263     E(CORR)=     -312.63508345     Delta=-1.58D-06
 NORM(A)=   0.10966138D+01
 Iteration Nr.   8
 **********************
 DD1Dir will call FoFMem   1 times, MxPair=       156
 NAB=    78 NAA=     0 NBB=     0.
 DE(Corr)= -0.89430158     E(CORR)=     -312.63508241     Delta= 1.05D-06
 NORM(A)=   0.10966144D+01
 Iteration Nr.   9
 **********************
 DD1Dir will call FoFMem   1 times, MxPair=       156
 NAB=    78 NAA=     0 NBB=     0.
 DE(Corr)= -0.89430200     E(CORR)=     -312.63508283     Delta=-4.21D-07
 NORM(A)=   0.10966145D+01
 Iteration Nr.  10
 **********************
 DD1Dir will call FoFMem   1 times, MxPair=       156
 NAB=    78 NAA=     0 NBB=     0.
 DE(Corr)= -0.89430191     E(CORR)=     -312.63508273     Delta= 9.33D-08
 NORM(A)=   0.10966147D+01
 Iteration Nr.  11
 **********************
 DD1Dir will call FoFMem   1 times, MxPair=       156
 NAB=    78 NAA=     0 NBB=     0.
 DE(Corr)= -0.89430232     E(CORR)=     -312.63508315     Delta=-4.16D-07
 NORM(A)=   0.10966149D+01
 Iteration Nr.  12
 **********************
 DD1Dir will call FoFMem   1 times, MxPair=       156
 NAB=    78 NAA=     0 NBB=     0.
 DE(Corr)= -0.89430233     E(CORR)=     -312.63508316     Delta=-1.03D-08
 NORM(A)=   0.10966150D+01
 Iteration Nr.  13
 **********************
 DD1Dir will call FoFMem   1 times, MxPair=       156
 NAB=    78 NAA=     0 NBB=     0.
 DE(Corr)= -0.89430241     E(CORR)=     -312.63508324     Delta=-8.00D-08
 NORM(A)=   0.10966151D+01
 Iteration Nr.  14
 **********************
 DD1Dir will call FoFMem   1 times, MxPair=       156
 NAB=    78 NAA=     0 NBB=     0.
 DE(Corr)= -0.89430242     E(CORR)=     -312.63508325     Delta=-9.49D-09
 NORM(A)=   0.10966151D+01
 Iteration Nr.  15
 **********************
 DD1Dir will call FoFMem   1 times, MxPair=       156
 NAB=    78 NAA=     0 NBB=     0.
 DE(Corr)= -0.89430243     E(CORR)=     -312.63508325     Delta=-4.57D-09
 NORM(A)=   0.10966151D+01
 Iteration Nr.  16
 **********************
 DD1Dir will call FoFMem   1 times, MxPair=       156
 NAB=    78 NAA=     0 NBB=     0.
 DE(Corr)= -0.89430243     E(CORR)=     -312.63508326     Delta=-3.91D-09
 NORM(A)=   0.10966151D+01
 Largest amplitude= 6.05D-02

 Z-AMPLITUDE ITERATIONS

 Iteration Nr.   1
 **********************
 DD1Dir will call FoFMem   1 times, MxPair=       156
 NAB=    78 NAA=     0 NBB=     0.
 DE(Z)  -0.87493863D+00          E(Z)=    -0.31261571945D+03
 NORM(A)=   0.10966129D+01
 Iteration Nr.   2
 **********************
 DD1Dir will call FoFMem   1 times, MxPair=       156
 NAB=    78 NAA=     0 NBB=     0.
 DE(Z)  -0.87493862D+00          E(Z)=    -0.31261571945D+03
 NORM(A)=   0.10966157D+01
 Iteration Nr.   3
 **********************
 DD1Dir will call FoFMem   1 times, MxPair=       156
 NAB=    78 NAA=     0 NBB=     0.
 DE(Z)  -0.87493863D+00          E(Z)=    -0.31261571946D+03
 NORM(A)=   0.10966189D+01
 Iteration Nr.   4
 **********************
 DD1Dir will call FoFMem   1 times, MxPair=       156
 NAB=    78 NAA=     0 NBB=     0.
 DE(Z)  -0.87493866D+00          E(Z)=    -0.31261571948D+03
 NORM(A)=   0.10966145D+01
 Iteration Nr.   5
 **********************
 DD1Dir will call FoFMem   1 times, MxPair=       156
 NAB=    78 NAA=     0 NBB=     0.
 DE(Z)  -0.87493862D+00          E(Z)=    -0.31261571945D+03
 NORM(A)=   0.10921542D+01
 Iteration Nr.   6
 **********************
 DD1Dir will call FoFMem   1 times, MxPair=       156
 NAB=    78 NAA=     0 NBB=     0.
 DE(Z)  -0.87489032D+00          E(Z)=    -0.31261567115D+03
 NORM(A)=   0.10921219D+01
 Iteration Nr.   7
 **********************
 DD1Dir will call FoFMem   1 times, MxPair=       156
 NAB=    78 NAA=     0 NBB=     0.
 DE(Z)  -0.87488307D+00          E(Z)=    -0.31261566390D+03
 NORM(A)=   0.10921390D+01
 Iteration Nr.   8
 **********************
 DD1Dir will call FoFMem   1 times, MxPair=       156
 NAB=    78 NAA=     0 NBB=     0.
 DE(Z)  -0.87488919D+00          E(Z)=    -0.31261567002D+03
 NORM(A)=   0.10921394D+01
 Iteration Nr.   9
 **********************
 DD1Dir will call FoFMem   1 times, MxPair=       156
 NAB=    78 NAA=     0 NBB=     0.
 DE(Z)  -0.87488831D+00          E(Z)=    -0.31261566914D+03
 NORM(A)=   0.10921395D+01
 Iteration Nr.  10
 **********************
 DD1Dir will call FoFMem   1 times, MxPair=       156
 NAB=    78 NAA=     0 NBB=     0.
 DE(Z)  -0.87488876D+00          E(Z)=    -0.31261566958D+03
 NORM(A)=   0.10921396D+01
 Iteration Nr.  11
 **********************
 DD1Dir will call FoFMem   1 times, MxPair=       156
 NAB=    78 NAA=     0 NBB=     0.
 DE(Z)  -0.87488862D+00          E(Z)=    -0.31261566945D+03
 NORM(A)=   0.10921396D+01
 Iteration Nr.  12
 **********************
 DD1Dir will call FoFMem   1 times, MxPair=       156
 NAB=    78 NAA=     0 NBB=     0.
 DE(Z)  -0.87488868D+00          E(Z)=    -0.31261566950D+03
 NORM(A)=   0.10921396D+01
 Iteration Nr.  13
 **********************
 DD1Dir will call FoFMem   1 times, MxPair=       156
 NAB=    78 NAA=     0 NBB=     0.
 DE(Z)  -0.87488868D+00          E(Z)=    -0.31261566951D+03
 NORM(A)=   0.10921396D+01
 Iteration Nr.  14
 **********************
 DD1Dir will call FoFMem   1 times, MxPair=       156
 NAB=    78 NAA=     0 NBB=     0.
 DE(Z)  -0.87488868D+00          E(Z)=    -0.31261566951D+03
 NORM(A)=   0.10921396D+01
 Discarding MO integrals.
          Differentiating once with respect to electric field.
                with respect to dipole field.
          Electric field/nuclear overlap derivatives assumed to be zero.
          Keep R1 ints in memory in canonical form, NReq=297441306.
          There are     1 degrees of freedom in the 1st order CPHF.  IDoFFX=0.
 LinEq1:  Iter=  0 NonCon=     1 RMS=3.08D-03 Max=8.52D-02
 AX will form     1 AO Fock derivatives at one time.
 LinEq1:  Iter=  1 NonCon=     1 RMS=7.56D-04 Max=1.10D-02
 LinEq1:  Iter=  2 NonCon=     1 RMS=2.26D-04 Max=3.41D-03
 LinEq1:  Iter=  3 NonCon=     1 RMS=9.93D-05 Max=1.51D-03
 LinEq1:  Iter=  4 NonCon=     1 RMS=2.34D-05 Max=3.49D-04
 LinEq1:  Iter=  5 NonCon=     1 RMS=1.08D-05 Max=2.45D-04
 LinEq1:  Iter=  6 NonCon=     1 RMS=2.20D-06 Max=2.81D-05
 LinEq1:  Iter=  7 NonCon=     1 RMS=3.89D-07 Max=8.30D-06
 LinEq1:  Iter=  8 NonCon=     1 RMS=8.16D-08 Max=1.33D-06
 LinEq1:  Iter=  9 NonCon=     1 RMS=1.23D-08 Max=1.78D-07
 LinEq1:  Iter= 10 NonCon=     1 RMS=1.94D-09 Max=2.24D-08
 LinEq1:  Iter= 11 NonCon=     1 RMS=4.07D-10 Max=6.17D-09
 LinEq1:  Iter= 12 NonCon=     0 RMS=5.53D-11 Max=4.52D-10
 Linear equations converged to 1.000D-10 1.000D-09 after    12 iterations.
 End of Minotr Frequency-dependent properties file   721 does not exist.
 End of Minotr Frequency-dependent properties file   722 does not exist.

 **********************************************************************

            Population analysis using the QCI/CC density.

 **********************************************************************

     Natural Orbital Coefficients:
                           1         2         3         4         5
     Eigenvalues --     2.00001   2.00000   2.00000   2.00000   1.98620
   1 1   O  1S         -0.64150  -0.71436   0.00000   0.19361  -0.01882
   2        2S          0.01191   0.01260   0.00000  -0.00372   0.04529
   3        3S         -0.02714  -0.03068   0.00000   0.00841   0.01266
   4        4S          0.00209   0.00292   0.00000  -0.00180  -0.00087
   5        5S         -0.00047   0.00100   0.00000  -0.00178  -0.01955
   6        6PX         0.00000   0.00000   0.00000   0.00000   0.00000
   7        6PY         0.00000   0.00000  -0.00017   0.00000   0.00000
   8        6PZ         0.00400   0.00175   0.00000   0.00011  -0.01388
   9        7PX         0.00000   0.00000   0.00000   0.00000   0.00000
  10        7PY         0.00000   0.00000  -0.00013   0.00000   0.00000
  11        7PZ         0.00256  -0.00203   0.00000   0.00168  -0.01351
  12        8PX         0.00000   0.00000   0.00000   0.00000   0.00000
  13        8PY         0.00000   0.00000   0.00041   0.00000   0.00000
  14        8PZ         0.00316  -0.00084   0.00000   0.00063   0.00919
  15        9PX         0.00000   0.00000   0.00000   0.00000   0.00000
  16        9PY         0.00000   0.00000   0.00034   0.00000   0.00000
  17        9PZ         0.00035   0.00003   0.00000   0.00046   0.00551
  18       10D 0       -0.00026  -0.00009   0.00000  -0.00003   0.00111
  19       10D+1        0.00000   0.00000   0.00000   0.00000   0.00000
  20       10D-1        0.00000   0.00000   0.00002   0.00000   0.00000
  21       10D+2        0.00005   0.00005   0.00000   0.00001   0.00002
  22       10D-2        0.00000   0.00000   0.00000   0.00000   0.00000
  23       11D 0       -0.00003   0.00095   0.00000  -0.00048  -0.00028
  24       11D+1        0.00000   0.00000   0.00000   0.00000   0.00000
  25       11D-1        0.00000   0.00000  -0.00004   0.00000   0.00000
  26       11D+2        0.00006   0.00002   0.00000  -0.00017  -0.00077
  27       11D-2        0.00000   0.00000   0.00000   0.00000   0.00000
  28       12D 0       -0.00043   0.00024   0.00000  -0.00009  -0.00546
  29       12D+1        0.00000   0.00000   0.00000   0.00000   0.00000
  30       12D-1        0.00000   0.00000  -0.00013   0.00000   0.00000
  31       12D+2        0.00027  -0.00027   0.00000  -0.00017  -0.00215
  32       12D-2        0.00000   0.00000   0.00000   0.00000   0.00000
  33       13F 0       -0.00015   0.00006   0.00000  -0.00008  -0.00048
  34       13F+1        0.00000   0.00000   0.00000   0.00000   0.00000
  35       13F-1        0.00000   0.00000  -0.00002   0.00000   0.00000
  36       13F+2        0.00003   0.00002   0.00000   0.00002   0.00016
  37       13F-2        0.00000   0.00000   0.00000   0.00000   0.00000
  38       13F+3        0.00000   0.00000   0.00000   0.00000   0.00000
  39       13F-3        0.00000   0.00000   0.00002   0.00000   0.00000
  40       14F 0        0.00004  -0.00021   0.00000   0.00025   0.00166
  41       14F+1        0.00000   0.00000   0.00000   0.00000   0.00000
  42       14F-1        0.00000   0.00000   0.00008   0.00000   0.00000
  43       14F+2       -0.00001   0.00001   0.00000   0.00017   0.00089
  44       14F-2        0.00000   0.00000   0.00000   0.00000   0.00000
  45       14F+3        0.00000   0.00000   0.00000   0.00000   0.00000
  46       14F-3        0.00000   0.00000  -0.00007   0.00000   0.00000
  47 2   C  1S          0.70753  -0.51465   0.00000   0.44366  -0.05184
  48        2S         -0.00897   0.00508   0.00000  -0.00390   0.10883
  49        3S          0.02890  -0.02161   0.00000   0.01790   0.02358
  50        4S         -0.00036   0.00051   0.00000   0.00028   0.01533
  51        5S          0.00022  -0.00014   0.00000   0.00037   0.00349
  52        6PX         0.00000   0.00000   0.00000   0.00000   0.00000
  53        6PY         0.00000   0.00000  -0.00003   0.00000   0.00000
  54        6PZ        -0.00182   0.00119   0.00000  -0.00109  -0.01663
  55        7PX         0.00000   0.00000   0.00000   0.00000   0.00000
  56        7PY         0.00000   0.00000  -0.00098   0.00000   0.00000
  57        7PZ         0.00102  -0.00482   0.00000   0.00146  -0.01221
  58        8PX         0.00000   0.00000   0.00000   0.00000   0.00000
  59        8PY         0.00000   0.00000   0.00056   0.00000   0.00000
  60        8PZ         0.00083  -0.00035   0.00000   0.00202   0.01574
  61        9PX         0.00000   0.00000   0.00000   0.00000   0.00000
  62        9PY         0.00000   0.00000  -0.00029   0.00000   0.00000
  63        9PZ         0.00003  -0.00039   0.00000  -0.00005  -0.00018
  64       10D 0        0.00025  -0.00051   0.00000   0.00038   0.00488
  65       10D+1        0.00000   0.00000   0.00000   0.00000   0.00000
  66       10D-1        0.00000   0.00000   0.00019   0.00000   0.00000
  67       10D+2       -0.00042   0.00022   0.00000  -0.00044  -0.00872
  68       10D-2        0.00000   0.00000   0.00000   0.00000   0.00000
  69       11D 0       -0.00042  -0.00111   0.00000   0.00059   0.00632
  70       11D+1        0.00000   0.00000   0.00000   0.00000   0.00000
  71       11D-1        0.00000   0.00000   0.00104   0.00000   0.00000
  72       11D+2        0.00089  -0.00132   0.00000   0.00014  -0.01021
  73       11D-2        0.00000   0.00000   0.00000   0.00000   0.00000
  74       12D 0        0.00010   0.00059   0.00000   0.00032   0.00071
  75       12D+1        0.00000   0.00000   0.00000   0.00000   0.00000
  76       12D-1        0.00000   0.00000  -0.00055   0.00000   0.00000
  77       12D+2        0.00006   0.00022   0.00000   0.00032   0.00364
  78       12D-2        0.00000   0.00000   0.00000   0.00000   0.00000
  79       13F 0        0.00068  -0.00036   0.00000   0.00063   0.00436
  80       13F+1        0.00000   0.00000   0.00000   0.00000   0.00000
  81       13F-1        0.00000   0.00000  -0.00022   0.00000   0.00000
  82       13F+2        0.00033   0.00008   0.00000   0.00061   0.00561
  83       13F-2        0.00000   0.00000   0.00000   0.00000   0.00000
  84       13F+3        0.00000   0.00000   0.00000   0.00000   0.00000
  85       13F-3        0.00000   0.00000   0.00022   0.00000   0.00000
  86       14F 0       -0.00117   0.00046   0.00000   0.00056   0.00382
  87       14F+1        0.00000   0.00000   0.00000   0.00000   0.00000
  88       14F-1        0.00000   0.00000  -0.00085   0.00000   0.00000
  89       14F+2       -0.00099   0.00085   0.00000   0.00027   0.00494
  90       14F-2        0.00000   0.00000   0.00000   0.00000   0.00000
  91       14F+3        0.00000   0.00000   0.00000   0.00000   0.00000
  92       14F-3        0.00000   0.00000  -0.00005   0.00000   0.00000
  93 3   F  1S         -0.15685   0.30404   0.69211   0.60159  -0.14617
  94        2S          0.00334  -0.00550  -0.01110  -0.00905   0.37279
  95        3S         -0.00637   0.01287   0.02984   0.02620   0.11365
  96        4S          0.00265  -0.00297  -0.00062   0.00086   0.23091
  97        5S          0.00023  -0.00024   0.00069   0.00065   0.01433
  98        6PX         0.00000   0.00000   0.00000   0.00000   0.00000
  99        6PY        -0.00111   0.00133   0.00147   0.00094  -0.00592
 100        6PZ        -0.00089   0.00080   0.00110   0.00057  -0.01923
 101        7PX         0.00000   0.00000   0.00000   0.00000   0.00000
 102        7PY        -0.00102   0.00066  -0.00014  -0.00046  -0.00318
 103        7PZ        -0.00091   0.00024   0.00012  -0.00052  -0.02119
 104        8PX         0.00000   0.00000   0.00000   0.00000   0.00000
 105        8PY        -0.00059   0.00032   0.00084   0.00110  -0.01245
 106        8PZ        -0.00035  -0.00007   0.00142   0.00055  -0.02318
 107        9PX         0.00000   0.00000   0.00000   0.00000   0.00000
 108        9PY        -0.00007  -0.00003   0.00039   0.00008  -0.00095
 109        9PZ        -0.00003   0.00039   0.00007   0.00024  -0.00070
 110       10D 0        0.00000  -0.00001   0.00000   0.00000  -0.00012
 111       10D+1        0.00000   0.00000   0.00000   0.00000   0.00000
 112       10D-1        0.00003  -0.00002   0.00001   0.00004   0.00068
 113       10D+2        0.00001  -0.00001  -0.00002  -0.00002  -0.00066
 114       10D-2        0.00000   0.00000   0.00000   0.00000   0.00000
 115       11D 0       -0.00005   0.00004   0.00007  -0.00005  -0.00095
 116       11D+1        0.00000   0.00000   0.00000   0.00000   0.00000
 117       11D-1       -0.00037   0.00004  -0.00024  -0.00047   0.00350
 118       11D+2        0.00011   0.00002   0.00019   0.00021  -0.00336
 119       11D-2        0.00000   0.00000   0.00000   0.00000   0.00000
 120       12D 0       -0.00011   0.00001   0.00023   0.00004  -0.00003
 121       12D+1        0.00000   0.00000   0.00000   0.00000   0.00000
 122       12D-1       -0.00003  -0.00001   0.00039   0.00018  -0.00293
 123       12D+2        0.00021  -0.00011  -0.00021  -0.00024   0.00131
 124       12D-2        0.00000   0.00000   0.00000   0.00000   0.00000
 125       13F 0        0.00000  -0.00002   0.00000  -0.00001  -0.00035
 126       13F+1        0.00000   0.00000   0.00000   0.00000   0.00000
 127       13F-1       -0.00001  -0.00003   0.00000  -0.00002   0.00009
 128       13F+2        0.00001   0.00003   0.00002   0.00003  -0.00047
 129       13F-2        0.00000   0.00000   0.00000   0.00000   0.00000
 130       13F+3        0.00000   0.00000   0.00000   0.00000   0.00000
 131       13F-3        0.00001   0.00000   0.00006   0.00001  -0.00041
 132       14F 0        0.00015  -0.00002   0.00002   0.00015  -0.00029
 133       14F+1        0.00000   0.00000   0.00000   0.00000   0.00000
 134       14F-1       -0.00018   0.00018   0.00003  -0.00012  -0.00003
 135       14F+2        0.00026  -0.00023   0.00000   0.00015  -0.00098
 136       14F-2        0.00000   0.00000   0.00000   0.00000   0.00000
 137       14F+3        0.00000   0.00000   0.00000   0.00000   0.00000
 138       14F-3        0.00005  -0.00004  -0.00011   0.00003  -0.00055
 139 4   F  1S         -0.15685   0.30404  -0.69211   0.60159  -0.14617
 140        2S          0.00334  -0.00550   0.01110  -0.00905   0.37279
 141        3S         -0.00637   0.01287  -0.02984   0.02620   0.11365
 142        4S          0.00265  -0.00297   0.00062   0.00086   0.23091
 143        5S          0.00023  -0.00024  -0.00069   0.00065   0.01433
 144        6PX         0.00000   0.00000   0.00000   0.00000   0.00000
 145        6PY         0.00111  -0.00133   0.00147  -0.00094   0.00592
 146        6PZ        -0.00089   0.00080  -0.00110   0.00057  -0.01923
 147        7PX         0.00000   0.00000   0.00000   0.00000   0.00000
 148        7PY         0.00102  -0.00066  -0.00014   0.00046   0.00318
 149        7PZ        -0.00091   0.00024  -0.00012  -0.00052  -0.02119
 150        8PX         0.00000   0.00000   0.00000   0.00000   0.00000
 151        8PY         0.00059  -0.00032   0.00084  -0.00110   0.01245
 152        8PZ        -0.00035  -0.00007  -0.00142   0.00055  -0.02318
 153        9PX         0.00000   0.00000   0.00000   0.00000   0.00000
 154        9PY         0.00007   0.00003   0.00039  -0.00008   0.00095
 155        9PZ        -0.00003   0.00039  -0.00007   0.00024  -0.00070
 156       10D 0        0.00000  -0.00001   0.00000   0.00000  -0.00012
 157       10D+1        0.00000   0.00000   0.00000   0.00000   0.00000
 158       10D-1       -0.00003   0.00002   0.00001  -0.00004  -0.00068
 159       10D+2        0.00001  -0.00001   0.00002  -0.00002  -0.00066
 160       10D-2        0.00000   0.00000   0.00000   0.00000   0.00000
 161       11D 0       -0.00005   0.00004  -0.00007  -0.00005  -0.00095
 162       11D+1        0.00000   0.00000   0.00000   0.00000   0.00000
 163       11D-1        0.00037  -0.00004  -0.00024   0.00047  -0.00350
 164       11D+2        0.00011   0.00002  -0.00019   0.00021  -0.00336
 165       11D-2        0.00000   0.00000   0.00000   0.00000   0.00000
 166       12D 0       -0.00011   0.00001  -0.00023   0.00004  -0.00003
 167       12D+1        0.00000   0.00000   0.00000   0.00000   0.00000
 168       12D-1        0.00003   0.00001   0.00039  -0.00018   0.00293
 169       12D+2        0.00021  -0.00011   0.00021  -0.00024   0.00131
 170       12D-2        0.00000   0.00000   0.00000   0.00000   0.00000
 171       13F 0        0.00000  -0.00002   0.00000  -0.00001  -0.00035
 172       13F+1        0.00000   0.00000   0.00000   0.00000   0.00000
 173       13F-1        0.00001   0.00003   0.00000   0.00002  -0.00009
 174       13F+2        0.00001   0.00003  -0.00002   0.00003  -0.00047
 175       13F-2        0.00000   0.00000   0.00000   0.00000   0.00000
 176       13F+3        0.00000   0.00000   0.00000   0.00000   0.00000
 177       13F-3       -0.00001   0.00000   0.00006  -0.00001   0.00041
 178       14F 0        0.00015  -0.00002  -0.00002   0.00015  -0.00029
 179       14F+1        0.00000   0.00000   0.00000   0.00000   0.00000
 180       14F-1        0.00018  -0.00018   0.00003   0.00012   0.00003
 181       14F+2        0.00026  -0.00023   0.00000   0.00015  -0.00098
 182       14F-2        0.00000   0.00000   0.00000   0.00000   0.00000
 183       14F+3        0.00000   0.00000   0.00000   0.00000   0.00000
 184       14F-3       -0.00005   0.00004  -0.00011  -0.00003   0.00055
                           6         7         8         9        10
     Eigenvalues --     1.98563   1.98130   1.97347   1.97139   1.96831
   1 1   O  1S          0.00000  -0.19104  -0.03867   0.00000   0.00000
   2        2S          0.00000   0.49214   0.10672   0.00000   0.00000
   3        3S          0.00000   0.13828   0.03163   0.00000   0.00000
   4        4S          0.00000   0.30827   0.09009   0.00000   0.00000
   5        5S          0.00000   0.03391  -0.00764   0.00000   0.00000
   6        6PX         0.00000   0.00000   0.00000   0.00000  -0.00773
   7        6PY         0.02069   0.00000   0.00000  -0.05061   0.00000
   8        6PZ         0.00000   0.00256   0.02459   0.00000   0.00000
   9        7PX         0.00000   0.00000   0.00000   0.00000  -0.01016
  10        7PY         0.02590   0.00000   0.00000  -0.06878   0.00000
  11        7PZ         0.00000  -0.00296   0.02496   0.00000   0.00000
  12        8PX         0.00000   0.00000   0.00000   0.00000  -0.01828
  13        8PY         0.01673   0.00000   0.00000  -0.06928   0.00000
  14        8PZ         0.00000   0.04715   0.00392   0.00000   0.00000
  15        9PX         0.00000   0.00000   0.00000   0.00000  -0.00940
  16        9PY        -0.00189   0.00000   0.00000   0.00629   0.00000
  17        9PZ         0.00000   0.00290   0.00468   0.00000   0.00000
  18       10D 0        0.00000   0.00454  -0.00106   0.00000   0.00000
  19       10D+1        0.00000   0.00000   0.00000   0.00000  -0.00188
  20       10D-1       -0.00073   0.00000   0.00000   0.00310   0.00000
  21       10D+2        0.00000  -0.00003   0.00048   0.00000   0.00000
  22       10D-2        0.00000   0.00000   0.00000   0.00000   0.00000
  23       11D 0        0.00000   0.01164  -0.00032   0.00000   0.00000
  24       11D+1        0.00000   0.00000   0.00000   0.00000  -0.00233
  25       11D-1       -0.00190   0.00000   0.00000   0.01364   0.00000
  26       11D+2        0.00000   0.00009   0.00080   0.00000   0.00000
  27       11D-2        0.00000   0.00000   0.00000   0.00000   0.00000
  28       12D 0        0.00000  -0.01222   0.00769   0.00000   0.00000
  29       12D+1        0.00000   0.00000   0.00000   0.00000   0.00037
  30       12D-1       -0.00052   0.00000   0.00000   0.01412   0.00000
  31       12D+2        0.00000   0.00028   0.00066   0.00000   0.00000
  32       12D-2        0.00000   0.00000   0.00000   0.00000   0.00000
  33       13F 0        0.00000  -0.00272   0.00065   0.00000   0.00000
  34       13F+1        0.00000   0.00000   0.00000   0.00000   0.00126
  35       13F-1        0.00075   0.00000   0.00000  -0.00261   0.00000
  36       13F+2        0.00000   0.00023  -0.00018   0.00000   0.00000
  37       13F-2        0.00000   0.00000   0.00000   0.00000   0.00000
  38       13F+3        0.00000   0.00000   0.00000   0.00000  -0.00023
  39       13F-3        0.00000   0.00000   0.00000  -0.00005   0.00000
  40       14F 0        0.00000  -0.00065  -0.00039   0.00000   0.00000
  41       14F+1        0.00000   0.00000   0.00000   0.00000  -0.00181
  42       14F-1        0.00006   0.00000   0.00000  -0.00233   0.00000
  43       14F+2        0.00000  -0.00055   0.00096   0.00000   0.00000
  44       14F-2        0.00000   0.00000   0.00000   0.00000   0.00000
  45       14F+3        0.00000   0.00000   0.00000   0.00000   0.00121
  46       14F-3        0.00035   0.00000   0.00000  -0.00062   0.00000
  47 2   C  1S          0.00000  -0.06696  -0.01156   0.00000   0.00000
  48        2S          0.00000   0.15521   0.02716   0.00000   0.00000
  49        3S          0.00000   0.03757   0.00723   0.00000   0.00000
  50        4S          0.00000   0.02795  -0.01716   0.00000   0.00000
  51        5S          0.00000  -0.00218   0.00005   0.00000   0.00000
  52        6PX         0.00000   0.00000   0.00000   0.00000   0.10548
  53        6PY         0.03815   0.00000   0.00000  -0.07786   0.00000
  54        6PZ         0.00000   0.07822  -0.05299   0.00000   0.00000
  55        7PX         0.00000   0.00000   0.00000   0.00000   0.13252
  56        7PY         0.03152   0.00000   0.00000  -0.09935   0.00000
  57        7PZ         0.00000   0.05547  -0.08293   0.00000   0.00000
  58        8PX         0.00000   0.00000   0.00000   0.00000   0.01734
  59        8PY        -0.02087   0.00000   0.00000   0.07502   0.00000
  60        8PZ         0.00000  -0.02893   0.02720   0.00000   0.00000
  61        9PX         0.00000   0.00000   0.00000   0.00000   0.00222
  62        9PY         0.00182   0.00000   0.00000  -0.00476   0.00000
  63        9PZ         0.00000  -0.00021   0.00209   0.00000   0.00000
  64       10D 0        0.00000   0.01187   0.02037   0.00000   0.00000
  65       10D+1        0.00000   0.00000   0.00000   0.00000  -0.01479
  66       10D-1       -0.00904   0.00000   0.00000  -0.01025   0.00000
  67       10D+2        0.00000  -0.00265   0.01043   0.00000   0.00000
  68       10D-2        0.00000   0.00000   0.00000   0.00000   0.00000
  69       11D 0        0.00000   0.00226   0.03754   0.00000   0.00000
  70       11D+1        0.00000   0.00000   0.00000   0.00000  -0.02486
  71       11D-1       -0.01045   0.00000   0.00000   0.00571   0.00000
  72       11D+2        0.00000  -0.00787   0.02141   0.00000   0.00000
  73       11D-2        0.00000   0.00000   0.00000   0.00000   0.00000
  74       12D 0        0.00000  -0.01137  -0.00377   0.00000   0.00000
  75       12D+1        0.00000   0.00000   0.00000   0.00000   0.00014
  76       12D-1        0.01040   0.00000   0.00000  -0.01201   0.00000
  77       12D+2        0.00000  -0.00284   0.00085   0.00000   0.00000
  78       12D-2        0.00000   0.00000   0.00000   0.00000   0.00000
  79       13F 0        0.00000   0.00607  -0.00571   0.00000   0.00000
  80       13F+1        0.00000   0.00000   0.00000   0.00000   0.00438
  81       13F-1        0.00191   0.00000   0.00000   0.01103   0.00000
  82       13F+2        0.00000   0.00257   0.00031   0.00000   0.00000
  83       13F-2        0.00000   0.00000   0.00000   0.00000   0.00000
  84       13F+3        0.00000   0.00000   0.00000   0.00000  -0.00786
  85       13F-3       -0.00210   0.00000   0.00000   0.00540   0.00000
  86       14F 0        0.00000  -0.00188  -0.00684   0.00000   0.00000
  87       14F+1        0.00000   0.00000   0.00000   0.00000  -0.00092
  88       14F-1        0.00525   0.00000   0.00000   0.01809   0.00000
  89       14F+2        0.00000   0.00057  -0.00637   0.00000   0.00000
  90       14F-2        0.00000   0.00000   0.00000   0.00000   0.00000
  91       14F+3        0.00000   0.00000   0.00000   0.00000  -0.00164
  92       14F-3        0.00083   0.00000   0.00000  -0.00055   0.00000
  93 3   F  1S          0.14945   0.01881   0.01624   0.01683   0.00000
  94        2S         -0.38185  -0.04816  -0.04370  -0.04547   0.00000
  95        3S         -0.11691  -0.01516  -0.01472  -0.01558   0.00000
  96        4S         -0.25139  -0.05301  -0.03491  -0.05039   0.00000
  97        5S         -0.03260  -0.02206   0.00958   0.04969   0.00000
  98        6PX         0.00000   0.00000   0.00000   0.00000   0.25059
  99        6PY         0.03805  -0.00253   0.16557  -0.12803   0.00000
 100        6PZ         0.00877   0.04738  -0.19557   0.23486   0.00000
 101        7PX         0.00000   0.00000   0.00000   0.00000   0.30606
 102        7PY         0.04162  -0.00554   0.20069  -0.15571   0.00000
 103        7PZ         0.00710   0.05574  -0.23720   0.28382   0.00000
 104        8PX         0.00000   0.00000   0.00000   0.00000   0.20856
 105        8PY         0.03524  -0.01310   0.12492  -0.13111   0.00000
 106        8PZ         0.00434   0.02904  -0.16558   0.18581   0.00000
 107        9PX         0.00000   0.00000   0.00000   0.00000   0.01539
 108        9PY        -0.00163  -0.00326   0.01318   0.00123   0.00000
 109        9PZ        -0.00046  -0.00332  -0.01395   0.02604   0.00000
 110       10D 0       -0.00016   0.00060  -0.00266   0.00239   0.00000
 111       10D+1        0.00000   0.00000   0.00000   0.00000   0.00189
 112       10D-1       -0.00043   0.00081  -0.00066   0.00172   0.00000
 113       10D+2        0.00010  -0.00003  -0.00225   0.00057   0.00000
 114       10D-2        0.00000   0.00000   0.00000   0.00000   0.00311
 115       11D 0       -0.00098   0.00180  -0.01003   0.00862   0.00000
 116       11D+1        0.00000   0.00000   0.00000   0.00000   0.00805
 117       11D-1       -0.00408   0.00031  -0.00261   0.00635   0.00000
 118       11D+2        0.00198   0.00122  -0.00761   0.00188   0.00000
 119       11D-2        0.00000   0.00000   0.00000   0.00000   0.01262
 120       12D 0       -0.00179   0.00012  -0.00482   0.00689   0.00000
 121       12D+1        0.00000   0.00000   0.00000   0.00000   0.00366
 122       12D-1       -0.00019  -0.00218  -0.00418  -0.00226   0.00000
 123       12D+2       -0.00148   0.00174   0.00084   0.00978   0.00000
 124       12D-2        0.00000   0.00000   0.00000   0.00000   0.00783
 125       13F 0        0.00012   0.00005  -0.00065   0.00040   0.00000
 126       13F+1        0.00000   0.00000   0.00000   0.00000   0.00029
 127       13F-1       -0.00029   0.00049  -0.00177   0.00186   0.00000
 128       13F+2        0.00032  -0.00014  -0.00039  -0.00031   0.00000
 129       13F-2        0.00000   0.00000   0.00000   0.00000   0.00168
 130       13F+3        0.00000   0.00000   0.00000   0.00000  -0.00160
 131       13F-3        0.00002   0.00009  -0.00109   0.00023   0.00000
 132       14F 0        0.00043   0.00073  -0.00182   0.00019   0.00000
 133       14F+1        0.00000   0.00000   0.00000   0.00000   0.00007
 134       14F-1       -0.00097   0.00013  -0.00278   0.00299   0.00000
 135       14F+2        0.00103   0.00054  -0.00042  -0.00087   0.00000
 136       14F-2        0.00000   0.00000   0.00000   0.00000   0.00298
 137       14F+3        0.00000   0.00000   0.00000   0.00000  -0.00202
 138       14F-3        0.00067   0.00029  -0.00074   0.00086   0.00000
 139 4   F  1S         -0.14945   0.01881   0.01624  -0.01683   0.00000
 140        2S          0.38185  -0.04816  -0.04370   0.04547   0.00000
 141        3S          0.11691  -0.01516  -0.01472   0.01558   0.00000
 142        4S          0.25139  -0.05301  -0.03491   0.05039   0.00000
 143        5S          0.03260  -0.02206   0.00958  -0.04969   0.00000
 144        6PX         0.00000   0.00000   0.00000   0.00000   0.25059
 145        6PY         0.03805   0.00253  -0.16557  -0.12803   0.00000
 146        6PZ        -0.00877   0.04738  -0.19557  -0.23486   0.00000
 147        7PX         0.00000   0.00000   0.00000   0.00000   0.30606
 148        7PY         0.04162   0.00554  -0.20069  -0.15571   0.00000
 149        7PZ        -0.00710   0.05574  -0.23720  -0.28382   0.00000
 150        8PX         0.00000   0.00000   0.00000   0.00000   0.20856
 151        8PY         0.03524   0.01310  -0.12492  -0.13111   0.00000
 152        8PZ        -0.00434   0.02904  -0.16558  -0.18581   0.00000
 153        9PX         0.00000   0.00000   0.00000   0.00000   0.01539
 154        9PY        -0.00163   0.00326  -0.01318   0.00123   0.00000
 155        9PZ         0.00046  -0.00332  -0.01395  -0.02604   0.00000
 156       10D 0        0.00016   0.00060  -0.00266  -0.00239   0.00000
 157       10D+1        0.00000   0.00000   0.00000   0.00000   0.00189
 158       10D-1       -0.00043  -0.00081   0.00066   0.00172   0.00000
 159       10D+2       -0.00010  -0.00003  -0.00225  -0.00057   0.00000
 160       10D-2        0.00000   0.00000   0.00000   0.00000  -0.00311
 161       11D 0        0.00098   0.00180  -0.01003  -0.00862   0.00000
 162       11D+1        0.00000   0.00000   0.00000   0.00000   0.00805
 163       11D-1       -0.00408  -0.00031   0.00261   0.00635   0.00000
 164       11D+2       -0.00198   0.00122  -0.00761  -0.00188   0.00000
 165       11D-2        0.00000   0.00000   0.00000   0.00000  -0.01262
 166       12D 0        0.00179   0.00012  -0.00482  -0.00689   0.00000
 167       12D+1        0.00000   0.00000   0.00000   0.00000   0.00366
 168       12D-1       -0.00019   0.00218   0.00418  -0.00226   0.00000
 169       12D+2        0.00148   0.00174   0.00084  -0.00978   0.00000
 170       12D-2        0.00000   0.00000   0.00000   0.00000  -0.00783
 171       13F 0       -0.00012   0.00005  -0.00065  -0.00040   0.00000
 172       13F+1        0.00000   0.00000   0.00000   0.00000   0.00029
 173       13F-1       -0.00029  -0.00049   0.00177   0.00186   0.00000
 174       13F+2       -0.00032  -0.00014  -0.00039   0.00031   0.00000
 175       13F-2        0.00000   0.00000   0.00000   0.00000  -0.00168
 176       13F+3        0.00000   0.00000   0.00000   0.00000  -0.00160
 177       13F-3        0.00002  -0.00009   0.00109   0.00023   0.00000
 178       14F 0       -0.00043   0.00073  -0.00182  -0.00019   0.00000
 179       14F+1        0.00000   0.00000   0.00000   0.00000   0.00007
 180       14F-1       -0.00097  -0.00013   0.00278   0.00299   0.00000
 181       14F+2       -0.00103   0.00054  -0.00042   0.00087   0.00000
 182       14F-2        0.00000   0.00000   0.00000   0.00000  -0.00298
 183       14F+3        0.00000   0.00000   0.00000   0.00000  -0.00202
 184       14F-3        0.00067  -0.00029   0.00074   0.00086   0.00000
                          11        12        13        14        15
     Eigenvalues --     1.96817   1.96680   1.96302   1.96086   1.95657
   1 1   O  1S          0.00000   0.05019   0.00000   0.00343   0.00000
   2        2S          0.00000  -0.14964   0.00000  -0.03197   0.00000
   3        3S          0.00000  -0.04574   0.00000  -0.01392   0.00000
   4        4S          0.00000  -0.20235   0.00000  -0.14108   0.00000
   5        5S          0.00000  -0.04266   0.00000  -0.04757   0.00000
   6        6PX         0.00000   0.00000   0.00000   0.00000   0.00000
   7        6PY         0.00000   0.00000   0.22637   0.00000   0.26315
   8        6PZ         0.00000  -0.14840   0.00000  -0.26966   0.00000
   9        7PX         0.00000   0.00000   0.00000   0.00000   0.00000
  10        7PY         0.00000   0.00000   0.27629   0.00000   0.32373
  11        7PZ         0.00000  -0.17161   0.00000  -0.32463   0.00000
  12        8PX         0.00000   0.00000   0.00000   0.00000   0.00000
  13        8PY         0.00000   0.00000   0.18332   0.00000   0.22277
  14        8PZ         0.00000  -0.07195   0.00000  -0.16016   0.00000
  15        9PX         0.00000   0.00000   0.00000   0.00000   0.00000
  16        9PY         0.00000   0.00000   0.02552   0.00000   0.03022
  17        9PZ         0.00000   0.00333   0.00000  -0.00419   0.00000
  18       10D 0        0.00000   0.00655   0.00000   0.01235   0.00000
  19       10D+1        0.00000   0.00000   0.00000   0.00000   0.00000
  20       10D-1        0.00000   0.00000  -0.00730   0.00000  -0.00503
  21       10D+2        0.00000   0.00007   0.00000   0.00023   0.00000
  22       10D-2       -0.00022   0.00000   0.00000   0.00000   0.00000
  23       11D 0        0.00000   0.01076   0.00000   0.03035   0.00000
  24       11D+1        0.00000   0.00000   0.00000   0.00000   0.00000
  25       11D-1        0.00000   0.00000  -0.01787   0.00000  -0.01254
  26       11D+2        0.00000  -0.00009   0.00000   0.00114   0.00000
  27       11D-2       -0.00270   0.00000   0.00000   0.00000   0.00000
  28       12D 0        0.00000  -0.00053   0.00000   0.00577   0.00000
  29       12D+1        0.00000   0.00000   0.00000   0.00000   0.00000
  30       12D-1        0.00000   0.00000  -0.00831   0.00000  -0.00198
  31       12D+2        0.00000  -0.00067   0.00000   0.00271   0.00000
  32       12D-2       -0.00743   0.00000   0.00000   0.00000   0.00000
  33       13F 0        0.00000  -0.00225   0.00000  -0.00499   0.00000
  34       13F+1        0.00000   0.00000   0.00000   0.00000   0.00000
  35       13F-1        0.00000   0.00000   0.00402   0.00000   0.00231
  36       13F+2        0.00000  -0.00024   0.00000  -0.00073   0.00000
  37       13F-2        0.00034   0.00000   0.00000   0.00000   0.00000
  38       13F+3        0.00000   0.00000   0.00000   0.00000   0.00000
  39       13F-3        0.00000   0.00000   0.00063   0.00000   0.00097
  40       14F 0        0.00000  -0.00058   0.00000  -0.00691   0.00000
  41       14F+1        0.00000   0.00000   0.00000   0.00000   0.00000
  42       14F-1        0.00000   0.00000   0.00372   0.00000   0.00260
  43       14F+2        0.00000  -0.00010   0.00000  -0.00080   0.00000
  44       14F-2        0.00304   0.00000   0.00000   0.00000   0.00000
  45       14F+3        0.00000   0.00000   0.00000   0.00000   0.00000
  46       14F-3        0.00000   0.00000   0.00081   0.00000  -0.00074
  47 2   C  1S          0.00000  -0.14215   0.00000  -0.02899   0.00000
  48        2S          0.00000   0.38992   0.00000   0.08293   0.00000
  49        3S          0.00000   0.10103   0.00000   0.02251   0.00000
  50        4S          0.00000   0.16034   0.00000  -0.00775   0.00000
  51        5S          0.00000   0.00576   0.00000   0.00797   0.00000
  52        6PX         0.00000   0.00000   0.00000   0.00000   0.00000
  53        6PY         0.00000   0.00000   0.18079   0.00000  -0.06979
  54        6PZ         0.00000  -0.02275   0.00000   0.22815   0.00000
  55        7PX         0.00000   0.00000   0.00000   0.00000   0.00000
  56        7PY         0.00000   0.00000   0.21704   0.00000  -0.07620
  57        7PZ         0.00000  -0.03779   0.00000   0.22576   0.00000
  58        8PX         0.00000   0.00000   0.00000   0.00000   0.00000
  59        8PY         0.00000   0.00000   0.05363   0.00000  -0.01317
  60        8PZ         0.00000  -0.00379   0.00000   0.03039   0.00000
  61        9PX         0.00000   0.00000   0.00000   0.00000   0.00000
  62        9PY         0.00000   0.00000  -0.00219   0.00000  -0.00278
  63        9PZ         0.00000   0.00000   0.00000   0.00067   0.00000
  64       10D 0        0.00000   0.00644   0.00000   0.01867   0.00000
  65       10D+1        0.00000   0.00000   0.00000   0.00000   0.00000
  66       10D-1        0.00000   0.00000  -0.00077   0.00000   0.04321
  67       10D+2        0.00000  -0.00956   0.00000   0.01129   0.00000
  68       10D-2       -0.02064   0.00000   0.00000   0.00000   0.00000
  69       11D 0        0.00000   0.00180   0.00000   0.01807   0.00000
  70       11D+1        0.00000   0.00000   0.00000   0.00000   0.00000
  71       11D-1        0.00000   0.00000  -0.02434   0.00000   0.08579
  72       11D+2        0.00000  -0.02382   0.00000   0.02292   0.00000
  73       11D-2       -0.03374   0.00000   0.00000   0.00000   0.00000
  74       12D 0        0.00000   0.00130   0.00000   0.00046   0.00000
  75       12D+1        0.00000   0.00000   0.00000   0.00000   0.00000
  76       12D-1        0.00000   0.00000  -0.00821   0.00000   0.01341
  77       12D+2        0.00000   0.00339   0.00000   0.00301   0.00000
  78       12D-2        0.00400   0.00000   0.00000   0.00000   0.00000
  79       13F 0        0.00000   0.00759   0.00000   0.00498   0.00000
  80       13F+1        0.00000   0.00000   0.00000   0.00000   0.00000
  81       13F-1        0.00000   0.00000   0.01423   0.00000   0.00484
  82       13F+2        0.00000   0.00608   0.00000  -0.00065   0.00000
  83       13F-2        0.00990   0.00000   0.00000   0.00000   0.00000
  84       13F+3        0.00000   0.00000   0.00000   0.00000   0.00000
  85       13F-3        0.00000   0.00000   0.00030   0.00000   0.00307
  86       14F 0        0.00000   0.00495   0.00000  -0.01373   0.00000
  87       14F+1        0.00000   0.00000   0.00000   0.00000   0.00000
  88       14F-1        0.00000   0.00000   0.02997   0.00000   0.01232
  89       14F+2        0.00000   0.00977   0.00000  -0.01176   0.00000
  90       14F-2        0.01538   0.00000   0.00000   0.00000   0.00000
  91       14F+3        0.00000   0.00000   0.00000   0.00000   0.00000
  92       14F-3        0.00000   0.00000   0.00323   0.00000   0.00935
  93 3   F  1S          0.00000   0.02021  -0.00406   0.00661  -0.02168
  94        2S          0.00000  -0.06310   0.01973  -0.01138   0.05290
  95        3S          0.00000  -0.02306   0.00927  -0.00084   0.01375
  96        4S          0.00000  -0.12771   0.09123   0.03275  -0.01206
  97        5S          0.00000  -0.02525   0.03601   0.01318  -0.02621
  98        6PX         0.27565   0.00000   0.00000   0.00000   0.00000
  99        6PY         0.00000   0.13041  -0.17957  -0.07316   0.15152
 100        6PZ         0.00000   0.10717  -0.00889  -0.12228   0.11882
 101        7PX         0.33567   0.00000   0.00000   0.00000   0.00000
 102        7PY         0.00000   0.15538  -0.21550  -0.09149   0.18673
 103        7PZ         0.00000   0.12727  -0.00986  -0.15046   0.14584
 104        8PX         0.22994   0.00000   0.00000   0.00000   0.00000
 105        8PY         0.00000   0.06873  -0.11075  -0.04571   0.11342
 106        8PZ         0.00000   0.05936   0.00823  -0.09689   0.08073
 107        9PX         0.02462   0.00000   0.00000   0.00000   0.00000
 108        9PY         0.00000  -0.00320  -0.00533   0.00226   0.00565
 109        9PZ         0.00000   0.00119   0.01227  -0.00767   0.00828
 110       10D 0        0.00000  -0.00004  -0.00001   0.00038  -0.00011
 111       10D+1        0.00178   0.00000   0.00000   0.00000   0.00000
 112       10D-1        0.00000   0.00403  -0.00330  -0.00236   0.00336
 113       10D+2        0.00000  -0.00272   0.00230   0.00201  -0.00205
 114       10D-2        0.00226   0.00000   0.00000   0.00000   0.00000
 115       11D 0        0.00000  -0.00048  -0.00215   0.00174  -0.00170
 116       11D+1        0.00710   0.00000   0.00000   0.00000   0.00000
 117       11D-1        0.00000   0.01154  -0.01186  -0.01074   0.01151
 118       11D+2        0.00000  -0.00835   0.00708   0.00805  -0.00786
 119       11D-2        0.00969   0.00000   0.00000   0.00000   0.00000
 120       12D 0        0.00000  -0.00127  -0.00745  -0.00101  -0.00426
 121       12D+1        0.00436   0.00000   0.00000   0.00000   0.00000
 122       12D-1        0.00000   0.00199  -0.00265  -0.00301   0.00235
 123       12D+2        0.00000  -0.00126  -0.00092   0.00468  -0.00538
 124       12D-2        0.00439   0.00000   0.00000   0.00000   0.00000
 125       13F 0        0.00000  -0.00106   0.00093   0.00085  -0.00095
 126       13F+1        0.00016   0.00000   0.00000   0.00000   0.00000
 127       13F-1        0.00000   0.00076  -0.00051  -0.00055   0.00077
 128       13F+2        0.00000  -0.00164   0.00165   0.00137  -0.00154
 129       13F-2        0.00152   0.00000   0.00000   0.00000   0.00000
 130       13F+3       -0.00094   0.00000   0.00000   0.00000   0.00000
 131       13F-3        0.00000  -0.00090   0.00074   0.00087  -0.00066
 132       14F 0        0.00000  -0.00097   0.00025   0.00209  -0.00205
 133       14F+1        0.00093   0.00000   0.00000   0.00000   0.00000
 134       14F-1        0.00000   0.00067  -0.00332  -0.00025   0.00033
 135       14F+2        0.00000  -0.00266   0.00271   0.00288  -0.00254
 136       14F-2        0.00252   0.00000   0.00000   0.00000   0.00000
 137       14F+3       -0.00229   0.00000   0.00000   0.00000   0.00000
 138       14F-3        0.00000  -0.00167   0.00149   0.00156  -0.00177
 139 4   F  1S          0.00000   0.02021   0.00406   0.00661   0.02168
 140        2S          0.00000  -0.06310  -0.01973  -0.01138  -0.05290
 141        3S          0.00000  -0.02306  -0.00927  -0.00084  -0.01375
 142        4S          0.00000  -0.12771  -0.09123   0.03275   0.01206
 143        5S          0.00000  -0.02525  -0.03601   0.01318   0.02621
 144        6PX        -0.27565   0.00000   0.00000   0.00000   0.00000
 145        6PY         0.00000  -0.13041  -0.17957   0.07316   0.15152
 146        6PZ         0.00000   0.10717   0.00889  -0.12228  -0.11882
 147        7PX        -0.33567   0.00000   0.00000   0.00000   0.00000
 148        7PY         0.00000  -0.15538  -0.21550   0.09149   0.18673
 149        7PZ         0.00000   0.12727   0.00986  -0.15046  -0.14584
 150        8PX        -0.22994   0.00000   0.00000   0.00000   0.00000
 151        8PY         0.00000  -0.06873  -0.11075   0.04571   0.11342
 152        8PZ         0.00000   0.05936  -0.00823  -0.09689  -0.08073
 153        9PX        -0.02462   0.00000   0.00000   0.00000   0.00000
 154        9PY         0.00000   0.00320  -0.00533  -0.00226   0.00565
 155        9PZ         0.00000   0.00119  -0.01227  -0.00767  -0.00828
 156       10D 0        0.00000  -0.00004   0.00001   0.00038   0.00011
 157       10D+1       -0.00178   0.00000   0.00000   0.00000   0.00000
 158       10D-1        0.00000  -0.00403  -0.00330   0.00236   0.00336
 159       10D+2        0.00000  -0.00272  -0.00230   0.00201   0.00205
 160       10D-2        0.00226   0.00000   0.00000   0.00000   0.00000
 161       11D 0        0.00000  -0.00048   0.00215   0.00174   0.00170
 162       11D+1       -0.00710   0.00000   0.00000   0.00000   0.00000
 163       11D-1        0.00000  -0.01154  -0.01186   0.01074   0.01151
 164       11D+2        0.00000  -0.00835  -0.00708   0.00805   0.00786
 165       11D-2        0.00969   0.00000   0.00000   0.00000   0.00000
 166       12D 0        0.00000  -0.00127   0.00745  -0.00101   0.00426
 167       12D+1       -0.00436   0.00000   0.00000   0.00000   0.00000
 168       12D-1        0.00000  -0.00199  -0.00265   0.00301   0.00235
 169       12D+2        0.00000  -0.00126   0.00092   0.00468   0.00538
 170       12D-2        0.00439   0.00000   0.00000   0.00000   0.00000
 171       13F 0        0.00000  -0.00106  -0.00093   0.00085   0.00095
 172       13F+1       -0.00016   0.00000   0.00000   0.00000   0.00000
 173       13F-1        0.00000  -0.00076  -0.00051   0.00055   0.00077
 174       13F+2        0.00000  -0.00164  -0.00165   0.00137   0.00154
 175       13F-2        0.00152   0.00000   0.00000   0.00000   0.00000
 176       13F+3        0.00094   0.00000   0.00000   0.00000   0.00000
 177       13F-3        0.00000   0.00090   0.00074  -0.00087  -0.00066
 178       14F 0        0.00000  -0.00097  -0.00025   0.00209   0.00205
 179       14F+1       -0.00093   0.00000   0.00000   0.00000   0.00000
 180       14F-1        0.00000  -0.00067  -0.00332   0.00025   0.00033
 181       14F+2        0.00000  -0.00266  -0.00271   0.00288   0.00254
 182       14F-2        0.00252   0.00000   0.00000   0.00000   0.00000
 183       14F+3        0.00229   0.00000   0.00000   0.00000   0.00000
 184       14F-3        0.00000   0.00167   0.00149  -0.00156  -0.00177
                          16        17        18        19        20
     Eigenvalues --     1.93919   0.05962   0.03766   0.03590   0.02486
   1 1   O  1S          0.00000   0.00000  -0.03527   0.00000   0.07042
   2        2S          0.00000   0.00000   0.14481   0.00000  -0.27080
   3        3S          0.00000   0.00000   0.05196   0.00000  -0.11211
   4        4S          0.00000   0.00000   0.19198   0.00000  -0.50004
   5        5S          0.00000   0.00000   0.08837   0.00000  -0.20621
   6        6PX         0.30122  -0.35077   0.00000   0.00000   0.00000
   7        6PY         0.00000   0.00000   0.00000   0.34437   0.00000
   8        6PZ         0.00000   0.00000  -0.20158   0.00000   0.34563
   9        7PX         0.37608  -0.39266   0.00000   0.00000   0.00000
  10        7PY         0.00000   0.00000   0.00000   0.30804   0.00000
  11        7PZ         0.00000   0.00000  -0.23347   0.00000   0.43281
  12        8PX         0.24155  -0.06562   0.00000   0.00000   0.00000
  13        8PY         0.00000   0.00000   0.00000  -0.06250   0.00000
  14        8PZ         0.00000   0.00000   0.02470   0.00000   0.16702
  15        9PX         0.01575  -0.00655   0.00000   0.00000   0.00000
  16        9PY         0.00000   0.00000   0.00000  -0.03331   0.00000
  17        9PZ         0.00000   0.00000  -0.00562   0.00000   0.02147
  18       10D 0        0.00000   0.00000  -0.00427   0.00000   0.03116
  19       10D+1       -0.01095  -0.01607   0.00000   0.00000   0.00000
  20       10D-1        0.00000   0.00000   0.00000   0.02793   0.00000
  21       10D+2        0.00000   0.00000  -0.00375   0.00000   0.00128
  22       10D-2        0.00000   0.00000   0.00000   0.00000   0.00000
  23       11D 0        0.00000   0.00000   0.00277   0.00000   0.02440
  24       11D+1       -0.02884  -0.01873   0.00000   0.00000   0.00000
  25       11D-1        0.00000   0.00000   0.00000   0.05238   0.00000
  26       11D+2        0.00000   0.00000  -0.00345   0.00000   0.00079
  27       11D-2        0.00000   0.00000   0.00000   0.00000   0.00000
  28       12D 0        0.00000   0.00000  -0.03269   0.00000  -0.03095
  29       12D+1       -0.00940   0.01811   0.00000   0.00000   0.00000
  30       12D-1        0.00000   0.00000   0.00000   0.00570   0.00000
  31       12D+2        0.00000   0.00000   0.00435   0.00000   0.00172
  32       12D-2        0.00000   0.00000   0.00000   0.00000   0.00000
  33       13F 0        0.00000   0.00000  -0.00306   0.00000  -0.00213
  34       13F+1        0.00577   0.00452   0.00000   0.00000   0.00000
  35       13F-1        0.00000   0.00000   0.00000  -0.00718   0.00000
  36       13F+2        0.00000   0.00000  -0.00173   0.00000   0.00148
  37       13F-2        0.00000   0.00000   0.00000   0.00000   0.00000
  38       13F+3        0.00101  -0.00268   0.00000   0.00000   0.00000
  39       13F-3        0.00000   0.00000   0.00000   0.00183   0.00000
  40       14F 0        0.00000   0.00000   0.00067   0.00000  -0.00838
  41       14F+1        0.00366  -0.00385   0.00000   0.00000   0.00000
  42       14F-1        0.00000   0.00000   0.00000  -0.00469   0.00000
  43       14F+2        0.00000   0.00000  -0.00232   0.00000  -0.00266
  44       14F-2        0.00000   0.00000   0.00000   0.00000   0.00000
  45       14F+3        0.00057  -0.00166   0.00000   0.00000   0.00000
  46       14F-3        0.00000   0.00000   0.00000   0.00200   0.00000
  47 2   C  1S          0.00000   0.00000   0.17986   0.00000  -0.05749
  48        2S          0.00000   0.00000  -0.62360   0.00000   0.24829
  49        3S          0.00000   0.00000  -0.19040   0.00000   0.11631
  50        4S          0.00000   0.00000  -0.46980   0.00000   0.18518
  51        5S          0.00000   0.00000  -0.04067   0.00000   0.04125
  52        6PX         0.18200   0.32830   0.00000   0.00000   0.00000
  53        6PY         0.00000   0.00000   0.00000  -0.34304   0.00000
  54        6PZ         0.00000   0.00000   0.10827   0.00000   0.35583
  55        7PX         0.23336   0.46402   0.00000   0.00000   0.00000
  56        7PY         0.00000   0.00000   0.00000  -0.60210   0.00000
  57        7PZ         0.00000   0.00000   0.18264   0.00000   0.68976
  58        8PX         0.08886   0.14007   0.00000   0.00000   0.00000
  59        8PY         0.00000   0.00000   0.00000  -0.12573   0.00000
  60        8PZ         0.00000   0.00000  -0.03563   0.00000   0.14674
  61        9PX         0.00857   0.00770   0.00000   0.00000   0.00000
  62        9PY         0.00000   0.00000   0.00000  -0.00441   0.00000
  63        9PZ         0.00000   0.00000   0.00229   0.00000   0.00811
  64       10D 0        0.00000   0.00000   0.00424   0.00000  -0.03045
  65       10D+1        0.02552   0.00949   0.00000   0.00000   0.00000
  66       10D-1        0.00000   0.00000   0.00000  -0.02180   0.00000
  67       10D+2        0.00000   0.00000  -0.00090   0.00000  -0.00194
  68       10D-2        0.00000   0.00000   0.00000   0.00000   0.00000
  69       11D 0        0.00000   0.00000  -0.02372   0.00000   0.03514
  70       11D+1        0.04534   0.05984   0.00000   0.00000   0.00000
  71       11D-1        0.00000   0.00000   0.00000   0.07368   0.00000
  72       11D+2        0.00000   0.00000   0.06244   0.00000   0.03617
  73       11D-2        0.00000   0.00000   0.00000   0.00000   0.00000
  74       12D 0        0.00000   0.00000  -0.04053   0.00000   0.04465
  75       12D+1        0.00565   0.02198   0.00000   0.00000   0.00000
  76       12D-1        0.00000   0.00000   0.00000  -0.01471   0.00000
  77       12D+2        0.00000   0.00000   0.00591   0.00000   0.01205
  78       12D-2        0.00000   0.00000   0.00000   0.00000   0.00000
  79       13F 0        0.00000   0.00000  -0.00555   0.00000   0.01219
  80       13F+1        0.00766   0.01574   0.00000   0.00000   0.00000
  81       13F-1        0.00000   0.00000   0.00000  -0.02613   0.00000
  82       13F+2        0.00000   0.00000  -0.02804   0.00000  -0.01379
  83       13F-2        0.00000   0.00000   0.00000   0.00000   0.00000
  84       13F+3        0.00061  -0.00454   0.00000   0.00000   0.00000
  85       13F-3        0.00000   0.00000   0.00000   0.01221   0.00000
  86       14F 0        0.00000   0.00000  -0.04391   0.00000   0.00161
  87       14F+1        0.00774   0.02634   0.00000   0.00000   0.00000
  88       14F-1        0.00000   0.00000   0.00000  -0.14848   0.00000
  89       14F+2        0.00000   0.00000  -0.03808   0.00000  -0.00866
  90       14F-2        0.00000   0.00000   0.00000   0.00000   0.00000
  91       14F+3        0.00418   0.00745   0.00000   0.00000   0.00000
  92       14F-3        0.00000   0.00000   0.00000  -0.03359   0.00000
  93 3   F  1S          0.00000   0.00000  -0.05244   0.04591  -0.01950
  94        2S          0.00000   0.00000   0.16404  -0.13389   0.04786
  95        3S          0.00000   0.00000   0.07439  -0.06713   0.02978
  96        4S          0.00000   0.00000   0.22109  -0.25226   0.12121
  97        5S          0.00000   0.00000   0.05260  -0.07047   0.06201
  98        6PX        -0.05752  -0.18538   0.00000   0.00000   0.00000
  99        6PY         0.00000   0.00000   0.27934  -0.10468   0.21747
 100        6PZ         0.00000   0.00000   0.14510  -0.22375  -0.16772
 101        7PX        -0.06956  -0.15303   0.00000   0.00000   0.00000
 102        7PY         0.00000   0.00000   0.26818  -0.13806   0.14326
 103        7PZ         0.00000   0.00000   0.15717  -0.19080  -0.06182
 104        8PX        -0.06354   0.02353   0.00000   0.00000   0.00000
 105        8PY         0.00000   0.00000  -0.00248  -0.19813  -0.07187
 106        8PZ         0.00000   0.00000   0.03588   0.09567   0.21325
 107        9PX        -0.01953  -0.00392   0.00000   0.00000   0.00000
 108        9PY         0.00000   0.00000   0.00395  -0.00967  -0.01150
 109        9PZ         0.00000   0.00000  -0.00780  -0.01056   0.03622
 110       10D 0        0.00000   0.00000   0.00234   0.00556   0.01257
 111       10D+1        0.00086   0.00409   0.00000   0.00000   0.00000
 112       10D-1        0.00000   0.00000  -0.01066   0.01148   0.00047
 113       10D+2        0.00000   0.00000   0.00873  -0.00435   0.01293
 114       10D-2        0.00080   0.00563   0.00000   0.00000   0.00000
 115       11D 0        0.00000   0.00000   0.00822   0.02757   0.03866
 116       11D+1        0.00268   0.01538   0.00000   0.00000   0.00000
 117       11D-1        0.00000   0.00000  -0.01209   0.02021   0.01223
 118       11D+2        0.00000   0.00000   0.01298   0.00203   0.03113
 119       11D-2        0.00208   0.01955   0.00000   0.00000   0.00000
 120       12D 0        0.00000   0.00000   0.00627   0.06561   0.02239
 121       12D+1        0.00239   0.01002   0.00000   0.00000   0.00000
 122       12D-1        0.00000   0.00000  -0.00614   0.00168   0.03167
 123       12D+2        0.00000   0.00000   0.01273   0.04432   0.00064
 124       12D-2       -0.00146   0.00409   0.00000   0.00000   0.00000
 125       13F 0        0.00000   0.00000  -0.00056   0.00085   0.00155
 126       13F+1        0.00018   0.00056   0.00000   0.00000   0.00000
 127       13F-1        0.00000   0.00000   0.00114   0.00081   0.00320
 128       13F+2        0.00000   0.00000  -0.00146  -0.00052  -0.00045
 129       13F-2        0.00041   0.00090   0.00000   0.00000   0.00000
 130       13F+3       -0.00046  -0.00215   0.00000   0.00000   0.00000
 131       13F-3        0.00000   0.00000   0.00036   0.00073   0.00250
 132       14F 0        0.00000   0.00000   0.00248   0.00439   0.00112
 133       14F+1        0.00071   0.00132   0.00000   0.00000   0.00000
 134       14F-1        0.00000   0.00000   0.00069   0.01136   0.00485
 135       14F+2        0.00000   0.00000   0.00350   0.00002   0.00161
 136       14F-2        0.00056   0.00397   0.00000   0.00000   0.00000
 137       14F+3        0.00078   0.00079   0.00000   0.00000   0.00000
 138       14F-3        0.00000   0.00000   0.00000   0.00069   0.00156
 139 4   F  1S          0.00000   0.00000  -0.05244  -0.04591  -0.01950
 140        2S          0.00000   0.00000   0.16404   0.13389   0.04786
 141        3S          0.00000   0.00000   0.07439   0.06713   0.02978
 142        4S          0.00000   0.00000   0.22109   0.25226   0.12121
 143        5S          0.00000   0.00000   0.05260   0.07047   0.06201
 144        6PX        -0.05752  -0.18538   0.00000   0.00000   0.00000
 145        6PY         0.00000   0.00000  -0.27934  -0.10468  -0.21747
 146        6PZ         0.00000   0.00000   0.14510   0.22375  -0.16772
 147        7PX        -0.06956  -0.15303   0.00000   0.00000   0.00000
 148        7PY         0.00000   0.00000  -0.26818  -0.13806  -0.14326
 149        7PZ         0.00000   0.00000   0.15717   0.19080  -0.06182
 150        8PX        -0.06354   0.02353   0.00000   0.00000   0.00000
 151        8PY         0.00000   0.00000   0.00248  -0.19813   0.07187
 152        8PZ         0.00000   0.00000   0.03588  -0.09567   0.21325
 153        9PX        -0.01953  -0.00392   0.00000   0.00000   0.00000
 154        9PY         0.00000   0.00000  -0.00395  -0.00967   0.01150
 155        9PZ         0.00000   0.00000  -0.00780   0.01056   0.03622
 156       10D 0        0.00000   0.00000   0.00234  -0.00556   0.01257
 157       10D+1        0.00086   0.00409   0.00000   0.00000   0.00000
 158       10D-1        0.00000   0.00000   0.01066   0.01148  -0.00047
 159       10D+2        0.00000   0.00000   0.00873   0.00435   0.01293
 160       10D-2       -0.00080  -0.00563   0.00000   0.00000   0.00000
 161       11D 0        0.00000   0.00000   0.00822  -0.02757   0.03866
 162       11D+1        0.00268   0.01538   0.00000   0.00000   0.00000
 163       11D-1        0.00000   0.00000   0.01209   0.02021  -0.01223
 164       11D+2        0.00000   0.00000   0.01298  -0.00203   0.03113
 165       11D-2       -0.00208  -0.01955   0.00000   0.00000   0.00000
 166       12D 0        0.00000   0.00000   0.00627  -0.06561   0.02239
 167       12D+1        0.00239   0.01002   0.00000   0.00000   0.00000
 168       12D-1        0.00000   0.00000   0.00614   0.00168  -0.03167
 169       12D+2        0.00000   0.00000   0.01273  -0.04432   0.00064
 170       12D-2        0.00146  -0.00409   0.00000   0.00000   0.00000
 171       13F 0        0.00000   0.00000  -0.00056  -0.00085   0.00155
 172       13F+1        0.00018   0.00056   0.00000   0.00000   0.00000
 173       13F-1        0.00000   0.00000  -0.00114   0.00081  -0.00320
 174       13F+2        0.00000   0.00000  -0.00146   0.00052  -0.00045
 175       13F-2       -0.00041  -0.00090   0.00000   0.00000   0.00000
 176       13F+3       -0.00046  -0.00215   0.00000   0.00000   0.00000
 177       13F-3        0.00000   0.00000  -0.00036   0.00073  -0.00250
 178       14F 0        0.00000   0.00000   0.00248  -0.00439   0.00112
 179       14F+1        0.00071   0.00132   0.00000   0.00000   0.00000
 180       14F-1        0.00000   0.00000  -0.00069   0.01136  -0.00485
 181       14F+2        0.00000   0.00000   0.00350  -0.00002   0.00161
 182       14F-2       -0.00056  -0.00397   0.00000   0.00000   0.00000
 183       14F+3        0.00078   0.00079   0.00000   0.00000   0.00000
 184       14F-3        0.00000   0.00000   0.00000   0.00069  -0.00156
                          21        22        23        24        25
     Eigenvalues --     0.01542   0.01400   0.01389   0.01356   0.01083
   1 1   O  1S         -0.03710   0.00000   0.00000   0.00000  -0.23969
   2        2S          0.07913   0.00000   0.00000   0.00000   0.77724
   3        3S          0.11767   0.00000   0.00000   0.00000   0.65757
   4        4S         -0.78689   0.00000   0.00000   0.00000  -1.20343
   5        5S         -0.45523   0.00000   0.00000   0.00000  -0.29662
   6        6PX         0.00000   0.00000   0.26187   0.00000   0.00000
   7        6PY         0.00000   0.00000   0.00000   0.31432   0.00000
   8        6PZ         0.29031   0.00000   0.00000   0.00000   0.20654
   9        7PX         0.00000   0.00000   0.19797   0.00000   0.00000
  10        7PY         0.00000   0.00000   0.00000   0.16932   0.00000
  11        7PZ         0.28682   0.00000   0.00000   0.00000  -0.02707
  12        8PX         0.00000   0.00000  -0.14783   0.00000   0.00000
  13        8PY         0.00000   0.00000   0.00000  -0.19770   0.00000
  14        8PZ         0.03460   0.00000   0.00000   0.00000  -0.09677
  15        9PX         0.00000   0.00000  -0.03336   0.00000   0.00000
  16        9PY         0.00000   0.00000   0.00000  -0.00285   0.00000
  17        9PZ         0.05960   0.00000   0.00000   0.00000   0.00116
  18       10D 0        0.05337   0.00000   0.00000   0.00000  -0.01839
  19       10D+1        0.00000   0.00000   0.03996   0.00000   0.00000
  20       10D-1        0.00000   0.00000   0.00000  -0.00716   0.00000
  21       10D+2        0.01322   0.00000   0.00000   0.00000  -0.02061
  22       10D-2        0.00000  -0.02369   0.00000   0.00000   0.00000
  23       11D 0        0.08784   0.00000   0.00000   0.00000  -0.06502
  24       11D+1        0.00000   0.00000   0.07423   0.00000   0.00000
  25       11D-1        0.00000   0.00000   0.00000  -0.04816   0.00000
  26       11D+2        0.04528   0.00000   0.00000   0.00000  -0.00624
  27       11D-2        0.00000  -0.07504   0.00000   0.00000   0.00000
  28       12D 0        0.02452   0.00000   0.00000   0.00000  -0.05094
  29       12D+1        0.00000   0.00000  -0.01492   0.00000   0.00000
  30       12D-1        0.00000   0.00000   0.00000  -0.05243   0.00000
  31       12D+2        0.01780   0.00000   0.00000   0.00000   0.01183
  32       12D-2        0.00000  -0.05509   0.00000   0.00000   0.00000
  33       13F 0       -0.00997   0.00000   0.00000   0.00000   0.00113
  34       13F+1        0.00000   0.00000  -0.00658   0.00000   0.00000
  35       13F-1        0.00000   0.00000   0.00000   0.00559   0.00000
  36       13F+2       -0.00436   0.00000   0.00000   0.00000   0.00209
  37       13F-2        0.00000   0.00527   0.00000   0.00000   0.00000
  38       13F+3        0.00000   0.00000  -0.00083   0.00000   0.00000
  39       13F-3        0.00000   0.00000   0.00000  -0.00141   0.00000
  40       14F 0       -0.02555   0.00000   0.00000   0.00000   0.02197
  41       14F+1        0.00000   0.00000  -0.01053   0.00000   0.00000
  42       14F-1        0.00000   0.00000   0.00000   0.00517   0.00000
  43       14F+2       -0.00003   0.00000   0.00000   0.00000  -0.00166
  44       14F-2        0.00000   0.02820   0.00000   0.00000   0.00000
  45       14F+3        0.00000   0.00000   0.00678   0.00000   0.00000
  46       14F-3        0.00000   0.00000   0.00000   0.01286   0.00000
  47 2   C  1S         -0.03463   0.00000   0.00000   0.00000   0.00767
  48        2S          0.15154   0.00000   0.00000   0.00000   0.05904
  49        3S          0.10942   0.00000   0.00000   0.00000   0.05508
  50        4S         -0.14015   0.00000   0.00000   0.00000   0.20643
  51        5S          0.06216   0.00000   0.00000   0.00000   0.06155
  52        6PX         0.00000   0.00000  -0.11736   0.00000   0.00000
  53        6PY         0.00000   0.00000   0.00000   0.22858   0.00000
  54        6PZ         0.32610   0.00000   0.00000   0.00000  -0.11413
  55        7PX         0.00000   0.00000  -0.17363   0.00000   0.00000
  56        7PY         0.00000   0.00000   0.00000   0.49349   0.00000
  57        7PZ         0.48699   0.00000   0.00000   0.00000   0.00015
  58        8PX         0.00000   0.00000  -0.16674   0.00000   0.00000
  59        8PY         0.00000   0.00000   0.00000   0.44541   0.00000
  60        8PZ         0.45954   0.00000   0.00000   0.00000  -0.02546
  61        9PX         0.00000   0.00000  -0.00792   0.00000   0.00000
  62        9PY         0.00000   0.00000   0.00000  -0.00706   0.00000
  63        9PZ         0.01960   0.00000   0.00000   0.00000   0.00478
  64       10D 0        0.06136   0.00000   0.00000   0.00000  -0.02985
  65       10D+1        0.00000   0.00000  -0.10915   0.00000   0.00000
  66       10D-1        0.00000   0.00000   0.00000  -0.08718   0.00000
  67       10D+2        0.04760   0.00000   0.00000   0.00000  -0.02708
  68       10D-2        0.00000  -0.09245   0.00000   0.00000   0.00000
  69       11D 0        0.19091   0.00000   0.00000   0.00000  -0.12205
  70       11D+1        0.00000   0.00000  -0.21188   0.00000   0.00000
  71       11D-1        0.00000   0.00000   0.00000  -0.47688   0.00000
  72       11D+2        0.18486   0.00000   0.00000   0.00000  -0.04114
  73       11D-2        0.00000  -0.14396   0.00000   0.00000   0.00000
  74       12D 0        0.05244   0.00000   0.00000   0.00000   0.03106
  75       12D+1        0.00000   0.00000  -0.00822   0.00000   0.00000
  76       12D-1        0.00000   0.00000   0.00000  -0.19086   0.00000
  77       12D+2        0.04537   0.00000   0.00000   0.00000   0.00652
  78       12D-2        0.00000   0.02681   0.00000   0.00000   0.00000
  79       13F 0       -0.01310   0.00000   0.00000   0.00000  -0.00477
  80       13F+1        0.00000   0.00000  -0.00723   0.00000   0.00000
  81       13F-1        0.00000   0.00000   0.00000   0.04066   0.00000
  82       13F+2       -0.01511   0.00000   0.00000   0.00000  -0.00689
  83       13F-2        0.00000   0.03003   0.00000   0.00000   0.00000
  84       13F+3        0.00000   0.00000  -0.02732   0.00000   0.00000
  85       13F-3        0.00000   0.00000   0.00000  -0.01230   0.00000
  86       14F 0       -0.06587   0.00000   0.00000   0.00000  -0.05179
  87       14F+1        0.00000   0.00000  -0.04898   0.00000   0.00000
  88       14F-1        0.00000   0.00000   0.00000  -0.12654   0.00000
  89       14F+2       -0.07345   0.00000   0.00000   0.00000  -0.00490
  90       14F-2        0.00000   0.06442   0.00000   0.00000   0.00000
  91       14F+3        0.00000   0.00000  -0.00958   0.00000   0.00000
  92       14F-3        0.00000   0.00000   0.00000  -0.07275   0.00000
  93 3   F  1S          0.01385   0.00000   0.00000   0.04710  -0.02370
  94        2S         -0.02404   0.00000   0.00000  -0.11600   0.05799
  95        3S         -0.03759   0.00000   0.00000  -0.13114   0.06060
  96        4S          0.34487   0.00000   0.00000   0.69268  -0.12345
  97        5S          0.24089   0.00000   0.00000   0.54105  -0.00700
  98        6PX         0.00000  -0.45622  -0.39981   0.00000   0.00000
  99        6PY        -0.09279   0.00000   0.00000   0.33647   0.03537
 100        6PZ         0.33532   0.00000   0.00000   0.00192  -0.12491
 101        7PX         0.00000  -0.13683  -0.11628   0.00000   0.00000
 102        7PY         0.01454   0.00000   0.00000   0.18035   0.00550
 103        7PZ         0.14122   0.00000   0.00000   0.06236  -0.02305
 104        8PX         0.00000   0.51524   0.50597   0.00000   0.00000
 105        8PY         0.20559   0.00000   0.00000  -0.23976  -0.05385
 106        8PZ        -0.28390   0.00000   0.00000   0.28214   0.14678
 107        9PX         0.00000   0.08071   0.07590   0.00000   0.00000
 108        9PY         0.05601   0.00000   0.00000   0.05813  -0.01297
 109        9PZ        -0.00205   0.00000   0.00000   0.04806   0.02321
 110       10D 0       -0.00139   0.00000   0.00000   0.00349   0.00034
 111       10D+1        0.00000   0.01505  -0.00452   0.00000   0.00000
 112       10D-1       -0.01450   0.00000   0.00000  -0.02597   0.01762
 113       10D+2        0.00478   0.00000   0.00000   0.01056  -0.00158
 114       10D-2        0.00000   0.00850   0.01408   0.00000   0.00000
 115       11D 0        0.00221   0.00000   0.00000   0.00660  -0.00272
 116       11D+1        0.00000   0.04187  -0.00879   0.00000   0.00000
 117       11D-1       -0.02583   0.00000   0.00000  -0.04757   0.05153
 118       11D+2        0.00977   0.00000   0.00000   0.00891  -0.00953
 119       11D-2        0.00000   0.02759   0.04264   0.00000   0.00000
[...]
 112       10D-1       -0.01328   0.02396   0.00000   0.00413  -0.00258
 113       10D+2        0.02571  -0.01872   0.00000  -0.00618   0.01131
 114       10D-2        0.00000   0.00000  -0.01197   0.00000   0.00000
 115       11D 0        0.05218  -0.04698   0.00000  -0.06891  -0.01166
 116       11D+1        0.00000   0.00000  -0.10930   0.00000   0.00000
 117       11D-1        0.07759  -0.08203   0.00000  -0.03591   0.01568
 118       11D+2       -0.09448   0.05733   0.00000   0.02560  -0.03454
 119       11D-2        0.00000   0.00000   0.02948   0.00000   0.00000
 120       12D 0        0.47584   0.11384   0.00000   0.19346   0.52021
 121       12D+1        0.00000   0.00000   0.25020   0.00000   0.00000
 122       12D-1        0.76366   0.51956   0.00000   0.00956   0.26266
 123       12D+2        0.13010  -0.10500   0.00000  -0.18248   0.12682
 124       12D-2        0.00000   0.00000  -0.02592   0.00000   0.00000
 125       13F 0        0.00488   0.02335   0.00000  -0.01346  -0.00321
 126       13F+1        0.00000   0.00000   0.00413   0.00000   0.00000
 127       13F-1       -0.05095   0.02124   0.00000   0.00275  -0.01038
 128       13F+2        0.02708  -0.03265   0.00000  -0.00008   0.00528
 129       13F-2        0.00000   0.00000   0.01639   0.00000   0.00000
 130       13F+3        0.00000   0.00000   0.00880   0.00000   0.00000
 131       13F-3       -0.00947  -0.02081   0.00000   0.01599   0.01002
 132       14F 0       -0.02199  -0.05501   0.00000   0.04263   0.02223
 133       14F+1        0.00000   0.00000  -0.00245   0.00000   0.00000
 134       14F-1        0.16816  -0.04279   0.00000   0.00224   0.06456
 135       14F+2       -0.08471   0.05730   0.00000  -0.01141  -0.02335
 136       14F-2        0.00000   0.00000  -0.04383   0.00000   0.00000
 137       14F+3        0.00000   0.00000  -0.00961   0.00000   0.00000
 138       14F-3        0.01823   0.04865   0.00000  -0.04668  -0.01678
 139 4   F  1S          0.09451  -0.11300   0.00000   0.01568  -0.01178
 140        2S          0.42677  -0.48475   0.00000   0.05778  -0.02440
 141        3S         -0.07658   0.12069   0.00000  -0.02335   0.04050
 142        4S         -1.51357   3.44642   0.00000  -1.64896  -0.31308
 143        5S          1.37414   6.10619   0.00000   2.64118  -2.14246
 144        6PX         0.00000   0.00000  -0.00305   0.00000   0.00000
 145        6PY         0.00350  -0.00694   0.00000  -0.01192   0.01089
 146        6PZ         0.01829   0.00438   0.00000  -0.00313  -0.00697
 147        7PX         0.00000   0.00000   0.00677   0.00000   0.00000
 148        7PY        -0.00380   0.01371   0.00000   0.09828  -0.05663
 149        7PZ        -0.09584  -0.01269   0.00000  -0.03223   0.06044
 150        8PX         0.00000   0.00000   0.11197   0.00000   0.00000
 151        8PY         0.57372  -1.22787   0.00000   0.07954   0.17655
 152        8PZ        -1.76711   1.35967   0.00000  -0.44145  -1.35759
 153        9PX         0.00000   0.00000  -0.17187   0.00000   0.00000
 154        9PY        -1.71380  -1.34145   0.00000  -0.24639  -0.83641
 155        9PZ         1.66389   3.26272   0.00000   2.39077  -0.78246
 156       10D 0        0.00998   0.01315   0.00000   0.02036  -0.00392
 157       10D+1        0.00000   0.00000   0.03078   0.00000   0.00000
 158       10D-1       -0.01328  -0.02396   0.00000  -0.00413  -0.00258
 159       10D+2       -0.02571  -0.01872   0.00000  -0.00618  -0.01131
 160       10D-2        0.00000   0.00000   0.01197   0.00000   0.00000
 161       11D 0       -0.05218  -0.04698   0.00000  -0.06891   0.01166
 162       11D+1        0.00000   0.00000  -0.10930   0.00000   0.00000
 163       11D-1        0.07759   0.08203   0.00000   0.03591   0.01568
 164       11D+2        0.09448   0.05733   0.00000   0.02560   0.03454
 165       11D-2        0.00000   0.00000  -0.02948   0.00000   0.00000
 166       12D 0       -0.47584   0.11384   0.00000   0.19346  -0.52021
 167       12D+1        0.00000   0.00000   0.25020   0.00000   0.00000
 168       12D-1        0.76366  -0.51956   0.00000  -0.00956   0.26266
 169       12D+2       -0.13010  -0.10500   0.00000  -0.18248  -0.12682
 170       12D-2        0.00000   0.00000   0.02592   0.00000   0.00000
 171       13F 0       -0.00488   0.02335   0.00000  -0.01346   0.00321
 172       13F+1        0.00000   0.00000   0.00413   0.00000   0.00000
 173       13F-1       -0.05095  -0.02124   0.00000  -0.00275  -0.01038
 174       13F+2       -0.02708  -0.03265   0.00000  -0.00008  -0.00528
 175       13F-2        0.00000   0.00000  -0.01639   0.00000   0.00000
 176       13F+3        0.00000   0.00000   0.00880   0.00000   0.00000
 177       13F-3       -0.00947   0.02081   0.00000  -0.01599   0.01002
 178       14F 0        0.02199  -0.05501   0.00000   0.04263  -0.02223
 179       14F+1        0.00000   0.00000  -0.00245   0.00000   0.00000
 180       14F-1        0.16816   0.04279   0.00000  -0.00224   0.06456
 181       14F+2        0.08471   0.05730   0.00000  -0.01141   0.02335
 182       14F-2        0.00000   0.00000   0.04383   0.00000   0.00000
 183       14F+3        0.00000   0.00000  -0.00961   0.00000   0.00000
 184       14F-3        0.01823  -0.04865   0.00000   0.04668  -0.01678
                         181       182       183       184
     Eigenvalues --     0.00000   0.00000   0.00000   0.00000
   1 1   O  1S          0.00000   0.00000   0.10974  -0.05309
   2        2S          0.00000   0.00000   0.54432  -0.26477
   3        3S          0.00000   0.00000  -0.04690   0.02532
   4        4S          0.00000   0.00000  -3.18888   6.73665
   5        5S          0.00000   0.00000 -11.17366  15.71272
   6        6PX         0.01310   0.00000   0.00000   0.00000
   7        6PY         0.00000  -0.00140   0.00000   0.00000
   8        6PZ         0.00000   0.00000   0.01376  -0.00466
   9        7PX        -0.03582   0.00000   0.00000   0.00000
  10        7PY         0.00000  -0.00216   0.00000   0.00000
  11        7PZ         0.00000   0.00000  -0.07237  -0.11786
  12        8PX         0.56918   0.00000   0.00000   0.00000
  13        8PY         0.00000  -1.76860   0.00000   0.00000
  14        8PZ         0.00000   0.00000   2.78919  -3.04487
  15        9PX        -1.70972   0.00000   0.00000   0.00000
  16        9PY         0.00000  -4.02385   0.00000   0.00000
  17        9PZ         0.00000   0.00000   2.99348  -3.38275
  18       10D 0        0.00000   0.00000   0.01781  -0.00443
  19       10D+1        0.01109   0.00000   0.00000   0.00000
  20       10D-1        0.00000  -0.00037   0.00000   0.00000
  21       10D+2        0.00000   0.00000  -0.00019  -0.00675
  22       10D-2        0.00000   0.00000   0.00000   0.00000
  23       11D 0        0.00000   0.00000  -0.13720   0.08805
  24       11D+1       -0.10006   0.00000   0.00000   0.00000
  25       11D-1        0.00000   0.09040   0.00000   0.00000
  26       11D+2        0.00000   0.00000  -0.00136   0.02813
  27       11D-2        0.00000   0.00000   0.00000   0.00000
  28       12D 0        0.00000   0.00000  -0.77255   0.25483
  29       12D+1       -0.02290   0.00000   0.00000   0.00000
  30       12D-1        0.00000   1.04686   0.00000   0.00000
  31       12D+2        0.00000   0.00000  -0.04332   0.11218
  32       12D-2        0.00000   0.00000   0.00000   0.00000
  33       13F 0        0.00000   0.00000   0.00275  -0.02163
  34       13F+1        0.00289   0.00000   0.00000   0.00000
  35       13F-1        0.00000   0.01581   0.00000   0.00000
  36       13F+2        0.00000   0.00000  -0.00279   0.02022
  37       13F-2        0.00000   0.00000   0.00000   0.00000
  38       13F+3       -0.00146   0.00000   0.00000   0.00000
  39       13F-3        0.00000  -0.00150   0.00000   0.00000
  40       14F 0        0.00000   0.00000   0.10422   0.04201
  41       14F+1        0.04755   0.00000   0.00000   0.00000
  42       14F-1        0.00000  -0.18075   0.00000   0.00000
  43       14F+2        0.00000   0.00000   0.01448  -0.06861
  44       14F-2        0.00000   0.00000   0.00000   0.00000
  45       14F+3        0.01964   0.00000   0.00000   0.00000
  46       14F-3        0.00000   0.01844   0.00000   0.00000
  47 2   C  1S          0.00000   0.00000   0.04997  -0.07662
  48        2S          0.00000   0.00000   0.31059  -0.40671
  49        3S          0.00000   0.00000   0.18386   0.19061
  50        4S          0.00000   0.00000  -4.30872 -18.17285
  51        5S          0.00000   0.00000  -0.25087  -9.87698
  52        6PX        -0.00688   0.00000   0.00000   0.00000
  53        6PY         0.00000   0.02420   0.00000   0.00000
  54        6PZ         0.00000   0.00000  -0.02053   0.00444
  55        7PX        -0.04564   0.00000   0.00000   0.00000
  56        7PY         0.00000  -1.29762   0.00000   0.00000
  57        7PZ         0.00000   0.00000   1.61578  -0.10562
  58        8PX         0.84870   0.00000   0.00000   0.00000
  59        8PY         0.00000  -8.34106   0.00000   0.00000
  60        8PZ         0.00000   0.00000   7.54720  -4.76519
  61        9PX         3.19579   0.00000   0.00000   0.00000
  62        9PY         0.00000   2.20294   0.00000   0.00000
  63        9PZ         0.00000   0.00000   1.91587   0.03318
  64       10D 0        0.00000   0.00000   0.01386   0.03592
  65       10D+1        0.00502   0.00000   0.00000   0.00000
  66       10D-1        0.00000  -0.01093   0.00000   0.00000
  67       10D+2        0.00000   0.00000  -0.00318  -0.02200
  68       10D-2        0.00000   0.00000   0.00000   0.00000
  69       11D 0        0.00000   0.00000   0.45368  -0.94665
  70       11D+1       -0.28611   0.00000   0.00000   0.00000
  71       11D-1        0.00000   2.31285   0.00000   0.00000
  72       11D+2        0.00000   0.00000   0.86875   0.66318
  73       11D-2        0.00000   0.00000   0.00000   0.00000
  74       12D 0        0.00000   0.00000   0.63028  -2.72892
  75       12D+1       -0.21890   0.00000   0.00000   0.00000
  76       12D-1        0.00000   4.43939   0.00000   0.00000
  77       12D+2        0.00000   0.00000   0.98604   0.04876
  78       12D-2        0.00000   0.00000   0.00000   0.00000
  79       13F 0        0.00000   0.00000  -0.04958  -0.02993
  80       13F+1       -0.05141   0.00000   0.00000   0.00000
  81       13F-1        0.00000  -0.00637   0.00000   0.00000
  82       13F+2        0.00000   0.00000  -0.04502  -0.02348
  83       13F-2        0.00000   0.00000   0.00000   0.00000
  84       13F+3        0.04717   0.00000   0.00000   0.00000
  85       13F-3        0.00000   0.06031   0.00000   0.00000
  86       14F 0        0.00000   0.00000  -0.30046  -0.51727
  87       14F+1       -0.08461   0.00000   0.00000   0.00000
  88       14F-1        0.00000  -0.03756   0.00000   0.00000
  89       14F+2        0.00000   0.00000  -0.21941  -0.39582
  90       14F-2        0.00000   0.00000   0.00000   0.00000
  91       14F+3       -0.22698   0.00000   0.00000   0.00000
  92       14F-3        0.00000  -0.06103   0.00000   0.00000
  93 3   F  1S          0.00000   0.09583  -0.02465  -0.01759
  94        2S          0.00000   0.44694  -0.13627  -0.10195
  95        3S          0.00000  -0.05885  -0.01459  -0.01109
  96        4S          0.00000  -3.06114   1.85179   1.84010
  97        5S          0.00000 -16.54477   8.09387   2.88128
  98        6PX         0.01765   0.00000   0.00000   0.00000
  99        6PY         0.00000  -0.01113   0.00955   0.00503
 100        6PZ         0.00000  -0.00649   0.00699   0.00284
 101        7PX        -0.06811   0.00000   0.00000   0.00000
 102        7PY         0.00000   0.05273  -0.04266  -0.02111
 103        7PZ         0.00000   0.02486  -0.02679  -0.00914
 104        8PX         0.00700   0.00000   0.00000   0.00000
 105        8PY         0.00000  -2.52718   1.45134   1.31114
 106        8PZ         0.00000  -1.49567   1.28921   0.92720
 107        9PX        -1.33874   0.00000   0.00000   0.00000
 108        9PY         0.00000  -5.56027   1.46333   0.57314
 109        9PZ         0.00000  -1.96962   1.25617  -1.03912
 110       10D 0        0.00000   0.00142  -0.00436   0.00006
 111       10D+1       -0.00816   0.00000   0.00000   0.00000
 112       10D-1        0.00000  -0.00505  -0.00393  -0.00555
 113       10D+2        0.00000   0.01862  -0.00403   0.00057
 114       10D-2       -0.00765   0.00000   0.00000   0.00000
 115       11D 0        0.00000  -0.00764   0.02255  -0.00690
 116       11D+1        0.02757   0.00000   0.00000   0.00000
 117       11D-1        0.00000  -0.01528   0.04613   0.03326
 118       11D+2        0.00000  -0.04047  -0.00165  -0.01129
 119       11D-2        0.02906   0.00000   0.00000   0.00000
 120       12D 0        0.00000   0.23938   0.07859  -0.00192
 121       12D+1       -0.17147   0.00000   0.00000   0.00000
 122       12D-1        0.00000  -0.69195   0.45265   0.24890
 123       12D+2        0.00000   0.64212  -0.19016  -0.18514
 124       12D-2       -0.12933   0.00000   0.00000   0.00000
 125       13F 0        0.00000  -0.01290   0.00351   0.00524
 126       13F+1        0.00496   0.00000   0.00000   0.00000
 127       13F-1        0.00000  -0.00188  -0.01191  -0.00218
 128       13F+2        0.00000   0.00626   0.00906   0.00154
 129       13F-2        0.01466   0.00000   0.00000   0.00000
 130       13F+3        0.00702   0.00000   0.00000   0.00000
 131       13F-3        0.00000   0.00935  -0.00925  -0.00882
 132       14F 0        0.00000   0.06889  -0.02379  -0.02491
 133       14F+1       -0.01827   0.00000   0.00000   0.00000
 134       14F-1        0.00000  -0.00158   0.06078   0.00473
 135       14F+2        0.00000   0.03463  -0.05639  -0.01933
 136       14F-2       -0.02938   0.00000   0.00000   0.00000
 137       14F+3       -0.01696   0.00000   0.00000   0.00000
 138       14F-3        0.00000   0.01358   0.01384   0.00547
 139 4   F  1S          0.00000  -0.09583  -0.02465  -0.01759
 140        2S          0.00000  -0.44694  -0.13627  -0.10195
 141        3S          0.00000   0.05885  -0.01459  -0.01109
 142        4S          0.00000   3.06114   1.85179   1.84010
 143        5S          0.00000  16.54477   8.09387   2.88128
 144        6PX         0.01765   0.00000   0.00000   0.00000
 145        6PY         0.00000  -0.01113  -0.00955  -0.00503
 146        6PZ         0.00000   0.00649   0.00699   0.00284
 147        7PX        -0.06811   0.00000   0.00000   0.00000
 148        7PY         0.00000   0.05273   0.04266   0.02111
 149        7PZ         0.00000  -0.02486  -0.02679  -0.00914
 150        8PX         0.00700   0.00000   0.00000   0.00000
 151        8PY         0.00000  -2.52718  -1.45134  -1.31114
 152        8PZ         0.00000   1.49567   1.28921   0.92720
 153        9PX        -1.33874   0.00000   0.00000   0.00000
 154        9PY         0.00000  -5.56027  -1.46333  -0.57314
 155        9PZ         0.00000   1.96962   1.25617  -1.03912
 156       10D 0        0.00000  -0.00142  -0.00436   0.00006
 157       10D+1       -0.00816   0.00000   0.00000   0.00000
 158       10D-1        0.00000  -0.00505   0.00393   0.00555
 159       10D+2        0.00000  -0.01862  -0.00403   0.00057
 160       10D-2        0.00765   0.00000   0.00000   0.00000
 161       11D 0        0.00000   0.00764   0.02255  -0.00690
 162       11D+1        0.02757   0.00000   0.00000   0.00000
 163       11D-1        0.00000  -0.01528  -0.04613  -0.03326
 164       11D+2        0.00000   0.04047  -0.00165  -0.01129
 165       11D-2       -0.02906   0.00000   0.00000   0.00000
 166       12D 0        0.00000  -0.23938   0.07859  -0.00192
 167       12D+1       -0.17147   0.00000   0.00000   0.00000
 168       12D-1        0.00000  -0.69195  -0.45265  -0.24890
 169       12D+2        0.00000  -0.64212  -0.19016  -0.18514
 170       12D-2        0.12933   0.00000   0.00000   0.00000
 171       13F 0        0.00000   0.01290   0.00351   0.00524
 172       13F+1        0.00496   0.00000   0.00000   0.00000
 173       13F-1        0.00000  -0.00188   0.01191   0.00218
 174       13F+2        0.00000  -0.00626   0.00906   0.00154
 175       13F-2       -0.01466   0.00000   0.00000   0.00000
 176       13F+3        0.00702   0.00000   0.00000   0.00000
 177       13F-3        0.00000   0.00935   0.00925   0.00882
 178       14F 0        0.00000  -0.06889  -0.02379  -0.02491
 179       14F+1       -0.01827   0.00000   0.00000   0.00000
 180       14F-1        0.00000  -0.00158  -0.06078  -0.00473
 181       14F+2        0.00000  -0.03463  -0.05639  -0.01933
 182       14F-2        0.02938   0.00000   0.00000   0.00000
 183       14F+3       -0.01696   0.00000   0.00000   0.00000
 184       14F-3        0.00000   0.01358  -0.01384  -0.00547
          Condensed to atoms (all electrons):
              1          2          3          4
     1  O    7.959689   0.495473  -0.079458  -0.079458
     2  C    0.495473   4.524620   0.186584   0.186584
     3  F   -0.079458   0.186584   9.095762  -0.047642
     4  F   -0.079458   0.186584  -0.047642   9.095762
 Mulliken atomic charges:
              1
     1  O   -0.296247
     2  C    0.606740
     3  F   -0.155247
     4  F   -0.155247
 Sum of Mulliken atomic charges =   0.00000
 Mulliken charges with hydrogens summed into heavy atoms:
              1
     1  O   -0.296247
     2  C    0.606740
     3  F   -0.155247
     4  F   -0.155247
 Sum of Mulliken charges with hydrogens summed into heavy atoms =   0.00000
 Electronic spatial extent (au):  <R**2>=            239.5576
 Charge=              0.0000 electrons
 Dipole moment (field-independent basis, Debye):
    X=              0.0000    Y=              0.0000    Z=             -1.1414  Tot=              1.1414
 Quadrupole moment (field-independent basis, Debye-Ang):
   XX=            -18.9213   YY=            -21.2802   ZZ=            -21.8406
   XY=              0.0000   XZ=              0.0000   YZ=              0.0000
 Traceless Quadrupole moment (field-independent basis, Debye-Ang):
   XX=              1.7594   YY=             -0.5995   ZZ=             -1.1599
   XY=              0.0000   XZ=              0.0000   YZ=              0.0000
 Octapole moment (field-independent basis, Debye-Ang**2):
  XXX=              0.0000  YYY=              0.0000  ZZZ=             34.2129  XYY=              0.0000
  XXY=              0.0000  XXZ=             10.3299  XZZ=              0.0000  YZZ=              0.0000
  YYZ=             11.9487  XYZ=              0.0000
 Hexadecapole moment (field-independent basis, Debye-Ang**3):
 XXXX=            -13.5246 YYYY=            -79.7140 ZZZZ=           -132.4714 XXXY=              0.0000
 XXXZ=              0.0000 YYYX=              0.0000 YYYZ=              0.0000 ZZZX=              0.0000
 ZZZY=              0.0000 XXYY=            -15.6217 XXZZ=            -23.5807 YYZZ=            -36.1281
 XXYZ=              0.0000 YYXZ=              0.0000 ZZXY=              0.0000
 N-N= 1.199538584656D+02 E-N=-9.819168701014D+02  KE= 3.123638235174D+02
 1\1\GINC-TRAPISTA\SP\RQCISD-FC\Aug-CC-pVTZ\C1F2O1\BRUNS\26-Nov-2021\0\
 \# qcisd/aug-cc-pvtz nosymm density=current output=wfn\\f2co-wavefunct
 ion\\0,1\O,0,0.,0.,0.679927\C,0,0.,0.,-0.502216\F,0,0.,-1.058878,-1.26
 4305\F,0,0.,1.058878,-1.264305\\Version=EM64L-G09RevB.01\HF=-311.74078
 08\MP2=-312.6370053\MP3=-312.6243537\MP4D=-312.6400098\MP4DQ=-312.6239
 154\MP4SDQ=-312.6355788\QCISD=-312.6350833\RMSD=8.572e-09\Dipole=0.,0.
 ,-0.449045\Quadrupole=1.3080847,-0.4457271,-0.8623576,0.,0.,0.\PG=C02V
  [C2(C1O1),SGV(F2)]\\@

 Writing a WFN file to GAUSSIAN.wfn.


 AND ALL THIS SCIENCE I DON'T UNDERSTAND
 IT'S JUST MY JOB FIVE DAYS A WEEK

                           -- ELTON JOHN, "ROCKET MAN"
 Job cpu time:  0 days  1 hours 50 minutes  2.9 seconds.
 File lengths (MBytes):  RWF=  17462 Int=      0 D2E=      0 Chk=      3 Scr=      1
 Normal termination of Gaussian 09 at Fri Nov 26 21:23:58 2021.
