 f2co-wavefunction
GAUSSIAN            184 MOL ORBITALS    288 PRIMITIVES        4 NUCLEI
  O    1    (CENTRE  1)   0.00000000  0.00000000  1.28487582  CHARGE =  8.0
  C    2    (CENTRE  2)   0.00000000  0.00000000 -0.91125618  CHARGE =  6.0
  F    3    (CENTRE  3)   0.00000000 -2.00098943 -2.38919020  CHARGE =  9.0
  F    4    (CENTRE  4)   0.00000000  2.00098943 -2.38919020  CHARGE =  9.0
CENTRE ASSIGNMENTS    1  1  1  1  1  1  1  1  1  1  1  1  1  1  1  1  1  1  1  1
CENTRE ASSIGNMENTS    1  1  1  1  1  1  1  1  1  1  1  1  1  1  1  1  1  1  1  1
CENTRE ASSIGNMENTS    1  1  1  1  1  1  1  1  1  1  1  1  1  1  1  1  1  1  1  1
CENTRE ASSIGNMENTS    1  1  1  1  1  1  1  1  1  1  1  1  2  2  2  2  2  2  2  2
CENTRE ASSIGNMENTS    2  2  2  2  2  2  2  2  2  2  2  2  2  2  2  2  2  2  2  2
CENTRE ASSIGNMENTS    2  2  2  2  2  2  2  2  2  2  2  2  2  2  2  2  2  2  2  2
CENTRE ASSIGNMENTS    2  2  2  2  2  2  2  2  2  2  2  2  2  2  2  2  2  2  2  2
CENTRE ASSIGNMENTS    2  2  2  2  3  3  3  3  3  3  3  3  3  3  3  3  3  3  3  3
CENTRE ASSIGNMENTS    3  3  3  3  3  3  3  3  3  3  3  3  3  3  3  3  3  3  3  3
CENTRE ASSIGNMENTS    3  3  3  3  3  3  3  3  3  3  3  3  3  3  3  3  3  3  3  3
CENTRE ASSIGNMENTS    3  3  3  3  3  3  3  3  3  3  3  3  3  3  3  3  4  4  4  4
CENTRE ASSIGNMENTS    4  4  4  4  4  4  4  4  4  4  4  4  4  4  4  4  4  4  4  4
CENTRE ASSIGNMENTS    4  4  4  4  4  4  4  4  4  4  4  4  4  4  4  4  4  4  4  4
CENTRE ASSIGNMENTS    4  4  4  4  4  4  4  4  4  4  4  4  4  4  4  4  4  4  4  4
CENTRE ASSIGNMENTS    4  4  4  4  4  4  4  4
TYPE ASSIGNMENTS      1  1  1  1  1  1  1  1  1  1  1  1  1  1  1  1  2  2  2  3
TYPE ASSIGNMENTS      3  3  4  4  4  2  3  4  2  3  4  2  3  4  5  6  7  8  9 10
TYPE ASSIGNMENTS      5  6  7  8  9 10  5  6  7  8  9 10 11 12 13 17 14 15 18 19
TYPE ASSIGNMENTS     16 20 11 12 13 17 14 15 18 19 16 20  1  1  1  1  1  1  1  1
TYPE ASSIGNMENTS      1  1  1  1  1  1  1  1  2  2  2  3  3  3  4  4  4  2  3  4
TYPE ASSIGNMENTS      2  3  4  2  3  4  5  6  7  8  9 10  5  6  7  8  9 10  5  6
TYPE ASSIGNMENTS      7  8  9 10 11 12 13 17 14 15 18 19 16 20 11 12 13 17 14 15
TYPE ASSIGNMENTS     18 19 16 20  1  1  1  1  1  1  1  1  1  1  1  1  1  1  1  1
TYPE ASSIGNMENTS      2  2  2  3  3  3  4  4  4  2  3  4  2  3  4  2  3  4  5  6
TYPE ASSIGNMENTS      7  8  9 10  5  6  7  8  9 10  5  6  7  8  9 10 11 12 13 17
TYPE ASSIGNMENTS     14 15 18 19 16 20 11 12 13 17 14 15 18 19 16 20  1  1  1  1
TYPE ASSIGNMENTS      1  1  1  1  1  1  1  1  1  1  1  1  2  2  2  3  3  3  4  4
TYPE ASSIGNMENTS      4  2  3  4  2  3  4  2  3  4  5  6  7  8  9 10  5  6  7  8
TYPE ASSIGNMENTS      9 10  5  6  7  8  9 10 11 12 13 17 14 15 18 19 16 20 11 12
TYPE ASSIGNMENTS     13 17 14 15 18 19 16 20
EXPONENTS  0.1533000D+05 0.2299000D+04 0.5224000D+03 0.1473000D+03 0.4755000D+02
EXPONENTS  0.1676000D+02 0.6207000D+01 0.5224000D+03 0.1473000D+03 0.4755000D+02
EXPONENTS  0.1676000D+02 0.6207000D+01 0.6882000D+00 0.1752000D+01 0.2384000D+00
EXPONENTS  0.7376000D-01 0.3446000D+02 0.7749000D+01 0.2280000D+01 0.3446000D+02
EXPONENTS  0.7749000D+01 0.2280000D+01 0.3446000D+02 0.7749000D+01 0.2280000D+01
EXPONENTS  0.7156000D+00 0.7156000D+00 0.7156000D+00 0.2140000D+00 0.2140000D+00
EXPONENTS  0.2140000D+00 0.5974000D-01 0.5974000D-01 0.5974000D-01 0.2314000D+01
EXPONENTS  0.2314000D+01 0.2314000D+01 0.2314000D+01 0.2314000D+01 0.2314000D+01
EXPONENTS  0.6450000D+00 0.6450000D+00 0.6450000D+00 0.6450000D+00 0.6450000D+00
EXPONENTS  0.6450000D+00 0.2140000D+00 0.2140000D+00 0.2140000D+00 0.2140000D+00
EXPONENTS  0.2140000D+00 0.2140000D+00 0.1428000D+01 0.1428000D+01 0.1428000D+01
EXPONENTS  0.1428000D+01 0.1428000D+01 0.1428000D+01 0.1428000D+01 0.1428000D+01
EXPONENTS  0.1428000D+01 0.1428000D+01 0.5000000D+00 0.5000000D+00 0.5000000D+00
EXPONENTS  0.5000000D+00 0.5000000D+00 0.5000000D+00 0.5000000D+00 0.5000000D+00
EXPONENTS  0.5000000D+00 0.5000000D+00 0.8236000D+04 0.1235000D+04 0.2808000D+03
EXPONENTS  0.7927000D+02 0.2559000D+02 0.8997000D+01 0.3319000D+01 0.2808000D+03
EXPONENTS  0.7927000D+02 0.2559000D+02 0.8997000D+01 0.3319000D+01 0.3643000D+00
EXPONENTS  0.9059000D+00 0.1285000D+00 0.4402000D-01 0.1871000D+02 0.4133000D+01
EXPONENTS  0.1200000D+01 0.1871000D+02 0.4133000D+01 0.1200000D+01 0.1871000D+02
EXPONENTS  0.4133000D+01 0.1200000D+01 0.3827000D+00 0.3827000D+00 0.3827000D+00
EXPONENTS  0.1209000D+00 0.1209000D+00 0.1209000D+00 0.3569000D-01 0.3569000D-01
EXPONENTS  0.3569000D-01 0.1097000D+01 0.1097000D+01 0.1097000D+01 0.1097000D+01
EXPONENTS  0.1097000D+01 0.1097000D+01 0.3180000D+00 0.3180000D+00 0.3180000D+00
EXPONENTS  0.3180000D+00 0.3180000D+00 0.3180000D+00 0.1000000D+00 0.1000000D+00
EXPONENTS  0.1000000D+00 0.1000000D+00 0.1000000D+00 0.1000000D+00 0.7610000D+00
EXPONENTS  0.7610000D+00 0.7610000D+00 0.7610000D+00 0.7610000D+00 0.7610000D+00
EXPONENTS  0.7610000D+00 0.7610000D+00 0.7610000D+00 0.7610000D+00 0.2680000D+00
EXPONENTS  0.2680000D+00 0.2680000D+00 0.2680000D+00 0.2680000D+00 0.2680000D+00
EXPONENTS  0.2680000D+00 0.2680000D+00 0.2680000D+00 0.2680000D+00 0.1950000D+05
EXPONENTS  0.2923000D+04 0.6645000D+03 0.1875000D+03 0.6062000D+02 0.2142000D+02
EXPONENTS  0.7950000D+01 0.6645000D+03 0.1875000D+03 0.6062000D+02 0.2142000D+02
EXPONENTS  0.7950000D+01 0.8815000D+00 0.2257000D+01 0.3041000D+00 0.9158000D-01
EXPONENTS  0.4388000D+02 0.9926000D+01 0.2930000D+01 0.4388000D+02 0.9926000D+01
EXPONENTS  0.2930000D+01 0.4388000D+02 0.9926000D+01 0.2930000D+01 0.9132000D+00
EXPONENTS  0.9132000D+00 0.9132000D+00 0.2672000D+00 0.2672000D+00 0.2672000D+00
EXPONENTS  0.7361000D-01 0.7361000D-01 0.7361000D-01 0.3107000D+01 0.3107000D+01
EXPONENTS  0.3107000D+01 0.3107000D+01 0.3107000D+01 0.3107000D+01 0.8550000D+00
EXPONENTS  0.8550000D+00 0.8550000D+00 0.8550000D+00 0.8550000D+00 0.8550000D+00
EXPONENTS  0.2920000D+00 0.2920000D+00 0.2920000D+00 0.2920000D+00 0.2920000D+00
EXPONENTS  0.2920000D+00 0.1917000D+01 0.1917000D+01 0.1917000D+01 0.1917000D+01
EXPONENTS  0.1917000D+01 0.1917000D+01 0.1917000D+01 0.1917000D+01 0.1917000D+01
EXPONENTS  0.1917000D+01 0.7240000D+00 0.7240000D+00 0.7240000D+00 0.7240000D+00
EXPONENTS  0.7240000D+00 0.7240000D+00 0.7240000D+00 0.7240000D+00 0.7240000D+00
EXPONENTS  0.7240000D+00 0.1950000D+05 0.2923000D+04 0.6645000D+03 0.1875000D+03
EXPONENTS  0.6062000D+02 0.2142000D+02 0.7950000D+01 0.6645000D+03 0.1875000D+03
EXPONENTS  0.6062000D+02 0.2142000D+02 0.7950000D+01 0.8815000D+00 0.2257000D+01
EXPONENTS  0.3041000D+00 0.9158000D-01 0.4388000D+02 0.9926000D+01 0.2930000D+01
EXPONENTS  0.4388000D+02 0.9926000D+01 0.2930000D+01 0.4388000D+02 0.9926000D+01
EXPONENTS  0.2930000D+01 0.9132000D+00 0.9132000D+00 0.9132000D+00 0.2672000D+00
EXPONENTS  0.2672000D+00 0.2672000D+00 0.7361000D-01 0.7361000D-01 0.7361000D-01
EXPONENTS  0.3107000D+01 0.3107000D+01 0.3107000D+01 0.3107000D+01 0.3107000D+01
EXPONENTS  0.3107000D+01 0.8550000D+00 0.8550000D+00 0.8550000D+00 0.8550000D+00
EXPONENTS  0.8550000D+00 0.8550000D+00 0.2920000D+00 0.2920000D+00 0.2920000D+00
EXPONENTS  0.2920000D+00 0.2920000D+00 0.2920000D+00 0.1917000D+01 0.1917000D+01
EXPONENTS  0.1917000D+01 0.1917000D+01 0.1917000D+01 0.1917000D+01 0.1917000D+01
EXPONENTS  0.1917000D+01 0.1917000D+01 0.1917000D+01 0.7240000D+00 0.7240000D+00
EXPONENTS  0.7240000D+00 0.7240000D+00 0.7240000D+00 0.7240000D+00 0.7240000D+00
EXPONENTS  0.7240000D+00 0.7240000D+00 0.7240000D+00
MO    1     MO 0.0        OCC NO =    2.0000067  ORB. ENERGY =    0.000000
 -0.31677195D+00 -0.59041084D+00 -0.10011245D+01 -0.15150955D+01 -0.18899623D+01
 -0.16218688D+01 -0.62108959D+00 -0.39243897D-04 -0.42106126D-03 -0.15521111D-02
 -0.45382818D-02 -0.54688502D-02  0.65878097D-02 -0.28594737D-01  0.47172769D-03
 -0.52485958D-04 -0.47636843D-13 -0.46191714D-13 -0.31160657D-13 -0.33690575D-12
 -0.32668525D-12 -0.22037994D-12  0.19973277D-01  0.19367361D-01  0.13065107D-01
 -0.10184491D-13 -0.38109149D-14  0.26046521D-02  0.29889378D-14  0.81585530D-13
  0.67172917D-03  0.55039838D-15  0.12029414D-14  0.14586799D-04  0.12283535D-02
  0.66234120D-03 -0.18906947D-02  0.10179564D-13  0.14762505D-13  0.77454997D-13
  0.48561441D-04 -0.22001042D-04 -0.26560399D-04 -0.19670627D-14 -0.36817918D-14
 -0.37342608D-13  0.50669109D-04 -0.22183992D-05 -0.48450710D-04 -0.36204941D-15
 -0.25172492D-14 -0.25768587D-13  0.10275464D-15 -0.71640228D-14 -0.61880557D-03
  0.14498449D-14  0.79130672D-13  0.11327518D-02 -0.17581088D-14 -0.57638604D-13
  0.72366496D-03 -0.54742646D-14 -0.10916954D-14  0.18582334D-14  0.13736679D-04
 -0.45658056D-15 -0.30027732D-13 -0.21158959D-04  0.37316668D-14  0.24453032D-13
 -0.20051077D-04  0.94074048D-15  0.24216962D+00  0.45145296D+00  0.76301700D+00
  0.11469569D+01  0.14088311D+01  0.11890037D+01  0.44709645D+00  0.26949210D-04
  0.20142865D-03  0.75278484D-03  0.21001525D-02  0.28136253D-02 -0.33223669D-02
  0.19582854D-01 -0.29333984D-04  0.15599609D-04 -0.16507790D-13 -0.15477103D-13
 -0.11020619D-13  0.31209367D-13  0.29260765D-13  0.20835408D-13 -0.41378631D-02
 -0.38795097D-02 -0.27624420D-02 -0.16522693D-13 -0.14215856D-12  0.52899645D-03
 -0.40693618D-14 -0.43165604D-13  0.79582766D-04 -0.27709546D-15 -0.11169354D-14
  0.97321261D-06 -0.96772810D-03  0.35976294D-03  0.60796516D-03  0.53424212D-14
 -0.38836724D-14  0.22265602D-12  0.21331742D-03 -0.12976197D-03 -0.83555455D-04
 -0.31653334D-14 -0.97840334D-15  0.17483122D-12 -0.21393616D-06 -0.23797230D-05
  0.25936591D-05 -0.16166475D-15 -0.12297784D-15 -0.10014543D-14  0.24904205D-14
 -0.46117544D-14  0.58095012D-03 -0.18195562D-14  0.20854994D-12 -0.37528510D-03
 -0.56517052D-14 -0.19471468D-12 -0.13675653D-02  0.30608775D-14  0.54997766D-15
  0.28448833D-13 -0.87350378D-04 -0.70361066D-15  0.19742445D-13 -0.11876056D-04
 -0.94632231D-15 -0.10508894D-12  0.27392719D-03  0.23118517D-14 -0.96777004D-01
 -0.18039250D+00 -0.30580548D+00 -0.46303085D+00 -0.57889055D+00 -0.49794968D+00
 -0.19097442D+00 -0.11734361D-04 -0.15534097D-03 -0.56422668D-03 -0.16737678D-02
 -0.19286793D-02  0.23426683D-02 -0.84547579D-02  0.78687128D-03  0.28314687D-04
 -0.17171116D-12 -0.16792976D-12 -0.11095829D-12 -0.73426235D-02 -0.71809254D-02
 -0.47447410D-02 -0.60478232D-02 -0.59146390D-02 -0.39080521D-02 -0.36894378D-13
 -0.12516477D-02 -0.11527839D-02 -0.60669493D-14 -0.14368560D-03 -0.74193423D-04
  0.34559547D-15 -0.36687343D-05 -0.21975151D-05  0.68859921D-04 -0.67599020D-04
 -0.12609011D-05 -0.19669385D-14  0.56894380D-14  0.71050475D-03  0.14576264D-03
 -0.59248861D-04 -0.86513780D-04 -0.39546994D-14 -0.34063839D-14 -0.77656394D-03
  0.39317818D-04 -0.21271702D-04 -0.18046116D-04  0.25405364D-15  0.59188761D-15
  0.15139227D-06  0.71564505D-14 -0.23546281D-04  0.16801890D-05 -0.14120439D-13
  0.26239000D-03  0.10920705D-03 -0.73489126D-14 -0.19175116D-03 -0.11424761D-03
 -0.70421107D-14 -0.66824409D-15  0.64952258D-04  0.98080824D-04  0.17585697D-14
  0.15907455D-03  0.20874815D-03  0.24616257D-15 -0.35393132D-03 -0.50299062D-03
  0.28551997D-14 -0.96777005D-01 -0.18039250D+00 -0.30580548D+00 -0.46303086D+00
 -0.57889055D+00 -0.49794968D+00 -0.19097442D+00 -0.11734361D-04 -0.15534097D-03
 -0.56422668D-03 -0.16737678D-02 -0.19286793D-02  0.23426683D-02 -0.84547579D-02
  0.78687128D-03  0.28314687D-04  0.59847214D-13  0.58529269D-13  0.38672762D-13
  0.73426235D-02  0.71809254D-02  0.47447410D-02 -0.60478232D-02 -0.59146390D-02
 -0.39080521D-02  0.12771539D-13  0.12516477D-02 -0.11527839D-02  0.85610537D-14
  0.14368560D-03 -0.74193424D-04  0.58820164D-15  0.36687343D-05 -0.21975151D-05
  0.68859921D-04 -0.67599020D-04 -0.12609011D-05 -0.49336933D-14  0.15487491D-13
 -0.71050475D-03  0.14576264D-03 -0.59248861D-04 -0.86513781D-04 -0.18476709D-14
 -0.29267788D-16  0.77656394D-03  0.39317818D-04 -0.21271702D-04 -0.18046116D-04
 -0.41013093D-14  0.28820169D-14 -0.15139214D-06  0.50164876D-14  0.23546281D-04
  0.16801890D-05 -0.14937668D-13 -0.26239000D-03  0.10920705D-03 -0.11179495D-15
  0.19175116D-03 -0.11424761D-03  0.26952729D-13 -0.21983585D-14 -0.64952258D-04
  0.98080824D-04  0.51596548D-14 -0.15907455D-03  0.20874815D-03  0.14354207D-14
  0.35393132D-03 -0.50299062D-03 -0.11456005D-13
MO    2     MO 0.0        OCC NO =    2.0000037  ORB. ENERGY =    0.000000
 -0.37216586D+00 -0.69365596D+00 -0.11761912D+01 -0.17800403D+01 -0.22204599D+01
 -0.19054850D+01 -0.72969951D+00 -0.43952511D-04 -0.47158160D-03 -0.17383386D-02
 -0.50828000D-02 -0.61250212D-02  0.73782371D-02 -0.34013050D-01  0.62162230D-03
  0.80995146D-04 -0.36664012D-13 -0.35551759D-13 -0.23983007D-13 -0.15135488D-12
 -0.14676332D-12 -0.99005672D-13  0.88832404D-02  0.86137551D-02  0.58107883D-02
 -0.60616082D-14 -0.43339619D-13 -0.17645719D-02  0.65797626D-14 -0.16226790D-13
 -0.13636228D-03  0.54818990D-16  0.49716290D-14  0.22564949D-05  0.76329496D-03
  0.14875484D-03 -0.91204980D-03  0.47930038D-14  0.26181686D-13  0.53100585D-14
 -0.32888639D-03 -0.33997249D-03  0.66885888D-03  0.12756572D-14 -0.81821996D-14
  0.88564945D-14 -0.39460837D-04  0.13887437D-04  0.25573400D-04  0.70058487D-15
 -0.27452300D-14  0.72363204D-14  0.13822291D-14  0.86402965D-15  0.31289329D-03
  0.70937892D-15  0.18832967D-13 -0.31073383D-03 -0.48560663D-14 -0.21425056D-13
 -0.62794606D-03  0.98023767D-14 -0.68909590D-15  0.17154426D-14 -0.67527496D-04
 -0.13614105D-14 -0.81322837D-14  0.11523691D-03  0.34286982D-14  0.29859559D-14
  0.87345581D-04 -0.18583935D-14 -0.16450742D+00 -0.30667497D+00 -0.51832248D+00
 -0.77913535D+00 -0.95702823D+00 -0.80769806D+00 -0.30371556D+00 -0.14294519D-04
 -0.10684267D-03 -0.39929545D-03 -0.11139721D-02 -0.14924155D-02  0.17622645D-02
 -0.13779405D-01  0.12189529D-03 -0.39044040D-05 -0.16955194D-13 -0.15896572D-13
 -0.11319306D-13 -0.34610351D-13 -0.32449404D-13 -0.23105909D-13  0.24390188D-02
  0.22867352D-02  0.16282917D-02 -0.90531629D-14 -0.28514402D-13 -0.19604268D-02
 -0.18480044D-14  0.53389340D-13 -0.15458195D-04  0.74478453D-16 -0.18020250D-14
 -0.82451617D-05  0.78863420D-03  0.16167919D-03 -0.95031339D-03 -0.54493266D-14
  0.23460305D-15  0.91626266D-13 -0.13400479D-03  0.34500852D-03 -0.21100374D-03
  0.41195869D-14 -0.94109767D-14  0.41146435D-13 -0.35088770D-05 -0.14513882D-04
  0.18022759D-04  0.85377175D-16 -0.53480000D-15 -0.10690737D-13  0.38275995D-15
 -0.64484234D-14 -0.21850543D-03  0.29136694D-14  0.76266107D-13  0.49861178D-03
 -0.40619493D-14 -0.56920837D-13  0.15690452D-03 -0.33211610D-14  0.19851078D-15
  0.12686502D-14  0.33257258D-04  0.12663068D-14  0.99999866D-16  0.73824738D-04
 -0.18618392D-14 -0.39059504D-14 -0.17359651D-03 -0.30439305D-14  0.18590818D+00
  0.34653318D+00  0.58745094D+00  0.88948016D+00  0.11120461D+01  0.95655907D+00
  0.36686099D+00  0.19082194D-04  0.25261251D-03  0.91753462D-03  0.27218492D-02
  0.31363814D-02 -0.38096024D-02  0.16937675D-01 -0.83722494D-03 -0.29181787D-04
  0.23306250D-13  0.22793004D-13  0.15060301D-13  0.85442641D-02  0.83561037D-02
  0.55212310D-02  0.52647966D-02  0.51488561D-02  0.34020669D-02  0.48781455D-14
  0.74783713D-03  0.24063355D-03  0.25630873D-14  0.77181418D-04 -0.22769936D-04
 -0.53175187D-16 -0.15752855D-05  0.20949398D-04 -0.20024687D-04  0.14320753D-03
 -0.12318285D-03 -0.24063938D-13 -0.68450664D-14 -0.33637285D-03  0.11729055D-04
 -0.57386936D-04  0.45657881D-04  0.49197013D-15  0.60983045D-15  0.19245436D-04
 -0.15432621D-04  0.15241095D-04  0.19152638D-06  0.10027173D-14 -0.36437136D-15
 -0.20584871D-05 -0.75139629D-15  0.10591589D-03 -0.11948502D-03 -0.32066738D-14
  0.98618898D-04  0.57570668D-03  0.54608627D-14 -0.41636655D-03 -0.21725164D-03
  0.60187760D-14  0.70961050D-16 -0.53439564D-04 -0.30472960D-05  0.13877216D-14
 -0.13365364D-03 -0.28685164D-03 -0.16006047D-14  0.29397234D-03  0.29599353D-03
  0.16097564D-15  0.18590818D+00  0.34653318D+00  0.58745094D+00  0.88948016D+00
  0.11120461D+01  0.95655907D+00  0.36686099D+00  0.19082194D-04  0.25261251D-03
  0.91753462D-03  0.27218492D-02  0.31363814D-02 -0.38096024D-02  0.16937675D-01
 -0.83722494D-03 -0.29181787D-04 -0.12258779D-12 -0.11988818D-12 -0.79215191D-13
 -0.85442641D-02 -0.83561037D-02 -0.55212310D-02  0.52647966D-02  0.51488561D-02
  0.34020669D-02 -0.27898198D-13 -0.74783713D-03  0.24063355D-03 -0.94696852D-14
 -0.77181418D-04 -0.22769936D-04 -0.21454273D-15  0.15752855D-05  0.20949398D-04
 -0.20024687D-04  0.14320753D-03 -0.12318285D-03  0.21330028D-14 -0.34345129D-14
  0.33637285D-03  0.11729055D-04 -0.57386936D-04  0.45657880D-04  0.32294729D-14
 -0.19209980D-14 -0.19245436D-04 -0.15432621D-04  0.15241095D-04  0.19152638D-06
  0.31919842D-14 -0.29364989D-14  0.20584871D-05  0.25040066D-14 -0.10591589D-03
 -0.11948502D-03 -0.23154797D-14 -0.98618898D-04  0.57570668D-03 -0.51965402D-14
  0.41636655D-03 -0.21725164D-03 -0.12747328D-13  0.10667140D-14  0.53439564D-04
 -0.30472960D-05 -0.14746838D-14  0.13365364D-03 -0.28685164D-03 -0.17254583D-14
 -0.29397234D-03  0.29599353D-03  0.10209322D-13
MO    3     MO 0.0        OCC NO =    2.0000022  ORB. ENERGY =    0.000000
  0.25169580D-09  0.46911958D-09  0.79545817D-09  0.12038414D-08  0.15016972D-08
  0.12886796D-08  0.49349583D-09  0.31195840D-13  0.33471089D-12  0.12338074D-11
  0.36075804D-11  0.43473098D-11 -0.52367953D-11  0.22886140D-10 -0.52551171D-12
 -0.89772298D-13  0.13857695D-13  0.13437303D-13  0.90647249D-14 -0.87123563D-03
 -0.84480549D-03 -0.56990080D-03 -0.94298462D-11 -0.91437788D-11 -0.61683391D-11
  0.80025031D-14 -0.98975485D-04  0.85725397D-13  0.38722128D-14  0.96563984D-04
 -0.18970143D-12  0.21953737D-15  0.14674688D-04  0.51615348D-14 -0.57279862D-12
 -0.31549261D-12  0.88829123D-12  0.11423860D-13 -0.79081139D-14  0.17292864D-03
  0.65636410D-13  0.22821177D-12 -0.29384818D-12 -0.19285200D-14 -0.61521206D-14
 -0.68954795D-04 -0.20730212D-13  0.13207063D-13  0.75231490D-14 -0.80403172D-15
 -0.17447994D-14 -0.25688155D-04 -0.19256234D-14 -0.13217730D-04  0.14434487D-14
 -0.99171749D-15  0.15711837D-03 -0.27718836D-13  0.67685876D-14 -0.11746518D-03
  0.23388490D-13 -0.82919099D-14 -0.45787959D-15  0.34114798D-05  0.53192332D-13
 -0.57099176D-15 -0.66742427D-04 -0.22033324D-13  0.19446305D-14  0.56507988D-04
 -0.13754367D-12  0.30433932D-14  0.84080525D-11  0.15674304D-10  0.26491709D-10
  0.39821979D-10  0.48914169D-10  0.41281833D-10  0.15523047D-10 -0.23967826D-14
 -0.17914465D-13 -0.66950445D-13 -0.18678132D-12 -0.25023547D-12  0.29548143D-12
  0.70635244D-12 -0.28786184D-13  0.59530222D-14  0.20943061D-13  0.19635451D-13
  0.13981611D-13 -0.53141603D-04 -0.49823631D-04 -0.35477393D-04 -0.14085627D-13
 -0.13206171D-13 -0.94035804D-14  0.88739433D-15 -0.35956059D-03  0.46140483D-12
 -0.55146754D-15  0.55167601D-04  0.84349115D-13 -0.30472975D-16 -0.62963999D-05
 -0.16025059D-15 -0.32121638D-12 -0.80284451D-14  0.32924482D-12  0.12612516D-14
 -0.17457558D-14  0.56598653D-03 -0.77782202D-13 -0.56991446D-13  0.13477365D-12
 -0.20655469D-15 -0.50608729D-14  0.36016412D-03  0.32756491D-14 -0.38998157D-14
  0.62416660D-15 -0.11500861D-15 -0.29123947D-15 -0.28553488D-04  0.71179415D-15
 -0.17438365D-04  0.59267616D-13  0.21532762D-14  0.50954927D-03  0.19547807D-12
 -0.42886587D-14 -0.45723418D-03 -0.37328092D-12  0.10540782D-14 -0.59595930D-16
  0.45376273D-04  0.54943746D-13  0.73554381D-15  0.30036924D-04 -0.20251987D-13
 -0.55675602D-15 -0.16616574D-03 -0.14457925D-12  0.21148095D-14  0.42246340D+00
  0.78747250D+00  0.13349413D+01  0.20212817D+01  0.25270473D+01  0.21737138D+01
  0.83366605D+00  0.38791853D-04  0.51353150D-03  0.18652399D-02  0.55331989D-02
  0.63758941D-02 -0.77444731D-02  0.39140049D-01 -0.15689223D-03  0.84021860D-04
  0.57651987D-13  0.56382384D-13  0.37254225D-13  0.95909446D-02  0.93797343D-02
  0.61975870D-02  0.74867820D-02  0.73219093D-02  0.48378950D-02  0.14704095D-13
 -0.18709111D-03  0.15698637D-03 -0.39869864D-15  0.23832311D-03  0.40245064D-03
 -0.17387989D-15  0.21058035D-04  0.43155700D-05 -0.13339264D-03  0.15651056D-03
 -0.23117919D-04 -0.19725406D-14 -0.44700806D-14  0.21777689D-03  0.15199468D-03
 -0.24199006D-03  0.89995373D-04  0.19518790D-14  0.47618585D-15 -0.51365476D-03
 -0.60114096D-04  0.13936394D-04  0.46177701D-04 -0.10440013D-14 -0.55859037D-15
  0.13318877D-03  0.15769242D-14 -0.27245569D-03  0.61047580D-05 -0.13783848D-13
  0.88602142D-03  0.19362951D-03  0.90530755D-14 -0.68654359D-04 -0.21194379D-03
 -0.17848957D-13 -0.55593890D-15  0.51429182D-04  0.21461797D-04  0.20036362D-14
 -0.21165968D-03 -0.36018449D-04 -0.33581952D-15  0.57372131D-04 -0.28366944D-04
  0.20469782D-15 -0.42246340D+00 -0.78747250D+00 -0.13349413D+01 -0.20212817D+01
 -0.25270473D+01 -0.21737138D+01 -0.83366604D+00 -0.38791853D-04 -0.51353150D-03
 -0.18652398D-02 -0.55331989D-02 -0.63758941D-02  0.77444731D-02 -0.39140049D-01
  0.15689223D-03 -0.84021859D-04  0.13571664D-12  0.13272791D-12  0.87698944D-13
  0.95909446D-02  0.93797343D-02  0.61975870D-02 -0.74867820D-02 -0.73219093D-02
 -0.48378950D-02  0.34299442D-13 -0.18709111D-03 -0.15698637D-03  0.48094008D-14
  0.23832311D-03 -0.40245064D-03  0.14025489D-15  0.21058035D-04 -0.43155700D-05
  0.13339264D-03 -0.15651056D-03  0.23117919D-04 -0.11872193D-13  0.18175950D-13
  0.21777689D-03 -0.15199468D-03  0.24199006D-03 -0.89995373D-04 -0.43562252D-14
  0.19302128D-14 -0.51365476D-03  0.60114096D-04 -0.13936394D-04 -0.46177701D-04
 -0.29417317D-15 -0.26595469D-15  0.13318877D-03  0.11642841D-14 -0.27245569D-03
 -0.61047580D-05 -0.23861091D-13  0.88602142D-03 -0.19362951D-03  0.20368239D-13
 -0.68654359D-04  0.21194379D-03  0.99835837D-14 -0.25481700D-15  0.51429182D-04
 -0.21461797D-04  0.52909188D-14 -0.21165968D-03  0.36018449D-04 -0.45264678D-14
  0.57372131D-04  0.28366944D-04 -0.14654235D-14
MO    4     MO 0.0        OCC NO =    2.0000016  ORB. ENERGY =    0.000000
  0.10497547D+00  0.19565702D+00  0.33176397D+00  0.50208949D+00  0.62631706D+00
  0.53747322D+00  0.20582369D+00  0.13516571D-04  0.14502394D-03  0.53458554D-03
  0.15630968D-02  0.18836076D-02 -0.22690050D-02  0.96736060D-02 -0.40283146D-03
 -0.17524958D-03 -0.35952268D-13 -0.34861607D-13 -0.23517434D-13  0.40301954D-12
  0.39079338D-12  0.26362691D-12  0.54579335D-03  0.52923595D-03  0.35701945D-03
  0.16987629D-14  0.45443734D-13  0.15604918D-02  0.22225404D-13 -0.48788240D-13
  0.11270101D-03  0.13940918D-14 -0.12240380D-13  0.19343705D-04  0.12098678D-03
 -0.39976994D-04 -0.81009786D-04  0.15647422D-13  0.37196215D-13 -0.13771103D-12
  0.52317745D-04  0.28481232D-03 -0.33713007D-03 -0.23981368D-14 -0.23666629D-13
  0.78975445D-13 -0.11899265D-04  0.22253791D-04 -0.10354526D-04 -0.83487369D-15
 -0.10482506D-13  0.11760940D-13  0.55644146D-14  0.10728642D-13 -0.36636432D-03
  0.14088753D-14 -0.80227737D-13  0.70273988D-03 -0.18102119D-13  0.48041812D-13
  0.39635309D-03 -0.11641604D-13 -0.35360574D-14  0.27892002D-14  0.79317190D-04
 -0.36636699D-14  0.42465590D-13 -0.15585739D-04  0.14271842D-13 -0.50833190D-13
 -0.22236583D-03  0.34451070D-14  0.14697686D+00  0.27399448D+00  0.46308800D+00
  0.69610764D+00  0.85504356D+00  0.72162660D+00  0.27135045D+00  0.11726469D-04
  0.87648087D-04  0.32756091D-03  0.91384395D-03  0.12242989D-02 -0.14456688D-02
  0.11791496D-01 -0.17896132D-05  0.23136359D-04 -0.24358145D-14 -0.22837310D-14
 -0.16261525D-14 -0.25393369D-13 -0.23807897D-13 -0.16952641D-13 -0.23267385D-02
 -0.21814652D-02 -0.15533332D-02 -0.28771342D-13  0.29745333D-12  0.63529014D-03
 -0.98494122D-14 -0.52995127D-13  0.20518501D-03 -0.35348968D-15  0.47013483D-14
 -0.13747768D-05 -0.10462160D-02  0.30204367D-03  0.74417233D-03 -0.12909528D-14
 -0.61230576D-14 -0.36464528D-12 -0.24308685D-04 -0.10478762D-03  0.12909630D-03
  0.82195281D-15 -0.20918677D-13 -0.19804733D-12  0.41174109D-05 -0.12675309D-04
  0.85578980D-05  0.16470969D-15 -0.13239524D-14  0.23934676D-13  0.18828159D-14
  0.51067783D-14  0.46796865D-03  0.48181356D-14 -0.32239082D-12  0.20711903D-03
 -0.10466583D-13  0.30707049D-12 -0.16110250D-02  0.30946015D-14  0.12418838D-14
 -0.18266380D-13  0.41721372D-04  0.11839118D-14 -0.14790768D-13 -0.24922491D-04
 -0.49095631D-14  0.69589908D-13 -0.10024162D-03  0.15407673D-14  0.36678201D+00
  0.68368229D+00  0.11589938D+01  0.17548733D+01  0.21939782D+01  0.18872147D+01
  0.72378745D+00  0.31542787D-04  0.41756744D-03  0.15166809D-02  0.44992053D-02
  0.51844254D-02 -0.62972569D-02  0.34303659D-01  0.27595564D-03  0.84116966D-04
 -0.31371002D-13 -0.30680155D-13 -0.20271675D-13  0.61616015D-02  0.60259117D-02
  0.39815746D-02  0.39943413D-02  0.39063785D-02  0.25811095D-02 -0.94319672D-14
 -0.51692933D-03 -0.61601769D-03 -0.62542198D-15  0.31083747D-03  0.17096465D-03
  0.69495672D-15  0.52273345D-05  0.13685829D-04 -0.23597224D-03  0.16925281D-03
  0.66719434D-04 -0.10651972D-13  0.30642432D-13  0.76586156D-03  0.24562213D-03
 -0.16806933D-03 -0.77552802D-04 -0.46042105D-14 -0.40790622D-14 -0.96428416D-03
 -0.44493182D-04  0.34272767D-04  0.10220415D-04  0.11257678D-14  0.20401958D-15
  0.65853010D-04  0.21384970D-14  0.24278891D-04 -0.72743457D-04 -0.78644168D-14
  0.26645003D-03  0.46112869D-03  0.14489257D-14 -0.33928671D-03 -0.24289832D-03
 -0.67198070D-14 -0.12161564D-14  0.33178642D-04  0.95364210D-04  0.31067090D-14
  0.10932393D-03  0.43796370D-04  0.54176012D-15 -0.20885986D-03 -0.32988900D-03
 -0.13119851D-14  0.36678201D+00  0.68368229D+00  0.11589938D+01  0.17548734D+01
  0.21939782D+01  0.18872147D+01  0.72378745D+00  0.31542787D-04  0.41756744D-03
  0.15166809D-02  0.44992053D-02  0.51844254D-02 -0.62972569D-02  0.34303659D-01
  0.27595564D-03  0.84116966D-04 -0.41428068D-13 -0.40515746D-13 -0.26770466D-13
 -0.61616015D-02 -0.60259117D-02 -0.39815746D-02  0.39943413D-02  0.39063785D-02
  0.25811095D-02 -0.10262002D-13  0.51692933D-03 -0.61601769D-03  0.31771621D-15
 -0.31083747D-03  0.17096465D-03  0.37930779D-15 -0.52273345D-05  0.13685829D-04
 -0.23597224D-03  0.16925281D-03  0.66719434D-04  0.19276680D-14  0.11169738D-14
 -0.76586156D-03  0.24562213D-03 -0.16806933D-03 -0.77552802D-04  0.11836820D-14
  0.30377361D-15  0.96428416D-03 -0.44493182D-04  0.34272767D-04  0.10220415D-04
 -0.14448111D-14 -0.71547814D-15 -0.65853010D-04  0.12234620D-14 -0.24278890D-04
 -0.72743457D-04 -0.14958317D-13 -0.26645004D-03  0.46112869D-03  0.11287931D-13
  0.33928671D-03 -0.24289832D-03  0.46234420D-14 -0.10441548D-14 -0.33178642D-04
  0.95364210D-04  0.58166072D-14 -0.10932393D-03  0.43796370D-04 -0.26841428D-14
  0.20885986D-03 -0.32988900D-03  0.11058387D-14
MO    5     MO 0.0        OCC NO =    1.9861555  ORB. ENERGY =    0.000000
 -0.10253213D-01 -0.19110304D-01 -0.32404206D-01 -0.49040320D-01 -0.61173934D-01
 -0.52496336D-01 -0.20103308D-01 -0.16625314D-03 -0.17837871D-02 -0.65753752D-02
 -0.19226011D-01 -0.23168279D-01  0.27908647D-01  0.14594734D-01  0.16772934D-03
 -0.18684812D-02 -0.81963008D-14 -0.79476547D-14 -0.53614409D-14  0.14090090D-11
  0.13662648D-11  0.92167413D-12 -0.71352431D-01 -0.69187857D-01 -0.46673720D-01
  0.71850723D-14  0.57273503D-13 -0.13353105D-01  0.10522384D-13 -0.19873532D-12
  0.20872906D-02  0.70451518D-15 -0.57975401D-14  0.22707745D-03 -0.41389833D-02
 -0.44168066D-02  0.85557899D-02 -0.22495383D-14  0.25137976D-13 -0.15045347D-12
 -0.51129326D-03  0.62341141D-03 -0.11211815D-03  0.66769543D-15 -0.16741356D-13
  0.80978498D-13  0.12247891D-03  0.52823321D-03 -0.65071213D-03  0.10312875D-15
 -0.47766703D-14  0.51644972D-13 -0.12583487D-14 -0.24708329D-13 -0.16573602D-02
  0.42841358D-14  0.69683990D-13  0.35984697D-02 -0.50908961D-15  0.44409959D-14
  0.13736108D-02  0.62724888D-14 -0.16936518D-14  0.22376867D-14  0.50482228D-03
 -0.24163646D-14 -0.42953750D-13 -0.20362091D-03  0.74973199D-14  0.36240690D-13
 -0.13108459D-02 -0.11374211D-14 -0.17128898D-01 -0.31931718D-01 -0.53968953D-01
 -0.81125402D-01 -0.99648026D-01 -0.84099419D-01 -0.31623578D-01 -0.31538846D-03
 -0.23573333D-02 -0.88098929D-02 -0.24578229D-01 -0.32928051D-01  0.38881889D-01
  0.15599173D-01  0.21763682D-02  0.21326281D-03 -0.14640245D-13 -0.13726160D-13
 -0.97738439D-14  0.12844140D-11  0.12042198D-11  0.85747622D-12 -0.32575590D-01
 -0.30541686D-01 -0.21747500D-01 -0.17534905D-13  0.23502524D-12 -0.47063086D-02
 -0.31669851D-14 -0.76490317D-13  0.14205772D-02 -0.15292083D-15  0.52307603D-15
 -0.26393315D-05 -0.19177183D-01  0.87629647D-02  0.10414218D-01  0.10471812D-14
 -0.86983475D-16 -0.56123613D-12 -0.25633330D-02  0.10413218D-02  0.15220112D-02
 -0.19618053D-14 -0.11397482D-13 -0.12835530D-12  0.85022478D-04 -0.81742042D-04
 -0.32804362D-05  0.15272706D-15 -0.85208432D-15  0.28487158D-13  0.34272364D-14
 -0.14160387D-13  0.34014138D-02  0.16912487D-14 -0.76362481D-13  0.34775112D-02
 -0.11972958D-13  0.11884364D-12 -0.13681753D-01  0.17495362D-14  0.21947789D-15
 -0.10029223D-12  0.24496717D-03  0.57469766D-15  0.98600698D-14  0.34357604D-03
 -0.12331313D-14  0.29101663D-12 -0.10784775D-02 -0.68413630D-16 -0.89116003D-01
 -0.16611238D+00 -0.28159750D+00 -0.42637669D+00 -0.53306478D+00 -0.45853130D+00
 -0.17585662D+00 -0.12981964D-02 -0.17185690D-01 -0.62421552D-01 -0.18517236D+00
 -0.21337374D+00  0.25917419D+00  0.14912348D+00  0.67786031D-01  0.16772501D-02
 -0.16198862D-12 -0.15842133D-12 -0.10467567D-12 -0.36117507D-01 -0.35322133D-01
 -0.23338827D-01 -0.13301181D+00 -0.13008265D+00 -0.85951105D-01 -0.37843964D-13
 -0.32285572D-02 -0.27601695D-01 -0.77080040D-14 -0.31244489D-02 -0.62454662D-02
  0.71216596D-16 -0.45556153D-04 -0.55292388D-04 -0.59075417D-02  0.71772965D-02
 -0.12697548D-02 -0.10536217D-13  0.55154355D-14  0.13468006D-01 -0.29435870D-02
  0.40403679D-02 -0.10967809D-02 -0.20471201D-14 -0.50480957D-14  0.75130166D-02
  0.21330709D-03 -0.21189770D-03 -0.14093903D-05 -0.16072541D-14 -0.40123640D-15
 -0.85281306D-03  0.32595752D-14  0.16199129D-02 -0.20872368D-02 -0.34284944D-14
 -0.63172036D-02 -0.23518736D-02 -0.63502313D-14  0.14574648D-02  0.86135842D-02
 -0.11775184D-13 -0.20877512D-15  0.26801861D-03 -0.23906834D-03 -0.33889848D-16
 -0.84459841D-03 -0.10273520D-02  0.66021520D-15  0.40542593D-04  0.17445570D-02