 f2co-wavefunction
GAUSSIAN            184 MOL ORBITALS    288 PRIMITIVES        4 NUCLEI
  O    1    (CENTRE  1)   0.00000000  0.00000000  1.28487582  CHARGE =  8.0
  C    2    (CENTRE  2)   0.00000000  0.00000000 -0.93015344  CHARGE =  6.0
  F    3    (CENTRE  3)   0.00000000 -2.00098943 -2.38919020  CHARGE =  9.0
  F    4    (CENTRE  4)   0.00000000  2.01988669 -2.38919020  CHARGE =  9.0
CENTRE ASSIGNMENTS    1  1  1  1  1  1  1  1  1  1  1  1  1  1  1  1  1  1  1  1
CENTRE ASSIGNMENTS    1  1  1  1  1  1  1  1  1  1  1  1  1  1  1  1  1  1  1  1
CENTRE ASSIGNMENTS    1  1  1  1  1  1  1  1  1  1  1  1  1  1  1  1  1  1  1  1
CENTRE ASSIGNMENTS    1  1  1  1  1  1  1  1  1  1  1  1  2  2  2  2  2  2  2  2
CENTRE ASSIGNMENTS    2  2  2  2  2  2  2  2  2  2  2  2  2  2  2  2  2  2  2  2
CENTRE ASSIGNMENTS    2  2  2  2  2  2  2  2  2  2  2  2  2  2  2  2  2  2  2  2
CENTRE ASSIGNMENTS    2  2  2  2  2  2  2  2  2  2  2  2  2  2  2  2  2  2  2  2
CENTRE ASSIGNMENTS    2  2  2  2  3  3  3  3  3  3  3  3  3  3  3  3  3  3  3  3
CENTRE ASSIGNMENTS    3  3  3  3  3  3  3  3  3  3  3  3  3  3  3  3  3  3  3  3
CENTRE ASSIGNMENTS    3  3  3  3  3  3  3  3  3  3  3  3  3  3  3  3  3  3  3  3
CENTRE ASSIGNMENTS    3  3  3  3  3  3  3  3  3  3  3  3  3  3  3  3  4  4  4  4
CENTRE ASSIGNMENTS    4  4  4  4  4  4  4  4  4  4  4  4  4  4  4  4  4  4  4  4
CENTRE ASSIGNMENTS    4  4  4  4  4  4  4  4  4  4  4  4  4  4  4  4  4  4  4  4
CENTRE ASSIGNMENTS    4  4  4  4  4  4  4  4  4  4  4  4  4  4  4  4  4  4  4  4
CENTRE ASSIGNMENTS    4  4  4  4  4  4  4  4
TYPE ASSIGNMENTS      1  1  1  1  1  1  1  1  1  1  1  1  1  1  1  1  2  2  2  3
TYPE ASSIGNMENTS      3  3  4  4  4  2  3  4  2  3  4  2  3  4  5  6  7  8  9 10
TYPE ASSIGNMENTS      5  6  7  8  9 10  5  6  7  8  9 10 11 12 13 17 14 15 18 19
TYPE ASSIGNMENTS     16 20 11 12 13 17 14 15 18 19 16 20  1  1  1  1  1  1  1  1
TYPE ASSIGNMENTS      1  1  1  1  1  1  1  1  2  2  2  3  3  3  4  4  4  2  3  4
TYPE ASSIGNMENTS      2  3  4  2  3  4  5  6  7  8  9 10  5  6  7  8  9 10  5  6
TYPE ASSIGNMENTS      7  8  9 10 11 12 13 17 14 15 18 19 16 20 11 12 13 17 14 15
TYPE ASSIGNMENTS     18 19 16 20  1  1  1  1  1  1  1  1  1  1  1  1  1  1  1  1
TYPE ASSIGNMENTS      2  2  2  3  3  3  4  4  4  2  3  4  2  3  4  2  3  4  5  6
TYPE ASSIGNMENTS      7  8  9 10  5  6  7  8  9 10  5  6  7  8  9 10 11 12 13 17
TYPE ASSIGNMENTS     14 15 18 19 16 20 11 12 13 17 14 15 18 19 16 20  1  1  1  1
TYPE ASSIGNMENTS      1  1  1  1  1  1  1  1  1  1  1  1  2  2  2  3  3  3  4  4
TYPE ASSIGNMENTS      4  2  3  4  2  3  4  2  3  4  5  6  7  8  9 10  5  6  7  8
TYPE ASSIGNMENTS      9 10  5  6  7  8  9 10 11 12 13 17 14 15 18 19 16 20 11 12
TYPE ASSIGNMENTS     13 17 14 15 18 19 16 20
EXPONENTS  0.1533000D+05 0.2299000D+04 0.5224000D+03 0.1473000D+03 0.4755000D+02
EXPONENTS  0.1676000D+02 0.6207000D+01 0.5224000D+03 0.1473000D+03 0.4755000D+02
EXPONENTS  0.1676000D+02 0.6207000D+01 0.6882000D+00 0.1752000D+01 0.2384000D+00
EXPONENTS  0.7376000D-01 0.3446000D+02 0.7749000D+01 0.2280000D+01 0.3446000D+02
EXPONENTS  0.7749000D+01 0.2280000D+01 0.3446000D+02 0.7749000D+01 0.2280000D+01
EXPONENTS  0.7156000D+00 0.7156000D+00 0.7156000D+00 0.2140000D+00 0.2140000D+00
EXPONENTS  0.2140000D+00 0.5974000D-01 0.5974000D-01 0.5974000D-01 0.2314000D+01
EXPONENTS  0.2314000D+01 0.2314000D+01 0.2314000D+01 0.2314000D+01 0.2314000D+01
EXPONENTS  0.6450000D+00 0.6450000D+00 0.6450000D+00 0.6450000D+00 0.6450000D+00
EXPONENTS  0.6450000D+00 0.2140000D+00 0.2140000D+00 0.2140000D+00 0.2140000D+00
EXPONENTS  0.2140000D+00 0.2140000D+00 0.1428000D+01 0.1428000D+01 0.1428000D+01
EXPONENTS  0.1428000D+01 0.1428000D+01 0.1428000D+01 0.1428000D+01 0.1428000D+01
EXPONENTS  0.1428000D+01 0.1428000D+01 0.5000000D+00 0.5000000D+00 0.5000000D+00
EXPONENTS  0.5000000D+00 0.5000000D+00 0.5000000D+00 0.5000000D+00 0.5000000D+00
EXPONENTS  0.5000000D+00 0.5000000D+00 0.8236000D+04 0.1235000D+04 0.2808000D+03
EXPONENTS  0.7927000D+02 0.2559000D+02 0.8997000D+01 0.3319000D+01 0.2808000D+03
EXPONENTS  0.7927000D+02 0.2559000D+02 0.8997000D+01 0.3319000D+01 0.3643000D+00
EXPONENTS  0.9059000D+00 0.1285000D+00 0.4402000D-01 0.1871000D+02 0.4133000D+01
EXPONENTS  0.1200000D+01 0.1871000D+02 0.4133000D+01 0.1200000D+01 0.1871000D+02
EXPONENTS  0.4133000D+01 0.1200000D+01 0.3827000D+00 0.3827000D+00 0.3827000D+00
EXPONENTS  0.1209000D+00 0.1209000D+00 0.1209000D+00 0.3569000D-01 0.3569000D-01
EXPONENTS  0.3569000D-01 0.1097000D+01 0.1097000D+01 0.1097000D+01 0.1097000D+01
EXPONENTS  0.1097000D+01 0.1097000D+01 0.3180000D+00 0.3180000D+00 0.3180000D+00
EXPONENTS  0.3180000D+00 0.3180000D+00 0.3180000D+00 0.1000000D+00 0.1000000D+00
EXPONENTS  0.1000000D+00 0.1000000D+00 0.1000000D+00 0.1000000D+00 0.7610000D+00
EXPONENTS  0.7610000D+00 0.7610000D+00 0.7610000D+00 0.7610000D+00 0.7610000D+00
EXPONENTS  0.7610000D+00 0.7610000D+00 0.7610000D+00 0.7610000D+00 0.2680000D+00
EXPONENTS  0.2680000D+00 0.2680000D+00 0.2680000D+00 0.2680000D+00 0.2680000D+00
EXPONENTS  0.2680000D+00 0.2680000D+00 0.2680000D+00 0.2680000D+00 0.1950000D+05
EXPONENTS  0.2923000D+04 0.6645000D+03 0.1875000D+03 0.6062000D+02 0.2142000D+02
EXPONENTS  0.7950000D+01 0.6645000D+03 0.1875000D+03 0.6062000D+02 0.2142000D+02
EXPONENTS  0.7950000D+01 0.8815000D+00 0.2257000D+01 0.3041000D+00 0.9158000D-01
EXPONENTS  0.4388000D+02 0.9926000D+01 0.2930000D+01 0.4388000D+02 0.9926000D+01
EXPONENTS  0.2930000D+01 0.4388000D+02 0.9926000D+01 0.2930000D+01 0.9132000D+00
EXPONENTS  0.9132000D+00 0.9132000D+00 0.2672000D+00 0.2672000D+00 0.2672000D+00
EXPONENTS  0.7361000D-01 0.7361000D-01 0.7361000D-01 0.3107000D+01 0.3107000D+01
EXPONENTS  0.3107000D+01 0.3107000D+01 0.3107000D+01 0.3107000D+01 0.8550000D+00
EXPONENTS  0.8550000D+00 0.8550000D+00 0.8550000D+00 0.8550000D+00 0.8550000D+00
EXPONENTS  0.2920000D+00 0.2920000D+00 0.2920000D+00 0.2920000D+00 0.2920000D+00
EXPONENTS  0.2920000D+00 0.1917000D+01 0.1917000D+01 0.1917000D+01 0.1917000D+01
EXPONENTS  0.1917000D+01 0.1917000D+01 0.1917000D+01 0.1917000D+01 0.1917000D+01
EXPONENTS  0.1917000D+01 0.7240000D+00 0.7240000D+00 0.7240000D+00 0.7240000D+00
EXPONENTS  0.7240000D+00 0.7240000D+00 0.7240000D+00 0.7240000D+00 0.7240000D+00
EXPONENTS  0.7240000D+00 0.1950000D+05 0.2923000D+04 0.6645000D+03 0.1875000D+03
EXPONENTS  0.6062000D+02 0.2142000D+02 0.7950000D+01 0.6645000D+03 0.1875000D+03
EXPONENTS  0.6062000D+02 0.2142000D+02 0.7950000D+01 0.8815000D+00 0.2257000D+01
EXPONENTS  0.3041000D+00 0.9158000D-01 0.4388000D+02 0.9926000D+01 0.2930000D+01
EXPONENTS  0.4388000D+02 0.9926000D+01 0.2930000D+01 0.4388000D+02 0.9926000D+01
EXPONENTS  0.2930000D+01 0.9132000D+00 0.9132000D+00 0.9132000D+00 0.2672000D+00
EXPONENTS  0.2672000D+00 0.2672000D+00 0.7361000D-01 0.7361000D-01 0.7361000D-01
EXPONENTS  0.3107000D+01 0.3107000D+01 0.3107000D+01 0.3107000D+01 0.3107000D+01
EXPONENTS  0.3107000D+01 0.8550000D+00 0.8550000D+00 0.8550000D+00 0.8550000D+00
EXPONENTS  0.8550000D+00 0.8550000D+00 0.2920000D+00 0.2920000D+00 0.2920000D+00
EXPONENTS  0.2920000D+00 0.2920000D+00 0.2920000D+00 0.1917000D+01 0.1917000D+01
EXPONENTS  0.1917000D+01 0.1917000D+01 0.1917000D+01 0.1917000D+01 0.1917000D+01
EXPONENTS  0.1917000D+01 0.1917000D+01 0.1917000D+01 0.7240000D+00 0.7240000D+00
EXPONENTS  0.7240000D+00 0.7240000D+00 0.7240000D+00 0.7240000D+00 0.7240000D+00
EXPONENTS  0.7240000D+00 0.7240000D+00 0.7240000D+00
MO    1     MO 0.0        OCC NO =    2.0000068  ORB. ENERGY =    0.000000
 -0.32291338D+00 -0.60185745D+00 -0.10205339D+01 -0.15444695D+01 -0.19266040D+01
 -0.16533128D+01 -0.63313099D+00 -0.40273582D-04 -0.43210911D-03 -0.15928355D-02
 -0.46573576D-02 -0.56123424D-02  0.67606612D-02 -0.29095654D-01  0.49173552D-03
 -0.50081027D-04 -0.48005261D-13 -0.46548955D-13 -0.31401650D-13 -0.23309840D-06
 -0.22602704D-06 -0.15247650D-06  0.19802867D-01  0.19202120D-01  0.12953637D-01
 -0.21737631D-14  0.34506713D-07  0.24975061D-02  0.91187420D-14 -0.67175879D-07
  0.66598164D-03  0.37162518D-15  0.18461099D-06  0.14625816D-04  0.12285164D-02
  0.65073601D-03 -0.18792524D-02  0.36838625D-14  0.20947359D-13 -0.24554402D-05
  0.47977867D-04 -0.28394087D-04 -0.19583781D-04 -0.52247224D-15 -0.11785448D-13
 -0.15514305D-05  0.50266703D-04 -0.17353953D-05 -0.48531308D-04 -0.11386430D-15
 -0.42429522D-14  0.62059988D-07 -0.14022610D-14  0.10125218D-05 -0.55321052D-03
  0.55262041D-14  0.22153858D-06  0.10375221D-02 -0.13194210D-14 -0.32591041D-05
  0.62210946D-03 -0.11469468D-14 -0.47945325D-15 -0.18342376D-06  0.12127068D-04
 -0.31732566D-14  0.39748386D-07 -0.21375276D-04  0.46116163D-14  0.51052289D-06
 -0.15005926D-04  0.11136718D-14  0.23886544D+00  0.44529330D+00  0.75260635D+00
  0.11313077D+01  0.13896089D+01  0.11727809D+01  0.44099624D+00  0.26564233D-04
  0.19855119D-03  0.74203112D-03  0.20701513D-02  0.27734320D-02 -0.32749060D-02
  0.19310546D-01 -0.41774630D-04  0.15320489D-04 -0.31340292D-13 -0.29383516D-13
 -0.20922814D-13 -0.10106413D-04 -0.94754048D-05 -0.67470527D-05 -0.40462130D-02
 -0.37935819D-02 -0.27012563D-02  0.12206835D-15 -0.98728525D-05  0.47765837D-03
 -0.95883580D-16  0.14133220D-05  0.80223912D-04  0.26088854D-16 -0.64809896D-07
  0.81724395D-06 -0.93818818D-03  0.40060127D-03  0.53758691D-03  0.80932472D-15
  0.49704923D-14  0.34524597D-04  0.21478757D-03 -0.13094696D-03 -0.83840601D-04
 -0.11128068D-14 -0.21800833D-13 -0.24782148D-06 -0.55392625D-07 -0.26535053D-05
  0.27088979D-05 -0.17912834D-15 -0.98519192D-15 -0.59692162D-06 -0.10743246D-14
  0.50080695D-06  0.55214781D-03  0.75598025D-14  0.60828226D-05 -0.33530256D-03
 -0.43368288D-14 -0.75852434D-05 -0.13211409D-02  0.10115394D-14 -0.45424487D-15
  0.40029874D-07 -0.88828473D-04  0.31386477D-14 -0.61253960D-06 -0.10565804D-04
 -0.17759131D-14  0.49244998D-06  0.27705122D-03  0.10670676D-14 -0.96391483D-01
 -0.17967389D+00 -0.30458727D+00 -0.46118632D+00 -0.57658448D+00 -0.49596605D+00
 -0.19021365D+00 -0.11712432D-04 -0.15505067D-03 -0.56317226D-03 -0.16706399D-02
 -0.19250750D-02  0.23382904D-02 -0.84226222D-02  0.77853491D-03  0.27971611D-04
 -0.13307396D-12 -0.13014342D-12 -0.85991262D-13 -0.74139116D-02 -0.72506436D-02
 -0.47908068D-02 -0.60212668D-02 -0.58886674D-02 -0.38908916D-02 -0.27702370D-13
 -0.12780927D-02 -0.11511605D-02 -0.15653241D-13 -0.15786800D-03 -0.82029351D-04
 -0.51215899D-15 -0.37025460D-05 -0.19750656D-05  0.76119441D-04 -0.51953680D-04
 -0.24165761D-04  0.89176773D-14 -0.39209692D-14  0.65724131D-03  0.15133420D-03
 -0.78337338D-04 -0.72996860D-04 -0.66827567D-14 -0.60931375D-14 -0.77953121D-03
  0.42853960D-04 -0.24544553D-04 -0.18309407D-04 -0.68890566D-14 -0.53806680D-14
 -0.49488048D-05 -0.14218758D-13 -0.16614192D-04 -0.18311201D-05  0.31022856D-13
  0.24000141D-03  0.99200711D-04  0.11633418D-13 -0.19015883D-03 -0.93707351D-04
  0.60516065D-13  0.40919300D-14  0.54692342D-04  0.10123797D-03 -0.90741177D-14
  0.16681750D-03  0.20511050D-03 -0.32016724D-14 -0.33089452D-03 -0.50882442D-03
 -0.22252405D-13 -0.95542798D-01 -0.17809194D+00 -0.30190551D+00 -0.45712578D+00
 -0.57150790D+00 -0.49159928D+00 -0.18853890D+00 -0.11598008D-04 -0.15353591D-03
 -0.55767036D-03 -0.16543186D-02 -0.19062681D-02  0.23154465D-02 -0.83476790D-02
  0.78064569D-03  0.28078309D-04 -0.64790759D-13 -0.63363947D-13 -0.41867239D-13
  0.73043171D-02  0.71434626D-02  0.47199878D-02 -0.58765453D-02 -0.57471330D-02
 -0.37973737D-02 -0.11642439D-13  0.12487859D-02 -0.11135696D-02 -0.10631653D-13
  0.14076901D-03 -0.73520743D-04 -0.28202934D-15  0.36500780D-05 -0.17705622D-05
  0.56662897D-04 -0.36079700D-04 -0.20583197D-04 -0.81586248D-14  0.33097061D-14
 -0.69408975D-03  0.14664119D-03 -0.78541830D-04 -0.68099356D-04  0.41437477D-14
 -0.56399117D-14  0.75497064D-03  0.40082649D-04 -0.21456581D-04 -0.18626068D-04
  0.53226761D-14 -0.42942134D-14 -0.12523643D-05 -0.78878293D-14  0.21324785D-04
  0.65615100D-05  0.14589494D-13 -0.25767060D-03  0.11069187D-03  0.90739940D-14
  0.19369625D-03 -0.13037640D-03 -0.38668519D-13  0.41971486D-14 -0.51776356D-04
  0.99807379D-04 -0.75289584D-14 -0.16573145D-03  0.20180558D-03 -0.50624873D-14
  0.32106051D-03 -0.50122772D-03  0.17685600D-13
MO    2     MO 0.0        OCC NO =    2.0000037  ORB. ENERGY =    0.000000
 -0.36759892D+00 -0.68514395D+00 -0.11617579D+01 -0.17581970D+01 -0.21932121D+01
 -0.18821023D+01 -0.72074520D+00 -0.43587812D-04 -0.46766862D-03 -0.17239146D-02
 -0.50406251D-02 -0.60741984D-02  0.73170156D-02 -0.33575473D-01  0.66521276D-03
  0.91128056D-04 -0.69062902D-13 -0.66967783D-13 -0.45176071D-13  0.12735226D-04
  0.12348886D-04  0.83304852D-05  0.86788915D-02  0.84156053D-02  0.56771176D-02
 -0.23984261D-13  0.24496730D-05 -0.18342806D-02 -0.13739311D-13 -0.40760844D-06
 -0.15584675D-03 -0.53179632D-15 -0.23732297D-06  0.18077547D-05  0.69202024D-03
  0.88630490D-04 -0.78065073D-03 -0.23254517D-14 -0.10227067D-13 -0.27525427D-05
 -0.33696969D-03 -0.35521885D-03  0.69218855D-03  0.59718135D-15  0.16910644D-13
  0.56848048D-07 -0.39238689D-04  0.13407410D-04  0.25831279D-04  0.29916664D-15
  0.53747279D-14  0.35499280D-06  0.21351056D-14 -0.10133294D-05  0.25192536D-03
 -0.61719995D-14 -0.68197299D-06 -0.22644235D-03 -0.23331739D-15  0.37219611D-05
 -0.52933372D-03  0.70780041D-14  0.10796868D-14  0.77306637D-07 -0.65757270D-04
  0.34483188D-14 -0.87468400D-07  0.11002637D-03 -0.66873792D-14 -0.14445151D-06
  0.87245441D-04 -0.12034483D-14 -0.16845676D+00 -0.31403735D+00 -0.53076590D+00
 -0.79784014D+00 -0.98000371D+00 -0.82708856D+00 -0.31100690D+00 -0.14594869D-04
 -0.10908760D-03 -0.40768528D-03 -0.11373785D-02 -0.15237736D-02  0.17992924D-02
 -0.14051100D-01  0.98025420D-04 -0.69218602D-05 -0.36690745D-13 -0.34399906D-13
 -0.24494782D-13  0.90099678D-05  0.84474175D-05  0.60150645D-05  0.25271733D-02
  0.23693856D-02  0.16871437D-02 -0.84684161D-14 -0.34713706D-05 -0.20074892D-02
  0.38480521D-15 -0.23177564D-05 -0.24357706D-04 -0.54808945D-17  0.87943895D-07
 -0.84393381D-05  0.81813177D-03  0.15214918D-03 -0.97028095D-03 -0.22194108D-14
 -0.23871880D-14 -0.10742620D-04 -0.13167163D-03  0.36327836D-03 -0.23160673D-03
  0.25759950D-14  0.19888432D-13  0.68754686D-05 -0.32056594D-05 -0.14375271D-04
  0.17580931D-04  0.18653823D-15  0.10864665D-14  0.69885034D-06  0.10420288D-14
  0.84177514D-06 -0.24845702D-03 -0.76378247D-14 -0.25987870D-05  0.52735395D-03
  0.45117383D-14  0.73461540D-07  0.21801710D-03 -0.30176049D-14  0.35749532D-15
  0.42534171D-07  0.34930143D-04 -0.24862296D-14  0.66742742D-06  0.72242637D-04
  0.14137437D-14 -0.79502994D-06 -0.17703307D-03 -0.17329882D-14  0.18661261D+00
  0.34784622D+00  0.58967684D+00  0.89285048D+00  0.11162598D+01  0.96018356D+00
  0.36825106D+00  0.19233022D-04  0.25460920D-03  0.92478694D-03  0.27433630D-02
  0.31611718D-02 -0.38397140D-02  0.16992080D-01 -0.85685063D-03 -0.30687038D-04
 -0.45146374D-13 -0.44152168D-13 -0.29173204D-13  0.88178812D-02  0.86236953D-02
  0.56980401D-02  0.53633604D-02  0.52452493D-02  0.34657580D-02 -0.14189539D-13
  0.79914975D-03  0.27142021D-03  0.83779392D-14  0.84698809D-04 -0.22412232D-04
  0.40798036D-15 -0.19298785D-05  0.21201683D-04 -0.28400728D-04  0.14592475D-03
 -0.11752403D-03 -0.11525359D-13 -0.19712198D-13 -0.32853564D-03  0.34928226D-05
 -0.50023559D-04  0.46530736D-04  0.17202707D-14  0.26121707D-14  0.50032452D-04
 -0.17390927D-04  0.17003707D-04  0.38722043D-06  0.54854746D-14  0.42680413D-14
 -0.33518658D-05  0.10023060D-13  0.10560317D-03 -0.11971521D-03 -0.24206089D-13
  0.95134669D-04  0.57996365D-03 -0.58630902D-14 -0.41194418D-03 -0.22081803D-03
 -0.57784788D-13 -0.29316780D-14 -0.53040493D-04 -0.61888196D-05  0.69782020D-14
 -0.13837142D-03 -0.29244575D-03  0.18168319D-14  0.29749290D-03  0.31101221D-03
  0.15342506D-13  0.18648391D+00  0.34760633D+00  0.58927016D+00  0.89223472D+00
  0.11154899D+01  0.95952136D+00  0.36799709D+00  0.19182834D-04  0.25394480D-03
  0.92237373D-03  0.27362043D-02  0.31529228D-02 -0.38296943D-02  0.16976114D-01
 -0.84514677D-03 -0.26831317D-04 -0.16148798D-12 -0.15793171D-12 -0.10435216D-12
 -0.87132104D-02 -0.85213294D-02 -0.56304026D-02  0.52358661D-02  0.51205627D-02
  0.33833723D-02 -0.39164199D-13 -0.78415198D-03  0.25627312D-03 -0.45652046D-15
 -0.77029280D-04 -0.25396910D-04  0.18146614D-15  0.13599470D-05  0.20967910D-04
 -0.18354007D-04  0.13522493D-03 -0.11687092D-03  0.63291411D-14 -0.15918818D-13
  0.35093213D-03  0.69146589D-05 -0.51917809D-04  0.45003150D-04  0.12797676D-14
  0.21243631D-16 -0.37144901D-04 -0.15669575D-04  0.15148191D-04  0.52138345D-06
 -0.30177251D-14  0.22107624D-14  0.71813107D-05  0.44868039D-14 -0.10602487D-03
 -0.12291359D-03  0.11776297D-14 -0.82208064D-04  0.56595193D-03 -0.14638042D-13
  0.40028268D-03 -0.19721116D-03  0.25349093D-13 -0.19287212D-14  0.51805035D-04
 -0.58399127D-05  0.49082151D-14  0.13540744D-03 -0.28735912D-03  0.87794843D-15
 -0.29082255D-03  0.30487886D-03 -0.81970383D-14
MO    3     MO 0.0        OCC NO =    2.0000022  ORB. ENERGY =    0.000000
  0.20321117D-02  0.37875220D-02  0.64222758D-02  0.97194316D-02  0.12124225D-01
  0.10404389D-01  0.39843281D-02  0.27945140D-06  0.29983301D-05  0.11052409D-04
  0.32316597D-04  0.38943071D-04 -0.46911055D-04  0.18709914D-03 -0.10900487D-04
 -0.48822952D-05  0.25779693D-13  0.24997631D-13  0.16863254D-13  0.85716298D-03
  0.83115976D-03  0.56069546D-03 -0.79056137D-05 -0.76657860D-05 -0.51712940D-05
  0.23464568D-14  0.11197555D-03  0.29422774D-04  0.33845928D-14 -0.89444988D-04
  0.14242046D-05  0.56260386D-15 -0.14805079D-04  0.49132932D-06  0.37224537D-05
 -0.14744301D-06 -0.35750107D-05  0.13969304D-14 -0.18721652D-13 -0.17969321D-03
  0.10838735D-05  0.55257702D-05 -0.66096437D-05 -0.58368432D-15  0.19461048D-14
  0.62911693D-04 -0.38146802D-06  0.44389585D-06 -0.62427821D-07  0.15503210D-15
 -0.17470907D-14  0.25008334D-04  0.43768527D-15  0.11931628D-04 -0.46111422D-05
 -0.11591578D-13 -0.16347856D-03  0.92419779D-05  0.10278523D-13  0.12768367D-03
  0.45914487D-05  0.89228201D-14 -0.18009178D-15 -0.31903493D-05  0.12441744D-05
  0.61104695D-15  0.67894051D-04  0.26973329D-06 -0.70771597D-16 -0.58323003D-04
 -0.40022564D-05 -0.24702032D-15  0.22831404D-02  0.42562337D-02  0.71936149D-02
  0.10813345D-01  0.13282257D-01  0.11209757D-01  0.42151612D-02  0.24902769D-06
  0.18613277D-05  0.69562066D-05  0.19406733D-04  0.25999672D-04 -0.30700765D-04
  0.18505645D-03 -0.58631312D-05  0.48774443D-06  0.17130646D-13  0.16061070D-13
  0.11436439D-13  0.53276432D-04  0.49950041D-04  0.35567405D-04 -0.34358619D-04
 -0.32213389D-04 -0.22937852D-04  0.30336183D-14  0.37216458D-03  0.27947336D-04
 -0.23477076D-14 -0.62487176D-04  0.67697078D-05 -0.22646842D-15  0.64178444D-05
 -0.35260856D-07 -0.77033322D-05 -0.39326106D-05  0.11635943D-04 -0.36412477D-14
  0.46143869D-15 -0.58207581D-03  0.19677814D-05 -0.31632965D-05  0.11955151D-05
 -0.53764108D-14 -0.11344573D-14 -0.36965741D-03  0.13224614D-06 -0.47155082D-06
  0.33930468D-06 -0.85687718D-16 -0.23899437D-15  0.29172463D-04 -0.16170601D-14
  0.24869821D-04  0.88562459D-05  0.26918435D-14 -0.51450402D-03 -0.13261570D-05
  0.21593367D-14  0.43989456D-03 -0.25242581D-04  0.81090614D-14  0.27862496D-15
 -0.43729558D-04  0.11012309D-05 -0.33917862D-15 -0.29354242D-04 -0.11471566D-05
 -0.49669626D-15  0.16054292D-03 -0.21565360D-05  0.13382585D-14 -0.41595334D+00
 -0.77533774D+00 -0.13143702D+01 -0.19901342D+01 -0.24881061D+01 -0.21402174D+01
 -0.82081945D+00 -0.38183346D-04 -0.50547601D-03 -0.18359808D-02 -0.54464026D-02
 -0.62758789D-02  0.76229897D-02 -0.38537825D-01  0.17183155D-03 -0.84389177D-04
  0.17690715D-12  0.17301133D-12  0.11431590D-12 -0.96952458D-02 -0.94817386D-02
 -0.62649856D-02 -0.73785134D-02 -0.72160250D-02 -0.47679328D-02  0.40642261D-13
  0.16673419D-03 -0.16308886D-03  0.38067680D-14 -0.22863197D-03 -0.39283393D-03
  0.37454088D-15 -0.21411959D-04 -0.39147624D-05  0.14709970D-03 -0.16716747D-03
  0.20067772D-04  0.27628565D-13  0.58432196D-14 -0.23582110D-03 -0.15299082D-03
  0.24703363D-03 -0.94042820D-04 -0.14958664D-14 -0.19177371D-14  0.49957625D-03
  0.56963677D-04 -0.12118713D-04 -0.44844964D-04 -0.84719022D-15 -0.67132741D-15
 -0.13103489D-03 -0.48314073D-14  0.26868380D-03 -0.13992960D-04  0.78346211D-14
 -0.87208390D-03 -0.17467842D-03  0.66596008D-14  0.66032491D-04  0.21665730D-03
  0.25441828D-13  0.12568066D-14 -0.47897698D-04 -0.16754683D-04 -0.20099367D-14
  0.20591659D-03  0.30986659D-04 -0.17604831D-14 -0.62223495D-04  0.19277391D-04
 -0.63722871D-14  0.42885280D+00  0.79938236D+00  0.13551312D+01  0.20518519D+01
  0.25652668D+01  0.22065895D+01  0.84627455D+00  0.39350329D-04  0.52092467D-03
  0.18920932D-02  0.56128588D-02  0.64676861D-02 -0.78559681D-02  0.39722209D-01
 -0.14866145D-03  0.91445313D-04 -0.51976587D-13 -0.50831966D-13 -0.33586829D-13
 -0.98369441D-02 -0.96203164D-02 -0.63565498D-02  0.73834973D-02  0.72208991D-02
  0.47711533D-02 -0.10091076D-13  0.17589996D-03  0.14339229D-03  0.12068183D-14
 -0.24709017D-03  0.39861750D-03  0.30758401D-15 -0.21922882D-04  0.49061317D-05
 -0.13697378D-03  0.15813529D-03 -0.21161504D-04  0.71957121D-14 -0.52593596D-14
 -0.21675543D-03  0.15675984D-03 -0.24925629D-03  0.92496447D-04  0.82869086D-15
  0.12610490D-14  0.51860915D-03 -0.58756305D-04  0.14190498D-04  0.44565807D-04
 -0.21823398D-14  0.15833111D-14 -0.13448987D-03 -0.18342636D-14  0.26689783D-03
  0.10398975D-04 -0.50583646D-14 -0.88093067D-03  0.19156323D-03  0.10561155D-13
  0.80237189D-04 -0.22276015D-03  0.10740838D-13 -0.88187656D-15 -0.49344231D-04
  0.19546499D-04  0.26743211D-14  0.20563399D-03 -0.32591692D-04 -0.28691458D-16
 -0.57601295D-04 -0.26047806D-04 -0.39481118D-14
MO    4     MO 0.0        OCC NO =    2.0000016  ORB. ENERGY =    0.000000
  0.10240381D+00  0.19086387D+00  0.32363651D+00  0.48978945D+00  0.61097373D+00
  0.52430635D+00  0.20078148D+00  0.13248327D-04  0.14214585D-03  0.52397638D-03
  0.15320762D-02  0.18462263D-02 -0.22239752D-02  0.94476483D-02 -0.42790808D-03
 -0.17974467D-03  0.19251732D-13  0.18667704D-13  0.12593123D-13 -0.30237259D-04
 -0.29319970D-04 -0.19779079D-04  0.53324983D-03  0.51707296D-03  0.34881437D-03
 -0.49601068D-14 -0.28965389D-05  0.15765439D-02 -0.14800704D-13  0.22544127D-05
  0.12247195D-03 -0.87770914D-15  0.18879378D-06  0.19510143D-04  0.15257009D-03
 -0.72306864D-05 -0.14533941D-03  0.73258385D-14 -0.34024246D-13  0.50963958D-05
  0.62495408D-04  0.28746462D-03 -0.34996003D-03  0.10408172D-15  0.24223339D-13
 -0.40750292D-05 -0.11798766D-04  0.21597179D-04 -0.97984136D-05  0.27073515D-16
  0.69532381D-14 -0.49297378D-06 -0.16133391D-14  0.37785557D-06 -0.31474116D-03
 -0.29992329D-14  0.22387543D-05  0.61871507D-03  0.78392503D-14 -0.33723210D-05
  0.32550841D-03  0.67685020D-15  0.27855435D-14 -0.94802701D-07  0.77387440D-04
  0.36051243D-14 -0.12183728D-05 -0.14886582D-04 -0.11961755D-13  0.15027809D-05
 -0.21727574D-03  0.32384457D-15  0.14790238D+00  0.27571982D+00  0.46600407D+00
  0.70049103D+00  0.86042776D+00  0.72617068D+00  0.27305914D+00  0.11682692D-04
  0.87320888D-04  0.32633809D-03  0.91043247D-03  0.12197285D-02 -0.14402719D-02
  0.11837007D-01  0.18309049D-04  0.24305280D-04 -0.20652669D-13 -0.19363190D-13
 -0.13787744D-13 -0.13063314D-04 -0.12247687D-04 -0.87210829D-05 -0.23526333D-02
 -0.22057432D-02 -0.15706206D-02  0.17821563D-13 -0.31778405D-04  0.65154219D-03
  0.45339120D-14 -0.23867075D-05  0.20871129D-03  0.15239942D-15 -0.95819465D-07
 -0.12524798D-05 -0.10602076D-02  0.32749114D-03  0.73271646D-03  0.44206224D-15
  0.68224669D-14  0.62462349D-04 -0.29808258D-04 -0.10146901D-03  0.13127727D-03
 -0.11581526D-14  0.15945119D-13  0.16245828D-04  0.38767189D-05 -0.12927706D-04
  0.90509874D-05 -0.21927714D-15  0.10717218D-14 -0.37629329D-06 -0.41425663D-14
  0.12738833D-05  0.48245526D-03 -0.24338749D-14  0.16314079D-04  0.19016871D-03
  0.14861574D-13 -0.20135729D-04 -0.16375345D-02  0.32498996D-15 -0.39821316D-15
  0.10982000D-05  0.42582301D-04 -0.11094344D-14  0.10035892D-05 -0.25621520D-04
  0.23040739D-14 -0.42981892D-05 -0.10212538D-03  0.95732679D-15  0.37389132D+00
  0.69693407D+00  0.11814585D+01  0.17888880D+01  0.22365040D+01  0.19237945D+01
  0.73781658D+00  0.32214920D-04  0.42646522D-03  0.15489993D-02  0.45950772D-02
  0.52948983D-02 -0.64314427D-02  0.34976086D-01  0.25584832D-03  0.81231551D-04
 -0.15131765D-12 -0.14798536D-12 -0.97780183D-13  0.63843264D-02  0.62437317D-02
  0.41254975D-02  0.40457818D-02  0.39566862D-02  0.26143499D-02 -0.35168229D-13
 -0.56293878D-03 -0.64000646D-03 -0.57954001D-14  0.30690923D-03  0.16585522D-03
 -0.25908232D-15  0.50185957D-05  0.13463563D-04 -0.23123660D-03  0.16816055D-03
  0.63076050D-04 -0.10609884D-15 -0.22555924D-14  0.79367876D-03  0.25384722D-03
 -0.18493727D-03 -0.68909958D-04 -0.52719867D-14  0.14072109D-14 -0.10050955D-02
 -0.44987610D-04  0.34815011D-04  0.10172599D-04 -0.97886666D-15 -0.87839823D-15
  0.62860492D-04 -0.77184072D-15  0.13857353D-04 -0.75461306D-04  0.84227432D-14
  0.29169264D-03  0.46154575D-03 -0.61072210D-14 -0.33326470D-03 -0.23516183D-03
  0.15572958D-13  0.15417129D-14  0.34862926D-04  0.10184449D-03 -0.55218536D-14
  0.10447317D-03  0.44682290D-04  0.89671482D-15 -0.20906195D-03 -0.35021575D-03
 -0.56033030D-14  0.35933638D+00  0.66980364D+00  0.11354664D+01  0.17192497D+01
  0.21494407D+01  0.18489045D+01  0.70909466D+00  0.30949403D-04  0.40971215D-03
  0.14881491D-02  0.44145662D-02  0.50868958D-02 -0.61787927D-02  0.33604106D-01
  0.28170246D-03  0.85574509D-04 -0.26800231D-13 -0.26210041D-13 -0.17318082D-13
 -0.60264170D-02 -0.58937042D-02 -0.38942195D-02  0.37152744D-02  0.36334572D-02
  0.24007788D-02 -0.59529500D-14  0.53028508D-03 -0.61992209D-03  0.13283371D-14
 -0.31540160D-03  0.15981628D-03  0.97435552D-16 -0.52140020D-05  0.13712416D-04
 -0.21914028D-03  0.15788125D-03  0.61259035D-04  0.12318477D-13 -0.22813090D-14
 -0.75773676D-03  0.24027572D-03 -0.17412239D-03 -0.66153329D-04  0.32257102D-14
  0.24033284D-14  0.95412521D-03 -0.44939836D-04  0.37429275D-04  0.75105606D-05
 -0.10028927D-14  0.24653335D-15 -0.63800771D-04 -0.20510631D-14 -0.17243235D-04
 -0.70139077D-04  0.14470955D-13 -0.27747597D-03  0.45879940D-03 -0.83177654D-14
  0.32920568D-03 -0.24838217D-03  0.55565208D-14  0.10546640D-14 -0.32208347D-04
  0.99268318D-04 -0.35906507D-14 -0.10549849D-03  0.41841389D-04  0.42665886D-15
  0.20212353D-03 -0.33964634D-03 -0.24995283D-15
MO    5     MO 0.0        OCC NO =    1.9861495  ORB. ENERGY =    0.000000
 -0.99422264D-02 -0.18530675D-01 -0.31421364D-01 -0.47552893D-01 -0.59318486D-01
 -0.50904086D-01 -0.19493561D-01 -0.16128768D-03 -0.17305110D-02 -0.63789893D-02
 -0.18651791D-01 -0.22476315D-01  0.27075103D-01  0.14182992D-01  0.27694748D-04
 -0.19136936D-02 -0.70559312D-13 -0.68418798D-13 -0.46154917D-13 -0.25659984D-02
 -0.24881553D-02 -0.16784949D-02 -0.69792967D-01 -0.67675701D-01 -0.45653628D-01
 -0.20062571D-13 -0.59421892D-03 -0.13092095D-01 -0.13760757D-14 -0.72424017D-04
  0.19503002D-02  0.35217287D-15  0.49936599D-05  0.22884650D-03 -0.40192365D-02
 -0.42581352D-02  0.82773717D-02  0.37473664D-14  0.73069235D-14  0.24827274D-03
 -0.47342670D-03  0.60346968D-03 -0.13004298D-03 -0.36225093D-15  0.30941147D-14
  0.70315457D-04  0.10634783D-03  0.51622852D-03 -0.62257635D-03 -0.19603622D-15
 -0.10446882D-15  0.55288565D-05  0.88786438D-15  0.48345155D-04 -0.16320831D-02
 -0.56048552D-14  0.40816382D-04  0.35120745D-02  0.29412621D-14 -0.18585185D-03
  0.13841748D-02 -0.31253381D-14 -0.37279022D-15  0.41780393D-05  0.50625812D-03
  0.20878904D-14  0.41595219D-06 -0.21791258D-03 -0.96951976D-15 -0.12950070D-04
 -0.13008618D-02  0.56137739D-15 -0.17052137D-01 -0.31788619D-01 -0.53727097D-01
 -0.80761848D-01 -0.99201465D-01 -0.83722537D-01 -0.31481860D-01 -0.31308924D-03
 -0.23401481D-02 -0.87456678D-02 -0.24399051D-01 -0.32688002D-01  0.38598435D-01
  0.15426321D-01  0.22274208D-02  0.22447940D-03 -0.23820379D-13 -0.22333119D-13
 -0.15902511D-13 -0.33300063D-02 -0.31220926D-02 -0.22231159D-02 -0.33261639D-01
 -0.31184901D-01 -0.22205507D-01 -0.13772510D-13 -0.49096182D-03 -0.48225611D-02
 -0.46353703D-14  0.76400135D-04  0.15069799D-02 -0.20398963D-15 -0.16901369D-05
 -0.40454675D-05 -0.19119791D-01  0.93504370D-02  0.97693540D-02 -0.71091665D-15
 -0.58386606D-14  0.14043378D-02 -0.26023233D-02  0.11686750D-02  0.14336482D-02
  0.19729258D-14  0.60429269D-14  0.17295956D-03  0.82621989D-04 -0.94121961D-04
  0.11499972D-04  0.83310727D-16  0.16311217D-15 -0.21983194D-04  0.73900493D-15
  0.11533774D-04  0.34325800D-02 -0.23698084D-14  0.14375018D-03  0.34487954D-02
  0.15279363D-15 -0.17835150D-03 -0.13746536D-01 -0.17650027D-14  0.92662436D-15
  0.17316822D-04  0.27282480D-03 -0.17796472D-14  0.19767706D-05  0.31259226D-03
 -0.10002259D-14 -0.53927237D-04 -0.11310667D-02 -0.32198855D-15 -0.91994560D-01
 -0.17147802D+00 -0.29069344D+00 -0.44014919D+00 -0.55028343D+00 -0.47334243D+00
 -0.18153701D+00 -0.13402011D-02 -0.17741754D-01 -0.64441277D-01 -0.19116383D+00
 -0.22027771D+00  0.26756009D+00  0.15395876D+00  0.69882634D-01  0.18244704D-02
 -0.18821784D-13 -0.18407294D-13 -0.12162477D-13 -0.46872513D-01 -0.45840294D-01
 -0.30288620D-01 -0.13287698D+00 -0.12995078D+00 -0.85863978D-01 -0.60186879D-14
 -0.54760168D-02 -0.27491694D-01  0.66269224D-14 -0.35902298D-02 -0.62914176D-02
  0.64432902D-15 -0.44660081D-04 -0.42543005D-04 -0.60044571D-02  0.72447847D-02
 -0.12403276D-02 -0.35757141D-14 -0.11480013D-13  0.14014172D-01 -0.30701668D-02
  0.41472372D-02 -0.10770704D-02  0.74997919D-15  0.83470964D-15  0.78147919D-02
  0.21553190D-03 -0.23163927D-03  0.16107376D-04  0.43007936D-14  0.31105376D-14
 -0.90535102D-03  0.45968539D-14  0.16241443D-02 -0.21813601D-02 -0.91270405D-14
 -0.64413626D-02 -0.24562652D-02 -0.46635211D-14  0.15689295D-02  0.90003457D-02
 -0.19124946D-13 -0.22074158D-14  0.28079994D-03 -0.22075302D-03  0.48514311D-14
 -0.91743711D-03 -0.10745782D-02  0.17708164D-14  0.75037302D-04  0.17368372D-02