 f2co-wavefunction
GAUSSIAN            184 MOL ORBITALS    288 PRIMITIVES        4 NUCLEI
  O    1    (CENTRE  1)   0.00000000  0.00000000  1.28487582  CHARGE =  8.0
  C    2    (CENTRE  2)   0.00000000  0.00000000 -0.93015344  CHARGE =  6.0
  F    3    (CENTRE  3)   0.00000000 -2.00098943 -2.40808746  CHARGE =  9.0
  F    4    (CENTRE  4)   0.00000000  2.00098943 -2.38919020  CHARGE =  9.0
CENTRE ASSIGNMENTS    1  1  1  1  1  1  1  1  1  1  1  1  1  1  1  1  1  1  1  1
CENTRE ASSIGNMENTS    1  1  1  1  1  1  1  1  1  1  1  1  1  1  1  1  1  1  1  1
CENTRE ASSIGNMENTS    1  1  1  1  1  1  1  1  1  1  1  1  1  1  1  1  1  1  1  1
CENTRE ASSIGNMENTS    1  1  1  1  1  1  1  1  1  1  1  1  2  2  2  2  2  2  2  2
CENTRE ASSIGNMENTS    2  2  2  2  2  2  2  2  2  2  2  2  2  2  2  2  2  2  2  2
CENTRE ASSIGNMENTS    2  2  2  2  2  2  2  2  2  2  2  2  2  2  2  2  2  2  2  2
CENTRE ASSIGNMENTS    2  2  2  2  2  2  2  2  2  2  2  2  2  2  2  2  2  2  2  2
CENTRE ASSIGNMENTS    2  2  2  2  3  3  3  3  3  3  3  3  3  3  3  3  3  3  3  3
CENTRE ASSIGNMENTS    3  3  3  3  3  3  3  3  3  3  3  3  3  3  3  3  3  3  3  3
CENTRE ASSIGNMENTS    3  3  3  3  3  3  3  3  3  3  3  3  3  3  3  3  3  3  3  3
CENTRE ASSIGNMENTS    3  3  3  3  3  3  3  3  3  3  3  3  3  3  3  3  4  4  4  4
CENTRE ASSIGNMENTS    4  4  4  4  4  4  4  4  4  4  4  4  4  4  4  4  4  4  4  4
CENTRE ASSIGNMENTS    4  4  4  4  4  4  4  4  4  4  4  4  4  4  4  4  4  4  4  4
CENTRE ASSIGNMENTS    4  4  4  4  4  4  4  4  4  4  4  4  4  4  4  4  4  4  4  4
CENTRE ASSIGNMENTS    4  4  4  4  4  4  4  4
TYPE ASSIGNMENTS      1  1  1  1  1  1  1  1  1  1  1  1  1  1  1  1  2  2  2  3
TYPE ASSIGNMENTS      3  3  4  4  4  2  3  4  2  3  4  2  3  4  5  6  7  8  9 10
TYPE ASSIGNMENTS      5  6  7  8  9 10  5  6  7  8  9 10 11 12 13 17 14 15 18 19
TYPE ASSIGNMENTS     16 20 11 12 13 17 14 15 18 19 16 20  1  1  1  1  1  1  1  1
TYPE ASSIGNMENTS      1  1  1  1  1  1  1  1  2  2  2  3  3  3  4  4  4  2  3  4
TYPE ASSIGNMENTS      2  3  4  2  3  4  5  6  7  8  9 10  5  6  7  8  9 10  5  6
TYPE ASSIGNMENTS      7  8  9 10 11 12 13 17 14 15 18 19 16 20 11 12 13 17 14 15
TYPE ASSIGNMENTS     18 19 16 20  1  1  1  1  1  1  1  1  1  1  1  1  1  1  1  1
TYPE ASSIGNMENTS      2  2  2  3  3  3  4  4  4  2  3  4  2  3  4  2  3  4  5  6
TYPE ASSIGNMENTS      7  8  9 10  5  6  7  8  9 10  5  6  7  8  9 10 11 12 13 17
TYPE ASSIGNMENTS     14 15 18 19 16 20 11 12 13 17 14 15 18 19 16 20  1  1  1  1
TYPE ASSIGNMENTS      1  1  1  1  1  1  1  1  1  1  1  1  2  2  2  3  3  3  4  4
TYPE ASSIGNMENTS      4  2  3  4  2  3  4  2  3  4  5  6  7  8  9 10  5  6  7  8
TYPE ASSIGNMENTS      9 10  5  6  7  8  9 10 11 12 13 17 14 15 18 19 16 20 11 12
TYPE ASSIGNMENTS     13 17 14 15 18 19 16 20
EXPONENTS  0.1533000D+05 0.2299000D+04 0.5224000D+03 0.1473000D+03 0.4755000D+02
EXPONENTS  0.1676000D+02 0.6207000D+01 0.5224000D+03 0.1473000D+03 0.4755000D+02
EXPONENTS  0.1676000D+02 0.6207000D+01 0.6882000D+00 0.1752000D+01 0.2384000D+00
EXPONENTS  0.7376000D-01 0.3446000D+02 0.7749000D+01 0.2280000D+01 0.3446000D+02
EXPONENTS  0.7749000D+01 0.2280000D+01 0.3446000D+02 0.7749000D+01 0.2280000D+01
EXPONENTS  0.7156000D+00 0.7156000D+00 0.7156000D+00 0.2140000D+00 0.2140000D+00
EXPONENTS  0.2140000D+00 0.5974000D-01 0.5974000D-01 0.5974000D-01 0.2314000D+01
EXPONENTS  0.2314000D+01 0.2314000D+01 0.2314000D+01 0.2314000D+01 0.2314000D+01
EXPONENTS  0.6450000D+00 0.6450000D+00 0.6450000D+00 0.6450000D+00 0.6450000D+00
EXPONENTS  0.6450000D+00 0.2140000D+00 0.2140000D+00 0.2140000D+00 0.2140000D+00
EXPONENTS  0.2140000D+00 0.2140000D+00 0.1428000D+01 0.1428000D+01 0.1428000D+01
EXPONENTS  0.1428000D+01 0.1428000D+01 0.1428000D+01 0.1428000D+01 0.1428000D+01
EXPONENTS  0.1428000D+01 0.1428000D+01 0.5000000D+00 0.5000000D+00 0.5000000D+00
EXPONENTS  0.5000000D+00 0.5000000D+00 0.5000000D+00 0.5000000D+00 0.5000000D+00
EXPONENTS  0.5000000D+00 0.5000000D+00 0.8236000D+04 0.1235000D+04 0.2808000D+03
EXPONENTS  0.7927000D+02 0.2559000D+02 0.8997000D+01 0.3319000D+01 0.2808000D+03
EXPONENTS  0.7927000D+02 0.2559000D+02 0.8997000D+01 0.3319000D+01 0.3643000D+00
EXPONENTS  0.9059000D+00 0.1285000D+00 0.4402000D-01 0.1871000D+02 0.4133000D+01
EXPONENTS  0.1200000D+01 0.1871000D+02 0.4133000D+01 0.1200000D+01 0.1871000D+02
EXPONENTS  0.4133000D+01 0.1200000D+01 0.3827000D+00 0.3827000D+00 0.3827000D+00
EXPONENTS  0.1209000D+00 0.1209000D+00 0.1209000D+00 0.3569000D-01 0.3569000D-01
EXPONENTS  0.3569000D-01 0.1097000D+01 0.1097000D+01 0.1097000D+01 0.1097000D+01
EXPONENTS  0.1097000D+01 0.1097000D+01 0.3180000D+00 0.3180000D+00 0.3180000D+00
EXPONENTS  0.3180000D+00 0.3180000D+00 0.3180000D+00 0.1000000D+00 0.1000000D+00
EXPONENTS  0.1000000D+00 0.1000000D+00 0.1000000D+00 0.1000000D+00 0.7610000D+00
EXPONENTS  0.7610000D+00 0.7610000D+00 0.7610000D+00 0.7610000D+00 0.7610000D+00
EXPONENTS  0.7610000D+00 0.7610000D+00 0.7610000D+00 0.7610000D+00 0.2680000D+00
EXPONENTS  0.2680000D+00 0.2680000D+00 0.2680000D+00 0.2680000D+00 0.2680000D+00
EXPONENTS  0.2680000D+00 0.2680000D+00 0.2680000D+00 0.2680000D+00 0.1950000D+05
EXPONENTS  0.2923000D+04 0.6645000D+03 0.1875000D+03 0.6062000D+02 0.2142000D+02
EXPONENTS  0.7950000D+01 0.6645000D+03 0.1875000D+03 0.6062000D+02 0.2142000D+02
EXPONENTS  0.7950000D+01 0.8815000D+00 0.2257000D+01 0.3041000D+00 0.9158000D-01
EXPONENTS  0.4388000D+02 0.9926000D+01 0.2930000D+01 0.4388000D+02 0.9926000D+01
EXPONENTS  0.2930000D+01 0.4388000D+02 0.9926000D+01 0.2930000D+01 0.9132000D+00
EXPONENTS  0.9132000D+00 0.9132000D+00 0.2672000D+00 0.2672000D+00 0.2672000D+00
EXPONENTS  0.7361000D-01 0.7361000D-01 0.7361000D-01 0.3107000D+01 0.3107000D+01
EXPONENTS  0.3107000D+01 0.3107000D+01 0.3107000D+01 0.3107000D+01 0.8550000D+00
EXPONENTS  0.8550000D+00 0.8550000D+00 0.8550000D+00 0.8550000D+00 0.8550000D+00
EXPONENTS  0.2920000D+00 0.2920000D+00 0.2920000D+00 0.2920000D+00 0.2920000D+00
EXPONENTS  0.2920000D+00 0.1917000D+01 0.1917000D+01 0.1917000D+01 0.1917000D+01
EXPONENTS  0.1917000D+01 0.1917000D+01 0.1917000D+01 0.1917000D+01 0.1917000D+01
EXPONENTS  0.1917000D+01 0.7240000D+00 0.7240000D+00 0.7240000D+00 0.7240000D+00
EXPONENTS  0.7240000D+00 0.7240000D+00 0.7240000D+00 0.7240000D+00 0.7240000D+00
EXPONENTS  0.7240000D+00 0.1950000D+05 0.2923000D+04 0.6645000D+03 0.1875000D+03
EXPONENTS  0.6062000D+02 0.2142000D+02 0.7950000D+01 0.6645000D+03 0.1875000D+03
EXPONENTS  0.6062000D+02 0.2142000D+02 0.7950000D+01 0.8815000D+00 0.2257000D+01
EXPONENTS  0.3041000D+00 0.9158000D-01 0.4388000D+02 0.9926000D+01 0.2930000D+01
EXPONENTS  0.4388000D+02 0.9926000D+01 0.2930000D+01 0.4388000D+02 0.9926000D+01
EXPONENTS  0.2930000D+01 0.9132000D+00 0.9132000D+00 0.9132000D+00 0.2672000D+00
EXPONENTS  0.2672000D+00 0.2672000D+00 0.7361000D-01 0.7361000D-01 0.7361000D-01
EXPONENTS  0.3107000D+01 0.3107000D+01 0.3107000D+01 0.3107000D+01 0.3107000D+01
EXPONENTS  0.3107000D+01 0.8550000D+00 0.8550000D+00 0.8550000D+00 0.8550000D+00
EXPONENTS  0.8550000D+00 0.8550000D+00 0.2920000D+00 0.2920000D+00 0.2920000D+00
EXPONENTS  0.2920000D+00 0.2920000D+00 0.2920000D+00 0.1917000D+01 0.1917000D+01
EXPONENTS  0.1917000D+01 0.1917000D+01 0.1917000D+01 0.1917000D+01 0.1917000D+01
EXPONENTS  0.1917000D+01 0.1917000D+01 0.1917000D+01 0.7240000D+00 0.7240000D+00
EXPONENTS  0.7240000D+00 0.7240000D+00 0.7240000D+00 0.7240000D+00 0.7240000D+00
EXPONENTS  0.7240000D+00 0.7240000D+00 0.7240000D+00
MO    1     MO 0.0        OCC NO =    2.0000068  ORB. ENERGY =    0.000000
 -0.32317440D+00 -0.60234395D+00 -0.10213588D+01 -0.15457180D+01 -0.19281613D+01
 -0.16546493D+01 -0.63364276D+00 -0.40319871D-04 -0.43260575D-03 -0.15946663D-02
 -0.46627106D-02 -0.56187930D-02  0.67684316D-02 -0.29115740D-01  0.49778368D-03
 -0.48586746D-04  0.39702905D-13  0.38498463D-13  0.25970835D-13  0.29325072D-04
  0.28435455D-04  0.19182390D-04  0.19813579D-01  0.19212507D-01  0.12960644D-01
  0.10503987D-13 -0.12905064D-05  0.24988806D-02 -0.51827994D-15 -0.24803539D-05
  0.66522877D-03 -0.88329863D-16 -0.15892233D-07  0.14472858D-04  0.12249570D-02
  0.65492457D-03 -0.18798816D-02 -0.59122942D-14 -0.29205901D-14  0.87033767D-05
  0.51244107D-04 -0.26964972D-04 -0.24279135D-04 -0.49271576D-16  0.16924365D-14
 -0.40032384D-06  0.50544574D-04 -0.18380427D-05 -0.48706531D-04  0.65843029D-15
  0.11317358D-14  0.85402988D-07 -0.32418474D-14 -0.23442963D-06 -0.54690541D-03
 -0.40148856D-14  0.12067685D-05  0.10303050D-02  0.13740428D-13 -0.50347966D-06
  0.61041126D-03  0.10829340D-13  0.63705589D-15 -0.26151097D-06  0.13066261D-04
  0.26652080D-15 -0.10301082D-05 -0.24150693D-04 -0.21776885D-14  0.18146412D-05
 -0.15048090D-04 -0.35060380D-14  0.23875455D+00  0.44508659D+00  0.75225697D+00
  0.11307825D+01  0.13889638D+01  0.11722364D+01  0.44079152D+00  0.26515452D-04
  0.19818658D-03  0.74066849D-03  0.20663498D-02  0.27683390D-02 -0.32688922D-02
  0.19306560D-01 -0.41726650D-04  0.15172618D-04 -0.77999072D-14 -0.73129088D-14
 -0.52072267D-14  0.68649267D-05  0.64363052D-05  0.45830327D-05 -0.40326236D-02
 -0.37808410D-02 -0.26921840D-02 -0.31471500D-14  0.83421159D-05  0.47930327D-03
  0.45812027D-15  0.14876478D-05  0.79006111D-04  0.41656545D-16 -0.11656908D-08
  0.83957275D-06 -0.94376040D-03  0.39193934D-03  0.55182106D-03 -0.36731961D-14
  0.64307879D-14 -0.19452532D-04  0.21475406D-03 -0.12066443D-03 -0.94089632D-04
  0.16473358D-14  0.54475367D-14 -0.66192083D-05 -0.51557803D-07 -0.24775434D-05
  0.25291012D-05 -0.99686722D-16  0.15168881D-15  0.31396107D-06  0.20832346D-14
  0.13205709D-06  0.55701074D-03 -0.36006460D-14 -0.44422646D-05 -0.34000341D-03
 -0.26490579D-14  0.40460934D-05 -0.13310288D-02 -0.46222705D-15  0.19225936D-15
 -0.18990458D-05 -0.88189314D-04 -0.39164660D-15  0.99878743D-07 -0.11072985D-04
 -0.18513149D-15  0.55972586D-05  0.27564093D-03 -0.17204242D-14 -0.95635555D-01
 -0.17826484D+00 -0.30219862D+00 -0.45756958D+00 -0.57206275D+00 -0.49207655D+00
 -0.18872195D+00 -0.11621825D-04 -0.15385120D-03 -0.55881555D-03 -0.16577158D-02
 -0.19101826D-02  0.23202013D-02 -0.83561404D-02  0.78106777D-03  0.29250297D-04
 -0.15614008D-12 -0.15270159D-12 -0.10089640D-12 -0.72514879D-02 -0.70917968D-02
 -0.46858500D-02 -0.59889110D-02 -0.58570242D-02 -0.38699835D-02 -0.35927344D-13
 -0.12337961D-02 -0.11395412D-02 -0.23026637D-14 -0.13830646D-03 -0.83321081D-04
 -0.14458674D-15 -0.33885342D-05 -0.18715163D-05  0.62147786D-04 -0.68220144D-04
  0.60723579D-05 -0.18412911D-13 -0.12921060D-13  0.70149370D-03  0.14660169D-03
 -0.58916358D-04 -0.87685330D-04 -0.99475145D-15  0.32463586D-15 -0.76662707D-03
  0.40403908D-04 -0.19192458D-04 -0.21211450D-04  0.17142159D-14  0.73147043D-15
 -0.30012689D-05  0.62337688D-14 -0.22342752D-04  0.15301156D-05 -0.11757288D-13
  0.24955199D-03  0.11109607D-03 -0.69440184D-14 -0.18252373D-03 -0.11568642D-03
 -0.13954700D-13 -0.55689705D-15  0.63432543D-04  0.95321846D-04  0.22538220D-14
  0.16161578D-03  0.20650820D-03 -0.58313084D-15 -0.35191341D-03 -0.49247374D-03
  0.41698229D-14 -0.95968782D-01 -0.17888597D+00 -0.30325158D+00 -0.45916390D+00
 -0.57405601D+00 -0.49379111D+00 -0.18937952D+00 -0.11657645D-04 -0.15432540D-03
 -0.56053792D-03 -0.16628252D-02 -0.19160702D-02  0.23273526D-02 -0.83848220D-02
  0.76862969D-03  0.24597253D-04 -0.19617034D-12 -0.19185031D-12 -0.12676361D-12
  0.73857456D-02  0.72230979D-02  0.47726062D-02 -0.60205797D-02 -0.58879954D-02
 -0.38904475D-02 -0.46575061D-13  0.12763467D-02 -0.11575766D-02 -0.64488235D-14
  0.15946029D-03 -0.83753988D-04 -0.50170204D-16  0.39912599D-05 -0.23262849D-05
  0.81162741D-04 -0.63355123D-04 -0.17807618D-04  0.19111563D-13 -0.17143280D-13
 -0.66217450D-03  0.14974269D-03 -0.73363127D-04 -0.76379563D-04  0.92246815D-15
 -0.11832066D-14  0.78391724D-03  0.42241676D-04 -0.24168764D-04 -0.18072912D-04
  0.33094991D-15 -0.21194250D-15  0.60173722D-05  0.29026574D-14  0.18199142D-04
 -0.32733964D-05 -0.94892798D-15 -0.24148320D-03  0.10424274D-03 -0.77590441D-14
  0.18688577D-03 -0.94422548D-04  0.62329135D-14 -0.99533055D-16 -0.57144266D-04
  0.10176320D-03 -0.24352736D-15 -0.16352219D-03  0.20328433D-03  0.54212653D-15
  0.33495499D-03 -0.50857394D-03  0.16432653D-14
MO    2     MO 0.0        OCC NO =    2.0000037  ORB. ENERGY =    0.000000
 -0.36754787D+00 -0.68504880D+00 -0.11615965D+01 -0.17579528D+01 -0.21929075D+01
 -0.18818409D+01 -0.72064510D+00 -0.43594899D-04 -0.46774466D-03 -0.17241949D-02
 -0.50414447D-02 -0.60751860D-02  0.73182053D-02 -0.33571050D-01  0.66537470D-03
  0.91276238D-04  0.44206515D-13  0.42865449D-13  0.28916779D-13  0.64904630D-05
  0.62935659D-05  0.42456023D-05  0.86787333D-02  0.84154519D-02  0.56770141D-02
  0.87690453D-14  0.10954501D-05 -0.18418521D-02  0.22545615D-14  0.36348994D-05
 -0.15707084D-03  0.13961645D-15  0.97351461D-07  0.17392073D-05  0.69120054D-03
  0.88141768D-04 -0.77934231D-03  0.85210640D-14  0.70404693D-15  0.31994808D-05
 -0.34052373D-03 -0.35708699D-03  0.69761072D-03 -0.78875612D-15 -0.11733179D-14
  0.88466692D-06 -0.39544544D-04  0.13253916D-04  0.26290629D-04 -0.60141827D-15
 -0.70190434D-15 -0.38680130D-06  0.12745622D-14  0.74985219D-07  0.24841389D-03
 -0.20703717D-15 -0.10944579D-05 -0.22491976D-03 -0.36166494D-14  0.86950220D-06
 -0.52032190D-03 -0.11042375D-13 -0.66967153D-15  0.35677914D-06 -0.66885820D-04
  0.47461313D-15  0.90745991D-06  0.11277303D-03  0.15344015D-14 -0.19777973D-05
  0.87884434D-04  0.34917369D-14 -0.16889829D+00 -0.31486044D+00 -0.53215703D+00
 -0.79993127D+00 -0.98257230D+00 -0.82925635D+00 -0.31182204D+00 -0.14605467D-04
 -0.10916681D-03 -0.40798131D-03 -0.11382043D-02 -0.15248800D-02  0.18005990D-02
 -0.14090952D-01  0.96303002D-04 -0.66058514D-05  0.22478997D-13  0.21075489D-13
  0.15007004D-13 -0.20750980D-05 -0.19455363D-05 -0.13853377D-05  0.25252007D-02
  0.23675362D-02  0.16858268D-02  0.29361022D-14  0.18782606D-05 -0.20153215D-02
 -0.67931711D-15 -0.80495315D-06 -0.24222202D-04 -0.64499160D-16 -0.16254373D-07
 -0.84452613D-05  0.82406629D-03  0.15842953D-03 -0.98249582D-03  0.55589859D-15
 -0.49549225D-15  0.74467691D-05 -0.13177829D-03  0.35689896D-03 -0.22512067D-03
  0.13103550D-15  0.26646827D-15 -0.15364714D-05 -0.33011926D-05 -0.14306839D-04
  0.17608031D-04  0.10546439D-15  0.23153311D-16 -0.62251046D-06 -0.69362359D-15
 -0.14424152D-05 -0.25423721D-03  0.10796561D-14  0.22039121D-05  0.53180410D-03
  0.10012147D-14  0.21233335D-05  0.23090753D-03  0.13973122D-14  0.11305625D-15
  0.11137134D-05  0.34198071D-04 -0.42445915D-15  0.45524787D-07  0.73110556D-04
  0.85290403D-16 -0.33866651D-05 -0.17570477D-03  0.12273166D-14  0.18613516D+00
  0.34695626D+00  0.58816816D+00  0.89056613D+00  0.11134038D+01  0.95772694D+00
  0.36730889D+00  0.19139641D-04  0.25337301D-03  0.92029688D-03  0.27300433D-02
  0.31458235D-02 -0.38210713D-02  0.16945416D-01 -0.84955326D-03 -0.29722061D-04
  0.10880711D-12  0.10641098D-12  0.70310234D-13  0.86719155D-02  0.84809440D-02
  0.56037183D-02  0.53943746D-02  0.52755805D-02  0.34857991D-02  0.24656021D-13
  0.78218463D-03  0.27939868D-03  0.43729032D-14  0.76815778D-04 -0.21718374D-04
  0.28082033D-15 -0.16761355D-05  0.20887199D-04 -0.27773584D-04  0.15102473D-03
 -0.12325115D-03 -0.70331012D-16  0.10225019D-13 -0.34744031D-03  0.83192906D-05
 -0.55818988D-04  0.47499697D-04  0.62260954D-15  0.63801333D-15  0.42917398D-04
 -0.15242817D-04  0.15046485D-04  0.19633271D-06  0.50597678D-15  0.10860452D-14
 -0.47282565D-05  0.22080540D-15  0.10699498D-03 -0.11977541D-03 -0.76533781D-14
  0.80539811D-04  0.56120357D-03  0.69909619D-14 -0.40152475D-03 -0.20187735D-03
 -0.13418412D-13 -0.84804115D-15 -0.56505172D-04 -0.61962105D-05  0.14895834D-14
 -0.13201270D-03 -0.28716859D-03  0.10545400D-14  0.30152822D-03  0.30575722D-03
  0.11668357D-14  0.18577483D+00  0.34628460D+00  0.58702955D+00  0.88884213D+00
  0.11112484D+01  0.95587292D+00  0.36659784D+00  0.19134851D-04  0.25330960D-03
  0.92006656D-03  0.27293601D-02  0.31450362D-02 -0.38201150D-02  0.16915745D-01
 -0.85031101D-03 -0.28103415D-04  0.23309423D-13  0.22796107D-13  0.15062351D-13
 -0.87880798D-02 -0.85945501D-02 -0.56787826D-02  0.53621492D-02  0.52440648D-02
  0.34649754D-02  0.68537407D-14 -0.80071313D-03  0.27822219D-03  0.20670375D-14
 -0.84819107D-04 -0.20313128D-04  0.50936433D-16  0.14701449D-05  0.21320334D-04
 -0.33164807D-04  0.15813680D-03 -0.12497199D-03 -0.12713336D-14 -0.39269779D-14
  0.33780615D-03  0.39463468D-05 -0.54018547D-04  0.50072201D-04 -0.66455006D-15
 -0.34951845D-15 -0.57783450D-04 -0.16796654D-04  0.16349759D-04  0.44689480D-06
 -0.86624786D-15  0.49632074D-15  0.22257694D-05 -0.11002958D-14 -0.10713305D-03
 -0.11818309D-03  0.44599817D-14 -0.92719307D-04  0.57632356D-03 -0.11590942D-14
  0.41411847D-03 -0.22177429D-03  0.13649386D-13 -0.43039340D-15  0.55563680D-04
 -0.71057893D-05  0.10893297D-14  0.13600718D-03 -0.29219909D-03  0.20185049D-15
 -0.30269823D-03  0.31351646D-03 -0.75504582D-15
MO    3     MO 0.0        OCC NO =    2.0000022  ORB. ENERGY =    0.000000
  0.18260843D-02  0.34035209D-02  0.57711480D-02  0.87340189D-02  0.10895000D-01
  0.93495310D-02  0.35803737D-02  0.25172580D-06  0.27008526D-05  0.99558514D-05
  0.29110325D-04  0.35079358D-04 -0.42256804D-04  0.16805146D-03 -0.79691136D-05
 -0.37782521D-05  0.52000992D-13  0.50423470D-13  0.34015375D-13 -0.85755992D-03
 -0.83154465D-03 -0.56095511D-03  0.32199826D-05  0.31222999D-05  0.21062851D-05
  0.15670234D-13 -0.10413912D-03  0.28237646D-04  0.15821291D-13  0.92598571D-04
  0.89182772D-06  0.10118532D-14  0.14465588D-04  0.45963719D-06  0.56043951D-05
 -0.43984073D-06 -0.51645544D-05  0.69881742D-14  0.86724774D-14  0.17161271D-03
  0.11466586D-06  0.50057942D-05 -0.51204601D-05 -0.34023757D-15 -0.14296224D-13
 -0.63893077D-04 -0.54135908D-06  0.39554613D-06  0.14581294D-06  0.79891809D-15
 -0.64469999D-14 -0.25144374D-04  0.81744810D-16 -0.12884870D-04 -0.45647786D-05
  0.40124785D-14  0.15945065D-03  0.77786030D-05 -0.42577129D-14 -0.12079604D-03
  0.59157329D-05  0.37557597D-14 -0.19500462D-14  0.34357671D-05  0.10515141D-05
 -0.12898083D-14 -0.66211883D-04  0.15732127D-05  0.71399469D-14  0.55904582D-04
 -0.47277551D-05 -0.28580213D-14  0.22145836D-02  0.41284299D-02  0.69776090D-02
  0.10488648D-01  0.12883425D-01  0.10873156D-01  0.40885907D-02  0.22915711D-06
  0.17128074D-05  0.64011523D-05  0.17858218D-04  0.23925089D-04 -0.28251069D-04
  0.17849393D-03 -0.37633672D-05  0.23133623D-06  0.19774826D-13  0.18540156D-13
  0.13201696D-13 -0.55644257D-04 -0.52170028D-04 -0.37148168D-04 -0.33322717D-04
 -0.31242165D-04 -0.22246283D-04 -0.92142810D-14 -0.37205821D-03  0.19357434D-04
 -0.57094972D-14  0.56209645D-04  0.56942104D-05 -0.21539668D-15 -0.62962462D-05
 -0.61345748D-07 -0.89632651D-05 -0.38696504D-05  0.12832916D-04  0.18656596D-14
  0.16552215D-14  0.59074194D-03  0.14347785D-05 -0.50471516D-05  0.36123731D-05
  0.27941177D-15 -0.11956865D-13  0.37227522D-03  0.14018410D-06 -0.34199737D-06
  0.20181327D-06 -0.11032853D-15 -0.10375423D-14 -0.28371050D-04  0.73764007D-15
 -0.21414936D-04  0.63245804D-05  0.36291487D-14  0.51225760D-03  0.29749249D-05
 -0.58420689D-14 -0.44801279D-03 -0.21948666D-04  0.13409703D-14  0.71479891D-15
  0.45033409D-04  0.20658332D-06  0.22388910D-15  0.30029678D-04 -0.46215014D-06
 -0.23682858D-14 -0.16512990D-03 -0.15759982D-06 -0.12710222D-14  0.42794052D+00
  0.79768186D+00  0.13522485D+01  0.20474871D+01  0.25598098D+01  0.22018955D+01
  0.84447430D+00  0.39280932D-04  0.52000599D-03  0.18887564D-02  0.56029602D-02
  0.64562799D-02 -0.78421136D-02  0.39646742D-01 -0.15587744D-03  0.86432027D-04
 -0.93952799D-13 -0.91883786D-13 -0.60711502D-13  0.97108290D-02  0.94969786D-02
  0.62750553D-02  0.75488493D-02  0.73826097D-02  0.48780024D-02 -0.18277879D-13
 -0.19163599D-03  0.14591014D-03 -0.29466503D-14  0.24042783D-03  0.40371256D-03
  0.16010035D-15  0.21237447D-04  0.47072207D-05 -0.13657904D-03  0.15937355D-03
 -0.22794511D-04 -0.41587324D-14  0.91649318D-14  0.22926070D-03  0.15594398D-03
 -0.24357123D-03  0.87627255D-04 -0.18042794D-14 -0.49232534D-14 -0.52975138D-03
 -0.60015360D-04  0.13610207D-04  0.46405153D-04  0.27683102D-15  0.59514286D-15
  0.13335483D-03 -0.11745782D-14 -0.27100897D-03  0.64422099D-05  0.13203720D-14
  0.88780315D-03  0.20113071D-03  0.22033625D-14 -0.74776242D-04 -0.22045733D-03
  0.15510839D-13 -0.34924366D-15  0.52106026D-04  0.22203506D-04  0.27757595D-15
 -0.20901440D-03 -0.34843083D-04  0.77015503D-15  0.52696324D-04 -0.31767435D-04
 -0.75370563D-15 -0.41688719D+00 -0.77707844D+00 -0.13173211D+01 -0.19946023D+01
 -0.24936921D+01 -0.21450224D+01 -0.82266226D+00 -0.38273022D-04 -0.50666315D-03
 -0.18402927D-02 -0.54591937D-02 -0.62906181D-02  0.76408927D-02 -0.38630447D-01
  0.17255971D-03 -0.80727962D-04  0.48363996D-13  0.47298932D-13  0.31252404D-13
  0.96610422D-02  0.94482883D-02  0.62428835D-02 -0.74106604D-02 -0.72474640D-02
 -0.47887059D-02  0.94837896D-14 -0.17687816D-03 -0.16543270D-03  0.13153939D-14
  0.23089229D-03 -0.39584037D-03  0.30314447D-15  0.20977100D-04 -0.37010769D-05
  0.14374233D-03 -0.16329202D-03  0.19549698D-04  0.13800724D-13  0.10447805D-13
  0.23649083D-03 -0.15123995D-03  0.24465671D-03 -0.93416754D-04 -0.15350066D-14
 -0.20883538D-14 -0.50218489D-03  0.58648247D-04 -0.13436716D-04 -0.45211531D-04
  0.33983850D-15  0.39436447D-15  0.13139469D-03 -0.24240619D-14 -0.27473096D-03
 -0.10052198D-04  0.22891278D-14  0.88292728D-03 -0.17796350D-03  0.49830579D-14
 -0.58734387D-04  0.20812009D-03 -0.73671687D-14 -0.61095452D-15  0.50826492D-04
 -0.18704409D-04  0.17391496D-14 -0.21132774D-03  0.32339684D-04  0.93713920D-16
  0.58848265D-04  0.23773542D-04  0.12675071D-14
MO    4     MO 0.0        OCC NO =    2.0000016  ORB. ENERGY =    0.000000
  0.10177037D+00  0.18968323D+00  0.32163457D+00  0.48675972D+00  0.60719438D+00
  0.52106312D+00  0.19953949D+00  0.13157457D-04  0.14117088D-03  0.52038245D-03
  0.15215678D-02  0.18335631D-02 -0.22087211D-02  0.93900009D-02 -0.42087959D-03
 -0.17742794D-03 -0.50338461D-13 -0.48811374D-13 -0.32927865D-13  0.21210542D-04
  0.20567091D-04  0.13874438D-04  0.54355336D-03  0.52706392D-03  0.35555421D-03
 -0.63512017D-14  0.11255292D-04  0.15708572D-02  0.35622073D-14  0.63359328D-06
  0.12178122D-03  0.74940720D-15 -0.17976771D-06  0.19317199D-04  0.15385542D-03
 -0.88887072D-05 -0.14496672D-03  0.96902508D-14 -0.11660999D-13 -0.78110042D-05
  0.62530218D-04  0.28762862D-03 -0.35015884D-03 -0.27530284D-14 -0.15684708D-14
 -0.50319956D-05 -0.11783081D-04  0.21699118D-04 -0.99160371D-05 -0.58503087D-16
 -0.27907566D-14  0.11038235D-06  0.16036749D-14 -0.30647516D-05 -0.31141532D-03
 -0.39267465D-14 -0.60585104D-05  0.61374577D-03 -0.88427825D-15  0.15252765D-04
  0.32050019D-03 -0.12165146D-13 -0.13028527D-14 -0.12538805D-06  0.77718163D-04
  0.41985716D-15  0.16070914D-05 -0.14794485D-04  0.34887009D-14 -0.12309273D-05
 -0.21836000D-03  0.17934090D-14  0.14757956D+00  0.27511803D+00  0.46498696D+00
  0.69896213D+00  0.85854978D+00  0.72458573D+00  0.27246316D+00  0.11623121D-04
  0.86875628D-04  0.32467406D-03  0.90579006D-03  0.12135090D-02 -0.14329278D-02
  0.11814240D-01  0.15244333D-04  0.24236296D-04  0.16064476D-13  0.15061467D-13
  0.10724662D-13  0.85474224D-05  0.80137518D-05  0.57062687D-05 -0.23383022D-02
 -0.21923070D-02 -0.15610532D-02 -0.16295731D-13  0.26716144D-04  0.64052454D-03
 -0.57936811D-14  0.59357638D-06  0.20667860D-03 -0.22893353D-15  0.10750048D-06
 -0.12700427D-05 -0.10638429D-02  0.32146234D-03  0.74238052D-03 -0.21599493D-14
 -0.85300247D-14 -0.41306518D-04 -0.29344778D-04 -0.10040508D-03  0.12974986D-03
  0.15039568D-14  0.34386519D-14 -0.19220255D-04  0.38887990D-05 -0.12738858D-04
  0.88500592D-05  0.11787804D-15 -0.11301725D-15  0.17988061D-06  0.18168870D-14
  0.60457263D-05  0.47960626D-03 -0.36635845D-14 -0.14851907D-04  0.19558018D-03
 -0.17870766D-14 -0.32852722D-05 -0.16343990D-02  0.14881239D-14  0.11683865D-14
 -0.75664364D-06  0.41853376D-04 -0.14767408D-14 -0.47831463D-06 -0.24695752D-04
 -0.20284187D-14  0.27482455D-05 -0.10086438D-03  0.11379996D-16  0.36056952D+00
  0.67210221D+00  0.11393630D+01  0.17251496D+01  0.21568170D+01  0.18552494D+01
  0.71152808D+00  0.31010371D-04  0.41051924D-03  0.14910806D-02  0.44232625D-02
  0.50969166D-02 -0.61909643D-02  0.33725529D-01  0.28075173D-03  0.83427937D-04
  0.12588198D-12  0.12310983D-12  0.81343869D-13  0.60203884D-02  0.58878083D-02
  0.38903239D-02  0.38388478D-02  0.37543093D-02  0.24806309D-02  0.25956670D-13
 -0.51923990D-03 -0.63141634D-03  0.12362932D-13  0.31202617D-03  0.16336030D-03
  0.66838896D-15  0.50103058D-05  0.13574856D-04 -0.22931431D-03  0.16317390D-03
  0.66140409D-04 -0.71850693D-14 -0.11821045D-13  0.76055845D-03  0.24368364D-03
 -0.16413731D-03 -0.79546324D-04  0.66971145D-14  0.33646884D-14 -0.96179462D-03
 -0.44199195D-04  0.35660949D-04  0.85382462D-05  0.52537007D-14  0.35676891D-14
  0.64993239D-04  0.66294528D-14  0.25863448D-04 -0.73246045D-04 -0.24064546D-13
  0.25981101D-03  0.46170975D-03  0.41761880D-14 -0.33740135D-03 -0.24197161D-03
 -0.35270047D-13 -0.38143357D-14  0.33884406D-04  0.96013068D-04  0.89386282D-14
  0.11027014D-03  0.43572721D-04  0.25043790D-14 -0.21192335D-03 -0.33161192D-03
  0.12548709D-13  0.37337131D+00  0.69596476D+00  0.11798153D+01  0.17863999D+01
  0.22333934D+01  0.19211188D+01  0.73679041D+00  0.32115048D-04  0.42514311D-03
  0.15441971D-02  0.45808317D-02  0.52784833D-02 -0.64115042D-02  0.34931369D-01
  0.25490825D-03  0.80351026D-04  0.96300885D-13  0.94180162D-13  0.62228815D-13
 -0.63677297D-02 -0.62275006D-02 -0.41147730D-02  0.40454418D-02  0.39563537D-02
  0.26141302D-02  0.17266147D-13  0.55390453D-03 -0.64105128D-03  0.10163243D-13
 -0.30376780D-03  0.16551976D-03  0.36285263D-15 -0.50761692D-05  0.13386101D-04
 -0.23695737D-03  0.17630110D-03  0.60656270D-04 -0.19769584D-14 -0.20357435D-13
 -0.78553543D-03  0.25382851D-03 -0.18317667D-03 -0.70651847D-04 -0.55576250D-14
  0.45119932D-14  0.10003265D-02 -0.44223095D-04  0.33746944D-04  0.10476151D-04
 -0.45100749D-14  0.20118195D-14 -0.63226090D-04  0.84106597D-14 -0.17712444D-04
 -0.74347154D-04 -0.16444168D-13 -0.28455099D-03  0.46349926D-03 -0.87878106D-14
  0.33768832D-03 -0.24045780D-03  0.21434261D-13 -0.30501071D-14 -0.33593393D-04
  0.99952681D-04  0.82173611D-14 -0.10642146D-03  0.43466446D-04  0.93296026D-15
  0.20720164D-03 -0.34332449D-03 -0.94981242D-14
MO    5     MO 0.0        OCC NO =    1.9861652  ORB. ENERGY =    0.000000
 -0.98220198D-02 -0.18306630D-01 -0.31041463D-01 -0.46977954D-01 -0.58601295D-01
 -0.50288629D-01 -0.19257873D-01 -0.15935400D-03 -0.17097638D-02 -0.63025113D-02
 -0.18428173D-01 -0.22206845D-01  0.26750498D-01  0.14023174D-01 -0.42181487D-04
 -0.19023204D-02  0.48297443D-13  0.46832273D-13  0.31592775D-13  0.22286873D-02
  0.21610770D-02  0.14578498D-02 -0.69603070D-01 -0.67491565D-01 -0.45529411D-01
  0.40077095D-14  0.56320163D-03 -0.13028070D-01 -0.34503028D-14  0.10494713D-03
  0.19717855D-02 -0.28991496D-15 -0.18448905D-05  0.22738427D-03 -0.39673460D-02
 -0.42369749D-02  0.82043209D-02 -0.76550798D-14 -0.16340042D-13 -0.24939240D-03
 -0.45758101D-03  0.62079330D-03 -0.16321229D-03  0.14512526D-14  0.90064806D-14
 -0.11337411D-03  0.10876600D-03  0.51500636D-03 -0.62377236D-03 -0.53053719D-15
  0.20114088D-14 -0.12817992D-04  0.13748723D-15 -0.52993911D-04 -0.15963725D-02
  0.25136155D-14 -0.52045865D-04  0.34505686D-02 -0.29260771D-14  0.21102760D-03
  0.13385490D-02 -0.28570925D-14  0.10960153D-14 -0.45206031D-05  0.50683661D-03
  0.21975707D-15  0.29492436D-05 -0.21500423D-03 -0.35078028D-14  0.10612566D-04
 -0.13055056D-02  0.50788123D-15 -0.17073873D-01 -0.31829138D-01 -0.53795580D-01
 -0.80864790D-01 -0.99327911D-01 -0.83829253D-01 -0.31521988D-01 -0.31340917D-03
 -0.23425394D-02 -0.87546045D-02 -0.24423983D-01 -0.32721404D-01  0.38637877D-01
  0.15459645D-01  0.21939439D-02  0.22128096D-03  0.29789086D-13  0.27929162D-13
  0.19887227D-13  0.28914912D-02  0.27109568D-02  0.19303627D-02 -0.34357553D-01
 -0.32212390D-01 -0.22937141D-01  0.19909817D-13  0.45932986D-03 -0.49783959D-02
  0.45181671D-14 -0.76738765D-04  0.15048959D-02  0.19583377D-15  0.83198633D-06
 -0.29467687D-05 -0.19139045D-01  0.91166440D-02  0.10022401D-01 -0.58567452D-15
  0.14544471D-14 -0.95051373D-03 -0.25946825D-02  0.11037088D-02  0.14909737D-02
  0.25216980D-14  0.11790501D-14 -0.16045925D-03  0.83525586D-04 -0.89243004D-04
  0.57174187D-05  0.40138070D-15 -0.21567005D-15  0.12694419D-04 -0.37768299D-14
  0.45125644D-04  0.33943196D-02  0.11641247D-14 -0.13374786D-03  0.34827599D-02
  0.10166365D-13 -0.16290737D-05 -0.13665719D-01 -0.60665603D-14 -0.69483576D-15
 -0.65167898D-05  0.26191470D-03  0.22492023D-15  0.22910757D-05  0.32018533D-03
  0.18595871D-14  0.17259294D-04 -0.11059294D-02 -0.42097507D-15 -0.86998903D-01
 -0.16216611D+00 -0.27490768D+00 -0.41624740D+00 -0.52040093D+00 -0.44763812D+00
 -0.17167885D+00 -0.12675491D-02 -0.16779977D-01 -0.60947930D-01 -0.18080089D+00
 -0.20833650D+00  0.25305572D+00  0.14560673D+00  0.66056976D-01  0.15961652D-02
  0.22314754D-12  0.21823342D-12  0.14419605D-12 -0.31387269D-01 -0.30696063D-01
 -0.20282187D-01 -0.13175670D+00 -0.12885517D+00 -0.85140060D-01  0.54655526D-13
 -0.22755004D-02 -0.27413709D-01  0.57984603D-14 -0.29126405D-02 -0.62802274D-02
 -0.59554725D-16 -0.48228668D-04 -0.50994417D-04 -0.58285141D-02  0.71437479D-02
 -0.13152338D-02  0.16922006D-13  0.55218024D-14  0.13217953D-01 -0.28784031D-02
  0.40128765D-02 -0.11344734D-02  0.22957960D-14  0.28984676D-14  0.72915320D-02
  0.21014795D-03 -0.18585225D-03 -0.24295699D-04 -0.88989564D-15  0.32977413D-15
 -0.88530574D-03 -0.69459739D-15  0.16247072D-02 -0.20756974D-02  0.11440874D-13
 -0.62596289D-02 -0.22983771D-02 -0.93570822D-14  0.13855073D-02  0.85254695D-02
  0.47199473D-14  0.47200320D-15  0.28243326D-03 -0.22965496D-03 -0.32973984D-14
 -0.81827119D-03 -0.99254198D-03  0.18813887D-14 -0.29028586D-04  0.16815069D-02