 f2co-wavefunction
GAUSSIAN            184 MOL ORBITALS    288 PRIMITIVES        4 NUCLEI
  O    1    (CENTRE  1)   0.00000000  0.00000000  1.28487582  CHARGE =  8.0
  C    2    (CENTRE  2)   0.00000000  0.00000000 -0.93015344  CHARGE =  6.0
  F    3    (CENTRE  3)   0.00000000 -2.01988669 -2.38919020  CHARGE =  9.0
  F    4    (CENTRE  4)   0.00000000  2.00098943 -2.38919020  CHARGE =  9.0
CENTRE ASSIGNMENTS    1  1  1  1  1  1  1  1  1  1  1  1  1  1  1  1  1  1  1  1
CENTRE ASSIGNMENTS    1  1  1  1  1  1  1  1  1  1  1  1  1  1  1  1  1  1  1  1
CENTRE ASSIGNMENTS    1  1  1  1  1  1  1  1  1  1  1  1  1  1  1  1  1  1  1  1
CENTRE ASSIGNMENTS    1  1  1  1  1  1  1  1  1  1  1  1  2  2  2  2  2  2  2  2
CENTRE ASSIGNMENTS    2  2  2  2  2  2  2  2  2  2  2  2  2  2  2  2  2  2  2  2
CENTRE ASSIGNMENTS    2  2  2  2  2  2  2  2  2  2  2  2  2  2  2  2  2  2  2  2
CENTRE ASSIGNMENTS    2  2  2  2  2  2  2  2  2  2  2  2  2  2  2  2  2  2  2  2
CENTRE ASSIGNMENTS    2  2  2  2  3  3  3  3  3  3  3  3  3  3  3  3  3  3  3  3
CENTRE ASSIGNMENTS    3  3  3  3  3  3  3  3  3  3  3  3  3  3  3  3  3  3  3  3
CENTRE ASSIGNMENTS    3  3  3  3  3  3  3  3  3  3  3  3  3  3  3  3  3  3  3  3
CENTRE ASSIGNMENTS    3  3  3  3  3  3  3  3  3  3  3  3  3  3  3  3  4  4  4  4
CENTRE ASSIGNMENTS    4  4  4  4  4  4  4  4  4  4  4  4  4  4  4  4  4  4  4  4
CENTRE ASSIGNMENTS    4  4  4  4  4  4  4  4  4  4  4  4  4  4  4  4  4  4  4  4
CENTRE ASSIGNMENTS    4  4  4  4  4  4  4  4  4  4  4  4  4  4  4  4  4  4  4  4
CENTRE ASSIGNMENTS    4  4  4  4  4  4  4  4
TYPE ASSIGNMENTS      1  1  1  1  1  1  1  1  1  1  1  1  1  1  1  1  2  2  2  3
TYPE ASSIGNMENTS      3  3  4  4  4  2  3  4  2  3  4  2  3  4  5  6  7  8  9 10
TYPE ASSIGNMENTS      5  6  7  8  9 10  5  6  7  8  9 10 11 12 13 17 14 15 18 19
TYPE ASSIGNMENTS     16 20 11 12 13 17 14 15 18 19 16 20  1  1  1  1  1  1  1  1
TYPE ASSIGNMENTS      1  1  1  1  1  1  1  1  2  2  2  3  3  3  4  4  4  2  3  4
TYPE ASSIGNMENTS      2  3  4  2  3  4  5  6  7  8  9 10  5  6  7  8  9 10  5  6
TYPE ASSIGNMENTS      7  8  9 10 11 12 13 17 14 15 18 19 16 20 11 12 13 17 14 15
TYPE ASSIGNMENTS     18 19 16 20  1  1  1  1  1  1  1  1  1  1  1  1  1  1  1  1
TYPE ASSIGNMENTS      2  2  2  3  3  3  4  4  4  2  3  4  2  3  4  2  3  4  5  6
TYPE ASSIGNMENTS      7  8  9 10  5  6  7  8  9 10  5  6  7  8  9 10 11 12 13 17
TYPE ASSIGNMENTS     14 15 18 19 16 20 11 12 13 17 14 15 18 19 16 20  1  1  1  1
TYPE ASSIGNMENTS      1  1  1  1  1  1  1  1  1  1  1  1  2  2  2  3  3  3  4  4
TYPE ASSIGNMENTS      4  2  3  4  2  3  4  2  3  4  5  6  7  8  9 10  5  6  7  8
TYPE ASSIGNMENTS      9 10  5  6  7  8  9 10 11 12 13 17 14 15 18 19 16 20 11 12
TYPE ASSIGNMENTS     13 17 14 15 18 19 16 20
EXPONENTS  0.1533000D+05 0.2299000D+04 0.5224000D+03 0.1473000D+03 0.4755000D+02
EXPONENTS  0.1676000D+02 0.6207000D+01 0.5224000D+03 0.1473000D+03 0.4755000D+02
EXPONENTS  0.1676000D+02 0.6207000D+01 0.6882000D+00 0.1752000D+01 0.2384000D+00
EXPONENTS  0.7376000D-01 0.3446000D+02 0.7749000D+01 0.2280000D+01 0.3446000D+02
EXPONENTS  0.7749000D+01 0.2280000D+01 0.3446000D+02 0.7749000D+01 0.2280000D+01
EXPONENTS  0.7156000D+00 0.7156000D+00 0.7156000D+00 0.2140000D+00 0.2140000D+00
EXPONENTS  0.2140000D+00 0.5974000D-01 0.5974000D-01 0.5974000D-01 0.2314000D+01
EXPONENTS  0.2314000D+01 0.2314000D+01 0.2314000D+01 0.2314000D+01 0.2314000D+01
EXPONENTS  0.6450000D+00 0.6450000D+00 0.6450000D+00 0.6450000D+00 0.6450000D+00
EXPONENTS  0.6450000D+00 0.2140000D+00 0.2140000D+00 0.2140000D+00 0.2140000D+00
EXPONENTS  0.2140000D+00 0.2140000D+00 0.1428000D+01 0.1428000D+01 0.1428000D+01
EXPONENTS  0.1428000D+01 0.1428000D+01 0.1428000D+01 0.1428000D+01 0.1428000D+01
EXPONENTS  0.1428000D+01 0.1428000D+01 0.5000000D+00 0.5000000D+00 0.5000000D+00
EXPONENTS  0.5000000D+00 0.5000000D+00 0.5000000D+00 0.5000000D+00 0.5000000D+00
EXPONENTS  0.5000000D+00 0.5000000D+00 0.8236000D+04 0.1235000D+04 0.2808000D+03
EXPONENTS  0.7927000D+02 0.2559000D+02 0.8997000D+01 0.3319000D+01 0.2808000D+03
EXPONENTS  0.7927000D+02 0.2559000D+02 0.8997000D+01 0.3319000D+01 0.3643000D+00
EXPONENTS  0.9059000D+00 0.1285000D+00 0.4402000D-01 0.1871000D+02 0.4133000D+01
EXPONENTS  0.1200000D+01 0.1871000D+02 0.4133000D+01 0.1200000D+01 0.1871000D+02
EXPONENTS  0.4133000D+01 0.1200000D+01 0.3827000D+00 0.3827000D+00 0.3827000D+00
EXPONENTS  0.1209000D+00 0.1209000D+00 0.1209000D+00 0.3569000D-01 0.3569000D-01
EXPONENTS  0.3569000D-01 0.1097000D+01 0.1097000D+01 0.1097000D+01 0.1097000D+01
EXPONENTS  0.1097000D+01 0.1097000D+01 0.3180000D+00 0.3180000D+00 0.3180000D+00
EXPONENTS  0.3180000D+00 0.3180000D+00 0.3180000D+00 0.1000000D+00 0.1000000D+00
EXPONENTS  0.1000000D+00 0.1000000D+00 0.1000000D+00 0.1000000D+00 0.7610000D+00
EXPONENTS  0.7610000D+00 0.7610000D+00 0.7610000D+00 0.7610000D+00 0.7610000D+00
EXPONENTS  0.7610000D+00 0.7610000D+00 0.7610000D+00 0.7610000D+00 0.2680000D+00
EXPONENTS  0.2680000D+00 0.2680000D+00 0.2680000D+00 0.2680000D+00 0.2680000D+00
EXPONENTS  0.2680000D+00 0.2680000D+00 0.2680000D+00 0.2680000D+00 0.1950000D+05
EXPONENTS  0.2923000D+04 0.6645000D+03 0.1875000D+03 0.6062000D+02 0.2142000D+02
EXPONENTS  0.7950000D+01 0.6645000D+03 0.1875000D+03 0.6062000D+02 0.2142000D+02
EXPONENTS  0.7950000D+01 0.8815000D+00 0.2257000D+01 0.3041000D+00 0.9158000D-01
EXPONENTS  0.4388000D+02 0.9926000D+01 0.2930000D+01 0.4388000D+02 0.9926000D+01
EXPONENTS  0.2930000D+01 0.4388000D+02 0.9926000D+01 0.2930000D+01 0.9132000D+00
EXPONENTS  0.9132000D+00 0.9132000D+00 0.2672000D+00 0.2672000D+00 0.2672000D+00
EXPONENTS  0.7361000D-01 0.7361000D-01 0.7361000D-01 0.3107000D+01 0.3107000D+01
EXPONENTS  0.3107000D+01 0.3107000D+01 0.3107000D+01 0.3107000D+01 0.8550000D+00
EXPONENTS  0.8550000D+00 0.8550000D+00 0.8550000D+00 0.8550000D+00 0.8550000D+00
EXPONENTS  0.2920000D+00 0.2920000D+00 0.2920000D+00 0.2920000D+00 0.2920000D+00
EXPONENTS  0.2920000D+00 0.1917000D+01 0.1917000D+01 0.1917000D+01 0.1917000D+01
EXPONENTS  0.1917000D+01 0.1917000D+01 0.1917000D+01 0.1917000D+01 0.1917000D+01
EXPONENTS  0.1917000D+01 0.7240000D+00 0.7240000D+00 0.7240000D+00 0.7240000D+00
EXPONENTS  0.7240000D+00 0.7240000D+00 0.7240000D+00 0.7240000D+00 0.7240000D+00
EXPONENTS  0.7240000D+00 0.1950000D+05 0.2923000D+04 0.6645000D+03 0.1875000D+03
EXPONENTS  0.6062000D+02 0.2142000D+02 0.7950000D+01 0.6645000D+03 0.1875000D+03
EXPONENTS  0.6062000D+02 0.2142000D+02 0.7950000D+01 0.8815000D+00 0.2257000D+01
EXPONENTS  0.3041000D+00 0.9158000D-01 0.4388000D+02 0.9926000D+01 0.2930000D+01
EXPONENTS  0.4388000D+02 0.9926000D+01 0.2930000D+01 0.4388000D+02 0.9926000D+01
EXPONENTS  0.2930000D+01 0.9132000D+00 0.9132000D+00 0.9132000D+00 0.2672000D+00
EXPONENTS  0.2672000D+00 0.2672000D+00 0.7361000D-01 0.7361000D-01 0.7361000D-01
EXPONENTS  0.3107000D+01 0.3107000D+01 0.3107000D+01 0.3107000D+01 0.3107000D+01
EXPONENTS  0.3107000D+01 0.8550000D+00 0.8550000D+00 0.8550000D+00 0.8550000D+00
EXPONENTS  0.8550000D+00 0.8550000D+00 0.2920000D+00 0.2920000D+00 0.2920000D+00
EXPONENTS  0.2920000D+00 0.2920000D+00 0.2920000D+00 0.1917000D+01 0.1917000D+01
EXPONENTS  0.1917000D+01 0.1917000D+01 0.1917000D+01 0.1917000D+01 0.1917000D+01
EXPONENTS  0.1917000D+01 0.1917000D+01 0.1917000D+01 0.7240000D+00 0.7240000D+00
EXPONENTS  0.7240000D+00 0.7240000D+00 0.7240000D+00 0.7240000D+00 0.7240000D+00
EXPONENTS  0.7240000D+00 0.7240000D+00 0.7240000D+00
MO    1     MO 0.0        OCC NO =    2.0000068  ORB. ENERGY =    0.000000
 -0.32291337D+00 -0.60185743D+00 -0.10205338D+01 -0.15444695D+01 -0.19266039D+01
 -0.16533128D+01 -0.63313096D+00 -0.40273580D-04 -0.43210908D-03 -0.15928354D-02
 -0.46573574D-02 -0.56123421D-02  0.67606609D-02 -0.29095653D-01  0.49173547D-03
 -0.50081032D-04  0.10243336D-13  0.99325906D-14  0.67004670D-14  0.23308377D-06
  0.22601285D-06  0.15246694D-06  0.19802867D-01  0.19202120D-01  0.12953637D-01
  0.21727796D-14 -0.34509496D-07  0.24975062D-02 -0.91326144D-14  0.67175657D-07
  0.66598165D-03 -0.46073517D-15 -0.18461098D-06  0.14625816D-04  0.12285164D-02
  0.65073602D-03 -0.18792524D-02 -0.12924429D-15 -0.20241110D-13  0.24554414D-05
  0.47977879D-04 -0.28394070D-04 -0.19583809D-04  0.48255970D-15  0.99625388D-14
  0.15514306D-05  0.50266704D-04 -0.17353957D-05 -0.48531308D-04  0.76743728D-16
  0.41184646D-14 -0.62060025D-07 -0.38895546D-14 -0.10125218D-05 -0.55321053D-03
  0.57883405D-14 -0.22153834D-06  0.10375221D-02  0.58803232D-14  0.32591037D-05
  0.62210948D-03  0.77894752D-15  0.13246420D-14  0.18342377D-06  0.12127071D-04
  0.16564004D-14 -0.39748486D-07 -0.21375280D-04 -0.56303264D-14 -0.51052282D-06
 -0.15005932D-04  0.21332666D-15  0.23886545D+00  0.44529331D+00  0.75260637D+00
  0.11313077D+01  0.13896089D+01  0.11727809D+01  0.44099625D+00  0.26564234D-04
  0.19855119D-03  0.74203113D-03  0.20701513D-02  0.27734320D-02 -0.32749061D-02
  0.19310546D-01 -0.41774632D-04  0.15320490D-04  0.73513165D-14  0.68923265D-14
  0.49077471D-14  0.10106411D-04  0.94754027D-05  0.67470512D-05 -0.40462132D-02
 -0.37935821D-02 -0.27012564D-02  0.95207849D-14  0.98728522D-05  0.47765842D-03
  0.24788831D-14 -0.14133219D-05  0.80223915D-04  0.83028676D-16  0.64809889D-07
  0.81724427D-06 -0.93818821D-03  0.40060127D-03  0.53758694D-03 -0.25226833D-14
 -0.31471467D-15 -0.34524599D-04  0.21478757D-03 -0.13094698D-03 -0.83840592D-04
  0.27862349D-15  0.11673826D-13  0.24782178D-06 -0.55392503D-07 -0.26535049D-05
  0.27088974D-05 -0.14475070D-15  0.78694736D-15  0.59692159D-06 -0.12640542D-14
 -0.50080688D-06  0.55214782D-03 -0.96994967D-15 -0.60828218D-05 -0.33530258D-03
  0.47621122D-14  0.75852425D-05 -0.13211409D-02  0.90997986D-16 -0.22404460D-15
 -0.40029758D-07 -0.88828473D-04 -0.59164857D-15  0.61253965D-06 -0.10565807D-04
  0.12637824D-14 -0.49245038D-06  0.27705123D-03  0.53396375D-16 -0.95542798D-01
 -0.17809194D+00 -0.30190552D+00 -0.45712578D+00 -0.57150791D+00 -0.49159929D+00
 -0.18853891D+00 -0.11598008D-04 -0.15353591D-03 -0.55767037D-03 -0.16543186D-02
 -0.19062681D-02  0.23154465D-02 -0.83476791D-02  0.78064572D-03  0.28078311D-04
  0.64208461D-13  0.62794473D-13  0.41490963D-13 -0.73043173D-02 -0.71434628D-02
 -0.47199879D-02 -0.58765455D-02 -0.57471331D-02 -0.37973739D-02  0.15546399D-13
 -0.12487860D-02 -0.11135697D-02  0.41439568D-14 -0.14076900D-03 -0.73520742D-04
 -0.96214744D-16 -0.36500778D-05 -0.17705629D-05  0.56662895D-04 -0.36079699D-04
 -0.20583196D-04  0.24536059D-14 -0.43004295D-14  0.69408977D-03  0.14664119D-03
 -0.78541829D-04 -0.68099359D-04  0.24317304D-14  0.12147989D-14 -0.75497065D-03
  0.40082649D-04 -0.21456581D-04 -0.18626068D-04  0.15685372D-14  0.44236159D-15
  0.12523658D-05 -0.88555553D-15 -0.21324787D-04  0.65615126D-05 -0.67648856D-15
  0.25767060D-03  0.11069186D-03  0.33331551D-14 -0.19369624D-03 -0.13037640D-03
 -0.37431309D-14 -0.41480329D-15  0.51776358D-04  0.99807380D-04  0.22168770D-14
  0.16573145D-03  0.20180559D-03 -0.97246707D-15 -0.32106053D-03 -0.50122773D-03
  0.14796873D-14 -0.96391485D-01 -0.17967389D+00 -0.30458728D+00 -0.46118633D+00
 -0.57658449D+00 -0.49596606D+00 -0.19021366D+00 -0.11712433D-04 -0.15505068D-03
 -0.56317228D-03 -0.16706400D-02 -0.19250751D-02  0.23382905D-02 -0.84226224D-02
  0.77853495D-03  0.27971613D-04  0.61475081D-13  0.60121287D-13  0.39724676D-13
  0.74139119D-02  0.72506439D-02  0.47908070D-02 -0.60212670D-02 -0.58886677D-02
 -0.38908917D-02  0.12808530D-13  0.12780928D-02 -0.11511605D-02  0.43418973D-14
  0.15786800D-03 -0.82029351D-04  0.12732509D-15  0.37025459D-05 -0.19750664D-05
  0.76119440D-04 -0.51953680D-04 -0.24165761D-04 -0.86308895D-14 -0.19454283D-13
 -0.65724133D-03  0.15133420D-03 -0.78337336D-04 -0.72996864D-04 -0.18954854D-14
  0.83235547D-15  0.77953123D-03  0.42853960D-04 -0.24544553D-04 -0.18309407D-04
 -0.17072314D-14  0.87361163D-15  0.49488041D-05 -0.19713937D-15  0.16614194D-04
 -0.18311177D-05 -0.19675416D-14 -0.24000141D-03  0.99200697D-04  0.25589597D-14
  0.19015883D-03 -0.93707344D-04  0.14795174D-13 -0.63711090D-15 -0.54692345D-04
  0.10123797D-03  0.25281998D-14 -0.16681750D-03  0.20511051D-03 -0.61686706D-15
  0.33089454D-03 -0.50882443D-03 -0.32506586D-14
MO    2     MO 0.0        OCC NO =    2.0000037  ORB. ENERGY =    0.000000
 -0.36759894D+00 -0.68514397D+00 -0.11617579D+01 -0.17581970D+01 -0.21932122D+01
 -0.18821024D+01 -0.72074522D+00 -0.43587813D-04 -0.46766863D-03 -0.17239146D-02
 -0.50406253D-02 -0.60741985D-02  0.73170158D-02 -0.33575474D-01  0.66521278D-03
  0.91128057D-04 -0.26472195D-13 -0.25669124D-13 -0.17316240D-13 -0.12735224D-04
 -0.12348884D-04 -0.83304839D-05  0.86788920D-02  0.84156058D-02  0.56771180D-02
 -0.25394865D-14 -0.24496717D-05 -0.18342806D-02  0.10892062D-13  0.40760891D-06
 -0.15584674D-03  0.55609826D-15  0.23732300D-06  0.18077548D-05  0.69202027D-03
  0.88630513D-04 -0.78065078D-03  0.65326010D-15  0.20370334D-13  0.27525423D-05
 -0.33696969D-03 -0.35521886D-03  0.69218855D-03  0.67027721D-17 -0.12104154D-13
 -0.56848531D-07 -0.39238687D-04  0.13407410D-04  0.25831277D-04  0.53453584D-15
 -0.49207411D-14 -0.35499288D-06  0.18074775D-14  0.10133293D-05  0.25192534D-03
  0.41059121D-14  0.68197330D-06 -0.22644232D-03 -0.95283446D-14 -0.37219611D-05
 -0.52933371D-03  0.19146946D-14 -0.12374456D-14 -0.77306639D-07 -0.65757270D-04
 -0.17490217D-14  0.87468229D-07  0.11002637D-03  0.54613585D-14  0.14445169D-06
  0.87245442D-04 -0.19614147D-14 -0.16845676D+00 -0.31403733D+00 -0.53076588D+00
 -0.79784011D+00 -0.98000368D+00 -0.82708853D+00 -0.31100689D+00 -0.14594868D-04
 -0.10908760D-03 -0.40768526D-03 -0.11373784D-02 -0.15237735D-02  0.17992924D-02
 -0.14051099D-01  0.98025420D-04 -0.69218599D-05 -0.16596958D-14 -0.15560703D-14
 -0.11080148D-14 -0.90099679D-05 -0.84474176D-05 -0.60150646D-05  0.25271732D-02
  0.23693855D-02  0.16871436D-02 -0.90698631D-14  0.34713689D-05 -0.20074892D-02
 -0.32181334D-14  0.23177564D-05 -0.24357706D-04 -0.99402581D-16 -0.87943907D-07
 -0.84393380D-05  0.81813175D-03  0.15214919D-03 -0.97028094D-03 -0.12501728D-14
  0.89193657D-15  0.10742621D-04 -0.13167162D-03  0.36327836D-03 -0.23160674D-03
 -0.19174412D-15 -0.14604905D-13 -0.68754673D-05 -0.32056594D-05 -0.14375271D-04
  0.17580931D-04  0.10953825D-16 -0.89583998D-15 -0.69885038D-06  0.46005923D-15
 -0.84177519D-06 -0.24845700D-03  0.35175258D-14  0.25987881D-05  0.52735393D-03
 -0.48977035D-14 -0.73462528D-07  0.21801708D-03  0.21211588D-14  0.28373442D-15
 -0.42534057D-07  0.34930139D-04  0.11911791D-14 -0.66742731D-06  0.72242637D-04
 -0.20423824D-14  0.79502948D-06 -0.17703306D-03 -0.11091452D-14  0.18648390D+00
  0.34760631D+00  0.58927014D+00  0.89223469D+00  0.11154899D+01  0.95952133D+00
  0.36799708D+00  0.19182833D-04  0.25394479D-03  0.92237370D-03  0.27362042D-02
  0.31529227D-02 -0.38296942D-02  0.16976113D-01 -0.84514675D-03 -0.26831317D-04
  0.75720524D-13  0.74053018D-13  0.48929960D-13  0.87132101D-02  0.85213292D-02
  0.56304025D-02  0.52358658D-02  0.51205624D-02  0.33833721D-02  0.17178466D-13
  0.78415195D-03  0.25627307D-03  0.63043567D-15  0.77029273D-04 -0.25396916D-04
  0.85508418D-16 -0.13599471D-05  0.20967910D-04 -0.18354005D-04  0.13522493D-03
 -0.11687093D-03 -0.17998993D-13  0.91493663D-14 -0.35093212D-03  0.69146609D-05
 -0.51917809D-04  0.45003148D-04  0.78964378D-15 -0.19587666D-14  0.37144886D-04
 -0.15669573D-04  0.15148190D-04  0.52138281D-06 -0.12807558D-14 -0.10513668D-14
 -0.71813111D-05 -0.41086645D-14  0.10602487D-03 -0.12291359D-03  0.54902126D-14
  0.82208071D-04  0.56595193D-03  0.68357809D-14 -0.40028268D-03 -0.19721116D-03
  0.21953755D-13  0.60791653D-15 -0.51805033D-04 -0.58399106D-05 -0.97260195D-15
 -0.13540744D-03 -0.28735912D-03 -0.85114764D-15  0.29082254D-03  0.30487885D-03
 -0.45713581D-14  0.18661260D+00  0.34784620D+00  0.58967681D+00  0.89285044D+00
  0.11162597D+01  0.96018352D+00  0.36825104D+00  0.19233021D-04  0.25460919D-03
  0.92478690D-03  0.27433629D-02  0.31611717D-02 -0.38397138D-02  0.16992079D-01
 -0.85685061D-03 -0.30687039D-04 -0.55097864D-13 -0.53884508D-13 -0.35603772D-13
 -0.88178809D-02 -0.86236950D-02 -0.56980399D-02  0.53633601D-02  0.52452490D-02
  0.34657578D-02 -0.11334475D-13 -0.79914972D-03  0.27142016D-03 -0.54712608D-14
 -0.84698801D-04 -0.22412240D-04 -0.54091257D-16  0.19298788D-05  0.21201682D-04
 -0.28400726D-04  0.14592475D-03 -0.11752403D-03  0.11373250D-13 -0.25209359D-14
  0.32853562D-03  0.34928238D-05 -0.50023558D-04  0.46530734D-04  0.15907924D-14
 -0.26096315D-14 -0.50032439D-04 -0.17390926D-04  0.17003706D-04  0.38721956D-06
  0.21082216D-14 -0.12776949D-14  0.33518668D-05  0.14407526D-14 -0.10560317D-03
 -0.11971521D-03 -0.26442435D-14 -0.95134671D-04  0.57996365D-03 -0.16780141D-14
  0.41194419D-03 -0.22081803D-03 -0.12997035D-13  0.55231153D-15  0.53040492D-04
 -0.61888176D-05 -0.14054184D-14  0.13837142D-03 -0.29244574D-03 -0.25151621D-15
 -0.29749289D-03  0.31101220D-03  0.62126608D-14
MO    3     MO 0.0        OCC NO =    2.0000022  ORB. ENERGY =    0.000000
  0.20321145D-02  0.37875274D-02  0.64222849D-02  0.97194453D-02  0.12124242D-01
  0.10404403D-01  0.39843337D-02  0.27945176D-06  0.29983340D-05  0.11052424D-04
  0.32316638D-04  0.38943121D-04 -0.46911116D-04  0.18709940D-03 -0.10900495D-04
 -0.48822978D-05 -0.18960217D-13 -0.18385033D-13 -0.12402435D-13 -0.85716301D-03
 -0.83115979D-03 -0.56069548D-03 -0.79056629D-05 -0.76658337D-05 -0.51713261D-05
  0.74772950D-14 -0.11197556D-03  0.29422795D-04  0.13313665D-13  0.89444987D-04
  0.14242052D-05  0.71824704D-15  0.14805079D-04  0.49132956D-06  0.37224520D-05
 -0.14744460D-06 -0.35750074D-05  0.36257661D-14  0.29621332D-13  0.17969321D-03
  0.10838749D-05  0.55257750D-05 -0.66096500D-05  0.11203778D-14 -0.18868119D-13
 -0.62911692D-04 -0.38146822D-06  0.44389612D-06 -0.62427902D-07  0.39075246D-15
 -0.59038983D-14 -0.25008333D-04  0.16136989D-14 -0.11931628D-04 -0.46111460D-05
 -0.71480172D-15  0.16347856D-03  0.92419850D-05 -0.41262949D-14 -0.12768367D-03
  0.45914530D-05  0.43482390D-14 -0.22245987D-14  0.31903494D-05  0.12441756D-05
 -0.24491590D-14 -0.67894051D-04  0.26973291D-06  0.91229550D-14  0.58323003D-04
 -0.40022597D-05 -0.57273755D-15  0.22831424D-02  0.42562373D-02  0.71936210D-02
  0.10813354D-01  0.13282269D-01  0.11209766D-01  0.42151648D-02  0.24902783D-06
  0.18613287D-05  0.69562105D-05  0.19406744D-04  0.25999687D-04 -0.30700782D-04
  0.18505661D-03 -0.58631309D-05  0.48774477D-06  0.70793585D-14  0.66373486D-14
  0.47261876D-14 -0.53276437D-04 -0.49950046D-04 -0.35567409D-04 -0.34358650D-04
 -0.32213418D-04 -0.22937873D-04 -0.20290387D-13 -0.37216458D-03  0.27947347D-04
 -0.67704348D-14  0.62487175D-04  0.67697106D-05 -0.14199142D-15 -0.64178443D-05
 -0.35260859D-07 -0.77033471D-05 -0.39326069D-05  0.11635954D-04 -0.26121889D-14
 -0.88198455D-14  0.58207581D-03  0.19677807D-05 -0.31632983D-05  0.11955176D-05
  0.15754125D-14 -0.93178173D-14  0.36965741D-03  0.13224620D-06 -0.47155096D-06
  0.33930476D-06  0.69696717D-16 -0.63738864D-15 -0.29172463D-04  0.43472206D-14
 -0.24869820D-04  0.88562521D-05 -0.15225911D-14  0.51450402D-03 -0.13261545D-05
 -0.11519071D-13 -0.43989456D-03 -0.25242602D-04  0.15034079D-14  0.10335466D-14
  0.43729558D-04  0.11012316D-05 -0.20607432D-16  0.29354242D-04 -0.11471571D-05
 -0.30800323D-14 -0.16054292D-03 -0.21565377D-05 -0.16565392D-14  0.42885281D+00
  0.79938237D+00  0.13551312D+01  0.20518519D+01  0.25652668D+01  0.22065895D+01
  0.84627456D+00  0.39350329D-04  0.52092467D-03  0.18920932D-02  0.56128588D-02
  0.64676861D-02 -0.78559681D-02  0.39722209D-01 -0.14866144D-03  0.91445313D-04
 -0.81391989D-14 -0.79599588D-14 -0.52594813D-14  0.98369441D-02  0.96203165D-02
  0.63565499D-02  0.73834973D-02  0.72208991D-02  0.47711533D-02 -0.61007782D-14
 -0.17589997D-03  0.14339228D-03  0.47108363D-14  0.24709018D-03  0.39861750D-03
  0.41508680D-15  0.21922882D-04  0.49061318D-05 -0.13697379D-03  0.15813529D-03
 -0.21161502D-04 -0.81372954D-14  0.17689506D-13  0.21675544D-03  0.15675985D-03
 -0.24925629D-03  0.92496446D-04  0.28356191D-14 -0.33577056D-14 -0.51860916D-03
 -0.58756306D-04  0.14190498D-04  0.44565808D-04  0.31389951D-14  0.19382810D-14
  0.13448987D-03  0.26521272D-14 -0.26689783D-03  0.10398974D-04 -0.67613655D-14
  0.88093067D-03  0.19156323D-03 -0.11950160D-14 -0.80237193D-04 -0.22276015D-03
 -0.91388386D-14 -0.15600670D-14  0.49344231D-04  0.19546500D-04  0.43029017D-14
 -0.20563399D-03 -0.32591691D-04  0.37729935D-15  0.57601293D-04 -0.26047810D-04
  0.18705006D-14 -0.41595333D+00 -0.77533773D+00 -0.13143702D+01 -0.19901342D+01
 -0.24881061D+01 -0.21402174D+01 -0.82081944D+00 -0.38183346D-04 -0.50547600D-03
 -0.18359808D-02 -0.54464025D-02 -0.62758788D-02  0.76229896D-02 -0.38537825D-01
  0.17183156D-03 -0.84389176D-04  0.41276787D-15  0.40367797D-15  0.26672710D-15
  0.96952456D-02  0.94817385D-02  0.62649855D-02 -0.73785133D-02 -0.72160249D-02
 -0.47679327D-02 -0.15064373D-14 -0.16673418D-03 -0.16308886D-03  0.19454411D-14
  0.22863196D-03 -0.39283392D-03  0.32757490D-15  0.21411959D-04 -0.39147622D-05
  0.14709970D-03 -0.16716747D-03  0.20067771D-04  0.18688967D-13  0.86320387D-14
  0.23582108D-03 -0.15299081D-03  0.24703363D-03 -0.94042821D-04 -0.11718081D-14
 -0.16547691D-14 -0.49957624D-03  0.56963676D-04 -0.12118712D-04 -0.44844964D-04
 -0.16880195D-14  0.99573706D-15  0.13103489D-03  0.55829586D-14 -0.26868380D-03
 -0.13992960D-04 -0.22089528D-13  0.87208389D-03 -0.17467842D-03  0.53406523D-14
 -0.66032488D-04  0.21665730D-03  0.28938423D-13 -0.24379764D-14  0.47897697D-04
 -0.16754682D-04  0.49216181D-14 -0.20591659D-03  0.30986660D-04  0.23923110D-14
  0.62223498D-04  0.19277386D-04 -0.33203821D-14
MO    4     MO 0.0        OCC NO =    2.0000016  ORB. ENERGY =    0.000000
  0.10240381D+00  0.19086387D+00  0.32363651D+00  0.48978944D+00  0.61097373D+00
  0.52430635D+00  0.20078148D+00  0.13248327D-04  0.14214585D-03  0.52397638D-03
  0.15320762D-02  0.18462263D-02 -0.22239752D-02  0.94476483D-02 -0.42790807D-03
 -0.17974467D-03  0.26875394D-13  0.26060091D-13  0.17579984D-13  0.30237275D-04
  0.29319986D-04  0.19779089D-04  0.53324982D-03  0.51707295D-03  0.34881435D-03
  0.61030952D-14  0.28965412D-05  0.15765439D-02  0.61173456D-14 -0.22544139D-05
  0.12247194D-03 -0.73322723D-16 -0.18879398D-06  0.19510143D-04  0.15257009D-03
 -0.72306893D-05 -0.14533940D-03  0.54824589D-14  0.13169197D-13 -0.50963982D-05
  0.62495405D-04  0.28746462D-03 -0.34996003D-03 -0.65679902D-15 -0.67047501D-14
  0.40750301D-05 -0.11798767D-04  0.21597179D-04 -0.97984127D-05 -0.26383436D-15
 -0.16162023D-14  0.49297414D-06 -0.26767304D-14 -0.37785536D-06 -0.31474115D-03
  0.97213601D-14 -0.22387565D-05  0.61871505D-03 -0.16911689D-14  0.33723226D-05
  0.32550840D-03  0.41300154D-15 -0.18913705D-15  0.94802647D-07  0.77387439D-04
 -0.18153795D-14  0.12183738D-05 -0.14886580D-04  0.23827906D-14 -0.15027817D-05
 -0.21727574D-03  0.13929511D-14  0.14790237D+00  0.27571982D+00  0.46600405D+00
  0.70049101D+00  0.86042774D+00  0.72617065D+00  0.27305913D+00  0.11682692D-04
  0.87320885D-04  0.32633808D-03  0.91043244D-03  0.12197285D-02 -0.14402719D-02
  0.11837007D-01  0.18309049D-04  0.24305280D-04 -0.92786850D-14 -0.86993570D-14
 -0.61944604D-14  0.13063314D-04  0.12247687D-04  0.87210830D-05 -0.23526332D-02
 -0.22057432D-02 -0.15706206D-02 -0.96522500D-14  0.31778410D-04  0.65154216D-03
 -0.19533422D-14  0.23867067D-05  0.20871129D-03  0.11504448D-15  0.95819555D-07
 -0.12524799D-05 -0.10602076D-02  0.32749114D-03  0.73271645D-03  0.31567789D-15
  0.47243540D-14 -0.62462356D-04 -0.29808261D-04 -0.10146901D-03  0.13127727D-03
 -0.38194624D-15 -0.17981332D-14 -0.16245833D-04  0.38767188D-05 -0.12927706D-04
  0.90509876D-05 -0.20969097D-15 -0.18984197D-15  0.37629370D-06  0.14002377D-14
 -0.12738830D-05  0.48245525D-03 -0.18723914D-14 -0.16314086D-04  0.19016872D-03
 -0.23283216D-14  0.20135735D-04 -0.16375345D-02  0.91579983D-15  0.35517772D-15
 -0.10982007D-05  0.42582302D-04  0.64841522D-15 -0.10035896D-05 -0.25621520D-04
 -0.17139484D-14  0.42981916D-05 -0.10212539D-03  0.10324346D-14  0.35933638D+00
  0.66980363D+00  0.11354664D+01  0.17192496D+01  0.21494407D+01  0.18489045D+01
  0.70909466D+00  0.30949403D-04  0.40971214D-03  0.14881491D-02  0.44145661D-02
  0.50868958D-02 -0.61787926D-02  0.33604105D-01  0.28170245D-03  0.85574508D-04
 -0.13480414D-12 -0.13183551D-12 -0.87109293D-13  0.60264170D-02  0.58937042D-02
  0.38942195D-02  0.37152744D-02  0.36334572D-02  0.24007788D-02 -0.31906284D-13
 -0.53028505D-03 -0.61992209D-03 -0.43070194D-14  0.31540160D-03  0.15981627D-03
 -0.19124298D-15  0.52140018D-05  0.13712416D-04 -0.21914028D-03  0.15788125D-03
  0.61259034D-04 -0.64088248D-14  0.19847215D-13  0.75773674D-03  0.24027572D-03
 -0.17412239D-03 -0.66153330D-04 -0.34521765D-14 -0.19996892D-14 -0.95412519D-03
 -0.44939836D-04  0.37429275D-04  0.75105601D-05  0.49867964D-15 -0.64628389D-15
  0.63800769D-04  0.27086987D-14  0.17243241D-04 -0.70139079D-04 -0.94092377D-14
  0.27747596D-03  0.45879940D-03  0.12831417D-14 -0.32920568D-03 -0.24838217D-03
 -0.59464314D-14 -0.86695653D-15  0.32208346D-04  0.99268316D-04  0.34553760D-14
  0.10549849D-03  0.41841384D-04 -0.85450639D-15 -0.20212353D-03 -0.33964633D-03
 -0.26589889D-15  0.37389133D+00  0.69693409D+00  0.11814585D+01  0.17888880D+01
  0.22365040D+01  0.19237945D+01  0.73781660D+00  0.32214921D-04  0.42646523D-03
  0.15489993D-02  0.45950773D-02  0.52948985D-02 -0.64314428D-02  0.34976086D-01
  0.25584830D-03  0.81231552D-04 -0.14510962D-12 -0.14191404D-12 -0.93768608D-13
 -0.63843267D-02 -0.62437320D-02 -0.41254977D-02  0.40457819D-02  0.39566864D-02
  0.26143500D-02 -0.36336099D-13  0.56293876D-03 -0.64000645D-03 -0.27359402D-14
 -0.30690924D-03  0.16585522D-03  0.75251975D-16 -0.50185961D-05  0.13463563D-04
 -0.23123661D-03  0.16816056D-03  0.63076050D-04  0.47227735D-14 -0.76341483D-14
 -0.79367875D-03  0.25384722D-03 -0.18493727D-03 -0.68909955D-04  0.37917995D-14
 -0.13319713D-14  0.10050955D-02 -0.44987612D-04  0.34815011D-04  0.10172600D-04
 -0.15327021D-14  0.69149957D-16 -0.62860494D-04  0.13055152D-14 -0.13857351D-04
 -0.75461307D-04 -0.15422713D-13 -0.29169266D-03  0.46154576D-03  0.11506167D-13
  0.33326471D-03 -0.23516184D-03  0.99323818D-14 -0.91065035D-15 -0.34862926D-04
  0.10184449D-03  0.41918150D-14 -0.10447317D-03  0.44682284D-04 -0.14598640D-14
  0.20906194D-03 -0.35021574D-03 -0.31557574D-15
MO    5     MO 0.0        OCC NO =    1.9861495  ORB. ENERGY =    0.000000
 -0.99422276D-02 -0.18530677D-01 -0.31421368D-01 -0.47552899D-01 -0.59318493D-01
 -0.50904092D-01 -0.19493563D-01 -0.16128770D-03 -0.17305112D-02 -0.63789901D-02
 -0.18651793D-01 -0.22476317D-01  0.27075106D-01  0.14182994D-01  0.27695762D-04
 -0.19136935D-02 -0.14297360D-13 -0.13863630D-13 -0.93523230D-14  0.25659977D-02
  0.24881546D-02  0.16784944D-02 -0.69792963D-01 -0.67675697D-01 -0.45653626D-01
  0.94934342D-15  0.59421873D-03 -0.13092094D-01  0.50514469D-14  0.72423992D-04
  0.19503004D-02  0.61886845D-15 -0.49936591D-05  0.22884650D-03 -0.40192366D-02
 -0.42581352D-02  0.82773718D-02 -0.28518494D-14  0.10847989D-13 -0.24827267D-03
 -0.47342673D-03  0.60346966D-03 -0.13004294D-03 -0.33801449D-15 -0.63483346D-14
 -0.70315438D-04  0.10634784D-03  0.51622853D-03 -0.62257637D-03  0.89927430D-16
 -0.25014191D-14 -0.55288563D-05  0.31821668D-15 -0.48345142D-04 -0.16320831D-02
 -0.26576654D-15 -0.40816367D-04  0.35120746D-02 -0.68888348D-15  0.18585179D-03
  0.13841748D-02  0.22850857D-14 -0.64322301D-15 -0.41780385D-05  0.50625813D-03
 -0.11889963D-14 -0.41595507D-06 -0.21791259D-03  0.31186653D-14  0.12950070D-04
 -0.13008618D-02 -0.61422888D-17 -0.17052137D-01 -0.31788619D-01 -0.53727098D-01
 -0.80761849D-01 -0.99201466D-01 -0.83722538D-01 -0.31481861D-01 -0.31308924D-03
 -0.23401481D-02 -0.87456678D-02 -0.24399051D-01 -0.32688002D-01  0.38598436D-01
  0.15426321D-01  0.22274208D-02  0.22447941D-03 -0.18229575D-13 -0.17091385D-13
 -0.12170084D-13  0.33300056D-02  0.31220919D-02  0.22231154D-02 -0.33261637D-01
 -0.31184899D-01 -0.22205506D-01 -0.83586936D-14  0.49096169D-03 -0.48225609D-02
 -0.17884068D-14 -0.76400116D-04  0.15069799D-02 -0.16765156D-15  0.16901366D-05
 -0.40454689D-05 -0.19119791D-01  0.93504369D-02  0.97693541D-02  0.21882568D-14
  0.22939692D-14 -0.14043375D-02 -0.26023233D-02  0.11686751D-02  0.14336482D-02
 -0.30590331D-15 -0.61519410D-14 -0.17295952D-03  0.82621990D-04 -0.94121959D-04
  0.11499969D-04 -0.20449060D-15 -0.58443814D-15  0.21983189D-04  0.15962227D-14
 -0.11533778D-04  0.34325801D-02  0.47635951D-15 -0.14375013D-03  0.34487953D-02
 -0.52650277D-14  0.17835147D-03 -0.13746536D-01 -0.10551292D-14  0.65908717D-17
 -0.17316819D-04  0.27282480D-03  0.70696080D-15 -0.19767692D-05  0.31259226D-03
 -0.72673341D-15  0.53927227D-04 -0.11310667D-02  0.61644591D-15 -0.86316269D-01
 -0.16089367D+00 -0.27275062D+00 -0.41298133D+00 -0.51631762D+00 -0.44412574D+00
 -0.17033178D+00 -0.12577942D-02 -0.16650840D-01 -0.60478880D-01 -0.17940946D+00
 -0.20673316D+00  0.25110822D+00  0.14452076D+00  0.65513453D-01  0.15720022D-02
 -0.17100339D-12 -0.16723758D-12 -0.11050094D-12 -0.33709608D-01 -0.32967260D-01
 -0.21782863D-01 -0.12829371D+00 -0.12546844D+00 -0.82902305D-01 -0.37615504D-13
 -0.28507136D-02 -0.26745173D-01 -0.82977339D-14 -0.29832799D-02 -0.61758799D-02
 -0.23540753D-15 -0.53317488D-04 -0.43925284D-04 -0.57196335D-02  0.70775094D-02
 -0.13578759D-02 -0.20152310D-14 -0.23535613D-14  0.12929604D-01 -0.28291471D-02
  0.39978313D-02 -0.11686842D-02 -0.37397663D-14 -0.27589793D-14  0.70610403D-02
  0.20393462D-03 -0.18604671D-03 -0.17887907D-04 -0.13447851D-14 -0.90485874D-15
 -0.90096627D-03  0.19487455D-14  0.16636167D-02 -0.20712977D-02 -0.14931905D-14
 -0.61659690D-02 -0.21650633D-02 -0.43530461D-14  0.11751189D-02  0.83789564D-02
  0.79986615D-14  0.24352409D-15  0.29316364D-03 -0.20526013D-03 -0.10949048D-14
 -0.81611130D-03 -0.98766859D-03  0.36433248D-15 -0.63379621D-04  0.16034490D-02