 Entering Gaussian System, Link 0=/home/bruns/programas/chemistry/gaussian/g09/g09
 Input=GAUSSIAN.com
 Output=GAUSSIAN.log
 Initial command:
 /home/bruns/programas/chemistry/gaussian/g09/l1.exe /home/bruns/programas/chemistry/gaussian/work/Gau-27490.inp -scrdir=/home/bruns/programas/chemistry/gaussian/work/
 Entering Link 1 = /home/bruns/programas/chemistry/gaussian/g09/l1.exe PID=     27492.
  
 Copyright (c) 1988,1990,1992,1993,1995,1998,2003,2009,2010,
            Gaussian, Inc.  All Rights Reserved.
  
 This is part of the Gaussian(R) 09 program.  It is based on
 the Gaussian(R) 03 system (copyright 2003, Gaussian, Inc.),
 the Gaussian(R) 98 system (copyright 1998, Gaussian, Inc.),
 the Gaussian(R) 94 system (copyright 1995, Gaussian, Inc.),
 the Gaussian 92(TM) system (copyright 1992, Gaussian, Inc.),
 the Gaussian 90(TM) system (copyright 1990, Gaussian, Inc.),
 the Gaussian 88(TM) system (copyright 1988, Gaussian, Inc.),
 the Gaussian 86(TM) system (copyright 1986, Carnegie Mellon
 University), and the Gaussian 82(TM) system (copyright 1983,
 Carnegie Mellon University). Gaussian is a federally registered
 trademark of Gaussian, Inc.
  
 This software contains proprietary and confidential information,
 including trade secrets, belonging to Gaussian, Inc.
  
 This software is provided under written license and may be
 used, copied, transmitted, or stored only in accord with that
 written license.
  
 The following legend is applicable only to US Government
 contracts under FAR:
  
                    RESTRICTED RIGHTS LEGEND
  
 Use, reproduction and disclosure by the US Government is
 subject to restrictions as set forth in subparagraphs (a)
 and (c) of the Commercial Computer Software - Restricted
 Rights clause in FAR 52.227-19.
  
 Gaussian, Inc.
 340 Quinnipiac St., Bldg. 40, Wallingford CT 06492
  
  
 ---------------------------------------------------------------
 Warning -- This program may not be used in any manner that
 competes with the business of Gaussian, Inc. or will provide
 assistance to any competitor of Gaussian, Inc.  The licensee
 of this program is prohibited from giving any competitor of
 Gaussian, Inc. access to this program.  By using this program,
 the user acknowledges that Gaussian, Inc. is engaged in the
 business of creating and licensing software in the field of
 computational chemistry and represents and warrants to the
 licensee that it is not a competitor of Gaussian, Inc. and that
 it will not use this program in any manner prohibited above.
 ---------------------------------------------------------------
  

 Cite this work as:
 Gaussian 09, Revision B.01,
 M. J. Frisch, G. W. Trucks, H. B. Schlegel, G. E. Scuseria, 
 M. A. Robb, J. R. Cheeseman, G. Scalmani, V. Barone, B. Mennucci, 
 G. A. Petersson, H. Nakatsuji, M. Caricato, X. Li, H. P. Hratchian, 
 A. F. Izmaylov, J. Bloino, G. Zheng, J. L. Sonnenberg, M. Hada, 
 M. Ehara, K. Toyota, R. Fukuda, J. Hasegawa, M. Ishida, T. Nakajima, 
 Y. Honda, O. Kitao, H. Nakai, T. Vreven, J. A. Montgomery, Jr., 
 J. E. Peralta, F. Ogliaro, M. Bearpark, J. J. Heyd, E. Brothers, 
 K. N. Kudin, V. N. Staroverov, T. Keith, R. Kobayashi, J. Normand, 
 K. Raghavachari, A. Rendell, J. C. Burant, S. S. Iyengar, J. Tomasi, 
 M. Cossi, N. Rega, J. M. Millam, M. Klene, J. E. Knox, J. B. Cross, 
 V. Bakken, C. Adamo, J. Jaramillo, R. Gomperts, R. E. Stratmann, 
 O. Yazyev, A. J. Austin, R. Cammi, C. Pomelli, J. W. Ochterski, 
 R. L. Martin, K. Morokuma, V. G. Zakrzewski, G. A. Voth, 
 P. Salvador, J. J. Dannenberg, S. Dapprich, A. D. Daniels, 
 O. Farkas, J. B. Foresman, J. V. Ortiz, J. Cioslowski, 
 and D. J. Fox, Gaussian, Inc., Wallingford CT, 2010.
 
 ******************************************
 Gaussian 09:  EM64L-G09RevB.01 12-Aug-2010
                27-Nov-2021 
 ******************************************
 %nproc=8
 Will use up to    8 processors via shared memory.
 %mem=8GB
 -----------------------------------------------------
 # qcisd/aug-cc-pvtz nosymm density=current output=wfn
 -----------------------------------------------------
 1/30=1,38=1/1;
 2/12=2,15=1,17=6,18=5,40=1/2;
 3/5=16,6=1,7=10,11=9,16=1,25=1,30=1,71=1/1,2,3;
 4//1;
 5/5=2,38=5/2;
 8/6=4,9=120000,10=1/1,4;
 9/5=8,15=1/13;
 11/28=-7,31=1,32=3,42=3/11;
 10/5=6,13=10,31=1/2;
 6/7=2,8=2,9=2,10=2,22=-1,31=1/1;
 99/5=1,6=1100,9=1/99;
 -----------------
 f2co-wavefunction
 -----------------
 Symbolic Z-matrix:
 Charge =  0 Multiplicity = 1
 O                     0.        0.        0.67993 
 C                     0.        0.       -0.49222 
 F                     0.       -1.05888  -1.26431 
 F                     0.        1.05888  -1.25431 
 
                          Input orientation:                          
 ---------------------------------------------------------------------
 Center     Atomic      Atomic             Coordinates (Angstroms)
 Number     Number       Type             X           Y           Z
 ---------------------------------------------------------------------
      1          8           0        0.000000    0.000000    0.679927
      2          6           0        0.000000    0.000000   -0.492216
      3          9           0        0.000000   -1.058878   -1.264305
      4          9           0        0.000000    1.058878   -1.254305
 ---------------------------------------------------------------------
                    Distance matrix (angstroms):
                    1          2          3          4
     1  O    0.000000
     2  C    1.172143   0.000000
     3  F    2.213879   1.310475   0.000000
     4  F    2.205102   1.304608   2.117780   0.000000
 Symmetry turned off by external request.
 Stoichiometry    CF2O
 Framework group  CS[SG(CF2O)]
 Deg. of freedom     5
 Full point group                 CS      NOp   2
 Rotational constants (GHZ):     11.9072097     11.7924425      5.9247741
 Standard basis: Aug-CC-pVTZ (5D, 7F)
 Integral buffers will be    131072 words long.
 Raffenetti 1 integral format.
 Two-electron integral symmetry is turned off.
   184 basis functions,   288 primitive gaussians,   220 cartesian basis functions
    16 alpha electrons       16 beta electrons
       nuclear repulsion energy       120.1073883528 Hartrees.
 NAtoms=    4 NActive=    4 NUniq=    4 SFac= 1.00D+00 NAtFMM=   50 NAOKFM=F Big=F
 One-electron integrals computed using PRISM.
 NBasis=   184 RedAO= T  NBF=   184
 NBsUse=   184 1.00D-06 NBFU=   184
 Harris functional with IExCor=  205 diagonalized for initial guess.
 ExpMin= 3.57D-02 ExpMax= 1.95D+04 ExpMxC= 6.65D+02 IAcc=3 IRadAn=         0 AccDes= 0.00D+00
 HarFok:  IExCor=  205 AccDes= 0.00D+00 IRadAn=         0 IDoV= 1
 ScaDFX=  1.000000  1.000000  1.000000  1.000000
 FoFCou: FMM=F IPFlag=           0 FMFlag=      100000 FMFlg1=           0
         NFxFlg=           0 DoJE=T BraDBF=F KetDBF=T FulRan=T
         Omega=  0.000000  0.000000  1.000000  0.000000  0.000000 ICntrl=     500 IOpCl=  0
         NMat0=    1 NMatS0=    1 NMatT0=    0 NMatD0=    1 NMtDS0=    0 NMtDT0=    0
         I1Cent=           4 NGrid=           0.
 Symmetry not used in FoFCou.
 Requested convergence on RMS density matrix=1.00D-08 within 128 cycles.
 Requested convergence on MAX density matrix=1.00D-06.
 Requested convergence on             energy=1.00D-06.
 No special actions if energy rises.
 Keep R1 ints in memory in canonical form, NReq=301063473.
 DSYEVD returned Info=         369 IAlg= 4 N=   184 NDim=   184 NE2=     4228757 trying DSYEV.
 SCF Done:  E(RHF) =  -311.741573725     A.U. after   12 cycles
             Convg  =    0.3216D-08             -V/T =  2.0014
 ExpMin= 3.57D-02 ExpMax= 1.95D+04 ExpMxC= 6.65D+02 IAcc=3 IRadAn=         5 AccDes= 0.00D+00
 HarFok:  IExCor=  205 AccDes= 0.00D+00 IRadAn=         5 IDoV=-2
 ScaDFX=  1.000000  1.000000  1.000000  1.000000
 DSYEVD returned Info=          93 IAlg= 4 N=    46 NDim=    46 NE2=    23339802 trying DSYEV.
 Range of M.O.s used for correlation:     5   184
 NBasis=   184 NAE=    16 NBE=    16 NFC=     4 NFV=     0
 NROrb=    180 NOA=    12 NOB=    12 NVA=   168 NVB=   168

 **** Warning!!: The largest alpha MO coefficient is  0.15562826D+02

 Semi-Direct transformation.
 ModeAB=           2 MOrb=            12 LenV=    1072785541
 LASXX=     33405819 LTotXX=    33405819 LenRXX=    33405819
 LTotAB=    33954012 MaxLAS=    52509600 LenRXY=    52509600
 NonZer=    66811638 LenScr=   100987392 LnRSAI=           0
 LnScr1=           0 LExtra=           0 Total=    186902811
 MaxDsk=          -1 SrtSym=           F ITran=            4
 JobTyp=0 Pass  1:  I=   1 to  12.
 (rs|ai) integrals will be sorted in core.
 Spin components of T(2) and E(2):
     alpha-alpha T2 =       0.2652459063D-01 E2=     -0.1190550869D+00
     alpha-beta  T2 =       0.1368604536D+00 E2=     -0.6573409244D+00
     beta-beta   T2 =       0.2652459063D-01 E2=     -0.1190550869D+00
 ANorm=    0.1090829792D+01
 E2 =    -0.8954510983D+00 EUMP2 =    -0.31263702482353D+03
 R2 and R3 integrals will be kept in memory, NReq=   596397230.
 Iterations=  50 Convergence= 0.100D-07
 Iteration Nr.   1
 **********************
 DD1Dir will call FoFMem   1 times, MxPair=       156
 NAB=    78 NAA=     0 NBB=     0.
 MP4(R+Q)=  0.16021981D-01
 E3=        0.12341191D-01        EUMP3=      -0.31262468363D+03
 E4(DQ)=    0.48518465D-03        UMP4(DQ)=   -0.31262419845D+03
 E4(SDQ)=  -0.11056917D-01        UMP4(SDQ)=  -0.31263574055D+03
 DE(Corr)= -0.86708793     E(Corr)=     -312.60866165    
 NORM(A)=   0.10857421D+01
 Iteration Nr.   2
 **********************
 DD1Dir will call FoFMem   1 times, MxPair=       156
 NAB=    78 NAA=     0 NBB=     0.
 DE(Corr)= -0.89283675     E(CORR)=     -312.63441048     Delta=-2.57D-02
 NORM(A)=   0.10930092D+01
 Iteration Nr.   3
 **********************
 DD1Dir will call FoFMem   1 times, MxPair=       156
 NAB=    78 NAA=     0 NBB=     0.
 DE(Corr)= -0.89110292     E(CORR)=     -312.63267664     Delta= 1.73D-03
 NORM(A)=   0.10952233D+01
 Iteration Nr.   4
 **********************
 DD1Dir will call FoFMem   1 times, MxPair=       156
 NAB=    78 NAA=     0 NBB=     0.
 DE(Corr)= -0.89338993     E(CORR)=     -312.63496366     Delta=-2.29D-03
 NORM(A)=   0.10960225D+01
 Iteration Nr.   5
 **********************
 DD1Dir will call FoFMem   1 times, MxPair=       156
 NAB=    78 NAA=     0 NBB=     0.
 DE(Corr)= -0.89365316     E(CORR)=     -312.63522688     Delta=-2.63D-04
 NORM(A)=   0.10962028D+01
 Iteration Nr.   6
 **********************
 DD1Dir will call FoFMem   1 times, MxPair=       156
 NAB=    78 NAA=     0 NBB=     0.
 DE(Corr)= -0.89367927     E(CORR)=     -312.63525300     Delta=-2.61D-05
 NORM(A)=   0.10962157D+01
 Iteration Nr.   7
 **********************
 DD1Dir will call FoFMem   1 times, MxPair=       156
 NAB=    78 NAA=     0 NBB=     0.
 DE(Corr)= -0.89368084     E(CORR)=     -312.63525456     Delta=-1.57D-06
 NORM(A)=   0.10962156D+01
 Iteration Nr.   8
 **********************
 DD1Dir will call FoFMem   1 times, MxPair=       156
 NAB=    78 NAA=     0 NBB=     0.
 DE(Corr)= -0.89367983     E(CORR)=     -312.63525356     Delta= 1.01D-06
 NORM(A)=   0.10962160D+01
 Iteration Nr.   9
 **********************
 DD1Dir will call FoFMem   1 times, MxPair=       156
 NAB=    78 NAA=     0 NBB=     0.
 DE(Corr)= -0.89368022     E(CORR)=     -312.63525395     Delta=-3.88D-07
 NORM(A)=   0.10962161D+01
 Iteration Nr.  10
 **********************
 DD1Dir will call FoFMem   1 times, MxPair=       156
 NAB=    78 NAA=     0 NBB=     0.
 DE(Corr)= -0.89368013     E(CORR)=     -312.63525386     Delta= 9.05D-08
 NORM(A)=   0.10962162D+01
 Iteration Nr.  11
 **********************
 DD1Dir will call FoFMem   1 times, MxPair=       156
 NAB=    78 NAA=     0 NBB=     0.
 DE(Corr)= -0.89368058     E(CORR)=     -312.63525430     Delta=-4.49D-07
 NORM(A)=   0.10962165D+01
 Iteration Nr.  12
 **********************
 DD1Dir will call FoFMem   1 times, MxPair=       156
 NAB=    78 NAA=     0 NBB=     0.
 DE(Corr)= -0.89368061     E(CORR)=     -312.63525434     Delta=-3.26D-08
 NORM(A)=   0.10962167D+01
 Iteration Nr.  13
 **********************
 DD1Dir will call FoFMem   1 times, MxPair=       156
 NAB=    78 NAA=     0 NBB=     0.
 DE(Corr)= -0.89368070     E(CORR)=     -312.63525443     Delta=-9.10D-08
 NORM(A)=   0.10962168D+01
 Iteration Nr.  14
 **********************
 DD1Dir will call FoFMem   1 times, MxPair=       156
 NAB=    78 NAA=     0 NBB=     0.
 DE(Corr)= -0.89368072     E(CORR)=     -312.63525444     Delta=-1.49D-08
 NORM(A)=   0.10962168D+01
 Iteration Nr.  15
 **********************
 DD1Dir will call FoFMem   1 times, MxPair=       156
 NAB=    78 NAA=     0 NBB=     0.
 DE(Corr)= -0.89368073     E(CORR)=     -312.63525445     Delta=-8.39D-09
 NORM(A)=   0.10962168D+01
 Iteration Nr.  16
 **********************
 DD1Dir will call FoFMem   1 times, MxPair=       156
 NAB=    78 NAA=     0 NBB=     0.
 DE(Corr)= -0.89368073     E(CORR)=     -312.63525446     Delta=-3.70D-09
 NORM(A)=   0.10962168D+01
 Largest amplitude= 5.72D-02

 Z-AMPLITUDE ITERATIONS

 Iteration Nr.   1
 **********************
 DD1Dir will call FoFMem   1 times, MxPair=       156
 NAB=    78 NAA=     0 NBB=     0.
 DE(Z)  -0.87442995D+00          E(Z)=    -0.31261600368D+03
 NORM(A)=   0.10961882D+01
 Iteration Nr.   2
 **********************
 DD1Dir will call FoFMem   1 times, MxPair=       156
 NAB=    78 NAA=     0 NBB=     0.
 DE(Z)  -0.87442984D+00          E(Z)=    -0.31261600357D+03
 NORM(A)=   0.10960744D+01
 Iteration Nr.   3
 **********************
 DD1Dir will call FoFMem   1 times, MxPair=       156
 NAB=    78 NAA=     0 NBB=     0.
 DE(Z)  -0.87442825D+00          E(Z)=    -0.31261600198D+03
 NORM(A)=   0.10960995D+01
 Iteration Nr.   4
 **********************
 DD1Dir will call FoFMem   1 times, MxPair=       156
 NAB=    78 NAA=     0 NBB=     0.
 DE(Z)  -0.87442894D+00          E(Z)=    -0.31261600266D+03
 NORM(A)=   0.10966598D+01
 Iteration Nr.   5
 **********************
 DD1Dir will call FoFMem   1 times, MxPair=       156
 NAB=    78 NAA=     0 NBB=     0.
 DE(Z)  -0.87443610D+00          E(Z)=    -0.31261600982D+03
 NORM(A)=   0.10917942D+01
 Iteration Nr.   6
 **********************
 DD1Dir will call FoFMem   1 times, MxPair=       156
 NAB=    78 NAA=     0 NBB=     0.
 DE(Z)  -0.87437269D+00          E(Z)=    -0.31261594641D+03
 NORM(A)=   0.10917941D+01
 Iteration Nr.   7
 **********************
 DD1Dir will call FoFMem   1 times, MxPair=       156
 NAB=    78 NAA=     0 NBB=     0.
 DE(Z)  -0.87437123D+00          E(Z)=    -0.31261594495D+03
 NORM(A)=   0.10917941D+01
 Iteration Nr.   8
 **********************
 DD1Dir will call FoFMem   1 times, MxPair=       156
 NAB=    78 NAA=     0 NBB=     0.
 DE(Z)  -0.87437172D+00          E(Z)=    -0.31261594545D+03
 NORM(A)=   0.10917944D+01
 Iteration Nr.   9
 **********************
 DD1Dir will call FoFMem   1 times, MxPair=       156
 NAB=    78 NAA=     0 NBB=     0.
 DE(Z)  -0.87437150D+00          E(Z)=    -0.31261594523D+03
 NORM(A)=   0.10917944D+01
 Iteration Nr.  10
 **********************
 DD1Dir will call FoFMem   1 times, MxPair=       156
 NAB=    78 NAA=     0 NBB=     0.
 DE(Z)  -0.87437156D+00          E(Z)=    -0.31261594529D+03
 NORM(A)=   0.10917945D+01
 Iteration Nr.  11
 **********************
 DD1Dir will call FoFMem   1 times, MxPair=       156
 NAB=    78 NAA=     0 NBB=     0.
 DE(Z)  -0.87437156D+00          E(Z)=    -0.31261594528D+03
 NORM(A)=   0.10917945D+01
 Iteration Nr.  12
 **********************
 DD1Dir will call FoFMem   1 times, MxPair=       156
 NAB=    78 NAA=     0 NBB=     0.
 DE(Z)  -0.87437156D+00          E(Z)=    -0.31261594528D+03
 NORM(A)=   0.10917945D+01
 Iteration Nr.  13
 **********************
 DD1Dir will call FoFMem   1 times, MxPair=       156
 NAB=    78 NAA=     0 NBB=     0.
 DE(Z)  -0.87437156D+00          E(Z)=    -0.31261594529D+03
 NORM(A)=   0.10917944D+01
 Discarding MO integrals.
          Differentiating once with respect to electric field.
                with respect to dipole field.
          Electric field/nuclear overlap derivatives assumed to be zero.
          Keep R1 ints in memory in canonical form, NReq=297441306.
          There are     1 degrees of freedom in the 1st order CPHF.  IDoFFX=0.
 LinEq1:  Iter=  0 NonCon=     1 RMS=3.06D-03 Max=8.40D-02
 AX will form     1 AO Fock derivatives at one time.
 LinEq1:  Iter=  1 NonCon=     1 RMS=7.51D-04 Max=1.10D-02
 LinEq1:  Iter=  2 NonCon=     1 RMS=2.22D-04 Max=3.34D-03
 LinEq1:  Iter=  3 NonCon=     1 RMS=9.77D-05 Max=1.55D-03
 LinEq1:  Iter=  4 NonCon=     1 RMS=2.25D-05 Max=3.66D-04
 LinEq1:  Iter=  5 NonCon=     1 RMS=1.07D-05 Max=2.86D-04
 LinEq1:  Iter=  6 NonCon=     1 RMS=2.52D-06 Max=4.46D-05
 LinEq1:  Iter=  7 NonCon=     1 RMS=5.12D-07 Max=1.01D-05
 LinEq1:  Iter=  8 NonCon=     1 RMS=9.46D-08 Max=1.23D-06
 LinEq1:  Iter=  9 NonCon=     1 RMS=1.99D-08 Max=2.59D-07
 LinEq1:  Iter= 10 NonCon=     1 RMS=8.97D-09 Max=1.12D-07
 LinEq1:  Iter= 11 NonCon=     1 RMS=1.43D-09 Max=1.85D-08
 LinEq1:  Iter= 12 NonCon=     1 RMS=2.93D-10 Max=3.73D-09
 LinEq1:  Iter= 13 NonCon=     0 RMS=4.51D-11 Max=4.14D-10
 Linear equations converged to 1.000D-10 1.000D-09 after    13 iterations.
 End of Minotr Frequency-dependent properties file   721 does not exist.
 End of Minotr Frequency-dependent properties file   722 does not exist.

 **********************************************************************

            Population analysis using the QCI/CC density.

 **********************************************************************

     Natural Orbital Coefficients:
                           1         2         3         4         5
     Eigenvalues --     2.00001   2.00000   2.00000   2.00000   1.98619
   1 1   O  1S         -0.62923  -0.72349   0.00359   0.19963  -0.01962
   2        2S          0.01160   0.01271  -0.00007  -0.00382   0.04717
   3        3S         -0.02667  -0.03109   0.00016   0.00866   0.01316
   4        4S          0.00199   0.00275  -0.00003  -0.00174  -0.00009
   5        5S         -0.00051   0.00091  -0.00004  -0.00176  -0.01925
   6        6PX         0.00000   0.00000   0.00000   0.00000   0.00000
   7        6PY         0.00001   0.00000  -0.00018   0.00000   0.00046
   8        6PZ         0.00403   0.00179   0.00000   0.00011  -0.01421
   9        7PX         0.00000   0.00000   0.00000   0.00000   0.00000
  10        7PY         0.00000   0.00000  -0.00013   0.00001   0.00061
  11        7PZ         0.00268  -0.00196   0.00003   0.00167  -0.01383
  12        8PX         0.00000   0.00000   0.00000   0.00000   0.00000
  13        8PY        -0.00001   0.00002   0.00043   0.00000   0.00053
  14        8PZ         0.00320  -0.00074   0.00000   0.00059   0.00973
  15        9PX         0.00000   0.00000   0.00000   0.00000   0.00000
  16        9PY         0.00000   0.00000   0.00034   0.00000  -0.00004
  17        9PZ         0.00035   0.00004   0.00001   0.00046   0.00550
  18       10D 0       -0.00026  -0.00011   0.00000  -0.00002   0.00116
  19       10D+1        0.00000   0.00000   0.00000   0.00000   0.00000
  20       10D-1        0.00000   0.00000   0.00002   0.00000  -0.00002
  21       10D+2        0.00005   0.00005   0.00000   0.00001   0.00002
  22       10D-2        0.00000   0.00000   0.00000   0.00000   0.00000
  23       11D 0       -0.00003   0.00091  -0.00001  -0.00046  -0.00022
  24       11D+1        0.00000   0.00000   0.00000   0.00000   0.00000
  25       11D-1        0.00000   0.00000  -0.00005   0.00000  -0.00009
  26       11D+2        0.00005   0.00002   0.00000  -0.00017  -0.00081
  27       11D-2        0.00000   0.00000   0.00000   0.00000   0.00000
  28       12D 0       -0.00043   0.00023   0.00000  -0.00009  -0.00570
  29       12D+1        0.00000   0.00000   0.00000   0.00000   0.00000
  30       12D-1        0.00000   0.00000  -0.00013   0.00000  -0.00007
  31       12D+2        0.00027  -0.00027  -0.00001  -0.00017  -0.00214
  32       12D-2        0.00000   0.00000   0.00000   0.00000   0.00000
  33       13F 0       -0.00017   0.00008   0.00000  -0.00010  -0.00050
  34       13F+1        0.00000   0.00000   0.00000   0.00000   0.00000
  35       13F-1        0.00000   0.00000  -0.00002   0.00000   0.00003
  36       13F+2        0.00003   0.00002   0.00000   0.00002   0.00017
  37       13F-2        0.00000   0.00000   0.00000   0.00000   0.00000
  38       13F+3        0.00000   0.00000   0.00000   0.00000   0.00000
  39       13F-3        0.00000   0.00000   0.00002   0.00000   0.00000
  40       14F 0        0.00004  -0.00021   0.00000   0.00025   0.00165
  41       14F+1        0.00000   0.00000   0.00000   0.00000   0.00000
  42       14F-1        0.00000   0.00000   0.00008   0.00000   0.00001
  43       14F+2        0.00000   0.00002   0.00001   0.00017   0.00090
  44       14F-2        0.00000   0.00000   0.00000   0.00000   0.00000
  45       14F+3        0.00000   0.00000   0.00000   0.00000   0.00000
  46       14F-3        0.00000   0.00000  -0.00007   0.00000   0.00001
  47 2   C  1S          0.71772  -0.50174   0.00666   0.44199  -0.05196
  48        2S         -0.00912   0.00497  -0.00008  -0.00393   0.10941
  49        3S          0.02932  -0.02115   0.00027   0.01787   0.02376
  50        4S         -0.00027   0.00067  -0.00002   0.00018   0.01524
  51        5S          0.00023  -0.00010   0.00000   0.00036   0.00339
  52        6PX         0.00000   0.00000   0.00000   0.00000   0.00000
  53        6PY         0.00000   0.00000  -0.00003   0.00000   0.00136
  54        6PZ        -0.00187   0.00115  -0.00002  -0.00108  -0.01585
  55        7PX         0.00000   0.00000   0.00000   0.00000   0.00000
  56        7PY         0.00002   0.00001  -0.00095   0.00006   0.00109
  57        7PZ         0.00113  -0.00471   0.00004   0.00145  -0.01156
  58        8PX         0.00000   0.00000   0.00000   0.00000   0.00000
  59        8PY         0.00001  -0.00001   0.00055   0.00001  -0.00079
  60        8PZ         0.00083  -0.00027   0.00006   0.00201   0.01495
  61        9PX         0.00000   0.00000   0.00000   0.00000   0.00000
  62        9PY         0.00000   0.00000  -0.00029   0.00000   0.00004
  63        9PZ         0.00004  -0.00038   0.00000  -0.00006  -0.00017
  64       10D 0        0.00028  -0.00050   0.00001   0.00038   0.00508
  65       10D+1        0.00000   0.00000   0.00000   0.00000   0.00000
  66       10D-1       -0.00001   0.00000   0.00019  -0.00001  -0.00028
  67       10D+2       -0.00041   0.00020   0.00000  -0.00043  -0.00863
  68       10D-2        0.00000   0.00000   0.00000   0.00000   0.00000
  69       11D 0       -0.00037  -0.00105   0.00002   0.00058   0.00648
  70       11D+1        0.00000   0.00000   0.00000   0.00000   0.00000
  71       11D-1       -0.00002   0.00000   0.00101  -0.00005  -0.00042
  72       11D+2        0.00091  -0.00130   0.00002   0.00016  -0.00996
  73       11D-2        0.00000   0.00000   0.00000   0.00000   0.00000
  74       12D 0        0.00010   0.00060   0.00001   0.00031   0.00040
  75       12D+1        0.00000   0.00000   0.00000   0.00000   0.00000
  76       12D-1        0.00001  -0.00001  -0.00056   0.00000   0.00025
  77       12D+2        0.00006   0.00022   0.00001   0.00033   0.00352
  78       12D-2        0.00000   0.00000   0.00000   0.00000   0.00000
  79       13F 0        0.00071  -0.00032   0.00001   0.00061   0.00437
  80       13F+1        0.00000   0.00000   0.00000   0.00000   0.00000
  81       13F-1        0.00000   0.00000  -0.00022   0.00000   0.00000
  82       13F+2        0.00033   0.00010   0.00001   0.00060   0.00561
  83       13F-2        0.00000   0.00000   0.00000   0.00000   0.00000
  84       13F+3        0.00000   0.00000   0.00000   0.00000   0.00000
  85       13F-3        0.00000   0.00000   0.00022  -0.00001  -0.00007
  86       14F 0       -0.00116   0.00045   0.00000   0.00056   0.00361
  87       14F+1        0.00000   0.00000   0.00000   0.00000   0.00000
  88       14F-1        0.00003  -0.00002  -0.00086   0.00001   0.00008
  89       14F+2       -0.00098   0.00085   0.00000   0.00027   0.00492
  90       14F-2        0.00000   0.00000   0.00000   0.00000   0.00000
  91       14F+3        0.00000   0.00000   0.00000   0.00000   0.00000
  92       14F-3        0.00001   0.00000  -0.00005   0.00000   0.00004
  93 3   F  1S         -0.15830   0.30426   0.70108   0.59063  -0.14249
  94        2S          0.00336  -0.00549  -0.01125  -0.00888   0.36344
  95        3S         -0.00643   0.01289   0.03022   0.02571   0.11082
  96        4S          0.00271  -0.00293  -0.00057   0.00093   0.22542
  97        5S          0.00026  -0.00025   0.00072   0.00069   0.01335
  98        6PX         0.00000   0.00000   0.00000   0.00000   0.00000
  99        6PY        -0.00110   0.00130   0.00146   0.00091  -0.00490
 100        6PZ        -0.00089   0.00079   0.00111   0.00056  -0.01907
 101        7PX         0.00000   0.00000   0.00000   0.00000   0.00000
 102        7PY        -0.00100   0.00062  -0.00015  -0.00043  -0.00209
 103        7PZ        -0.00090   0.00021   0.00011  -0.00051  -0.02105
 104        8PX         0.00000   0.00000   0.00000   0.00000   0.00000
 105        8PY        -0.00053   0.00029   0.00087   0.00112  -0.01118
 106        8PZ        -0.00031  -0.00008   0.00144   0.00057  -0.02284
 107        9PX         0.00000   0.00000   0.00000   0.00000   0.00000
 108        9PY        -0.00006  -0.00003   0.00039   0.00009  -0.00098
 109        9PZ        -0.00003   0.00038   0.00008   0.00025  -0.00084
 110       10D 0        0.00000  -0.00001   0.00000   0.00000  -0.00011
 111       10D+1        0.00000   0.00000   0.00000   0.00000   0.00000
 112       10D-1        0.00003  -0.00002   0.00001   0.00004   0.00066
 113       10D+2        0.00001  -0.00001  -0.00002  -0.00002  -0.00064
 114       10D-2        0.00000   0.00000   0.00000   0.00000   0.00000
 115       11D 0       -0.00006   0.00004   0.00007  -0.00006  -0.00093
 116       11D+1        0.00000   0.00000   0.00000   0.00000   0.00000
 117       11D-1       -0.00036   0.00002  -0.00025  -0.00045   0.00338
 118       11D+2        0.00010   0.00003   0.00019   0.00020  -0.00323
 119       11D-2        0.00000   0.00000   0.00000   0.00000   0.00000
 120       12D 0       -0.00011   0.00001   0.00023   0.00004  -0.00010
 121       12D+1        0.00000   0.00000   0.00000   0.00000   0.00000
 122       12D-1       -0.00002  -0.00001   0.00040   0.00018  -0.00278
 123       12D+2        0.00019  -0.00010  -0.00022  -0.00024   0.00122
 124       12D-2        0.00000   0.00000   0.00000   0.00000   0.00000
 125       13F 0        0.00000  -0.00002   0.00000  -0.00001  -0.00034
 126       13F+1        0.00000   0.00000   0.00000   0.00000   0.00000
 127       13F-1       -0.00001  -0.00003   0.00000  -0.00002   0.00009
 128       13F+2        0.00001   0.00003   0.00002   0.00003  -0.00045
 129       13F-2        0.00000   0.00000   0.00000   0.00000   0.00000
 130       13F+3        0.00000   0.00000   0.00000   0.00000   0.00000
 131       13F-3        0.00001   0.00000   0.00006   0.00001  -0.00040
 132       14F 0        0.00014  -0.00001   0.00003   0.00014  -0.00029
 133       14F+1        0.00000   0.00000   0.00000   0.00000   0.00000
 134       14F-1       -0.00020   0.00017   0.00003  -0.00012  -0.00003
 135       14F+2        0.00026  -0.00022   0.00000   0.00014  -0.00096
 136       14F-2        0.00000   0.00000   0.00000   0.00000   0.00000
 137       14F+3        0.00000   0.00000   0.00000   0.00000   0.00000
 138       14F-3        0.00005  -0.00004  -0.00011   0.00004  -0.00051
 139 4   F  1S         -0.15882   0.30363  -0.68298   0.61162  -0.14958
 140        2S          0.00337  -0.00548   0.01096  -0.00920   0.38144
 141        3S         -0.00645   0.01286  -0.02945   0.02663   0.11628
 142        4S          0.00267  -0.00294   0.00062   0.00084   0.23675
 143        5S          0.00022  -0.00024  -0.00067   0.00066   0.01505
 144        6PX         0.00000   0.00000   0.00000   0.00000   0.00000
 145        6PY         0.00112  -0.00131   0.00146  -0.00096   0.00663
 146        6PZ        -0.00090   0.00078  -0.00109   0.00059  -0.01939
 147        7PX         0.00000   0.00000   0.00000   0.00000   0.00000
 148        7PY         0.00104  -0.00064  -0.00014   0.00045   0.00394
 149        7PZ        -0.00092   0.00021  -0.00013  -0.00051  -0.02131
 150        8PX         0.00000   0.00000   0.00000   0.00000   0.00000
 151        8PY         0.00061  -0.00032   0.00084  -0.00109   0.01323
 152        8PZ        -0.00031  -0.00007  -0.00141   0.00058  -0.02303
 153        9PX         0.00000   0.00000   0.00000   0.00000   0.00000
 154        9PY         0.00007   0.00003   0.00039  -0.00009   0.00089
 155        9PZ        -0.00004   0.00039  -0.00006   0.00024  -0.00077
 156       10D 0        0.00000  -0.00001   0.00000   0.00000  -0.00012
 157       10D+1        0.00000   0.00000   0.00000   0.00000   0.00000
 158       10D-1       -0.00003   0.00002   0.00001  -0.00004  -0.00069
 159       10D+2        0.00001  -0.00001   0.00002  -0.00002  -0.00066
 160       10D-2        0.00000   0.00000   0.00000   0.00000   0.00000
 161       11D 0       -0.00005   0.00004  -0.00008  -0.00005  -0.00092
 162       11D+1        0.00000   0.00000   0.00000   0.00000   0.00000
 163       11D-1        0.00037  -0.00003  -0.00023   0.00047  -0.00360
 164       11D+2        0.00011   0.00002  -0.00019   0.00021  -0.00340
 165       11D-2        0.00000   0.00000   0.00000   0.00000   0.00000
 166       12D 0       -0.00009   0.00001  -0.00023   0.00005   0.00009
 167       12D+1        0.00000   0.00000   0.00000   0.00000   0.00000
 168       12D-1        0.00002   0.00000   0.00039  -0.00018   0.00283
 169       12D+2        0.00021  -0.00011   0.00021  -0.00024   0.00139
 170       12D-2        0.00000   0.00000   0.00000   0.00000   0.00000
 171       13F 0        0.00000  -0.00002   0.00000  -0.00001  -0.00035
 172       13F+1        0.00000   0.00000   0.00000   0.00000   0.00000
 173       13F-1        0.00001   0.00003   0.00000   0.00002  -0.00009
 174       13F+2        0.00001   0.00003  -0.00002   0.00003  -0.00048
 175       13F-2        0.00000   0.00000   0.00000   0.00000   0.00000
 176       13F+3        0.00000   0.00000   0.00000   0.00000   0.00000
 177       13F-3       -0.00001   0.00000   0.00006  -0.00001   0.00041
 178       14F 0        0.00015  -0.00001  -0.00002   0.00015  -0.00030
 179       14F+1        0.00000   0.00000   0.00000   0.00000   0.00000
 180       14F-1        0.00018  -0.00017   0.00003   0.00012  -0.00001
 181       14F+2        0.00026  -0.00022   0.00000   0.00015  -0.00102
 182       14F-2        0.00000   0.00000   0.00000   0.00000   0.00000
 183       14F+3        0.00000   0.00000   0.00000   0.00000   0.00000
 184       14F-3       -0.00005   0.00004  -0.00011  -0.00003   0.00055
                           6         7         8         9        10
     Eigenvalues --     1.98562   1.98141   1.97346   1.97139   1.96833
   1 1   O  1S          0.00022  -0.19102  -0.03833  -0.00034   0.00000
   2        2S         -0.00050   0.49133   0.10594   0.00090   0.00000
   3        3S         -0.00014   0.13788   0.03142   0.00027   0.00000
   4        4S          0.00013   0.30601   0.08983   0.00072   0.00000
   5        5S          0.00034   0.03440  -0.00787   0.00036   0.00000
   6        6PX         0.00000   0.00000   0.00000   0.00000  -0.00650
   7        6PY         0.02089   0.00022  -0.00048  -0.05171   0.00000
   8        6PZ         0.00027   0.00033   0.02521   0.00078   0.00000
   9        7PX         0.00000   0.00000   0.00000   0.00000  -0.00876
  10        7PY         0.02614   0.00029  -0.00068  -0.07020   0.00000
  11        7PZ         0.00027  -0.00528   0.02570   0.00098   0.00000
  12        8PX         0.00000   0.00000   0.00000   0.00000  -0.01764
  13        8PY         0.01678   0.00036  -0.00063  -0.06955   0.00000
  14        8PZ         0.00001   0.04793   0.00433   0.00060   0.00000
  15        9PX         0.00000   0.00000   0.00000   0.00000  -0.00934
  16        9PY        -0.00186   0.00009   0.00003   0.00636   0.00000
  17        9PZ        -0.00010   0.00283   0.00478  -0.00001   0.00000
  18       10D 0       -0.00001   0.00474  -0.00109  -0.00003   0.00000
  19       10D+1        0.00000   0.00000   0.00000   0.00000  -0.00195
  20       10D-1       -0.00075  -0.00001   0.00004   0.00322   0.00000
  21       10D+2        0.00000  -0.00003   0.00049   0.00000   0.00000
  22       10D-2        0.00000   0.00000   0.00000   0.00000   0.00003
  23       11D 0        0.00001   0.01182  -0.00041  -0.00010   0.00000
  24       11D+1        0.00000   0.00000   0.00000   0.00000  -0.00238
  25       11D-1       -0.00196  -0.00005   0.00015   0.01389   0.00000
  26       11D+2        0.00002   0.00008   0.00081  -0.00002   0.00000
  27       11D-2        0.00000   0.00000   0.00000   0.00000   0.00035
  28       12D 0        0.00003  -0.01279   0.00770  -0.00010   0.00000
  29       12D+1        0.00000   0.00000   0.00000   0.00000   0.00044
  30       12D-1       -0.00053  -0.00009   0.00006   0.01402   0.00000
  31       12D+2        0.00005   0.00038   0.00068  -0.00007   0.00000
  32       12D-2        0.00000   0.00000   0.00000   0.00000   0.00095
  33       13F 0        0.00000  -0.00277   0.00065   0.00001   0.00000
  34       13F+1        0.00000   0.00000   0.00000   0.00000   0.00129
  35       13F-1        0.00077   0.00001  -0.00003  -0.00265   0.00000
  36       13F+2        0.00000   0.00023  -0.00018   0.00000   0.00000
  37       13F-2        0.00000   0.00000   0.00000   0.00000  -0.00005
  38       13F+3        0.00000   0.00000   0.00000   0.00000  -0.00022
  39       13F-3        0.00000   0.00000   0.00000  -0.00006   0.00000
  40       14F 0       -0.00003  -0.00060  -0.00036   0.00005   0.00000
  41       14F+1        0.00000   0.00000   0.00000   0.00000  -0.00180
  42       14F-1        0.00008   0.00001  -0.00002  -0.00237   0.00000
  43       14F+2       -0.00003  -0.00054   0.00096   0.00002   0.00000
  44       14F-2        0.00000   0.00000   0.00000   0.00000  -0.00037
  45       14F+3        0.00000   0.00000   0.00000   0.00000   0.00121
  46       14F-3        0.00035   0.00000  -0.00002  -0.00061   0.00000
  47 2   C  1S          0.00082  -0.06835  -0.01126   0.00090   0.00000
  48        2S         -0.00182   0.15844   0.02629  -0.00238   0.00000
  49        3S         -0.00036   0.03835   0.00699  -0.00065   0.00000
  50        4S         -0.00031   0.02792  -0.01732   0.00015   0.00000
  51        5S         -0.00004  -0.00230  -0.00002  -0.00002   0.00000
  52        6PX         0.00000   0.00000   0.00000   0.00000   0.10446
  53        6PY         0.03794   0.00017  -0.00102  -0.07835   0.00000
  54        6PZ         0.00041   0.08057  -0.05212   0.00041   0.00000
  55        7PX         0.00000   0.00000   0.00000   0.00000   0.13149
  56        7PY         0.03149   0.00043  -0.00113  -0.09912   0.00000
  57        7PZ         0.00048   0.05672  -0.08201   0.00086   0.00000
  58        8PX         0.00000   0.00000   0.00000   0.00000   0.01762
  59        8PY        -0.02035   0.00008   0.00044   0.07425   0.00000
  60        8PZ        -0.00043  -0.03073   0.02716   0.00020   0.00000
  61        9PX         0.00000   0.00000   0.00000   0.00000   0.00220
  62        9PY         0.00177  -0.00004  -0.00004  -0.00471   0.00000
  63        9PZ         0.00002  -0.00018   0.00210  -0.00005   0.00000
  64       10D 0       -0.00016   0.01232   0.02021  -0.00010   0.00000
  65       10D+1        0.00000   0.00000   0.00000   0.00000  -0.01450
  66       10D-1       -0.00895   0.00006  -0.00025  -0.01020   0.00000
  67       10D+2        0.00011  -0.00255   0.01040   0.00003   0.00000
  68       10D-2        0.00000   0.00000   0.00000   0.00000   0.00275
  69       11D 0       -0.00019   0.00210   0.03767  -0.00015   0.00000
  70       11D+1        0.00000   0.00000   0.00000   0.00000  -0.02441
  71       11D-1       -0.01052  -0.00008  -0.00023   0.00655   0.00000
  72       11D+2        0.00018  -0.00766   0.02159   0.00003   0.00000
  73       11D-2        0.00000   0.00000   0.00000   0.00000   0.00450
  74       12D 0        0.00001  -0.01201  -0.00378  -0.00012   0.00000
  75       12D+1        0.00000   0.00000   0.00000   0.00000   0.00023
  76       12D-1        0.01026  -0.00009   0.00012  -0.01203   0.00000
  77       12D+2       -0.00005  -0.00302   0.00100  -0.00009   0.00000
  78       12D-2        0.00000   0.00000   0.00000   0.00000  -0.00052
  79       13F 0       -0.00007   0.00622  -0.00578   0.00010   0.00000
  80       13F+1        0.00000   0.00000   0.00000   0.00000   0.00443
  81       13F-1        0.00193  -0.00001   0.00015   0.01100   0.00000
  82       13F+2       -0.00013   0.00262   0.00026   0.00004   0.00000
  83       13F-2        0.00000   0.00000   0.00000   0.00000  -0.00125
  84       13F+3        0.00000   0.00000   0.00000   0.00000  -0.00775
  85       13F-3       -0.00208  -0.00001   0.00006   0.00535   0.00000
  86       14F 0       -0.00006  -0.00234  -0.00697   0.00014   0.00000
  87       14F+1        0.00000   0.00000   0.00000   0.00000  -0.00085
  88       14F-1        0.00540  -0.00012   0.00049   0.01701   0.00000
  89       14F+2       -0.00010   0.00048  -0.00644   0.00008   0.00000
  90       14F-2        0.00000   0.00000   0.00000   0.00000  -0.00202
  91       14F+3        0.00000   0.00000   0.00000   0.00000  -0.00156
  92       14F-3        0.00085  -0.00003   0.00011  -0.00078   0.00000
  93 3   F  1S          0.15288   0.01924   0.01647   0.01665   0.00000
  94        2S         -0.39061  -0.04916  -0.04424  -0.04499   0.00000
  95        3S         -0.11961  -0.01546  -0.01489  -0.01539   0.00000
  96        4S         -0.25692  -0.05330  -0.03510  -0.04970   0.00000
  97        5S         -0.03256  -0.02237   0.00976   0.04909   0.00000
  98        6PX         0.00000   0.00000   0.00000   0.00000   0.21381
  99        6PY         0.03805  -0.00265   0.16533  -0.13213   0.00000
 100        6PZ         0.00971   0.04623  -0.19258   0.23487   0.00000
 101        7PX         0.00000   0.00000   0.00000   0.00000   0.26119
 102        7PY         0.04161  -0.00567   0.20034  -0.16064   0.00000
 103        7PZ         0.00821   0.05431  -0.23351   0.28379   0.00000
 104        8PX         0.00000   0.00000   0.00000   0.00000   0.17855
 105        8PY         0.03546  -0.01309   0.12513  -0.13483   0.00000
 106        8PZ         0.00521   0.02839  -0.16351   0.18727   0.00000
 107        9PX         0.00000   0.00000   0.00000   0.00000   0.01239
 108        9PY        -0.00146  -0.00320   0.01330   0.00064   0.00000
 109        9PZ        -0.00042  -0.00364  -0.01379   0.02632   0.00000
 110       10D 0       -0.00016   0.00060  -0.00261   0.00240   0.00000
 111       10D+1        0.00000   0.00000   0.00000   0.00000   0.00165
 112       10D-1       -0.00043   0.00079  -0.00060   0.00164   0.00000
 113       10D+2        0.00011  -0.00003  -0.00222   0.00061   0.00000
 114       10D-2        0.00000   0.00000   0.00000   0.00000   0.00275
 115       11D 0       -0.00099   0.00172  -0.00984   0.00873   0.00000
 116       11D+1        0.00000   0.00000   0.00000   0.00000   0.00709
 117       11D-1       -0.00411   0.00016  -0.00237   0.00612   0.00000
 118       11D+2        0.00201   0.00125  -0.00749   0.00200   0.00000
 119       11D-2        0.00000   0.00000   0.00000   0.00000   0.01113
 120       12D 0       -0.00184   0.00015  -0.00489   0.00741   0.00000
 121       12D+1        0.00000   0.00000   0.00000   0.00000   0.00329
 122       12D-1       -0.00011  -0.00210  -0.00408  -0.00218   0.00000
 123       12D+2       -0.00150   0.00177   0.00084   0.00994   0.00000
 124       12D-2        0.00000   0.00000   0.00000   0.00000   0.00730
 125       13F 0        0.00012   0.00006  -0.00066   0.00044   0.00000
 126       13F+1        0.00000   0.00000   0.00000   0.00000   0.00027
 127       13F-1       -0.00029   0.00047  -0.00171   0.00184   0.00000
 128       13F+2        0.00032  -0.00012  -0.00041  -0.00027   0.00000
 129       13F-2        0.00000   0.00000   0.00000   0.00000   0.00145
 130       13F+3        0.00000   0.00000   0.00000   0.00000  -0.00144
 131       13F-3        0.00003   0.00009  -0.00107   0.00025   0.00000
 132       14F 0        0.00041   0.00073  -0.00186   0.00030   0.00000
 133       14F+1        0.00000   0.00000   0.00000   0.00000   0.00002
 134       14F-1       -0.00098   0.00007  -0.00270   0.00306   0.00000
 135       14F+2        0.00105   0.00057  -0.00044  -0.00081   0.00000
 136       14F-2        0.00000   0.00000   0.00000   0.00000   0.00267
 137       14F+3        0.00000   0.00000   0.00000   0.00000  -0.00169
 138       14F-3        0.00067   0.00030  -0.00072   0.00087   0.00000
 139 4   F  1S         -0.14590   0.01981   0.01602  -0.01713   0.00000
 140        2S          0.37274  -0.05071  -0.04303   0.04644   0.00000
 141        3S          0.11411  -0.01594  -0.01448   0.01592   0.00000
 142        4S          0.24552  -0.05504  -0.03403   0.05215   0.00000
 143        5S          0.03186  -0.02305   0.00945  -0.04926   0.00000
 144        6PX         0.00000   0.00000   0.00000   0.00000   0.28324
 145        6PY         0.03792   0.00221  -0.16631  -0.12493   0.00000
 146        6PZ        -0.00819   0.04704  -0.19837  -0.23353   0.00000
 147        7PX         0.00000   0.00000   0.00000   0.00000   0.34582
 148        7PY         0.04158   0.00525  -0.20157  -0.15198   0.00000
 149        7PZ        -0.00646   0.05522  -0.24058  -0.28219   0.00000
 150        8PX         0.00000   0.00000   0.00000   0.00000   0.23586
 151        8PY         0.03514   0.01309  -0.12567  -0.12961   0.00000
 152        8PZ        -0.00368   0.02868  -0.16750  -0.18534   0.00000
 153        9PX         0.00000   0.00000   0.00000   0.00000   0.01844
 154        9PY        -0.00150   0.00337  -0.01319   0.00114   0.00000
 155        9PZ         0.00044  -0.00363  -0.01424  -0.02600   0.00000
 156       10D 0        0.00017   0.00060  -0.00268  -0.00236   0.00000
 157       10D+1        0.00000   0.00000   0.00000   0.00000   0.00210
 158       10D-1       -0.00042  -0.00081   0.00069   0.00173   0.00000
 159       10D+2       -0.00009  -0.00003  -0.00224  -0.00052   0.00000
 160       10D-2        0.00000   0.00000   0.00000   0.00000  -0.00337
 161       11D 0        0.00101   0.00180  -0.01008  -0.00856   0.00000
 162       11D+1        0.00000   0.00000   0.00000   0.00000   0.00888
 163       11D-1       -0.00400  -0.00023   0.00271   0.00642   0.00000
 164       11D+2       -0.00189   0.00126  -0.00756  -0.00171   0.00000
 165       11D-2        0.00000   0.00000   0.00000   0.00000  -0.01373
 166       12D 0        0.00185   0.00014  -0.00473  -0.00724   0.00000
 167       12D+1        0.00000   0.00000   0.00000   0.00000   0.00424
 168       12D-1       -0.00025   0.00217   0.00409  -0.00214   0.00000
 169       12D+2        0.00147   0.00182   0.00089  -0.00990   0.00000
 170       12D-2        0.00000   0.00000   0.00000   0.00000  -0.00825
 171       13F 0       -0.00011   0.00005  -0.00065  -0.00038   0.00000
 172       13F+1        0.00000   0.00000   0.00000   0.00000   0.00030
 173       13F-1       -0.00029  -0.00048   0.00179   0.00185   0.00000
 174       13F+2       -0.00031  -0.00013  -0.00038   0.00033   0.00000
 175       13F-2        0.00000   0.00000   0.00000   0.00000  -0.00185
 176       13F+3        0.00000   0.00000   0.00000   0.00000  -0.00171
 177       13F-3        0.00001  -0.00009   0.00108   0.00022   0.00000
 178       14F 0       -0.00041   0.00075  -0.00180  -0.00019   0.00000
 179       14F+1        0.00000   0.00000   0.00000   0.00000   0.00021
 180       14F-1       -0.00096  -0.00014   0.00279   0.00301   0.00000
 181       14F+2       -0.00100   0.00055  -0.00038   0.00090   0.00000
 182       14F-2        0.00000   0.00000   0.00000   0.00000  -0.00327
 183       14F+3        0.00000   0.00000   0.00000   0.00000  -0.00227
 184       14F-3        0.00066  -0.00031   0.00072   0.00082   0.00000
                          11        12        13        14        15
     Eigenvalues --     1.96818   1.96685   1.96307   1.96129   1.95646
   1 1   O  1S          0.00000   0.05064  -0.00121   0.00179   0.00019
   2        2S          0.00000  -0.15210   0.00399  -0.02711  -0.00011
   3        3S          0.00000  -0.04660   0.00130  -0.01219   0.00004
   4        4S          0.00000  -0.21115   0.00701  -0.13495   0.00192
   5        5S          0.00000  -0.04531   0.00150  -0.04509   0.00048
   6        6PX        -0.00094   0.00000   0.00000   0.00000   0.00000
   7        6PY         0.00000   0.00377   0.23050   0.00951   0.25863
   8        6PZ         0.00000  -0.16170   0.00780  -0.26371   0.00475
   9        7PX        -0.00128   0.00000   0.00000   0.00000   0.00000
  10        7PY         0.00000   0.00456   0.28127   0.01164   0.31817
  11        7PZ         0.00000  -0.18708   0.00923  -0.31678   0.00568
  12        8PX        -0.00233   0.00000   0.00000   0.00000   0.00000
  13        8PY         0.00000   0.00303   0.18606   0.00798   0.21808
  14        8PZ         0.00000  -0.07856   0.00415  -0.15419   0.00256
  15        9PX        -0.00115   0.00000   0.00000   0.00000   0.00000
  16        9PY         0.00000   0.00059   0.02585   0.00116   0.02952
  17        9PZ         0.00000   0.00328   0.00004  -0.00434   0.00018
  18       10D 0        0.00000   0.00716  -0.00036   0.01213  -0.00022
  19       10D+1       -0.00023   0.00000   0.00000   0.00000   0.00000
  20       10D-1        0.00000  -0.00012  -0.00755  -0.00021  -0.00498
  21       10D+2        0.00000   0.00008   0.00000   0.00023   0.00000
  22       10D-2       -0.00022   0.00000   0.00000   0.00000   0.00000
  23       11D 0        0.00000   0.01199  -0.00076   0.02956  -0.00056
  24       11D+1       -0.00024   0.00000   0.00000   0.00000   0.00000
  25       11D-1        0.00000  -0.00030  -0.01846  -0.00054  -0.01232
  26       11D+2        0.00000  -0.00008  -0.00002   0.00113  -0.00004
  27       11D-2       -0.00278   0.00000   0.00000   0.00000   0.00000
  28       12D 0        0.00000  -0.00061  -0.00008   0.00495  -0.00005
  29       12D+1        0.00005   0.00000   0.00000   0.00000   0.00000
  30       12D-1        0.00000  -0.00015  -0.00856  -0.00024  -0.00171
  31       12D+2        0.00000  -0.00060  -0.00003   0.00288  -0.00016
  32       12D-2       -0.00742   0.00000   0.00000   0.00000   0.00000
  33       13F 0        0.00000  -0.00245   0.00013  -0.00483   0.00009
  34       13F+1        0.00015   0.00000   0.00000   0.00000   0.00000
  35       13F-1        0.00000   0.00007   0.00413   0.00010   0.00223
  36       13F+2        0.00000  -0.00026   0.00001  -0.00070   0.00001
  37       13F-2        0.00036   0.00000   0.00000   0.00000   0.00000
  38       13F+3       -0.00003   0.00000   0.00000   0.00000   0.00000
  39       13F-3        0.00000   0.00001   0.00064   0.00003   0.00095
  40       14F 0        0.00000  -0.00083   0.00013  -0.00670   0.00015
  41       14F+1       -0.00023   0.00000   0.00000   0.00000   0.00000
  42       14F-1        0.00000   0.00008   0.00383   0.00011   0.00252
  43       14F+2        0.00000  -0.00011   0.00002  -0.00079   0.00003
  44       14F-2        0.00304   0.00000   0.00000   0.00000   0.00000
  45       14F+3        0.00014   0.00000   0.00000   0.00000   0.00000
  46       14F-3        0.00000   0.00002   0.00081   0.00000  -0.00077
  47 2   C  1S          0.00000  -0.14282   0.00397  -0.02235  -0.00006
  48        2S          0.00000   0.39235  -0.01114   0.06472   0.00028
  49        3S          0.00000   0.10155  -0.00280   0.01768  -0.00003
  50        4S          0.00000   0.15890  -0.00463  -0.01738   0.00098
  51        5S          0.00000   0.00623  -0.00029   0.00769  -0.00021
  52        6PX         0.01251   0.00000   0.00000   0.00000   0.00000
  53        6PY         0.00000   0.00444   0.18022   0.00048  -0.07086
  54        6PZ         0.00000  -0.01292  -0.00312   0.22920  -0.00509
  55        7PX         0.01592   0.00000   0.00000   0.00000   0.00000
  56        7PY         0.00000   0.00505   0.21595   0.00108  -0.07865
  57        7PZ         0.00000  -0.02838  -0.00249   0.22685  -0.00562
  58        8PX         0.00226   0.00000   0.00000   0.00000   0.00000
  59        8PY         0.00000   0.00173   0.05388   0.00067  -0.01368
  60        8PZ         0.00000  -0.00314   0.00019   0.02818  -0.00037
  61        9PX         0.00024   0.00000   0.00000   0.00000   0.00000
  62        9PY         0.00000  -0.00013  -0.00233  -0.00013  -0.00293
  63        9PZ         0.00000  -0.00002  -0.00002   0.00070  -0.00006
  64       10D 0        0.00000   0.00760  -0.00044   0.01871  -0.00022
  65       10D+1       -0.00181   0.00000   0.00000   0.00000   0.00000
  66       10D-1        0.00000  -0.00033   0.00048   0.00100   0.04365
  67       10D+2        0.00000  -0.00895   0.00003   0.01156  -0.00020
  68       10D-2       -0.02027   0.00000   0.00000   0.00000   0.00000
  69       11D 0        0.00000   0.00271  -0.00023   0.01732  -0.00007
  70       11D+1       -0.00302   0.00000   0.00000   0.00000   0.00000
  71       11D-1        0.00000  -0.00102  -0.02303   0.00134   0.08666
  72       11D+2        0.00000  -0.02244   0.00027   0.02369  -0.00044
  73       11D-2       -0.03306   0.00000   0.00000   0.00000   0.00000
  74       12D 0        0.00000   0.00127   0.00006  -0.00025   0.00026
  75       12D+1        0.00004   0.00000   0.00000   0.00000   0.00000
  76       12D-1        0.00000  -0.00046  -0.00886   0.00007   0.01306
  77       12D+2        0.00000   0.00351  -0.00003   0.00256   0.00013
  78       12D-2        0.00382   0.00000   0.00000   0.00000   0.00000
  79       13F 0        0.00000   0.00788  -0.00022   0.00498  -0.00012
  80       13F+1        0.00060   0.00000   0.00000   0.00000   0.00000
  81       13F-1        0.00000   0.00037   0.01439   0.00040   0.00467
  82       13F+2        0.00000   0.00604  -0.00011  -0.00087   0.00004
  83       13F-2        0.00984   0.00000   0.00000   0.00000   0.00000
  84       13F+3       -0.00093   0.00000   0.00000   0.00000   0.00000
  85       13F-3        0.00000   0.00003   0.00038   0.00010   0.00309
  86       14F 0        0.00000   0.00397   0.00021  -0.01464   0.00046
  87       14F+1       -0.00005   0.00000   0.00000   0.00000   0.00000
  88       14F-1        0.00000   0.00054   0.03008   0.00090   0.01166
  89       14F+2        0.00000   0.00924  -0.00004  -0.01233   0.00042
  90       14F-2        0.01519   0.00000   0.00000   0.00000   0.00000
  91       14F+3       -0.00012   0.00000   0.00000   0.00000   0.00000
  92       14F-3        0.00000  -0.00003   0.00329   0.00028   0.00923
  93 3   F  1S          0.00000   0.02053  -0.00505   0.00492  -0.02177
  94        2S          0.00000  -0.06322   0.02231  -0.00635   0.05282
  95        3S          0.00000  -0.02286   0.01001   0.00086   0.01359
  96        4S          0.00000  -0.12246   0.09305   0.03984  -0.01390
  97        5S          0.00000  -0.02289   0.03723   0.01373  -0.02600
  98        6PX         0.30514   0.00000   0.00000   0.00000   0.00000
  99        6PY         0.00000   0.12006  -0.17843  -0.07733   0.15667
 100        6PZ         0.00000   0.10222  -0.00770  -0.12463   0.12434
 101        7PX         0.37158   0.00000   0.00000   0.00000   0.00000
 102        7PY         0.00000   0.14285  -0.21391  -0.09628   0.19302
 103        7PZ         0.00000   0.12122  -0.00821  -0.15316   0.15263
 104        8PX         0.25532   0.00000   0.00000   0.00000   0.00000
 105        8PY         0.00000   0.06250  -0.11026  -0.04751   0.11715
 106        8PZ         0.00000   0.05655   0.00982  -0.09747   0.08507
 107        9PX         0.02665   0.00000   0.00000   0.00000   0.00000
 108        9PY         0.00000  -0.00305  -0.00511   0.00246   0.00614
 109        9PZ         0.00000   0.00140   0.01263  -0.00745   0.00856
 110       10D 0        0.00000   0.00003  -0.00005   0.00033  -0.00006
 111       10D+1        0.00200   0.00000   0.00000   0.00000   0.00000
 112       10D-1        0.00000   0.00381  -0.00326  -0.00251   0.00348
 113       10D+2        0.00000  -0.00250   0.00224   0.00208  -0.00210
 114       10D-2        0.00258   0.00000   0.00000   0.00000   0.00000
 115       11D 0        0.00000  -0.00033  -0.00228   0.00142  -0.00154
 116       11D+1        0.00804   0.00000   0.00000   0.00000   0.00000
 117       11D-1        0.00000   0.01065  -0.01164  -0.01127   0.01201
 118       11D+2        0.00000  -0.00763   0.00685   0.00819  -0.00808
 119       11D-2        0.01101   0.00000   0.00000   0.00000   0.00000
 120       12D 0        0.00000  -0.00137  -0.00741  -0.00125  -0.00412
 121       12D+1        0.00494   0.00000   0.00000   0.00000   0.00000
 122       12D-1        0.00000   0.00196  -0.00259  -0.00308   0.00248
 123       12D+2        0.00000  -0.00096  -0.00090   0.00462  -0.00543
 124       12D-2        0.00546   0.00000   0.00000   0.00000   0.00000
 125       13F 0        0.00000  -0.00097   0.00092   0.00087  -0.00098
 126       13F+1        0.00021   0.00000   0.00000   0.00000   0.00000
 127       13F-1        0.00000   0.00075  -0.00052  -0.00062   0.00084
 128       13F+2        0.00000  -0.00151   0.00162   0.00144  -0.00161
 129       13F-2        0.00170   0.00000   0.00000   0.00000   0.00000
 130       13F+3       -0.00110   0.00000   0.00000   0.00000   0.00000
 131       13F-3        0.00000  -0.00081   0.00072   0.00088  -0.00069
 132       14F 0        0.00000  -0.00087   0.00013   0.00206  -0.00210
 133       14F+1        0.00096   0.00000   0.00000   0.00000   0.00000
 134       14F-1        0.00000   0.00061  -0.00336  -0.00048   0.00042
 135       14F+2        0.00000  -0.00246   0.00268   0.00300  -0.00265
 136       14F-2        0.00290   0.00000   0.00000   0.00000   0.00000
 137       14F+3       -0.00251   0.00000   0.00000   0.00000   0.00000
 138       14F-3        0.00000  -0.00153   0.00147   0.00158  -0.00181
 139 4   F  1S          0.00000   0.02037   0.00392   0.00611   0.02175
 140        2S          0.00000  -0.06345  -0.01917  -0.00959  -0.05322
 141        3S          0.00000  -0.02312  -0.00899  -0.00009  -0.01390
 142        4S          0.00000  -0.12776  -0.08859   0.03783   0.01159
 143        5S          0.00000  -0.02604  -0.03608   0.01352   0.02583
 144        6PX        -0.24168   0.00000   0.00000   0.00000   0.00000
 145        6PY         0.00000  -0.13359  -0.17518   0.07998   0.15221
 146        6PZ         0.00000   0.10011   0.00505  -0.12939  -0.11608
 147        7PX        -0.29419   0.00000   0.00000   0.00000   0.00000
 148        7PY         0.00000  -0.15910  -0.21021   0.09980   0.18748
 149        7PZ         0.00000   0.11860   0.00526  -0.15908  -0.14247
 150        8PX        -0.20182   0.00000   0.00000   0.00000   0.00000
 151        8PY         0.00000  -0.07144  -0.10832   0.04997   0.11400
 152        8PZ         0.00000   0.05360  -0.01063  -0.10100  -0.07857
 153        9PX        -0.02249   0.00000   0.00000   0.00000   0.00000
 154        9PY         0.00000   0.00295  -0.00514  -0.00230   0.00622
 155        9PZ         0.00000   0.00051  -0.01239  -0.00827  -0.00785
 156       10D 0        0.00000  -0.00006   0.00000   0.00038   0.00009
 157       10D+1       -0.00153   0.00000   0.00000   0.00000   0.00000
 158       10D-1        0.00000  -0.00400  -0.00317   0.00258   0.00334
 159       10D+2        0.00000  -0.00270  -0.00222   0.00215   0.00202
 160       10D-2        0.00185   0.00000   0.00000   0.00000   0.00000
 161       11D 0        0.00000  -0.00047   0.00218   0.00182   0.00166
 162       11D+1       -0.00605   0.00000   0.00000   0.00000   0.00000
 163       11D-1        0.00000  -0.01134  -0.01157   0.01142   0.01133
 164       11D+2        0.00000  -0.00824  -0.00688   0.00852   0.00772
 165       11D-2        0.00800   0.00000   0.00000   0.00000   0.00000
 166       12D 0        0.00000  -0.00125   0.00751  -0.00073   0.00415
 167       12D+1       -0.00389   0.00000   0.00000   0.00000   0.00000
 168       12D-1        0.00000  -0.00206  -0.00262   0.00299   0.00225
 169       12D+2        0.00000  -0.00113   0.00091   0.00493   0.00520
 170       12D-2        0.00336   0.00000   0.00000   0.00000   0.00000
 171       13F 0        0.00000  -0.00105  -0.00091   0.00091   0.00094
 172       13F+1       -0.00012   0.00000   0.00000   0.00000   0.00000
 173       13F-1        0.00000  -0.00073  -0.00048   0.00060   0.00076
 174       13F+2        0.00000  -0.00162  -0.00161   0.00147   0.00152
 175       13F-2        0.00129   0.00000   0.00000   0.00000   0.00000
 176       13F+3        0.00073   0.00000   0.00000   0.00000   0.00000
 177       13F-3        0.00000   0.00089   0.00072  -0.00092  -0.00064
 178       14F 0        0.00000  -0.00090  -0.00022   0.00220   0.00202
 179       14F+1       -0.00091   0.00000   0.00000   0.00000   0.00000
 180       14F-1        0.00000  -0.00073  -0.00332   0.00023   0.00032
 181       14F+2        0.00000  -0.00263  -0.00267   0.00300   0.00247
 182       14F-2        0.00212   0.00000   0.00000   0.00000   0.00000
 183       14F+3        0.00201   0.00000   0.00000   0.00000   0.00000
 184       14F-3        0.00000   0.00165   0.00146  -0.00164  -0.00175
                          16        17        18        19        20
     Eigenvalues --     1.93999   0.05881   0.03773   0.03588   0.02446
   1 1   O  1S          0.00000   0.00000  -0.03400  -0.00441   0.07151
   2        2S          0.00000   0.00000   0.13935   0.01811  -0.27645
   3        3S          0.00000   0.00000   0.05071   0.00676  -0.11582
   4        4S          0.00000   0.00000   0.17707   0.02238  -0.49824
   5        5S          0.00000   0.00000   0.08299   0.01033  -0.20141
   6        6PX         0.30116  -0.35168   0.00000   0.00000   0.00000
   7        6PY         0.00000   0.00000  -0.04270   0.34185   0.00014
   8        6PZ         0.00000   0.00000  -0.19107  -0.02487   0.34692
   9        7PX         0.37590  -0.39418   0.00000   0.00000   0.00000
  10        7PY         0.00000   0.00000  -0.03955   0.30790   0.00064
  11        7PZ         0.00000   0.00000  -0.21865  -0.02775   0.43120
  12        8PX         0.24006  -0.06886   0.00000   0.00000   0.00000
  13        8PY         0.00000   0.00000   0.00496  -0.05469  -0.00015
  14        8PZ         0.00000   0.00000   0.03216   0.00528   0.16205
  15        9PX         0.01524  -0.00756   0.00000   0.00000   0.00000
  16        9PY         0.00000   0.00000   0.00393  -0.03207  -0.00004
  17        9PZ         0.00000   0.00000  -0.00518  -0.00044   0.02019
  18       10D 0        0.00000   0.00000  -0.00341  -0.00057   0.03095
  19       10D+1       -0.01117  -0.01643   0.00000   0.00000   0.00000
  20       10D-1        0.00000   0.00000  -0.00336   0.02805   0.00004
  21       10D+2        0.00000   0.00000  -0.00364  -0.00050   0.00117
  22       10D-2       -0.00001  -0.00001   0.00000   0.00000   0.00000
  23       11D 0        0.00000   0.00000   0.00320   0.00006   0.02471
  24       11D+1       -0.02917  -0.01846   0.00000   0.00000   0.00000
  25       11D-1        0.00000   0.00000  -0.00611   0.05170   0.00014
  26       11D+2        0.00000   0.00000  -0.00309  -0.00057   0.00053
  27       11D-2        0.00000  -0.00006   0.00000   0.00000   0.00000
  28       12D 0        0.00000   0.00000  -0.03363  -0.00457  -0.03017
  29       12D+1       -0.00931   0.01921   0.00000   0.00000   0.00000
  30       12D-1        0.00000   0.00000  -0.00048   0.00472   0.00040
  31       12D+2        0.00000   0.00000   0.00475   0.00043   0.00159
  32       12D-2        0.00001  -0.00002   0.00000   0.00000   0.00000
  33       13F 0        0.00000   0.00000  -0.00316  -0.00038  -0.00194
  34       13F+1        0.00585   0.00449   0.00000   0.00000   0.00000
  35       13F-1        0.00000   0.00000   0.00080  -0.00710   0.00000
  36       13F+2        0.00000   0.00000  -0.00173  -0.00024   0.00151
  37       13F-2        0.00001  -0.00002   0.00000   0.00000   0.00000
  38       13F+3        0.00100  -0.00263   0.00000   0.00000   0.00000
  39       13F-3        0.00000   0.00000  -0.00023   0.00178  -0.00001
  40       14F 0        0.00000   0.00000   0.00037   0.00013  -0.00846
  41       14F+1        0.00368  -0.00392   0.00000   0.00000   0.00000
  42       14F-1        0.00000   0.00000   0.00063  -0.00465  -0.00015
  43       14F+2        0.00000   0.00000  -0.00237  -0.00014  -0.00287
  44       14F-2        0.00000   0.00002   0.00000   0.00000   0.00000
  45       14F+3        0.00057  -0.00163   0.00000   0.00000   0.00000
  46       14F-3        0.00000   0.00000  -0.00026   0.00195   0.00009
  47 2   C  1S          0.00000   0.00000   0.17669   0.02259  -0.06111
  48        2S          0.00000   0.00000  -0.61078  -0.07917   0.26307
  49        3S          0.00000   0.00000  -0.18581  -0.02426   0.12201
  50        4S          0.00000   0.00000  -0.45977  -0.05735   0.19546
  51        5S          0.00000   0.00000  -0.03926  -0.00487   0.04114
  52        6PX         0.18282   0.32825   0.00000   0.00000   0.00000
  53        6PY         0.00000   0.00000   0.04304  -0.34168  -0.00026
  54        6PZ         0.00000   0.00000   0.11714   0.01385   0.34817
  55        7PX         0.23319   0.46541   0.00000   0.00000   0.00000
  56        7PY         0.00000   0.00000   0.07385  -0.59805  -0.00138
  57        7PZ         0.00000   0.00000   0.19891   0.02543   0.67884
  58        8PX         0.08738   0.14014   0.00000   0.00000   0.00000
  59        8PY         0.00000   0.00000   0.01606  -0.13046   0.00125
  60        8PZ         0.00000   0.00000  -0.03300  -0.00468   0.14022
  61        9PX         0.00847   0.00768   0.00000   0.00000   0.00000
  62        9PY         0.00000   0.00000   0.00045  -0.00390   0.00001
  63        9PZ         0.00000   0.00000   0.00285   0.00028   0.00750
  64       10D 0        0.00000   0.00000   0.00445   0.00048  -0.03235
  65       10D+1        0.02597   0.00949   0.00000   0.00000   0.00000
  66       10D-1        0.00000   0.00000   0.00253  -0.02152   0.00011
  67       10D+2        0.00000   0.00000  -0.00060  -0.00005  -0.00299
  68       10D-2       -0.00006  -0.00003   0.00000   0.00000   0.00000
  69       11D 0        0.00000   0.00000  -0.02207  -0.00251   0.02957
  70       11D+1        0.04523   0.06077   0.00000   0.00000   0.00000
  71       11D-1        0.00000   0.00000  -0.00972   0.07269   0.00109
  72       11D+2        0.00000   0.00000   0.06331   0.00834   0.03066
  73       11D-2       -0.00017  -0.00006   0.00000   0.00000   0.00000
  74       12D 0        0.00000   0.00000  -0.04016  -0.00530   0.04498
  75       12D+1        0.00523   0.02209   0.00000   0.00000   0.00000
  76       12D-1        0.00000   0.00000   0.00175  -0.01278  -0.00063
  77       12D+2        0.00000   0.00000   0.00549   0.00062   0.01113
  78       12D-2       -0.00003  -0.00002   0.00000   0.00000   0.00000
  79       13F 0        0.00000   0.00000  -0.00480  -0.00058   0.01187
  80       13F+1        0.00769   0.01608   0.00000   0.00000   0.00000
  81       13F-1        0.00000   0.00000   0.00358  -0.02634  -0.00011
  82       13F+2        0.00000   0.00000  -0.02817  -0.00362  -0.01314
  83       13F-2        0.00003  -0.00006   0.00000   0.00000   0.00000
  84       13F+3        0.00063  -0.00465   0.00000   0.00000   0.00000
  85       13F-3        0.00000   0.00000  -0.00138   0.01203  -0.00002
  86       14F 0        0.00000   0.00000  -0.04397  -0.00636   0.00322
  87       14F+1        0.00769   0.02699   0.00000   0.00000   0.00000
  88       14F-1        0.00000   0.00000   0.01962  -0.14859  -0.00128
  89       14F+2        0.00000   0.00000  -0.03808  -0.00517  -0.00708
  90       14F-2        0.00003  -0.00007   0.00000   0.00000   0.00000
  91       14F+3        0.00406   0.00748   0.00000   0.00000   0.00000
  92       14F-3        0.00000   0.00000   0.00446  -0.03297  -0.00061
  93 3   F  1S          0.00000   0.00000  -0.05784   0.03856  -0.01857
  94        2S          0.00000   0.00000   0.17886  -0.11108   0.04438
  95        3S          0.00000   0.00000   0.08199  -0.05652   0.02854
  96        4S          0.00000   0.00000   0.25172  -0.22116   0.11023
  97        5S          0.00000   0.00000   0.06213  -0.06806   0.05819
  98        6PX        -0.05775  -0.18557   0.00000   0.00000   0.00000
  99        6PY         0.00000   0.00000   0.29303  -0.06735   0.21500
 100        6PZ         0.00000   0.00000   0.17300  -0.20379  -0.17619
 101        7PX        -0.06981  -0.15241   0.00000   0.00000   0.00000
 102        7PY         0.00000   0.00000   0.28514  -0.10209   0.13783
 103        7PZ         0.00000   0.00000   0.18172  -0.17004  -0.06683
 104        8PX        -0.06365   0.02691   0.00000   0.00000   0.00000
 105        8PY         0.00000   0.00000   0.02161  -0.19649  -0.07972
 106        8PZ         0.00000   0.00000   0.02615   0.09951   0.22027
 107        9PX        -0.01936  -0.00306   0.00000   0.00000   0.00000
 108        9PY         0.00000   0.00000   0.00509  -0.01045  -0.01286
 109        9PZ         0.00000   0.00000  -0.00638  -0.01157   0.03733
 110       10D 0        0.00000   0.00000   0.00166   0.00585   0.01260
 111       10D+1        0.00084   0.00410   0.00000   0.00000   0.00000
 112       10D-1        0.00000   0.00000  -0.01207   0.00992   0.00072
 113       10D+2        0.00000   0.00000   0.00928  -0.00309   0.01273
 114       10D-2        0.00077   0.00560   0.00000   0.00000   0.00000
 115       11D 0        0.00000   0.00000   0.00503   0.02849   0.03897
 116       11D+1        0.00261   0.01553   0.00000   0.00000   0.00000
 117       11D-1        0.00000   0.00000  -0.01473   0.01801   0.01260
 118       11D+2        0.00000   0.00000   0.01297   0.00388   0.03094
 119       11D-2        0.00198   0.01956   0.00000   0.00000   0.00000
 120       12D 0        0.00000   0.00000  -0.00171   0.06636   0.02357
 121       12D+1        0.00227   0.01040   0.00000   0.00000   0.00000
 122       12D-1        0.00000   0.00000  -0.00545   0.00057   0.03171
 123       12D+2        0.00000   0.00000   0.00688   0.04528   0.00090
 124       12D-2       -0.00160   0.00434   0.00000   0.00000   0.00000
 125       13F 0        0.00000   0.00000  -0.00061   0.00073   0.00155
 126       13F+1        0.00018   0.00053   0.00000   0.00000   0.00000
 127       13F-1        0.00000   0.00000   0.00110   0.00087   0.00310
 128       13F+2        0.00000   0.00000  -0.00136  -0.00067  -0.00038
 129       13F-2        0.00040   0.00086   0.00000   0.00000   0.00000
 130       13F+3       -0.00045  -0.00212   0.00000   0.00000   0.00000
 131       13F-3        0.00000   0.00000   0.00031   0.00077   0.00247
 132       14F 0        0.00000   0.00000   0.00182   0.00507   0.00122
 133       14F+1        0.00072   0.00144   0.00000   0.00000   0.00000
 134       14F-1        0.00000   0.00000  -0.00077   0.01140   0.00501
 135       14F+2        0.00000   0.00000   0.00340   0.00064   0.00141
 136       14F-2        0.00052   0.00404   0.00000   0.00000   0.00000
 137       14F+3        0.00080   0.00082   0.00000   0.00000   0.00000
 138       14F-3        0.00000   0.00000  -0.00016   0.00071   0.00153
 139 4   F  1S          0.00000   0.00000  -0.04677  -0.05221  -0.01845
 140        2S          0.00000   0.00000   0.14692   0.15383   0.04440
 141        3S          0.00000   0.00000   0.06611   0.07623   0.02836
 142        4S          0.00000   0.00000   0.19107   0.27942   0.11323
 143        5S          0.00000   0.00000   0.04363   0.08164   0.05717
 144        6PX        -0.05864  -0.18657   0.00000   0.00000   0.00000
 145        6PY         0.00000   0.00000  -0.26710  -0.14065  -0.21311
 146        6PZ         0.00000   0.00000   0.11514   0.23971  -0.17813
 147        7PX        -0.07093  -0.15332   0.00000   0.00000   0.00000
 148        7PY         0.00000   0.00000  -0.25153  -0.17165  -0.13729
 149        7PZ         0.00000   0.00000   0.13162   0.20859  -0.06787
 150        8PX        -0.06456   0.02577   0.00000   0.00000   0.00000
 151        8PY         0.00000   0.00000   0.02645  -0.19458   0.07298
 152        8PZ         0.00000   0.00000   0.05034  -0.09064   0.21827
 153        9PX        -0.01955  -0.00347   0.00000   0.00000   0.00000
 154        9PY         0.00000   0.00000  -0.00268  -0.01119   0.01248
 155        9PZ         0.00000   0.00000  -0.00928   0.00982   0.03694
 156       10D 0        0.00000   0.00000   0.00312  -0.00517   0.01277
 157       10D+1        0.00085   0.00412   0.00000   0.00000   0.00000
 158       10D-1        0.00000   0.00000   0.00921   0.01284  -0.00112
 159       10D+2        0.00000   0.00000   0.00832   0.00551   0.01279
 160       10D-2       -0.00078  -0.00571   0.00000   0.00000   0.00000
 161       11D 0        0.00000   0.00000   0.01207  -0.02619   0.03878
 162       11D+1        0.00264   0.01549   0.00000   0.00000   0.00000
 163       11D-1        0.00000   0.00000   0.00941   0.02176  -0.01358
 164       11D+2        0.00000   0.00000   0.01354  -0.00019   0.03092
 165       11D-2       -0.00202  -0.01978   0.00000   0.00000   0.00000
 166       12D 0        0.00000   0.00000   0.01512  -0.06421   0.02144
 167       12D+1        0.00229   0.01021   0.00000   0.00000   0.00000
 168       12D-1        0.00000   0.00000   0.00473   0.00279  -0.03213
 169       12D+2        0.00000   0.00000   0.01806  -0.04199  -0.00062
 170       12D-2        0.00157  -0.00416   0.00000   0.00000   0.00000
 171       13F 0        0.00000   0.00000  -0.00043  -0.00092   0.00157
 172       13F+1        0.00018   0.00056   0.00000   0.00000   0.00000
 173       13F-1        0.00000   0.00000  -0.00126   0.00068  -0.00325
 174       13F+2        0.00000   0.00000  -0.00151   0.00033  -0.00044
 175       13F-2       -0.00040  -0.00090   0.00000   0.00000   0.00000
 176       13F+3       -0.00046  -0.00217   0.00000   0.00000   0.00000
 177       13F-3        0.00000   0.00000  -0.00050   0.00068  -0.00251
 178       14F 0        0.00000   0.00000   0.00303  -0.00398   0.00087
 179       14F+1        0.00072   0.00133   0.00000   0.00000   0.00000
 180       14F-1        0.00000   0.00000  -0.00225   0.01122  -0.00473
 181       14F+2        0.00000   0.00000   0.00347   0.00049   0.00133
 182       14F-2       -0.00056  -0.00401   0.00000   0.00000   0.00000
 183       14F+3        0.00079   0.00083   0.00000   0.00000   0.00000
 184       14F-3        0.00000   0.00000  -0.00004   0.00064  -0.00148
                          21        22        23        24        25
     Eigenvalues --     0.01540   0.01404   0.01388   0.01351   0.01082
   1 1   O  1S         -0.03587   0.00000   0.00000  -0.00075  -0.23921
   2        2S          0.07323   0.00000   0.00000   0.00232   0.77918
   3        3S          0.11561   0.00000   0.00000   0.00218   0.65706
   4        4S         -0.80292   0.00000   0.00000  -0.00476  -1.19041
   5        5S         -0.45991   0.00000   0.00000  -0.00045  -0.28966
   6        6PX         0.00000   0.05914   0.25438   0.00000   0.00000
   7        6PY        -0.00023   0.00000   0.00000   0.30727  -0.00840
   8        6PZ         0.30191   0.00000   0.00000   0.00194   0.20575
   9        7PX         0.00000   0.04511   0.19375   0.00000   0.00000
  10        7PY        -0.00017   0.00000   0.00000   0.16552  -0.00487
  11        7PZ         0.29741   0.00000   0.00000   0.00156  -0.03098
  12        8PX         0.00000  -0.03214  -0.13861   0.00000   0.00000
  13        8PY         0.00045   0.00000   0.00000  -0.18758   0.00141
  14        8PZ         0.03658   0.00000   0.00000  -0.00100  -0.10092
  15        9PX         0.00000  -0.00727  -0.03136   0.00000   0.00000
  16        9PY        -0.00027   0.00000   0.00000   0.00078   0.00242
  17        9PZ         0.05957   0.00000   0.00000  -0.00011  -0.00034
  18       10D 0        0.05488   0.00000   0.00000   0.00044  -0.01858
  19       10D+1        0.00000   0.00922   0.03941   0.00000   0.00000
  20       10D-1        0.00043   0.00000   0.00000  -0.00781  -0.00019
  21       10D+2        0.01340   0.00000   0.00000   0.00019  -0.02087
  22       10D-2        0.00000  -0.02312   0.00574   0.00000   0.00000
  23       11D 0        0.08943   0.00000   0.00000   0.00084  -0.06633
  24       11D+1        0.00000   0.01723   0.07255   0.00000   0.00000
  25       11D-1        0.00080   0.00000   0.00000  -0.04740   0.00209
  26       11D+2        0.04574   0.00000   0.00000   0.00074  -0.00703
  27       11D-2        0.00000  -0.07340   0.01803   0.00000   0.00000
  28       12D 0        0.02362   0.00000   0.00000   0.00060  -0.05083
  29       12D+1        0.00000  -0.00354  -0.01548   0.00000   0.00000
  30       12D-1       -0.00011   0.00000   0.00000  -0.05227   0.00311
  31       12D+2        0.01836   0.00000   0.00000   0.00035   0.01173
  32       12D-2        0.00000  -0.05366   0.01291   0.00000   0.00000
  33       13F 0       -0.01013   0.00000   0.00000  -0.00008   0.00131
  34       13F+1        0.00000  -0.00157  -0.00643   0.00000   0.00000
  35       13F-1       -0.00013   0.00000   0.00000   0.00577  -0.00026
  36       13F+2       -0.00441   0.00000   0.00000  -0.00004   0.00213
  37       13F-2        0.00000   0.00532  -0.00132   0.00000   0.00000
  38       13F+3        0.00000  -0.00013  -0.00077   0.00000   0.00000
  39       13F-3        0.00002   0.00000   0.00000  -0.00140   0.00005
  40       14F 0       -0.02580   0.00000   0.00000  -0.00024   0.02171
  41       14F+1        0.00000  -0.00244  -0.01037   0.00000   0.00000
  42       14F-1        0.00016   0.00000   0.00000   0.00443  -0.00027
  43       14F+2       -0.00031   0.00000   0.00000  -0.00010  -0.00171
  44       14F-2        0.00000   0.02752  -0.00652   0.00000   0.00000
  45       14F+3        0.00000   0.00140   0.00653   0.00000   0.00000
  46       14F-3       -0.00009   0.00000   0.00000   0.01277  -0.00024
  47 2   C  1S         -0.03827   0.00000   0.00000  -0.00087   0.00894
  48        2S          0.16690   0.00000   0.00000   0.00446   0.05554
  49        3S          0.11739   0.00000   0.00000   0.00222   0.05485
  50        4S         -0.13370   0.00000   0.00000   0.00441   0.20093
  51        5S          0.06298   0.00000   0.00000   0.00024   0.06066
  52        6PX         0.00000  -0.02857  -0.11865   0.00000   0.00000
  53        6PY        -0.00287   0.00000   0.00000   0.22405  -0.00020
  54        6PZ         0.33368   0.00000   0.00000   0.00087  -0.11802
  55        7PX         0.00000  -0.04141  -0.17359   0.00000   0.00000
  56        7PY        -0.00649   0.00000   0.00000   0.48712  -0.00281
  57        7PZ         0.50016   0.00000   0.00000   0.00027  -0.01039
  58        8PX         0.00000  -0.03680  -0.16122   0.00000   0.00000
  59        8PY        -0.00523   0.00000   0.00000   0.44598   0.01154
  60        8PZ         0.45799   0.00000   0.00000   0.00163  -0.03223
  61        9PX         0.00000  -0.00183  -0.00770   0.00000   0.00000
  62        9PY         0.00005   0.00000   0.00000  -0.00711  -0.00069
  63        9PZ         0.01969   0.00000   0.00000   0.00001   0.00460
  64       10D 0        0.06002   0.00000   0.00000   0.00023  -0.02943
  65       10D+1        0.00000  -0.02477  -0.10635   0.00000   0.00000
  66       10D-1       -0.00008   0.00000   0.00000  -0.08555   0.00114
  67       10D+2        0.04700   0.00000   0.00000   0.00008  -0.02710
  68       10D-2        0.00000  -0.08932   0.02167   0.00000   0.00000
  69       11D 0        0.18802   0.00000   0.00000  -0.00062  -0.12539
  70       11D+1        0.00000  -0.04707  -0.20571   0.00000   0.00000
  71       11D-1        0.00120   0.00000   0.00000  -0.47562   0.00927
  72       11D+2        0.18386   0.00000   0.00000  -0.00019  -0.04193
  73       11D-2        0.00000  -0.13730   0.03430   0.00000   0.00000
  74       12D 0        0.05218   0.00000   0.00000  -0.00074   0.03017
  75       12D+1        0.00000  -0.00157  -0.00762   0.00000   0.00000
  76       12D-1        0.00163   0.00000   0.00000  -0.19110  -0.00035
  77       12D+2        0.04525   0.00000   0.00000  -0.00036   0.00575
  78       12D-2        0.00000   0.02560  -0.00612   0.00000   0.00000
  79       13F 0       -0.01335   0.00000   0.00000   0.00019  -0.00534
  80       13F+1        0.00000  -0.00151  -0.00717   0.00000   0.00000
  81       13F-1       -0.00028   0.00000   0.00000   0.04278   0.00136
  82       13F+2       -0.01530   0.00000   0.00000   0.00020  -0.00685
  83       13F-2        0.00000   0.02914  -0.00689   0.00000   0.00000
  84       13F+3        0.00000  -0.00583  -0.02628   0.00000   0.00000
  85       13F-3        0.00015   0.00000   0.00000  -0.01167   0.00068
  86       14F 0       -0.06780   0.00000   0.00000  -0.00104  -0.05233
  87       14F+1        0.00000  -0.01088  -0.04793   0.00000   0.00000
  88       14F-1        0.00209   0.00000   0.00000  -0.12352   0.00616
  89       14F+2       -0.07417   0.00000   0.00000  -0.00081  -0.00458
  90       14F-2        0.00000   0.06236  -0.01537   0.00000   0.00000
  91       14F+3        0.00000  -0.00156  -0.00864   0.00000   0.00000
  92       14F-3        0.00078   0.00000   0.00000  -0.07196   0.00085
  93 3   F  1S          0.01364   0.00000   0.00000   0.04885  -0.02492
  94        2S         -0.02417   0.00000   0.00000  -0.12143   0.06155
  95        3S         -0.03710   0.00000   0.00000  -0.13541   0.06404
  96        4S          0.33936   0.00000   0.00000   0.69227  -0.13370
  97        5S          0.23453   0.00000   0.00000   0.53965  -0.00569
  98        6PX         0.00000  -0.53508  -0.28470   0.00000   0.00000
  99        6PY        -0.09578   0.00000   0.00000   0.33854   0.03871
 100        6PZ         0.32992   0.00000   0.00000  -0.00186  -0.13311
 101        7PX         0.00000  -0.16064  -0.08229   0.00000   0.00000
 102        7PY         0.01233   0.00000   0.00000   0.17872   0.00544
 103        7PZ         0.13912   0.00000   0.00000   0.06088  -0.02492
 104        8PX         0.00000   0.62017   0.37660   0.00000   0.00000
 105        8PY         0.20850   0.00000   0.00000  -0.24938  -0.06250
 106        8PZ        -0.28009   0.00000   0.00000   0.28682   0.15387
 107        9PX         0.00000   0.09673   0.05573   0.00000   0.00000
 108        9PY         0.05521   0.00000   0.00000   0.05577  -0.01291
 109        9PZ        -0.00211   0.00000   0.00000   0.05037   0.02566
 110       10D 0       -0.00129   0.00000   0.00000   0.00311   0.00020
 111       10D+1        0.00000   0.01355  -0.00775   0.00000   0.00000
 112       10D-1       -0.01402   0.00000   0.00000  -0.02558   0.01751
 113       10D+2        0.00476   0.00000   0.00000   0.01001  -0.00189
 114       10D-2        0.00000   0.01109   0.01162   0.00000   0.00000
 115       11D 0        0.00268   0.00000   0.00000   0.00574  -0.00322
 116       11D+1        0.00000   0.03885  -0.01772   0.00000   0.00000
 117       11D-1       -0.02462   0.00000   0.00000  -0.04672   0.05117
 118       11D+2        0.01001   0.00000   0.00000   0.00769  -0.01040
 119       11D-2        0.00000   0.03573   0.03493   0.00000   0.00000
 120       12D 0       -0.01391   0.00000   0.00000   0.05888  -0.00258
[...]
 111       10D+1        0.00000   0.00000   0.03099   0.00000   0.00000
 112       10D-1       -0.01303   0.02408   0.00000   0.00362  -0.00219
 113       10D+2        0.02568  -0.01906   0.00000  -0.00517   0.01097
 114       10D-2        0.00000   0.00000  -0.01050   0.00000   0.00000
 115       11D 0        0.05014  -0.04793   0.00000  -0.06876  -0.00882
 116       11D+1        0.00000   0.00000  -0.10998   0.00000   0.00000
 117       11D-1        0.07550  -0.08254   0.00000  -0.03462   0.01650
 118       11D+2       -0.09486   0.05819   0.00000   0.02298  -0.03460
 119       11D-2        0.00000   0.00000   0.02460   0.00000   0.00000
 120       12D 0        0.43642   0.11005   0.00000   0.21532   0.51037
 121       12D+1        0.00000   0.00000   0.26025   0.00000   0.00000
 122       12D-1        0.72862   0.50753   0.00000   0.00848   0.30163
 123       12D+2        0.11481  -0.11836   0.00000  -0.16719   0.11195
 124       12D-2        0.00000   0.00000  -0.00854   0.00000   0.00000
 125       13F 0        0.00460   0.02264   0.00000  -0.01391  -0.00243
 126       13F+1        0.00000   0.00000   0.00419   0.00000   0.00000
 127       13F-1       -0.04959   0.02210   0.00000   0.00179  -0.01129
 128       13F+2        0.02683  -0.03350   0.00000   0.00110   0.00519
 129       13F-2        0.00000   0.00000   0.01545   0.00000   0.00000
 130       13F+3        0.00000   0.00000   0.00764   0.00000   0.00000
 131       13F-3       -0.00904  -0.01993   0.00000   0.01681   0.00814
 132       14F 0       -0.02137  -0.05361   0.00000   0.04509   0.01897
 133       14F+1        0.00000   0.00000  -0.00240   0.00000   0.00000
 134       14F-1        0.16150  -0.04470   0.00000   0.00615   0.06683
 135       14F+2       -0.08364   0.05833   0.00000  -0.01343  -0.02387
 136       14F-2        0.00000   0.00000  -0.04167   0.00000   0.00000
 137       14F+3        0.00000   0.00000  -0.00765   0.00000   0.00000
 138       14F-3        0.01649   0.04540   0.00000  -0.04739  -0.01285
 139 4   F  1S          0.09083  -0.11124   0.00000   0.01724  -0.00740
 140        2S          0.40953  -0.47778   0.00000   0.06529  -0.00389
 141        3S         -0.07425   0.11843   0.00000  -0.02418   0.03760
 142        4S         -1.47336   3.35982   0.00000  -1.71479  -0.34559
 143        5S          1.63313   6.15740   0.00000   2.54716  -2.67963
 144        6PX         0.00000   0.00000  -0.00322   0.00000   0.00000
 145        6PY         0.00298  -0.00736   0.00000  -0.01130   0.01160
 146        6PZ         0.01824   0.00402   0.00000  -0.00329  -0.00667
 147        7PX         0.00000   0.00000   0.00665   0.00000   0.00000
 148        7PY        -0.00025   0.01854   0.00000   0.09544  -0.06171
 149        7PZ        -0.09717  -0.01240   0.00000  -0.03066   0.06062
 150        8PX         0.00000   0.00000   0.12712   0.00000   0.00000
 151        8PY         0.59262  -1.21891   0.00000   0.09757   0.26044
 152        8PZ        -1.63836   1.31106   0.00000  -0.50844  -1.39682
 153        9PX         0.00000   0.00000  -0.09218   0.00000   0.00000
 154        9PY        -1.76338  -1.32365   0.00000  -0.28651  -0.69067
 155        9PZ         1.69732   3.32584   0.00000   2.32056  -0.87620
 156       10D 0        0.00921   0.01322   0.00000   0.01985  -0.00443
 157       10D+1        0.00000   0.00000   0.03094   0.00000   0.00000
 158       10D-1       -0.01285  -0.02388   0.00000  -0.00375  -0.00254
 159       10D+2       -0.02550  -0.01855   0.00000  -0.00621  -0.01121
 160       10D-2        0.00000   0.00000   0.01024   0.00000   0.00000
 161       11D 0       -0.04805  -0.04693   0.00000  -0.06722   0.01308
 162       11D+1        0.00000   0.00000  -0.11018   0.00000   0.00000
 163       11D-1        0.07466   0.08289   0.00000   0.03477   0.01605
 164       11D+2        0.09397   0.05735   0.00000   0.02572   0.03480
 165       11D-2        0.00000   0.00000  -0.02345   0.00000   0.00000
 166       12D 0       -0.43329   0.10596   0.00000   0.17185  -0.52196
 167       12D+1        0.00000   0.00000   0.25934   0.00000   0.00000
 168       12D-1        0.73272  -0.50499   0.00000   0.00626   0.29633
 169       12D+2       -0.11635  -0.11215   0.00000  -0.18755  -0.09949
 170       12D-2        0.00000   0.00000   0.01060   0.00000   0.00000
 171       13F 0       -0.00464   0.02251   0.00000  -0.01372   0.00328
 172       13F+1        0.00000   0.00000   0.00425   0.00000   0.00000
 173       13F-1       -0.04906  -0.02170   0.00000  -0.00264  -0.01108
 174       13F+2       -0.02756  -0.03278   0.00000   0.00035  -0.00585
 175       13F-2        0.00000   0.00000  -0.01602   0.00000   0.00000
 176       13F+3        0.00000   0.00000   0.00701   0.00000   0.00000
 177       13F-3       -0.00933   0.01995   0.00000  -0.01604   0.01028
 178       14F 0        0.02240  -0.05319   0.00000   0.04288  -0.02105
 179       14F+1        0.00000   0.00000  -0.00200   0.00000   0.00000
 180       14F-1        0.15916   0.04432   0.00000  -0.00107   0.06724
 181       14F+2        0.08422   0.05762   0.00000  -0.01187   0.02707
 182       14F-2        0.00000   0.00000   0.04293   0.00000   0.00000
 183       14F+3        0.00000   0.00000  -0.00591   0.00000   0.00000
 184       14F-3        0.01779  -0.04587   0.00000   0.04702  -0.01901
                         181       182       183       184
     Eigenvalues --     0.00000   0.00000   0.00000   0.00000
   1 1   O  1S          0.00000  -0.00048   0.10998  -0.05359
   2        2S          0.00000  -0.00237   0.54688  -0.26688
   3        3S          0.00000   0.00040  -0.04519   0.02663
   4        4S          0.00000   0.04576  -3.05390   6.91745
   5        5S          0.00000   0.04331 -10.79268  16.12271
   6        6PX         0.01310   0.00000   0.00000   0.00000
   7        6PY         0.00000  -0.00223   0.00000  -0.00003
   8        6PZ         0.00000   0.00002   0.01226  -0.00422
   9        7PX        -0.03529   0.00000   0.00000   0.00000
  10        7PY         0.00000   0.00426  -0.00029  -0.00029
  11        7PZ         0.00000   0.00056  -0.06964  -0.12486
  12        8PX         0.63897   0.00000   0.00000   0.00000
  13        8PY         0.00000  -1.81429   0.00754  -0.02485
  14        8PZ         0.00000  -0.01969   2.76814  -3.06184
  15        9PX        -1.63062   0.00000   0.00000   0.00000
  16        9PY         0.00000  -4.22163  -0.01151  -0.00238
  17        9PZ         0.00000  -0.03778   2.89775  -3.45388
  18       10D 0        0.00000   0.00032   0.01857  -0.00453
  19       10D+1        0.00973   0.00000   0.00000   0.00000
  20       10D-1        0.00000   0.00080  -0.00014  -0.00019
  21       10D+2        0.00000  -0.00022   0.00003  -0.00671
  22       10D-2        0.00015   0.00000   0.00000   0.00000
  23       11D 0        0.00000  -0.00115  -0.14304   0.08993
  24       11D+1       -0.09844   0.00000   0.00000   0.00000
  25       11D-1        0.00000   0.08619   0.00062   0.00148
  26       11D+2        0.00000   0.00072  -0.00203   0.02830
  27       11D-2       -0.00051   0.00000   0.00000   0.00000
  28       12D 0        0.00000   0.00734  -0.78528   0.24323
  29       12D+1       -0.06292   0.00000   0.00000   0.00000
  30       12D-1        0.00000   1.07212  -0.00130   0.00869
  31       12D+2        0.00000   0.00023  -0.03534   0.11625
  32       12D-2        0.00078   0.00000   0.00000   0.00000
  33       13F 0        0.00000  -0.00021   0.00259  -0.02174
  34       13F+1        0.00286   0.00000   0.00000   0.00000
  35       13F-1        0.00000   0.01562   0.00009   0.00010
  36       13F+2        0.00000   0.00013  -0.00215   0.01998
  37       13F-2        0.00019   0.00000   0.00000   0.00000
  38       13F+3       -0.00191   0.00000   0.00000   0.00000
  39       13F-3        0.00000  -0.00156  -0.00017   0.00007
  40       14F 0        0.00000  -0.00052   0.10925   0.04252
  41       14F+1        0.05052   0.00000   0.00000   0.00000
  42       14F-1        0.00000  -0.18106  -0.00067  -0.00096
  43       14F+2        0.00000  -0.00022   0.01234  -0.06878
  44       14F-2       -0.00032   0.00000   0.00000   0.00000
  45       14F+3        0.02083   0.00000   0.00000   0.00000
  46       14F-3        0.00000   0.01913   0.00060  -0.00016
  47 2   C  1S          0.00000  -0.00232   0.05923  -0.07731
  48        2S          0.00000  -0.01337   0.36628  -0.41198
  49        3S          0.00000  -0.00295   0.20002   0.18771
  50        4S          0.00000  -0.13552  -4.57263 -18.12813
  51        5S          0.00000   0.04904  -0.47750  -9.90717
  52        6PX        -0.00597   0.00000   0.00000   0.00000
  53        6PY         0.00000   0.02266   0.00054   0.00001
  54        6PZ         0.00000   0.00058  -0.01878   0.00517
  55        7PX        -0.06132   0.00000   0.00000   0.00000
  56        7PY         0.00000  -1.23617  -0.03368  -0.00537
  57        7PZ         0.00000  -0.00639   1.63440  -0.15179
  58        8PX         0.78416   0.00000   0.00000   0.00000
  59        8PY         0.00000  -8.17458  -0.16121   0.00935
  60        8PZ         0.00000  -0.08593   7.36613  -5.03461
  61        9PX         3.17800   0.00000   0.00000   0.00000
  62        9PY         0.00000   2.34861  -0.00832  -0.00601
  63        9PZ         0.00000  -0.00355   1.93333   0.00131
  64       10D 0        0.00000   0.00022   0.01712   0.03503
  65       10D+1        0.00524   0.00000   0.00000   0.00000
  66       10D-1        0.00000  -0.01171   0.00062   0.00014
  67       10D+2        0.00000  -0.00082  -0.00496  -0.02125
  68       10D-2        0.00017   0.00000   0.00000   0.00000
  69       11D 0        0.00000   0.00740   0.40584  -0.96652
  70       11D+1       -0.31228   0.00000   0.00000   0.00000
  71       11D-1        0.00000   2.32467   0.01548   0.00644
  72       11D+2        0.00000   0.00765   0.88077   0.63773
  73       11D-2       -0.00250   0.00000   0.00000   0.00000
  74       12D 0        0.00000   0.01807   0.49709  -2.76211
  75       12D+1       -0.29124   0.00000   0.00000   0.00000
  76       12D-1        0.00000   4.55683   0.02139   0.01729
  77       12D+2        0.00000  -0.00285   0.95712   0.01774
  78       12D-2        0.00113   0.00000   0.00000   0.00000
  79       13F 0        0.00000   0.00079  -0.05063  -0.02977
  80       13F+1       -0.05026   0.00000   0.00000   0.00000
  81       13F-1        0.00000  -0.00779   0.00066   0.00013
  82       13F+2        0.00000   0.00056  -0.04510  -0.02275
  83       13F-2        0.00046   0.00000   0.00000   0.00000
  84       13F+3        0.04682   0.00000   0.00000   0.00000
  85       13F-3        0.00000   0.05989   0.00051  -0.00007
  86       14F 0        0.00000  -0.01155  -0.32012  -0.51232
  87       14F+1       -0.09357   0.00000   0.00000   0.00000
  88       14F-1        0.00000  -0.08264  -0.00261   0.01001
  89       14F+2        0.00000  -0.00339  -0.23109  -0.39044
  90       14F-2        0.00146   0.00000   0.00000   0.00000
  91       14F+3       -0.22878   0.00000   0.00000   0.00000
  92       14F-3        0.00000  -0.07348   0.00101   0.00138
  93 3   F  1S          0.00000   0.09587  -0.02343  -0.01698
  94        2S          0.00000   0.44668  -0.13089  -0.09857
  95        3S          0.00000  -0.05939  -0.01580  -0.01078
  96        4S          0.00000  -3.02794   1.82294   1.76988
  97        5S          0.00000 -16.52068   7.86778   2.63158
  98        6PX         0.01771   0.00000   0.00000   0.00000
  99        6PY         0.00000  -0.01097   0.00968   0.00489
 100        6PZ         0.00000  -0.00643   0.00697   0.00279
 101        7PX        -0.06786   0.00000   0.00000   0.00000
 102        7PY         0.00000   0.05321  -0.04367  -0.02098
 103        7PZ         0.00000   0.02430  -0.02703  -0.00940
 104        8PX         0.00030   0.00000   0.00000   0.00000
 105        8PY         0.00000  -2.52135   1.43923   1.26703
 106        8PZ         0.00000  -1.45277   1.28928   0.90438
 107        9PX        -1.35506   0.00000   0.00000   0.00000
 108        9PY         0.00000  -5.57254   1.41426   0.52543
 109        9PZ         0.00000  -1.97608   1.16724  -1.07499
 110       10D 0        0.00000   0.00188  -0.00453   0.00021
 111       10D+1       -0.00788   0.00000   0.00000   0.00000
 112       10D-1        0.00000  -0.00528  -0.00375  -0.00549
 113       10D+2        0.00000   0.01877  -0.00412   0.00062
 114       10D-2       -0.00839   0.00000   0.00000   0.00000
 115       11D 0        0.00000  -0.00952   0.02301  -0.00740
 116       11D+1        0.02622   0.00000   0.00000   0.00000
 117       11D-1        0.00000  -0.01429   0.04503   0.03212
 118       11D+2        0.00000  -0.04116  -0.00104  -0.01081
 119       11D-2        0.03097   0.00000   0.00000   0.00000
 120       12D 0        0.00000   0.25665   0.08302   0.00108
 121       12D+1       -0.17175   0.00000   0.00000   0.00000
 122       12D-1        0.00000  -0.68599   0.45131   0.24305
 123       12D+2        0.00000   0.64678  -0.18731  -0.18054
 124       12D-2       -0.13803   0.00000   0.00000   0.00000
 125       13F 0        0.00000  -0.01305   0.00311   0.00520
 126       13F+1        0.00532   0.00000   0.00000   0.00000
 127       13F-1        0.00000  -0.00190  -0.01232  -0.00218
 128       13F+2        0.00000   0.00595   0.00923   0.00156
 129       13F-2        0.01499   0.00000   0.00000   0.00000
 130       13F+3        0.00711   0.00000   0.00000   0.00000
 131       13F-3        0.00000   0.00935  -0.00938  -0.00852
 132       14F 0        0.00000   0.06967  -0.02219  -0.02454
 133       14F+1       -0.01904   0.00000   0.00000   0.00000
 134       14F-1        0.00000  -0.00074   0.06157   0.00445
 135       14F+2        0.00000   0.03526  -0.05572  -0.01885
 136       14F-2       -0.03085   0.00000   0.00000   0.00000
 137       14F+3       -0.01622   0.00000   0.00000   0.00000
 138       14F-3        0.00000   0.01384   0.01441   0.00514
 139 4   F  1S          0.00000  -0.09664  -0.02550  -0.01713
 140        2S          0.00000  -0.44920  -0.14069  -0.09928
 141        3S          0.00000   0.06125  -0.01479  -0.01071
 142        4S          0.00000   3.07959   1.92066   1.79473
 143        5S          0.00000  16.46869   8.31099   2.64210
 144        6PX         0.01749   0.00000   0.00000   0.00000
 145        6PY         0.00000  -0.01065  -0.01008  -0.00481
 146        6PZ         0.00000   0.00620   0.00728   0.00268
 147        7PX        -0.06725   0.00000   0.00000   0.00000
 148        7PY         0.00000   0.04947   0.04455   0.02010
 149        7PZ         0.00000  -0.02217  -0.02778  -0.00869
 150        8PX         0.00064   0.00000   0.00000   0.00000
 151        8PY         0.00000  -2.52249  -1.51625  -1.27393
 152        8PZ         0.00000   1.44391   1.32700   0.90397
 153        9PX        -1.35362   0.00000   0.00000   0.00000
 154        9PY         0.00000  -5.58023  -1.53057  -0.52224
 155        9PZ         0.00000   1.93617   1.22475  -1.09357
 156       10D 0        0.00000  -0.00146  -0.00435   0.00026
 157       10D+1       -0.00769   0.00000   0.00000   0.00000
 158       10D-1        0.00000  -0.00506   0.00397   0.00548
 159       10D+2        0.00000  -0.01894  -0.00418   0.00075
 160       10D-2        0.00830   0.00000   0.00000   0.00000
 161       11D 0        0.00000   0.00749   0.02198  -0.00778
 162       11D+1        0.02581   0.00000   0.00000   0.00000
 163       11D-1        0.00000  -0.01457  -0.04704  -0.03232
 164       11D+2        0.00000   0.04167  -0.00180  -0.01160
 165       11D-2       -0.03101   0.00000   0.00000   0.00000
 166       12D 0        0.00000  -0.25945   0.07636  -0.00044
 167       12D+1       -0.16837   0.00000   0.00000   0.00000
 168       12D-1        0.00000  -0.67925  -0.46584  -0.24145
 169       12D+2        0.00000  -0.64291  -0.20318  -0.17935
 170       12D-2        0.13583   0.00000   0.00000   0.00000
 171       13F 0        0.00000   0.01312   0.00353   0.00528
 172       13F+1        0.00495   0.00000   0.00000   0.00000
 173       13F-1        0.00000  -0.00231   0.01209   0.00197
 174       13F+2        0.00000  -0.00655   0.00944   0.00142
 175       13F-2       -0.01482   0.00000   0.00000   0.00000
 176       13F+3        0.00708   0.00000   0.00000   0.00000
 177       13F-3        0.00000   0.01001   0.00920   0.00856
 178       14F 0        0.00000  -0.06972  -0.02447  -0.02473
 179       14F+1       -0.01811   0.00000   0.00000   0.00000
 180       14F-1        0.00000   0.00130  -0.06081  -0.00370
 181       14F+2        0.00000  -0.03303  -0.05785  -0.01846
 182       14F-2        0.02991   0.00000   0.00000   0.00000
 183       14F+3       -0.01671   0.00000   0.00000   0.00000
 184       14F-3        0.00000   0.01179  -0.01302  -0.00511
          Condensed to atoms (all electrons):
              1          2          3          4
     1  O    7.950867   0.499776  -0.079480  -0.081225
     2  C    0.499776   4.520305   0.185274   0.186184
     3  F   -0.079480   0.185274   9.104071  -0.048081
     4  F   -0.081225   0.186184  -0.048081   9.099861
 Mulliken atomic charges:
              1
     1  O   -0.289938
     2  C    0.608460
     3  F   -0.161784
     4  F   -0.156738
 Sum of Mulliken atomic charges =   0.00000
 Mulliken charges with hydrogens summed into heavy atoms:
              1
     1  O   -0.289938
     2  C    0.608460
     3  F   -0.161784
     4  F   -0.156738
 Sum of Mulliken charges with hydrogens summed into heavy atoms =   0.00000
 Electronic spatial extent (au):  <R**2>=            238.5703
 Charge=              0.0000 electrons
 Dipole moment (field-independent basis, Debye):
    X=              0.0000    Y=              0.0172    Z=             -1.0639  Tot=              1.0640
 Quadrupole moment (field-independent basis, Debye-Ang):
   XX=            -18.8983   YY=            -21.2989   ZZ=            -21.8923
   XY=              0.0000   XZ=              0.0000   YZ=             -0.0212
 Traceless Quadrupole moment (field-independent basis, Debye-Ang):
   XX=              1.7982   YY=             -0.6024   ZZ=             -1.1958
   XY=              0.0000   XZ=              0.0000   YZ=             -0.0212
 Octapole moment (field-independent basis, Debye-Ang**2):
  XXX=              0.0000  YYY=              0.0487  ZZZ=             34.0451  XYY=              0.0000
  XXY=              0.0139  XXZ=             10.2815  XZZ=              0.0000  YZZ=              0.0432
  YYZ=             11.9328  XYZ=              0.0000
 Hexadecapole moment (field-independent basis, Debye-Ang**3):
 XXXX=            -13.4745 YYYY=            -79.8432 ZZZZ=           -131.5855 XXXY=              0.0000
 XXXZ=              0.0000 YYYX=              0.0000 YYYZ=             -0.1991 ZZZX=              0.0000
 ZZZY=             -0.2131 XXYY=            -15.6285 XXZZ=            -23.4335 YYZZ=            -36.0074
 XXYZ=             -0.0641 YYXZ=              0.0000 ZZXY=              0.0000
 N-N= 1.201073883528D+02 E-N=-9.822631824247D+02  KE= 3.123963704995D+02
 1\1\GINC-TRAPISTA\SP\RQCISD-FC\Aug-CC-pVTZ\C1F2O1\BRUNS\27-Nov-2021\0\
 \# qcisd/aug-cc-pvtz nosymm density=current output=wfn\\f2co-wavefunct
 ion\\0,1\O,0,0.,0.,0.679927\C,0,0.,0.,-0.492216\F,0,0.,-1.058878,-1.26
 4305\F,0,0.,1.058878,-1.254305\\Version=EM64L-G09RevB.01\HF=-311.74157
 37\MP2=-312.6370248\MP3=-312.6246836\MP4D=-312.6402204\MP4DQ=-312.6241
 984\MP4SDQ=-312.6357406\QCISD=-312.6352545\RMSD=3.216e-09\Dipole=0.,0.
 0067486,-0.4185689\Quadrupole=1.3369255,-0.4478691,-0.8890564,0.,0.,-0
 .0157501\PG=CS [SG(C1F2O1)]\\@

 Writing a WFN file to GAUSSIAN.wfn.


 COMMON SENSE IS NOT SO COMMON.   -- VOLTAIRE
 Job cpu time:  0 days  1 hours 54 minutes  5.4 seconds.
 File lengths (MBytes):  RWF=  17462 Int=      0 D2E=      0 Chk=      3 Scr=      1
 Normal termination of Gaussian 09 at Sat Nov 27 01:07:32 2021.
