 Entering Gaussian System, Link 0=/home/bruns/programas/chemistry/gaussian/g09/g09
 Input=GAUSSIAN.com
 Output=GAUSSIAN.log
 Initial command:
 /home/bruns/programas/chemistry/gaussian/g09/l1.exe /home/bruns/programas/chemistry/gaussian/work/Gau-15387.inp -scrdir=/home/bruns/programas/chemistry/gaussian/work/
 Entering Link 1 = /home/bruns/programas/chemistry/gaussian/g09/l1.exe PID=     15389.
  
 Copyright (c) 1988,1990,1992,1993,1995,1998,2003,2009,2010,
            Gaussian, Inc.  All Rights Reserved.
  
 This is part of the Gaussian(R) 09 program.  It is based on
 the Gaussian(R) 03 system (copyright 2003, Gaussian, Inc.),
 the Gaussian(R) 98 system (copyright 1998, Gaussian, Inc.),
 the Gaussian(R) 94 system (copyright 1995, Gaussian, Inc.),
 the Gaussian 92(TM) system (copyright 1992, Gaussian, Inc.),
 the Gaussian 90(TM) system (copyright 1990, Gaussian, Inc.),
 the Gaussian 88(TM) system (copyright 1988, Gaussian, Inc.),
 the Gaussian 86(TM) system (copyright 1986, Carnegie Mellon
 University), and the Gaussian 82(TM) system (copyright 1983,
 Carnegie Mellon University). Gaussian is a federally registered
 trademark of Gaussian, Inc.
  
 This software contains proprietary and confidential information,
 including trade secrets, belonging to Gaussian, Inc.
  
 This software is provided under written license and may be
 used, copied, transmitted, or stored only in accord with that
 written license.
  
 The following legend is applicable only to US Government
 contracts under FAR:
  
                    RESTRICTED RIGHTS LEGEND
  
 Use, reproduction and disclosure by the US Government is
 subject to restrictions as set forth in subparagraphs (a)
 and (c) of the Commercial Computer Software - Restricted
 Rights clause in FAR 52.227-19.
  
 Gaussian, Inc.
 340 Quinnipiac St., Bldg. 40, Wallingford CT 06492
  
  
 ---------------------------------------------------------------
 Warning -- This program may not be used in any manner that
 competes with the business of Gaussian, Inc. or will provide
 assistance to any competitor of Gaussian, Inc.  The licensee
 of this program is prohibited from giving any competitor of
 Gaussian, Inc. access to this program.  By using this program,
 the user acknowledges that Gaussian, Inc. is engaged in the
 business of creating and licensing software in the field of
 computational chemistry and represents and warrants to the
 licensee that it is not a competitor of Gaussian, Inc. and that
 it will not use this program in any manner prohibited above.
 ---------------------------------------------------------------
  

 Cite this work as:
 Gaussian 09, Revision B.01,
 M. J. Frisch, G. W. Trucks, H. B. Schlegel, G. E. Scuseria, 
 M. A. Robb, J. R. Cheeseman, G. Scalmani, V. Barone, B. Mennucci, 
 G. A. Petersson, H. Nakatsuji, M. Caricato, X. Li, H. P. Hratchian, 
 A. F. Izmaylov, J. Bloino, G. Zheng, J. L. Sonnenberg, M. Hada, 
 M. Ehara, K. Toyota, R. Fukuda, J. Hasegawa, M. Ishida, T. Nakajima, 
 Y. Honda, O. Kitao, H. Nakai, T. Vreven, J. A. Montgomery, Jr., 
 J. E. Peralta, F. Ogliaro, M. Bearpark, J. J. Heyd, E. Brothers, 
 K. N. Kudin, V. N. Staroverov, T. Keith, R. Kobayashi, J. Normand, 
 K. Raghavachari, A. Rendell, J. C. Burant, S. S. Iyengar, J. Tomasi, 
 M. Cossi, N. Rega, J. M. Millam, M. Klene, J. E. Knox, J. B. Cross, 
 V. Bakken, C. Adamo, J. Jaramillo, R. Gomperts, R. E. Stratmann, 
 O. Yazyev, A. J. Austin, R. Cammi, C. Pomelli, J. W. Ochterski, 
 R. L. Martin, K. Morokuma, V. G. Zakrzewski, G. A. Voth, 
 P. Salvador, J. J. Dannenberg, S. Dapprich, A. D. Daniels, 
 O. Farkas, J. B. Foresman, J. V. Ortiz, J. Cioslowski, 
 and D. J. Fox, Gaussian, Inc., Wallingford CT, 2010.
 
 ******************************************
 Gaussian 09:  EM64L-G09RevB.01 12-Aug-2010
                26-Nov-2021 
 ******************************************
 %nproc=8
 Will use up to    8 processors via shared memory.
 %mem=8GB
 -----------------------------------------------------
 # qcisd/aug-cc-pvtz nosymm density=current output=wfn
 -----------------------------------------------------
 1/30=1,38=1/1;
 2/12=2,15=1,17=6,18=5,40=1/2;
 3/5=16,6=1,7=10,11=9,16=1,25=1,30=1,71=1/1,2,3;
 4//1;
 5/5=2,38=5/2;
 8/6=4,9=120000,10=1/1,4;
 9/5=8,15=1/13;
 11/28=-7,31=1,32=3,42=3/11;
 10/5=6,13=10,31=1/2;
 6/7=2,8=2,9=2,10=2,22=-1,31=1/1;
 99/5=1,6=1100,9=1/99;
 -----------------
 f2co-wavefunction
 -----------------
 Symbolic Z-matrix:
 Charge =  0 Multiplicity = 1
 O                     0.01      0.        0.67993 
 C                     0.        0.       -0.49222 
 F                     0.       -1.05888  -1.26431 
 F                     0.        1.05888  -1.26431 
 
                          Input orientation:                          
 ---------------------------------------------------------------------
 Center     Atomic      Atomic             Coordinates (Angstroms)
 Number     Number       Type             X           Y           Z
 ---------------------------------------------------------------------
      1          8           0        0.010000    0.000000    0.679927
      2          6           0        0.000000    0.000000   -0.492216
      3          9           0        0.000000   -1.058878   -1.264305
      4          9           0        0.000000    1.058878   -1.264305
 ---------------------------------------------------------------------
                    Distance matrix (angstroms):
                    1          2          3          4
     1  O    0.000000
     2  C    1.172186   0.000000
     3  F    2.213902   1.310475   0.000000
     4  F    2.213902   1.310475   2.117756   0.000000
 Symmetry turned off by external request.
 Stoichiometry    CF2O
 Framework group  CS[SG(CO),X(F2)]
 Deg. of freedom     4
 Full point group                 CS      NOp   2
 Rotational constants (GHZ):     11.8625125     11.7725292      5.9086960
 Standard basis: Aug-CC-pVTZ (5D, 7F)
 Integral buffers will be    131072 words long.
 Raffenetti 1 integral format.
 Two-electron integral symmetry is turned off.
   184 basis functions,   288 primitive gaussians,   220 cartesian basis functions
    16 alpha electrons       16 beta electrons
       nuclear repulsion energy       119.9399180803 Hartrees.
 NAtoms=    4 NActive=    4 NUniq=    4 SFac= 1.00D+00 NAtFMM=   50 NAOKFM=F Big=F
 One-electron integrals computed using PRISM.
 NBasis=   184 RedAO= T  NBF=   184
 NBsUse=   184 1.00D-06 NBFU=   184
 Harris functional with IExCor=  205 diagonalized for initial guess.
 ExpMin= 3.57D-02 ExpMax= 1.95D+04 ExpMxC= 6.65D+02 IAcc=3 IRadAn=         0 AccDes= 0.00D+00
 HarFok:  IExCor=  205 AccDes= 0.00D+00 IRadAn=         0 IDoV= 1
 ScaDFX=  1.000000  1.000000  1.000000  1.000000
 FoFCou: FMM=F IPFlag=           0 FMFlag=      100000 FMFlg1=           0
         NFxFlg=           0 DoJE=T BraDBF=F KetDBF=T FulRan=T
         Omega=  0.000000  0.000000  1.000000  0.000000  0.000000 ICntrl=     500 IOpCl=  0
         NMat0=    1 NMatS0=    1 NMatT0=    0 NMatD0=    1 NMtDS0=    0 NMtDT0=    0
         I1Cent=           4 NGrid=           0.
 Symmetry not used in FoFCou.
 Requested convergence on RMS density matrix=1.00D-08 within 128 cycles.
 Requested convergence on MAX density matrix=1.00D-06.
 Requested convergence on             energy=1.00D-06.
 No special actions if energy rises.
 Keep R1 ints in memory in canonical form, NReq=301063473.
 SCF Done:  E(RHF) =  -311.741228179     A.U. after   11 cycles
             Convg  =    0.8478D-08             -V/T =  2.0014
 ExpMin= 3.57D-02 ExpMax= 1.95D+04 ExpMxC= 6.65D+02 IAcc=3 IRadAn=         5 AccDes= 0.00D+00
 HarFok:  IExCor=  205 AccDes= 0.00D+00 IRadAn=         5 IDoV=-2
 ScaDFX=  1.000000  1.000000  1.000000  1.000000
 DSYEVD returned Info=          93 IAlg= 4 N=    46 NDim=    46 NE2=    23339802 trying DSYEV.
 DSYEVD returned Info=          93 IAlg= 4 N=    46 NDim=    46 NE2=    23339802 trying DSYEV.
 Range of M.O.s used for correlation:     5   184
 NBasis=   184 NAE=    16 NBE=    16 NFC=     4 NFV=     0
 NROrb=    180 NOA=    12 NOB=    12 NVA=   168 NVB=   168

 **** Warning!!: The largest alpha MO coefficient is  0.15533998D+02

 Semi-Direct transformation.
 ModeAB=           2 MOrb=            12 LenV=    1072785587
 LASXX=     33405819 LTotXX=    33405819 LenRXX=    33405819
 LTotAB=    33954012 MaxLAS=    52509600 LenRXY=    52509600
 NonZer=    66811638 LenScr=   100987392 LnRSAI=           0
 LnScr1=           0 LExtra=           0 Total=    186902811
 MaxDsk=          -1 SrtSym=           F ITran=            4
 JobTyp=0 Pass  1:  I=   1 to  12.
 (rs|ai) integrals will be sorted in core.
 Spin components of T(2) and E(2):
     alpha-alpha T2 =       0.2657420307D-01 E2=     -0.1191095585D+00
     alpha-beta  T2 =       0.1371297460D+00 E2=     -0.6576908000D+00
     beta-beta   T2 =       0.2657420307D-01 E2=     -0.1191095585D+00
 ANorm=    0.1090998695D+01
 E2 =    -0.8959099170D+00 EUMP2 =    -0.31263713809644D+03
 R2 and R3 integrals will be kept in memory, NReq=   596397230.
 Iterations=  50 Convergence= 0.100D-07
 Iteration Nr.   1
 **********************
 DD1Dir will call FoFMem   1 times, MxPair=       156
 NAB=    78 NAA=     0 NBB=     0.
 MP4(R+Q)=  0.16057485D-01
 E3=        0.12501288D-01        EUMP3=      -0.31262463681D+03
 E4(DQ)=    0.45691891D-03        UMP4(DQ)=   -0.31262417989D+03
 E4(SDQ)=  -0.11147060D-01        UMP4(SDQ)=  -0.31263578387D+03
 DE(Corr)= -0.86735114     E(Corr)=     -312.60857932    
 NORM(A)=   0.10858776D+01
 Iteration Nr.   2
 **********************
 DD1Dir will call FoFMem   1 times, MxPair=       156
 NAB=    78 NAA=     0 NBB=     0.
 DE(Corr)= -0.89322021     E(CORR)=     -312.63444839     Delta=-2.59D-02
 NORM(A)=   0.10931778D+01
 Iteration Nr.   3
 **********************
 DD1Dir will call FoFMem   1 times, MxPair=       156
 NAB=    78 NAA=     0 NBB=     0.
 DE(Corr)= -0.89146185     E(CORR)=     -312.63269003     Delta= 1.76D-03
 NORM(A)=   0.10954096D+01
 Iteration Nr.   4
 **********************
 DD1Dir will call FoFMem   1 times, MxPair=       156
 NAB=    78 NAA=     0 NBB=     0.
 DE(Corr)= -0.89376480     E(CORR)=     -312.63499298     Delta=-2.30D-03
 NORM(A)=   0.10962161D+01
 Iteration Nr.   5
 **********************
 DD1Dir will call FoFMem   1 times, MxPair=       156
 NAB=    78 NAA=     0 NBB=     0.
 DE(Corr)= -0.89403065     E(CORR)=     -312.63525883     Delta=-2.66D-04
 NORM(A)=   0.10963986D+01
 Iteration Nr.   6
 **********************
 DD1Dir will call FoFMem   1 times, MxPair=       156
 NAB=    78 NAA=     0 NBB=     0.
 DE(Corr)= -0.89405715     E(CORR)=     -312.63528533     Delta=-2.65D-05
 NORM(A)=   0.10964119D+01
 Iteration Nr.   7
 **********************
 DD1Dir will call FoFMem   1 times, MxPair=       156
 NAB=    78 NAA=     0 NBB=     0.
 DE(Corr)= -0.89405877     E(CORR)=     -312.63528695     Delta=-1.62D-06
 NORM(A)=   0.10964117D+01
 Iteration Nr.   8
 **********************
 DD1Dir will call FoFMem   1 times, MxPair=       156
 NAB=    78 NAA=     0 NBB=     0.
 DE(Corr)= -0.89405776     E(CORR)=     -312.63528594     Delta= 1.01D-06
 NORM(A)=   0.10964121D+01
 Iteration Nr.   9
 **********************
 DD1Dir will call FoFMem   1 times, MxPair=       156
 NAB=    78 NAA=     0 NBB=     0.
 DE(Corr)= -0.89405816     E(CORR)=     -312.63528633     Delta=-3.99D-07
 NORM(A)=   0.10964121D+01
 Iteration Nr.  10
 **********************
 DD1Dir will call FoFMem   1 times, MxPair=       156
 NAB=    78 NAA=     0 NBB=     0.
 DE(Corr)= -0.89405805     E(CORR)=     -312.63528623     Delta= 1.00D-07
 NORM(A)=   0.10964123D+01
 Iteration Nr.  11
 **********************
 DD1Dir will call FoFMem   1 times, MxPair=       156
 NAB=    78 NAA=     0 NBB=     0.
 DE(Corr)= -0.89405853     E(CORR)=     -312.63528671     Delta=-4.71D-07
 NORM(A)=   0.10964126D+01
 Iteration Nr.  12
 **********************
 DD1Dir will call FoFMem   1 times, MxPair=       156
 NAB=    78 NAA=     0 NBB=     0.
 DE(Corr)= -0.89405856     E(CORR)=     -312.63528674     Delta=-3.37D-08
 NORM(A)=   0.10964128D+01
 Iteration Nr.  13
 **********************
 DD1Dir will call FoFMem   1 times, MxPair=       156
 NAB=    78 NAA=     0 NBB=     0.
 DE(Corr)= -0.89405866     E(CORR)=     -312.63528683     Delta=-9.59D-08
 NORM(A)=   0.10964129D+01
 Iteration Nr.  14
 **********************
 DD1Dir will call FoFMem   1 times, MxPair=       156
 NAB=    78 NAA=     0 NBB=     0.
 DE(Corr)= -0.89405867     E(CORR)=     -312.63528685     Delta=-1.61D-08
 NORM(A)=   0.10964129D+01
 Iteration Nr.  15
 **********************
 DD1Dir will call FoFMem   1 times, MxPair=       156
 NAB=    78 NAA=     0 NBB=     0.
 DE(Corr)= -0.89405868     E(CORR)=     -312.63528686     Delta=-9.11D-09
 NORM(A)=   0.10964129D+01
 Iteration Nr.  16
 **********************
 DD1Dir will call FoFMem   1 times, MxPair=       156
 NAB=    78 NAA=     0 NBB=     0.
 DE(Corr)= -0.89405868     E(CORR)=     -312.63528686     Delta=-3.46D-09
 NORM(A)=   0.10964129D+01
 Largest amplitude= 5.78D-02

 Z-AMPLITUDE ITERATIONS

 Iteration Nr.   1
 **********************
 DD1Dir will call FoFMem   1 times, MxPair=       156
 NAB=    78 NAA=     0 NBB=     0.
 DE(Z)  -0.87475484D+00          E(Z)=    -0.31261598302D+03
 NORM(A)=   0.10963737D+01
 Iteration Nr.   2
 **********************
 DD1Dir will call FoFMem   1 times, MxPair=       156
 NAB=    78 NAA=     0 NBB=     0.
 DE(Z)  -0.87475470D+00          E(Z)=    -0.31261598288D+03
 NORM(A)=   0.10971359D+01
 Iteration Nr.   3
 **********************
 DD1Dir will call FoFMem   1 times, MxPair=       156
 NAB=    78 NAA=     0 NBB=     0.
 DE(Z)  -0.87476316D+00          E(Z)=    -0.31261599134D+03
 NORM(A)=   0.10962424D+01
 Iteration Nr.   4
 **********************
 DD1Dir will call FoFMem   1 times, MxPair=       156
 NAB=    78 NAA=     0 NBB=     0.
 DE(Z)  -0.87475344D+00          E(Z)=    -0.31261598162D+03
 NORM(A)=   0.10969844D+01
 Iteration Nr.   5
 **********************
 DD1Dir will call FoFMem   1 times, MxPair=       156
 NAB=    78 NAA=     0 NBB=     0.
 DE(Z)  -0.87476253D+00          E(Z)=    -0.31261599071D+03
 NORM(A)=   0.10919706D+01
 Iteration Nr.   6
 **********************
 DD1Dir will call FoFMem   1 times, MxPair=       156
 NAB=    78 NAA=     0 NBB=     0.
 DE(Z)  -0.87469918D+00          E(Z)=    -0.31261592736D+03
 NORM(A)=   0.10919706D+01
 Iteration Nr.   7
 **********************
 DD1Dir will call FoFMem   1 times, MxPair=       156
 NAB=    78 NAA=     0 NBB=     0.
 DE(Z)  -0.87469765D+00          E(Z)=    -0.31261592583D+03
 NORM(A)=   0.10919705D+01
 Iteration Nr.   8
 **********************
 DD1Dir will call FoFMem   1 times, MxPair=       156
 NAB=    78 NAA=     0 NBB=     0.
 DE(Z)  -0.87469822D+00          E(Z)=    -0.31261592640D+03
 NORM(A)=   0.10919708D+01
 Iteration Nr.   9
 **********************
 DD1Dir will call FoFMem   1 times, MxPair=       156
 NAB=    78 NAA=     0 NBB=     0.
 DE(Z)  -0.87469796D+00          E(Z)=    -0.31261592614D+03
 NORM(A)=   0.10919709D+01
 Iteration Nr.  10
 **********************
 DD1Dir will call FoFMem   1 times, MxPair=       156
 NAB=    78 NAA=     0 NBB=     0.
 DE(Z)  -0.87469805D+00          E(Z)=    -0.31261592623D+03
 NORM(A)=   0.10919709D+01
 Iteration Nr.  11
 **********************
 DD1Dir will call FoFMem   1 times, MxPair=       156
 NAB=    78 NAA=     0 NBB=     0.
 DE(Z)  -0.87469804D+00          E(Z)=    -0.31261592622D+03
 NORM(A)=   0.10919709D+01
 Iteration Nr.  12
 **********************
 DD1Dir will call FoFMem   1 times, MxPair=       156
 NAB=    78 NAA=     0 NBB=     0.
 DE(Z)  -0.87469804D+00          E(Z)=    -0.31261592622D+03
 NORM(A)=   0.10919709D+01
 Iteration Nr.  13
 **********************
 DD1Dir will call FoFMem   1 times, MxPair=       156
 NAB=    78 NAA=     0 NBB=     0.
 DE(Z)  -0.87469804D+00          E(Z)=    -0.31261592622D+03
 NORM(A)=   0.10919709D+01
 Discarding MO integrals.
          Differentiating once with respect to electric field.
                with respect to dipole field.
          Electric field/nuclear overlap derivatives assumed to be zero.
          Keep R1 ints in memory in canonical form, NReq=297441306.
          There are     1 degrees of freedom in the 1st order CPHF.  IDoFFX=0.
 LinEq1:  Iter=  0 NonCon=     1 RMS=3.07D-03 Max=8.45D-02
 AX will form     1 AO Fock derivatives at one time.
 LinEq1:  Iter=  1 NonCon=     1 RMS=7.55D-04 Max=1.11D-02
 LinEq1:  Iter=  2 NonCon=     1 RMS=2.24D-04 Max=3.37D-03
 LinEq1:  Iter=  3 NonCon=     1 RMS=9.87D-05 Max=1.57D-03
 LinEq1:  Iter=  4 NonCon=     1 RMS=2.27D-05 Max=3.72D-04
 LinEq1:  Iter=  5 NonCon=     1 RMS=1.09D-05 Max=2.98D-04
 LinEq1:  Iter=  6 NonCon=     1 RMS=2.61D-06 Max=4.74D-05
 LinEq1:  Iter=  7 NonCon=     1 RMS=5.33D-07 Max=1.03D-05
 LinEq1:  Iter=  8 NonCon=     1 RMS=9.45D-08 Max=1.21D-06
 LinEq1:  Iter=  9 NonCon=     1 RMS=1.30D-08 Max=1.78D-07
 LinEq1:  Iter= 10 NonCon=     1 RMS=1.88D-09 Max=2.13D-08
 LinEq1:  Iter= 11 NonCon=     1 RMS=3.96D-10 Max=5.83D-09
 LinEq1:  Iter= 12 NonCon=     0 RMS=5.52D-11 Max=4.65D-10
 Linear equations converged to 1.000D-10 1.000D-09 after    12 iterations.
 End of Minotr Frequency-dependent properties file   721 does not exist.
 End of Minotr Frequency-dependent properties file   722 does not exist.

 **********************************************************************

            Population analysis using the QCI/CC density.

 **********************************************************************

     Natural Orbital Coefficients:
                           1         2         3         4         5
     Eigenvalues --     2.00001   2.00000   2.00000   2.00000   1.98618
   1 1   O  1S         -0.63128  -0.72175   0.00000   0.19951  -0.01943
   2        2S          0.01166   0.01268   0.00000  -0.00382   0.04672
   3        3S         -0.02675  -0.03101   0.00000   0.00866   0.01304
   4        4S          0.00202   0.00275   0.00000  -0.00174  -0.00014
   5        5S         -0.00050   0.00091   0.00000  -0.00176  -0.01906
   6        6PX         0.00004   0.00001   0.00000   0.00000  -0.00012
   7        6PY         0.00000   0.00000  -0.00018   0.00000   0.00000
   8        6PZ         0.00404   0.00178   0.00000   0.00011  -0.01421
   9        7PX         0.00002  -0.00002   0.00000   0.00002  -0.00011
  10        7PY         0.00000   0.00000  -0.00012   0.00000   0.00000
  11        7PZ         0.00267  -0.00196   0.00000   0.00167  -0.01386
  12        8PX         0.00002   0.00001   0.00000   0.00000   0.00008
  13        8PY         0.00000   0.00000   0.00044   0.00000   0.00000
  14        8PZ         0.00320  -0.00075   0.00000   0.00059   0.00961
  15        9PX         0.00000   0.00000   0.00000   0.00000   0.00001
  16        9PY         0.00000   0.00000   0.00034   0.00000   0.00000
  17        9PZ         0.00035   0.00004   0.00000   0.00046   0.00545
  18       10D 0       -0.00026  -0.00011   0.00000  -0.00002   0.00115
  19       10D+1        0.00000   0.00000   0.00000   0.00000   0.00001
  20       10D-1        0.00000   0.00000   0.00001   0.00000   0.00000
  21       10D+2        0.00005   0.00005   0.00000   0.00001   0.00002
  22       10D-2        0.00000   0.00000   0.00000   0.00000   0.00000
  23       11D 0       -0.00003   0.00091   0.00000  -0.00046  -0.00022
  24       11D+1        0.00000   0.00001   0.00000   0.00000   0.00001
  25       11D-1        0.00000   0.00000  -0.00005   0.00000   0.00000
  26       11D+2        0.00006   0.00001   0.00000  -0.00017  -0.00081
  27       11D-2        0.00000   0.00000   0.00000   0.00000   0.00000
  28       12D 0       -0.00044   0.00023   0.00000  -0.00009  -0.00566
  29       12D+1        0.00000   0.00000   0.00000   0.00001  -0.00006
  30       12D-1        0.00000   0.00000  -0.00013   0.00000   0.00000
  31       12D+2        0.00027  -0.00027   0.00000  -0.00017  -0.00213
  32       12D-2        0.00000   0.00000  -0.00001   0.00000   0.00000
  33       13F 0       -0.00017   0.00008   0.00000  -0.00010  -0.00049
  34       13F+1        0.00000   0.00000   0.00000   0.00000  -0.00001
  35       13F-1        0.00000   0.00000  -0.00002   0.00000   0.00000
  36       13F+2        0.00003   0.00002   0.00000   0.00002   0.00017
  37       13F-2        0.00000   0.00000   0.00000   0.00000   0.00000
  38       13F+3        0.00000   0.00000   0.00000   0.00000   0.00000
  39       13F-3        0.00000   0.00000   0.00002   0.00000   0.00000
  40       14F 0        0.00004  -0.00022   0.00000   0.00025   0.00165
  41       14F+1        0.00000  -0.00001   0.00000   0.00000   0.00001
  42       14F-1        0.00000   0.00000   0.00008   0.00000   0.00000
  43       14F+2        0.00000   0.00002   0.00000   0.00017   0.00090
  44       14F-2        0.00000   0.00000   0.00001   0.00000   0.00000
  45       14F+3        0.00000   0.00000   0.00000   0.00000   0.00002
  46       14F-3        0.00000   0.00000  -0.00007   0.00000   0.00000
  47 2   C  1S          0.71627  -0.50383   0.00000   0.44202  -0.05154
  48        2S         -0.00912   0.00500   0.00000  -0.00397   0.10858
  49        3S          0.02924  -0.02122   0.00000   0.01786   0.02356
  50        4S         -0.00027   0.00065   0.00000   0.00014   0.01479
  51        5S          0.00023  -0.00010   0.00000   0.00036   0.00331
  52        6PX        -0.00001   0.00001   0.00000  -0.00001   0.00014
  53        6PY         0.00000   0.00000  -0.00003   0.00000   0.00000
  54        6PZ        -0.00185   0.00115   0.00000  -0.00108  -0.01579
  55        7PX         0.00002  -0.00004   0.00000   0.00002   0.00022
  56        7PY         0.00000   0.00000  -0.00091   0.00000   0.00000
  57        7PZ         0.00112  -0.00471   0.00000   0.00147  -0.01160
  58        8PX         0.00001  -0.00001   0.00000   0.00002   0.00006
  59        8PY         0.00000   0.00000   0.00055   0.00000   0.00000
  60        8PZ         0.00080  -0.00026   0.00000   0.00202   0.01489
  61        9PX         0.00000   0.00000   0.00000   0.00000   0.00002
  62        9PY         0.00000   0.00000  -0.00029   0.00000   0.00000
  63        9PZ         0.00004  -0.00038   0.00000  -0.00006  -0.00015
  64       10D 0        0.00028  -0.00050   0.00000   0.00038   0.00513
  65       10D+1        0.00000  -0.00001   0.00000   0.00001   0.00006
  66       10D-1        0.00000   0.00000   0.00018   0.00000   0.00000
  67       10D+2       -0.00041   0.00020   0.00000  -0.00042  -0.00853
  68       10D-2        0.00000   0.00000   0.00000   0.00000   0.00000
  69       11D 0       -0.00040  -0.00103   0.00000   0.00058   0.00661
  70       11D+1        0.00000  -0.00002   0.00000   0.00001   0.00008
  71       11D-1        0.00000   0.00000   0.00099   0.00000   0.00000
  72       11D+2        0.00089  -0.00129   0.00000   0.00017  -0.00980
  73       11D-2        0.00000   0.00000   0.00000   0.00000   0.00000
  74       12D 0        0.00009   0.00060   0.00000   0.00031   0.00030
  75       12D+1        0.00000   0.00000   0.00000   0.00001   0.00002
  76       12D-1        0.00000   0.00000  -0.00056   0.00000   0.00000
  77       12D+2        0.00005   0.00022   0.00000   0.00033   0.00346
  78       12D-2        0.00000   0.00000   0.00000   0.00000   0.00000
  79       13F 0        0.00070  -0.00032   0.00000   0.00061   0.00432
  80       13F+1        0.00001  -0.00001   0.00000   0.00001   0.00004
  81       13F-1        0.00000   0.00000  -0.00023   0.00000   0.00000
  82       13F+2        0.00033   0.00010   0.00000   0.00060   0.00559
  83       13F-2        0.00000   0.00000   0.00000   0.00000   0.00000
  84       13F+3        0.00000   0.00000   0.00000   0.00000   0.00000
  85       13F-3        0.00000   0.00000   0.00021   0.00000   0.00000
  86       14F 0       -0.00116   0.00045   0.00000   0.00056   0.00353
  87       14F+1       -0.00001  -0.00001   0.00000   0.00001  -0.00001
  88       14F-1        0.00000   0.00000  -0.00087   0.00000   0.00000
  89       14F+2       -0.00098   0.00085   0.00000   0.00026   0.00488
  90       14F-2        0.00000   0.00000   0.00001   0.00000   0.00000
  91       14F+3        0.00000   0.00000   0.00000   0.00000   0.00003
  92       14F-3        0.00000   0.00000  -0.00006   0.00000   0.00000
  93 3   F  1S         -0.15775   0.30430   0.69212   0.60124  -0.14609
  94        2S          0.00335  -0.00549  -0.01112  -0.00905   0.37267
  95        3S         -0.00641   0.01289   0.02983   0.02617   0.11364
  96        4S          0.00267  -0.00292  -0.00058   0.00090   0.23160
  97        5S          0.00023  -0.00024   0.00070   0.00068   0.01424
  98        6PX         0.00000   0.00000   0.00000   0.00000  -0.00001
  99        6PY        -0.00110   0.00130   0.00145   0.00093  -0.00564
 100        6PZ        -0.00089   0.00079   0.00111   0.00058  -0.01948
 101        7PX         0.00000   0.00000   0.00000   0.00000  -0.00002
 102        7PY        -0.00100   0.00063  -0.00014  -0.00043  -0.00286
 103        7PZ        -0.00091   0.00021   0.00012  -0.00050  -0.02145
 104        8PX        -0.00001   0.00000  -0.00001   0.00000   0.00000
 105        8PY        -0.00056   0.00030   0.00086   0.00112  -0.01193
 106        8PZ        -0.00031  -0.00008   0.00144   0.00059  -0.02300
 107        9PX         0.00000   0.00000   0.00000   0.00000   0.00000
 108        9PY        -0.00007  -0.00003   0.00039   0.00009  -0.00089
 109        9PZ        -0.00004   0.00039   0.00008   0.00025  -0.00085
 110       10D 0        0.00000  -0.00001   0.00000   0.00000  -0.00011
 111       10D+1        0.00000   0.00000   0.00000   0.00000   0.00000
 112       10D-1        0.00003  -0.00002   0.00001   0.00004   0.00066
 113       10D+2        0.00001  -0.00001  -0.00002  -0.00002  -0.00064
 114       10D-2        0.00000   0.00000   0.00000   0.00000   0.00000
 115       11D 0       -0.00006   0.00004   0.00007  -0.00006  -0.00091
 116       11D+1        0.00000   0.00000   0.00000   0.00000   0.00000
 117       11D-1       -0.00036   0.00003  -0.00024  -0.00046   0.00348
 118       11D+2        0.00010   0.00003   0.00019   0.00020  -0.00329
 119       11D-2        0.00000   0.00000   0.00000   0.00000   0.00000
 120       12D 0       -0.00010   0.00000   0.00024   0.00005  -0.00002
 121       12D+1        0.00000   0.00000   0.00000   0.00000   0.00000
 122       12D-1       -0.00002  -0.00001   0.00040   0.00019  -0.00275
 123       12D+2        0.00020  -0.00010  -0.00022  -0.00024   0.00129
 124       12D-2        0.00000   0.00000   0.00000   0.00000   0.00001
 125       13F 0        0.00000  -0.00002   0.00000  -0.00001  -0.00034
 126       13F+1        0.00000   0.00000   0.00000   0.00000   0.00000
 127       13F-1       -0.00001  -0.00003   0.00000  -0.00002   0.00009
 128       13F+2        0.00001   0.00003   0.00002   0.00003  -0.00046
 129       13F-2        0.00000   0.00000   0.00000   0.00000   0.00000
 130       13F+3        0.00000   0.00000   0.00000   0.00000   0.00000
 131       13F-3        0.00001   0.00000   0.00006   0.00001  -0.00040
 132       14F 0        0.00014  -0.00001   0.00003   0.00014  -0.00031
 133       14F+1        0.00000   0.00000   0.00000   0.00000   0.00000
 134       14F-1       -0.00019   0.00017   0.00003  -0.00012   0.00000
 135       14F+2        0.00026  -0.00022   0.00000   0.00014  -0.00099
 136       14F-2        0.00000   0.00000   0.00000   0.00000   0.00000
 137       14F+3        0.00000   0.00000   0.00000   0.00000   0.00000
 138       14F-3        0.00005  -0.00004  -0.00012   0.00003  -0.00052
 139 4   F  1S         -0.15775   0.30430  -0.69212   0.60124  -0.14609
 140        2S          0.00335  -0.00549   0.01112  -0.00905   0.37267
 141        3S         -0.00641   0.01289  -0.02983   0.02617   0.11364
 142        4S          0.00267  -0.00292   0.00058   0.00090   0.23160
 143        5S          0.00023  -0.00024  -0.00070   0.00068   0.01424
 144        6PX         0.00000   0.00000   0.00000   0.00000  -0.00001
 145        6PY         0.00110  -0.00130   0.00145  -0.00093   0.00564
 146        6PZ        -0.00089   0.00079  -0.00111   0.00058  -0.01948
 147        7PX         0.00000   0.00000   0.00000   0.00000  -0.00002
 148        7PY         0.00100  -0.00063  -0.00014   0.00043   0.00286
 149        7PZ        -0.00091   0.00021  -0.00012  -0.00050  -0.02145
 150        8PX        -0.00001   0.00000   0.00001   0.00000   0.00000
 151        8PY         0.00056  -0.00030   0.00086  -0.00112   0.01193
 152        8PZ        -0.00031  -0.00008  -0.00144   0.00059  -0.02300
 153        9PX         0.00000   0.00000   0.00000   0.00000   0.00000
 154        9PY         0.00007   0.00003   0.00039  -0.00009   0.00089
 155        9PZ        -0.00004   0.00039  -0.00008   0.00025  -0.00085
 156       10D 0        0.00000  -0.00001   0.00000   0.00000  -0.00011
 157       10D+1        0.00000   0.00000   0.00000   0.00000   0.00000
 158       10D-1       -0.00003   0.00002   0.00001  -0.00004  -0.00066
 159       10D+2        0.00001  -0.00001   0.00002  -0.00002  -0.00064
 160       10D-2        0.00000   0.00000   0.00000   0.00000   0.00000
 161       11D 0       -0.00006   0.00004  -0.00007  -0.00006  -0.00091
 162       11D+1        0.00000   0.00000   0.00000   0.00000   0.00000
 163       11D-1        0.00036  -0.00003  -0.00024   0.00046  -0.00348
 164       11D+2        0.00010   0.00003  -0.00019   0.00020  -0.00329
 165       11D-2        0.00000   0.00000   0.00000   0.00000   0.00000
 166       12D 0       -0.00010   0.00000  -0.00024   0.00005  -0.00002
 167       12D+1        0.00000   0.00000   0.00000   0.00000   0.00000
 168       12D-1        0.00002   0.00001   0.00040  -0.00019   0.00275
 169       12D+2        0.00020  -0.00010   0.00022  -0.00024   0.00129
 170       12D-2        0.00000   0.00000   0.00000   0.00000  -0.00001
 171       13F 0        0.00000  -0.00002   0.00000  -0.00001  -0.00034
 172       13F+1        0.00000   0.00000   0.00000   0.00000   0.00000
 173       13F-1        0.00001   0.00003   0.00000   0.00002  -0.00009
 174       13F+2        0.00001   0.00003  -0.00002   0.00003  -0.00046
 175       13F-2        0.00000   0.00000   0.00000   0.00000   0.00000
 176       13F+3        0.00000   0.00000   0.00000   0.00000   0.00000
 177       13F-3       -0.00001   0.00000   0.00006  -0.00001   0.00040
 178       14F 0        0.00014  -0.00001  -0.00003   0.00014  -0.00031
 179       14F+1        0.00000   0.00000   0.00000   0.00000   0.00000
 180       14F-1        0.00019  -0.00017   0.00003   0.00012   0.00000
 181       14F+2        0.00026  -0.00022   0.00000   0.00014  -0.00099
 182       14F-2        0.00000   0.00000   0.00000   0.00000   0.00000
 183       14F+3        0.00000   0.00000   0.00000   0.00000   0.00000
 184       14F-3       -0.00005   0.00004  -0.00012  -0.00003   0.00052
                           6         7         8         9        10
     Eigenvalues --     1.98560   1.98141   1.97345   1.97134   1.96827
   1 1   O  1S          0.00000  -0.19114  -0.03799   0.00000   0.00130
   2        2S          0.00000   0.49178   0.10512   0.00000  -0.00379
   3        3S          0.00000   0.13804   0.03119   0.00000  -0.00116
   4        4S          0.00000   0.30619   0.08950   0.00000  -0.00456
   5        5S          0.00000   0.03419  -0.00726   0.00000  -0.00056
   6        6PX         0.00000   0.00007   0.00017   0.00000  -0.00680
   7        6PY         0.02083   0.00000   0.00000  -0.05085   0.00000
   8        6PZ         0.00000   0.00045   0.02516   0.00000  -0.00322
   9        7PX         0.00000   0.00005   0.00011   0.00000  -0.00918
  10        7PY         0.02602   0.00000   0.00000  -0.06908   0.00000
  11        7PZ         0.00000  -0.00511   0.02564   0.00000  -0.00367
  12        8PX         0.00000   0.00044  -0.00016   0.00000  -0.01798
  13        8PY         0.01661   0.00000   0.00000  -0.06845   0.00000
  14        8PZ         0.00000   0.04807   0.00465   0.00000  -0.00132
  15        9PX         0.00000   0.00004  -0.00008   0.00000  -0.00940
  16        9PY        -0.00184   0.00000   0.00000   0.00647   0.00000
  17        9PZ         0.00000   0.00287   0.00465   0.00000   0.00002
  18       10D 0        0.00000   0.00473  -0.00109   0.00000   0.00018
  19       10D+1        0.00000   0.00006  -0.00002   0.00000  -0.00194
  20       10D-1       -0.00075   0.00000   0.00000   0.00318   0.00000
  21       10D+2        0.00000  -0.00003   0.00048   0.00000  -0.00002
  22       10D-2       -0.00001   0.00000   0.00000   0.00002   0.00000
  23       11D 0        0.00000   0.01178  -0.00040   0.00000   0.00025
  24       11D+1        0.00000   0.00016   0.00004   0.00000  -0.00232
  25       11D-1       -0.00193   0.00000   0.00000   0.01380   0.00000
  26       11D+2        0.00000   0.00007   0.00080   0.00000   0.00000
  27       11D-2        0.00000   0.00000   0.00000   0.00013   0.00000
  28       12D 0        0.00000  -0.01282   0.00754   0.00000  -0.00007
  29       12D+1        0.00000  -0.00018   0.00009   0.00000   0.00042
  30       12D-1       -0.00051   0.00000   0.00000   0.01398   0.00000
  31       12D+2        0.00000   0.00038   0.00073   0.00000   0.00009
  32       12D-2        0.00006   0.00000   0.00000   0.00008   0.00000
  33       13F 0        0.00000  -0.00277   0.00065   0.00000  -0.00007
  34       13F+1        0.00000  -0.00006   0.00001   0.00000   0.00128
  35       13F-1        0.00076   0.00000   0.00000  -0.00263   0.00000
  36       13F+2        0.00000   0.00023  -0.00018   0.00000   0.00001
  37       13F-2        0.00001   0.00000   0.00000  -0.00004   0.00000
  38       13F+3        0.00000   0.00000   0.00000   0.00000  -0.00022
  39       13F-3        0.00000   0.00000   0.00000  -0.00006   0.00000
  40       14F 0        0.00000  -0.00058  -0.00039   0.00000   0.00001
  41       14F+1        0.00000  -0.00001  -0.00003   0.00000  -0.00182
  42       14F-1        0.00008   0.00000   0.00000  -0.00239   0.00000
  43       14F+2        0.00000  -0.00054   0.00096   0.00000  -0.00009
  44       14F-2       -0.00002   0.00000   0.00000  -0.00005   0.00000
  45       14F+3        0.00000   0.00000   0.00000   0.00000   0.00119
  46       14F-3        0.00035   0.00000   0.00000  -0.00058   0.00000
  47 2   C  1S          0.00000  -0.06836  -0.01112   0.00000  -0.00308
  48        2S          0.00000   0.15838   0.02591   0.00000   0.00847
  49        3S          0.00000   0.03834   0.00691   0.00000   0.00220
  50        4S          0.00000   0.02754  -0.01764   0.00000   0.00254
  51        5S          0.00000  -0.00234  -0.00027   0.00000   0.00005
  52        6PX         0.00000   0.00075  -0.00013   0.00000   0.10457
  53        6PY         0.03752   0.00000   0.00000  -0.07740   0.00000
  54        6PZ         0.00000   0.08040  -0.05183   0.00000  -0.00118
  55        7PX         0.00000   0.00067  -0.00019   0.00000   0.13179
  56        7PY         0.03135   0.00000   0.00000  -0.09799   0.00000
  57        7PZ         0.00000   0.05669  -0.08154   0.00000  -0.00149
  58        8PX         0.00000  -0.00016   0.00022   0.00000   0.01769
  59        8PY        -0.01994   0.00000   0.00000   0.07397   0.00000
  60        8PZ         0.00000  -0.03068   0.02612   0.00000  -0.00047
  61        9PX         0.00000   0.00001   0.00003   0.00000   0.00216
  62        9PY         0.00173   0.00000   0.00000  -0.00467   0.00000
  63        9PZ         0.00000  -0.00016   0.00215   0.00000   0.00004
  64       10D 0        0.00000   0.01239   0.02007   0.00000   0.00020
  65       10D+1        0.00000   0.00022   0.00008   0.00000  -0.01457
  66       10D-1       -0.00893   0.00000   0.00000  -0.01008   0.00000
  67       10D+2        0.00000  -0.00253   0.01033   0.00000  -0.00021
  68       10D-2        0.00001   0.00000   0.00000  -0.00014   0.00000
  69       11D 0        0.00000   0.00219   0.03775   0.00000   0.00013
  70       11D+1        0.00000   0.00010   0.00020   0.00000  -0.02451
  71       11D-1       -0.01053   0.00000   0.00000   0.00691   0.00000
  72       11D+2        0.00000  -0.00758   0.02174   0.00000  -0.00052
  73       11D-2        0.00001   0.00000   0.00000  -0.00017   0.00000
  74       12D 0        0.00000  -0.01206  -0.00404   0.00000  -0.00014
  75       12D+1        0.00000  -0.00016   0.00016   0.00000   0.00030
  76       12D-1        0.01020   0.00000   0.00000  -0.01231   0.00000
  77       12D+2        0.00000  -0.00300   0.00098   0.00000  -0.00003
  78       12D-2        0.00000   0.00000   0.00000   0.00016   0.00000
  79       13F 0        0.00000   0.00622  -0.00585   0.00000   0.00012
  80       13F+1        0.00000   0.00009  -0.00001   0.00000   0.00451
  81       13F-1        0.00197   0.00000   0.00000   0.01099   0.00000
  82       13F+2        0.00000   0.00263   0.00018   0.00000   0.00015
  83       13F-2        0.00001   0.00000   0.00000   0.00006   0.00000
  84       13F+3        0.00000   0.00000   0.00003   0.00000  -0.00774
  85       13F-3       -0.00207   0.00000   0.00000   0.00533   0.00000
  86       14F 0        0.00000  -0.00235  -0.00721   0.00000  -0.00002
  87       14F+1        0.00000  -0.00008   0.00007   0.00000  -0.00080
  88       14F-1        0.00551   0.00000   0.00000   0.01638   0.00000
  89       14F+2        0.00000   0.00047  -0.00649   0.00000   0.00008
  90       14F-2       -0.00005   0.00000   0.00000   0.00028   0.00000
  91       14F+3        0.00000  -0.00001   0.00000   0.00000  -0.00144
  92       14F-3        0.00087   0.00000   0.00000  -0.00098   0.00000
  93 3   F  1S          0.14944   0.01932   0.01629   0.01685   0.00047
  94        2S         -0.38186  -0.04937  -0.04372  -0.04558  -0.00143
  95        3S         -0.11694  -0.01553  -0.01471  -0.01560  -0.00053
  96        4S         -0.25130  -0.05354  -0.03444  -0.05058  -0.00271
  97        5S         -0.03186  -0.02246   0.00922   0.04905  -0.00068
  98        6PX        -0.00008   0.00019  -0.00078   0.00179   0.25060
  99        6PY         0.03797  -0.00258   0.16658  -0.13047   0.00363
 100        6PZ         0.00918   0.04623  -0.19496   0.23359   0.00208
 101        7PX        -0.00009   0.00023  -0.00095   0.00217   0.30599
 102        7PY         0.04161  -0.00558   0.20188  -0.15863   0.00436
 103        7PZ         0.00762   0.05430  -0.23636   0.28223   0.00247
 104        8PX        -0.00003   0.00015  -0.00066   0.00138   0.20933
 105        8PY         0.03533  -0.01308   0.12616  -0.13416   0.00215
 106        8PZ         0.00458   0.02827  -0.16489   0.18663   0.00113
 107        9PX        -0.00001  -0.00002  -0.00003   0.00024   0.01570
 108        9PY        -0.00136  -0.00324   0.01324   0.00060   0.00000
 109        9PZ        -0.00040  -0.00364  -0.01416   0.02623  -0.00008
 110       10D 0       -0.00016   0.00060  -0.00264   0.00237  -0.00001
 111       10D+1        0.00000   0.00000   0.00000   0.00001   0.00188
 112       10D-1       -0.00042   0.00079  -0.00062   0.00163   0.00009
 113       10D+2        0.00009  -0.00003  -0.00222   0.00058  -0.00007
 114       10D-2        0.00000   0.00000  -0.00001   0.00002   0.00305
 115       11D 0       -0.00101   0.00171  -0.00991   0.00866  -0.00005
 116       11D+1        0.00000   0.00001  -0.00001   0.00004   0.00805
 117       11D-1       -0.00402   0.00016  -0.00243   0.00610   0.00027
 118       11D+2        0.00192   0.00124  -0.00749   0.00191  -0.00023
 119       11D-2        0.00000   0.00001  -0.00003   0.00006   0.01243
 120       12D 0       -0.00188   0.00014  -0.00477   0.00764  -0.00003
 121       12D+1        0.00000   0.00000   0.00000   0.00000   0.00395
 122       12D-1       -0.00016  -0.00215  -0.00392  -0.00215   0.00009
 123       12D+2       -0.00149   0.00179   0.00087   0.01008  -0.00005
 124       12D-2        0.00001   0.00001  -0.00003  -0.00002   0.00789
 125       13F 0        0.00011   0.00005  -0.00067   0.00043  -0.00002
 126       13F+1        0.00000   0.00000   0.00000   0.00000   0.00029
 127       13F-1       -0.00029   0.00047  -0.00173   0.00183   0.00001
 128       13F+2        0.00031  -0.00012  -0.00041  -0.00028  -0.00004
 129       13F-2        0.00000   0.00000  -0.00001   0.00001   0.00165
 130       13F+3        0.00000   0.00000   0.00000  -0.00001  -0.00157
 131       13F-3        0.00002   0.00009  -0.00107   0.00024  -0.00003
 132       14F 0        0.00039   0.00073  -0.00186   0.00031  -0.00004
 133       14F+1        0.00000   0.00000   0.00001   0.00001   0.00016
 134       14F-1       -0.00098   0.00007  -0.00271   0.00305   0.00001
 135       14F+2        0.00101   0.00058  -0.00043  -0.00081  -0.00008
 136       14F-2        0.00000   0.00000   0.00000   0.00001   0.00302
 137       14F+3        0.00000   0.00000   0.00001  -0.00001  -0.00199
 138       14F-3        0.00066   0.00031  -0.00071   0.00086  -0.00005
 139 4   F  1S         -0.14944   0.01932   0.01629  -0.01685   0.00047
 140        2S          0.38186  -0.04937  -0.04372   0.04558  -0.00143
 141        3S          0.11694  -0.01553  -0.01471   0.01560  -0.00053
 142        4S          0.25130  -0.05354  -0.03444   0.05058  -0.00271
 143        5S          0.03186  -0.02246   0.00922  -0.04905  -0.00068
 144        6PX         0.00008   0.00019  -0.00078  -0.00179   0.25060
 145        6PY         0.03797   0.00258  -0.16658  -0.13047  -0.00363
 146        6PZ        -0.00918   0.04623  -0.19496  -0.23359   0.00208
 147        7PX         0.00009   0.00023  -0.00095  -0.00217   0.30599
 148        7PY         0.04161   0.00558  -0.20188  -0.15863  -0.00436
 149        7PZ        -0.00762   0.05430  -0.23636  -0.28223   0.00247
 150        8PX         0.00003   0.00015  -0.00066  -0.00138   0.20933
 151        8PY         0.03533   0.01308  -0.12616  -0.13416  -0.00215
 152        8PZ        -0.00458   0.02827  -0.16489  -0.18663   0.00113
 153        9PX         0.00001  -0.00002  -0.00003  -0.00024   0.01570
 154        9PY        -0.00136   0.00324  -0.01324   0.00060   0.00000
 155        9PZ         0.00040  -0.00364  -0.01416  -0.02623  -0.00008
 156       10D 0        0.00016   0.00060  -0.00264  -0.00237  -0.00001
 157       10D+1        0.00000   0.00000   0.00000  -0.00001   0.00188
 158       10D-1       -0.00042  -0.00079   0.00062   0.00163  -0.00009
 159       10D+2       -0.00009  -0.00003  -0.00222  -0.00058  -0.00007
 160       10D-2        0.00000   0.00000   0.00001   0.00002  -0.00305
 161       11D 0        0.00101   0.00171  -0.00991  -0.00866  -0.00005
 162       11D+1        0.00000   0.00001  -0.00001  -0.00004   0.00805
 163       11D-1       -0.00402  -0.00016   0.00243   0.00610  -0.00027
 164       11D+2       -0.00192   0.00124  -0.00749  -0.00191  -0.00023
 165       11D-2        0.00000  -0.00001   0.00003   0.00006  -0.01243
 166       12D 0        0.00188   0.00014  -0.00477  -0.00764  -0.00003
 167       12D+1        0.00000   0.00000   0.00000   0.00000   0.00395
 168       12D-1       -0.00016   0.00215   0.00392  -0.00215  -0.00009
 169       12D+2        0.00149   0.00179   0.00087  -0.01008  -0.00005
 170       12D-2        0.00001  -0.00001   0.00003  -0.00002  -0.00789
 171       13F 0       -0.00011   0.00005  -0.00067  -0.00043  -0.00002
 172       13F+1        0.00000   0.00000   0.00000   0.00000   0.00029
 173       13F-1       -0.00029  -0.00047   0.00173   0.00183  -0.00001
 174       13F+2       -0.00031  -0.00012  -0.00041   0.00028  -0.00004
 175       13F-2        0.00000   0.00000   0.00001   0.00001  -0.00165
 176       13F+3        0.00000   0.00000   0.00000   0.00001  -0.00157
 177       13F-3        0.00002  -0.00009   0.00107   0.00024   0.00003
 178       14F 0       -0.00039   0.00073  -0.00186  -0.00031  -0.00004
 179       14F+1        0.00000   0.00000   0.00001  -0.00001   0.00016
 180       14F-1       -0.00098  -0.00007   0.00271   0.00305  -0.00001
 181       14F+2       -0.00101   0.00058  -0.00043   0.00081  -0.00008
 182       14F-2        0.00000   0.00000   0.00000   0.00001  -0.00302
 183       14F+3        0.00000   0.00000   0.00001   0.00001  -0.00199
 184       14F-3        0.00066  -0.00031   0.00071   0.00086   0.00005
                          11        12        13        14        15
     Eigenvalues --     1.96815   1.96675   1.96296   1.96122   1.95628
   1 1   O  1S          0.00000   0.05050   0.00000   0.00137   0.00000
   2        2S          0.00000  -0.15201   0.00000  -0.02583   0.00000
   3        3S          0.00000  -0.04663   0.00000  -0.01179   0.00000
   4        4S          0.00000  -0.21227   0.00000  -0.13296   0.00000
   5        5S          0.00000  -0.04561   0.00000  -0.04426   0.00000
   6        6PX         0.00000  -0.00040   0.00000  -0.00144   0.00000
   7        6PY        -0.00032   0.00000   0.23240   0.00000   0.25711
   8        6PZ         0.00000  -0.16445   0.00000  -0.26214   0.00000
   9        7PX         0.00000  -0.00035   0.00000  -0.00171   0.00000
  10        7PY        -0.00042   0.00000   0.28364   0.00000   0.31635
  11        7PZ         0.00000  -0.19042   0.00000  -0.31491   0.00000
  12        8PX         0.00000   0.00047   0.00000  -0.00066   0.00000
  13        8PY        -0.00036   0.00000   0.18754   0.00000   0.21668
  14        8PZ         0.00000  -0.08002   0.00000  -0.15303   0.00000
  15        9PX         0.00000   0.00031   0.00000   0.00001   0.00000
  16        9PY        -0.00030   0.00000   0.02589   0.00000   0.02927
  17        9PZ         0.00000   0.00325   0.00000  -0.00437   0.00000
  18       10D 0        0.00000   0.00729   0.00000   0.01206   0.00000
  19       10D+1        0.00000   0.00012   0.00000   0.00016   0.00000
  20       10D-1        0.00001   0.00000  -0.00761   0.00000  -0.00494
  21       10D+2        0.00000   0.00008   0.00000   0.00022   0.00000
  22       10D-2       -0.00022   0.00000  -0.00007   0.00000  -0.00005
  23       11D 0        0.00000   0.01229   0.00000   0.02939   0.00000
  24       11D+1        0.00000   0.00015   0.00000   0.00038   0.00000
  25       11D-1        0.00011   0.00000  -0.01863   0.00000  -0.01224
  26       11D+2        0.00000  -0.00009   0.00000   0.00114   0.00000
  27       11D-2       -0.00279   0.00000  -0.00014   0.00000  -0.00011
  28       12D 0        0.00000  -0.00062   0.00000   0.00484   0.00000
  29       12D+1        0.00000  -0.00006   0.00000   0.00001   0.00000
  30       12D-1        0.00007   0.00000  -0.00866   0.00000  -0.00164
  31       12D+2        0.00000  -0.00063   0.00000   0.00295   0.00000
  32       12D-2       -0.00742   0.00000   0.00001   0.00000  -0.00004
  33       13F 0        0.00000  -0.00250   0.00000  -0.00480   0.00000
  34       13F+1        0.00000  -0.00006   0.00000  -0.00009   0.00000
  35       13F-1       -0.00002   0.00000   0.00416   0.00000   0.00221
  36       13F+2        0.00000  -0.00027   0.00000  -0.00069   0.00000
  37       13F-2        0.00036   0.00000   0.00006   0.00000   0.00002
  38       13F+3        0.00000   0.00000   0.00000   0.00000   0.00000
  39       13F-3        0.00000   0.00000   0.00064   0.00000   0.00094
  40       14F 0        0.00000  -0.00088   0.00000  -0.00669   0.00000
  41       14F+1        0.00000   0.00003   0.00000  -0.00013   0.00000
  42       14F-1       -0.00006   0.00000   0.00385   0.00000   0.00252
  43       14F+2        0.00000  -0.00010   0.00000  -0.00081   0.00000
  44       14F-2        0.00306   0.00000   0.00001   0.00000   0.00005
  45       14F+3        0.00000  -0.00001   0.00000  -0.00002   0.00000
  46       14F-3        0.00005   0.00000   0.00081   0.00000  -0.00077
  47 2   C  1S          0.00000  -0.14313   0.00000  -0.02106   0.00000
  48        2S          0.00000   0.39337   0.00000   0.06100   0.00000
  49        3S          0.00000   0.10182   0.00000   0.01680   0.00000
  50        4S          0.00000   0.15887   0.00000  -0.01931   0.00000
  51        5S          0.00000   0.00627   0.00000   0.00757   0.00000
  52        6PX         0.00000  -0.00173   0.00000   0.00200   0.00000
  53        6PY        -0.00047   0.00000   0.18030   0.00000  -0.07127
  54        6PZ         0.00000  -0.01064   0.00000   0.22930   0.00000
  55        7PX         0.00000  -0.00227   0.00000   0.00215   0.00000
  56        7PY        -0.00038   0.00000   0.21659   0.00000  -0.07960
  57        7PZ         0.00000  -0.02623   0.00000   0.22755   0.00000
  58        8PX         0.00000  -0.00028   0.00000   0.00035   0.00000
  59        8PY        -0.00075   0.00000   0.05439   0.00000  -0.01369
  60        8PZ         0.00000  -0.00305   0.00000   0.02794   0.00000
  61        9PX         0.00000  -0.00005   0.00000   0.00003   0.00000
  62        9PY         0.00017   0.00000  -0.00231   0.00000  -0.00297
  63        9PZ         0.00000  -0.00002   0.00000   0.00068   0.00000
  64       10D 0        0.00000   0.00786   0.00000   0.01855   0.00000
  65       10D+1        0.00000   0.00053   0.00000   0.00026   0.00000
  66       10D-1        0.00014   0.00000   0.00085   0.00000   0.04363
  67       10D+2        0.00000  -0.00877   0.00000   0.01156   0.00000
  68       10D-2       -0.02028   0.00000   0.00001   0.00000   0.00021
  69       11D 0        0.00000   0.00303   0.00000   0.01701   0.00000
  70       11D+1        0.00000   0.00074   0.00000   0.00020   0.00000
  71       11D-1        0.00046   0.00000  -0.02247   0.00000   0.08691
  72       11D+2        0.00000  -0.02204   0.00000   0.02372   0.00000
  73       11D-2       -0.03307   0.00000  -0.00012   0.00000   0.00033
  74       12D 0        0.00000   0.00131   0.00000  -0.00046   0.00000
  75       12D+1        0.00000   0.00000   0.00000   0.00001   0.00000
  76       12D-1        0.00048   0.00000  -0.00899   0.00000   0.01294
  77       12D+2        0.00000   0.00355   0.00000   0.00243   0.00000
  78       12D-2        0.00375   0.00000  -0.00013   0.00000   0.00001
  79       13F 0        0.00000   0.00789   0.00000   0.00494   0.00000
  80       13F+1        0.00000   0.00001   0.00000   0.00016   0.00000
  81       13F-1       -0.00010   0.00000   0.01434   0.00000   0.00451
  82       13F+2        0.00000   0.00602   0.00000  -0.00093   0.00000
  83       13F-2        0.00991   0.00000   0.00016   0.00000   0.00006
  84       13F+3        0.00000   0.00019   0.00000  -0.00001   0.00000
  85       13F-3       -0.00002   0.00000   0.00035   0.00000   0.00307
  86       14F 0        0.00000   0.00378   0.00000  -0.01475   0.00000
  87       14F+1        0.00000  -0.00004   0.00000  -0.00008   0.00000
  88       14F-1       -0.00023   0.00000   0.02999   0.00000   0.01128
  89       14F+2        0.00000   0.00917   0.00000  -0.01250   0.00000
  90       14F-2        0.01516   0.00000   0.00011   0.00000   0.00022
  91       14F+3        0.00000   0.00004   0.00000  -0.00003   0.00000
  92       14F-3        0.00012   0.00000   0.00325   0.00000   0.00914
  93 3   F  1S         -0.00010   0.02050  -0.00462   0.00526  -0.02172
  94        2S          0.00022  -0.06330   0.02099  -0.00718   0.05286
  95        3S          0.00006  -0.02295   0.00955   0.00066   0.01367
  96        4S         -0.00032  -0.12409   0.09060   0.03999  -0.01290
  97        5S         -0.00096  -0.02424   0.03689   0.01367  -0.02562
  98        6PX         0.27561  -0.00594   0.00144   0.00016  -0.00044
  99        6PY         0.00206   0.12541  -0.17511  -0.07956   0.15518
 100        6PZ        -0.00120   0.10021  -0.00728  -0.12812   0.12102
 101        7PX         0.33553  -0.00725   0.00176   0.00019  -0.00054
 102        7PY         0.00248   0.14930  -0.20997  -0.09908   0.19113
 103        7PZ        -0.00147   0.11876  -0.00778  -0.15742   0.14857
 104        8PX         0.23070  -0.00500   0.00116   0.00003  -0.00046
 105        8PY         0.00164   0.06633  -0.10825  -0.04926   0.11622
 106        8PZ        -0.00108   0.05448   0.00967  -0.09987   0.08254
 107        9PX         0.02480  -0.00038   0.00008  -0.00005  -0.00002
 108        9PY        -0.00011  -0.00297  -0.00504   0.00242   0.00644
 109        9PZ        -0.00020   0.00092   0.01248  -0.00792   0.00814
 110       10D 0       -0.00001   0.00001  -0.00006   0.00034  -0.00005
 111       10D+1        0.00178  -0.00004   0.00001   0.00001  -0.00001
 112       10D-1        0.00001   0.00387  -0.00320  -0.00258   0.00342
 113       10D+2       -0.00002  -0.00256   0.00219   0.00212  -0.00205
 114       10D-2        0.00221  -0.00007   0.00001   0.00001  -0.00001
 115       11D 0       -0.00005  -0.00033  -0.00231   0.00150  -0.00147
 116       11D+1        0.00710  -0.00018   0.00002   0.00005  -0.00004
 117       11D-1        0.00004   0.01087  -0.01149  -0.01150   0.01175
 118       11D+2       -0.00007  -0.00778   0.00672   0.00836  -0.00786
 119       11D-2        0.00951  -0.00029   0.00004   0.00004  -0.00004
 120       12D 0       -0.00002  -0.00130  -0.00745  -0.00102  -0.00403
 121       12D+1        0.00450  -0.00012   0.00000  -0.00002  -0.00002
 122       12D-1        0.00003   0.00204  -0.00252  -0.00311   0.00241
 123       12D+2       -0.00008  -0.00100  -0.00092   0.00476  -0.00527
 124       12D-2        0.00452  -0.00017   0.00000   0.00004  -0.00007
 125       13F 0       -0.00001  -0.00099   0.00090   0.00089  -0.00095
 126       13F+1        0.00017  -0.00001   0.00000   0.00000  -0.00001
 127       13F-1       -0.00001   0.00074  -0.00052  -0.00063   0.00083
 128       13F+2       -0.00001  -0.00154   0.00160   0.00147  -0.00157
 129       13F-2        0.00150  -0.00004   0.00001   0.00001  -0.00001
 130       13F+3       -0.00091   0.00004  -0.00001  -0.00001   0.00000
 131       13F-3       -0.00001  -0.00083   0.00070   0.00090  -0.00066
 132       14F 0       -0.00001  -0.00087   0.00014   0.00212  -0.00204
 133       14F+1        0.00094   0.00000   0.00000   0.00002   0.00000
 134       14F-1        0.00000   0.00067  -0.00335  -0.00045   0.00042
 135       14F+2       -0.00002  -0.00251   0.00265   0.00304  -0.00257
 136       14F-2        0.00254  -0.00007   0.00000   0.00002  -0.00002
 137       14F+3       -0.00228   0.00005   0.00000   0.00000   0.00002
 138       14F-3       -0.00002  -0.00155   0.00144   0.00160  -0.00178
 139 4   F  1S          0.00010   0.02050   0.00462   0.00526   0.02172
 140        2S         -0.00022  -0.06330  -0.02099  -0.00718  -0.05286
 141        3S         -0.00006  -0.02295  -0.00955   0.00066  -0.01367
 142        4S          0.00032  -0.12409  -0.09060   0.03999   0.01290
 143        5S          0.00096  -0.02424  -0.03689   0.01367   0.02562
 144        6PX        -0.27561  -0.00594  -0.00144   0.00016   0.00044
 145        6PY         0.00206  -0.12541  -0.17511   0.07956   0.15518
 146        6PZ         0.00120   0.10021   0.00728  -0.12812  -0.12102
 147        7PX        -0.33553  -0.00725  -0.00176   0.00019   0.00054
 148        7PY         0.00248  -0.14930  -0.20997   0.09908   0.19113
 149        7PZ         0.00147   0.11876   0.00778  -0.15742  -0.14857
 150        8PX        -0.23070  -0.00500  -0.00116   0.00003   0.00046
 151        8PY         0.00164  -0.06633  -0.10825   0.04926   0.11622
 152        8PZ         0.00108   0.05448  -0.00967  -0.09987  -0.08254
 153        9PX        -0.02480  -0.00038  -0.00008  -0.00005   0.00002
 154        9PY        -0.00011   0.00297  -0.00504  -0.00242   0.00644
 155        9PZ         0.00020   0.00092  -0.01248  -0.00792  -0.00814
 156       10D 0        0.00001   0.00001   0.00006   0.00034   0.00005
 157       10D+1       -0.00178  -0.00004  -0.00001   0.00001   0.00001
 158       10D-1        0.00001  -0.00387  -0.00320   0.00258   0.00342
 159       10D+2        0.00002  -0.00256  -0.00219   0.00212   0.00205
 160       10D-2        0.00221   0.00007   0.00001  -0.00001  -0.00001
 161       11D 0        0.00005  -0.00033   0.00231   0.00150   0.00147
 162       11D+1       -0.00710  -0.00018  -0.00002   0.00005   0.00004
 163       11D-1        0.00004  -0.01087  -0.01149   0.01150   0.01175
 164       11D+2        0.00007  -0.00778  -0.00672   0.00836   0.00786
 165       11D-2        0.00951   0.00029   0.00004  -0.00004  -0.00004
 166       12D 0        0.00002  -0.00130   0.00745  -0.00102   0.00403
 167       12D+1       -0.00450  -0.00012   0.00000  -0.00002   0.00002
 168       12D-1        0.00003  -0.00204  -0.00252   0.00311   0.00241
 169       12D+2        0.00008  -0.00100   0.00092   0.00476   0.00527
 170       12D-2        0.00452   0.00017   0.00000  -0.00004  -0.00007
 171       13F 0        0.00001  -0.00099  -0.00090   0.00089   0.00095
 172       13F+1       -0.00017  -0.00001   0.00000   0.00000   0.00001
 173       13F-1       -0.00001  -0.00074  -0.00052   0.00063   0.00083
 174       13F+2        0.00001  -0.00154  -0.00160   0.00147   0.00157
 175       13F-2        0.00150   0.00004   0.00001  -0.00001  -0.00001
 176       13F+3        0.00091   0.00004   0.00001  -0.00001   0.00000
 177       13F-3       -0.00001   0.00083   0.00070  -0.00090  -0.00066
 178       14F 0        0.00001  -0.00087  -0.00014   0.00212   0.00204
 179       14F+1       -0.00094   0.00000   0.00000   0.00002   0.00000
 180       14F-1        0.00000  -0.00067  -0.00335   0.00045   0.00042
 181       14F+2        0.00002  -0.00251  -0.00265   0.00304   0.00257
 182       14F-2        0.00254   0.00007   0.00000  -0.00002  -0.00002
 183       14F+3        0.00228   0.00005   0.00000   0.00000  -0.00002
 184       14F-3       -0.00002   0.00155   0.00144  -0.00160  -0.00178
                          16        17        18        19        20
     Eigenvalues --     1.93992   0.05891   0.03796   0.03613   0.02446
   1 1   O  1S         -0.00019  -0.00020  -0.03413   0.00000   0.07142
   2        2S          0.00059   0.00083   0.14001   0.00000  -0.27657
   3        3S          0.00019   0.00020   0.05085   0.00000  -0.11577
   4        4S          0.00091   0.00128   0.17851   0.00000  -0.49849
   5        5S         -0.00004   0.00117   0.08352   0.00000  -0.20210
   6        6PX         0.30117  -0.35160   0.00072   0.00000   0.00293
   7        6PY         0.00000   0.00000   0.00000   0.34380   0.00000
   8        6PZ        -0.00181   0.00159  -0.19206   0.00000   0.34679
   9        7PX         0.37591  -0.39419   0.00035   0.00000   0.00409
  10        7PY         0.00000   0.00000   0.00000   0.31088   0.00000
  11        7PZ        -0.00230   0.00159  -0.21995   0.00000   0.43102
  12        8PX         0.23990  -0.06912   0.00010   0.00000   0.00189
  13        8PY         0.00000   0.00000   0.00000  -0.05290   0.00000
  14        8PZ        -0.00164   0.00100   0.03182   0.00000   0.16041
  15        9PX         0.01513  -0.00759   0.00002   0.00000   0.00039
  16        9PY         0.00000   0.00000   0.00000  -0.03217   0.00000
  17        9PZ        -0.00012  -0.00026  -0.00524   0.00000   0.02027
  18       10D 0        0.00013   0.00026  -0.00334   0.00000   0.03090
  19       10D+1       -0.01117  -0.01641   0.00019   0.00000   0.00055
  20       10D-1        0.00000   0.00000   0.00000   0.02806   0.00000
  21       10D+2       -0.00010  -0.00018  -0.00365   0.00000   0.00117
  22       10D-2        0.00000   0.00000   0.00000   0.00029   0.00000
  23       11D 0        0.00035   0.00040   0.00333   0.00000   0.02469
  24       11D+1       -0.02917  -0.01837   0.00044   0.00000   0.00032
  25       11D-1        0.00000   0.00000   0.00000   0.05167   0.00000
  26       11D+2       -0.00025  -0.00022  -0.00289   0.00000   0.00051
  27       11D-2        0.00000   0.00000   0.00000   0.00039   0.00000
  28       12D 0        0.00009  -0.00067  -0.03359   0.00000  -0.02955
  29       12D+1       -0.00931   0.01919  -0.00057   0.00000  -0.00046
  30       12D-1        0.00000   0.00000   0.00000   0.00482   0.00000
  31       12D+2       -0.00009   0.00026   0.00502   0.00000   0.00142
  32       12D-2        0.00000   0.00000   0.00000  -0.00040   0.00000
  33       13F 0       -0.00011  -0.00011  -0.00317   0.00000  -0.00194
  34       13F+1        0.00585   0.00447  -0.00011   0.00000  -0.00004
  35       13F-1        0.00000   0.00000   0.00000  -0.00705   0.00000
  36       13F+2        0.00008   0.00006  -0.00174   0.00000   0.00150
  37       13F-2        0.00000   0.00000   0.00000  -0.00012   0.00000
  38       13F+3        0.00100  -0.00261   0.00001   0.00000   0.00001
  39       13F-3        0.00000   0.00000   0.00000   0.00178   0.00000
  40       14F 0       -0.00007   0.00005   0.00032   0.00000  -0.00842
  41       14F+1        0.00367  -0.00391   0.00009   0.00000  -0.00010
  42       14F-1        0.00000   0.00000   0.00000  -0.00482   0.00000
  43       14F+2        0.00005  -0.00010  -0.00254   0.00000  -0.00281
  44       14F-2        0.00000   0.00000   0.00000   0.00010   0.00000
  45       14F+3        0.00058  -0.00165  -0.00012   0.00000  -0.00002
  46       14F-3        0.00000   0.00000   0.00000   0.00200   0.00000
  47 2   C  1S          0.00071   0.00134   0.17786   0.00000  -0.06119
  48        2S         -0.00205  -0.00451  -0.61380   0.00000   0.26376
  49        3S         -0.00054  -0.00144  -0.18684   0.00000   0.12217
  50        4S         -0.00144  -0.00367  -0.46179   0.00000   0.19809
  51        5S          0.00006  -0.00024  -0.03959   0.00000   0.04178
  52        6PX         0.18305   0.32828  -0.00210   0.00000   0.00235
  53        6PY         0.00000   0.00000   0.00000  -0.34458   0.00000
  54        6PZ        -0.00169  -0.00138   0.11877   0.00000   0.34771
  55        7PX         0.23341   0.46541  -0.00318   0.00000   0.00409
  56        7PY         0.00000   0.00000   0.00000  -0.60092   0.00000
  57        7PZ        -0.00201  -0.00175   0.20076   0.00000   0.67755
  58        8PX         0.08721   0.14000  -0.00168   0.00000   0.00087
  59        8PY         0.00000   0.00000   0.00000  -0.13442   0.00000
  60        8PZ        -0.00077  -0.00252  -0.03273   0.00000   0.14214
  61        9PX         0.00844   0.00755  -0.00005   0.00000   0.00000
  62        9PY         0.00000   0.00000   0.00000  -0.00363   0.00000
  63        9PZ        -0.00011   0.00006   0.00294   0.00000   0.00736
  64       10D 0       -0.00038  -0.00001   0.00460   0.00000  -0.03225
  65       10D+1        0.02594   0.00949   0.00002   0.00000  -0.00044
  66       10D-1        0.00000   0.00000   0.00000  -0.02142   0.00000
  67       10D+2        0.00017  -0.00004  -0.00058   0.00000  -0.00297
  68       10D-2        0.00000   0.00000   0.00000  -0.00009   0.00000
  69       11D 0       -0.00038  -0.00033  -0.02311   0.00000   0.02856
  70       11D+1        0.04512   0.06072  -0.00071   0.00000   0.00041
  71       11D-1        0.00000   0.00000   0.00000   0.07329   0.00000
  72       11D+2        0.00039   0.00096   0.06279   0.00000   0.02958
  73       11D-2        0.00000   0.00000   0.00000  -0.00006   0.00000
  74       12D 0        0.00014  -0.00064  -0.04087   0.00000   0.04569
  75       12D+1        0.00511   0.02203  -0.00062   0.00000   0.00005
  76       12D-1        0.00000   0.00000   0.00000  -0.01218   0.00000
  77       12D+2        0.00010   0.00010   0.00522   0.00000   0.01106
  78       12D-2        0.00000   0.00000   0.00000   0.00020   0.00000
  79       13F 0       -0.00019  -0.00026  -0.00475   0.00000   0.01206
  80       13F+1        0.00770   0.01611   0.00001   0.00000   0.00011
  81       13F-1        0.00000   0.00000   0.00000  -0.02679   0.00000
  82       13F+2        0.00009  -0.00003  -0.02828   0.00000  -0.01295
  83       13F-2        0.00000   0.00000   0.00000  -0.00022   0.00000
  84       13F+3        0.00062  -0.00459  -0.00003   0.00000  -0.00017
  85       13F-3        0.00000   0.00000   0.00000   0.01194   0.00000
  86       14F 0       -0.00022  -0.00119  -0.04418   0.00000   0.00411
  87       14F+1        0.00768   0.02706  -0.00047   0.00000   0.00015
  88       14F-1        0.00000   0.00000   0.00000  -0.15025   0.00000
  89       14F+2        0.00004  -0.00010  -0.03850   0.00000  -0.00673
  90       14F-2        0.00000   0.00000   0.00000  -0.00035   0.00000
  91       14F+3        0.00402   0.00755  -0.00004   0.00000  -0.00001
  92       14F-3        0.00000   0.00000   0.00000  -0.03312   0.00000
  93 3   F  1S         -0.00005  -0.00020  -0.05258   0.04548  -0.01866
  94        2S          0.00014   0.00075   0.16347  -0.13280   0.04449
  95        3S          0.00004   0.00023   0.07428  -0.06636   0.02871
  96        4S          0.00024   0.00134   0.22155  -0.25148   0.10963
  97        5S          0.00007  -0.00030   0.05309  -0.07762   0.05761
  98        6PX        -0.05778  -0.18563   0.00124  -0.00005  -0.00222
  99        6PY        -0.00019   0.00093   0.28144  -0.10444   0.21473
 100        6PZ         0.00025   0.00154   0.14669  -0.22330  -0.17632
 101        7PX        -0.06985  -0.15257   0.00072   0.00006  -0.00116
 102        7PY        -0.00021   0.00116   0.26979  -0.13735   0.13760
 103        7PZ         0.00032   0.00159   0.15919  -0.19141  -0.06700
 104        8PX        -0.06366   0.02671  -0.00050   0.00034   0.00178
 105        8PY        -0.00024   0.00010  -0.00211  -0.19608  -0.07780
 106        8PZ         0.00047   0.00071   0.03772   0.09486   0.21838
 107        9PX        -0.01936  -0.00303  -0.00009   0.00010   0.00019
 108        9PY        -0.00006  -0.00004   0.00400  -0.01156  -0.01281
 109        9PZ         0.00021  -0.00019  -0.00808  -0.01094   0.03749
 110       10D 0       -0.00001  -0.00002   0.00231   0.00553   0.01261
 111       10D+1        0.00084   0.00409  -0.00003   0.00000   0.00006
 112       10D-1        0.00000  -0.00004  -0.01071   0.01137   0.00075
 113       10D+2        0.00000   0.00000   0.00878  -0.00427   0.01273
 114       10D-2        0.00077   0.00560  -0.00005  -0.00001   0.00013
 115       11D 0        0.00000  -0.00004   0.00841   0.02753   0.03883
 116       11D+1        0.00261   0.01551  -0.00015   0.00002   0.00016
 117       11D-1        0.00002   0.00001  -0.01235   0.01973   0.01260
 118       11D+2        0.00001  -0.00001   0.01324   0.00212   0.03087
 119       11D-2        0.00199   0.01953  -0.00019   0.00003   0.00043
 120       12D 0        0.00003   0.00010   0.00659   0.06598   0.02257
 121       12D+1        0.00226   0.01044  -0.00003   0.00005   0.00009
 122       12D-1        0.00006   0.00021  -0.00535   0.00152   0.03139
 123       12D+2        0.00006   0.00020   0.01239   0.04375   0.00011
 124       12D-2       -0.00159   0.00430  -0.00003   0.00012   0.00028
 125       13F 0        0.00000   0.00000  -0.00053   0.00079   0.00155
 126       13F+1        0.00018   0.00052  -0.00001   0.00002   0.00002
 127       13F-1        0.00000   0.00000   0.00119   0.00072   0.00312
 128       13F+2        0.00000   0.00000  -0.00143  -0.00048  -0.00038
 129       13F-2        0.00040   0.00085  -0.00002   0.00001   0.00002
 130       13F+3       -0.00045  -0.00213   0.00002   0.00000  -0.00002
 131       13F-3       -0.00001  -0.00002   0.00041   0.00073   0.00248
 132       14F 0       -0.00002  -0.00005   0.00248   0.00483   0.00118
 133       14F+1        0.00071   0.00146   0.00001  -0.00004  -0.00007
 134       14F-1        0.00002   0.00004   0.00067   0.01145   0.00485
 135       14F+2       -0.00001  -0.00005   0.00346   0.00017   0.00141
 136       14F-2        0.00052   0.00404  -0.00003   0.00002   0.00003
 137       14F+3        0.00080   0.00084   0.00001  -0.00003  -0.00007
 138       14F-3        0.00003   0.00006  -0.00010   0.00071   0.00143
 139 4   F  1S         -0.00005  -0.00020  -0.05258  -0.04548  -0.01866
 140        2S          0.00014   0.00075   0.16347   0.13280   0.04449
 141        3S          0.00004   0.00023   0.07428   0.06636   0.02871
 142        4S          0.00024   0.00134   0.22155   0.25148   0.10963
 143        5S          0.00007  -0.00030   0.05309   0.07762   0.05761
 144        6PX        -0.05778  -0.18563   0.00124   0.00005  -0.00222
 145        6PY         0.00019  -0.00093  -0.28144  -0.10444  -0.21473
 146        6PZ         0.00025   0.00154   0.14669   0.22330  -0.17632
 147        7PX        -0.06985  -0.15257   0.00072  -0.00006  -0.00116
 148        7PY         0.00021  -0.00116  -0.26979  -0.13735  -0.13760
 149        7PZ         0.00032   0.00159   0.15919   0.19141  -0.06700
 150        8PX        -0.06366   0.02671  -0.00050  -0.00034   0.00178
 151        8PY         0.00024  -0.00010   0.00211  -0.19608   0.07780
 152        8PZ         0.00047   0.00071   0.03772  -0.09486   0.21838
 153        9PX        -0.01936  -0.00303  -0.00009  -0.00010   0.00019
 154        9PY         0.00006   0.00004  -0.00400  -0.01156   0.01281
 155        9PZ         0.00021  -0.00019  -0.00808   0.01094   0.03749
 156       10D 0       -0.00001  -0.00002   0.00231  -0.00553   0.01261
 157       10D+1        0.00084   0.00409  -0.00003   0.00000   0.00006
 158       10D-1        0.00000   0.00004   0.01071   0.01137  -0.00075
 159       10D+2        0.00000   0.00000   0.00878   0.00427   0.01273
 160       10D-2       -0.00077  -0.00560   0.00005  -0.00001  -0.00013
 161       11D 0        0.00000  -0.00004   0.00841  -0.02753   0.03883
 162       11D+1        0.00261   0.01551  -0.00015  -0.00002   0.00016
 163       11D-1       -0.00002  -0.00001   0.01235   0.01973  -0.01260
 164       11D+2        0.00001  -0.00001   0.01324  -0.00212   0.03087
 165       11D-2       -0.00199  -0.01953   0.00019   0.00003  -0.00043
 166       12D 0        0.00003   0.00010   0.00659  -0.06598   0.02257
 167       12D+1        0.00226   0.01044  -0.00003  -0.00005   0.00009
 168       12D-1       -0.00006  -0.00021   0.00535   0.00152  -0.03139
 169       12D+2        0.00006   0.00020   0.01239  -0.04375   0.00011
 170       12D-2        0.00159  -0.00430   0.00003   0.00012  -0.00028
 171       13F 0        0.00000   0.00000  -0.00053  -0.00079   0.00155
 172       13F+1        0.00018   0.00052  -0.00001  -0.00002   0.00002
 173       13F-1        0.00000   0.00000  -0.00119   0.00072  -0.00312
 174       13F+2        0.00000   0.00000  -0.00143   0.00048  -0.00038
 175       13F-2       -0.00040  -0.00085   0.00002   0.00001  -0.00002
 176       13F+3       -0.00045  -0.00213   0.00002   0.00000  -0.00002
 177       13F-3        0.00001   0.00002  -0.00041   0.00073  -0.00248
 178       14F 0       -0.00002  -0.00005   0.00248  -0.00483   0.00118
 179       14F+1        0.00071   0.00146   0.00001   0.00004  -0.00007
 180       14F-1       -0.00002  -0.00004  -0.00067   0.01145  -0.00485
 181       14F+2       -0.00001  -0.00005   0.00346  -0.00017   0.00141
 182       14F-2       -0.00052  -0.00404   0.00003   0.00002  -0.00003
 183       14F+3        0.00080   0.00084   0.00001   0.00003  -0.00007
 184       14F-3       -0.00003  -0.00006   0.00010   0.00071  -0.00143
                          21        22        23        24        25
     Eigenvalues --     0.01543   0.01405   0.01393   0.01351   0.01081
   1 1   O  1S         -0.03456   0.00000   0.00122   0.00000  -0.23975
   2        2S          0.06946   0.00000  -0.00314   0.00000   0.78010
   3        3S          0.11265   0.00000  -0.00322   0.00000   0.65852
   4        4S         -0.79619   0.00000   0.01483   0.00000  -1.19610
   5        5S         -0.45386   0.00000   0.00753   0.00000  -0.29230
   6        6PX         0.00426   0.00000   0.26037   0.00000   0.00254
   7        6PY         0.00000   0.00464   0.00000   0.30555   0.00000
   8        6PZ         0.30191   0.00000  -0.00622   0.00000   0.20685
   9        7PX         0.00378   0.00000   0.19840   0.00000   0.00037
  10        7PY         0.00000   0.00216   0.00000   0.16439   0.00000
  11        7PZ         0.29801   0.00000  -0.00488   0.00000  -0.03025
  12        8PX        -0.00054   0.00000  -0.14173   0.00000  -0.00066
  13        8PY         0.00000  -0.00389   0.00000  -0.18778   0.00000
  14        8PZ         0.03809   0.00000   0.00052   0.00000  -0.10089
  15        9PX         0.00004   0.00000  -0.03206   0.00000   0.00015
  16        9PY         0.00000  -0.00138   0.00000   0.00117   0.00000
  17        9PZ         0.05860   0.00000  -0.00077   0.00000   0.00004
  18       10D 0        0.05489   0.00000  -0.00133   0.00000  -0.01833
  19       10D+1        0.00111   0.00000   0.04039   0.00000   0.00012
  20       10D-1        0.00000   0.00030   0.00000  -0.00763   0.00000
  21       10D+2        0.01336   0.00000   0.00049   0.00000  -0.02075
  22       10D-2        0.00000  -0.02362   0.00000   0.00026   0.00000
  23       11D 0        0.08935   0.00000  -0.00232   0.00000  -0.06605
  24       11D+1        0.00206   0.00000   0.07462   0.00000  -0.00032
  25       11D-1        0.00000   0.00102   0.00000  -0.04634   0.00000
  26       11D+2        0.04563   0.00000   0.00094   0.00000  -0.00698
  27       11D-2        0.00000  -0.07500   0.00000   0.00078   0.00000
  28       12D 0        0.02326   0.00000   0.00035   0.00000  -0.05097
  29       12D+1        0.00000   0.00000  -0.01590   0.00000  -0.00095
  30       12D-1        0.00000   0.00002   0.00000  -0.05105   0.00000
  31       12D+2        0.01873   0.00000   0.00034   0.00000   0.01135
  32       12D-2        0.00000  -0.05467   0.00000   0.00037   0.00000
  33       13F 0       -0.01007   0.00000   0.00030   0.00000   0.00125
  34       13F+1       -0.00030   0.00000  -0.00666   0.00000  -0.00005
  35       13F-1        0.00000  -0.00012   0.00000   0.00564   0.00000
  36       13F+2       -0.00437   0.00000  -0.00009   0.00000   0.00209
  37       13F-2        0.00000   0.00542   0.00000  -0.00001   0.00000
  38       13F+3       -0.00001   0.00000  -0.00073   0.00000   0.00001
  39       13F-3        0.00000   0.00000   0.00000  -0.00141   0.00000
  40       14F 0       -0.02597   0.00000   0.00040   0.00000   0.02175
  41       14F+1       -0.00058   0.00000  -0.01062   0.00000   0.00044
  42       14F-1        0.00000  -0.00049   0.00000   0.00418   0.00000
  43       14F+2       -0.00058   0.00000  -0.00055   0.00000  -0.00152
  44       14F-2        0.00000   0.02815   0.00000  -0.00053   0.00000
  45       14F+3       -0.00011   0.00000   0.00646   0.00000   0.00009
  46       14F-3        0.00000   0.00054   0.00000   0.01274   0.00000
  47 2   C  1S         -0.03895   0.00000   0.00061   0.00000   0.00906
  48        2S          0.16967   0.00000  -0.00226   0.00000   0.05541
  49        3S          0.11828   0.00000  -0.00151   0.00000   0.05511
  50        4S         -0.13093   0.00000  -0.00420   0.00000   0.19889
  51        5S          0.06210   0.00000  -0.00158   0.00000   0.06119
  52        6PX         0.00115   0.00000  -0.12276   0.00000  -0.00165
  53        6PY         0.00000   0.00256   0.00000   0.22241   0.00000
  54        6PZ         0.33401   0.00000  -0.00232   0.00000  -0.11674
  55        7PX         0.00185   0.00000  -0.17935   0.00000  -0.00136
  56        7PY         0.00000   0.00626   0.00000   0.48362   0.00000
  57        7PZ         0.50060   0.00000  -0.00361   0.00000  -0.00805
  58        8PX         0.00162   0.00000  -0.16467   0.00000  -0.00083
  59        8PY         0.00000   0.00287   0.00000   0.44495   0.00000
  60        8PZ         0.45269   0.00000  -0.00268   0.00000  -0.02898
  61        9PX         0.00015   0.00000  -0.00791   0.00000  -0.00009
  62        9PY         0.00000   0.00072   0.00000  -0.00679   0.00000
  63        9PZ         0.01987   0.00000   0.00017   0.00000   0.00463
  64       10D 0        0.05984   0.00000   0.00060   0.00000  -0.02907
  65       10D+1       -0.00053   0.00000  -0.10893   0.00000  -0.00075
  66       10D-1        0.00000  -0.00097   0.00000  -0.08534   0.00000
  67       10D+2        0.04686   0.00000  -0.00034   0.00000  -0.02688
  68       10D-2        0.00000  -0.09141   0.00000   0.00080   0.00000
  69       11D 0        0.18711   0.00000  -0.00009   0.00000  -0.12449
  70       11D+1        0.00020   0.00000  -0.20970   0.00000  -0.00227
  71       11D-1        0.00000  -0.00413   0.00000  -0.47302   0.00000
  72       11D+2        0.18282   0.00000  -0.00216   0.00000  -0.04076
  73       11D-2        0.00000  -0.14003   0.00000   0.00054   0.00000
  74       12D 0        0.05031   0.00000  -0.00179   0.00000   0.03142
  75       12D+1        0.00112   0.00000  -0.00720   0.00000  -0.00005
  76       12D-1        0.00000   0.00016   0.00000  -0.19051   0.00000
  77       12D+2        0.04420   0.00000  -0.00123   0.00000   0.00633
  78       12D-2        0.00000   0.02588   0.00000  -0.00061   0.00000
  79       13F 0       -0.01337   0.00000   0.00018   0.00000  -0.00528
  80       13F+1        0.00012   0.00000  -0.00720   0.00000  -0.00025
  81       13F-1        0.00000   0.00065   0.00000   0.04316   0.00000
  82       13F+2       -0.01539   0.00000  -0.00004   0.00000  -0.00683
  83       13F-2        0.00000   0.02989   0.00000  -0.00023   0.00000
  84       13F+3       -0.00010   0.00000  -0.02662   0.00000  -0.00021
  85       13F-3        0.00000  -0.00022   0.00000  -0.01153   0.00000
  86       14F 0       -0.06820   0.00000   0.00127   0.00000  -0.05238
  87       14F+1        0.00005   0.00000  -0.04875   0.00000  -0.00140
  88       14F-1        0.00000  -0.00219   0.00000  -0.12191   0.00000
  89       14F+2       -0.07427   0.00000  -0.00050   0.00000  -0.00438
  90       14F-2        0.00000   0.06319   0.00000  -0.00270   0.00000
  91       14F+3       -0.00017   0.00000  -0.00795   0.00000  -0.00044
  92       14F-3        0.00000  -0.00038   0.00000  -0.07167   0.00000
  93 3   F  1S          0.01377   0.00031  -0.00018   0.04904  -0.02381
  94        2S         -0.02465  -0.00074   0.00053  -0.12190   0.05831
  95        3S         -0.03752  -0.00098   0.00047  -0.13578   0.06090
  96        4S          0.34183   0.00564  -0.00202   0.69040  -0.12360
  97        5S          0.23631   0.00229  -0.00206   0.53775  -0.00748
  98        6PX        -0.00153  -0.45571  -0.39960   0.00486  -0.00260
  99        6PY        -0.09411   0.00305  -0.00110   0.34090   0.03605
 100        6PZ         0.32891   0.00063   0.00004  -0.00619  -0.12331
 101        7PX        -0.00059  -0.13738  -0.11698   0.00138  -0.00050
 102        7PY         0.01317   0.00193  -0.00043   0.17904   0.00562
 103        7PZ         0.13937   0.00096  -0.00004   0.05948  -0.02260
 104        8PX         0.00161   0.51833   0.50811  -0.00498   0.00343
 105        8PY         0.20649  -0.00214   0.00101  -0.25375  -0.05500
 106        8PZ        -0.27567   0.00269  -0.00120   0.29186   0.14549
 107        9PX         0.00044   0.08129   0.07644  -0.00095   0.00050
 108        9PY         0.05562  -0.00035   0.00016   0.05433  -0.01306
 109        9PZ        -0.00250   0.00031  -0.00106   0.05148   0.02332
 110       10D 0       -0.00131   0.00004  -0.00005   0.00319   0.00031
 111       10D+1        0.00003   0.01494  -0.00433  -0.00010  -0.00014
 112       10D-1       -0.01417  -0.00029  -0.00005  -0.02560   0.01739
 113       10D+2        0.00478   0.00010  -0.00017   0.00999  -0.00173
 114       10D-2        0.00014   0.00813   0.01382  -0.00006   0.00011
 115       11D 0        0.00265   0.00004  -0.00028   0.00593  -0.00259
 116       11D+1        0.00016   0.04186  -0.00809  -0.00024  -0.00043
 117       11D-1       -0.02488  -0.00050  -0.00027  -0.04689   0.05119
 118       11D+2        0.00999  -0.00001  -0.00053   0.00760  -0.00986
 119       11D-2        0.00042   0.02675   0.04214  -0.00017   0.00024
 120       12D 0       -0.01306   0.00082  -0.00015   0.05949  -0.00236
 121       12D+1       -0.00004   0.02920   0.00626  -0.00035  -0.00035
[...]
 113       10D+2        0.02583  -0.01871   0.00035  -0.00579   0.01096
 114       10D-2        0.00002   0.00022  -0.01031   0.00027   0.00001
 115       11D 0        0.04963  -0.04719   0.00280  -0.06848  -0.01147
 116       11D+1       -0.00022   0.00195  -0.11022  -0.00436   0.00015
 117       11D-1        0.07469  -0.08256  -0.00146  -0.03563   0.01521
 118       11D+2       -0.09525   0.05719  -0.00114   0.02474  -0.03441
 119       11D-2        0.00007  -0.00059   0.02398  -0.00126   0.00002
 120       12D 0        0.42677   0.10464  -0.01026   0.18839   0.51652
 121       12D+1        0.00335  -0.00764   0.26013   0.01930   0.00005
 122       12D-1        0.72023   0.50347   0.00290  -0.00275   0.30673
 123       12D+2        0.11431  -0.12057   0.00371  -0.17732   0.10115
 124       12D-2        0.00899  -0.00044  -0.00743   0.01030   0.00020
 125       13F 0        0.00445   0.02253   0.00054  -0.01383  -0.00294
 126       13F+1        0.00042   0.00017   0.00424  -0.00025   0.00028
 127       13F-1       -0.04945   0.02228   0.00057   0.00257  -0.01142
 128       13F+2        0.02732  -0.03348  -0.00085   0.00067   0.00560
 129       13F-2       -0.00020   0.00000   0.01546  -0.00047   0.00005
 130       13F+3        0.00048   0.00005   0.00761  -0.00030  -0.00021
 131       13F-3       -0.00902  -0.01954  -0.00023   0.01633   0.00876
 132       14F 0       -0.02122  -0.05361  -0.00144   0.04413   0.02034
 133       14F+1       -0.00120  -0.00072  -0.00250   0.00131  -0.00054
 134       14F-1        0.16002  -0.04590  -0.00164   0.00247   0.06757
 135       14F+2       -0.08427   0.05841   0.00236  -0.01204  -0.02547
 136       14F-2        0.00082  -0.00015  -0.04170   0.00109  -0.00004
 137       14F+3       -0.00145  -0.00015  -0.00770   0.00058   0.00025
 138       14F-3        0.01636   0.04402   0.00065  -0.04682  -0.01485
 139 4   F  1S          0.09296  -0.11301  -0.00188   0.01866  -0.00573
 140        2S          0.41903  -0.48548  -0.00789   0.07094   0.00329
 141        3S         -0.07623   0.11989   0.00212  -0.02600   0.03607
 142        4S         -1.46656   3.35475   0.08924  -1.69504  -0.46721
 143        5S          1.58110   6.22402   0.08153   2.55837  -2.81055
 144        6PX         0.00013  -0.00003  -0.00366  -0.00099  -0.00016
 145        6PY         0.00302  -0.00722   0.00013  -0.01184   0.01158
 146        6PZ         0.01795   0.00427   0.00029  -0.00303  -0.00695
 147        7PX        -0.00048   0.00030   0.00849   0.00343   0.00075
 148        7PY        -0.00189   0.01893  -0.00151   0.09712  -0.05891
 149        7PZ        -0.09423  -0.01375  -0.00011  -0.03257   0.06002
 150        8PX        -0.01589  -0.00680   0.12455   0.01057  -0.00360
 151        8PY         0.59153  -1.22880  -0.02252   0.10072   0.30700
 152        8PZ        -1.60366   1.31623   0.02259  -0.47574  -1.43537
 153        9PX         0.00582   0.00320  -0.08460   0.07892  -0.00307
 154        9PY        -1.75800  -1.37197  -0.01945  -0.23406  -0.63476
 155        9PZ         1.65332   3.31728   0.01495   2.34869  -0.82104
 156       10D 0        0.00959   0.01331  -0.00082   0.02020  -0.00390
 157       10D+1       -0.00008  -0.00056   0.03105   0.00128   0.00006
 158       10D-1       -0.01293  -0.02399  -0.00051  -0.00387  -0.00208
 159       10D+2       -0.02583  -0.01871   0.00035  -0.00579  -0.01096
 160       10D-2        0.00002  -0.00022   0.01031  -0.00027   0.00001
 161       11D 0       -0.04963  -0.04719   0.00280  -0.06848   0.01147
 162       11D+1        0.00022   0.00195  -0.11022  -0.00436  -0.00015
 163       11D-1        0.07469   0.08256   0.00146   0.03563   0.01521
 164       11D+2        0.09525   0.05719  -0.00114   0.02474   0.03441
 165       11D-2        0.00007   0.00059  -0.02398   0.00126   0.00002
 166       12D 0       -0.42677   0.10464  -0.01026   0.18839  -0.51652
 167       12D+1       -0.00335  -0.00764   0.26013   0.01930  -0.00005
 168       12D-1        0.72023  -0.50347  -0.00290   0.00275   0.30673
 169       12D+2       -0.11431  -0.12057   0.00371  -0.17732  -0.10115
 170       12D-2        0.00899   0.00044   0.00743  -0.01030   0.00020
 171       13F 0       -0.00445   0.02253   0.00054  -0.01383   0.00294
 172       13F+1       -0.00042   0.00017   0.00424  -0.00025  -0.00028
 173       13F-1       -0.04945  -0.02228  -0.00057  -0.00257  -0.01142
 174       13F+2       -0.02732  -0.03348  -0.00085   0.00067  -0.00560
 175       13F-2       -0.00020   0.00000  -0.01546   0.00047   0.00005
 176       13F+3       -0.00048   0.00005   0.00761  -0.00030   0.00021
 177       13F-3       -0.00902   0.01954   0.00023  -0.01633   0.00876
 178       14F 0        0.02122  -0.05361  -0.00144   0.04413  -0.02034
 179       14F+1        0.00120  -0.00072  -0.00250   0.00131   0.00054
 180       14F-1        0.16002   0.04590   0.00164  -0.00247   0.06757
 181       14F+2        0.08427   0.05841   0.00236  -0.01204   0.02547
 182       14F-2        0.00082   0.00015   0.04170  -0.00109  -0.00004
 183       14F+3        0.00145  -0.00015  -0.00770   0.00058  -0.00025
 184       14F-3        0.01636  -0.04402  -0.00065   0.04682  -0.01485
                         181       182       183       184
     Eigenvalues --     0.00000   0.00000   0.00000   0.00000
   1 1   O  1S         -0.00150   0.00000   0.11012  -0.05385
   2        2S         -0.00908   0.00000   0.54791  -0.26819
   3        3S         -0.00217   0.00000  -0.04467   0.02674
   4        4S         -0.08432   0.00000  -3.01453   6.92365
   5        5S         -0.15577   0.00000 -10.68154  16.14059
   6        6PX         0.01326   0.00000   0.00021  -0.00017
   7        6PY         0.00000  -0.00246   0.00000   0.00000
   8        6PZ         0.00042   0.00000   0.01196  -0.00426
   9        7PX        -0.03634   0.00000  -0.00130  -0.00067
  10        7PY         0.00000   0.00701   0.00000   0.00000
  11        7PZ        -0.00087   0.00000  -0.06988  -0.12450
  12        8PX         0.68204   0.00000   0.01496  -0.05085
  13        8PY         0.00000  -1.80882   0.00000   0.00000
  14        8PZ        -0.01911   0.00000   2.76474  -3.07001
  15        9PX        -1.57796   0.00000   0.01877  -0.03719
  16        9PY         0.00000  -4.26265   0.00000   0.00000
  17        9PZ         0.19624   0.00000   2.87146  -3.45955
  18       10D 0       -0.00311   0.00000   0.01864  -0.00456
  19       10D+1        0.00897   0.00000   0.00024  -0.00003
  20       10D-1        0.00000   0.00149   0.00000   0.00000
  21       10D+2        0.00089   0.00000  -0.00001  -0.00660
  22       10D-2        0.00000   0.00033   0.00000   0.00000
  23       11D 0        0.01635   0.00000  -0.14392   0.09017
  24       11D+1       -0.09624   0.00000  -0.00132   0.00230
  25       11D-1        0.00000   0.08294   0.00000   0.00000
  26       11D+2       -0.00412   0.00000  -0.00177   0.02791
  27       11D-2        0.00000  -0.00051   0.00000   0.00000
  28       12D 0       -0.00855   0.00000  -0.79006   0.24544
  29       12D+1       -0.08664   0.00000  -0.00734   0.01354
  30       12D-1        0.00000   1.07426   0.00000   0.00000
  31       12D+2       -0.00773   0.00000  -0.03448   0.11497
  32       12D-2        0.00000   0.00918   0.00000   0.00000
  33       13F 0       -0.00065   0.00000   0.00261  -0.02164
  34       13F+1        0.00280   0.00000   0.00008  -0.00059
  35       13F-1        0.00000   0.01551   0.00000   0.00000
  36       13F+2       -0.00072   0.00000  -0.00213   0.01978
  37       13F-2        0.00000   0.00003   0.00000   0.00000
  38       13F+3       -0.00217   0.00000  -0.00013   0.00026
  39       13F-3        0.00000  -0.00155   0.00000   0.00000
  40       14F 0       -0.00292   0.00000   0.11045   0.04214
  41       14F+1        0.05139   0.00000   0.00150  -0.00005
  42       14F-1        0.00000  -0.18073   0.00000   0.00000
  43       14F+2        0.00412   0.00000   0.01217  -0.06806
  44       14F-2        0.00000  -0.00195   0.00000   0.00000
  45       14F+3        0.02129   0.00000   0.00032  -0.00082
  46       14F-3        0.00000   0.01905   0.00000   0.00000
  47 2   C  1S         -0.00514   0.00000   0.06338  -0.07692
  48        2S         -0.03242   0.00000   0.39073  -0.40998
  49        3S         -0.00885   0.00000   0.20324   0.18752
  50        4S          0.21113   0.00000  -4.57353 -18.09503
  51        5S         -0.06773   0.00000  -0.51579  -9.91648
  52        6PX        -0.00547   0.00000  -0.00008  -0.00002
  53        6PY         0.00000   0.02245   0.00000   0.00000
  54        6PZ        -0.00096   0.00000  -0.01876   0.00532
  55        7PX        -0.06963   0.00000   0.00900  -0.00055
  56        7PY         0.00000  -1.21595   0.00000   0.00000
  57        7PZ        -0.02276   0.00000   1.63472  -0.15604
  58        8PX         0.72017   0.00000   0.03469  -0.03195
  59        8PY         0.00000  -8.13136   0.00000   0.00000
  60        8PZ         0.08995   0.00000   7.31732  -5.06306
  61        9PX         3.15751   0.00000   0.00812  -0.00831
  62        9PY         0.00000   2.38031   0.00000   0.00000
  63        9PZ        -0.16477   0.00000   1.94135  -0.00504
  64       10D 0       -0.00500   0.00000   0.01763   0.03496
  65       10D+1        0.00567   0.00000   0.00026   0.00059
  66       10D-1        0.00000  -0.01218   0.00000   0.00000
  67       10D+2        0.00368   0.00000  -0.00621  -0.02091
  68       10D-2        0.00000   0.00037   0.00000   0.00000
  69       11D 0        0.00613   0.00000   0.39580  -0.96802
  70       11D+1       -0.32158   0.00000   0.00667  -0.00896
  71       11D-1        0.00000   2.32503   0.00000   0.00000
  72       11D+2       -0.03795   0.00000   0.88139   0.63412
  73       11D-2        0.00000  -0.00148   0.00000   0.00000
  74       12D 0        0.02635   0.00000   0.46462  -2.75313
  75       12D+1       -0.32855   0.00000   0.01199  -0.02162
  76       12D-1        0.00000   4.59155   0.00000   0.00000
  77       12D+2        0.02089   0.00000   0.94705   0.02294
  78       12D-2        0.00000   0.01521   0.00000   0.00000
  79       13F 0        0.00024   0.00000  -0.05052  -0.02952
  80       13F+1       -0.04885   0.00000  -0.00015   0.00009
  81       13F-1        0.00000  -0.00880   0.00000   0.00000
  82       13F+2        0.00009   0.00000  -0.04531  -0.02273
  83       13F-2        0.00000   0.00013   0.00000   0.00000
  84       13F+3        0.04654   0.00000  -0.00015  -0.00006
  85       13F-3        0.00000   0.06008   0.00000   0.00000
  86       14F 0        0.04879   0.00000  -0.32755  -0.51207
  87       14F+1       -0.10315   0.00000  -0.00109  -0.00088
  88       14F-1        0.00000  -0.09899   0.00000   0.00000
  89       14F+2        0.02979   0.00000  -0.23468  -0.38777
  90       14F-2        0.00000   0.01074   0.00000   0.00000
  91       14F+3       -0.22699   0.00000  -0.00011  -0.00306
  92       14F-3        0.00000  -0.07530   0.00000   0.00000
  93 3   F  1S          0.00065   0.09632  -0.02389  -0.01723
  94        2S          0.00232   0.44807  -0.13330  -0.09963
  95        3S         -0.00095  -0.06053  -0.01595  -0.01049
  96        4S         -0.08673  -3.04416   1.85891   1.76525
  97        5S          0.11853 -16.45390   8.04432   2.62697
  98        6PX         0.01760   0.00022   0.00002   0.00001
  99        6PY         0.00062  -0.01072   0.00996   0.00487
 100        6PZ        -0.00014  -0.00631   0.00712   0.00280
 101        7PX        -0.06756  -0.00086  -0.00004   0.00004
 102        7PY        -0.00523   0.05135  -0.04467  -0.02096
 103        7PZ        -0.00147   0.02309  -0.02773  -0.00964
 104        8PX         0.00433  -0.00484   0.00034  -0.00400
 105        8PY        -0.00309  -2.51330   1.46984   1.26072
 106        8PZ        -0.03869  -1.44238   1.31303   0.91070
 107        9PX        -1.35318  -0.00200   0.00232  -0.00769
 108        9PY         0.01197  -5.57078   1.46546   0.51353
 109        9PZ         0.10377  -1.95676   1.18149  -1.07404
 110       10D 0        0.00090   0.00190  -0.00449   0.00018
 111       10D+1       -0.00757  -0.00013  -0.00001   0.00008
 112       10D-1        0.00014  -0.00522  -0.00370  -0.00541
 113       10D+2       -0.00013   0.01892  -0.00428   0.00078
 114       10D-2       -0.00842   0.00000   0.00001  -0.00006
 115       11D 0       -0.00320  -0.00959   0.02285  -0.00732
 116       11D+1        0.02507   0.00037   0.00005  -0.00033
 117       11D-1       -0.00172  -0.01444   0.04540   0.03184
 118       11D+2        0.00068  -0.04173  -0.00076  -0.01134
 119       11D-2        0.03106  -0.00003   0.00000   0.00016
 120       12D 0        0.00385   0.26137   0.08287   0.00396
 121       12D+1       -0.16802  -0.00270  -0.00065  -0.00063
 122       12D-1       -0.00701  -0.68125   0.45970   0.24606
 123       12D+2       -0.01105   0.64427  -0.19307  -0.17812
 124       12D-2       -0.13534  -0.00440   0.00082  -0.00271
 125       13F 0       -0.00084  -0.01333   0.00328   0.00525
 126       13F+1        0.00539  -0.00002   0.00005   0.00007
 127       13F-1        0.00033  -0.00201  -0.01236  -0.00222
 128       13F+2       -0.00014   0.00627   0.00926   0.00163
 129       13F-2        0.01513   0.00015   0.00007   0.00003
 130       13F+3        0.00738  -0.00038   0.00014  -0.00008
 131       13F-3        0.00107   0.00966  -0.00937  -0.00840
 132       14F 0        0.00256   0.07029  -0.02290  -0.02468
 133       14F+1       -0.01915   0.00012  -0.00018  -0.00017
 134       14F-1       -0.00105   0.00003   0.06190   0.00469
 135       14F+2        0.00002   0.03415  -0.05625  -0.01908
 136       14F-2       -0.03108  -0.00061  -0.00022  -0.00026
 137       14F+3       -0.01695   0.00094  -0.00044   0.00043
 138       14F-3       -0.00327   0.01287   0.01418   0.00495
 139 4   F  1S          0.00065  -0.09632  -0.02389  -0.01723
 140        2S          0.00232  -0.44807  -0.13330  -0.09963
 141        3S         -0.00095   0.06053  -0.01595  -0.01049
 142        4S         -0.08673   3.04416   1.85891   1.76525
 143        5S          0.11853  16.45390   8.04432   2.62697
 144        6PX         0.01760  -0.00022   0.00002   0.00001
 145        6PY        -0.00062  -0.01072  -0.00996  -0.00487
 146        6PZ        -0.00014   0.00631   0.00712   0.00280
 147        7PX        -0.06756   0.00086  -0.00004   0.00004
 148        7PY         0.00523   0.05135   0.04467   0.02096
 149        7PZ        -0.00147  -0.02309  -0.02773  -0.00964
 150        8PX         0.00433   0.00484   0.00034  -0.00400
 151        8PY         0.00309  -2.51330  -1.46984  -1.26072
 152        8PZ        -0.03869   1.44238   1.31303   0.91070
 153        9PX        -1.35318   0.00200   0.00232  -0.00769
 154        9PY        -0.01197  -5.57078  -1.46546  -0.51353
 155        9PZ         0.10377   1.95676   1.18149  -1.07404
 156       10D 0        0.00090  -0.00190  -0.00449   0.00018
 157       10D+1       -0.00757   0.00013  -0.00001   0.00008
 158       10D-1       -0.00014  -0.00522   0.00370   0.00541
 159       10D+2       -0.00013  -0.01892  -0.00428   0.00078
 160       10D-2        0.00842   0.00000  -0.00001   0.00006
 161       11D 0       -0.00320   0.00959   0.02285  -0.00732
 162       11D+1        0.02507  -0.00037   0.00005  -0.00033
 163       11D-1        0.00172  -0.01444  -0.04540  -0.03184
 164       11D+2        0.00068   0.04173  -0.00076  -0.01134
 165       11D-2       -0.03106  -0.00003   0.00000  -0.00016
 166       12D 0        0.00385  -0.26137   0.08287   0.00396
 167       12D+1       -0.16802   0.00270  -0.00065  -0.00063
 168       12D-1        0.00701  -0.68125  -0.45970  -0.24606
 169       12D+2       -0.01105  -0.64427  -0.19307  -0.17812
 170       12D-2        0.13534  -0.00440  -0.00082   0.00271
 171       13F 0       -0.00084   0.01333   0.00328   0.00525
 172       13F+1        0.00539   0.00002   0.00005   0.00007
 173       13F-1       -0.00033  -0.00201   0.01236   0.00222
 174       13F+2       -0.00014  -0.00627   0.00926   0.00163
 175       13F-2       -0.01513   0.00015  -0.00007  -0.00003
 176       13F+3        0.00738   0.00038   0.00014  -0.00008
 177       13F-3       -0.00107   0.00966   0.00937   0.00840
 178       14F 0        0.00256  -0.07029  -0.02290  -0.02468
 179       14F+1       -0.01915  -0.00012  -0.00018  -0.00017
 180       14F-1        0.00105   0.00003  -0.06190  -0.00469
 181       14F+2        0.00002  -0.03415  -0.05625  -0.01908
 182       14F-2        0.03108  -0.00061   0.00022   0.00026
 183       14F+3       -0.01695  -0.00094  -0.00044   0.00043
 184       14F-3        0.00327   0.01287  -0.01418  -0.00495
          Condensed to atoms (all electrons):
              1          2          3          4
     1  O    7.946865   0.499997  -0.079659  -0.079659
     2  C    0.499997   4.519580   0.185124   0.185124
     3  F   -0.079659   0.185124   9.104363  -0.048512
     4  F   -0.079659   0.185124  -0.048512   9.104363
 Mulliken atomic charges:
              1
     1  O   -0.287544
     2  C    0.610176
     3  F   -0.161316
     4  F   -0.161316
 Sum of Mulliken atomic charges =   0.00000
 Mulliken charges with hydrogens summed into heavy atoms:
              1
     1  O   -0.287544
     2  C    0.610176
     3  F   -0.161316
     4  F   -0.161316
 Sum of Mulliken charges with hydrogens summed into heavy atoms =   0.00000
 Electronic spatial extent (au):  <R**2>=            239.4206
 Charge=              0.0000 electrons
 Dipole moment (field-independent basis, Debye):
    X=             -0.0168    Y=              0.0000    Z=             -1.0335  Tot=              1.0336
 Quadrupole moment (field-independent basis, Debye-Ang):
   XX=            -18.9052   YY=            -21.3170   ZZ=            -21.9184
   XY=              0.0000   XZ=             -0.0134   YZ=              0.0000
 Traceless Quadrupole moment (field-independent basis, Debye-Ang):
   XX=              1.8083   YY=             -0.6035   ZZ=             -1.2049
   XY=              0.0000   XZ=             -0.0134   YZ=              0.0000
 Octapole moment (field-independent basis, Debye-Ang**2):
  XXX=             -0.1582  YYY=              0.0000  ZZZ=             34.2710  XYY=             -0.0521
  XXY=              0.0000  XXZ=             10.3472  XZZ=             -0.0511  YZZ=              0.0000
  YYZ=             12.0136  XYZ=              0.0000
 Hexadecapole moment (field-independent basis, Debye-Ang**3):
 XXXX=            -13.4856 YYYY=            -79.9306 ZZZZ=           -132.3923 XXXY=              0.0000
 XXXZ=             -0.1112 YYYX=              0.0000 YYYZ=              0.0000 ZZZX=             -0.1255
 ZZZY=              0.0000 XXYY=            -15.6419 XXZZ=            -23.5682 YYZZ=            -36.1535
 XXYZ=              0.0000 YYXZ=             -0.0465 ZZXY=              0.0000
 N-N= 1.199399180803D+02 E-N=-9.819231657997D+02  KE= 3.123812879087D+02
 1\1\GINC-TRAPISTA\SP\RQCISD-FC\Aug-CC-pVTZ\C1F2O1\BRUNS\26-Nov-2021\0\
 \# qcisd/aug-cc-pvtz nosymm density=current output=wfn\\f2co-wavefunct
 ion\\0,1\O,0,0.01,0.,0.679927\C,0,0.,0.,-0.492216\F,0,0.,-1.058878,-1.
 264305\F,0,0.,1.058878,-1.264305\\Version=EM64L-G09RevB.01\HF=-311.741
 2282\MP2=-312.6371381\MP3=-312.6246368\MP4D=-312.6402374\MP4DQ=-312.62
 41799\MP4SDQ=-312.6357839\QCISD=-312.6352869\RMSD=8.478e-09\Dipole=-0.
 0066232,0.,-0.406597\Quadrupole=1.3444632,-0.4486751,-0.8957882,0.,-0.
 0099951,0.\PG=CS [SG(C1O1),X(F2)]\\@

 Writing a WFN file to GAUSSIAN.wfn.


 DIATOMIC MOLECULES ARE PECULIAR BECAUSE THEY ONLY HAVE TWO ENDS,
 AND THESE ENDS ARE VERY CLOSE TOGETHER.
 KLAUS RUEDENBERG, REV.MOD.PHYS. PG 176, 32, (1960)
 Job cpu time:  0 days  1 hours 50 minutes  6.9 seconds.
 File lengths (MBytes):  RWF=  17462 Int=      0 D2E=      0 Chk=      3 Scr=      1
 Normal termination of Gaussian 09 at Fri Nov 26 17:35:13 2021.
