 Entering Gaussian System, Link 0=/home/bruns/programas/chemistry/gaussian/g09/g09
 Input=GAUSSIAN.com
 Output=GAUSSIAN.log
 Initial command:
 /home/bruns/programas/chemistry/gaussian/g09/l1.exe /home/bruns/programas/chemistry/gaussian/work/Gau-14868.inp -scrdir=/home/bruns/programas/chemistry/gaussian/work/
 Entering Link 1 = /home/bruns/programas/chemistry/gaussian/g09/l1.exe PID=     14870.
  
 Copyright (c) 1988,1990,1992,1993,1995,1998,2003,2009,2010,
            Gaussian, Inc.  All Rights Reserved.
  
 This is part of the Gaussian(R) 09 program.  It is based on
 the Gaussian(R) 03 system (copyright 2003, Gaussian, Inc.),
 the Gaussian(R) 98 system (copyright 1998, Gaussian, Inc.),
 the Gaussian(R) 94 system (copyright 1995, Gaussian, Inc.),
 the Gaussian 92(TM) system (copyright 1992, Gaussian, Inc.),
 the Gaussian 90(TM) system (copyright 1990, Gaussian, Inc.),
 the Gaussian 88(TM) system (copyright 1988, Gaussian, Inc.),
 the Gaussian 86(TM) system (copyright 1986, Carnegie Mellon
 University), and the Gaussian 82(TM) system (copyright 1983,
 Carnegie Mellon University). Gaussian is a federally registered
 trademark of Gaussian, Inc.
  
 This software contains proprietary and confidential information,
 including trade secrets, belonging to Gaussian, Inc.
  
 This software is provided under written license and may be
 used, copied, transmitted, or stored only in accord with that
 written license.
  
 The following legend is applicable only to US Government
 contracts under FAR:
  
                    RESTRICTED RIGHTS LEGEND
  
 Use, reproduction and disclosure by the US Government is
 subject to restrictions as set forth in subparagraphs (a)
 and (c) of the Commercial Computer Software - Restricted
 Rights clause in FAR 52.227-19.
  
 Gaussian, Inc.
 340 Quinnipiac St., Bldg. 40, Wallingford CT 06492
  
  
 ---------------------------------------------------------------
 Warning -- This program may not be used in any manner that
 competes with the business of Gaussian, Inc. or will provide
 assistance to any competitor of Gaussian, Inc.  The licensee
 of this program is prohibited from giving any competitor of
 Gaussian, Inc. access to this program.  By using this program,
 the user acknowledges that Gaussian, Inc. is engaged in the
 business of creating and licensing software in the field of
 computational chemistry and represents and warrants to the
 licensee that it is not a competitor of Gaussian, Inc. and that
 it will not use this program in any manner prohibited above.
 ---------------------------------------------------------------
  

 Cite this work as:
 Gaussian 09, Revision B.01,
 M. J. Frisch, G. W. Trucks, H. B. Schlegel, G. E. Scuseria, 
 M. A. Robb, J. R. Cheeseman, G. Scalmani, V. Barone, B. Mennucci, 
 G. A. Petersson, H. Nakatsuji, M. Caricato, X. Li, H. P. Hratchian, 
 A. F. Izmaylov, J. Bloino, G. Zheng, J. L. Sonnenberg, M. Hada, 
 M. Ehara, K. Toyota, R. Fukuda, J. Hasegawa, M. Ishida, T. Nakajima, 
 Y. Honda, O. Kitao, H. Nakai, T. Vreven, J. A. Montgomery, Jr., 
 J. E. Peralta, F. Ogliaro, M. Bearpark, J. J. Heyd, E. Brothers, 
 K. N. Kudin, V. N. Staroverov, T. Keith, R. Kobayashi, J. Normand, 
 K. Raghavachari, A. Rendell, J. C. Burant, S. S. Iyengar, J. Tomasi, 
 M. Cossi, N. Rega, J. M. Millam, M. Klene, J. E. Knox, J. B. Cross, 
 V. Bakken, C. Adamo, J. Jaramillo, R. Gomperts, R. E. Stratmann, 
 O. Yazyev, A. J. Austin, R. Cammi, C. Pomelli, J. W. Ochterski, 
 R. L. Martin, K. Morokuma, V. G. Zakrzewski, G. A. Voth, 
 P. Salvador, J. J. Dannenberg, S. Dapprich, A. D. Daniels, 
 O. Farkas, J. B. Foresman, J. V. Ortiz, J. Cioslowski, 
 and D. J. Fox, Gaussian, Inc., Wallingford CT, 2010.
 
 ******************************************
 Gaussian 09:  EM64L-G09RevB.01 12-Aug-2010
                26-Nov-2021 
 ******************************************
 %nproc=8
 Will use up to    8 processors via shared memory.
 %mem=8GB
 -----------------------------------------------------
 # qcisd/aug-cc-pvtz nosymm density=current output=wfn
 -----------------------------------------------------
 1/30=1,38=1/1;
 2/12=2,15=1,17=6,18=5,40=1/2;
 3/5=16,6=1,7=10,11=9,16=1,25=1,30=1,71=1/1,2,3;
 4//1;
 5/5=2,38=5/2;
 8/6=4,9=120000,10=1/1,4;
 9/5=8,15=1/13;
 11/28=-7,31=1,32=3,42=3/11;
 10/5=6,13=10,31=1/2;
 6/7=2,8=2,9=2,10=2,22=-1,31=1/1;
 99/5=1,6=1100,9=1/99;
 -----------------
 f2co-wavefunction
 -----------------
 Symbolic Z-matrix:
 Charge =  0 Multiplicity = 1
 O                     0.        0.        0.67993 
 C                     0.        0.       -0.49222 
 F                     0.       -1.05888  -1.26431 
 F                     0.        1.05888  -1.26431 
 
                          Input orientation:                          
 ---------------------------------------------------------------------
 Center     Atomic      Atomic             Coordinates (Angstroms)
 Number     Number       Type             X           Y           Z
 ---------------------------------------------------------------------
      1          8           0        0.000000    0.000000    0.679927
      2          6           0        0.000000    0.000000   -0.492216
      3          9           0        0.000000   -1.058878   -1.264305
      4          9           0        0.000000    1.058878   -1.264305
 ---------------------------------------------------------------------
                    Distance matrix (angstroms):
                    1          2          3          4
     1  O    0.000000
     2  C    1.172143   0.000000
     3  F    2.213879   1.310475   0.000000
     4  F    2.213879   1.310475   2.117756   0.000000
 Symmetry turned off by external request.
 Stoichiometry    CF2O
 Framework group  C2V[C2(CO),SGV(F2)]
 Deg. of freedom     3
 Full point group                 C2V     NOp   4
 Rotational constants (GHZ):     11.8625553     11.7728615      5.9087691
 Standard basis: Aug-CC-pVTZ (5D, 7F)
 Integral buffers will be    131072 words long.
 Raffenetti 1 integral format.
 Two-electron integral symmetry is turned off.
   184 basis functions,   288 primitive gaussians,   220 cartesian basis functions
    16 alpha electrons       16 beta electrons
       nuclear repulsion energy       119.9410577902 Hartrees.
 NAtoms=    4 NActive=    4 NUniq=    4 SFac= 1.00D+00 NAtFMM=   50 NAOKFM=F Big=F
 One-electron integrals computed using PRISM.
 NBasis=   184 RedAO= T  NBF=   184
 NBsUse=   184 1.00D-06 NBFU=   184
 Harris functional with IExCor=  205 diagonalized for initial guess.
 ExpMin= 3.57D-02 ExpMax= 1.95D+04 ExpMxC= 6.65D+02 IAcc=3 IRadAn=         0 AccDes= 0.00D+00
 HarFok:  IExCor=  205 AccDes= 0.00D+00 IRadAn=         0 IDoV= 1
 ScaDFX=  1.000000  1.000000  1.000000  1.000000
 FoFCou: FMM=F IPFlag=           0 FMFlag=      100000 FMFlg1=           0
         NFxFlg=           0 DoJE=T BraDBF=F KetDBF=T FulRan=T
         Omega=  0.000000  0.000000  1.000000  0.000000  0.000000 ICntrl=     500 IOpCl=  0
         NMat0=    1 NMatS0=    1 NMatT0=    0 NMatD0=    1 NMtDS0=    0 NMtDT0=    0
         I1Cent=           4 NGrid=           0.
 Symmetry not used in FoFCou.
 Requested convergence on RMS density matrix=1.00D-08 within 128 cycles.
 Requested convergence on MAX density matrix=1.00D-06.
 Requested convergence on             energy=1.00D-06.
 No special actions if energy rises.
 Keep R1 ints in memory in canonical form, NReq=301063473.
 SCF Done:  E(RHF) =  -311.741239712     A.U. after   11 cycles
             Convg  =    0.8476D-08             -V/T =  2.0014
 ExpMin= 3.57D-02 ExpMax= 1.95D+04 ExpMxC= 6.65D+02 IAcc=3 IRadAn=         5 AccDes= 0.00D+00
 HarFok:  IExCor=  205 AccDes= 0.00D+00 IRadAn=         5 IDoV=-2
 ScaDFX=  1.000000  1.000000  1.000000  1.000000
 Range of M.O.s used for correlation:     5   184
 NBasis=   184 NAE=    16 NBE=    16 NFC=     4 NFV=     0
 NROrb=    180 NOA=    12 NOB=    12 NVA=   168 NVB=   168

 **** Warning!!: The largest alpha MO coefficient is  0.15547235D+02

 Semi-Direct transformation.
 ModeAB=           2 MOrb=            12 LenV=    1072785587
 LASXX=     33405819 LTotXX=    33405819 LenRXX=    33405819
 LTotAB=    33954012 MaxLAS=    52509600 LenRXY=    52509600
 NonZer=    66811638 LenScr=   100987392 LnRSAI=           0
 LnScr1=           0 LExtra=           0 Total=    186902811
 MaxDsk=          -1 SrtSym=           F ITran=            4
 JobTyp=0 Pass  1:  I=   1 to  12.
 (rs|ai) integrals will be sorted in core.
 Spin components of T(2) and E(2):
     alpha-alpha T2 =       0.2657352538D-01 E2=     -0.1191087785D+00
     alpha-beta  T2 =       0.1371258492D+00 E2=     -0.6576863621D+00
     beta-beta   T2 =       0.2657352538D-01 E2=     -0.1191087785D+00
 ANorm=    0.1090996288D+01
 E2 =    -0.8959039191D+00 EUMP2 =    -0.31263714363158D+03
 R2 and R3 integrals will be kept in memory, NReq=   596397230.
 Iterations=  50 Convergence= 0.100D-07
 Iteration Nr.   1
 **********************
 DD1Dir will call FoFMem   1 times, MxPair=       156
 NAB=    78 NAA=     0 NBB=     0.
 MP4(R+Q)=  0.16056897D-01
 E3=        0.12499229D-01        EUMP3=      -0.31262464440D+03
 E4(DQ)=    0.45721910D-03        UMP4(DQ)=   -0.31262418718D+03
 E4(SDQ)=  -0.11145908D-01        UMP4(SDQ)=  -0.31263579031D+03
 DE(Corr)= -0.86734779     E(Corr)=     -312.60858751    
 NORM(A)=   0.10858757D+01
 Iteration Nr.   2
 **********************
 DD1Dir will call FoFMem   1 times, MxPair=       156
 NAB=    78 NAA=     0 NBB=     0.
 DE(Corr)= -0.89321515     E(CORR)=     -312.63445486     Delta=-2.59D-02
 NORM(A)=   0.10931754D+01
 Iteration Nr.   3
 **********************
 DD1Dir will call FoFMem   1 times, MxPair=       156
 NAB=    78 NAA=     0 NBB=     0.
 DE(Corr)= -0.89145715     E(CORR)=     -312.63269687     Delta= 1.76D-03
 NORM(A)=   0.10954068D+01
 Iteration Nr.   4
 **********************
 DD1Dir will call FoFMem   1 times, MxPair=       156
 NAB=    78 NAA=     0 NBB=     0.
 DE(Corr)= -0.89375985     E(CORR)=     -312.63499956     Delta=-2.30D-03
 NORM(A)=   0.10962131D+01
 Iteration Nr.   5
 **********************
 DD1Dir will call FoFMem   1 times, MxPair=       156
 NAB=    78 NAA=     0 NBB=     0.
 DE(Corr)= -0.89402565     E(CORR)=     -312.63526536     Delta=-2.66D-04
 NORM(A)=   0.10963956D+01
 Iteration Nr.   6
 **********************
 DD1Dir will call FoFMem   1 times, MxPair=       156
 NAB=    78 NAA=     0 NBB=     0.
 DE(Corr)= -0.89405215     E(CORR)=     -312.63529186     Delta=-2.65D-05
 NORM(A)=   0.10964088D+01
 Iteration Nr.   7
 **********************
 DD1Dir will call FoFMem   1 times, MxPair=       156
 NAB=    78 NAA=     0 NBB=     0.
 DE(Corr)= -0.89405377     E(CORR)=     -312.63529348     Delta=-1.62D-06
 NORM(A)=   0.10964087D+01
 Iteration Nr.   8
 **********************
 DD1Dir will call FoFMem   1 times, MxPair=       156
 NAB=    78 NAA=     0 NBB=     0.
 DE(Corr)= -0.89405275     E(CORR)=     -312.63529247     Delta= 1.01D-06
 NORM(A)=   0.10964091D+01
 Iteration Nr.   9
 **********************
 DD1Dir will call FoFMem   1 times, MxPair=       156
 NAB=    78 NAA=     0 NBB=     0.
 DE(Corr)= -0.89405315     E(CORR)=     -312.63529286     Delta=-3.99D-07
 NORM(A)=   0.10964091D+01
 Iteration Nr.  10
 **********************
 DD1Dir will call FoFMem   1 times, MxPair=       156
 NAB=    78 NAA=     0 NBB=     0.
 DE(Corr)= -0.89405305     E(CORR)=     -312.63529276     Delta= 1.00D-07
 NORM(A)=   0.10964093D+01
 Iteration Nr.  11
 **********************
 DD1Dir will call FoFMem   1 times, MxPair=       156
 NAB=    78 NAA=     0 NBB=     0.
 DE(Corr)= -0.89405352     E(CORR)=     -312.63529324     Delta=-4.71D-07
 NORM(A)=   0.10964096D+01
 Iteration Nr.  12
 **********************
 DD1Dir will call FoFMem   1 times, MxPair=       156
 NAB=    78 NAA=     0 NBB=     0.
 DE(Corr)= -0.89405356     E(CORR)=     -312.63529327     Delta=-3.37D-08
 NORM(A)=   0.10964098D+01
 Iteration Nr.  13
 **********************
 DD1Dir will call FoFMem   1 times, MxPair=       156
 NAB=    78 NAA=     0 NBB=     0.
 DE(Corr)= -0.89405365     E(CORR)=     -312.63529336     Delta=-9.62D-08
 NORM(A)=   0.10964099D+01
 Iteration Nr.  14
 **********************
 DD1Dir will call FoFMem   1 times, MxPair=       156
 NAB=    78 NAA=     0 NBB=     0.
 DE(Corr)= -0.89405367     E(CORR)=     -312.63529338     Delta=-1.60D-08
 NORM(A)=   0.10964099D+01
 Iteration Nr.  15
 **********************
 DD1Dir will call FoFMem   1 times, MxPair=       156
 NAB=    78 NAA=     0 NBB=     0.
 DE(Corr)= -0.89405368     E(CORR)=     -312.63529339     Delta=-8.94D-09
 NORM(A)=   0.10964099D+01
 Iteration Nr.  16
 **********************
 DD1Dir will call FoFMem   1 times, MxPair=       156
 NAB=    78 NAA=     0 NBB=     0.
 DE(Corr)= -0.89405368     E(CORR)=     -312.63529339     Delta=-4.28D-09
 NORM(A)=   0.10964099D+01
 Largest amplitude= 5.78D-02

 Z-AMPLITUDE ITERATIONS

 Iteration Nr.   1
 **********************
 DD1Dir will call FoFMem   1 times, MxPair=       156
 NAB=    78 NAA=     0 NBB=     0.
 DE(Z)  -0.87475075D+00          E(Z)=    -0.31261599046D+03
 NORM(A)=   0.10964091D+01
 Iteration Nr.   2
 **********************
 DD1Dir will call FoFMem   1 times, MxPair=       156
 NAB=    78 NAA=     0 NBB=     0.
 DE(Z)  -0.87475074D+00          E(Z)=    -0.31261599046D+03
 NORM(A)=   0.10964092D+01
 Iteration Nr.   3
 **********************
 DD1Dir will call FoFMem   1 times, MxPair=       156
 NAB=    78 NAA=     0 NBB=     0.
 DE(Z)  -0.87475074D+00          E(Z)=    -0.31261599045D+03
 NORM(A)=   0.10964098D+01
 Iteration Nr.   4
 **********************
 DD1Dir will call FoFMem   1 times, MxPair=       156
 NAB=    78 NAA=     0 NBB=     0.
 DE(Z)  -0.87475075D+00          E(Z)=    -0.31261599046D+03
 NORM(A)=   0.10964099D+01
 Iteration Nr.   5
 **********************
 DD1Dir will call FoFMem   1 times, MxPair=       156
 NAB=    78 NAA=     0 NBB=     0.
 DE(Z)  -0.87475075D+00          E(Z)=    -0.31261599046D+03
 NORM(A)=   0.10920041D+01
 Iteration Nr.   6
 **********************
 DD1Dir will call FoFMem   1 times, MxPair=       156
 NAB=    78 NAA=     0 NBB=     0.
 DE(Z)  -0.87472144D+00          E(Z)=    -0.31261596116D+03
 NORM(A)=   0.10919849D+01
 Iteration Nr.   7
 **********************
 DD1Dir will call FoFMem   1 times, MxPair=       156
 NAB=    78 NAA=     0 NBB=     0.
 DE(Z)  -0.87468930D+00          E(Z)=    -0.31261592901D+03
 NORM(A)=   0.10919710D+01
 Iteration Nr.   8
 **********************
 DD1Dir will call FoFMem   1 times, MxPair=       156
 NAB=    78 NAA=     0 NBB=     0.
 DE(Z)  -0.87469722D+00          E(Z)=    -0.31261593693D+03
 NORM(A)=   0.10919680D+01
 Iteration Nr.   9
 **********************
 DD1Dir will call FoFMem   1 times, MxPair=       156
 NAB=    78 NAA=     0 NBB=     0.
 DE(Z)  -0.87469316D+00          E(Z)=    -0.31261593288D+03
 NORM(A)=   0.10919679D+01
 Iteration Nr.  10
 **********************
 DD1Dir will call FoFMem   1 times, MxPair=       156
 NAB=    78 NAA=     0 NBB=     0.
 DE(Z)  -0.87469395D+00          E(Z)=    -0.31261593367D+03
 NORM(A)=   0.10919682D+01
 Iteration Nr.  11
 **********************
 DD1Dir will call FoFMem   1 times, MxPair=       156
 NAB=    78 NAA=     0 NBB=     0.
 DE(Z)  -0.87469386D+00          E(Z)=    -0.31261593358D+03
 NORM(A)=   0.10919683D+01
 Iteration Nr.  12
 **********************
 DD1Dir will call FoFMem   1 times, MxPair=       156
 NAB=    78 NAA=     0 NBB=     0.
 DE(Z)  -0.87469388D+00          E(Z)=    -0.31261593359D+03
 NORM(A)=   0.10919683D+01
 Iteration Nr.  13
 **********************
 DD1Dir will call FoFMem   1 times, MxPair=       156
 NAB=    78 NAA=     0 NBB=     0.
 DE(Z)  -0.87469391D+00          E(Z)=    -0.31261593362D+03
 NORM(A)=   0.10919683D+01
 Iteration Nr.  14
 **********************
 DD1Dir will call FoFMem   1 times, MxPair=       156
 NAB=    78 NAA=     0 NBB=     0.
 DE(Z)  -0.87469389D+00          E(Z)=    -0.31261593360D+03
 NORM(A)=   0.10919683D+01
 Iteration Nr.  15
 **********************
 DD1Dir will call FoFMem   1 times, MxPair=       156
 NAB=    78 NAA=     0 NBB=     0.
 DE(Z)  -0.87469390D+00          E(Z)=    -0.31261593361D+03
 NORM(A)=   0.10919683D+01
 Discarding MO integrals.
          Differentiating once with respect to electric field.
                with respect to dipole field.
          Electric field/nuclear overlap derivatives assumed to be zero.
          Keep R1 ints in memory in canonical form, NReq=297441306.
          There are     1 degrees of freedom in the 1st order CPHF.  IDoFFX=0.
 LinEq1:  Iter=  0 NonCon=     1 RMS=3.07D-03 Max=8.45D-02
 AX will form     1 AO Fock derivatives at one time.
 LinEq1:  Iter=  1 NonCon=     1 RMS=7.55D-04 Max=1.11D-02
 LinEq1:  Iter=  2 NonCon=     1 RMS=2.24D-04 Max=3.37D-03
 LinEq1:  Iter=  3 NonCon=     1 RMS=9.87D-05 Max=1.57D-03
 LinEq1:  Iter=  4 NonCon=     1 RMS=2.27D-05 Max=3.72D-04
 LinEq1:  Iter=  5 NonCon=     1 RMS=1.09D-05 Max=2.98D-04
 LinEq1:  Iter=  6 NonCon=     1 RMS=2.61D-06 Max=4.75D-05
 LinEq1:  Iter=  7 NonCon=     1 RMS=5.33D-07 Max=1.03D-05
 LinEq1:  Iter=  8 NonCon=     1 RMS=9.45D-08 Max=1.21D-06
 LinEq1:  Iter=  9 NonCon=     1 RMS=1.30D-08 Max=1.78D-07
 LinEq1:  Iter= 10 NonCon=     1 RMS=1.87D-09 Max=2.11D-08
 LinEq1:  Iter= 11 NonCon=     1 RMS=3.90D-10 Max=5.76D-09
 LinEq1:  Iter= 12 NonCon=     0 RMS=5.37D-11 Max=4.71D-10
 Linear equations converged to 1.000D-10 1.000D-09 after    12 iterations.
 End of Minotr Frequency-dependent properties file   721 does not exist.
 End of Minotr Frequency-dependent properties file   722 does not exist.

 **********************************************************************

            Population analysis using the QCI/CC density.

 **********************************************************************

     Natural Orbital Coefficients:
                           1         2         3         4         5
     Eigenvalues --     2.00001   2.00000   2.00000   2.00000   1.98618
   1 1   O  1S         -0.63122  -0.72179   0.00000   0.19954  -0.01943
   2        2S          0.01166   0.01269   0.00000  -0.00382   0.04672
   3        3S         -0.02675  -0.03101   0.00000   0.00866   0.01304
   4        4S          0.00202   0.00274   0.00000  -0.00173  -0.00014
   5        5S         -0.00050   0.00091   0.00000  -0.00176  -0.01906
   6        6PX         0.00000   0.00000   0.00000   0.00000   0.00000
   7        6PY         0.00000   0.00000  -0.00018   0.00000   0.00000
   8        6PZ         0.00404   0.00178   0.00000   0.00011  -0.01421
   9        7PX         0.00000   0.00000   0.00000   0.00000   0.00000
  10        7PY         0.00000   0.00000  -0.00012   0.00000   0.00000
  11        7PZ         0.00267  -0.00196   0.00000   0.00167  -0.01386
  12        8PX         0.00000   0.00000   0.00000   0.00000   0.00000
  13        8PY         0.00000   0.00000   0.00044   0.00000   0.00000
  14        8PZ         0.00320  -0.00075   0.00000   0.00059   0.00962
  15        9PX         0.00000   0.00000   0.00000   0.00000   0.00000
  16        9PY         0.00000   0.00000   0.00034   0.00000   0.00000
  17        9PZ         0.00035   0.00004   0.00000   0.00046   0.00545
  18       10D 0       -0.00026  -0.00011   0.00000  -0.00002   0.00115
  19       10D+1        0.00000   0.00000   0.00000   0.00000   0.00000
  20       10D-1        0.00000   0.00000   0.00001   0.00000   0.00000
  21       10D+2        0.00005   0.00005   0.00000   0.00001   0.00002
  22       10D-2        0.00000   0.00000   0.00000   0.00000   0.00000
  23       11D 0       -0.00003   0.00091   0.00000  -0.00046  -0.00022
  24       11D+1        0.00000   0.00000   0.00000   0.00000   0.00000
  25       11D-1        0.00000   0.00000  -0.00005   0.00000   0.00000
  26       11D+2        0.00006   0.00001   0.00000  -0.00017  -0.00081
  27       11D-2        0.00000   0.00000   0.00000   0.00000   0.00000
  28       12D 0       -0.00044   0.00023   0.00000  -0.00009  -0.00566
  29       12D+1        0.00000   0.00000   0.00000   0.00000   0.00000
  30       12D-1        0.00000   0.00000  -0.00013   0.00000   0.00000
  31       12D+2        0.00027  -0.00027   0.00000  -0.00017  -0.00213
  32       12D-2        0.00000   0.00000   0.00000   0.00000   0.00000
  33       13F 0       -0.00017   0.00008   0.00000  -0.00010  -0.00049
  34       13F+1        0.00000   0.00000   0.00000   0.00000   0.00000
  35       13F-1        0.00000   0.00000  -0.00002   0.00000   0.00000
  36       13F+2        0.00003   0.00002   0.00000   0.00002   0.00017
  37       13F-2        0.00000   0.00000   0.00000   0.00000   0.00000
  38       13F+3        0.00000   0.00000   0.00000   0.00000   0.00000
  39       13F-3        0.00000   0.00000   0.00002   0.00000   0.00000
  40       14F 0        0.00004  -0.00022   0.00000   0.00025   0.00165
  41       14F+1        0.00000   0.00000   0.00000   0.00000   0.00000
  42       14F-1        0.00000   0.00000   0.00008   0.00000   0.00000
  43       14F+2        0.00000   0.00002   0.00000   0.00017   0.00091
  44       14F-2        0.00000   0.00000   0.00000   0.00000   0.00000
  45       14F+3        0.00000   0.00000   0.00000   0.00000   0.00000
  46       14F-3        0.00000   0.00000  -0.00007   0.00000   0.00000
  47 2   C  1S          0.71632  -0.50376   0.00000   0.44202  -0.05155
  48        2S         -0.00912   0.00500   0.00000  -0.00397   0.10859
  49        3S          0.02924  -0.02122   0.00000   0.01786   0.02356
  50        4S         -0.00027   0.00065   0.00000   0.00014   0.01479
  51        5S          0.00023  -0.00010   0.00000   0.00036   0.00331
  52        6PX         0.00000   0.00000   0.00000   0.00000   0.00000
  53        6PY         0.00000   0.00000  -0.00003   0.00000   0.00000
  54        6PZ        -0.00186   0.00115   0.00000  -0.00108  -0.01579
  55        7PX         0.00000   0.00000   0.00000   0.00000   0.00000
  56        7PY         0.00000   0.00000  -0.00091   0.00000   0.00000
  57        7PZ         0.00112  -0.00470   0.00000   0.00147  -0.01159
  58        8PX         0.00000   0.00000   0.00000   0.00000   0.00000
  59        8PY         0.00000   0.00000   0.00055   0.00000   0.00000
  60        8PZ         0.00080  -0.00026   0.00000   0.00202   0.01489
  61        9PX         0.00000   0.00000   0.00000   0.00000   0.00000
  62        9PY         0.00000   0.00000  -0.00029   0.00000   0.00000
  63        9PZ         0.00004  -0.00038   0.00000  -0.00006  -0.00015
  64       10D 0        0.00028  -0.00050   0.00000   0.00038   0.00513
  65       10D+1        0.00000   0.00000   0.00000   0.00000   0.00000
  66       10D-1        0.00000   0.00000   0.00018   0.00000   0.00000
  67       10D+2       -0.00041   0.00020   0.00000  -0.00042  -0.00853
  68       10D-2        0.00000   0.00000   0.00000   0.00000   0.00000
  69       11D 0       -0.00040  -0.00103   0.00000   0.00059   0.00661
  70       11D+1        0.00000   0.00000   0.00000   0.00000   0.00000
  71       11D-1        0.00000   0.00000   0.00099   0.00000   0.00000
  72       11D+2        0.00089  -0.00129   0.00000   0.00017  -0.00980
  73       11D-2        0.00000   0.00000   0.00000   0.00000   0.00000
  74       12D 0        0.00009   0.00060   0.00000   0.00031   0.00030
  75       12D+1        0.00000   0.00000   0.00000   0.00000   0.00000
  76       12D-1        0.00000   0.00000  -0.00056   0.00000   0.00000
  77       12D+2        0.00005   0.00022   0.00000   0.00033   0.00346
  78       12D-2        0.00000   0.00000   0.00000   0.00000   0.00000
  79       13F 0        0.00070  -0.00032   0.00000   0.00061   0.00432
  80       13F+1        0.00000   0.00000   0.00000   0.00000   0.00000
  81       13F-1        0.00000   0.00000  -0.00023   0.00000   0.00000
  82       13F+2        0.00033   0.00010   0.00000   0.00060   0.00559
  83       13F-2        0.00000   0.00000   0.00000   0.00000   0.00000
  84       13F+3        0.00000   0.00000   0.00000   0.00000   0.00000
  85       13F-3        0.00000   0.00000   0.00021   0.00000   0.00000
  86       14F 0       -0.00116   0.00045   0.00000   0.00056   0.00353
  87       14F+1        0.00000   0.00000   0.00000   0.00000   0.00000
  88       14F-1        0.00000   0.00000  -0.00087   0.00000   0.00000
  89       14F+2       -0.00098   0.00085   0.00000   0.00026   0.00488
  90       14F-2        0.00000   0.00000   0.00000   0.00000   0.00000
  91       14F+3        0.00000   0.00000   0.00000   0.00000   0.00000
  92       14F-3        0.00000   0.00000  -0.00006   0.00000   0.00000
  93 3   F  1S         -0.15776   0.30431   0.69212   0.60123  -0.14609
  94        2S          0.00335  -0.00549  -0.01112  -0.00905   0.37267
  95        3S         -0.00641   0.01289   0.02983   0.02617   0.11364
  96        4S          0.00267  -0.00292  -0.00058   0.00090   0.23160
  97        5S          0.00023  -0.00024   0.00070   0.00068   0.01424
  98        6PX         0.00000   0.00000   0.00000   0.00000   0.00000
  99        6PY        -0.00110   0.00130   0.00145   0.00093  -0.00564
 100        6PZ        -0.00089   0.00079   0.00111   0.00058  -0.01948
 101        7PX         0.00000   0.00000   0.00000   0.00000   0.00000
 102        7PY        -0.00100   0.00062  -0.00014  -0.00043  -0.00286
 103        7PZ        -0.00091   0.00021   0.00012  -0.00050  -0.02145
 104        8PX         0.00000   0.00000   0.00000   0.00000   0.00000
 105        8PY        -0.00056   0.00030   0.00086   0.00112  -0.01193
 106        8PZ        -0.00031  -0.00008   0.00144   0.00059  -0.02300
 107        9PX         0.00000   0.00000   0.00000   0.00000   0.00000
 108        9PY        -0.00007  -0.00003   0.00039   0.00009  -0.00089
 109        9PZ        -0.00004   0.00039   0.00008   0.00025  -0.00086
 110       10D 0        0.00000  -0.00001   0.00000   0.00000  -0.00011
 111       10D+1        0.00000   0.00000   0.00000   0.00000   0.00000
 112       10D-1        0.00003  -0.00002   0.00001   0.00004   0.00066
 113       10D+2        0.00001  -0.00001  -0.00002  -0.00002  -0.00064
 114       10D-2        0.00000   0.00000   0.00000   0.00000   0.00000
 115       11D 0       -0.00006   0.00004   0.00007  -0.00006  -0.00091
 116       11D+1        0.00000   0.00000   0.00000   0.00000   0.00000
 117       11D-1       -0.00036   0.00003  -0.00024  -0.00046   0.00348
 118       11D+2        0.00010   0.00003   0.00019   0.00020  -0.00329
 119       11D-2        0.00000   0.00000   0.00000   0.00000   0.00000
 120       12D 0       -0.00010   0.00000   0.00024   0.00005  -0.00002
 121       12D+1        0.00000   0.00000   0.00000   0.00000   0.00000
 122       12D-1       -0.00002  -0.00001   0.00040   0.00019  -0.00275
 123       12D+2        0.00020  -0.00010  -0.00022  -0.00024   0.00129
 124       12D-2        0.00000   0.00000   0.00000   0.00000   0.00000
 125       13F 0        0.00000  -0.00002   0.00000  -0.00001  -0.00034
 126       13F+1        0.00000   0.00000   0.00000   0.00000   0.00000
 127       13F-1       -0.00001  -0.00003   0.00000  -0.00002   0.00009
 128       13F+2        0.00001   0.00003   0.00002   0.00003  -0.00046
 129       13F-2        0.00000   0.00000   0.00000   0.00000   0.00000
 130       13F+3        0.00000   0.00000   0.00000   0.00000   0.00000
 131       13F-3        0.00001   0.00000   0.00006   0.00001  -0.00040
 132       14F 0        0.00014  -0.00001   0.00003   0.00014  -0.00031
 133       14F+1        0.00000   0.00000   0.00000   0.00000   0.00000
 134       14F-1       -0.00019   0.00017   0.00003  -0.00012   0.00000
 135       14F+2        0.00026  -0.00022   0.00000   0.00014  -0.00099
 136       14F-2        0.00000   0.00000   0.00000   0.00000   0.00000
 137       14F+3        0.00000   0.00000   0.00000   0.00000   0.00000
 138       14F-3        0.00005  -0.00004  -0.00012   0.00003  -0.00052
 139 4   F  1S         -0.15776   0.30431  -0.69212   0.60123  -0.14609
 140        2S          0.00335  -0.00549   0.01112  -0.00905   0.37267
 141        3S         -0.00641   0.01289  -0.02983   0.02617   0.11364
 142        4S          0.00267  -0.00292   0.00058   0.00090   0.23160
 143        5S          0.00023  -0.00024  -0.00070   0.00068   0.01424
 144        6PX         0.00000   0.00000   0.00000   0.00000   0.00000
 145        6PY         0.00110  -0.00130   0.00145  -0.00093   0.00564
 146        6PZ        -0.00089   0.00079  -0.00111   0.00058  -0.01948
 147        7PX         0.00000   0.00000   0.00000   0.00000   0.00000
 148        7PY         0.00100  -0.00062  -0.00014   0.00043   0.00286
 149        7PZ        -0.00091   0.00021  -0.00012  -0.00050  -0.02145
 150        8PX         0.00000   0.00000   0.00000   0.00000   0.00000
 151        8PY         0.00056  -0.00030   0.00086  -0.00112   0.01193
 152        8PZ        -0.00031  -0.00008  -0.00144   0.00059  -0.02300
 153        9PX         0.00000   0.00000   0.00000   0.00000   0.00000
 154        9PY         0.00007   0.00003   0.00039  -0.00009   0.00089
 155        9PZ        -0.00004   0.00039  -0.00008   0.00025  -0.00086
 156       10D 0        0.00000  -0.00001   0.00000   0.00000  -0.00011
 157       10D+1        0.00000   0.00000   0.00000   0.00000   0.00000
 158       10D-1       -0.00003   0.00002   0.00001  -0.00004  -0.00066
 159       10D+2        0.00001  -0.00001   0.00002  -0.00002  -0.00064
 160       10D-2        0.00000   0.00000   0.00000   0.00000   0.00000
 161       11D 0       -0.00006   0.00004  -0.00007  -0.00006  -0.00091
 162       11D+1        0.00000   0.00000   0.00000   0.00000   0.00000
 163       11D-1        0.00036  -0.00003  -0.00024   0.00046  -0.00348
 164       11D+2        0.00010   0.00003  -0.00019   0.00020  -0.00329
 165       11D-2        0.00000   0.00000   0.00000   0.00000   0.00000
 166       12D 0       -0.00010   0.00000  -0.00024   0.00005  -0.00002
 167       12D+1        0.00000   0.00000   0.00000   0.00000   0.00000
 168       12D-1        0.00002   0.00001   0.00040  -0.00019   0.00275
 169       12D+2        0.00020  -0.00010   0.00022  -0.00024   0.00129
 170       12D-2        0.00000   0.00000   0.00000   0.00000   0.00000
 171       13F 0        0.00000  -0.00002   0.00000  -0.00001  -0.00034
 172       13F+1        0.00000   0.00000   0.00000   0.00000   0.00000
 173       13F-1        0.00001   0.00003   0.00000   0.00002  -0.00009
 174       13F+2        0.00001   0.00003  -0.00002   0.00003  -0.00046
 175       13F-2        0.00000   0.00000   0.00000   0.00000   0.00000
 176       13F+3        0.00000   0.00000   0.00000   0.00000   0.00000
 177       13F-3       -0.00001   0.00000   0.00006  -0.00001   0.00040
 178       14F 0        0.00014  -0.00001  -0.00003   0.00014  -0.00031
 179       14F+1        0.00000   0.00000   0.00000   0.00000   0.00000
 180       14F-1        0.00019  -0.00017   0.00003   0.00012   0.00000
 181       14F+2        0.00026  -0.00022   0.00000   0.00014  -0.00099
 182       14F-2        0.00000   0.00000   0.00000   0.00000   0.00000
 183       14F+3        0.00000   0.00000   0.00000   0.00000   0.00000
 184       14F-3       -0.00005   0.00004  -0.00012  -0.00003   0.00052
                           6         7         8         9        10
     Eigenvalues --     1.98560   1.98141   1.97345   1.97134   1.96827
   1 1   O  1S          0.00000  -0.19114  -0.03799   0.00000   0.00000
   2        2S          0.00000   0.49177   0.10512   0.00000   0.00000
   3        3S          0.00000   0.13803   0.03119   0.00000   0.00000
   4        4S          0.00000   0.30618   0.08951   0.00000   0.00000
   5        5S          0.00000   0.03419  -0.00726   0.00000   0.00000
   6        6PX         0.00000   0.00000   0.00000   0.00000  -0.00679
   7        6PY         0.02083   0.00000   0.00000  -0.05086   0.00000
   8        6PZ         0.00000   0.00044   0.02517   0.00000   0.00000
   9        7PX         0.00000   0.00000   0.00000   0.00000  -0.00916
  10        7PY         0.02602   0.00000   0.00000  -0.06909   0.00000
  11        7PZ         0.00000  -0.00512   0.02565   0.00000   0.00000
  12        8PX         0.00000   0.00000   0.00000   0.00000  -0.01798
  13        8PY         0.01661   0.00000   0.00000  -0.06846   0.00000
  14        8PZ         0.00000   0.04808   0.00465   0.00000   0.00000
  15        9PX         0.00000   0.00000   0.00000   0.00000  -0.00940
  16        9PY        -0.00184   0.00000   0.00000   0.00647   0.00000
  17        9PZ         0.00000   0.00287   0.00465   0.00000   0.00000
  18       10D 0        0.00000   0.00473  -0.00109   0.00000   0.00000
  19       10D+1        0.00000   0.00000   0.00000   0.00000  -0.00194
  20       10D-1       -0.00075   0.00000   0.00000   0.00318   0.00000
  21       10D+2        0.00000  -0.00003   0.00048   0.00000   0.00000
  22       10D-2        0.00000   0.00000   0.00000   0.00000   0.00000
  23       11D 0        0.00000   0.01179  -0.00040   0.00000   0.00000
  24       11D+1        0.00000   0.00000   0.00000   0.00000  -0.00233
  25       11D-1       -0.00193   0.00000   0.00000   0.01380   0.00000
  26       11D+2        0.00000   0.00007   0.00080   0.00000   0.00000
  27       11D-2        0.00000   0.00000   0.00000   0.00000   0.00000
  28       12D 0        0.00000  -0.01283   0.00754   0.00000   0.00000
  29       12D+1        0.00000   0.00000   0.00000   0.00000   0.00042
  30       12D-1       -0.00051   0.00000   0.00000   0.01398   0.00000
  31       12D+2        0.00000   0.00038   0.00073   0.00000   0.00000
  32       12D-2        0.00000   0.00000   0.00000   0.00000   0.00000
  33       13F 0        0.00000  -0.00277   0.00065   0.00000   0.00000
  34       13F+1        0.00000   0.00000   0.00000   0.00000   0.00128
  35       13F-1        0.00076   0.00000   0.00000  -0.00263   0.00000
  36       13F+2        0.00000   0.00023  -0.00018   0.00000   0.00000
  37       13F-2        0.00000   0.00000   0.00000   0.00000   0.00000
  38       13F+3        0.00000   0.00000   0.00000   0.00000  -0.00022
  39       13F-3        0.00000   0.00000   0.00000  -0.00006   0.00000
  40       14F 0        0.00000  -0.00058  -0.00039   0.00000   0.00000
  41       14F+1        0.00000   0.00000   0.00000   0.00000  -0.00182
  42       14F-1        0.00008   0.00000   0.00000  -0.00239   0.00000
  43       14F+2        0.00000  -0.00054   0.00096   0.00000   0.00000
  44       14F-2        0.00000   0.00000   0.00000   0.00000   0.00000
  45       14F+3        0.00000   0.00000   0.00000   0.00000   0.00119
  46       14F-3        0.00035   0.00000   0.00000  -0.00058   0.00000
  47 2   C  1S          0.00000  -0.06836  -0.01112   0.00000   0.00000
  48        2S          0.00000   0.15840   0.02591   0.00000   0.00000
  49        3S          0.00000   0.03835   0.00691   0.00000   0.00000
  50        4S          0.00000   0.02754  -0.01765   0.00000   0.00000
  51        5S          0.00000  -0.00234  -0.00027   0.00000   0.00000
  52        6PX         0.00000   0.00000   0.00000   0.00000   0.10459
  53        6PY         0.03752   0.00000   0.00000  -0.07741   0.00000
  54        6PZ         0.00000   0.08042  -0.05183   0.00000   0.00000
  55        7PX         0.00000   0.00000   0.00000   0.00000   0.13181
  56        7PY         0.03135   0.00000   0.00000  -0.09799   0.00000
  57        7PZ         0.00000   0.05670  -0.08154   0.00000   0.00000
  58        8PX         0.00000   0.00000   0.00000   0.00000   0.01770
  59        8PY        -0.01994   0.00000   0.00000   0.07398   0.00000
  60        8PZ         0.00000  -0.03069   0.02612   0.00000   0.00000
  61        9PX         0.00000   0.00000   0.00000   0.00000   0.00216
  62        9PY         0.00174   0.00000   0.00000  -0.00467   0.00000
  63        9PZ         0.00000  -0.00016   0.00215   0.00000   0.00000
  64       10D 0        0.00000   0.01239   0.02007   0.00000   0.00000
  65       10D+1        0.00000   0.00000   0.00000   0.00000  -0.01458
  66       10D-1       -0.00893   0.00000   0.00000  -0.01008   0.00000
  67       10D+2        0.00000  -0.00253   0.01033   0.00000   0.00000
  68       10D-2        0.00000   0.00000   0.00000   0.00000   0.00000
  69       11D 0        0.00000   0.00219   0.03775   0.00000   0.00000
  70       11D+1        0.00000   0.00000   0.00000   0.00000  -0.02451
  71       11D-1       -0.01053   0.00000   0.00000   0.00691   0.00000
  72       11D+2        0.00000  -0.00758   0.02174   0.00000   0.00000
  73       11D-2        0.00000   0.00000   0.00000   0.00000   0.00000
  74       12D 0        0.00000  -0.01207  -0.00404   0.00000   0.00000
  75       12D+1        0.00000   0.00000   0.00000   0.00000   0.00030
  76       12D-1        0.01020   0.00000   0.00000  -0.01231   0.00000
  77       12D+2        0.00000  -0.00300   0.00098   0.00000   0.00000
  78       12D-2        0.00000   0.00000   0.00000   0.00000   0.00000
  79       13F 0        0.00000   0.00623  -0.00585   0.00000   0.00000
  80       13F+1        0.00000   0.00000   0.00000   0.00000   0.00451
  81       13F-1        0.00197   0.00000   0.00000   0.01099   0.00000
  82       13F+2        0.00000   0.00263   0.00018   0.00000   0.00000
  83       13F-2        0.00000   0.00000   0.00000   0.00000   0.00000
  84       13F+3        0.00000   0.00000   0.00000   0.00000  -0.00774
  85       13F-3       -0.00207   0.00000   0.00000   0.00533   0.00000
  86       14F 0        0.00000  -0.00235  -0.00721   0.00000   0.00000
  87       14F+1        0.00000   0.00000   0.00000   0.00000  -0.00080
  88       14F-1        0.00551   0.00000   0.00000   0.01638   0.00000
  89       14F+2        0.00000   0.00047  -0.00649   0.00000   0.00000
  90       14F-2        0.00000   0.00000   0.00000   0.00000   0.00000
  91       14F+3        0.00000   0.00000   0.00000   0.00000  -0.00144
  92       14F-3        0.00087   0.00000   0.00000  -0.00098   0.00000
  93 3   F  1S          0.14944   0.01932   0.01629   0.01685   0.00000
  94        2S         -0.38186  -0.04938  -0.04372  -0.04558   0.00000
  95        3S         -0.11694  -0.01553  -0.01470  -0.01560   0.00000
  96        4S         -0.25130  -0.05354  -0.03444  -0.05058   0.00000
  97        5S         -0.03186  -0.02247   0.00922   0.04906   0.00000
  98        6PX         0.00000   0.00000   0.00000   0.00000   0.25067
  99        6PY         0.03797  -0.00257   0.16658  -0.13047   0.00000
 100        6PZ         0.00918   0.04623  -0.19496   0.23359   0.00000
 101        7PX         0.00000   0.00000   0.00000   0.00000   0.30607
 102        7PY         0.04161  -0.00558   0.20188  -0.15863   0.00000
 103        7PZ         0.00762   0.05429  -0.23636   0.28224   0.00000
 104        8PX         0.00000   0.00000   0.00000   0.00000   0.20939
 105        8PY         0.03533  -0.01308   0.12616  -0.13416   0.00000
 106        8PZ         0.00458   0.02827  -0.16489   0.18663   0.00000
 107        9PX         0.00000   0.00000   0.00000   0.00000   0.01571
 108        9PY        -0.00137  -0.00325   0.01324   0.00061   0.00000
 109        9PZ        -0.00040  -0.00365  -0.01416   0.02623   0.00000
 110       10D 0       -0.00016   0.00060  -0.00264   0.00237   0.00000
 111       10D+1        0.00000   0.00000   0.00000   0.00000   0.00189
 112       10D-1       -0.00042   0.00079  -0.00062   0.00163   0.00000
 113       10D+2        0.00009  -0.00003  -0.00222   0.00058   0.00000
 114       10D-2        0.00000   0.00000   0.00000   0.00000   0.00305
 115       11D 0       -0.00102   0.00171  -0.00991   0.00866   0.00000
 116       11D+1        0.00000   0.00000   0.00000   0.00000   0.00806
 117       11D-1       -0.00402   0.00016  -0.00243   0.00610   0.00000
 118       11D+2        0.00192   0.00124  -0.00749   0.00191   0.00000
 119       11D-2        0.00000   0.00000   0.00000   0.00000   0.01243
 120       12D 0       -0.00188   0.00014  -0.00477   0.00764   0.00000
 121       12D+1        0.00000   0.00000   0.00000   0.00000   0.00395
 122       12D-1       -0.00016  -0.00215  -0.00392  -0.00215   0.00000
 123       12D+2       -0.00149   0.00179   0.00087   0.01008   0.00000
 124       12D-2        0.00000   0.00000   0.00000   0.00000   0.00789
 125       13F 0        0.00011   0.00005  -0.00067   0.00043   0.00000
 126       13F+1        0.00000   0.00000   0.00000   0.00000   0.00029
 127       13F-1       -0.00029   0.00047  -0.00173   0.00183   0.00000
 128       13F+2        0.00031  -0.00012  -0.00041  -0.00028   0.00000
 129       13F-2        0.00000   0.00000   0.00000   0.00000   0.00165
 130       13F+3        0.00000   0.00000   0.00000   0.00000  -0.00157
 131       13F-3        0.00002   0.00009  -0.00107   0.00024   0.00000
 132       14F 0        0.00039   0.00073  -0.00186   0.00031   0.00000
 133       14F+1        0.00000   0.00000   0.00000   0.00000   0.00016
 134       14F-1       -0.00098   0.00007  -0.00271   0.00305   0.00000
 135       14F+2        0.00101   0.00058  -0.00043  -0.00081   0.00000
 136       14F-2        0.00000   0.00000   0.00000   0.00000   0.00302
 137       14F+3        0.00000   0.00000   0.00000   0.00000  -0.00199
 138       14F-3        0.00066   0.00031  -0.00071   0.00086   0.00000
 139 4   F  1S         -0.14944   0.01932   0.01629  -0.01685   0.00000
 140        2S          0.38186  -0.04938  -0.04372   0.04558   0.00000
 141        3S          0.11694  -0.01553  -0.01470   0.01560   0.00000
 142        4S          0.25130  -0.05354  -0.03444   0.05058   0.00000
 143        5S          0.03186  -0.02247   0.00922  -0.04906   0.00000
 144        6PX         0.00000   0.00000   0.00000   0.00000   0.25067
 145        6PY         0.03797   0.00257  -0.16658  -0.13047   0.00000
 146        6PZ        -0.00918   0.04623  -0.19496  -0.23359   0.00000
 147        7PX         0.00000   0.00000   0.00000   0.00000   0.30607
 148        7PY         0.04161   0.00558  -0.20188  -0.15863   0.00000
 149        7PZ        -0.00762   0.05429  -0.23636  -0.28224   0.00000
 150        8PX         0.00000   0.00000   0.00000   0.00000   0.20939
 151        8PY         0.03533   0.01308  -0.12616  -0.13416   0.00000
 152        8PZ        -0.00458   0.02827  -0.16489  -0.18663   0.00000
 153        9PX         0.00000   0.00000   0.00000   0.00000   0.01571
 154        9PY        -0.00137   0.00325  -0.01324   0.00061   0.00000
 155        9PZ         0.00040  -0.00365  -0.01416  -0.02623   0.00000
 156       10D 0        0.00016   0.00060  -0.00264  -0.00237   0.00000
 157       10D+1        0.00000   0.00000   0.00000   0.00000   0.00189
 158       10D-1       -0.00042  -0.00079   0.00062   0.00163   0.00000
 159       10D+2       -0.00009  -0.00003  -0.00222  -0.00058   0.00000
 160       10D-2        0.00000   0.00000   0.00000   0.00000  -0.00305
 161       11D 0        0.00102   0.00171  -0.00991  -0.00866   0.00000
 162       11D+1        0.00000   0.00000   0.00000   0.00000   0.00806
 163       11D-1       -0.00402  -0.00016   0.00243   0.00610   0.00000
 164       11D+2       -0.00192   0.00124  -0.00749  -0.00191   0.00000
 165       11D-2        0.00000   0.00000   0.00000   0.00000  -0.01243
 166       12D 0        0.00188   0.00014  -0.00477  -0.00764   0.00000
 167       12D+1        0.00000   0.00000   0.00000   0.00000   0.00395
 168       12D-1       -0.00016   0.00215   0.00392  -0.00215   0.00000
 169       12D+2        0.00149   0.00179   0.00087  -0.01008   0.00000
 170       12D-2        0.00000   0.00000   0.00000   0.00000  -0.00789
 171       13F 0       -0.00011   0.00005  -0.00067  -0.00043   0.00000
 172       13F+1        0.00000   0.00000   0.00000   0.00000   0.00029
 173       13F-1       -0.00029  -0.00047   0.00173   0.00183   0.00000
 174       13F+2       -0.00031  -0.00012  -0.00041   0.00028   0.00000
 175       13F-2        0.00000   0.00000   0.00000   0.00000  -0.00165
 176       13F+3        0.00000   0.00000   0.00000   0.00000  -0.00157
 177       13F-3        0.00002  -0.00009   0.00107   0.00024   0.00000
 178       14F 0       -0.00039   0.00073  -0.00186  -0.00031   0.00000
 179       14F+1        0.00000   0.00000   0.00000   0.00000   0.00016
 180       14F-1       -0.00098  -0.00007   0.00271   0.00305   0.00000
 181       14F+2       -0.00101   0.00058  -0.00043   0.00081   0.00000
 182       14F-2        0.00000   0.00000   0.00000   0.00000  -0.00302
 183       14F+3        0.00000   0.00000   0.00000   0.00000  -0.00199
 184       14F-3        0.00066  -0.00031   0.00071   0.00086   0.00000
                          11        12        13        14        15
     Eigenvalues --     1.96815   1.96675   1.96296   1.96122   1.95628
   1 1   O  1S          0.00000   0.05052   0.00000   0.00137   0.00000
   2        2S          0.00000  -0.15206   0.00000  -0.02582   0.00000
   3        3S          0.00000  -0.04665   0.00000  -0.01179   0.00000
   4        4S          0.00000  -0.21235   0.00000  -0.13295   0.00000
   5        5S          0.00000  -0.04562   0.00000  -0.04426   0.00000
   6        6PX         0.00000   0.00000   0.00000   0.00000   0.00000
   7        6PY         0.00000   0.00000   0.23241   0.00000   0.25710
   8        6PZ         0.00000  -0.16451   0.00000  -0.26213   0.00000
   9        7PX         0.00000   0.00000   0.00000   0.00000   0.00000
  10        7PY         0.00000   0.00000   0.28365   0.00000   0.31634
  11        7PZ         0.00000  -0.19049   0.00000  -0.31489   0.00000
  12        8PX         0.00000   0.00000   0.00000   0.00000   0.00000
  13        8PY         0.00000   0.00000   0.18753   0.00000   0.21667
  14        8PZ         0.00000  -0.08004   0.00000  -0.15301   0.00000
  15        9PX         0.00000   0.00000   0.00000   0.00000   0.00000
  16        9PY         0.00000   0.00000   0.02590   0.00000   0.02927
  17        9PZ         0.00000   0.00325   0.00000  -0.00437   0.00000
  18       10D 0        0.00000   0.00729   0.00000   0.01206   0.00000
  19       10D+1        0.00000   0.00000   0.00000   0.00000   0.00000
  20       10D-1        0.00000   0.00000  -0.00761   0.00000  -0.00494
  21       10D+2        0.00000   0.00008   0.00000   0.00022   0.00000
  22       10D-2       -0.00022   0.00000   0.00000   0.00000   0.00000
  23       11D 0        0.00000   0.01229   0.00000   0.02939   0.00000
  24       11D+1        0.00000   0.00000   0.00000   0.00000   0.00000
  25       11D-1        0.00000   0.00000  -0.01863   0.00000  -0.01224
  26       11D+2        0.00000  -0.00009   0.00000   0.00114   0.00000
  27       11D-2       -0.00279   0.00000   0.00000   0.00000   0.00000
  28       12D 0        0.00000  -0.00062   0.00000   0.00483   0.00000
  29       12D+1        0.00000   0.00000   0.00000   0.00000   0.00000
  30       12D-1        0.00000   0.00000  -0.00866   0.00000  -0.00164
  31       12D+2        0.00000  -0.00062   0.00000   0.00295   0.00000
  32       12D-2       -0.00743   0.00000   0.00000   0.00000   0.00000
  33       13F 0        0.00000  -0.00250   0.00000  -0.00481   0.00000
  34       13F+1        0.00000   0.00000   0.00000   0.00000   0.00000
  35       13F-1        0.00000   0.00000   0.00416   0.00000   0.00221
  36       13F+2        0.00000  -0.00027   0.00000  -0.00069   0.00000
  37       13F-2        0.00036   0.00000   0.00000   0.00000   0.00000
  38       13F+3        0.00000   0.00000   0.00000   0.00000   0.00000
  39       13F-3        0.00000   0.00000   0.00064   0.00000   0.00094
  40       14F 0        0.00000  -0.00088   0.00000  -0.00669   0.00000
  41       14F+1        0.00000   0.00000   0.00000   0.00000   0.00000
  42       14F-1        0.00000   0.00000   0.00385   0.00000   0.00252
  43       14F+2        0.00000  -0.00011   0.00000  -0.00081   0.00000
  44       14F-2        0.00307   0.00000   0.00000   0.00000   0.00000
  45       14F+3        0.00000   0.00000   0.00000   0.00000   0.00000
  46       14F-3        0.00000   0.00000   0.00081   0.00000  -0.00077
  47 2   C  1S          0.00000  -0.14316   0.00000  -0.02104   0.00000
  48        2S          0.00000   0.39347   0.00000   0.06096   0.00000
  49        3S          0.00000   0.10185   0.00000   0.01679   0.00000
  50        4S          0.00000   0.15888   0.00000  -0.01933   0.00000
  51        5S          0.00000   0.00628   0.00000   0.00757   0.00000
  52        6PX         0.00000   0.00000   0.00000   0.00000   0.00000
  53        6PY         0.00000   0.00000   0.18030   0.00000  -0.07127
  54        6PZ         0.00000  -0.01064   0.00000   0.22931   0.00000
  55        7PX         0.00000   0.00000   0.00000   0.00000   0.00000
  56        7PY         0.00000   0.00000   0.21658   0.00000  -0.07961
  57        7PZ         0.00000  -0.02623   0.00000   0.22756   0.00000
  58        8PX         0.00000   0.00000   0.00000   0.00000   0.00000
  59        8PY         0.00000   0.00000   0.05440   0.00000  -0.01369
  60        8PZ         0.00000  -0.00306   0.00000   0.02793   0.00000
  61        9PX         0.00000   0.00000   0.00000   0.00000   0.00000
  62        9PY         0.00000   0.00000  -0.00232   0.00000  -0.00297
  63        9PZ         0.00000  -0.00002   0.00000   0.00068   0.00000
  64       10D 0        0.00000   0.00787   0.00000   0.01855   0.00000
  65       10D+1        0.00000   0.00000   0.00000   0.00000   0.00000
  66       10D-1        0.00000   0.00000   0.00086   0.00000   0.04364
  67       10D+2        0.00000  -0.00877   0.00000   0.01156   0.00000
  68       10D-2       -0.02028   0.00000   0.00000   0.00000   0.00000
  69       11D 0        0.00000   0.00303   0.00000   0.01701   0.00000
  70       11D+1        0.00000   0.00000   0.00000   0.00000   0.00000
  71       11D-1        0.00000   0.00000  -0.02246   0.00000   0.08692
  72       11D+2        0.00000  -0.02205   0.00000   0.02372   0.00000
  73       11D-2       -0.03307   0.00000   0.00000   0.00000   0.00000
  74       12D 0        0.00000   0.00130   0.00000  -0.00046   0.00000
  75       12D+1        0.00000   0.00000   0.00000   0.00000   0.00000
  76       12D-1        0.00000   0.00000  -0.00900   0.00000   0.01294
  77       12D+2        0.00000   0.00355   0.00000   0.00242   0.00000
  78       12D-2        0.00374   0.00000   0.00000   0.00000   0.00000
  79       13F 0        0.00000   0.00790   0.00000   0.00494   0.00000
  80       13F+1        0.00000   0.00000   0.00000   0.00000   0.00000
  81       13F-1        0.00000   0.00000   0.01434   0.00000   0.00451
  82       13F+2        0.00000   0.00602   0.00000  -0.00094   0.00000
  83       13F-2        0.00991   0.00000   0.00000   0.00000   0.00000
  84       13F+3        0.00000   0.00000   0.00000   0.00000   0.00000
  85       13F-3        0.00000   0.00000   0.00035   0.00000   0.00307
  86       14F 0        0.00000   0.00378   0.00000  -0.01475   0.00000
  87       14F+1        0.00000   0.00000   0.00000   0.00000   0.00000
  88       14F-1        0.00000   0.00000   0.03000   0.00000   0.01129
  89       14F+2        0.00000   0.00917   0.00000  -0.01250   0.00000
  90       14F-2        0.01517   0.00000   0.00000   0.00000   0.00000
  91       14F+3        0.00000   0.00000   0.00000   0.00000   0.00000
  92       14F-3        0.00000   0.00000   0.00326   0.00000   0.00914
  93 3   F  1S          0.00000   0.02050  -0.00462   0.00526  -0.02172
  94        2S          0.00000  -0.06332   0.02100  -0.00717   0.05286
  95        3S          0.00000  -0.02296   0.00955   0.00067   0.01367
  96        4S          0.00000  -0.12412   0.09060   0.04000  -0.01290
  97        5S          0.00000  -0.02425   0.03690   0.01367  -0.02562
  98        6PX         0.27562   0.00000   0.00000   0.00000   0.00000
  99        6PY         0.00000   0.12546  -0.17511  -0.07957   0.15519
 100        6PZ         0.00000   0.10021  -0.00727  -0.12813   0.12102
 101        7PX         0.33554   0.00000   0.00000   0.00000   0.00000
 102        7PY         0.00000   0.14935  -0.20997  -0.09910   0.19114
 103        7PZ         0.00000   0.11876  -0.00776  -0.15744   0.14857
 104        8PX         0.23070   0.00000   0.00000   0.00000   0.00000
 105        8PY         0.00000   0.06636  -0.10826  -0.04926   0.11623
 106        8PZ         0.00000   0.05448   0.00968  -0.09988   0.08254
 107        9PX         0.02480   0.00000   0.00000   0.00000   0.00000
 108        9PY         0.00000  -0.00297  -0.00504   0.00242   0.00644
 109        9PZ         0.00000   0.00092   0.01248  -0.00793   0.00814
 110       10D 0        0.00000   0.00001  -0.00006   0.00034  -0.00005
 111       10D+1        0.00178   0.00000   0.00000   0.00000   0.00000
 112       10D-1        0.00000   0.00387  -0.00320  -0.00258   0.00342
 113       10D+2        0.00000  -0.00256   0.00219   0.00212  -0.00205
 114       10D-2        0.00221   0.00000   0.00000   0.00000   0.00000
 115       11D 0        0.00000  -0.00033  -0.00231   0.00150  -0.00147
 116       11D+1        0.00710   0.00000   0.00000   0.00000   0.00000
 117       11D-1        0.00000   0.01087  -0.01149  -0.01150   0.01175
 118       11D+2        0.00000  -0.00778   0.00672   0.00836  -0.00786
 119       11D-2        0.00951   0.00000   0.00000   0.00000   0.00000
 120       12D 0        0.00000  -0.00130  -0.00745  -0.00102  -0.00403
 121       12D+1        0.00450   0.00000   0.00000   0.00000   0.00000
 122       12D-1        0.00000   0.00205  -0.00252  -0.00311   0.00240
 123       12D+2        0.00000  -0.00100  -0.00092   0.00476  -0.00527
 124       12D-2        0.00452   0.00000   0.00000   0.00000   0.00000
 125       13F 0        0.00000  -0.00099   0.00090   0.00089  -0.00095
 126       13F+1        0.00017   0.00000   0.00000   0.00000   0.00000
 127       13F-1        0.00000   0.00074  -0.00052  -0.00063   0.00083
 128       13F+2        0.00000  -0.00154   0.00160   0.00147  -0.00157
 129       13F-2        0.00150   0.00000   0.00000   0.00000   0.00000
 130       13F+3       -0.00091   0.00000   0.00000   0.00000   0.00000
 131       13F-3        0.00000  -0.00083   0.00070   0.00090  -0.00066
 132       14F 0        0.00000  -0.00087   0.00014   0.00212  -0.00204
 133       14F+1        0.00094   0.00000   0.00000   0.00000   0.00000
 134       14F-1        0.00000   0.00067  -0.00335  -0.00045   0.00042
 135       14F+2        0.00000  -0.00251   0.00265   0.00304  -0.00257
 136       14F-2        0.00254   0.00000   0.00000   0.00000   0.00000
 137       14F+3       -0.00228   0.00000   0.00000   0.00000   0.00000
 138       14F-3        0.00000  -0.00155   0.00144   0.00160  -0.00178
 139 4   F  1S          0.00000   0.02050   0.00462   0.00526   0.02172
 140        2S          0.00000  -0.06332  -0.02100  -0.00717  -0.05286
 141        3S          0.00000  -0.02296  -0.00955   0.00067  -0.01367
 142        4S          0.00000  -0.12412  -0.09060   0.04000   0.01290
 143        5S          0.00000  -0.02425  -0.03690   0.01367   0.02562
 144        6PX        -0.27562   0.00000   0.00000   0.00000   0.00000
 145        6PY         0.00000  -0.12546  -0.17511   0.07957   0.15519
 146        6PZ         0.00000   0.10021   0.00727  -0.12813  -0.12102
 147        7PX        -0.33554   0.00000   0.00000   0.00000   0.00000
 148        7PY         0.00000  -0.14935  -0.20997   0.09910   0.19114
 149        7PZ         0.00000   0.11876   0.00776  -0.15744  -0.14857
 150        8PX        -0.23070   0.00000   0.00000   0.00000   0.00000
 151        8PY         0.00000  -0.06636  -0.10826   0.04926   0.11623
 152        8PZ         0.00000   0.05448  -0.00968  -0.09988  -0.08254
 153        9PX        -0.02480   0.00000   0.00000   0.00000   0.00000
 154        9PY         0.00000   0.00297  -0.00504  -0.00242   0.00644
 155        9PZ         0.00000   0.00092  -0.01248  -0.00793  -0.00814
 156       10D 0        0.00000   0.00001   0.00006   0.00034   0.00005
 157       10D+1       -0.00178   0.00000   0.00000   0.00000   0.00000
 158       10D-1        0.00000  -0.00387  -0.00320   0.00258   0.00342
 159       10D+2        0.00000  -0.00256  -0.00219   0.00212   0.00205
 160       10D-2        0.00221   0.00000   0.00000   0.00000   0.00000
 161       11D 0        0.00000  -0.00033   0.00231   0.00150   0.00147
 162       11D+1       -0.00710   0.00000   0.00000   0.00000   0.00000
 163       11D-1        0.00000  -0.01087  -0.01149   0.01150   0.01175
 164       11D+2        0.00000  -0.00778  -0.00672   0.00836   0.00786
 165       11D-2        0.00951   0.00000   0.00000   0.00000   0.00000
 166       12D 0        0.00000  -0.00130   0.00745  -0.00102   0.00403
 167       12D+1       -0.00450   0.00000   0.00000   0.00000   0.00000
 168       12D-1        0.00000  -0.00205  -0.00252   0.00311   0.00240
 169       12D+2        0.00000  -0.00100   0.00092   0.00476   0.00527
 170       12D-2        0.00452   0.00000   0.00000   0.00000   0.00000
 171       13F 0        0.00000  -0.00099  -0.00090   0.00089   0.00095
 172       13F+1       -0.00017   0.00000   0.00000   0.00000   0.00000
 173       13F-1        0.00000  -0.00074  -0.00052   0.00063   0.00083
 174       13F+2        0.00000  -0.00154  -0.00160   0.00147   0.00157
 175       13F-2        0.00150   0.00000   0.00000   0.00000   0.00000
 176       13F+3        0.00091   0.00000   0.00000   0.00000   0.00000
 177       13F-3        0.00000   0.00083   0.00070  -0.00090  -0.00066
 178       14F 0        0.00000  -0.00087  -0.00014   0.00212   0.00204
 179       14F+1       -0.00094   0.00000   0.00000   0.00000   0.00000
 180       14F-1        0.00000  -0.00067  -0.00335   0.00045   0.00042
 181       14F+2        0.00000  -0.00251  -0.00265   0.00304   0.00257
 182       14F-2        0.00254   0.00000   0.00000   0.00000   0.00000
 183       14F+3        0.00228   0.00000   0.00000   0.00000   0.00000
 184       14F-3        0.00000   0.00155   0.00144  -0.00160  -0.00178
                          16        17        18        19        20
     Eigenvalues --     1.93993   0.05890   0.03796   0.03613   0.02446
   1 1   O  1S          0.00000   0.00000  -0.03412   0.00000   0.07142
   2        2S          0.00000   0.00000   0.14000   0.00000  -0.27659
   3        3S          0.00000   0.00000   0.05085   0.00000  -0.11579
   4        4S          0.00000   0.00000   0.17848   0.00000  -0.49848
   5        5S          0.00000   0.00000   0.08352   0.00000  -0.20209
   6        6PX         0.30118  -0.35162   0.00000   0.00000   0.00000
   7        6PY         0.00000   0.00000   0.00000   0.34381   0.00000
   8        6PZ         0.00000   0.00000  -0.19203   0.00000   0.34680
   9        7PX         0.37592  -0.39420   0.00000   0.00000   0.00000
  10        7PY         0.00000   0.00000   0.00000   0.31089   0.00000
  11        7PZ         0.00000   0.00000  -0.21991   0.00000   0.43103
  12        8PX         0.23990  -0.06914   0.00000   0.00000   0.00000
  13        8PY         0.00000   0.00000   0.00000  -0.05286   0.00000
  14        8PZ         0.00000   0.00000   0.03185   0.00000   0.16040
  15        9PX         0.01513  -0.00760   0.00000   0.00000   0.00000
  16        9PY         0.00000   0.00000   0.00000  -0.03217   0.00000
  17        9PZ         0.00000   0.00000  -0.00524   0.00000   0.02026
  18       10D 0        0.00000   0.00000  -0.00333   0.00000   0.03091
  19       10D+1       -0.01117  -0.01642   0.00000   0.00000   0.00000
  20       10D-1        0.00000   0.00000   0.00000   0.02806   0.00000
  21       10D+2        0.00000   0.00000  -0.00365   0.00000   0.00117
  22       10D-2        0.00000   0.00000   0.00000   0.00000   0.00000
  23       11D 0        0.00000   0.00000   0.00334   0.00000   0.02470
  24       11D+1       -0.02917  -0.01838   0.00000   0.00000   0.00000
  25       11D-1        0.00000   0.00000   0.00000   0.05167   0.00000
  26       11D+2        0.00000   0.00000  -0.00289   0.00000   0.00050
  27       11D-2        0.00000   0.00000   0.00000   0.00000   0.00000
  28       12D 0        0.00000   0.00000  -0.03360   0.00000  -0.02955
  29       12D+1       -0.00931   0.01921   0.00000   0.00000   0.00000
  30       12D-1        0.00000   0.00000   0.00000   0.00481   0.00000
  31       12D+2        0.00000   0.00000   0.00502   0.00000   0.00142
  32       12D-2        0.00000   0.00000   0.00000   0.00000   0.00000
  33       13F 0        0.00000   0.00000  -0.00317   0.00000  -0.00194
  34       13F+1        0.00585   0.00447   0.00000   0.00000   0.00000
  35       13F-1        0.00000   0.00000   0.00000  -0.00705   0.00000
  36       13F+2        0.00000   0.00000  -0.00174   0.00000   0.00150
  37       13F-2        0.00000   0.00000   0.00000   0.00000   0.00000
  38       13F+3        0.00100  -0.00261   0.00000   0.00000   0.00000
  39       13F-3        0.00000   0.00000   0.00000   0.00178   0.00000
  40       14F 0        0.00000   0.00000   0.00031   0.00000  -0.00842
  41       14F+1        0.00367  -0.00391   0.00000   0.00000   0.00000
  42       14F-1        0.00000   0.00000   0.00000  -0.00482   0.00000
  43       14F+2        0.00000   0.00000  -0.00254   0.00000  -0.00281
  44       14F-2        0.00000   0.00000   0.00000   0.00000   0.00000
  45       14F+3        0.00058  -0.00165   0.00000   0.00000   0.00000
  46       14F-3        0.00000   0.00000   0.00000   0.00200   0.00000
  47 2   C  1S          0.00000   0.00000   0.17786   0.00000  -0.06120
  48        2S          0.00000   0.00000  -0.61379   0.00000   0.26380
  49        3S          0.00000   0.00000  -0.18684   0.00000   0.12219
  50        4S          0.00000   0.00000  -0.46180   0.00000   0.19813
  51        5S          0.00000   0.00000  -0.03959   0.00000   0.04178
  52        6PX         0.18306   0.32829   0.00000   0.00000   0.00000
  53        6PY         0.00000   0.00000   0.00000  -0.34458   0.00000
  54        6PZ         0.00000   0.00000   0.11879   0.00000   0.34769
  55        7PX         0.23342   0.46544   0.00000   0.00000   0.00000
  56        7PY         0.00000   0.00000   0.00000  -0.60092   0.00000
  57        7PZ         0.00000   0.00000   0.20080   0.00000   0.67752
  58        8PX         0.08721   0.14001   0.00000   0.00000   0.00000
  59        8PY         0.00000   0.00000   0.00000  -0.13444   0.00000
  60        8PZ         0.00000   0.00000  -0.03275   0.00000   0.14212
  61        9PX         0.00844   0.00755   0.00000   0.00000   0.00000
  62        9PY         0.00000   0.00000   0.00000  -0.00363   0.00000
  63        9PZ         0.00000   0.00000   0.00295   0.00000   0.00736
  64       10D 0        0.00000   0.00000   0.00460   0.00000  -0.03226
  65       10D+1        0.02595   0.00949   0.00000   0.00000   0.00000
  66       10D-1        0.00000   0.00000   0.00000  -0.02142   0.00000
  67       10D+2        0.00000   0.00000  -0.00058   0.00000  -0.00297
  68       10D-2        0.00000   0.00000   0.00000   0.00000   0.00000
  69       11D 0        0.00000   0.00000  -0.02312   0.00000   0.02854
  70       11D+1        0.04513   0.06073   0.00000   0.00000   0.00000
  71       11D-1        0.00000   0.00000   0.00000   0.07328   0.00000
  72       11D+2        0.00000   0.00000   0.06280   0.00000   0.02955
  73       11D-2        0.00000   0.00000   0.00000   0.00000   0.00000
  74       12D 0        0.00000   0.00000  -0.04088   0.00000   0.04570
  75       12D+1        0.00510   0.02204   0.00000   0.00000   0.00000
  76       12D-1        0.00000   0.00000   0.00000  -0.01217   0.00000
  77       12D+2        0.00000   0.00000   0.00522   0.00000   0.01106
  78       12D-2        0.00000   0.00000   0.00000   0.00000   0.00000
  79       13F 0        0.00000   0.00000  -0.00475   0.00000   0.01206
  80       13F+1        0.00770   0.01612   0.00000   0.00000   0.00000
  81       13F-1        0.00000   0.00000   0.00000  -0.02680   0.00000
  82       13F+2        0.00000   0.00000  -0.02828   0.00000  -0.01295
  83       13F-2        0.00000   0.00000   0.00000   0.00000   0.00000
  84       13F+3        0.00062  -0.00459   0.00000   0.00000   0.00000
  85       13F-3        0.00000   0.00000   0.00000   0.01194   0.00000
  86       14F 0        0.00000   0.00000  -0.04420   0.00000   0.00412
  87       14F+1        0.00769   0.02708   0.00000   0.00000   0.00000
  88       14F-1        0.00000   0.00000   0.00000  -0.15027   0.00000
  89       14F+2        0.00000   0.00000  -0.03850   0.00000  -0.00673
  90       14F-2        0.00000   0.00000   0.00000   0.00000   0.00000
  91       14F+3        0.00402   0.00755   0.00000   0.00000   0.00000
  92       14F-3        0.00000   0.00000   0.00000  -0.03313   0.00000
  93 3   F  1S          0.00000   0.00000  -0.05258   0.04548  -0.01866
  94        2S          0.00000   0.00000   0.16348  -0.13280   0.04448
  95        3S          0.00000   0.00000   0.07428  -0.06636   0.02871
  96        4S          0.00000   0.00000   0.22157  -0.25149   0.10960
  97        5S          0.00000   0.00000   0.05308  -0.07764   0.05759
  98        6PX        -0.05779  -0.18564   0.00000   0.00000   0.00000
  99        6PY         0.00000   0.00000   0.28146  -0.10444   0.21473
 100        6PZ         0.00000   0.00000   0.14669  -0.22330  -0.17637
 101        7PX        -0.06986  -0.15258   0.00000   0.00000   0.00000
 102        7PY         0.00000   0.00000   0.26981  -0.13735   0.13758
 103        7PZ         0.00000   0.00000   0.15919  -0.19141  -0.06703
 104        8PX        -0.06367   0.02673   0.00000   0.00000   0.00000
 105        8PY         0.00000   0.00000  -0.00210  -0.19609  -0.07782
 106        8PZ         0.00000   0.00000   0.03773   0.09488   0.21841
 107        9PX        -0.01936  -0.00303   0.00000   0.00000   0.00000
 108        9PY         0.00000   0.00000   0.00400  -0.01156  -0.01281
 109        9PZ         0.00000   0.00000  -0.00808  -0.01094   0.03749
 110       10D 0        0.00000   0.00000   0.00231   0.00553   0.01261
 111       10D+1        0.00084   0.00409   0.00000   0.00000   0.00000
 112       10D-1        0.00000   0.00000  -0.01071   0.01137   0.00075
 113       10D+2        0.00000   0.00000   0.00878  -0.00427   0.01273
 114       10D-2        0.00077   0.00560   0.00000   0.00000   0.00000
 115       11D 0        0.00000   0.00000   0.00841   0.02753   0.03883
 116       11D+1        0.00261   0.01551   0.00000   0.00000   0.00000
 117       11D-1        0.00000   0.00000  -0.01235   0.01973   0.01260
 118       11D+2        0.00000   0.00000   0.01324   0.00212   0.03087
 119       11D-2        0.00199   0.01953   0.00000   0.00000   0.00000
 120       12D 0        0.00000   0.00000   0.00659   0.06599   0.02257
 121       12D+1        0.00226   0.01044   0.00000   0.00000   0.00000
 122       12D-1        0.00000   0.00000  -0.00535   0.00152   0.03140
 123       12D+2        0.00000   0.00000   0.01239   0.04375   0.00011
 124       12D-2       -0.00159   0.00430   0.00000   0.00000   0.00000
 125       13F 0        0.00000   0.00000  -0.00052   0.00079   0.00155
 126       13F+1        0.00018   0.00052   0.00000   0.00000   0.00000
 127       13F-1        0.00000   0.00000   0.00119   0.00072   0.00312
 128       13F+2        0.00000   0.00000  -0.00143  -0.00048  -0.00038
 129       13F-2        0.00040   0.00085   0.00000   0.00000   0.00000
 130       13F+3       -0.00045  -0.00213   0.00000   0.00000   0.00000
 131       13F-3        0.00000   0.00000   0.00041   0.00073   0.00248
 132       14F 0        0.00000   0.00000   0.00248   0.00483   0.00118
 133       14F+1        0.00072   0.00146   0.00000   0.00000   0.00000
 134       14F-1        0.00000   0.00000   0.00067   0.01145   0.00485
 135       14F+2        0.00000   0.00000   0.00346   0.00016   0.00141
 136       14F-2        0.00052   0.00404   0.00000   0.00000   0.00000
 137       14F+3        0.00080   0.00084   0.00000   0.00000   0.00000
 138       14F-3        0.00000   0.00000  -0.00010   0.00071   0.00144
 139 4   F  1S          0.00000   0.00000  -0.05258  -0.04548  -0.01866
 140        2S          0.00000   0.00000   0.16348   0.13280   0.04448
 141        3S          0.00000   0.00000   0.07428   0.06636   0.02871
 142        4S          0.00000   0.00000   0.22157   0.25149   0.10960
 143        5S          0.00000   0.00000   0.05308   0.07764   0.05759
 144        6PX        -0.05779  -0.18564   0.00000   0.00000   0.00000
 145        6PY         0.00000   0.00000  -0.28146  -0.10444  -0.21473
 146        6PZ         0.00000   0.00000   0.14669   0.22330  -0.17637
 147        7PX        -0.06986  -0.15258   0.00000   0.00000   0.00000
 148        7PY         0.00000   0.00000  -0.26981  -0.13735  -0.13758
 149        7PZ         0.00000   0.00000   0.15919   0.19141  -0.06703
 150        8PX        -0.06367   0.02673   0.00000   0.00000   0.00000
 151        8PY         0.00000   0.00000   0.00210  -0.19609   0.07782
 152        8PZ         0.00000   0.00000   0.03773  -0.09488   0.21841
 153        9PX        -0.01936  -0.00303   0.00000   0.00000   0.00000
 154        9PY         0.00000   0.00000  -0.00400  -0.01156   0.01281
 155        9PZ         0.00000   0.00000  -0.00808   0.01094   0.03749
 156       10D 0        0.00000   0.00000   0.00231  -0.00553   0.01261
 157       10D+1        0.00084   0.00409   0.00000   0.00000   0.00000
 158       10D-1        0.00000   0.00000   0.01071   0.01137  -0.00075
 159       10D+2        0.00000   0.00000   0.00878   0.00427   0.01273
 160       10D-2       -0.00077  -0.00560   0.00000   0.00000   0.00000
 161       11D 0        0.00000   0.00000   0.00841  -0.02753   0.03883
 162       11D+1        0.00261   0.01551   0.00000   0.00000   0.00000
 163       11D-1        0.00000   0.00000   0.01235   0.01973  -0.01260
 164       11D+2        0.00000   0.00000   0.01324  -0.00212   0.03087
 165       11D-2       -0.00199  -0.01953   0.00000   0.00000   0.00000
 166       12D 0        0.00000   0.00000   0.00659  -0.06599   0.02257
 167       12D+1        0.00226   0.01044   0.00000   0.00000   0.00000
 168       12D-1        0.00000   0.00000   0.00535   0.00152  -0.03140
 169       12D+2        0.00000   0.00000   0.01239  -0.04375   0.00011
 170       12D-2        0.00159  -0.00430   0.00000   0.00000   0.00000
 171       13F 0        0.00000   0.00000  -0.00052  -0.00079   0.00155
 172       13F+1        0.00018   0.00052   0.00000   0.00000   0.00000
 173       13F-1        0.00000   0.00000  -0.00119   0.00072  -0.00312
 174       13F+2        0.00000   0.00000  -0.00143   0.00048  -0.00038
 175       13F-2       -0.00040  -0.00085   0.00000   0.00000   0.00000
 176       13F+3       -0.00045  -0.00213   0.00000   0.00000   0.00000
 177       13F-3        0.00000   0.00000  -0.00041   0.00073  -0.00248
 178       14F 0        0.00000   0.00000   0.00248  -0.00483   0.00118
 179       14F+1        0.00072   0.00146   0.00000   0.00000   0.00000
 180       14F-1        0.00000   0.00000  -0.00067   0.01145  -0.00485
 181       14F+2        0.00000   0.00000   0.00346  -0.00016   0.00141
 182       14F-2       -0.00052  -0.00404   0.00000   0.00000   0.00000
 183       14F+3        0.00080   0.00084   0.00000   0.00000   0.00000
 184       14F-3        0.00000   0.00000   0.00010   0.00071  -0.00144
                          21        22        23        24        25
     Eigenvalues --     0.01543   0.01405   0.01393   0.01351   0.01081
   1 1   O  1S         -0.03456   0.00000   0.00000   0.00000  -0.23975
   2        2S          0.06946   0.00000   0.00000   0.00000   0.78011
   3        3S          0.11267   0.00000   0.00000   0.00000   0.65853
   4        4S         -0.79635   0.00000   0.00000   0.00000  -1.19608
   5        5S         -0.45393   0.00000   0.00000   0.00000  -0.29228
   6        6PX         0.00000   0.00000   0.26043   0.00000   0.00000
   7        6PY         0.00000   0.00000   0.00000   0.30555   0.00000
   8        6PZ         0.30201   0.00000   0.00000   0.00000   0.20687
   9        7PX         0.00000   0.00000   0.19845   0.00000   0.00000
  10        7PY         0.00000   0.00000   0.00000   0.16440   0.00000
  11        7PZ         0.29809   0.00000   0.00000   0.00000  -0.03026
  12        8PX         0.00000   0.00000  -0.14172   0.00000   0.00000
  13        8PY         0.00000   0.00000   0.00000  -0.18777   0.00000
  14        8PZ         0.03810   0.00000   0.00000   0.00000  -0.10090
  15        9PX         0.00000   0.00000  -0.03205   0.00000   0.00000
  16        9PY         0.00000   0.00000   0.00000   0.00118   0.00000
  17        9PZ         0.05861   0.00000   0.00000   0.00000   0.00003
  18       10D 0        0.05492   0.00000   0.00000   0.00000  -0.01832
  19       10D+1        0.00000   0.00000   0.04041   0.00000   0.00000
  20       10D-1        0.00000   0.00000   0.00000  -0.00762   0.00000
  21       10D+2        0.01336   0.00000   0.00000   0.00000  -0.02075
  22       10D-2        0.00000  -0.02363   0.00000   0.00000   0.00000
  23       11D 0        0.08939   0.00000   0.00000   0.00000  -0.06605
  24       11D+1        0.00000   0.00000   0.07466   0.00000   0.00000
  25       11D-1        0.00000   0.00000   0.00000  -0.04632   0.00000
  26       11D+2        0.04562   0.00000   0.00000   0.00000  -0.00700
  27       11D-2        0.00000  -0.07502   0.00000   0.00000   0.00000
  28       12D 0        0.02325   0.00000   0.00000   0.00000  -0.05098
  29       12D+1        0.00000   0.00000  -0.01590   0.00000   0.00000
  30       12D-1        0.00000   0.00000   0.00000  -0.05105   0.00000
  31       12D+2        0.01873   0.00000   0.00000   0.00000   0.01135
  32       12D-2        0.00000  -0.05469   0.00000   0.00000   0.00000
  33       13F 0       -0.01008   0.00000   0.00000   0.00000   0.00125
  34       13F+1        0.00000   0.00000  -0.00667   0.00000   0.00000
  35       13F-1        0.00000   0.00000   0.00000   0.00563   0.00000
  36       13F+2       -0.00437   0.00000   0.00000   0.00000   0.00209
  37       13F-2        0.00000   0.00543   0.00000   0.00000   0.00000
  38       13F+3        0.00000   0.00000  -0.00073   0.00000   0.00000
  39       13F-3        0.00000   0.00000   0.00000  -0.00141   0.00000
  40       14F 0       -0.02598   0.00000   0.00000   0.00000   0.02175
  41       14F+1        0.00000   0.00000  -0.01063   0.00000   0.00000
  42       14F-1        0.00000   0.00000   0.00000   0.00416   0.00000
  43       14F+2       -0.00057   0.00000   0.00000   0.00000  -0.00152
  44       14F-2        0.00000   0.02816   0.00000   0.00000   0.00000
  45       14F+3        0.00000   0.00000   0.00647   0.00000   0.00000
  46       14F-3        0.00000   0.00000   0.00000   0.01275   0.00000
  47 2   C  1S         -0.03897   0.00000   0.00000   0.00000   0.00907
  48        2S          0.16974   0.00000   0.00000   0.00000   0.05540
  49        3S          0.11832   0.00000   0.00000   0.00000   0.05511
  50        4S         -0.13091   0.00000   0.00000   0.00000   0.19888
  51        5S          0.06212   0.00000   0.00000   0.00000   0.06120
  52        6PX         0.00000   0.00000  -0.12277   0.00000   0.00000
  53        6PY         0.00000   0.00000   0.00000   0.22242   0.00000
  54        6PZ         0.33406   0.00000   0.00000   0.00000  -0.11676
  55        7PX         0.00000   0.00000  -0.17935   0.00000   0.00000
  56        7PY         0.00000   0.00000   0.00000   0.48365   0.00000
  57        7PZ         0.50068   0.00000   0.00000   0.00000  -0.00809
  58        8PX         0.00000   0.00000  -0.16466   0.00000   0.00000
  59        8PY         0.00000   0.00000   0.00000   0.44498   0.00000
  60        8PZ         0.45270   0.00000   0.00000   0.00000  -0.02903
  61        9PX         0.00000   0.00000  -0.00791   0.00000   0.00000
  62        9PY         0.00000   0.00000   0.00000  -0.00679   0.00000
  63        9PZ         0.01987   0.00000   0.00000   0.00000   0.00462
  64       10D 0        0.05983   0.00000   0.00000   0.00000  -0.02907
  65       10D+1        0.00000   0.00000  -0.10893   0.00000   0.00000
  66       10D-1        0.00000   0.00000   0.00000  -0.08534   0.00000
  67       10D+2        0.04686   0.00000   0.00000   0.00000  -0.02688
  68       10D-2        0.00000  -0.09141   0.00000   0.00000   0.00000
  69       11D 0        0.18711   0.00000   0.00000   0.00000  -0.12451
  70       11D+1        0.00000   0.00000  -0.20970   0.00000   0.00000
  71       11D-1        0.00000   0.00000   0.00000  -0.47302   0.00000
  72       11D+2        0.18283   0.00000   0.00000   0.00000  -0.04075
  73       11D-2        0.00000  -0.14003   0.00000   0.00000   0.00000
  74       12D 0        0.05033   0.00000   0.00000   0.00000   0.03143
  75       12D+1        0.00000   0.00000  -0.00718   0.00000   0.00000
  76       12D-1        0.00000   0.00000   0.00000  -0.19051   0.00000
  77       12D+2        0.04421   0.00000   0.00000   0.00000   0.00634
  78       12D-2        0.00000   0.02588   0.00000   0.00000   0.00000
  79       13F 0       -0.01337   0.00000   0.00000   0.00000  -0.00529
  80       13F+1        0.00000   0.00000  -0.00720   0.00000   0.00000
  81       13F-1        0.00000   0.00000   0.00000   0.04317   0.00000
  82       13F+2       -0.01539   0.00000   0.00000   0.00000  -0.00683
  83       13F-2        0.00000   0.02989   0.00000   0.00000   0.00000
  84       13F+3        0.00000   0.00000  -0.02662   0.00000   0.00000
  85       13F-3        0.00000   0.00000   0.00000  -0.01153   0.00000
  86       14F 0       -0.06821   0.00000   0.00000   0.00000  -0.05241
  87       14F+1        0.00000   0.00000  -0.04877   0.00000   0.00000
  88       14F-1        0.00000   0.00000   0.00000  -0.12195   0.00000
  89       14F+2       -0.07428   0.00000   0.00000   0.00000  -0.00437
  90       14F-2        0.00000   0.06323   0.00000   0.00000   0.00000
  91       14F+3        0.00000   0.00000  -0.00795   0.00000   0.00000
  92       14F-3        0.00000   0.00000   0.00000  -0.07167   0.00000
  93 3   F  1S          0.01377   0.00000   0.00000   0.04904  -0.02381
  94        2S         -0.02465   0.00000   0.00000  -0.12192   0.05831
  95        3S         -0.03752   0.00000   0.00000  -0.13580   0.06090
  96        4S          0.34186   0.00000   0.00000   0.69043  -0.12361
  97        5S          0.23632   0.00000   0.00000   0.53777  -0.00749
  98        6PX         0.00000  -0.45574  -0.39961   0.00000   0.00000
  99        6PY        -0.09409   0.00000   0.00000   0.34093   0.03606
 100        6PZ         0.32888   0.00000   0.00000  -0.00621  -0.12333
 101        7PX         0.00000  -0.13739  -0.11698   0.00000   0.00000
 102        7PY         0.01318   0.00000   0.00000   0.17905   0.00562
 103        7PZ         0.13936   0.00000   0.00000   0.05947  -0.02260
 104        8PX         0.00000   0.51834   0.50814   0.00000   0.00000
 105        8PY         0.20647   0.00000   0.00000  -0.25380  -0.05502
 106        8PZ        -0.27563   0.00000   0.00000   0.29192   0.14552
 107        9PX         0.00000   0.08130   0.07645   0.00000   0.00000
 108        9PY         0.05562   0.00000   0.00000   0.05433  -0.01306
 109        9PZ        -0.00248   0.00000   0.00000   0.05149   0.02333
 110       10D 0       -0.00130   0.00000   0.00000   0.00319   0.00030
 111       10D+1        0.00000   0.01494  -0.00433   0.00000   0.00000
 112       10D-1       -0.01417   0.00000   0.00000  -0.02560   0.01739
 113       10D+2        0.00479   0.00000   0.00000   0.00999  -0.00173
 114       10D-2        0.00000   0.00813   0.01382   0.00000   0.00000
 115       11D 0        0.00266   0.00000   0.00000   0.00593  -0.00259
 116       11D+1        0.00000   0.04186  -0.00809   0.00000   0.00000
 117       11D-1       -0.02488   0.00000   0.00000  -0.04689   0.05120
[...]
 113       10D+2        0.02583  -0.01870   0.00000  -0.00580   0.01096
 114       10D-2        0.00000   0.00000  -0.01030   0.00000   0.00000
 115       11D 0        0.04963  -0.04715   0.00000  -0.06860  -0.01146
 116       11D+1        0.00000   0.00000  -0.11032   0.00000   0.00000
 117       11D-1        0.07468  -0.08258   0.00000  -0.03565   0.01523
 118       11D+2       -0.09524   0.05717   0.00000   0.02476  -0.03440
 119       11D-2        0.00000   0.00000   0.02396   0.00000   0.00000
 120       12D 0        0.42678   0.10449   0.00000   0.18856   0.51655
 121       12D+1        0.00000   0.00000   0.26061   0.00000   0.00000
 122       12D-1        0.72027   0.50338   0.00000  -0.00312   0.30712
 123       12D+2        0.11431  -0.12051   0.00000  -0.17768   0.10093
 124       12D-2        0.00000   0.00000  -0.00718   0.00000   0.00000
 125       13F 0        0.00445   0.02253   0.00000  -0.01386  -0.00293
 126       13F+1        0.00000   0.00000   0.00423   0.00000   0.00000
 127       13F-1       -0.04945   0.02229   0.00000   0.00257  -0.01143
 128       13F+2        0.02732  -0.03349   0.00000   0.00068   0.00560
 129       13F-2        0.00000   0.00000   0.01545   0.00000   0.00000
 130       13F+3        0.00000   0.00000   0.00761   0.00000   0.00000
 131       13F-3       -0.00903  -0.01954   0.00000   0.01636   0.00876
 132       14F 0       -0.02122  -0.05362   0.00000   0.04422   0.02032
 133       14F+1        0.00000   0.00000  -0.00246   0.00000   0.00000
 134       14F-1        0.16003  -0.04593   0.00000   0.00245   0.06760
 135       14F+2       -0.08427   0.05845   0.00000  -0.01207  -0.02549
 136       14F-2        0.00000   0.00000  -0.04167   0.00000   0.00000
 137       14F+3        0.00000   0.00000  -0.00770   0.00000   0.00000
 138       14F-3        0.01638   0.04401   0.00000  -0.04693  -0.01486
 139 4   F  1S          0.09297  -0.11301   0.00000   0.01870  -0.00568
 140        2S          0.41905  -0.48549   0.00000   0.07111   0.00351
 141        3S         -0.07623   0.11990   0.00000  -0.02605   0.03604
 142        4S         -1.46633   3.35529   0.00000  -1.69895  -0.46847
 143        5S          1.58177   6.22595   0.00000   2.55906  -2.81626
 144        6PX         0.00000   0.00000  -0.00367   0.00000   0.00000
 145        6PY         0.00302  -0.00722   0.00000  -0.01185   0.01158
 146        6PZ         0.01795   0.00428   0.00000  -0.00304  -0.00696
 147        7PX         0.00000   0.00000   0.00852   0.00000   0.00000
 148        7PY        -0.00190   0.01893   0.00000   0.09727  -0.05893
 149        7PZ        -0.09423  -0.01375   0.00000  -0.03260   0.06002
 150        8PX         0.00000   0.00000   0.12500   0.00000   0.00000
 151        8PY         0.59144  -1.22894   0.00000   0.10131   0.30795
 152        8PZ        -1.60360   1.31623   0.00000  -0.47743  -1.43623
 153        9PX         0.00000   0.00000  -0.08350   0.00000   0.00000
 154        9PY        -1.75797  -1.37218   0.00000  -0.23391  -0.63292
 155        9PZ         1.65342   3.31800   0.00000   2.35055  -0.82152
 156       10D 0        0.00959   0.01330   0.00000   0.02023  -0.00389
 157       10D+1        0.00000   0.00000   0.03108   0.00000   0.00000
 158       10D-1       -0.01292  -0.02399   0.00000  -0.00386  -0.00208
 159       10D+2       -0.02583  -0.01870   0.00000  -0.00580  -0.01096
 160       10D-2        0.00000   0.00000   0.01030   0.00000   0.00000
 161       11D 0       -0.04963  -0.04715   0.00000  -0.06860   0.01146
 162       11D+1        0.00000   0.00000  -0.11032   0.00000   0.00000
 163       11D-1        0.07468   0.08258   0.00000   0.03565   0.01523
 164       11D+2        0.09524   0.05717   0.00000   0.02476   0.03440
 165       11D-2        0.00000   0.00000  -0.02396   0.00000   0.00000
 166       12D 0       -0.42678   0.10449   0.00000   0.18856  -0.51655
 167       12D+1        0.00000   0.00000   0.26061   0.00000   0.00000
 168       12D-1        0.72027  -0.50338   0.00000   0.00312   0.30712
 169       12D+2       -0.11431  -0.12051   0.00000  -0.17768  -0.10093
 170       12D-2        0.00000   0.00000   0.00718   0.00000   0.00000
 171       13F 0       -0.00445   0.02253   0.00000  -0.01386   0.00293
 172       13F+1        0.00000   0.00000   0.00423   0.00000   0.00000
 173       13F-1       -0.04945  -0.02229   0.00000  -0.00257  -0.01143
 174       13F+2       -0.02732  -0.03349   0.00000   0.00068  -0.00560
 175       13F-2        0.00000   0.00000  -0.01545   0.00000   0.00000
 176       13F+3        0.00000   0.00000   0.00761   0.00000   0.00000
 177       13F-3       -0.00903   0.01954   0.00000  -0.01636   0.00876
 178       14F 0        0.02122  -0.05362   0.00000   0.04422  -0.02032
 179       14F+1        0.00000   0.00000  -0.00246   0.00000   0.00000
 180       14F-1        0.16003   0.04593   0.00000  -0.00245   0.06760
 181       14F+2        0.08427   0.05845   0.00000  -0.01207   0.02549
 182       14F-2        0.00000   0.00000   0.04167   0.00000   0.00000
 183       14F+3        0.00000   0.00000  -0.00770   0.00000   0.00000
 184       14F-3        0.01638  -0.04401   0.00000   0.04693  -0.01486
                         181       182       183       184
     Eigenvalues --     0.00000   0.00000   0.00000   0.00000
   1 1   O  1S          0.00000   0.00000   0.11013  -0.05385
   2        2S          0.00000   0.00000   0.54797  -0.26820
   3        3S          0.00000   0.00000  -0.04467   0.02674
   4        4S          0.00000   0.00000  -3.01408   6.92454
   5        5S          0.00000   0.00000 -10.68037  16.14229
   6        6PX         0.01327   0.00000   0.00000   0.00000
   7        6PY         0.00000  -0.00246   0.00000   0.00000
   8        6PZ         0.00000   0.00000   0.01195  -0.00425
   9        7PX        -0.03638   0.00000   0.00000   0.00000
  10        7PY         0.00000   0.00707   0.00000   0.00000
  11        7PZ         0.00000   0.00000  -0.06989  -0.12455
  12        8PX         0.67994   0.00000   0.00000   0.00000
  13        8PY         0.00000  -1.80881   0.00000   0.00000
  14        8PZ         0.00000   0.00000   2.76473  -3.07033
  15        9PX        -1.58288   0.00000   0.00000   0.00000
  16        9PY         0.00000  -4.26430   0.00000   0.00000
  17        9PZ         0.00000   0.00000   2.87130  -3.45994
  18       10D 0        0.00000   0.00000   0.01864  -0.00456
  19       10D+1        0.00904   0.00000   0.00000   0.00000
  20       10D-1        0.00000   0.00151   0.00000   0.00000
  21       10D+2        0.00000   0.00000  -0.00001  -0.00660
  22       10D-2        0.00000   0.00000   0.00000   0.00000
  23       11D 0        0.00000   0.00000  -0.14394   0.09020
  24       11D+1       -0.09655   0.00000   0.00000   0.00000
  25       11D-1        0.00000   0.08285   0.00000   0.00000
  26       11D+2        0.00000   0.00000  -0.00177   0.02790
  27       11D-2        0.00000   0.00000   0.00000   0.00000
  28       12D 0        0.00000   0.00000  -0.79015   0.24552
  29       12D+1       -0.08527   0.00000   0.00000   0.00000
  30       12D-1        0.00000   1.07437   0.00000   0.00000
  31       12D+2        0.00000   0.00000  -0.03444   0.11488
  32       12D-2        0.00000   0.00000   0.00000   0.00000
  33       13F 0        0.00000   0.00000   0.00261  -0.02165
  34       13F+1        0.00282   0.00000   0.00000   0.00000
  35       13F-1        0.00000   0.01550   0.00000   0.00000
  36       13F+2        0.00000   0.00000  -0.00213   0.01978
  37       13F-2        0.00000   0.00000   0.00000   0.00000
  38       13F+3       -0.00216   0.00000   0.00000   0.00000
  39       13F-3        0.00000  -0.00155   0.00000   0.00000
  40       14F 0        0.00000   0.00000   0.11048   0.04213
  41       14F+1        0.05141   0.00000   0.00000   0.00000
  42       14F-1        0.00000  -0.18069   0.00000   0.00000
  43       14F+2        0.00000   0.00000   0.01216  -0.06805
  44       14F-2        0.00000   0.00000   0.00000   0.00000
  45       14F+3        0.02128   0.00000   0.00000   0.00000
  46       14F-3        0.00000   0.01905   0.00000   0.00000
  47 2   C  1S          0.00000   0.00000   0.06341  -0.07692
  48        2S          0.00000   0.00000   0.39089  -0.40997
  49        3S          0.00000   0.00000   0.20331   0.18752
  50        4S          0.00000   0.00000  -4.57468 -18.09514
  51        5S          0.00000   0.00000  -0.51662  -9.91674
  52        6PX        -0.00549   0.00000   0.00000   0.00000
  53        6PY         0.00000   0.02243   0.00000   0.00000
  54        6PZ         0.00000   0.00000  -0.01875   0.00532
  55        7PX        -0.06889   0.00000   0.00000   0.00000
  56        7PY         0.00000  -1.21555   0.00000   0.00000
  57        7PZ         0.00000   0.00000   1.63483  -0.15619
  58        8PX         0.72444   0.00000   0.00000   0.00000
  59        8PY         0.00000  -8.13003   0.00000   0.00000
  60        8PZ         0.00000   0.00000   7.31685  -5.06412
  61        9PX         3.16236   0.00000   0.00000   0.00000
  62        9PY         0.00000   2.38196   0.00000   0.00000
  63        9PZ         0.00000   0.00000   1.94135  -0.00520
  64       10D 0        0.00000   0.00000   0.01764   0.03496
  65       10D+1        0.00573   0.00000   0.00000   0.00000
  66       10D-1        0.00000  -0.01219   0.00000   0.00000
  67       10D+2        0.00000   0.00000  -0.00622  -0.02090
  68       10D-2        0.00000   0.00000   0.00000   0.00000
  69       11D 0        0.00000   0.00000   0.39569  -0.96818
  70       11D+1       -0.32152   0.00000   0.00000   0.00000
  71       11D-1        0.00000   2.32478   0.00000   0.00000
  72       11D+2        0.00000   0.00000   0.88141   0.63399
  73       11D-2        0.00000   0.00000   0.00000   0.00000
  74       12D 0        0.00000   0.00000   0.46431  -2.75351
  75       12D+1       -0.32757   0.00000   0.00000   0.00000
  76       12D-1        0.00000   4.59226   0.00000   0.00000
  77       12D+2        0.00000   0.00000   0.94693   0.02279
  78       12D-2        0.00000   0.00000   0.00000   0.00000
  79       13F 0        0.00000   0.00000  -0.05053  -0.02952
  80       13F+1       -0.04891   0.00000   0.00000   0.00000
  81       13F-1        0.00000  -0.00881   0.00000   0.00000
  82       13F+2        0.00000   0.00000  -0.04531  -0.02273
  83       13F-2        0.00000   0.00000   0.00000   0.00000
  84       13F+3        0.04662   0.00000   0.00000   0.00000
  85       13F-3        0.00000   0.06008   0.00000   0.00000
  86       14F 0        0.00000   0.00000  -0.32762  -0.51199
  87       14F+1       -0.10298   0.00000   0.00000   0.00000
  88       14F-1        0.00000  -0.09923   0.00000   0.00000
  89       14F+2        0.00000   0.00000  -0.23472  -0.38778
  90       14F-2        0.00000   0.00000   0.00000   0.00000
  91       14F+3       -0.22768   0.00000   0.00000   0.00000
  92       14F-3        0.00000  -0.07549   0.00000   0.00000
  93 3   F  1S          0.00000   0.09632  -0.02389  -0.01723
  94        2S          0.00000   0.44808  -0.13330  -0.09962
  95        3S          0.00000  -0.06055  -0.01596  -0.01048
  96        4S          0.00000  -3.04392   1.85906   1.76508
  97        5S          0.00000 -16.45331   8.04449   2.62610
  98        6PX         0.01762   0.00000   0.00000   0.00000
  99        6PY         0.00000  -0.01072   0.00996   0.00487
 100        6PZ         0.00000  -0.00630   0.00712   0.00280
 101        7PX        -0.06765   0.00000   0.00000   0.00000
 102        7PY         0.00000   0.05134  -0.04467  -0.02096
 103        7PZ         0.00000   0.02308  -0.02773  -0.00964
 104        8PX         0.00394   0.00000   0.00000   0.00000
 105        8PY         0.00000  -2.51308   1.46997   1.26065
 106        8PZ         0.00000  -1.44184   1.31310   0.91051
 107        9PX        -1.35540   0.00000   0.00000   0.00000
 108        9PY         0.00000  -5.57121   1.46551   0.51340
 109        9PZ         0.00000  -1.95656   1.18136  -1.07432
 110       10D 0        0.00000   0.00190  -0.00449   0.00018
 111       10D+1       -0.00761   0.00000   0.00000   0.00000
 112       10D-1        0.00000  -0.00522  -0.00371  -0.00541
 113       10D+2        0.00000   0.01892  -0.00428   0.00078
 114       10D-2       -0.00843   0.00000   0.00000   0.00000
 115       11D 0        0.00000  -0.00959   0.02285  -0.00733
 116       11D+1        0.02519   0.00000   0.00000   0.00000
 117       11D-1        0.00000  -0.01442   0.04540   0.03183
 118       11D+2        0.00000  -0.04175  -0.00077  -0.01134
 119       11D-2        0.03110   0.00000   0.00000   0.00000
 120       12D 0        0.00000   0.26153   0.08286   0.00394
 121       12D+1       -0.16860   0.00000   0.00000   0.00000
 122       12D-1        0.00000  -0.68114   0.45973   0.24599
 123       12D+2        0.00000   0.64428  -0.19309  -0.17813
 124       12D-2       -0.13564   0.00000   0.00000   0.00000
 125       13F 0        0.00000  -0.01333   0.00328   0.00525
 126       13F+1        0.00540   0.00000   0.00000   0.00000
 127       13F-1        0.00000  -0.00201  -0.01236  -0.00222
 128       13F+2        0.00000   0.00628   0.00926   0.00163
 129       13F-2        0.01515   0.00000   0.00000   0.00000
 130       13F+3        0.00740   0.00000   0.00000   0.00000
 131       13F-3        0.00000   0.00967  -0.00937  -0.00840
 132       14F 0        0.00000   0.07029  -0.02290  -0.02468
 133       14F+1       -0.01919   0.00000   0.00000   0.00000
 134       14F-1        0.00000   0.00005   0.06189   0.00468
 135       14F+2        0.00000   0.03413  -0.05626  -0.01907
 136       14F-2       -0.03112   0.00000   0.00000   0.00000
 137       14F+3       -0.01698   0.00000   0.00000   0.00000
 138       14F-3        0.00000   0.01285   0.01419   0.00494
 139 4   F  1S          0.00000  -0.09632  -0.02389  -0.01723
 140        2S          0.00000  -0.44808  -0.13330  -0.09962
 141        3S          0.00000   0.06055  -0.01596  -0.01048
 142        4S          0.00000   3.04392   1.85906   1.76508
 143        5S          0.00000  16.45331   8.04449   2.62610
 144        6PX         0.01762   0.00000   0.00000   0.00000
 145        6PY         0.00000  -0.01072  -0.00996  -0.00487
 146        6PZ         0.00000   0.00630   0.00712   0.00280
 147        7PX        -0.06765   0.00000   0.00000   0.00000
 148        7PY         0.00000   0.05134   0.04467   0.02096
 149        7PZ         0.00000  -0.02308  -0.02773  -0.00964
 150        8PX         0.00394   0.00000   0.00000   0.00000
 151        8PY         0.00000  -2.51308  -1.46997  -1.26065
 152        8PZ         0.00000   1.44184   1.31310   0.91051
 153        9PX        -1.35540   0.00000   0.00000   0.00000
 154        9PY         0.00000  -5.57121  -1.46551  -0.51340
 155        9PZ         0.00000   1.95656   1.18136  -1.07432
 156       10D 0        0.00000  -0.00190  -0.00449   0.00018
 157       10D+1       -0.00761   0.00000   0.00000   0.00000
 158       10D-1        0.00000  -0.00522   0.00371   0.00541
 159       10D+2        0.00000  -0.01892  -0.00428   0.00078
 160       10D-2        0.00843   0.00000   0.00000   0.00000
 161       11D 0        0.00000   0.00959   0.02285  -0.00733
 162       11D+1        0.02519   0.00000   0.00000   0.00000
 163       11D-1        0.00000  -0.01442  -0.04540  -0.03183
 164       11D+2        0.00000   0.04175  -0.00077  -0.01134
 165       11D-2       -0.03110   0.00000   0.00000   0.00000
 166       12D 0        0.00000  -0.26153   0.08286   0.00394
 167       12D+1       -0.16860   0.00000   0.00000   0.00000
 168       12D-1        0.00000  -0.68114  -0.45973  -0.24599
 169       12D+2        0.00000  -0.64428  -0.19309  -0.17813
 170       12D-2        0.13564   0.00000   0.00000   0.00000
 171       13F 0        0.00000   0.01333   0.00328   0.00525
 172       13F+1        0.00540   0.00000   0.00000   0.00000
 173       13F-1        0.00000  -0.00201   0.01236   0.00222
 174       13F+2        0.00000  -0.00628   0.00926   0.00163
 175       13F-2       -0.01515   0.00000   0.00000   0.00000
 176       13F+3        0.00740   0.00000   0.00000   0.00000
 177       13F-3        0.00000   0.00967   0.00937   0.00840
 178       14F 0        0.00000  -0.07029  -0.02290  -0.02468
 179       14F+1       -0.01919   0.00000   0.00000   0.00000
 180       14F-1        0.00000   0.00005  -0.06189  -0.00468
 181       14F+2        0.00000  -0.03413  -0.05626  -0.01907
 182       14F-2        0.03112   0.00000   0.00000   0.00000
 183       14F+3       -0.01698   0.00000   0.00000   0.00000
 184       14F-3        0.00000   0.01285  -0.01419  -0.00494
          Condensed to atoms (all electrons):
              1          2          3          4
     1  O    7.946839   0.500016  -0.079667  -0.079667
     2  C    0.500016   4.519564   0.185127   0.185127
     3  F   -0.079667   0.185127   9.104377  -0.048514
     4  F   -0.079667   0.185127  -0.048514   9.104377
 Mulliken atomic charges:
              1
     1  O   -0.287521
     2  C    0.610166
     3  F   -0.161322
     4  F   -0.161322
 Sum of Mulliken atomic charges =   0.00000
 Mulliken charges with hydrogens summed into heavy atoms:
              1
     1  O   -0.287521
     2  C    0.610166
     3  F   -0.161322
     4  F   -0.161322
 Sum of Mulliken charges with hydrogens summed into heavy atoms =   0.00000
 Electronic spatial extent (au):  <R**2>=            239.4176
 Charge=              0.0000 electrons
 Dipole moment (field-independent basis, Debye):
    X=              0.0000    Y=              0.0000    Z=             -1.0334  Tot=              1.0334
 Quadrupole moment (field-independent basis, Debye-Ang):
   XX=            -18.9049   YY=            -21.3170   ZZ=            -21.9184
   XY=              0.0000   XZ=              0.0000   YZ=              0.0000
 Traceless Quadrupole moment (field-independent basis, Debye-Ang):
   XX=              1.8085   YY=             -0.6035   ZZ=             -1.2050
   XY=              0.0000   XZ=              0.0000   YZ=              0.0000
 Octapole moment (field-independent basis, Debye-Ang**2):
  XXX=              0.0000  YYY=              0.0000  ZZZ=             34.2714  XYY=              0.0000
  XXY=              0.0000  XXZ=             10.3473  XZZ=              0.0000  YZZ=              0.0000
  YYZ=             12.0138  XYZ=              0.0000
 Hexadecapole moment (field-independent basis, Debye-Ang**3):
 XXXX=            -13.4823 YYYY=            -79.9306 ZZZZ=           -132.3927 XXXY=              0.0000
 XXXZ=              0.0000 YYYX=              0.0000 YYYZ=              0.0000 ZZZX=              0.0000
 ZZZY=              0.0000 XXYY=            -15.6413 XXZZ=            -23.5676 YYZZ=            -36.1536
 XXYZ=              0.0000 YYXZ=              0.0000 ZZXY=              0.0000
 N-N= 1.199410577902D+02 E-N=-9.819256002452D+02  KE= 3.123814749416D+02
 1\1\GINC-TRAPISTA\SP\RQCISD-FC\Aug-CC-pVTZ\C1F2O1\BRUNS\26-Nov-2021\0\
 \# qcisd/aug-cc-pvtz nosymm density=current output=wfn\\f2co-wavefunct
 ion\\0,1\O,0,0.,0.,0.679927\C,0,0.,0.,-0.492216\F,0,0.,-1.058878,-1.26
 4305\F,0,0.,1.058878,-1.264305\\Version=EM64L-G09RevB.01\HF=-311.74123
 97\MP2=-312.6371436\MP3=-312.6246444\MP4D=-312.6402441\MP4DQ=-312.6241
 872\MP4SDQ=-312.6357903\QCISD=-312.6352934\RMSD=8.476e-09\Dipole=0.,0.
 ,-0.4065517\Quadrupole=1.3445937,-0.4487096,-0.8958841,0.,0.,0.\PG=C02
 V [C2(C1O1),SGV(F2)]\\@

 Writing a WFN file to GAUSSIAN.wfn.


 EVERYBODY NEEDS BEAUTY AS WELL AS BREAD, PLACES TO PLAY IN AND PRAY IN,
 WHERE NATURE MAY HEAL AND CHEER AND GIVE STRENGTH TO BODY AND SOUL ALIKE.

                                    -- JOHN MUIR
 Job cpu time:  0 days  1 hours 57 minutes 13.0 seconds.
 File lengths (MBytes):  RWF=  17462 Int=      0 D2E=      0 Chk=      3 Scr=      1
 Normal termination of Gaussian 09 at Fri Nov 26 17:14:20 2021.
