 Entering Gaussian System, Link 0=/home/bruns/programas/chemistry/gaussian/g09/g09
 Input=GAUSSIAN.com
 Output=GAUSSIAN.log
 Initial command:
 /home/bruns/programas/chemistry/gaussian/g09/l1.exe /home/bruns/programas/chemistry/gaussian/work/Gau-25106.inp -scrdir=/home/bruns/programas/chemistry/gaussian/work/
 Entering Link 1 = /home/bruns/programas/chemistry/gaussian/g09/l1.exe PID=     25108.
  
 Copyright (c) 1988,1990,1992,1993,1995,1998,2003,2009,2010,
            Gaussian, Inc.  All Rights Reserved.
  
 This is part of the Gaussian(R) 09 program.  It is based on
 the Gaussian(R) 03 system (copyright 2003, Gaussian, Inc.),
 the Gaussian(R) 98 system (copyright 1998, Gaussian, Inc.),
 the Gaussian(R) 94 system (copyright 1995, Gaussian, Inc.),
 the Gaussian 92(TM) system (copyright 1992, Gaussian, Inc.),
 the Gaussian 90(TM) system (copyright 1990, Gaussian, Inc.),
 the Gaussian 88(TM) system (copyright 1988, Gaussian, Inc.),
 the Gaussian 86(TM) system (copyright 1986, Carnegie Mellon
 University), and the Gaussian 82(TM) system (copyright 1983,
 Carnegie Mellon University). Gaussian is a federally registered
 trademark of Gaussian, Inc.
  
 This software contains proprietary and confidential information,
 including trade secrets, belonging to Gaussian, Inc.
  
 This software is provided under written license and may be
 used, copied, transmitted, or stored only in accord with that
 written license.
  
 The following legend is applicable only to US Government
 contracts under FAR:
  
                    RESTRICTED RIGHTS LEGEND
  
 Use, reproduction and disclosure by the US Government is
 subject to restrictions as set forth in subparagraphs (a)
 and (c) of the Commercial Computer Software - Restricted
 Rights clause in FAR 52.227-19.
  
 Gaussian, Inc.
 340 Quinnipiac St., Bldg. 40, Wallingford CT 06492
  
  
 ---------------------------------------------------------------
 Warning -- This program may not be used in any manner that
 competes with the business of Gaussian, Inc. or will provide
 assistance to any competitor of Gaussian, Inc.  The licensee
 of this program is prohibited from giving any competitor of
 Gaussian, Inc. access to this program.  By using this program,
 the user acknowledges that Gaussian, Inc. is engaged in the
 business of creating and licensing software in the field of
 computational chemistry and represents and warrants to the
 licensee that it is not a competitor of Gaussian, Inc. and that
 it will not use this program in any manner prohibited above.
 ---------------------------------------------------------------
  

 Cite this work as:
 Gaussian 09, Revision B.01,
 M. J. Frisch, G. W. Trucks, H. B. Schlegel, G. E. Scuseria, 
 M. A. Robb, J. R. Cheeseman, G. Scalmani, V. Barone, B. Mennucci, 
 G. A. Petersson, H. Nakatsuji, M. Caricato, X. Li, H. P. Hratchian, 
 A. F. Izmaylov, J. Bloino, G. Zheng, J. L. Sonnenberg, M. Hada, 
 M. Ehara, K. Toyota, R. Fukuda, J. Hasegawa, M. Ishida, T. Nakajima, 
 Y. Honda, O. Kitao, H. Nakai, T. Vreven, J. A. Montgomery, Jr., 
 J. E. Peralta, F. Ogliaro, M. Bearpark, J. J. Heyd, E. Brothers, 
 K. N. Kudin, V. N. Staroverov, T. Keith, R. Kobayashi, J. Normand, 
 K. Raghavachari, A. Rendell, J. C. Burant, S. S. Iyengar, J. Tomasi, 
 M. Cossi, N. Rega, J. M. Millam, M. Klene, J. E. Knox, J. B. Cross, 
 V. Bakken, C. Adamo, J. Jaramillo, R. Gomperts, R. E. Stratmann, 
 O. Yazyev, A. J. Austin, R. Cammi, C. Pomelli, J. W. Ochterski, 
 R. L. Martin, K. Morokuma, V. G. Zakrzewski, G. A. Voth, 
 P. Salvador, J. J. Dannenberg, S. Dapprich, A. D. Daniels, 
 O. Farkas, J. B. Foresman, J. V. Ortiz, J. Cioslowski, 
 and D. J. Fox, Gaussian, Inc., Wallingford CT, 2010.
 
 ******************************************
 Gaussian 09:  EM64L-G09RevB.01 12-Aug-2010
                26-Nov-2021 
 ******************************************
 %nproc=8
 Will use up to    8 processors via shared memory.
 %mem=8GB
 -----------------------------------------------------
 # qcisd/aug-cc-pvtz nosymm density=current output=wfn
 -----------------------------------------------------
 1/30=1,38=1/1;
 2/12=2,15=1,17=6,18=5,40=1/2;
 3/5=16,6=1,7=10,11=9,16=1,25=1,30=1,71=1/1,2,3;
 4//1;
 5/5=2,38=5/2;
 8/6=4,9=120000,10=1/1,4;
 9/5=8,15=1/13;
 11/28=-7,31=1,32=3,42=3/11;
 10/5=6,13=10,31=1/2;
 6/7=2,8=2,9=2,10=2,22=-1,31=1/1;
 99/5=1,6=1100,9=1/99;
 -----------------
 f2co-wavefunction
 -----------------
 Symbolic Z-matrix:
 Charge =  0 Multiplicity = 1
 O                     0.        0.        0.67993 
 C                     0.        0.       -0.49222 
 F                     0.       -1.05888  -1.26431 
 F                     0.01      1.05888  -1.26431 
 
                          Input orientation:                          
 ---------------------------------------------------------------------
 Center     Atomic      Atomic             Coordinates (Angstroms)
 Number     Number       Type             X           Y           Z
 ---------------------------------------------------------------------
      1          8           0        0.000000    0.000000    0.679927
      2          6           0        0.000000    0.000000   -0.492216
      3          9           0        0.000000   -1.058878   -1.264305
      4          9           0        0.010000    1.058878   -1.264305
 ---------------------------------------------------------------------
                    Distance matrix (angstroms):
                    1          2          3          4
     1  O    0.000000
     2  C    1.172143   0.000000
     3  F    2.213879   1.310475   0.000000
     4  F    2.213902   1.310513   2.117780   0.000000
 Symmetry turned off by external request.
 Stoichiometry    CF2O
 Framework group  C1[X(CF2O)]
 Deg. of freedom     6
 Full point group                 C1      NOp   1
 Rotational constants (GHZ):     11.8622664     11.7727507      5.9086817
 Standard basis: Aug-CC-pVTZ (5D, 7F)
 Integral buffers will be    131072 words long.
 Raffenetti 1 integral format.
 Two-electron integral symmetry is turned off.
   184 basis functions,   288 primitive gaussians,   220 cartesian basis functions
    16 alpha electrons       16 beta electrons
       nuclear repulsion energy       119.9400217500 Hartrees.
 NAtoms=    4 NActive=    4 NUniq=    4 SFac= 1.00D+00 NAtFMM=   50 NAOKFM=F Big=F
 One-electron integrals computed using PRISM.
 NBasis=   184 RedAO= T  NBF=   184
 NBsUse=   184 1.00D-06 NBFU=   184
 Harris functional with IExCor=  205 diagonalized for initial guess.
 ExpMin= 3.57D-02 ExpMax= 1.95D+04 ExpMxC= 6.65D+02 IAcc=3 IRadAn=         0 AccDes= 0.00D+00
 HarFok:  IExCor=  205 AccDes= 0.00D+00 IRadAn=         0 IDoV= 1
 ScaDFX=  1.000000  1.000000  1.000000  1.000000
 FoFCou: FMM=F IPFlag=           0 FMFlag=      100000 FMFlg1=           0
         NFxFlg=           0 DoJE=T BraDBF=F KetDBF=T FulRan=T
         Omega=  0.000000  0.000000  1.000000  0.000000  0.000000 ICntrl=     500 IOpCl=  0
         NMat0=    1 NMatS0=    1 NMatT0=    0 NMatD0=    1 NMtDS0=    0 NMtDT0=    0
         I1Cent=           4 NGrid=           0.
 Symmetry not used in FoFCou.
 Requested convergence on RMS density matrix=1.00D-08 within 128 cycles.
 Requested convergence on MAX density matrix=1.00D-06.
 Requested convergence on             energy=1.00D-06.
 No special actions if energy rises.
 Keep R1 ints in memory in canonical form, NReq=301063473.
 SCF Done:  E(RHF) =  -311.741233149     A.U. after   11 cycles
             Convg  =    0.8477D-08             -V/T =  2.0014
 ExpMin= 3.57D-02 ExpMax= 1.95D+04 ExpMxC= 6.65D+02 IAcc=3 IRadAn=         5 AccDes= 0.00D+00
 HarFok:  IExCor=  205 AccDes= 0.00D+00 IRadAn=         5 IDoV=-2
 ScaDFX=  1.000000  1.000000  1.000000  1.000000
 DSYEVD returned Info=          93 IAlg= 4 N=    46 NDim=    46 NE2=    23339802 trying DSYEV.
 DSYEVD returned Info=          93 IAlg= 4 N=    46 NDim=    46 NE2=    23339802 trying DSYEV.
 Range of M.O.s used for correlation:     5   184
 NBasis=   184 NAE=    16 NBE=    16 NFC=     4 NFV=     0
 NROrb=    180 NOA=    12 NOB=    12 NVA=   168 NVB=   168

 **** Warning!!: The largest alpha MO coefficient is  0.15539602D+02

 Semi-Direct transformation.
 ModeAB=           2 MOrb=            12 LenV=    1072785587
 LASXX=     33405819 LTotXX=    33405819 LenRXX=    33405819
 LTotAB=    33954012 MaxLAS=    52509600 LenRXY=    52509600
 NonZer=    66811638 LenScr=   100987392 LnRSAI=           0
 LnScr1=           0 LExtra=           0 Total=    186902811
 MaxDsk=          -1 SrtSym=           F ITran=            4
 JobTyp=0 Pass  1:  I=   1 to  12.
 (rs|ai) integrals will be sorted in core.
 Spin components of T(2) and E(2):
     alpha-alpha T2 =       0.2657385254D-01 E2=     -0.1191091347D+00
     alpha-beta  T2 =       0.1371279038D+00 E2=     -0.6576889031D+00
     beta-beta   T2 =       0.2657385254D-01 E2=     -0.1191091347D+00
 ANorm=    0.1090997529D+01
 E2 =    -0.8959071724D+00 EUMP2 =    -0.31263714032125D+03
 R2 and R3 integrals will be kept in memory, NReq=   596397230.
 Iterations=  50 Convergence= 0.100D-07
 Iteration Nr.   1
 **********************
 DD1Dir will call FoFMem   1 times, MxPair=       156
 NAB=    78 NAA=     0 NBB=     0.
 MP4(R+Q)=  0.16057202D-01
 E3=        0.12500205D-01        EUMP3=      -0.31262464012D+03
 E4(DQ)=    0.45706144D-03        UMP4(DQ)=   -0.31262418305D+03
 E4(SDQ)=  -0.11146484D-01        UMP4(SDQ)=  -0.31263578660D+03
 DE(Corr)= -0.86734977     E(Corr)=     -312.60858291    
 NORM(A)=   0.10858768D+01
 Iteration Nr.   2
 **********************
 DD1Dir will call FoFMem   1 times, MxPair=       156
 NAB=    78 NAA=     0 NBB=     0.
 DE(Corr)= -0.89321795     E(CORR)=     -312.63445110     Delta=-2.59D-02
 NORM(A)=   0.10931767D+01
 Iteration Nr.   3
 **********************
 DD1Dir will call FoFMem   1 times, MxPair=       156
 NAB=    78 NAA=     0 NBB=     0.
 DE(Corr)= -0.89145980     E(CORR)=     -312.63269295     Delta= 1.76D-03
 NORM(A)=   0.10954082D+01
 Iteration Nr.   4
 **********************
 DD1Dir will call FoFMem   1 times, MxPair=       156
 NAB=    78 NAA=     0 NBB=     0.
 DE(Corr)= -0.89376261     E(CORR)=     -312.63499576     Delta=-2.30D-03
 NORM(A)=   0.10962146D+01
 Iteration Nr.   5
 **********************
 DD1Dir will call FoFMem   1 times, MxPair=       156
 NAB=    78 NAA=     0 NBB=     0.
 DE(Corr)= -0.89402844     E(CORR)=     -312.63526159     Delta=-2.66D-04
 NORM(A)=   0.10963971D+01
 Iteration Nr.   6
 **********************
 DD1Dir will call FoFMem   1 times, MxPair=       156
 NAB=    78 NAA=     0 NBB=     0.
 DE(Corr)= -0.89405493     E(CORR)=     -312.63528808     Delta=-2.65D-05
 NORM(A)=   0.10964104D+01
 Iteration Nr.   7
 **********************
 DD1Dir will call FoFMem   1 times, MxPair=       156
 NAB=    78 NAA=     0 NBB=     0.
 DE(Corr)= -0.89405655     E(CORR)=     -312.63528970     Delta=-1.62D-06
 NORM(A)=   0.10964102D+01
 Iteration Nr.   8
 **********************
 DD1Dir will call FoFMem   1 times, MxPair=       156
 NAB=    78 NAA=     0 NBB=     0.
 DE(Corr)= -0.89405554     E(CORR)=     -312.63528869     Delta= 1.01D-06
 NORM(A)=   0.10964107D+01
 Iteration Nr.   9
 **********************
 DD1Dir will call FoFMem   1 times, MxPair=       156
 NAB=    78 NAA=     0 NBB=     0.
 DE(Corr)= -0.89405594     E(CORR)=     -312.63528909     Delta=-3.99D-07
 NORM(A)=   0.10964107D+01
 Iteration Nr.  10
 **********************
 DD1Dir will call FoFMem   1 times, MxPair=       156
 NAB=    78 NAA=     0 NBB=     0.
 DE(Corr)= -0.89405584     E(CORR)=     -312.63528899     Delta= 1.00D-07
 NORM(A)=   0.10964108D+01
 Iteration Nr.  11
 **********************
 DD1Dir will call FoFMem   1 times, MxPair=       156
 NAB=    78 NAA=     0 NBB=     0.
 DE(Corr)= -0.89405631     E(CORR)=     -312.63528946     Delta=-4.71D-07
 NORM(A)=   0.10964112D+01
 Iteration Nr.  12
 **********************
 DD1Dir will call FoFMem   1 times, MxPair=       156
 NAB=    78 NAA=     0 NBB=     0.
 DE(Corr)= -0.89405634     E(CORR)=     -312.63528949     Delta=-3.38D-08
 NORM(A)=   0.10964113D+01
 Iteration Nr.  13
 **********************
 DD1Dir will call FoFMem   1 times, MxPair=       156
 NAB=    78 NAA=     0 NBB=     0.
 DE(Corr)= -0.89405644     E(CORR)=     -312.63528959     Delta=-9.61D-08
 NORM(A)=   0.10964114D+01
 Iteration Nr.  14
 **********************
 DD1Dir will call FoFMem   1 times, MxPair=       156
 NAB=    78 NAA=     0 NBB=     0.
 DE(Corr)= -0.89405646     E(CORR)=     -312.63528961     Delta=-1.59D-08
 NORM(A)=   0.10964114D+01
 Iteration Nr.  15
 **********************
 DD1Dir will call FoFMem   1 times, MxPair=       156
 NAB=    78 NAA=     0 NBB=     0.
 DE(Corr)= -0.89405647     E(CORR)=     -312.63528961     Delta=-9.03D-09
 NORM(A)=   0.10964115D+01
 Iteration Nr.  16
 **********************
 DD1Dir will call FoFMem   1 times, MxPair=       156
 NAB=    78 NAA=     0 NBB=     0.
 DE(Corr)= -0.89405647     E(CORR)=     -312.63528962     Delta=-3.91D-09
 NORM(A)=   0.10964115D+01
 Largest amplitude= 5.78D-02

 Z-AMPLITUDE ITERATIONS

 Iteration Nr.   1
 **********************
 DD1Dir will call FoFMem   1 times, MxPair=       156
 NAB=    78 NAA=     0 NBB=     0.
 DE(Z)  -0.87475307D+00          E(Z)=    -0.31261598622D+03
 NORM(A)=   0.10963739D+01
 Iteration Nr.   2
 **********************
 DD1Dir will call FoFMem   1 times, MxPair=       156
 NAB=    78 NAA=     0 NBB=     0.
 DE(Z)  -0.87475294D+00          E(Z)=    -0.31261598609D+03
 NORM(A)=   0.10954355D+01
 Iteration Nr.   3
 **********************
 DD1Dir will call FoFMem   1 times, MxPair=       156
 NAB=    78 NAA=     0 NBB=     0.
 DE(Z)  -0.87474175D+00          E(Z)=    -0.31261597489D+03
 NORM(A)=   0.10962113D+01
 Iteration Nr.   4
 **********************
 DD1Dir will call FoFMem   1 times, MxPair=       156
 NAB=    78 NAA=     0 NBB=     0.
 DE(Z)  -0.87475143D+00          E(Z)=    -0.31261598457D+03
 NORM(A)=   0.10969611D+01
 Iteration Nr.   5
 **********************
 DD1Dir will call FoFMem   1 times, MxPair=       156
 NAB=    78 NAA=     0 NBB=     0.
 DE(Z)  -0.87476048D+00          E(Z)=    -0.31261599363D+03
 NORM(A)=   0.10919693D+01
 Iteration Nr.   6
 **********************
 DD1Dir will call FoFMem   1 times, MxPair=       156
 NAB=    78 NAA=     0 NBB=     0.
 DE(Z)  -0.87469746D+00          E(Z)=    -0.31261593061D+03
 NORM(A)=   0.10919693D+01
 Iteration Nr.   7
 **********************
 DD1Dir will call FoFMem   1 times, MxPair=       156
 NAB=    78 NAA=     0 NBB=     0.
 DE(Z)  -0.87469595D+00          E(Z)=    -0.31261592910D+03
 NORM(A)=   0.10919693D+01
 Iteration Nr.   8
 **********************
 DD1Dir will call FoFMem   1 times, MxPair=       156
 NAB=    78 NAA=     0 NBB=     0.
 DE(Z)  -0.87469641D+00          E(Z)=    -0.31261592956D+03
 NORM(A)=   0.10919696D+01
 Iteration Nr.   9
 **********************
 DD1Dir will call FoFMem   1 times, MxPair=       156
 NAB=    78 NAA=     0 NBB=     0.
 DE(Z)  -0.87469616D+00          E(Z)=    -0.31261592931D+03
 NORM(A)=   0.10919696D+01
 Iteration Nr.  10
 **********************
 DD1Dir will call FoFMem   1 times, MxPair=       156
 NAB=    78 NAA=     0 NBB=     0.
 DE(Z)  -0.87469624D+00          E(Z)=    -0.31261592939D+03
 NORM(A)=   0.10919697D+01
 Iteration Nr.  11
 **********************
 DD1Dir will call FoFMem   1 times, MxPair=       156
 NAB=    78 NAA=     0 NBB=     0.
 DE(Z)  -0.87469623D+00          E(Z)=    -0.31261592938D+03
 NORM(A)=   0.10919697D+01
 Iteration Nr.  12
 **********************
 DD1Dir will call FoFMem   1 times, MxPair=       156
 NAB=    78 NAA=     0 NBB=     0.
 DE(Z)  -0.87469623D+00          E(Z)=    -0.31261592938D+03
 NORM(A)=   0.10919697D+01
 Iteration Nr.  13
 **********************
 DD1Dir will call FoFMem   1 times, MxPair=       156
 NAB=    78 NAA=     0 NBB=     0.
 DE(Z)  -0.87469623D+00          E(Z)=    -0.31261592938D+03
 NORM(A)=   0.10919697D+01
 Discarding MO integrals.
          Differentiating once with respect to electric field.
                with respect to dipole field.
          Electric field/nuclear overlap derivatives assumed to be zero.
          Keep R1 ints in memory in canonical form, NReq=297441306.
          There are     1 degrees of freedom in the 1st order CPHF.  IDoFFX=0.
 LinEq1:  Iter=  0 NonCon=     1 RMS=3.07D-03 Max=8.45D-02
 AX will form     1 AO Fock derivatives at one time.
 LinEq1:  Iter=  1 NonCon=     1 RMS=7.55D-04 Max=1.11D-02
 LinEq1:  Iter=  2 NonCon=     1 RMS=2.24D-04 Max=3.37D-03
 LinEq1:  Iter=  3 NonCon=     1 RMS=9.87D-05 Max=1.57D-03
 LinEq1:  Iter=  4 NonCon=     1 RMS=2.27D-05 Max=3.72D-04
 LinEq1:  Iter=  5 NonCon=     1 RMS=1.09D-05 Max=2.98D-04
 LinEq1:  Iter=  6 NonCon=     1 RMS=2.61D-06 Max=4.75D-05
 LinEq1:  Iter=  7 NonCon=     1 RMS=5.33D-07 Max=1.03D-05
 LinEq1:  Iter=  8 NonCon=     1 RMS=9.45D-08 Max=1.21D-06
 LinEq1:  Iter=  9 NonCon=     1 RMS=1.30D-08 Max=1.78D-07
 LinEq1:  Iter= 10 NonCon=     1 RMS=1.88D-09 Max=2.12D-08
 LinEq1:  Iter= 11 NonCon=     1 RMS=3.99D-10 Max=5.83D-09
 LinEq1:  Iter= 12 NonCon=     0 RMS=7.22D-11 Max=8.59D-10
 Linear equations converged to 1.000D-10 1.000D-09 after    12 iterations.
 End of Minotr Frequency-dependent properties file   721 does not exist.
 End of Minotr Frequency-dependent properties file   722 does not exist.

 **********************************************************************

            Population analysis using the QCI/CC density.

 **********************************************************************

     Natural Orbital Coefficients:
                           1         2         3         4         5
     Eigenvalues --     2.00001   2.00000   2.00000   2.00000   1.98618
   1 1   O  1S         -0.63123  -0.72179   0.00002   0.19954  -0.01943
   2        2S          0.01166   0.01269   0.00000  -0.00382   0.04672
   3        3S         -0.02675  -0.03101   0.00000   0.00866   0.01304
   4        4S          0.00202   0.00275   0.00000  -0.00173  -0.00013
   5        5S         -0.00050   0.00091   0.00000  -0.00176  -0.01906
   6        6PX         0.00000   0.00000   0.00000   0.00000   0.00000
   7        6PY         0.00000   0.00000   0.00018   0.00000   0.00000
   8        6PZ         0.00404   0.00178   0.00000   0.00011  -0.01421
   9        7PX         0.00000   0.00000   0.00000   0.00000   0.00000
  10        7PY         0.00000   0.00000   0.00012   0.00000   0.00000
  11        7PZ         0.00267  -0.00196   0.00000   0.00167  -0.01386
  12        8PX        -0.00001   0.00001   0.00000   0.00000   0.00000
  13        8PY         0.00000   0.00000  -0.00044   0.00000   0.00000
  14        8PZ         0.00320  -0.00075   0.00000   0.00059   0.00961
  15        9PX         0.00000   0.00000   0.00000   0.00000  -0.00003
  16        9PY         0.00000   0.00000  -0.00034   0.00000   0.00000
  17        9PZ         0.00035   0.00004   0.00000   0.00046   0.00545
  18       10D 0       -0.00026  -0.00011   0.00000  -0.00002   0.00115
  19       10D+1        0.00000   0.00000   0.00000   0.00000   0.00000
  20       10D-1        0.00000   0.00000  -0.00001   0.00000   0.00000
  21       10D+2        0.00005   0.00005   0.00000   0.00001   0.00002
  22       10D-2        0.00000   0.00000   0.00000   0.00000   0.00000
  23       11D 0       -0.00003   0.00091   0.00000  -0.00046  -0.00021
  24       11D+1        0.00000   0.00000   0.00000   0.00000   0.00000
  25       11D-1        0.00000   0.00000   0.00005   0.00000   0.00000
  26       11D+2        0.00006   0.00001   0.00000  -0.00017  -0.00081
  27       11D-2        0.00000   0.00000   0.00000   0.00000   0.00001
  28       12D 0       -0.00044   0.00023   0.00000  -0.00009  -0.00566
  29       12D+1        0.00000   0.00000   0.00000   0.00000   0.00001
  30       12D-1        0.00000   0.00000   0.00013   0.00000   0.00000
  31       12D+2        0.00027  -0.00027   0.00000  -0.00017  -0.00213
  32       12D-2        0.00000   0.00000   0.00001   0.00000   0.00002
  33       13F 0       -0.00017   0.00008   0.00000  -0.00010  -0.00049
  34       13F+1        0.00000   0.00000   0.00000   0.00000   0.00000
  35       13F-1        0.00000   0.00000   0.00002   0.00000   0.00000
  36       13F+2        0.00003   0.00002   0.00000   0.00002   0.00017
  37       13F-2        0.00000   0.00000   0.00000   0.00000   0.00000
  38       13F+3        0.00000   0.00000   0.00000   0.00000   0.00000
  39       13F-3        0.00000   0.00000  -0.00002   0.00000   0.00000
  40       14F 0        0.00004  -0.00022   0.00000   0.00025   0.00165
  41       14F+1        0.00000   0.00000   0.00000   0.00000  -0.00001
  42       14F-1        0.00000   0.00000  -0.00008   0.00000   0.00000
  43       14F+2        0.00000   0.00002   0.00000   0.00017   0.00090
  44       14F-2        0.00000   0.00000   0.00000   0.00000  -0.00001
  45       14F+3        0.00000   0.00000   0.00000   0.00000   0.00001
  46       14F-3        0.00000   0.00000   0.00007   0.00000   0.00000
  47 2   C  1S          0.71632  -0.50377   0.00003   0.44202  -0.05154
  48        2S         -0.00912   0.00500   0.00000  -0.00397   0.10858
  49        3S          0.02924  -0.02122   0.00000   0.01786   0.02356
  50        4S         -0.00027   0.00065   0.00000   0.00014   0.01479
  51        5S          0.00023  -0.00010   0.00000   0.00036   0.00331
  52        6PX         0.00000   0.00000   0.00000   0.00000   0.00021
  53        6PY         0.00000   0.00000   0.00003   0.00000  -0.00001
  54        6PZ        -0.00186   0.00115   0.00000  -0.00108  -0.01578
  55        7PX         0.00001   0.00000   0.00000   0.00001   0.00024
  56        7PY         0.00000   0.00000   0.00091   0.00000  -0.00001
  57        7PZ         0.00112  -0.00470   0.00000   0.00147  -0.01159
  58        8PX         0.00000  -0.00001   0.00000   0.00000  -0.00005
  59        8PY         0.00000   0.00000  -0.00055   0.00000   0.00000
  60        8PZ         0.00080  -0.00026   0.00000   0.00202   0.01489
  61        9PX         0.00000   0.00000   0.00000   0.00000   0.00002
  62        9PY         0.00000   0.00000   0.00029   0.00000   0.00000
  63        9PZ         0.00004  -0.00038   0.00000  -0.00006  -0.00015
  64       10D 0        0.00028  -0.00050   0.00000   0.00038   0.00513
  65       10D+1        0.00000   0.00000   0.00000   0.00000  -0.00007
  66       10D-1        0.00000   0.00000  -0.00018   0.00000   0.00000
  67       10D+2       -0.00041   0.00020   0.00000  -0.00042  -0.00853
  68       10D-2        0.00000   0.00000   0.00000   0.00000   0.00008
  69       11D 0       -0.00040  -0.00103   0.00000   0.00059   0.00661
  70       11D+1        0.00001  -0.00001   0.00000   0.00000  -0.00007
  71       11D-1        0.00000   0.00000  -0.00099   0.00000   0.00000
  72       11D+2        0.00089  -0.00129   0.00000   0.00017  -0.00980
  73       11D-2       -0.00001   0.00001   0.00001   0.00000   0.00009
  74       12D 0        0.00009   0.00060   0.00000   0.00031   0.00030
  75       12D+1        0.00000   0.00000   0.00000   0.00000   0.00004
  76       12D-1        0.00000   0.00000   0.00056   0.00000   0.00000
  77       12D+2        0.00005   0.00022   0.00000   0.00033   0.00346
  78       12D-2        0.00000   0.00000   0.00000   0.00000  -0.00003
  79       13F 0        0.00070  -0.00032   0.00000   0.00061   0.00432
  80       13F+1        0.00000   0.00000   0.00000   0.00000   0.00002
  81       13F-1        0.00000   0.00000   0.00023   0.00000   0.00000
  82       13F+2        0.00033   0.00010   0.00000   0.00060   0.00559
  83       13F-2        0.00000   0.00000   0.00000  -0.00001  -0.00005
  84       13F+3        0.00000   0.00000   0.00000   0.00000  -0.00004
  85       13F-3        0.00000   0.00000  -0.00021   0.00000   0.00000
  86       14F 0       -0.00116   0.00045   0.00000   0.00056   0.00353
  87       14F+1        0.00000  -0.00001   0.00000   0.00000  -0.00002
  88       14F-1        0.00000   0.00000   0.00087   0.00000   0.00000
  89       14F+2       -0.00098   0.00085   0.00000   0.00026   0.00488
  90       14F-2        0.00001  -0.00001  -0.00001   0.00000  -0.00005
  91       14F+3        0.00000  -0.00001   0.00000   0.00000  -0.00001
  92       14F-3        0.00000   0.00000   0.00006   0.00000   0.00000
  93 3   F  1S         -0.15776   0.30431  -0.69207   0.60129  -0.14611
  94        2S          0.00335  -0.00549   0.01112  -0.00905   0.37272
  95        3S         -0.00641   0.01289  -0.02983   0.02617   0.11366
  96        4S          0.00267  -0.00292   0.00058   0.00090   0.23164
  97        5S          0.00023  -0.00024  -0.00070   0.00068   0.01425
  98        6PX         0.00000   0.00000   0.00000   0.00000   0.00009
  99        6PY        -0.00110   0.00130  -0.00145   0.00093  -0.00565
 100        6PZ        -0.00089   0.00079  -0.00111   0.00058  -0.01949
 101        7PX         0.00000   0.00000   0.00000   0.00000   0.00011
 102        7PY        -0.00100   0.00062   0.00014  -0.00043  -0.00287
 103        7PZ        -0.00091   0.00021  -0.00012  -0.00050  -0.02145
 104        8PX        -0.00001   0.00000   0.00001   0.00000   0.00010
 105        8PY        -0.00056   0.00030  -0.00086   0.00112  -0.01193
 106        8PZ        -0.00031  -0.00008  -0.00144   0.00059  -0.02300
 107        9PX         0.00000   0.00000   0.00000   0.00000   0.00000
 108        9PY        -0.00007  -0.00003  -0.00039   0.00009  -0.00089
 109        9PZ        -0.00004   0.00039  -0.00008   0.00025  -0.00086
 110       10D 0        0.00000  -0.00001   0.00000   0.00000  -0.00011
 111       10D+1        0.00000   0.00000   0.00000   0.00000   0.00000
 112       10D-1        0.00003  -0.00002  -0.00001   0.00004   0.00066
 113       10D+2        0.00001  -0.00001   0.00002  -0.00002  -0.00064
 114       10D-2        0.00000   0.00000   0.00000   0.00000   0.00000
 115       11D 0       -0.00006   0.00004  -0.00007  -0.00006  -0.00091
 116       11D+1        0.00000   0.00000   0.00000   0.00000   0.00001
 117       11D-1       -0.00036   0.00003   0.00024  -0.00046   0.00348
 118       11D+2        0.00010   0.00003  -0.00019   0.00020  -0.00329
 119       11D-2        0.00000   0.00000   0.00000   0.00000   0.00001
 120       12D 0       -0.00010   0.00000  -0.00024   0.00005  -0.00002
 121       12D+1        0.00000   0.00000   0.00000   0.00000   0.00000
 122       12D-1       -0.00002  -0.00001  -0.00040   0.00019  -0.00275
 123       12D+2        0.00020  -0.00010   0.00022  -0.00024   0.00129
 124       12D-2        0.00000   0.00000   0.00000   0.00000   0.00001
 125       13F 0        0.00000  -0.00002   0.00000  -0.00001  -0.00034
 126       13F+1        0.00000   0.00000   0.00000   0.00000   0.00000
 127       13F-1       -0.00001  -0.00003   0.00000  -0.00002   0.00009
 128       13F+2        0.00001   0.00003  -0.00002   0.00003  -0.00046
 129       13F-2        0.00000   0.00000   0.00000   0.00000   0.00000
 130       13F+3        0.00000   0.00000   0.00000   0.00000   0.00000
 131       13F-3        0.00001   0.00000  -0.00006   0.00001  -0.00040
 132       14F 0        0.00014  -0.00001  -0.00003   0.00014  -0.00031
 133       14F+1        0.00000   0.00000   0.00000   0.00000   0.00000
 134       14F-1       -0.00019   0.00017  -0.00003  -0.00012   0.00000
 135       14F+2        0.00026  -0.00022   0.00000   0.00014  -0.00099
 136       14F-2        0.00000   0.00000   0.00000   0.00000   0.00000
 137       14F+3        0.00000   0.00000   0.00000   0.00000   0.00000
 138       14F-3        0.00005  -0.00004   0.00012   0.00003  -0.00052
 139 4   F  1S         -0.15775   0.30431   0.69217   0.60118  -0.14607
 140        2S          0.00335  -0.00549  -0.01112  -0.00905   0.37261
 141        3S         -0.00641   0.01289   0.02984   0.02616   0.11363
 142        4S          0.00267  -0.00292  -0.00058   0.00090   0.23157
 143        5S          0.00023  -0.00024   0.00070   0.00068   0.01424
 144        6PX         0.00001  -0.00001  -0.00002  -0.00001   0.00014
 145        6PY         0.00110  -0.00130  -0.00145  -0.00093   0.00564
 146        6PZ        -0.00089   0.00079   0.00111   0.00058  -0.01948
 147        7PX         0.00001  -0.00001   0.00000   0.00001   0.00014
 148        7PY         0.00100  -0.00062   0.00014   0.00043   0.00286
 149        7PZ        -0.00091   0.00021   0.00012  -0.00050  -0.02145
 150        8PX         0.00000   0.00000  -0.00002  -0.00001   0.00021
 151        8PY         0.00056  -0.00030  -0.00086  -0.00112   0.01192
 152        8PZ        -0.00031  -0.00008   0.00144   0.00059  -0.02300
 153        9PX         0.00000   0.00000   0.00000   0.00000   0.00001
 154        9PY         0.00007   0.00003  -0.00039  -0.00009   0.00089
 155        9PZ        -0.00004   0.00039   0.00008   0.00025  -0.00086
 156       10D 0        0.00000  -0.00001   0.00000   0.00000  -0.00011
 157       10D+1        0.00000   0.00000   0.00000   0.00000  -0.00001
 158       10D-1       -0.00003   0.00002  -0.00001  -0.00004  -0.00066
 159       10D+2        0.00001  -0.00001  -0.00002  -0.00002  -0.00064
 160       10D-2        0.00000   0.00000   0.00000   0.00000   0.00001
 161       11D 0       -0.00006   0.00004   0.00007  -0.00006  -0.00091
 162       11D+1        0.00000   0.00000   0.00000   0.00000  -0.00003
 163       11D-1        0.00036  -0.00003   0.00024   0.00046  -0.00348
 164       11D+2        0.00010   0.00003   0.00019   0.00020  -0.00329
 165       11D-2        0.00000   0.00000   0.00000   0.00000   0.00005
 166       12D 0       -0.00010   0.00000   0.00024   0.00005  -0.00002
 167       12D+1        0.00000   0.00000  -0.00001   0.00000   0.00002
 168       12D-1        0.00002   0.00001  -0.00040  -0.00019   0.00275
 169       12D+2        0.00020  -0.00010  -0.00022  -0.00024   0.00129
 170       12D-2        0.00000   0.00000   0.00001   0.00001  -0.00004
 171       13F 0        0.00000  -0.00002   0.00000  -0.00001  -0.00034
 172       13F+1        0.00000   0.00000   0.00000   0.00000   0.00000
 173       13F-1        0.00001   0.00003   0.00000   0.00002  -0.00009
 174       13F+2        0.00001   0.00003   0.00002   0.00003  -0.00046
 175       13F-2        0.00000   0.00000   0.00000   0.00000   0.00001
 176       13F+3        0.00000   0.00000   0.00000   0.00000   0.00001
 177       13F-3       -0.00001   0.00000  -0.00006  -0.00001   0.00040
 178       14F 0        0.00014  -0.00001   0.00003   0.00014  -0.00031
 179       14F+1        0.00000   0.00000   0.00000   0.00000   0.00000
 180       14F-1        0.00019  -0.00017  -0.00003   0.00012   0.00000
 181       14F+2        0.00026  -0.00022   0.00000   0.00014  -0.00099
 182       14F-2        0.00000   0.00000   0.00000   0.00000   0.00001
 183       14F+3        0.00000   0.00000   0.00000   0.00000   0.00002
 184       14F-3       -0.00005   0.00004   0.00012  -0.00003   0.00052
                           6         7         8         9        10
     Eigenvalues --     1.98560   1.98141   1.97345   1.97134   1.96827
   1 1   O  1S          0.00000  -0.19114  -0.03799   0.00000   0.00099
   2        2S          0.00001   0.49177   0.10512   0.00000  -0.00288
   3        3S          0.00000   0.13804   0.03119   0.00000  -0.00088
   4        4S          0.00000   0.30618   0.08951   0.00000  -0.00346
   5        5S          0.00000   0.03419  -0.00726   0.00000  -0.00042
   6        6PX         0.00010   0.00005  -0.00003  -0.00024  -0.00678
   7        6PY         0.02083   0.00000   0.00000  -0.05086   0.00003
   8        6PZ         0.00000   0.00044   0.02517   0.00000  -0.00249
   9        7PX         0.00012   0.00007  -0.00008  -0.00033  -0.00915
  10        7PY         0.02602   0.00000   0.00000  -0.06909   0.00004
  11        7PZ         0.00000  -0.00512   0.02565   0.00000  -0.00285
  12        8PX         0.00008   0.00002  -0.00015  -0.00032  -0.01797
  13        8PY         0.01661   0.00000   0.00000  -0.06845   0.00008
  14        8PZ         0.00000   0.04808   0.00465   0.00000  -0.00112
  15        9PX        -0.00001   0.00001  -0.00009   0.00003  -0.00940
  16        9PY        -0.00184   0.00000   0.00000   0.00647   0.00004
  17        9PZ         0.00000   0.00287   0.00465   0.00000  -0.00004
  18       10D 0        0.00000   0.00473  -0.00109   0.00000   0.00011
  19       10D+1        0.00000   0.00000   0.00000   0.00002  -0.00194
  20       10D-1       -0.00075   0.00000   0.00000   0.00318   0.00001
  21       10D+2        0.00000  -0.00003   0.00048   0.00000   0.00000
  22       10D-2        0.00000   0.00000   0.00000   0.00000   0.00000
  23       11D 0        0.00000   0.01179  -0.00040   0.00000   0.00016
  24       11D+1       -0.00001  -0.00001   0.00004   0.00007  -0.00233
  25       11D-1       -0.00193   0.00000   0.00000   0.01380   0.00001
  26       11D+2        0.00000   0.00007   0.00080   0.00000   0.00002
  27       11D-2        0.00001   0.00000  -0.00001   0.00001   0.00000
  28       12D 0        0.00000  -0.01283   0.00754   0.00000  -0.00005
  29       12D+1        0.00000   0.00001  -0.00001   0.00007   0.00042
  30       12D-1       -0.00051   0.00000   0.00000   0.01398   0.00000
  31       12D+2        0.00000   0.00038   0.00073   0.00000   0.00006
  32       12D-2        0.00005   0.00000  -0.00001  -0.00003  -0.00001
  33       13F 0        0.00000  -0.00277   0.00065   0.00000  -0.00004
  34       13F+1        0.00000   0.00000  -0.00001  -0.00001   0.00128
  35       13F-1        0.00076   0.00000   0.00000  -0.00263  -0.00001
  36       13F+2        0.00000   0.00023  -0.00018   0.00000   0.00000
  37       13F-2        0.00000   0.00000   0.00000   0.00000   0.00000
  38       13F+3        0.00000   0.00000   0.00000   0.00000  -0.00022
  39       13F-3        0.00000   0.00000   0.00000  -0.00006   0.00000
  40       14F 0        0.00000  -0.00058  -0.00039   0.00000  -0.00002
  41       14F+1        0.00000  -0.00001  -0.00001  -0.00001  -0.00182
  42       14F-1        0.00008   0.00000   0.00000  -0.00239   0.00001
  43       14F+2        0.00000  -0.00054   0.00096   0.00000  -0.00004
  44       14F-2       -0.00002   0.00001  -0.00001  -0.00001   0.00000
  45       14F+3        0.00000   0.00000  -0.00001  -0.00001   0.00119
  46       14F-3        0.00035   0.00000   0.00000  -0.00058  -0.00002
  47 2   C  1S         -0.00001  -0.06836  -0.01112   0.00000  -0.00234
  48        2S          0.00001   0.15840   0.02590   0.00001   0.00643
  49        3S          0.00000   0.03835   0.00691   0.00000   0.00167
  50        4S          0.00000   0.02754  -0.01765   0.00000   0.00193
  51        5S          0.00000  -0.00234  -0.00027   0.00000   0.00004
  52        6PX         0.00018   0.00005   0.00024  -0.00037   0.10458
  53        6PY         0.03752   0.00000   0.00000  -0.07741  -0.00049
  54        6PZ         0.00000   0.08042  -0.05183   0.00000  -0.00022
  55        7PX         0.00015   0.00014   0.00038  -0.00046   0.13180
  56        7PY         0.03135   0.00000   0.00000  -0.09799  -0.00062
  57        7PZ         0.00000   0.05670  -0.08153   0.00000  -0.00028
  58        8PX        -0.00009   0.00007   0.00000   0.00035   0.01770
  59        8PY        -0.01994   0.00000   0.00000   0.07397  -0.00008
  60        8PZ         0.00000  -0.03069   0.02612   0.00000  -0.00024
  61        9PX         0.00001   0.00001   0.00001  -0.00002   0.00216
  62        9PY         0.00173   0.00000   0.00000  -0.00467  -0.00001
  63        9PZ         0.00000  -0.00016   0.00215   0.00000   0.00004
  64       10D 0        0.00000   0.01239   0.02006   0.00000  -0.00001
  65       10D+1       -0.00004   0.00001  -0.00010  -0.00005  -0.01458
  66       10D-1       -0.00892   0.00000   0.00000  -0.01008   0.00007
  67       10D+2        0.00000  -0.00253   0.01033   0.00000  -0.00007
  68       10D-2        0.00007   0.00002  -0.00010  -0.00004  -0.00002
  69       11D 0        0.00000   0.00219   0.03775   0.00000  -0.00018
  70       11D+1       -0.00005   0.00000  -0.00013   0.00003  -0.02451
  71       11D-1       -0.01053   0.00000   0.00000   0.00691   0.00012
  72       11D+2        0.00000  -0.00758   0.02174   0.00000  -0.00024
  73       11D-2        0.00007   0.00007  -0.00021  -0.00018  -0.00003
  74       12D 0        0.00000  -0.01207  -0.00404   0.00000  -0.00010
  75       12D+1        0.00005  -0.00001   0.00017  -0.00006   0.00030
  76       12D-1        0.01020   0.00000   0.00000  -0.01231   0.00000
  77       12D+2        0.00000  -0.00300   0.00098   0.00000  -0.00002
  78       12D-2       -0.00006   0.00003  -0.00001   0.00020   0.00000
  79       13F 0        0.00000   0.00623  -0.00585   0.00000   0.00017
  80       13F+1        0.00001   0.00000   0.00008   0.00005   0.00450
  81       13F-1        0.00197   0.00000   0.00000   0.01099  -0.00002
  82       13F+2        0.00000   0.00263   0.00018   0.00000   0.00001
  83       13F-2       -0.00003  -0.00002   0.00000  -0.00002   0.00001
  84       13F+3       -0.00003  -0.00002   0.00002   0.00008  -0.00774
  85       13F-3       -0.00207   0.00000   0.00000   0.00533   0.00011
  86       14F 0        0.00000  -0.00235  -0.00721   0.00000  -0.00003
  87       14F+1        0.00003  -0.00002   0.00010   0.00008  -0.00080
  88       14F-1        0.00551   0.00000   0.00000   0.01638   0.00000
  89       14F+2        0.00000   0.00047  -0.00649   0.00000   0.00006
  90       14F-2       -0.00008   0.00000   0.00006   0.00004   0.00002
  91       14F+3        0.00001  -0.00001   0.00005  -0.00001  -0.00144
  92       14F-3        0.00087   0.00000   0.00000  -0.00099   0.00002
  93 3   F  1S          0.14942   0.01932   0.01629   0.01685   0.00035
  94        2S         -0.38180  -0.04938  -0.04372  -0.04558  -0.00108
  95        3S         -0.11693  -0.01553  -0.01470  -0.01560  -0.00040
  96        4S         -0.25127  -0.05355  -0.03443  -0.05058  -0.00206
  97        5S         -0.03185  -0.02247   0.00922   0.04905  -0.00052
  98        6PX         0.00006  -0.00017   0.00145  -0.00077   0.25091
  99        6PY         0.03797  -0.00257   0.16658  -0.13046   0.00158
 100        6PZ         0.00918   0.04623  -0.19497   0.23359   0.00320
 101        7PX         0.00008  -0.00021   0.00176  -0.00093   0.30636
 102        7PY         0.04161  -0.00558   0.20188  -0.15862   0.00187
 103        7PZ         0.00762   0.05429  -0.23637   0.28223   0.00386
 104        8PX         0.00011  -0.00013   0.00116  -0.00079   0.20959
 105        8PY         0.03533  -0.01308   0.12616  -0.13415   0.00064
 106        8PZ         0.00458   0.02827  -0.16490   0.18663   0.00222
 107        9PX        -0.00001  -0.00001   0.00013   0.00001   0.01573
 108        9PY        -0.00136  -0.00324   0.01324   0.00060  -0.00008
 109        9PZ        -0.00040  -0.00365  -0.01416   0.02623   0.00004
 110       10D 0       -0.00016   0.00060  -0.00264   0.00237   0.00002
 111       10D+1        0.00000   0.00000   0.00001  -0.00001   0.00189
 112       10D-1       -0.00042   0.00079  -0.00062   0.00163   0.00008
 113       10D+2        0.00009  -0.00003  -0.00222   0.00058  -0.00004
 114       10D-2        0.00000   0.00000   0.00002   0.00000   0.00305
 115       11D 0       -0.00102   0.00171  -0.00991   0.00866   0.00005
 116       11D+1        0.00000   0.00000   0.00004  -0.00003   0.00806
 117       11D-1       -0.00402   0.00016  -0.00243   0.00610   0.00025
 118       11D+2        0.00192   0.00124  -0.00749   0.00191  -0.00011
 119       11D-2        0.00001   0.00000   0.00006  -0.00001   0.01244
 120       12D 0       -0.00188   0.00014  -0.00477   0.00764   0.00002
 121       12D+1        0.00001   0.00000   0.00004  -0.00003   0.00395
 122       12D-1       -0.00016  -0.00215  -0.00392  -0.00215   0.00010
 123       12D+2       -0.00149   0.00179   0.00087   0.01008   0.00001
 124       12D-2        0.00002   0.00001  -0.00001  -0.00010   0.00790
 125       13F 0        0.00011   0.00005  -0.00067   0.00043  -0.00001
 126       13F+1        0.00000   0.00000   0.00000   0.00000   0.00029
 127       13F-1       -0.00029   0.00047  -0.00173   0.00183   0.00002
 128       13F+2        0.00031  -0.00012  -0.00041  -0.00028  -0.00003
 129       13F-2        0.00000   0.00000   0.00001  -0.00001   0.00165
 130       13F+3        0.00000   0.00000  -0.00001   0.00000  -0.00157
 131       13F-3        0.00002   0.00009  -0.00107   0.00024  -0.00001
 132       14F 0        0.00039   0.00073  -0.00186   0.00031  -0.00003
 133       14F+1        0.00000   0.00000   0.00002   0.00001   0.00016
 134       14F-1       -0.00098   0.00007  -0.00271   0.00305   0.00004
 135       14F+2        0.00101   0.00058  -0.00043  -0.00081  -0.00005
 136       14F-2        0.00001   0.00000   0.00002  -0.00001   0.00302
 137       14F+3        0.00000   0.00000   0.00000   0.00001  -0.00199
 138       14F-3        0.00066   0.00031  -0.00071   0.00086  -0.00003
 139 4   F  1S         -0.14946   0.01932   0.01629  -0.01684   0.00035
 140        2S          0.38191  -0.04938  -0.04372   0.04558  -0.00108
 141        3S          0.11696  -0.01553  -0.01471   0.01560  -0.00040
 142        4S          0.25134  -0.05354  -0.03443   0.05057  -0.00206
 143        5S          0.03186  -0.02246   0.00922  -0.04905  -0.00052
 144        6PX         0.00030  -0.00014  -0.00012  -0.00046   0.25032
 145        6PY         0.03797   0.00257  -0.16657  -0.13048  -0.00394
 146        6PZ        -0.00918   0.04623  -0.19495  -0.23360   0.00320
 147        7PX         0.00032  -0.00015  -0.00014  -0.00057   0.30564
 148        7PY         0.04161   0.00558  -0.20187  -0.15865  -0.00475
 149        7PZ        -0.00762   0.05429  -0.23635  -0.28224   0.00386
 150        8PX         0.00022  -0.00001  -0.00003  -0.00047   0.20911
 151        8PY         0.03533   0.01308  -0.12615  -0.13417  -0.00262
 152        8PZ        -0.00458   0.02827  -0.16489  -0.18664   0.00222
 153        9PX         0.00000   0.00002   0.00001  -0.00001   0.01568
 154        9PY        -0.00136   0.00324  -0.01324   0.00060  -0.00007
 155        9PZ         0.00040  -0.00365  -0.01416  -0.02623   0.00004
 156       10D 0        0.00016   0.00060  -0.00264  -0.00237   0.00002
 157       10D+1        0.00000  -0.00001   0.00002   0.00002   0.00188
 158       10D-1       -0.00042  -0.00079   0.00062   0.00163  -0.00010
 159       10D+2       -0.00009  -0.00003  -0.00222  -0.00058  -0.00010
 160       10D-2        0.00000   0.00000   0.00002   0.00001  -0.00305
 161       11D 0        0.00101   0.00171  -0.00990  -0.00866   0.00005
 162       11D+1       -0.00004  -0.00001   0.00007   0.00009   0.00804
 163       11D-1       -0.00402  -0.00016   0.00243   0.00609  -0.00032
 164       11D+2       -0.00192   0.00124  -0.00749  -0.00191  -0.00035
 165       11D-2        0.00004  -0.00002   0.00008   0.00002  -0.01241
 166       12D 0        0.00188   0.00014  -0.00477  -0.00764   0.00002
 167       12D+1       -0.00001   0.00002   0.00008   0.00001   0.00394
 168       12D-1       -0.00016   0.00214   0.00392  -0.00215  -0.00014
 169       12D+2        0.00149   0.00179   0.00087  -0.01008  -0.00014
 170       12D-2       -0.00001  -0.00004  -0.00001   0.00009  -0.00789
 171       13F 0       -0.00011   0.00005  -0.00067  -0.00043  -0.00001
 172       13F+1        0.00000   0.00000   0.00002   0.00002   0.00029
 173       13F-1       -0.00029  -0.00047   0.00173   0.00183  -0.00003
 174       13F+2       -0.00031  -0.00012  -0.00041   0.00028  -0.00006
 175       13F-2        0.00001   0.00000   0.00000  -0.00001  -0.00165
 176       13F+3        0.00000   0.00000   0.00002   0.00001  -0.00157
 177       13F-3        0.00002  -0.00009   0.00107   0.00024   0.00006
 178       14F 0       -0.00039   0.00073  -0.00186  -0.00031  -0.00003
 179       14F+1       -0.00001   0.00000   0.00004   0.00002   0.00015
 180       14F-1       -0.00098  -0.00007   0.00271   0.00305  -0.00004
 181       14F+2       -0.00101   0.00058  -0.00043   0.00080  -0.00011
 182       14F-2        0.00002  -0.00001  -0.00001  -0.00002  -0.00302
 183       14F+3        0.00002  -0.00001   0.00002   0.00001  -0.00198
 184       14F-3        0.00066  -0.00031   0.00071   0.00086   0.00009
                          11        12        13        14        15
     Eigenvalues --     1.96815   1.96675   1.96296   1.96122   1.95628
   1 1   O  1S          0.00000   0.05051   0.00001   0.00136   0.00000
   2        2S          0.00000  -0.15204  -0.00002  -0.02580   0.00000
   3        3S          0.00000  -0.04664  -0.00001  -0.01178   0.00000
   4        4S          0.00000  -0.21233  -0.00005  -0.13293  -0.00001
   5        5S          0.00000  -0.04562  -0.00001  -0.04425   0.00000
   6        6PX         0.00001   0.00076   0.00110   0.00061   0.00121
   7        6PY        -0.00024  -0.00002   0.23242  -0.00008   0.25708
   8        6PZ         0.00000  -0.16452  -0.00007  -0.26211  -0.00002
   9        7PX         0.00001   0.00097   0.00134   0.00074   0.00149
  10        7PY        -0.00032  -0.00002   0.28367  -0.00010   0.31632
  11        7PZ         0.00000  -0.19050  -0.00008  -0.31487  -0.00003
  12        8PX         0.00002   0.00088   0.00089   0.00049   0.00102
  13        8PY        -0.00028  -0.00002   0.18755  -0.00006   0.21666
  14        8PZ         0.00000  -0.08005  -0.00004  -0.15300  -0.00001
  15        9PX         0.00001   0.00021   0.00012   0.00004   0.00014
  16        9PY        -0.00023   0.00000   0.02590  -0.00001   0.02927
  17        9PZ         0.00000   0.00325   0.00000  -0.00437   0.00000
  18       10D 0        0.00000   0.00730   0.00000   0.01206   0.00000
  19       10D+1        0.00000   0.00001  -0.00004  -0.00002  -0.00002
  20       10D-1        0.00001   0.00000  -0.00761   0.00000  -0.00494
  21       10D+2        0.00000   0.00008   0.00000   0.00022   0.00000
  22       10D-2       -0.00022   0.00000  -0.00001   0.00000   0.00000
  23       11D 0        0.00000   0.01229   0.00001   0.02939   0.00000
  24       11D+1        0.00000  -0.00002  -0.00009  -0.00004  -0.00006
  25       11D-1        0.00006   0.00000  -0.01863   0.00001  -0.01224
  26       11D+2       -0.00003  -0.00009   0.00000   0.00114   0.00000
  27       11D-2       -0.00279   0.00000   0.00002  -0.00001  -0.00001
  28       12D 0        0.00000  -0.00062   0.00000   0.00483   0.00000
  29       12D+1        0.00000  -0.00004  -0.00004  -0.00003  -0.00001
  30       12D-1        0.00000   0.00000  -0.00866   0.00000  -0.00164
  31       12D+2       -0.00007  -0.00063   0.00000   0.00295   0.00000
  32       12D-2       -0.00742   0.00001   0.00006  -0.00003  -0.00002
  33       13F 0        0.00000  -0.00250   0.00000  -0.00480   0.00000
  34       13F+1        0.00000  -0.00001   0.00002   0.00000   0.00001
  35       13F-1       -0.00001   0.00000   0.00417   0.00000   0.00221
  36       13F+2        0.00000  -0.00027   0.00000  -0.00069   0.00000
  37       13F-2        0.00036   0.00000   0.00001   0.00001   0.00000
  38       13F+3        0.00000   0.00000   0.00001   0.00000   0.00001
  39       13F-3        0.00000   0.00000   0.00064   0.00000   0.00094
  40       14F 0        0.00000  -0.00088   0.00000  -0.00669   0.00000
  41       14F+1        0.00000   0.00003   0.00002   0.00000   0.00001
  42       14F-1       -0.00002   0.00000   0.00385   0.00000   0.00252
  43       14F+2        0.00003  -0.00011   0.00000  -0.00081   0.00000
  44       14F-2        0.00306   0.00000  -0.00003   0.00001   0.00000
  45       14F+3        0.00000   0.00000   0.00001  -0.00001  -0.00001
  46       14F-3        0.00001   0.00000   0.00081   0.00000  -0.00077
  47 2   C  1S          0.00000  -0.14315  -0.00002  -0.02102   0.00000
  48        2S         -0.00001   0.39342   0.00006   0.06091  -0.00001
  49        3S          0.00000   0.10184   0.00002   0.01678   0.00000
  50        4S          0.00000   0.15887   0.00002  -0.01935  -0.00001
  51        5S          0.00000   0.00628   0.00000   0.00757   0.00000
  52        6PX        -0.00010  -0.00124   0.00085   0.00003  -0.00034
  53        6PY        -0.00035  -0.00002   0.18030  -0.00003  -0.07128
  54        6PZ         0.00000  -0.01061   0.00004   0.22931   0.00002
  55        7PX        -0.00013  -0.00156   0.00102   0.00016  -0.00038
  56        7PY        -0.00029  -0.00002   0.21658  -0.00004  -0.07962
  57        7PZ         0.00000  -0.02621   0.00004   0.22756   0.00003
  58        8PX        -0.00002  -0.00020   0.00026   0.00009  -0.00006
  59        8PY        -0.00057  -0.00001   0.05439  -0.00001  -0.01369
  60        8PZ         0.00000  -0.00306   0.00001   0.02793   0.00000
  61        9PX         0.00000  -0.00003  -0.00001   0.00002  -0.00001
  62        9PY         0.00013   0.00000  -0.00232   0.00000  -0.00297
  63        9PZ         0.00000  -0.00002   0.00000   0.00068   0.00000
  64       10D 0        0.00000   0.00787   0.00000   0.01855   0.00000
  65       10D+1        0.00001   0.00026   0.00000   0.00007   0.00021
  66       10D-1       -0.00002   0.00000   0.00086  -0.00001   0.04364
  67       10D+2       -0.00019  -0.00877   0.00000   0.01156   0.00000
  68       10D-2       -0.02028   0.00008   0.00000  -0.00011  -0.00013
  69       11D 0        0.00000   0.00304   0.00000   0.01701   0.00000
  70       11D+1        0.00002   0.00039  -0.00011   0.00012   0.00041
  71       11D-1        0.00014   0.00000  -0.02246  -0.00001   0.08692
  72       11D+2       -0.00031  -0.02204   0.00000   0.02373   0.00000
  73       11D-2       -0.03307   0.00021   0.00006  -0.00022  -0.00031
  74       12D 0        0.00000   0.00130   0.00000  -0.00046   0.00000
  75       12D+1        0.00000   0.00001  -0.00004   0.00003   0.00006
  76       12D-1        0.00039   0.00000  -0.00900   0.00000   0.01294
  77       12D+2        0.00004   0.00355   0.00000   0.00242   0.00000
  78       12D-2        0.00374  -0.00003  -0.00004  -0.00002  -0.00007
  79       13F 0        0.00000   0.00790   0.00000   0.00494   0.00000
  80       13F+1        0.00000  -0.00005   0.00007   0.00003   0.00002
  81       13F-1        0.00003   0.00000   0.01434   0.00000   0.00451
  82       13F+2        0.00009   0.00602   0.00000  -0.00094   0.00000
  83       13F-2        0.00991  -0.00006  -0.00002   0.00001   0.00003
  84       13F+3        0.00001   0.00010   0.00000   0.00000   0.00004
  85       13F-3       -0.00009   0.00000   0.00035   0.00000   0.00307
  86       14F 0        0.00000   0.00378   0.00000  -0.01475   0.00000
  87       14F+1        0.00000   0.00000   0.00014   0.00004   0.00005
  88       14F-1       -0.00002   0.00000   0.02999  -0.00001   0.01128
  89       14F+2        0.00014   0.00917   0.00000  -0.01250   0.00000
  90       14F-2        0.01516  -0.00009  -0.00019   0.00012   0.00012
  91       14F+3        0.00000  -0.00004   0.00005   0.00007   0.00013
  92       14F-3       -0.00003   0.00000   0.00326   0.00000   0.00913
  93 3   F  1S         -0.00007   0.02050  -0.00462   0.00526  -0.02172
  94        2S          0.00017  -0.06331   0.02099  -0.00717   0.05286
  95        3S          0.00005  -0.02295   0.00955   0.00067   0.01367
  96        4S         -0.00024  -0.12411   0.09059   0.04000  -0.01290
  97        5S         -0.00073  -0.02425   0.03689   0.01367  -0.02562
  98        6PX         0.27536  -0.00456   0.00032   0.00057  -0.00038
  99        6PY         0.00026   0.12548  -0.17510  -0.07957   0.15518
 100        6PZ         0.00087   0.10015  -0.00727  -0.12815   0.12100
 101        7PX         0.33522  -0.00557   0.00040   0.00070  -0.00047
 102        7PY         0.00030   0.14937  -0.20995  -0.09910   0.19114
 103        7PZ         0.00105   0.11869  -0.00777  -0.15746   0.14854
 104        8PX         0.23049  -0.00383   0.00031   0.00044  -0.00033
 105        8PY         0.00016   0.06638  -0.10825  -0.04927   0.11622
 106        8PZ         0.00067   0.05443   0.00968  -0.09989   0.08253
 107        9PX         0.02478  -0.00031  -0.00005   0.00002  -0.00003
 108        9PY        -0.00020  -0.00297  -0.00504   0.00242   0.00644
 109        9PZ         0.00001   0.00091   0.01248  -0.00793   0.00814
 110       10D 0        0.00001   0.00001  -0.00006   0.00034  -0.00005
 111       10D+1        0.00177  -0.00003   0.00001   0.00001   0.00000
 112       10D-1        0.00001   0.00387  -0.00320  -0.00258   0.00342
 113       10D+2       -0.00001  -0.00256   0.00219   0.00212  -0.00205
 114       10D-2        0.00221  -0.00005   0.00001   0.00001  -0.00001
 115       11D 0        0.00004  -0.00033  -0.00231   0.00150  -0.00147
 116       11D+1        0.00709  -0.00013   0.00003   0.00002  -0.00001
 117       11D-1        0.00006   0.01087  -0.01149  -0.01150   0.01175
 118       11D+2       -0.00001  -0.00778   0.00672   0.00836  -0.00786
 119       11D-2        0.00950  -0.00022   0.00004   0.00003  -0.00003
 120       12D 0        0.00004  -0.00130  -0.00745  -0.00102  -0.00403
 121       12D+1        0.00449  -0.00007   0.00006   0.00002   0.00001
 122       12D-1        0.00003   0.00204  -0.00252  -0.00311   0.00240
 123       12D+2       -0.00005  -0.00100  -0.00092   0.00476  -0.00527
 124       12D-2        0.00451  -0.00013   0.00003   0.00000  -0.00002
 125       13F 0        0.00000  -0.00099   0.00090   0.00089  -0.00095
 126       13F+1        0.00017   0.00000   0.00000   0.00000   0.00000
 127       13F-1        0.00001   0.00074  -0.00052  -0.00063   0.00083
 128       13F+2        0.00000  -0.00154   0.00160   0.00147  -0.00157
 129       13F-2        0.00150  -0.00003   0.00000   0.00001   0.00000
 130       13F+3       -0.00091   0.00003  -0.00001   0.00000   0.00000
 131       13F-3       -0.00001  -0.00083   0.00070   0.00090  -0.00066
 132       14F 0        0.00001  -0.00087   0.00014   0.00212  -0.00204
 133       14F+1        0.00094  -0.00001   0.00001   0.00001   0.00001
 134       14F-1        0.00002   0.00067  -0.00335  -0.00045   0.00042
 135       14F+2       -0.00002  -0.00251   0.00265   0.00304  -0.00257
 136       14F-2        0.00254  -0.00005   0.00002   0.00000  -0.00001
 137       14F+3       -0.00228   0.00004   0.00000  -0.00001   0.00001
 138       14F-3        0.00000  -0.00155   0.00144   0.00160  -0.00178
 139 4   F  1S          0.00007   0.02050   0.00462   0.00526   0.02172
 140        2S         -0.00017  -0.06331  -0.02101  -0.00715  -0.05286
 141        3S         -0.00005  -0.02295  -0.00955   0.00067  -0.01367
 142        4S          0.00025  -0.12407  -0.09061   0.04003   0.01291
 143        5S          0.00073  -0.02423  -0.03689   0.01368   0.02562
 144        6PX        -0.27586  -0.00575  -0.00197   0.00133   0.00185
 145        6PY         0.00287  -0.12536  -0.17509   0.07960   0.15521
 146        6PZ        -0.00088   0.10015   0.00724  -0.12812  -0.12104
 147        7PX        -0.33583  -0.00698  -0.00238   0.00163   0.00228
 148        7PY         0.00347  -0.14923  -0.20994   0.09913   0.19117
 149        7PZ        -0.00106   0.11869   0.00773  -0.15742  -0.14859
 150        8PX        -0.23091  -0.00446  -0.00133   0.00090   0.00143
 151        8PY         0.00234  -0.06629  -0.10824   0.04928   0.11624
 152        8PZ        -0.00067   0.05444  -0.00970  -0.09987  -0.08256
 153        9PX        -0.02481  -0.00028   0.00000   0.00000   0.00010
 154        9PY         0.00003   0.00297  -0.00504  -0.00242   0.00644
 155        9PZ        -0.00001   0.00092  -0.01248  -0.00792  -0.00814
 156       10D 0       -0.00001   0.00001   0.00006   0.00034   0.00005
 157       10D+1       -0.00178  -0.00007  -0.00004   0.00003   0.00003
 158       10D-1        0.00003  -0.00387  -0.00320   0.00258   0.00342
 159       10D+2        0.00005  -0.00256  -0.00219   0.00212   0.00205
 160       10D-2        0.00221   0.00010   0.00005  -0.00005  -0.00005
 161       11D 0       -0.00004  -0.00033   0.00231   0.00150   0.00147
 162       11D+1       -0.00711  -0.00024  -0.00014   0.00013   0.00012
 163       11D-1        0.00012  -0.01086  -0.01149   0.01150   0.01175
 164       11D+2        0.00019  -0.00777  -0.00671   0.00836   0.00786
 165       11D-2        0.00952   0.00036   0.00017  -0.00019  -0.00018
 166       12D 0       -0.00004  -0.00130   0.00745  -0.00102   0.00403
 167       12D+1       -0.00450  -0.00009  -0.00009   0.00005   0.00001
 168       12D-1        0.00007  -0.00204  -0.00252   0.00311   0.00241
 169       12D+2        0.00013  -0.00100   0.00092   0.00476   0.00527
 170       12D-2        0.00453   0.00015   0.00001  -0.00009  -0.00012
 171       13F 0        0.00000  -0.00099  -0.00090   0.00089   0.00095
 172       13F+1       -0.00017  -0.00001   0.00000   0.00001   0.00001
 173       13F-1        0.00001  -0.00074  -0.00052   0.00063   0.00083
 174       13F+2        0.00003  -0.00154  -0.00160   0.00147   0.00157
 175       13F-2        0.00150   0.00006   0.00003  -0.00003  -0.00003
 176       13F+3        0.00091   0.00005   0.00003  -0.00003  -0.00002
 177       13F-3       -0.00003   0.00083   0.00070  -0.00090  -0.00066
 178       14F 0       -0.00001  -0.00087  -0.00014   0.00212   0.00204
 179       14F+1       -0.00094  -0.00001  -0.00004   0.00001  -0.00001
 180       14F-1        0.00003  -0.00067  -0.00335   0.00046   0.00042
 181       14F+2        0.00007  -0.00251  -0.00265   0.00304   0.00257
 182       14F-2        0.00254   0.00010   0.00007  -0.00006  -0.00006
 183       14F+3        0.00228   0.00008   0.00004  -0.00005  -0.00006
 184       14F-3       -0.00007   0.00155   0.00144  -0.00160  -0.00178
                          16        17        18        19        20
     Eigenvalues --     1.93992   0.05890   0.03796   0.03613   0.02446
   1 1   O  1S         -0.00014  -0.00015  -0.03412   0.00003   0.07142
   2        2S          0.00045   0.00063   0.13999  -0.00010  -0.27659
   3        3S          0.00015   0.00015   0.05084  -0.00004  -0.11579
   4        4S          0.00069   0.00097   0.17846  -0.00014  -0.49847
   5        5S         -0.00003   0.00089   0.08351  -0.00006  -0.20208
   6        6PX         0.30118  -0.35161   0.00179   0.00162  -0.00002
   7        6PY        -0.00142   0.00166   0.00022   0.34380  -0.00001
   8        6PZ         0.00057  -0.00107  -0.19201   0.00014   0.34680
   9        7PX         0.37591  -0.39419   0.00169   0.00147   0.00031
  10        7PY        -0.00178   0.00186   0.00020   0.31089  -0.00001
  11        7PZ         0.00069  -0.00135  -0.21989   0.00016   0.43103
  12        8PX         0.23989  -0.06914  -0.00013  -0.00025   0.00039
  13        8PY        -0.00113   0.00033  -0.00003  -0.05286   0.00000
  14        8PZ         0.00031   0.00031   0.03186  -0.00002   0.16040
  15        9PX         0.01513  -0.00759   0.00005  -0.00015   0.00017
  16        9PY        -0.00007   0.00004  -0.00002  -0.03216   0.00000
  17        9PZ         0.00001  -0.00025  -0.00524   0.00000   0.02026
  18       10D 0       -0.00003   0.00001  -0.00333   0.00000   0.03091
  19       10D+1       -0.01117  -0.01641   0.00016   0.00013   0.00008
  20       10D-1        0.00005   0.00008   0.00002   0.02806   0.00000
  21       10D+2        0.00000  -0.00003  -0.00365   0.00000   0.00117
  22       10D-2        0.00000   0.00000   0.00003   0.00004  -0.00001
  23       11D 0       -0.00006   0.00010   0.00334   0.00000   0.02470
  24       11D+1       -0.02917  -0.01838   0.00028   0.00024  -0.00003
  25       11D-1        0.00014   0.00009   0.00003   0.05167   0.00000
  26       11D+2        0.00000  -0.00005  -0.00289   0.00000   0.00050
  27       11D-2        0.00000   0.00000   0.00003  -0.00004   0.00000
  28       12D 0       -0.00003  -0.00029  -0.03360   0.00002  -0.02955
  29       12D+1       -0.00931   0.01921  -0.00002   0.00002  -0.00001
  30       12D-1        0.00004  -0.00009   0.00000   0.00481   0.00000
  31       12D+2       -0.00001   0.00007   0.00502  -0.00001   0.00142
  32       12D-2        0.00000   0.00000  -0.00005  -0.00034  -0.00001
  33       13F 0        0.00001  -0.00001  -0.00317   0.00000  -0.00194
  34       13F+1        0.00585   0.00447  -0.00005  -0.00003   0.00001
  35       13F-1       -0.00003  -0.00002   0.00000  -0.00705   0.00000
  36       13F+2        0.00001  -0.00002  -0.00174   0.00000   0.00150
  37       13F-2        0.00000   0.00000   0.00002  -0.00001  -0.00001
  38       13F+3        0.00100  -0.00261   0.00002   0.00003   0.00000
  39       13F-3       -0.00001   0.00004   0.00000   0.00178   0.00000
  40       14F 0        0.00000  -0.00003   0.00031   0.00000  -0.00842
  41       14F+1        0.00367  -0.00391   0.00004  -0.00002   0.00003
  42       14F-1       -0.00002   0.00002   0.00000  -0.00482   0.00000
  43       14F+2        0.00001  -0.00005  -0.00254   0.00000  -0.00281
  44       14F-2        0.00000   0.00000   0.00002   0.00014   0.00003
  45       14F+3        0.00058  -0.00165  -0.00007   0.00003   0.00000
  46       14F-3       -0.00001   0.00002   0.00000   0.00200   0.00000
  47 2   C  1S          0.00054   0.00102   0.17785  -0.00013  -0.06121
  48        2S         -0.00156  -0.00343  -0.61377   0.00044   0.26382
  49        3S         -0.00041  -0.00109  -0.18683   0.00013   0.12220
  50        4S         -0.00109  -0.00279  -0.46177   0.00034   0.19814
  51        5S          0.00005  -0.00018  -0.03959   0.00003   0.04178
  52        6PX         0.18306   0.32828  -0.00237  -0.00163  -0.00047
  53        6PY        -0.00086  -0.00155  -0.00023  -0.34458   0.00001
  54        6PZ        -0.00010   0.00108   0.11880  -0.00007   0.34768
  55        7PX         0.23342   0.46542  -0.00372  -0.00284  -0.00129
  56        7PY        -0.00110  -0.00220  -0.00039  -0.60091   0.00003
  57        7PZ        -0.00001   0.00169   0.20080  -0.00013   0.67750
  58        8PX         0.08720   0.14001  -0.00107  -0.00063  -0.00026
  59        8PY        -0.00041  -0.00066  -0.00008  -0.13444   0.00000
  60        8PZ        -0.00002  -0.00101  -0.03275   0.00002   0.14210
  61        9PX         0.00844   0.00754  -0.00005  -0.00002  -0.00005
  62        9PY        -0.00004  -0.00004   0.00000  -0.00363   0.00000
  63        9PZ        -0.00003   0.00010   0.00295   0.00000   0.00736
  64       10D 0        0.00000   0.00010   0.00460   0.00000  -0.03226
  65       10D+1        0.02595   0.00949  -0.00004  -0.00010   0.00001
  66       10D-1       -0.00012  -0.00004  -0.00001  -0.02141   0.00000
  67       10D+2       -0.00004  -0.00009  -0.00058   0.00000  -0.00297
  68       10D-2        0.00000   0.00000   0.00001   0.00007   0.00003
  69       11D 0        0.00022   0.00043  -0.02311   0.00003   0.02854
  70       11D+1        0.04513   0.06073   0.00013   0.00035   0.00018
  71       11D-1       -0.00021  -0.00029   0.00005   0.07328   0.00000
  72       11D+2        0.00000   0.00034   0.06279  -0.00004   0.02955
  73       11D-2        0.00000   0.00000  -0.00059  -0.00052  -0.00028
  74       12D 0        0.00016  -0.00024  -0.04088   0.00003   0.04569
  75       12D+1        0.00510   0.02203   0.00002  -0.00006  -0.00040
  76       12D-1       -0.00002  -0.00010  -0.00001  -0.01217   0.00000
  77       12D+2        0.00004  -0.00007   0.00522   0.00000   0.01106
  78       12D-2        0.00000   0.00000  -0.00005   0.00023  -0.00010
  79       13F 0       -0.00002   0.00006  -0.00475   0.00000   0.01206
  80       13F+1        0.00770   0.01611  -0.00021  -0.00013  -0.00024
  81       13F-1       -0.00004  -0.00008  -0.00002  -0.02679   0.00000
  82       13F+2        0.00000  -0.00022  -0.02828   0.00002  -0.01295
  83       13F-2        0.00000   0.00000   0.00027   0.00020   0.00012
  84       13F+3        0.00062  -0.00459   0.00020   0.00017  -0.00003
  85       13F-3       -0.00001   0.00007   0.00001   0.01194   0.00000
  86       14F 0       -0.00004  -0.00047  -0.04420   0.00003   0.00411
  87       14F+1        0.00769   0.02708  -0.00005  -0.00071  -0.00002
  88       14F-1       -0.00004  -0.00013  -0.00010  -0.15025   0.00001
  89       14F+2       -0.00002  -0.00030  -0.03850   0.00003  -0.00673
  90       14F-2        0.00000   0.00000   0.00036   0.00101   0.00006
  91       14F+3        0.00402   0.00755   0.00028  -0.00047   0.00005
  92       14F-3       -0.00006  -0.00011  -0.00003  -0.03312   0.00000
  93 3   F  1S         -0.00004  -0.00015  -0.05255   0.04552  -0.01866
  94        2S          0.00011   0.00057   0.16339  -0.13291   0.04447
  95        3S          0.00003   0.00018   0.07424  -0.06641   0.02871
  96        4S          0.00018   0.00102   0.22140  -0.25164   0.10960
  97        5S          0.00005  -0.00023   0.05304  -0.07768   0.05759
  98        6PX        -0.05778  -0.18564   0.00132   0.00091   0.00047
  99        6PY         0.00013   0.00158   0.28138  -0.10464   0.21472
 100        6PZ        -0.00018  -0.00003   0.14654  -0.22340  -0.17637
 101        7PX        -0.06985  -0.15257   0.00079   0.00064   0.00020
 102        7PY         0.00017   0.00160   0.26971  -0.13753   0.13758
 103        7PZ        -0.00021   0.00022   0.15906  -0.19152  -0.06703
 104        8PX        -0.06366   0.02672  -0.00064  -0.00128  -0.00043
 105        8PY         0.00012  -0.00005  -0.00223  -0.19607  -0.07780
 106        8PZ        -0.00005   0.00071   0.03779   0.09484   0.21840
 107        9PX        -0.01936  -0.00303   0.00000   0.00009  -0.00016
 108        9PY         0.00005  -0.00001   0.00400  -0.01156  -0.01281
 109        9PZ         0.00003  -0.00016  -0.00809  -0.01094   0.03749
 110       10D 0        0.00000   0.00003   0.00232   0.00553   0.01261
 111       10D+1        0.00084   0.00409  -0.00004  -0.00003  -0.00001
 112       10D-1        0.00000  -0.00001  -0.01070   0.01138   0.00075
 113       10D+2        0.00000   0.00002   0.00878  -0.00427   0.01273
 114       10D-2        0.00077   0.00560  -0.00005  -0.00004  -0.00002
 115       11D 0        0.00003   0.00015   0.00843   0.02753   0.03883
 116       11D+1        0.00261   0.01551  -0.00018  -0.00018  -0.00005
 117       11D-1        0.00002   0.00006  -0.01234   0.01974   0.01260
 118       11D+2        0.00001   0.00007   0.01324   0.00211   0.03087
 119       11D-2        0.00199   0.01953  -0.00019  -0.00013  -0.00005
 120       12D 0        0.00005   0.00019   0.00664   0.06598   0.02257
 121       12D+1        0.00226   0.01044  -0.00004  -0.00041  -0.00004
 122       12D-1        0.00003   0.00014  -0.00534   0.00153   0.03140
 123       12D+2        0.00002   0.00013   0.01242   0.04374   0.00010
 124       12D-2       -0.00159   0.00429  -0.00011  -0.00033   0.00001
 125       13F 0        0.00000   0.00001  -0.00052   0.00079   0.00155
 126       13F+1        0.00018   0.00052  -0.00001   0.00000   0.00000
 127       13F-1        0.00000   0.00000   0.00119   0.00072   0.00312
 128       13F+2        0.00000  -0.00001  -0.00143  -0.00048  -0.00038
 129       13F-2        0.00040   0.00085  -0.00001   0.00001   0.00001
 130       13F+3       -0.00045  -0.00213   0.00003   0.00002   0.00002
 131       13F-3        0.00000   0.00001   0.00041   0.00073   0.00248
 132       14F 0        0.00000  -0.00001   0.00248   0.00483   0.00117
 133       14F+1        0.00072   0.00146   0.00001  -0.00005  -0.00003
 134       14F-1        0.00002   0.00006   0.00067   0.01145   0.00485
 135       14F+2       -0.00001  -0.00001   0.00346   0.00016   0.00141
 136       14F-2        0.00052   0.00404  -0.00006  -0.00010  -0.00003
 137       14F+3        0.00080   0.00084  -0.00002  -0.00002  -0.00005
 138       14F-3        0.00000   0.00000  -0.00010   0.00071   0.00144
 139 4   F  1S         -0.00004  -0.00015  -0.05261  -0.04544  -0.01865
 140        2S          0.00011   0.00057   0.16356   0.13268   0.04446
 141        3S          0.00003   0.00018   0.07432   0.06631   0.02870
 142        4S          0.00018   0.00102   0.22172   0.25131   0.10957
 143        5S          0.00005  -0.00023   0.05313   0.07760   0.05758
 144        6PX        -0.05778  -0.18564  -0.00134  -0.00190  -0.00156
 145        6PY         0.00041   0.00017  -0.28153  -0.10425  -0.21470
 146        6PZ        -0.00018  -0.00003   0.14684   0.22319  -0.17639
 147        7PX        -0.06985  -0.15258  -0.00176  -0.00194  -0.00110
 148        7PY         0.00049  -0.00016  -0.26990  -0.13716  -0.13756
 149        7PZ        -0.00021   0.00022   0.15932   0.19129  -0.06704
 150        8PX        -0.06366   0.02673  -0.00062  -0.00057   0.00031
 151        8PY         0.00048  -0.00020   0.00198  -0.19607   0.07783
 152        8PZ        -0.00005   0.00071   0.03767  -0.09489   0.21842
 153        9PX        -0.01936  -0.00303  -0.00003  -0.00020  -0.00004
 154        9PY         0.00013   0.00004  -0.00401  -0.01156   0.01281
 155        9PZ         0.00003  -0.00016  -0.00807   0.01094   0.03749
 156       10D 0        0.00000   0.00003   0.00231  -0.00553   0.01261
 157       10D+1        0.00084   0.00409   0.00006   0.00014  -0.00001
 158       10D-1       -0.00001  -0.00003   0.01072   0.01136  -0.00075
 159       10D+2       -0.00001  -0.00008   0.00878   0.00426   0.01273
 160       10D-2       -0.00077  -0.00560  -0.00011  -0.00012  -0.00022
 161       11D 0        0.00003   0.00015   0.00839  -0.02754   0.03883
 162       11D+1        0.00260   0.01551  -0.00006   0.00037  -0.00017
 163       11D-1       -0.00004  -0.00021   0.01237   0.01972  -0.01260
 164       11D+2       -0.00003  -0.00030   0.01324  -0.00213   0.03087
 165       11D-2       -0.00199  -0.01953  -0.00006  -0.00009  -0.00053
 166       12D 0        0.00005   0.00019   0.00655  -0.06598   0.02258
 167       12D+1        0.00225   0.01044   0.00001   0.00043  -0.00033
 168       12D-1       -0.00005  -0.00024   0.00535   0.00152  -0.03140
 169       12D+2        0.00005   0.00005   0.01236  -0.04375   0.00011
 170       12D-2        0.00159  -0.00430  -0.00013   0.00050  -0.00001
 171       13F 0        0.00000   0.00001  -0.00053  -0.00079   0.00155
 172       13F+1        0.00018   0.00052  -0.00002   0.00001  -0.00003
 173       13F-1        0.00000  -0.00001  -0.00119   0.00072  -0.00312
 174       13F+2       -0.00001  -0.00003  -0.00143   0.00049  -0.00038
 175       13F-2       -0.00040  -0.00085   0.00004   0.00000   0.00000
 176       13F+3       -0.00045  -0.00213   0.00002   0.00001  -0.00005
 177       13F-3        0.00001   0.00005  -0.00041   0.00073  -0.00248
 178       14F 0        0.00000  -0.00001   0.00248  -0.00484   0.00118
 179       14F+1        0.00071   0.00146   0.00000   0.00016  -0.00008
 180       14F-1       -0.00002  -0.00008  -0.00066   0.01145  -0.00485
 181       14F+2       -0.00002  -0.00009   0.00346  -0.00017   0.00141
 182       14F-2       -0.00052  -0.00404   0.00000  -0.00009   0.00001
 183       14F+3        0.00080   0.00084  -0.00002   0.00004  -0.00009
 184       14F-3       -0.00003  -0.00003   0.00010   0.00071  -0.00143
                          21        22        23        24        25
     Eigenvalues --     0.01543   0.01405   0.01393   0.01351   0.01081
   1 1   O  1S         -0.03456   0.00000   0.00092   0.00001  -0.23975
   2        2S          0.06943   0.00000  -0.00239  -0.00002   0.78011
   3        3S          0.11265   0.00000  -0.00245  -0.00002   0.65853
   4        4S         -0.79629  -0.00002   0.01126   0.00006  -1.19607
   5        5S         -0.45390  -0.00001   0.00572   0.00003  -0.29228
   6        6PX         0.00128  -0.00049   0.26041   0.00144   0.00059
   7        6PY         0.00000   0.00352  -0.00122   0.30553   0.00002
   8        6PZ         0.30200   0.00001  -0.00304  -0.00002   0.20687
   9        7PX         0.00094  -0.00038   0.19844   0.00078   0.00047
  10        7PY         0.00000   0.00164  -0.00093   0.16438   0.00001
  11        7PZ         0.29809   0.00000  -0.00242  -0.00001  -0.03026
  12        8PX        -0.00066   0.00026  -0.14171  -0.00089   0.00015
  13        8PY         0.00001  -0.00295   0.00066  -0.18776   0.00000
  14        8PZ         0.03809   0.00000  -0.00053   0.00001  -0.10091
  15        9PX        -0.00035   0.00006  -0.03205   0.00001   0.00011
  16        9PY         0.00001  -0.00105   0.00015   0.00118  -0.00001
  17        9PZ         0.05860   0.00000  -0.00079   0.00000   0.00003
  18       10D 0        0.05491   0.00000  -0.00056   0.00000  -0.01832
  19       10D+1        0.00032  -0.00008   0.04041  -0.00004   0.00016
  20       10D-1        0.00000   0.00007  -0.00019  -0.00762   0.00000
  21       10D+2        0.01336  -0.00022   0.00011   0.00000  -0.02075
  22       10D-2       -0.00013  -0.02362  -0.00005   0.00025   0.00020
  23       11D 0        0.08938   0.00000  -0.00093  -0.00001  -0.06605
  24       11D+1        0.00086  -0.00014   0.07465  -0.00022   0.00046
  25       11D-1       -0.00001   0.00029  -0.00035  -0.04632  -0.00001
  26       11D+2        0.04562  -0.00071   0.00023   0.00000  -0.00699
  27       11D-2       -0.00043  -0.07500  -0.00015   0.00089   0.00007
  28       12D 0        0.02326   0.00000   0.00008   0.00000  -0.05098
  29       12D+1       -0.00014   0.00003  -0.01590  -0.00024  -0.00007
  30       12D-1        0.00000  -0.00034   0.00007  -0.05104  -0.00001
  31       12D+2        0.01873  -0.00052   0.00036   0.00000   0.01135
  32       12D-2       -0.00018  -0.05467  -0.00011   0.00061  -0.00011
  33       13F 0       -0.01008   0.00000   0.00012   0.00000   0.00125
  34       13F+1       -0.00011   0.00001  -0.00667   0.00003  -0.00003
  35       13F-1        0.00000  -0.00004   0.00003   0.00563   0.00000
  36       13F+2       -0.00437   0.00005   0.00000   0.00000   0.00209
  37       13F-2        0.00004   0.00543   0.00001  -0.00008  -0.00002
  38       13F+3        0.00002   0.00000  -0.00073  -0.00002  -0.00001
  39       13F-3        0.00000  -0.00004   0.00001  -0.00141   0.00000
  40       14F 0       -0.02598   0.00000   0.00014   0.00000   0.02175
  41       14F+1       -0.00004   0.00002  -0.01063   0.00002  -0.00003
  42       14F-1        0.00000  -0.00008   0.00005   0.00417   0.00000
  43       14F+2       -0.00058   0.00027  -0.00026   0.00000  -0.00152
  44       14F-2        0.00001   0.02816   0.00006  -0.00034   0.00001
  45       14F+3       -0.00008  -0.00001   0.00646   0.00018   0.00008
  46       14F-3        0.00000   0.00018  -0.00009   0.01274   0.00000
  47 2   C  1S         -0.03897   0.00000   0.00047   0.00001   0.00907
  48        2S          0.16975   0.00000  -0.00171  -0.00003   0.05540
  49        3S          0.11832   0.00000  -0.00114  -0.00002   0.05511
  50        4S         -0.13089   0.00001  -0.00319  -0.00001   0.19887
  51        5S          0.06211   0.00000  -0.00120  -0.00001   0.06119
  52        6PX        -0.00129   0.00026  -0.12276   0.00105  -0.00049
  53        6PY         0.00002   0.00194   0.00058   0.22240   0.00001
  54        6PZ         0.33405   0.00001  -0.00256  -0.00001  -0.11676
  55        7PX        -0.00184   0.00038  -0.17934   0.00228  -0.00098
  56        7PY         0.00005   0.00475   0.00086   0.48359   0.00003
  57        7PZ         0.50067   0.00001  -0.00390   0.00000  -0.00810
  58        8PX        -0.00170   0.00033  -0.16464   0.00210  -0.00044
  59        8PY         0.00004   0.00218   0.00078   0.44495  -0.00001
  60        8PZ         0.45270   0.00001  -0.00310  -0.00002  -0.02901
  61        9PX        -0.00001   0.00002  -0.00791  -0.00003  -0.00010
  62        9PY         0.00000   0.00054   0.00004  -0.00679   0.00000
  63        9PZ         0.01987   0.00000   0.00008   0.00000   0.00463
  64       10D 0        0.05982   0.00000  -0.00077  -0.00001  -0.02907
  65       10D+1       -0.00077   0.00021  -0.10892  -0.00040  -0.00042
  66       10D-1        0.00000  -0.00133   0.00051  -0.08533   0.00000
  67       10D+2        0.04686  -0.00086   0.00044   0.00001  -0.02687
  68       10D-2       -0.00044  -0.09139  -0.00019   0.00116   0.00025
  69       11D 0        0.18709   0.00000  -0.00242  -0.00001  -0.12452
  70       11D+1       -0.00076   0.00038  -0.20969  -0.00223  -0.00059
  71       11D-1       -0.00002  -0.00404   0.00098  -0.47299  -0.00003
  72       11D+2        0.18281  -0.00132  -0.00028   0.00002  -0.04075
  73       11D-2       -0.00173  -0.13999  -0.00028   0.00347   0.00038
  74       12D 0        0.05033   0.00000  -0.00144  -0.00001   0.03142
  75       12D+1        0.00057   0.00002  -0.00718  -0.00090  -0.00035
  76       12D-1       -0.00002   0.00029   0.00003  -0.19050   0.00000
  77       12D+2        0.04420   0.00025  -0.00088   0.00000   0.00633
  78       12D-2       -0.00042   0.02588   0.00006   0.00077  -0.00006
  79       13F 0       -0.01337   0.00000   0.00002   0.00000  -0.00529
  80       13F+1        0.00015   0.00002  -0.00720   0.00020  -0.00018
  81       13F-1        0.00000   0.00080   0.00004   0.04317   0.00000
  82       13F+2       -0.01539   0.00028  -0.00017  -0.00001  -0.00683
  83       13F-2        0.00015   0.02988   0.00006  -0.00071   0.00006
  84       13F+3        0.00005   0.00005  -0.02661  -0.00016  -0.00010
  85       13F-3        0.00000  -0.00040   0.00038  -0.01153   0.00000
  86       14F 0       -0.06820   0.00000   0.00019   0.00001  -0.05240
  87       14F+1        0.00036   0.00009  -0.04877  -0.00058  -0.00027
  88       14F-1       -0.00001  -0.00101   0.00023  -0.12193  -0.00002
  89       14F+2       -0.07427   0.00060   0.00006  -0.00001  -0.00438
  90       14F-2        0.00070   0.06321   0.00013  -0.00137   0.00004
  91       14F+3        0.00046   0.00000  -0.00795  -0.00101  -0.00030
  92       14F-3       -0.00001  -0.00079   0.00011  -0.07164   0.00000
  93 3   F  1S          0.01377   0.00024  -0.00014   0.04904  -0.02381
  94        2S         -0.02465  -0.00056   0.00040  -0.12191   0.05830
  95        3S         -0.03752  -0.00074   0.00035  -0.13579   0.06089
  96        4S          0.34187   0.00428  -0.00153   0.69039  -0.12357
  97        5S          0.23635   0.00173  -0.00156   0.53773  -0.00748
  98        6PX        -0.00374  -0.45491  -0.40049   0.00534  -0.00101
  99        6PY        -0.09406   0.00446   0.00106   0.34092   0.03606
 100        6PZ         0.32886  -0.00247  -0.00256  -0.00621  -0.12331
 101        7PX        -0.00129  -0.13715  -0.11725   0.00151  -0.00020
 102        7PY         0.01320   0.00211   0.00023   0.17904   0.00563
 103        7PZ         0.13935  -0.00016  -0.00079   0.05947  -0.02259
 104        8PX         0.00398   0.51729   0.50914  -0.00687   0.00140
 105        8PY         0.20644  -0.00406  -0.00164  -0.25377  -0.05501
 106        8PZ        -0.27559   0.00539   0.00239   0.29190   0.14550
 107        9PX         0.00061   0.08114   0.07661  -0.00080   0.00016
 108        9PY         0.05562  -0.00065  -0.00024   0.05432  -0.01306
 109        9PZ        -0.00248   0.00076  -0.00031   0.05149   0.02332
 110       10D 0       -0.00130   0.00020  -0.00008   0.00319   0.00030
 111       10D+1        0.00000   0.01495  -0.00430  -0.00017  -0.00004
 112       10D-1       -0.01417  -0.00024   0.00007  -0.02560   0.01739
 113       10D+2        0.00479   0.00006   0.00003   0.00999  -0.00173
 114       10D-2        0.00015   0.00810   0.01384   0.00003  -0.00001
 115       11D 0        0.00265   0.00050  -0.00030   0.00593  -0.00259
 116       11D+1        0.00004   0.04187  -0.00801  -0.00042  -0.00012
 117       11D-1       -0.02488  -0.00040   0.00010  -0.04689   0.05120
 118       11D+2        0.01000  -0.00003   0.00005   0.00759  -0.00986
 119       11D-2        0.00038   0.02667   0.04219   0.00010  -0.00006
 120       12D 0       -0.01306   0.00095  -0.00004   0.05949  -0.00236
 121       12D+1        0.00019   0.02918   0.00631  -0.00056  -0.00007
[...]
 112       10D-1       -0.01292   0.02400   0.00017   0.00386  -0.00208
 113       10D+2        0.02582  -0.01870  -0.00003  -0.00580   0.01096
 114       10D-2       -0.00015   0.00019  -0.01031   0.00024  -0.00008
 115       11D 0        0.04961  -0.04716   0.00089  -0.06856  -0.01146
 116       11D+1       -0.00098   0.00199  -0.11029  -0.00256   0.00009
 117       11D-1        0.07467  -0.08259  -0.00043  -0.03562   0.01522
 118       11D+2       -0.09523   0.05718   0.00007   0.02476  -0.03441
 119       11D-2        0.00047  -0.00046   0.02397  -0.00096   0.00024
 120       12D 0        0.42668   0.10447  -0.00487   0.18863   0.51649
 121       12D+1        0.00190  -0.00538   0.26045   0.01139  -0.00365
 122       12D-1        0.72024   0.50334   0.00092  -0.00288   0.30701
 123       12D+2        0.11426  -0.12052   0.00106  -0.17748   0.10099
 124       12D-2        0.00108  -0.00246  -0.00731   0.00952  -0.00279
 125       13F 0        0.00445   0.02253   0.00048  -0.01385  -0.00293
 126       13F+1        0.00029  -0.00047   0.00422   0.00005   0.00026
 127       13F-1       -0.04945   0.02229   0.00057   0.00256  -0.01143
 128       13F+2        0.02732  -0.03349  -0.00049   0.00067   0.00560
 129       13F-2        0.00003  -0.00006   0.01545  -0.00026   0.00017
 130       13F+3        0.00002   0.00003   0.00761  -0.00001  -0.00008
 131       13F-3       -0.00903  -0.01954  -0.00040   0.01635   0.00876
 132       14F 0       -0.02124  -0.05361  -0.00113   0.04418   0.02031
 133       14F+1       -0.00068   0.00069  -0.00245   0.00018  -0.00068
 134       14F-1        0.16000  -0.04593  -0.00166   0.00248   0.06759
 135       14F+2       -0.08426   0.05844   0.00136  -0.01206  -0.02548
 136       14F-2       -0.00009   0.00015  -0.04168   0.00055  -0.00060
 137       14F+3       -0.00020   0.00005  -0.00769  -0.00013   0.00018
 138       14F-3        0.01638   0.04401   0.00093  -0.04688  -0.01486
 139 4   F  1S          0.09295  -0.11302  -0.00143   0.01869  -0.00570
 140        2S          0.41896  -0.48557  -0.00599   0.07108   0.00343
 141        3S         -0.07621   0.11991   0.00161  -0.02603   0.03605
 142        4S         -1.46600   3.35503   0.06774  -1.69694  -0.46815
 143        5S          1.58233   6.22531   0.06186   2.55777  -2.81541
 144        6PX        -0.00001  -0.00008  -0.00366  -0.00079  -0.00002
 145        6PY         0.00302  -0.00722   0.00011  -0.01184   0.01158
 146        6PZ         0.01795   0.00427   0.00020  -0.00304  -0.00696
 147        7PX         0.00023   0.00041   0.00850   0.00327  -0.00010
 148        7PY        -0.00189   0.01894  -0.00119   0.09716  -0.05893
 149        7PZ        -0.09422  -0.01374  -0.00003  -0.03256   0.06002
 150        8PX         0.00111  -0.01949   0.12457   0.01159   0.00802
 151        8PY         0.59144  -1.22900  -0.01768   0.10116   0.30778
 152        8PZ        -1.60307   1.31637   0.01797  -0.47649  -1.43586
 153        9PX        -0.01459  -0.02553  -0.08407   0.04369   0.00000
 154        9PY        -1.75821  -1.37198  -0.01436  -0.23406  -0.63330
 155        9PZ         1.65352   3.31750   0.01077   2.34956  -0.82152
 156       10D 0        0.00959   0.01330  -0.00027   0.02022  -0.00390
 157       10D+1       -0.00040  -0.00081   0.03107   0.00069   0.00001
 158       10D-1       -0.01293  -0.02399  -0.00047  -0.00387  -0.00208
 159       10D+2       -0.02583  -0.01870   0.00016  -0.00580  -0.01096
 160       10D-2        0.00034   0.00017   0.01030  -0.00013   0.00013
 161       11D 0       -0.04961  -0.04715   0.00089  -0.06856   0.01147
 162       11D+1        0.00169   0.00277  -0.11028  -0.00222   0.00005
 163       11D-1        0.07468   0.08254   0.00147   0.03566   0.01521
 164       11D+2        0.09525   0.05716  -0.00038   0.02477   0.03440
 165       11D-2       -0.00133  -0.00062  -0.02396   0.00049  -0.00041
 166       12D 0       -0.42661   0.10455  -0.00487   0.18862  -0.51646
 167       12D+1        0.00490  -0.01013   0.26043   0.01142   0.00655
 168       12D-1        0.72009  -0.50350  -0.00338   0.00283   0.30697
 169       12D+2       -0.11425  -0.12051   0.00120  -0.17756  -0.10101
 170       12D-2        0.00324   0.00473   0.00728  -0.00617  -0.00088
 171       13F 0       -0.00445   0.02253   0.00048  -0.01385   0.00293
 172       13F+1       -0.00076  -0.00068   0.00422   0.00003  -0.00037
 173       13F-1       -0.04945  -0.02227  -0.00061  -0.00256  -0.01142
 174       13F+2       -0.02732  -0.03347  -0.00078   0.00068  -0.00560
 175       13F-2        0.00054   0.00070  -0.01544   0.00025   0.00028
 176       13F+3       -0.00027   0.00058   0.00762  -0.00047   0.00033
 177       13F-3       -0.00902   0.01953   0.00019  -0.01634   0.00875
 178       14F 0        0.02125  -0.05361  -0.00113   0.04418  -0.02031
 179       14F+1        0.00219   0.00112  -0.00244   0.00016   0.00131
 180       14F-1        0.16000   0.04588   0.00168  -0.00248   0.06758
 181       14F+2        0.08427   0.05840   0.00214  -0.01206   0.02546
 182       14F-2       -0.00168  -0.00126   0.04164  -0.00032  -0.00108
 183       14F+3        0.00066  -0.00120  -0.00772   0.00120  -0.00060
 184       14F-3        0.01635  -0.04400  -0.00071   0.04686  -0.01484
                         181       182       183       184
     Eigenvalues --     0.00000   0.00000   0.00000   0.00000
   1 1   O  1S         -0.00114   0.00001   0.11012  -0.05386
   2        2S         -0.00690   0.00004   0.54792  -0.26821
   3        3S         -0.00165  -0.00001  -0.04466   0.02674
   4        4S         -0.06413  -0.00028  -3.01382   6.92452
   5        5S         -0.11848  -0.00052 -10.67969  16.14248
   6        6PX         0.01326  -0.00001   0.00008  -0.00010
   7        6PY        -0.00006  -0.00246   0.00000   0.00000
   8        6PZ         0.00041   0.00000   0.01195  -0.00426
   9        7PX        -0.03635   0.00003  -0.00053   0.00029
  10        7PY         0.00017   0.00706   0.00001   0.00000
  11        7PZ        -0.00090  -0.00001  -0.06988  -0.12454
  12        8PX         0.68144  -0.00854  -0.00655  -0.01872
  13        8PY        -0.00321  -1.80889   0.00006   0.00017
  14        8PZ        -0.01009   0.00014   2.76457  -3.07048
  15        9PX        -1.58071  -0.02014  -0.00435  -0.00583
  16        9PY         0.00746  -4.26387   0.00016   0.00017
  17        9PZ         0.13904   0.00014   2.87113  -3.46003
  18       10D 0       -0.00227   0.00000   0.01864  -0.00456
  19       10D+1        0.00903   0.00001  -0.00003  -0.00002
  20       10D-1       -0.00004   0.00151   0.00000   0.00000
  21       10D+2        0.00062   0.00000  -0.00001  -0.00660
  22       10D-2       -0.00001   0.00024   0.00000   0.00006
  23       11D 0        0.01136   0.00000  -0.14394   0.09021
  24       11D+1       -0.09652   0.00039   0.00060   0.00091
  25       11D-1        0.00045   0.08288  -0.00002  -0.00001
  26       11D+2       -0.00251  -0.00001  -0.00177   0.02790
  27       11D-2        0.00003  -0.00093   0.00002  -0.00026
  28       12D 0       -0.00749  -0.00005  -0.79012   0.24559
  29       12D+1       -0.08614   0.00507   0.00307   0.00827
  30       12D-1        0.00041   1.07438  -0.00003  -0.00007
  31       12D+2       -0.00532   0.00000  -0.03443   0.11488
  32       12D-2        0.00005   0.00001   0.00032  -0.00109
  33       13F 0       -0.00045   0.00000   0.00261  -0.02165
  34       13F+1        0.00281   0.00007   0.00000   0.00010
  35       13F-1       -0.00001   0.01550   0.00000   0.00000
  36       13F+2       -0.00059   0.00000  -0.00213   0.01978
  37       13F-2        0.00001  -0.00015   0.00002  -0.00019
  38       13F+3       -0.00216  -0.00002  -0.00008   0.00004
  39       13F-3        0.00003  -0.00155   0.00000   0.00000
  40       14F 0       -0.00140   0.00001   0.11048   0.04212
  41       14F+1        0.05147  -0.00085  -0.00049  -0.00140
  42       14F-1       -0.00024  -0.18071   0.00001   0.00001
  43       14F+2        0.00277   0.00000   0.01216  -0.06805
  44       14F-2       -0.00003   0.00052  -0.00011   0.00064
  45       14F+3        0.02127   0.00027   0.00014  -0.00008
  46       14F-3       -0.00030   0.01905   0.00000   0.00000
  47 2   C  1S         -0.00391   0.00001   0.06343  -0.07692
  48        2S         -0.02466   0.00007   0.39100  -0.40999
  49        3S         -0.00673   0.00004   0.20331   0.18751
  50        4S          0.16063   0.00017  -4.57504 -18.09489
  51        5S         -0.05150  -0.00027  -0.51697  -9.91664
  52        6PX        -0.00547   0.00011   0.00006  -0.00005
  53        6PY         0.00003   0.02244   0.00000   0.00000
  54        6PZ        -0.00077   0.00000  -0.01875   0.00532
  55        7PX        -0.06925  -0.00574  -0.00375   0.00060
  56        7PY         0.00033  -1.21557   0.00023   0.00005
  57        7PZ        -0.01776   0.00003   1.63477  -0.15629
  58        8PX         0.72129  -0.03839  -0.02105   0.00854
  59        8PY        -0.00338  -8.13011   0.00118   0.00022
  60        8PZ         0.07302   0.00041   7.31662  -5.06432
  61        9PX         3.16020   0.01125  -0.00641  -0.00628
  62        9PY        -0.01492   2.38141   0.00003  -0.00005
  63        9PZ        -0.10486   0.00015   1.94136  -0.00531
  64       10D 0       -0.00374   0.00000   0.01765   0.03496
  65       10D+1        0.00575  -0.00006  -0.00004  -0.00008
  66       10D-1       -0.00003  -0.01219   0.00000   0.00000
  67       10D+2        0.00276   0.00000  -0.00623  -0.02090
  68       10D-2       -0.00003   0.00036   0.00006   0.00020
  69       11D 0        0.00106   0.00005   0.39566  -0.96814
  70       11D+1       -0.32185   0.01098   0.00633   0.00816
  71       11D-1        0.00151   2.32484  -0.00021  -0.00011
  72       11D+2       -0.02676  -0.00007   0.88136   0.63395
  73       11D-2        0.00026  -0.01618  -0.00832  -0.00599
  74       12D 0        0.01636   0.00011   0.46422  -2.75333
  75       12D+1       -0.32844   0.02168   0.01002   0.01462
  76       12D-1        0.00154   4.59210  -0.00031  -0.00025
  77       12D+2        0.01801  -0.00004   0.94685   0.02280
  78       12D-2       -0.00015  -0.01819  -0.00894  -0.00021
  79       13F 0       -0.00059  -0.00001  -0.05053  -0.02952
  80       13F+1       -0.04886  -0.00004   0.00022   0.00030
  81       13F-1        0.00023  -0.00881  -0.00001   0.00000
  82       13F+2        0.00094   0.00000  -0.04531  -0.02273
  83       13F-2       -0.00001   0.00067   0.00043   0.00021
  84       13F+3        0.04657   0.00085   0.00024   0.00014
  85       13F-3       -0.00066   0.06007  -0.00001   0.00000
  86       14F 0        0.03546   0.00001  -0.32762  -0.51199
  87       14F+1       -0.10344  -0.00047   0.00197   0.00348
  88       14F-1        0.00049  -0.09915  -0.00001  -0.00003
  89       14F+2        0.02192   0.00005  -0.23474  -0.38776
  90       14F-2       -0.00022   0.00857   0.00222   0.00366
  91       14F+3       -0.22744  -0.00107   0.00178   0.00075
  92       14F-3        0.00322  -0.07548  -0.00003  -0.00002
  93 3   F  1S          0.00049   0.09632  -0.02389  -0.01723
  94        2S          0.00177   0.44808  -0.13334  -0.09963
  95        3S         -0.00073  -0.06055  -0.01595  -0.01048
  96        4S         -0.06596  -3.04399   1.85937   1.76512
  97        5S          0.09017 -16.45259   8.04619   2.62646
  98        6PX         0.01761   0.00015   0.00002   0.00001
  99        6PY         0.00039  -0.01072   0.00996   0.00487
 100        6PZ         0.00001  -0.00630   0.00712   0.00280
 101        7PX        -0.06760  -0.00056  -0.00006  -0.00001
 102        7PY        -0.00366   0.05134  -0.04468  -0.02096
 103        7PZ        -0.00156   0.02307  -0.02774  -0.00964
 104        8PX         0.00433  -0.00620  -0.00131  -0.00298
 105        8PY        -0.00237  -2.51303   1.47024   1.26064
 106        8PZ        -0.02938  -1.44192   1.31329   0.91056
 107        9PX        -1.35458  -0.01515   0.00103   0.00355
 108        9PY         0.01551  -5.57081   1.46599   0.51351
 109        9PZ         0.07016  -1.95652   1.18154  -1.07423
 110       10D 0        0.00060   0.00190  -0.00449   0.00018
 111       10D+1       -0.00760  -0.00003   0.00000   0.00004
 112       10D-1        0.00009  -0.00522  -0.00370  -0.00541
 113       10D+2       -0.00013   0.01892  -0.00428   0.00078
 114       10D-2       -0.00842  -0.00015   0.00007  -0.00002
 115       11D 0       -0.00215  -0.00958   0.02284  -0.00733
 116       11D+1        0.02514   0.00005  -0.00001  -0.00009
 117       11D-1       -0.00122  -0.01442   0.04540   0.03183
 118       11D+2        0.00065  -0.04174  -0.00077  -0.01134
 119       11D-2        0.03108   0.00047  -0.00029   0.00003
 120       12D 0        0.00105   0.26147   0.08286   0.00394
 121       12D+1       -0.16835  -0.00403  -0.00050  -0.00051
 122       12D-1       -0.00540  -0.68115   0.45979   0.24601
 123       12D+2       -0.00859   0.64423  -0.19314  -0.17813
 124       12D-2       -0.13537  -0.00501  -0.00053  -0.00197
 125       13F 0       -0.00055  -0.01333   0.00328   0.00525
 126       13F+1        0.00540   0.00025   0.00002  -0.00002
 127       13F-1        0.00038  -0.00201  -0.01236  -0.00222
 128       13F+2        0.00004   0.00627   0.00926   0.00162
 129       13F-2        0.01514   0.00015   0.00002  -0.00004
 130       13F+3        0.00740  -0.00020  -0.00010  -0.00019
 131       13F-3        0.00059   0.00967  -0.00937  -0.00840
 132       14F 0        0.00165   0.07029  -0.02290  -0.02468
 133       14F+1       -0.01920  -0.00068  -0.00006   0.00009
 134       14F-1       -0.00102   0.00004   0.06190   0.00468
 135       14F+2       -0.00022   0.03414  -0.05626  -0.01907
 136       14F-2       -0.03110  -0.00069  -0.00016  -0.00003
 137       14F+3       -0.01699   0.00063   0.00031   0.00055
 138       14F-3       -0.00200   0.01285   0.01418   0.00494
 139 4   F  1S          0.00049  -0.09632  -0.02388  -0.01723
 140        2S          0.00177  -0.44807  -0.13325  -0.09961
 141        3S         -0.00073   0.06053  -0.01596  -0.01049
 142        4S         -0.06598   3.04393   1.85864   1.76480
 143        5S          0.09008  16.45352   8.04269   2.62530
 144        6PX         0.01760  -0.00026  -0.00008  -0.00004
 145        6PY        -0.00055  -0.01072  -0.00996  -0.00487
 146        6PZ         0.00001   0.00630   0.00712   0.00280
 147        7PX        -0.06757   0.00104   0.00036   0.00019
 148        7PY         0.00430   0.05135   0.04467   0.02097
 149        7PZ        -0.00156  -0.02308  -0.02773  -0.00964
 150        8PX         0.00434  -0.01753  -0.01519  -0.01488
 151        8PY         0.00234  -2.51322  -1.46970  -1.26047
 152        8PZ        -0.02939   1.44201   1.31282   0.91040
 153        9PX        -1.35468  -0.03746  -0.01280  -0.00130
 154        9PY        -0.00269  -5.57090  -1.46505  -0.51314
 155        9PZ         0.07015   1.95660   1.18100  -1.07428
 156       10D 0        0.00060  -0.00190  -0.00449   0.00018
 157       10D+1       -0.00760  -0.00002   0.00003   0.00009
 158       10D-1       -0.00001  -0.00522   0.00370   0.00541
 159       10D+2        0.00003  -0.01892  -0.00428   0.00078
 160       10D-2        0.00843   0.00021   0.00001   0.00001
 161       11D 0       -0.00215   0.00959   0.02284  -0.00733
 162       11D+1        0.02515  -0.00019  -0.00044  -0.00039
 163       11D-1        0.00099  -0.01443  -0.04539  -0.03183
 164       11D+2        0.00006   0.04174  -0.00076  -0.01134
 165       11D-2       -0.03109  -0.00032   0.00030   0.00019
 166       12D 0        0.00105  -0.26148   0.08282   0.00393
 167       12D+1       -0.16830  -0.00240  -0.00485  -0.00284
 168       12D-1        0.00700  -0.68120  -0.45963  -0.24597
 169       12D+2       -0.00603  -0.64429  -0.19302  -0.17806
 170       12D-2        0.13553   0.00716   0.00418   0.00533
 171       13F 0       -0.00055   0.01333   0.00328   0.00525
 172       13F+1        0.00540  -0.00027   0.00014   0.00000
 173       13F-1       -0.00043  -0.00201   0.01235   0.00222
 174       13F+2       -0.00024  -0.00627   0.00926   0.00163
 175       13F-2       -0.01514   0.00027  -0.00019   0.00001
 176       13F+3        0.00738   0.00048   0.00017   0.00005
 177       13F-3       -0.00080   0.00966   0.00937   0.00840
 178       14F 0        0.00165  -0.07029  -0.02290  -0.02468
 179       14F+1       -0.01919   0.00068  -0.00064   0.00005
 180       14F-1        0.00120   0.00003  -0.06188  -0.00468
 181       14F+2        0.00037  -0.03416  -0.05624  -0.01907
 182       14F-2        0.03111  -0.00004   0.00122   0.00039
 183       14F+3       -0.01692  -0.00026  -0.00009   0.00041
 184       14F-3        0.00248   0.01287  -0.01419  -0.00495
          Condensed to atoms (all electrons):
              1          2          3          4
     1  O    7.946820   0.500016  -0.079666  -0.079658
     2  C    0.500016   4.519559   0.185124   0.185118
     3  F   -0.079666   0.185124   9.104368  -0.048510
     4  F   -0.079658   0.185118  -0.048510   9.104403
 Mulliken atomic charges:
              1
     1  O   -0.287512
     2  C    0.610182
     3  F   -0.161316
     4  F   -0.161354
 Sum of Mulliken atomic charges =   0.00000
 Mulliken charges with hydrogens summed into heavy atoms:
              1
     1  O   -0.287512
     2  C    0.610182
     3  F   -0.161316
     4  F   -0.161354
 Sum of Mulliken charges with hydrogens summed into heavy atoms =   0.00000
 Electronic spatial extent (au):  <R**2>=            239.4210
 Charge=              0.0000 electrons
 Dipole moment (field-independent basis, Debye):
    X=             -0.0061    Y=             -0.0001    Z=             -1.0332  Tot=              1.0332
 Quadrupole moment (field-independent basis, Debye-Ang):
   XX=            -18.9050   YY=            -21.3171   ZZ=            -21.9185
   XY=             -0.0114   XZ=              0.0126   YZ=              0.0002
 Traceless Quadrupole moment (field-independent basis, Debye-Ang):
   XX=              1.8085   YY=             -0.6035   ZZ=             -1.2050
   XY=             -0.0114   XZ=              0.0126   YZ=              0.0002
 Octapole moment (field-independent basis, Debye-Ang**2):
  XXX=             -0.1403  YYY=             -0.0004  ZZZ=             34.2718  XYY=             -0.0494
  XXY=             -0.0001  XXZ=             10.3475  XZZ=             -0.0569  YZZ=             -0.0003
  YYZ=             12.0140  XYZ=              0.0079
 Hexadecapole moment (field-independent basis, Debye-Ang**3):
 XXXX=            -13.4853 YYYY=            -79.9310 ZZZZ=           -132.3933 XXXY=             -0.1579
 XXXZ=              0.1872 YYYX=             -0.1559 YYYZ=              0.0005 ZZZX=              0.1950
 ZZZY=              0.0005 XXYY=            -15.6418 XXZZ=            -23.5682 YYZZ=            -36.1538
 XXYZ=              0.0001 YYXZ=              0.0593 ZZXY=             -0.0594
 N-N= 1.199400217500D+02 E-N=-9.819235107957D+02  KE= 3.123813863530D+02
 1\1\GINC-TRAPISTA\SP\RQCISD-FC\Aug-CC-pVTZ\C1F2O1\BRUNS\26-Nov-2021\0\
 \# qcisd/aug-cc-pvtz nosymm density=current output=wfn\\f2co-wavefunct
 ion\\0,1\O,0,0.,0.,0.679927\C,0,0.,0.,-0.492216\F,0,0.,-1.058878,-1.26
 4305\F,0,0.01,1.058878,-1.264305\\Version=EM64L-G09RevB.01\HF=-311.741
 2331\MP2=-312.6371403\MP3=-312.6246401\MP4D=-312.6402403\MP4DQ=-312.62
 41831\MP4SDQ=-312.6357866\QCISD=-312.6352896\RMSD=8.477e-09\Dipole=-0.
 002395,-0.0000555,-0.406499\Quadrupole=1.3445723,-0.4486948,-0.8958775
 ,-0.0084685,0.0093715,0.0001138\PG=C01 [X(C1F2O1)]\\@

 Writing a WFN file to GAUSSIAN.wfn.


 If your ship doesn't come in, swim out to it!
                          -- Jonathan Winters
 Job cpu time:  0 days  1 hours 50 minutes 20.5 seconds.
 File lengths (MBytes):  RWF=  17462 Int=      0 D2E=      0 Chk=      3 Scr=      1
 Normal termination of Gaussian 09 at Fri Nov 26 23:46:40 2021.
