 f2co-wavefunction
GAUSSIAN            184 MOL ORBITALS    288 PRIMITIVES        4 NUCLEI
  O    1    (CENTRE  1)   0.00000000  0.00000000  1.28487582  CHARGE =  8.0
  C    2    (CENTRE  2)   0.00000000  0.00000000 -0.94905070  CHARGE =  6.0
  F    3    (CENTRE  3)   0.00000000 -2.00098943 -2.38919020  CHARGE =  9.0
  F    4    (CENTRE  4)   0.00000000  2.00098943 -2.38919020  CHARGE =  9.0
CENTRE ASSIGNMENTS    1  1  1  1  1  1  1  1  1  1  1  1  1  1  1  1  1  1  1  1
CENTRE ASSIGNMENTS    1  1  1  1  1  1  1  1  1  1  1  1  1  1  1  1  1  1  1  1
CENTRE ASSIGNMENTS    1  1  1  1  1  1  1  1  1  1  1  1  1  1  1  1  1  1  1  1
CENTRE ASSIGNMENTS    1  1  1  1  1  1  1  1  1  1  1  1  2  2  2  2  2  2  2  2
CENTRE ASSIGNMENTS    2  2  2  2  2  2  2  2  2  2  2  2  2  2  2  2  2  2  2  2
CENTRE ASSIGNMENTS    2  2  2  2  2  2  2  2  2  2  2  2  2  2  2  2  2  2  2  2
CENTRE ASSIGNMENTS    2  2  2  2  2  2  2  2  2  2  2  2  2  2  2  2  2  2  2  2
CENTRE ASSIGNMENTS    2  2  2  2  3  3  3  3  3  3  3  3  3  3  3  3  3  3  3  3
CENTRE ASSIGNMENTS    3  3  3  3  3  3  3  3  3  3  3  3  3  3  3  3  3  3  3  3
CENTRE ASSIGNMENTS    3  3  3  3  3  3  3  3  3  3  3  3  3  3  3  3  3  3  3  3
CENTRE ASSIGNMENTS    3  3  3  3  3  3  3  3  3  3  3  3  3  3  3  3  4  4  4  4
CENTRE ASSIGNMENTS    4  4  4  4  4  4  4  4  4  4  4  4  4  4  4  4  4  4  4  4
CENTRE ASSIGNMENTS    4  4  4  4  4  4  4  4  4  4  4  4  4  4  4  4  4  4  4  4
CENTRE ASSIGNMENTS    4  4  4  4  4  4  4  4  4  4  4  4  4  4  4  4  4  4  4  4
CENTRE ASSIGNMENTS    4  4  4  4  4  4  4  4
TYPE ASSIGNMENTS      1  1  1  1  1  1  1  1  1  1  1  1  1  1  1  1  2  2  2  3
TYPE ASSIGNMENTS      3  3  4  4  4  2  3  4  2  3  4  2  3  4  5  6  7  8  9 10
TYPE ASSIGNMENTS      5  6  7  8  9 10  5  6  7  8  9 10 11 12 13 17 14 15 18 19
TYPE ASSIGNMENTS     16 20 11 12 13 17 14 15 18 19 16 20  1  1  1  1  1  1  1  1
TYPE ASSIGNMENTS      1  1  1  1  1  1  1  1  2  2  2  3  3  3  4  4  4  2  3  4
TYPE ASSIGNMENTS      2  3  4  2  3  4  5  6  7  8  9 10  5  6  7  8  9 10  5  6
TYPE ASSIGNMENTS      7  8  9 10 11 12 13 17 14 15 18 19 16 20 11 12 13 17 14 15
TYPE ASSIGNMENTS     18 19 16 20  1  1  1  1  1  1  1  1  1  1  1  1  1  1  1  1
TYPE ASSIGNMENTS      2  2  2  3  3  3  4  4  4  2  3  4  2  3  4  2  3  4  5  6
TYPE ASSIGNMENTS      7  8  9 10  5  6  7  8  9 10  5  6  7  8  9 10 11 12 13 17
TYPE ASSIGNMENTS     14 15 18 19 16 20 11 12 13 17 14 15 18 19 16 20  1  1  1  1
TYPE ASSIGNMENTS      1  1  1  1  1  1  1  1  1  1  1  1  2  2  2  3  3  3  4  4
TYPE ASSIGNMENTS      4  2  3  4  2  3  4  2  3  4  5  6  7  8  9 10  5  6  7  8
TYPE ASSIGNMENTS      9 10  5  6  7  8  9 10 11 12 13 17 14 15 18 19 16 20 11 12
TYPE ASSIGNMENTS     13 17 14 15 18 19 16 20
EXPONENTS  0.1533000D+05 0.2299000D+04 0.5224000D+03 0.1473000D+03 0.4755000D+02
EXPONENTS  0.1676000D+02 0.6207000D+01 0.5224000D+03 0.1473000D+03 0.4755000D+02
EXPONENTS  0.1676000D+02 0.6207000D+01 0.6882000D+00 0.1752000D+01 0.2384000D+00
EXPONENTS  0.7376000D-01 0.3446000D+02 0.7749000D+01 0.2280000D+01 0.3446000D+02
EXPONENTS  0.7749000D+01 0.2280000D+01 0.3446000D+02 0.7749000D+01 0.2280000D+01
EXPONENTS  0.7156000D+00 0.7156000D+00 0.7156000D+00 0.2140000D+00 0.2140000D+00
EXPONENTS  0.2140000D+00 0.5974000D-01 0.5974000D-01 0.5974000D-01 0.2314000D+01
EXPONENTS  0.2314000D+01 0.2314000D+01 0.2314000D+01 0.2314000D+01 0.2314000D+01
EXPONENTS  0.6450000D+00 0.6450000D+00 0.6450000D+00 0.6450000D+00 0.6450000D+00
EXPONENTS  0.6450000D+00 0.2140000D+00 0.2140000D+00 0.2140000D+00 0.2140000D+00
EXPONENTS  0.2140000D+00 0.2140000D+00 0.1428000D+01 0.1428000D+01 0.1428000D+01
EXPONENTS  0.1428000D+01 0.1428000D+01 0.1428000D+01 0.1428000D+01 0.1428000D+01
EXPONENTS  0.1428000D+01 0.1428000D+01 0.5000000D+00 0.5000000D+00 0.5000000D+00
EXPONENTS  0.5000000D+00 0.5000000D+00 0.5000000D+00 0.5000000D+00 0.5000000D+00
EXPONENTS  0.5000000D+00 0.5000000D+00 0.8236000D+04 0.1235000D+04 0.2808000D+03
EXPONENTS  0.7927000D+02 0.2559000D+02 0.8997000D+01 0.3319000D+01 0.2808000D+03
EXPONENTS  0.7927000D+02 0.2559000D+02 0.8997000D+01 0.3319000D+01 0.3643000D+00
EXPONENTS  0.9059000D+00 0.1285000D+00 0.4402000D-01 0.1871000D+02 0.4133000D+01
EXPONENTS  0.1200000D+01 0.1871000D+02 0.4133000D+01 0.1200000D+01 0.1871000D+02
EXPONENTS  0.4133000D+01 0.1200000D+01 0.3827000D+00 0.3827000D+00 0.3827000D+00
EXPONENTS  0.1209000D+00 0.1209000D+00 0.1209000D+00 0.3569000D-01 0.3569000D-01
EXPONENTS  0.3569000D-01 0.1097000D+01 0.1097000D+01 0.1097000D+01 0.1097000D+01
EXPONENTS  0.1097000D+01 0.1097000D+01 0.3180000D+00 0.3180000D+00 0.3180000D+00
EXPONENTS  0.3180000D+00 0.3180000D+00 0.3180000D+00 0.1000000D+00 0.1000000D+00
EXPONENTS  0.1000000D+00 0.1000000D+00 0.1000000D+00 0.1000000D+00 0.7610000D+00
EXPONENTS  0.7610000D+00 0.7610000D+00 0.7610000D+00 0.7610000D+00 0.7610000D+00
EXPONENTS  0.7610000D+00 0.7610000D+00 0.7610000D+00 0.7610000D+00 0.2680000D+00
EXPONENTS  0.2680000D+00 0.2680000D+00 0.2680000D+00 0.2680000D+00 0.2680000D+00
EXPONENTS  0.2680000D+00 0.2680000D+00 0.2680000D+00 0.2680000D+00 0.1950000D+05
EXPONENTS  0.2923000D+04 0.6645000D+03 0.1875000D+03 0.6062000D+02 0.2142000D+02
EXPONENTS  0.7950000D+01 0.6645000D+03 0.1875000D+03 0.6062000D+02 0.2142000D+02
EXPONENTS  0.7950000D+01 0.8815000D+00 0.2257000D+01 0.3041000D+00 0.9158000D-01
EXPONENTS  0.4388000D+02 0.9926000D+01 0.2930000D+01 0.4388000D+02 0.9926000D+01
EXPONENTS  0.2930000D+01 0.4388000D+02 0.9926000D+01 0.2930000D+01 0.9132000D+00
EXPONENTS  0.9132000D+00 0.9132000D+00 0.2672000D+00 0.2672000D+00 0.2672000D+00
EXPONENTS  0.7361000D-01 0.7361000D-01 0.7361000D-01 0.3107000D+01 0.3107000D+01
EXPONENTS  0.3107000D+01 0.3107000D+01 0.3107000D+01 0.3107000D+01 0.8550000D+00
EXPONENTS  0.8550000D+00 0.8550000D+00 0.8550000D+00 0.8550000D+00 0.8550000D+00
EXPONENTS  0.2920000D+00 0.2920000D+00 0.2920000D+00 0.2920000D+00 0.2920000D+00
EXPONENTS  0.2920000D+00 0.1917000D+01 0.1917000D+01 0.1917000D+01 0.1917000D+01
EXPONENTS  0.1917000D+01 0.1917000D+01 0.1917000D+01 0.1917000D+01 0.1917000D+01
EXPONENTS  0.1917000D+01 0.7240000D+00 0.7240000D+00 0.7240000D+00 0.7240000D+00
EXPONENTS  0.7240000D+00 0.7240000D+00 0.7240000D+00 0.7240000D+00 0.7240000D+00
EXPONENTS  0.7240000D+00 0.1950000D+05 0.2923000D+04 0.6645000D+03 0.1875000D+03
EXPONENTS  0.6062000D+02 0.2142000D+02 0.7950000D+01 0.6645000D+03 0.1875000D+03
EXPONENTS  0.6062000D+02 0.2142000D+02 0.7950000D+01 0.8815000D+00 0.2257000D+01
EXPONENTS  0.3041000D+00 0.9158000D-01 0.4388000D+02 0.9926000D+01 0.2930000D+01
EXPONENTS  0.4388000D+02 0.9926000D+01 0.2930000D+01 0.4388000D+02 0.9926000D+01
EXPONENTS  0.2930000D+01 0.9132000D+00 0.9132000D+00 0.9132000D+00 0.2672000D+00
EXPONENTS  0.2672000D+00 0.2672000D+00 0.7361000D-01 0.7361000D-01 0.7361000D-01
EXPONENTS  0.3107000D+01 0.3107000D+01 0.3107000D+01 0.3107000D+01 0.3107000D+01
EXPONENTS  0.3107000D+01 0.8550000D+00 0.8550000D+00 0.8550000D+00 0.8550000D+00
EXPONENTS  0.8550000D+00 0.8550000D+00 0.2920000D+00 0.2920000D+00 0.2920000D+00
EXPONENTS  0.2920000D+00 0.2920000D+00 0.2920000D+00 0.1917000D+01 0.1917000D+01
EXPONENTS  0.1917000D+01 0.1917000D+01 0.1917000D+01 0.1917000D+01 0.1917000D+01
EXPONENTS  0.1917000D+01 0.1917000D+01 0.1917000D+01 0.7240000D+00 0.7240000D+00
EXPONENTS  0.7240000D+00 0.7240000D+00 0.7240000D+00 0.7240000D+00 0.7240000D+00
EXPONENTS  0.7240000D+00 0.7240000D+00 0.7240000D+00
MO    1     MO 0.0        OCC NO =    2.0000068  ORB. ENERGY =    0.000000
 -0.32742045D+00 -0.61025787D+00 -0.10347780D+01 -0.15660264D+01 -0.19534945D+01
 -0.16763890D+01 -0.64196791D+00 -0.41013024D-04 -0.44004284D-03 -0.16220808D-02
 -0.47428690D-02 -0.57153877D-02  0.68847902D-02 -0.29453824D-01  0.50924567D-03
 -0.47686922D-04  0.30288285D-13  0.29369448D-13  0.19812456D-13 -0.63313082D-12
 -0.61392393D-12 -0.41414945D-12  0.19572809D-01  0.18979041D-01  0.12803149D-01
  0.65756989D-14 -0.92167538D-13  0.24056829D-02 -0.42116183D-14  0.57417237D-13
  0.65580526D-03 -0.44252923D-15  0.14194482D-13  0.14613030D-04  0.12218330D-02
  0.63718910D-03 -0.18590221D-02  0.45574916D-14 -0.10898250D-13  0.12672948D-12
  0.51513047D-04 -0.28838715D-04 -0.22674332D-04  0.12882495D-14  0.30117632D-14
 -0.34027839D-13  0.49543068D-04 -0.15201465D-05 -0.48022922D-04  0.64302386D-15
  0.23889930D-14 -0.12935233D-13 -0.21763866D-14 -0.13535216D-13 -0.48270341D-03
 -0.24217685D-16  0.15723994D-12  0.93991085D-03  0.65533775D-14 -0.11663429D-12
  0.50819940D-03  0.65724684D-14  0.41699550D-15  0.48252129D-14  0.12587151D-04
  0.13068438D-14 -0.58837604D-13 -0.23720979D-04 -0.25578303D-14  0.44361965D-13
 -0.14040474D-04 -0.29521437D-14  0.23627870D+00  0.44047109D+00  0.74445615D+00
  0.11190564D+01  0.13745604D+01  0.11600805D+01  0.43622056D+00  0.26095623D-04
  0.19504861D-03  0.72894120D-03  0.20336324D-02  0.27245068D-02 -0.32171345D-02
  0.19128004D-01 -0.55092280D-04  0.15209120D-04  0.13296083D-13  0.12465923D-13
  0.88764795D-14 -0.71939775D-13 -0.67448112D-13 -0.48027074D-13 -0.39778206D-02
 -0.37294596D-02 -0.26555974D-02  0.70056883D-14 -0.35515184D-12  0.43551669D-03
  0.15923990D-14  0.79538418D-13  0.84051360D-04  0.10129967D-15 -0.61665277D-14
  0.66317503D-06 -0.94314978D-03  0.45290539D-03  0.49024439D-03 -0.37834354D-14
 -0.15889814D-15  0.59385136D-12  0.21746040D-03 -0.12397312D-03 -0.93487285D-04
  0.39245207D-14  0.57646273D-14  0.36704291D-12  0.15331185D-06 -0.30641160D-05
  0.29108042D-05  0.14814054D-15  0.63288765D-15 -0.27786715D-13 -0.91645546D-15
 -0.28972277D-13  0.54079368D-03  0.68781943D-15  0.46088774D-12 -0.29861817D-03
  0.20615470D-14 -0.37397091D-12 -0.13237629D-02 -0.42236062D-15  0.38792839D-16
  0.35931064D-13 -0.89274912D-04 -0.12160108D-14  0.25097505D-13 -0.11307090D-04
  0.10996323D-14 -0.13289070D-12  0.27913183D-03 -0.31093192D-14 -0.95739596D-01
 -0.17845877D+00 -0.30252738D+00 -0.45806736D+00 -0.57268509D+00 -0.49261187D+00
 -0.18892726D+00 -0.11639060D-04 -0.15407936D-03 -0.55964425D-03 -0.16601741D-02
 -0.19130154D-02  0.23236421D-02 -0.83659711D-02  0.77400713D-03  0.27456871D-04
  0.43325804D-13  0.42371690D-13  0.27996767D-13 -0.74567324D-02 -0.72925214D-02
 -0.48184772D-02 -0.59812013D-02 -0.58494843D-02 -0.38650016D-02  0.83360625D-14
 -0.12997462D-02 -0.11549511D-02  0.63490188D-14 -0.16104743D-03 -0.94492959D-04
  0.16113730D-15 -0.38044766D-05 -0.16524646D-05  0.90392304D-04 -0.60618691D-04
 -0.29773613D-04  0.79987000D-15 -0.27546618D-14  0.61984583D-03  0.15450856D-03
 -0.86862317D-04 -0.67646245D-04 -0.62003986D-15  0.33547954D-15 -0.79129679D-03
  0.44878503D-04 -0.24105185D-04 -0.20773319D-04  0.27473723D-14  0.19681522D-14
 -0.11080586D-04 -0.15583746D-14 -0.11832733D-04 -0.75275517D-05  0.89418550D-15
  0.21577294D-03  0.95173620D-04  0.37809382D-14 -0.18027474D-03 -0.72590965D-04
 -0.12400876D-13 -0.47949226D-15  0.50107151D-04  0.10500551D-03  0.84193170D-15
  0.17036374D-03  0.20060211D-03  0.59654509D-15 -0.32068519D-03 -0.51561865D-03
  0.62804816D-14 -0.95739596D-01 -0.17845877D+00 -0.30252738D+00 -0.45806736D+00
 -0.57268509D+00 -0.49261188D+00 -0.18892726D+00 -0.11639060D-04 -0.15407936D-03
 -0.55964426D-03 -0.16601741D-02 -0.19130154D-02  0.23236421D-02 -0.83659712D-02
  0.77400713D-03  0.27456871D-04  0.31717072D-13  0.31018604D-13  0.20495303D-13
  0.74567324D-02  0.72925214D-02  0.48184773D-02 -0.59812013D-02 -0.58494843D-02
 -0.38650016D-02  0.65682792D-14  0.12997462D-02 -0.11549511D-02 -0.39233409D-15
  0.16104743D-03 -0.94492959D-04 -0.64285278D-16  0.38044766D-05 -0.16524646D-05
  0.90392304D-04 -0.60618691D-04 -0.29773613D-04  0.96546373D-14  0.45869610D-14
 -0.61984583D-03  0.15450856D-03 -0.86862316D-04 -0.67646245D-04 -0.28293682D-15
  0.71390315D-15  0.79129679D-03  0.44878503D-04 -0.24105185D-04 -0.20773319D-04
  0.14223515D-14 -0.28174523D-15  0.11080586D-04 -0.16681954D-14  0.11832733D-04
 -0.75275517D-05  0.83855960D-14 -0.21577293D-03  0.95173620D-04 -0.33810099D-14
  0.18027473D-03 -0.72590965D-04 -0.11326106D-13 -0.25384766D-15 -0.50107151D-04
  0.10500551D-03 -0.12980589D-14 -0.17036374D-03  0.20060211D-03  0.20596018D-14
  0.32068519D-03 -0.51561865D-03  0.18909338D-14
MO    2     MO 0.0        OCC NO =    2.0000038  ORB. ENERGY =    0.000000
 -0.36460840D+00 -0.67957011D+00 -0.11523066D+01 -0.17438935D+01 -0.21753697D+01
 -0.18667909D+01 -0.71488172D+00 -0.43372853D-04 -0.46536225D-03 -0.17154129D-02
 -0.50157666D-02 -0.60442427D-02  0.72809308D-02 -0.33293774D-01  0.70914162D-03
  0.10129817D-03  0.85629530D-13  0.83031840D-13  0.56012788D-13  0.32500767D-12
  0.31514811D-12  0.21259706D-12  0.85668511D-02  0.83069639D-02  0.56038288D-02
  0.22945651D-13  0.41310541D-13 -0.19062695D-02  0.50811478D-14 -0.36285782D-13
 -0.17339032D-03  0.37855349D-15 -0.73990745D-14  0.13488537D-05  0.62806006D-03
  0.36998534D-04 -0.66505859D-03  0.38600782D-14 -0.11529634D-13 -0.61330949D-13
 -0.34866295D-03 -0.37470943D-03  0.72337238D-03 -0.59245637D-15 -0.22847462D-14
  0.17630167D-13 -0.38879181D-04  0.12534526D-04  0.26344655D-04 -0.70868371D-15
 -0.99357824D-15  0.88483028D-14 -0.13330293D-14  0.56696247D-14  0.18530842D-03
  0.17202884D-14 -0.81275860D-13 -0.13643089D-03  0.22787994D-14  0.64266985D-13
 -0.41949437D-03 -0.13229382D-13  0.18337253D-15 -0.27554891D-14 -0.65934565D-04
 -0.70626607D-15  0.30396154D-13  0.10679758D-03  0.15614847D-15 -0.22129687D-13
  0.91006111D-04  0.22096657D-14 -0.17186708D+00 -0.32039486D+00 -0.54151096D+00
 -0.81399197D+00 -0.99984334D+00 -0.84383251D+00 -0.31730306D+00 -0.14783519D-04
 -0.11049764D-03 -0.41295492D-03 -0.11520799D-02 -0.15434695D-02  0.18225496D-02
 -0.14304132D-01  0.78180544D-04 -0.96519981D-05  0.36357193D-13  0.34087180D-13
  0.24272103D-13  0.15667711D-13  0.14689475D-13  0.10459781D-13  0.26058054D-02
  0.24431082D-02  0.17396386D-02  0.95769764D-14  0.16772719D-12 -0.20693740D-02
  0.31667020D-15 -0.41714472D-13 -0.36023999D-04 -0.10579445D-15  0.32236283D-14
 -0.86380162D-05  0.86010307D-03  0.13452808D-03 -0.99463115D-03  0.18324870D-14
  0.58120355D-14 -0.30831516D-12 -0.13119407D-03  0.37712243D-03 -0.24592836D-03
 -0.20117667D-15 -0.28111663D-14 -0.19555709D-12 -0.31409709D-05 -0.14069498D-04
  0.17210469D-04  0.65884653D-16 -0.40218144D-15  0.14343774D-13 -0.50168376D-15
  0.16066909D-13 -0.28795594D-03 -0.14638981D-15 -0.24359756D-12  0.55744084D-03
  0.16514411D-14  0.19539683D-12  0.30642697D-03 -0.20785451D-14 -0.14961479D-15
 -0.21518566D-13  0.35368167D-04  0.12244105D-14 -0.13282636D-13  0.72477183D-04
 -0.77556617D-15  0.77838335D-13 -0.17858168D-03  0.12534079D-14  0.18557949D+00
  0.34592050D+00  0.58641231D+00  0.88790754D+00  0.11100800D+01  0.95486785D+00
  0.36621237D+00  0.19168206D-04  0.25375115D-03  0.92167036D-03  0.27341178D-02
  0.31505185D-02 -0.38267740D-02  0.16891009D-01 -0.86812615D-03 -0.28493810D-04
  0.23423600D-13  0.22907770D-13  0.15136132D-13  0.89926294D-02  0.87945951D-02
  0.58109608D-02  0.54033016D-02  0.52843110D-02  0.34915677D-02  0.71030750D-14
  0.84423002D-03  0.30358890D-03 -0.22997139D-14  0.86691926D-04 -0.18175277D-04
 -0.79889696D-17 -0.17049485D-05  0.21376514D-04 -0.44450221D-04  0.17013200D-03
 -0.12568178D-03 -0.46299566D-14  0.27216305D-14 -0.33384314D-03 -0.35345005D-05
 -0.48619408D-04  0.52153908D-04  0.19150604D-14 -0.55632088D-15  0.90772998D-04
 -0.18205480D-04  0.16903371D-04  0.13021083D-05 -0.11503536D-14 -0.82523969D-15
 -0.26994438D-05  0.19967911D-14  0.10657682D-03 -0.11663214D-03 -0.18471612D-14
  0.92716713D-04  0.57647937D-03 -0.41432121D-14 -0.41244716D-03 -0.22658294D-03
  0.73310452D-14  0.14077778D-15 -0.56222603D-04 -0.11110696D-04  0.42334897D-15
 -0.13920859D-03 -0.29559047D-03 -0.84568231D-15  0.30787640D-03  0.32892256D-03
 -0.38540318D-14  0.18557949D+00  0.34592050D+00  0.58641231D+00  0.88790754D+00
  0.11100800D+01  0.95486785D+00  0.36621237D+00  0.19168206D-04  0.25375115D-03
  0.92167036D-03  0.27341178D-02  0.31505185D-02 -0.38267740D-02  0.16891009D-01
 -0.86812615D-03 -0.28493810D-04  0.10618480D-12  0.10384641D-12  0.68615715D-13
 -0.89926294D-02 -0.87945951D-02 -0.58109609D-02  0.54033017D-02  0.52843110D-02
  0.34915677D-02  0.26139684D-13 -0.84423002D-03  0.30358890D-03  0.21722378D-14
 -0.86691927D-04 -0.18175276D-04 -0.56962190D-16  0.17049485D-05  0.21376514D-04
 -0.44450221D-04  0.17013200D-03 -0.12568178D-03 -0.14548392D-13  0.22111015D-13
  0.33384314D-03 -0.35345003D-05 -0.48619408D-04  0.52153908D-04 -0.14835266D-14
 -0.24029590D-15 -0.90772998D-04 -0.18205480D-04  0.16903371D-04  0.13021083D-05
 -0.39354201D-15 -0.85198049D-15  0.26994437D-05 -0.22198191D-14 -0.10657681D-03
 -0.11663214D-03 -0.88243982D-14 -0.92716714D-04  0.57647937D-03  0.15483856D-13
  0.41244716D-03 -0.22658294D-03 -0.69205371D-14  0.13543773D-15  0.56222603D-04
 -0.11110696D-04  0.10008454D-14  0.13920859D-03 -0.29559047D-03 -0.14071586D-14
 -0.30787640D-03  0.32892256D-03  0.17608488D-14
MO    3     MO 0.0        OCC NO =    2.0000022  ORB. ENERGY =    0.000000
  0.33348356D-09  0.62155852D-09  0.10539398D-08  0.15950258D-08  0.19896690D-08
  0.17074320D-08  0.65385576D-09  0.43792743D-13  0.46986739D-12  0.17320197D-11
  0.50643239D-11  0.61027566D-11 -0.73514170D-11  0.30292290D-10 -0.11207813D-11
 -0.31799700D-12  0.13849995D-13  0.13429836D-13  0.90596881D-14 -0.85616939D-03
 -0.83019631D-03 -0.56004553D-03 -0.12207344D-10 -0.11837017D-10 -0.79851820D-11
  0.49148243D-15 -0.12570082D-03  0.43126367D-12 -0.45702517D-14  0.84402346D-04
 -0.33662699D-12 -0.48007024D-16  0.14301940D-04  0.31972089D-13 -0.40020049D-12
 -0.51557614D-12  0.91577663D-12  0.21718809D-13 -0.18962492D-13  0.18681218D-03
 -0.41478059D-13  0.49613372D-12 -0.45465566D-12 -0.25309804D-14  0.57350852D-14
 -0.56746761D-04 -0.83866274D-13  0.58382094D-13  0.25484180D-13 -0.89424196D-15
  0.21885814D-14 -0.24633375D-04  0.32534707D-14 -0.95870712D-05 -0.49860054D-13
 -0.86381074D-14  0.16883728D-03  0.25070946D-12 -0.11223047D-14 -0.14007607D-03
 -0.10112930D-12 -0.85839631D-14  0.13998974D-14  0.31152711D-05  0.13009360D-12
 -0.27723356D-15 -0.68794713D-04  0.32872167D-13 -0.39224587D-14  0.59448899D-04
 -0.42315296D-12  0.29346392D-14  0.33141261D-10  0.61781987D-10  0.10441997D-09
  0.15696270D-09  0.19280056D-09  0.16271687D-09  0.61185793D-10 -0.55445092D-14
 -0.41441771D-13 -0.15487736D-12 -0.43208372D-12 -0.57887306D-12  0.68354115D-12
  0.21914741D-11  0.17488083D-12  0.37898623D-13 -0.13805758D-13 -0.12943775D-13
 -0.92167391D-14 -0.67746654D-04 -0.63516795D-04 -0.45227742D-04 -0.46082492D-12
 -0.43205265D-12 -0.30764723D-12  0.75726514D-14 -0.41965775D-03  0.87993547D-13
  0.37663416D-14  0.56691568D-04  0.36025509D-12  0.32389245D-16 -0.63858784D-05
 -0.70645921D-14 -0.11842540D-11  0.47716575D-12  0.70708830D-12  0.20256615D-14
  0.49963278D-14  0.65363517D-03 -0.33124621D-12  0.69790141D-13  0.26145607D-12
 -0.42252544D-14  0.20486989D-14  0.40095949D-03  0.67807311D-14 -0.32104693D-13
  0.25323962D-13 -0.16977638D-15 -0.15098075D-15 -0.27962915D-04 -0.25109379D-15
 -0.31557893D-04  0.47782146D-12 -0.48897989D-15  0.52371172D-03  0.91572407D-12
  0.12422613D-14 -0.42903804D-03 -0.23491885D-11  0.18645039D-14 -0.67229221D-15
  0.42679193D-04  0.18724806D-12  0.76742556D-15  0.30921229D-04 -0.62059816D-14
  0.12494511D-14 -0.15895881D-03 -0.55553820D-12  0.37824194D-14  0.42245387D+00
  0.78745474D+00  0.13349112D+01  0.20212361D+01  0.25269903D+01  0.21736648D+01
  0.83364725D+00  0.38682001D-04  0.51207727D-03  0.18599578D-02  0.55175298D-02
  0.63578387D-02 -0.77225420D-02  0.39164944D-01 -0.18164287D-03  0.81836749D-04
 -0.10564966D-12 -0.10332306D-12 -0.68269912D-13  0.99401223D-02  0.97212225D-02
  0.64232227D-02  0.74267193D-02  0.72631693D-02  0.47990830D-02 -0.20124291D-13
 -0.18172750D-03  0.14843399D-03 -0.11308588D-13  0.23110531D-03  0.38799812D-03
 -0.54697518D-15  0.21229691D-04  0.39294273D-05 -0.16257749D-03  0.17251575D-03
 -0.99382676D-05 -0.25203759D-13 -0.11773605D-13  0.28467816D-03  0.15938239D-03
 -0.25126478D-03  0.91882395D-04 -0.51211503D-15 -0.36299950D-14 -0.52361291D-03
 -0.56952597D-04  0.13566289D-04  0.43386307D-04 -0.47749794D-14 -0.23500383D-14
  0.13020539D-03 -0.47412202D-14 -0.27395704D-03  0.16535336D-04 -0.17898475D-14
  0.88204007D-03  0.17667945D-03  0.16013508D-13 -0.60168936D-04 -0.22628546D-03
  0.55039081D-13  0.14823632D-14  0.51220689D-04  0.16867951D-04 -0.33110869D-14
 -0.20489126D-03 -0.26011174D-04 -0.11360028D-14  0.51229197D-04 -0.24592678D-04
 -0.10215692D-13 -0.42245387D+00 -0.78745474D+00 -0.13349112D+01 -0.20212361D+01
 -0.25269903D+01 -0.21736648D+01 -0.83364724D+00 -0.38682001D-04 -0.51207726D-03
 -0.18599578D-02 -0.55175298D-02 -0.63578386D-02  0.77225420D-02 -0.39164944D-01
  0.18164287D-03 -0.81836748D-04 -0.59822051D-13 -0.58504660D-13 -0.38656502D-13
  0.99401222D-02  0.97212224D-02  0.64232227D-02 -0.74267193D-02 -0.72631692D-02
 -0.47990830D-02 -0.10845271D-13 -0.18172750D-03 -0.14843399D-03 -0.15517108D-14
  0.23110531D-03 -0.38799812D-03 -0.33262853D-15  0.21229691D-04 -0.39294272D-05
  0.16257749D-03 -0.17251575D-03  0.99382678D-05 -0.18679934D-14 -0.26605150D-13
  0.28467816D-03 -0.15938239D-03  0.25126478D-03 -0.91882395D-04 -0.70486851D-15
  0.71789774D-15 -0.52361291D-03  0.56952596D-04 -0.13566289D-04 -0.43386307D-04
  0.50169787D-16 -0.11701463D-15  0.13020539D-03  0.23774880D-14 -0.27395704D-03
 -0.16535337D-04  0.61897784D-14  0.88204007D-03 -0.17667945D-03 -0.13322243D-13
 -0.60168934D-04  0.22628546D-03  0.17363340D-13  0.12845709D-14  0.51220689D-04
 -0.16867950D-04 -0.21916445D-14 -0.20489126D-03  0.26011173D-04 -0.16620683D-14
  0.51229197D-04  0.24592677D-04 -0.51327178D-14
MO    4     MO 0.0        OCC NO =    2.0000015  ORB. ENERGY =    0.000000
  0.98818822D-01  0.18418204D+00  0.31230653D+00  0.47264272D+00  0.58958453D+00
  0.50595125D+00  0.19375245D+00  0.12792164D-04  0.13725153D-03  0.50593497D-03
  0.14793242D-02  0.17826576D-02 -0.21473999D-02  0.91323286D-02 -0.43790337D-03
 -0.17935646D-03  0.12291459D-13  0.11918581D-13  0.80402043D-14  0.17892245D-11
  0.17349459D-11  0.11703842D-11  0.51659989D-03  0.50092812D-03  0.33792315D-03
  0.78500359D-15  0.23410279D-12  0.15722475D-02 -0.81687770D-14 -0.22828950D-12
  0.13015808D-03 -0.34376769D-15 -0.29943090D-13  0.19237580D-04  0.17788626D-03
  0.16684944D-04 -0.19457121D-03  0.74454864D-14 -0.10625871D-13 -0.43197695D-12
  0.72269349D-04  0.29088655D-03 -0.36315589D-03  0.12063220D-14  0.87202912D-14
  0.14122972D-12 -0.11663152D-04  0.21262616D-04 -0.95994636D-05 -0.51821714D-15
  0.44011061D-14  0.70461350D-13 -0.36464706D-14  0.15729392D-13 -0.25959391D-03
 -0.86297995D-15 -0.38115682D-12  0.53154991D-03  0.11802392D-13  0.33396864D-12
  0.24723181D-03 -0.81332270D-14  0.15896863D-14 -0.45903469D-14  0.76632050D-04
  0.92359284D-15  0.15087260D-12 -0.15372561D-04 -0.56926517D-14 -0.13710156D-12
 -0.21452359D-03  0.11179413D-14  0.14815810D+00  0.27619655D+00  0.46680980D+00
  0.70170219D+00  0.86191546D+00  0.72742624D+00  0.27353126D+00  0.11348214D-04
  0.84820871D-04  0.31699496D-03  0.88436659D-03  0.11848074D-02 -0.13990366D-02
  0.11846621D-01  0.43374194D-04  0.25521592D-04  0.83992933D-14  0.78748713D-14
  0.56073775D-14  0.13724436D-12  0.12867531D-12  0.91624486D-13 -0.23763763D-02
 -0.22280038D-02 -0.15864714D-02  0.92406177D-14  0.89814643D-12  0.62568699D-03
  0.23675961D-14 -0.85960619D-13  0.20517627D-03  0.56356024D-16  0.13501306D-13
 -0.11655420D-05 -0.11074241D-02  0.37948955D-03  0.72793456D-03 -0.88199011D-15
 -0.17110972D-14 -0.14189651D-11 -0.38345595D-04 -0.91385928D-04  0.12973152D-03
  0.65203437D-14  0.11286777D-13 -0.87614896D-12  0.36050742D-05 -0.12868692D-04
  0.92636180D-05  0.53213675D-15  0.50294491D-15  0.56374787D-13 -0.11353491D-14
  0.68367355D-13  0.49859455D-03 -0.25390994D-14 -0.11394939D-11  0.18869970D-03
  0.59451467D-14  0.93439181D-12 -0.16844834D-02 -0.64378234D-14 -0.12155899D-15
 -0.10208228D-12  0.42979344D-04 -0.10319935D-14 -0.70960995D-13 -0.24414171D-04
  0.13966705D-14  0.37720784D-12 -0.10452386D-03 -0.18019681D-14  0.36720542D+00
  0.68447154D+00  0.11603318D+01  0.17568992D+01  0.21965110D+01  0.18893933D+01
  0.72462300D+00  0.31537336D-04  0.41749528D-03  0.15164188D-02  0.44984279D-02
  0.51835295D-02 -0.62961687D-02  0.34380413D-01  0.24991997D-03  0.77546060D-04
  0.74977257D-13  0.73326119D-13  0.48449667D-13  0.63226533D-02  0.61834168D-02
  0.40856449D-02  0.38523928D-02  0.37675561D-02  0.24893836D-02  0.13766869D-13
 -0.57972685D-03 -0.66738107D-03  0.85790106D-14  0.30053275D-03  0.15031363D-03
  0.35226710D-15  0.45620679D-05  0.13094404D-04 -0.23156192D-03  0.18067698D-03
  0.50884938D-04 -0.14613964D-14 -0.84950978D-14  0.79956771D-03  0.25669929D-03
 -0.19333790D-03 -0.63361392D-04  0.35519820D-14  0.16056926D-14 -0.10184024D-02
 -0.43666431D-04  0.35224053D-04  0.84423784D-05  0.38118200D-14  0.33130214D-14
  0.57891881D-04  0.55896082D-14  0.17678232D-04 -0.78331738D-04 -0.11774070D-13
  0.27649140D-03  0.45536357D-03 -0.49947547D-14 -0.32952609D-03 -0.22036836D-03
 -0.38639977D-13 -0.11850151D-14  0.32305290D-04  0.10586223D-03  0.30464904D-14
  0.10895138D-03  0.44239098D-04  0.50855488D-15 -0.20586725D-03 -0.36182580D-03
  0.97540477D-14  0.36720543D+00  0.68447155D+00  0.11603318D+01  0.17568992D+01
  0.21965110D+01  0.18893933D+01  0.72462300D+00  0.31537336D-04  0.41749528D-03
  0.15164188D-02  0.44984279D-02  0.51835295D-02 -0.62961687D-02  0.34380414D-01
  0.24991997D-03  0.77546060D-04  0.21957729D-13  0.21474180D-13  0.14188898D-13
 -0.63226533D-02 -0.61834169D-02 -0.40856450D-02  0.38523929D-02  0.37675561D-02
  0.24893836D-02  0.68391201D-14  0.57972685D-03 -0.66738107D-03 -0.10901314D-14
 -0.30053275D-03  0.15031363D-03 -0.37669821D-15 -0.45620680D-05  0.13094404D-04
 -0.23156192D-03  0.18067698D-03  0.50884937D-04 -0.94583877D-14  0.30686763D-14
 -0.79956771D-03  0.25669929D-03 -0.19333790D-03 -0.63361391D-04 -0.70882745D-15
  0.21228610D-14  0.10184024D-02 -0.43666432D-04  0.35224053D-04  0.84423786D-05
  0.11866857D-14 -0.10252967D-14 -0.57891882D-04 -0.37330680D-15 -0.17678230D-04
 -0.78331738D-04 -0.20661132D-15 -0.27649140D-03  0.45536357D-03  0.13265317D-14
  0.32952609D-03 -0.22036836D-03 -0.10027713D-13  0.68131098D-15 -0.32305290D-04
  0.10586223D-03 -0.18558311D-14 -0.10895137D-03  0.44239097D-04 -0.18810188D-15
  0.20586725D-03 -0.36182580D-03  0.33352403D-14
MO    5     MO 0.0        OCC NO =    1.9862018  ORB. ENERGY =    0.000000
 -0.96058818D-02 -0.17903784D-01 -0.30358382D-01 -0.45944183D-01 -0.57311747D-01
 -0.49182005D-01 -0.18834095D-01 -0.15592259D-03 -0.16729471D-02 -0.61667980D-02
 -0.18031356D-01 -0.21728660D-01  0.26174474D-01  0.13744856D-01 -0.21179962D-03
 -0.19717193D-02  0.39469335D-13  0.38271978D-13  0.25818051D-13 -0.16860483D-11
 -0.16348997D-11 -0.11028936D-11 -0.67972801D-01 -0.65910752D-01 -0.44463004D-01
  0.13729176D-13 -0.13371903D-12 -0.12675015D-01  0.41677857D-14  0.14148118D-12
  0.19058405D-02  0.34390796D-15 -0.11699341D-13  0.23178149D-03 -0.38785688D-02
 -0.40873478D-02  0.79659166D-02 -0.84755509D-14 -0.12085895D-13  0.12125416D-12
 -0.40188915D-03  0.61461191D-03 -0.21272276D-03  0.21780775D-14 -0.57929450D-15
 -0.22966538D-13  0.96559015D-04  0.50869661D-03 -0.60525563D-03 -0.58817271D-15
 -0.11081643D-14 -0.38322823D-13 -0.16661703D-14  0.21734323D-13 -0.15748568D-02
  0.15115182D-14 -0.60049905D-13  0.33752429D-02  0.34869927D-14 -0.51530653D-14
  0.13493276D-02 -0.31661870D-15  0.66806207D-15  0.34358791D-14  0.51381095D-03
 -0.29786025D-15  0.42902205D-13 -0.23931472D-03 -0.17063260D-14 -0.53209842D-13
 -0.13021181D-02  0.13335162D-15 -0.17310754D-01 -0.32270732D-01 -0.54541934D-01
 -0.81986700D-01 -0.10070598D+00 -0.84992291D-01 -0.31959321D-01 -0.31652742D-03
 -0.23658464D-02 -0.88417081D-02 -0.24666989D-01 -0.33046964D-01  0.39022303D-01
  0.15601715D-01  0.23451249D-02  0.23915177D-03  0.38511048D-13  0.36106556D-13
  0.25710019D-13 -0.77051585D-12 -0.72240758D-12 -0.51439723D-12 -0.36362972D-01
 -0.34092597D-01 -0.24275960D-01  0.14267138D-13 -0.32276416D-12 -0.52389526D-02
 -0.13484935D-14 -0.80462191D-13  0.15994206D-02 -0.75594261D-16  0.13978220D-14
 -0.40036339D-05 -0.19345377D-01  0.98972998D-02  0.94480771D-02  0.44498854D-14
  0.14073730D-14  0.36529273D-12 -0.26610903D-02  0.12601549D-02  0.14009354D-02
 -0.38512636D-14 -0.45348157D-14  0.30562093D-12  0.82030074D-04 -0.10270829D-03
  0.20678218D-04  0.17691002D-16 -0.21644073D-15  0.95159650D-14 -0.31791418D-14
 -0.17919649D-13  0.34742934D-02  0.38206681D-14  0.96832692D-13  0.34410035D-02
  0.57167574D-14 -0.43073744D-13 -0.13863884D-01 -0.40165159D-15  0.22456589D-15
  0.10138389D-12  0.29093740D-03  0.10676394D-14 -0.30148473D-14  0.29086544D-03
 -0.17413371D-14 -0.30113682D-12 -0.11636776D-02  0.17219262D-14 -0.89220122D-01
 -0.16630646D+00 -0.28192650D+00 -0.42687485D+00 -0.53368758D+00 -0.45906702D+00
 -0.17606208D+00 -0.12991337D-02 -0.17198098D-01 -0.62466620D-01 -0.18530605D+00
 -0.21352780D+00  0.25936131D+00  0.14915247D+00  0.67392533D-01  0.17001548D-02
  0.11270824D-12  0.11022619D-12  0.72831107D-13 -0.39923690D-01 -0.39044497D-01
 -0.25798350D-01 -0.12973183D+00 -0.12687489D+00 -0.83831605D-01  0.27928928D-13
 -0.40496915D-02 -0.26967899D-01 -0.20367984D-15 -0.34103006D-02 -0.63481476D-02
  0.20164755D-15 -0.52044476D-04 -0.38213371D-04 -0.60935443D-02  0.75195184D-02
 -0.14259741D-02  0.16791702D-13  0.74799500D-14  0.14048632D-01 -0.30448379D-02
  0.42305320D-02 -0.11856941D-02 -0.16440416D-14  0.55849643D-16  0.75801443D-02
  0.21905014D-03 -0.21286447D-03 -0.61856700D-05 -0.14999201D-14 -0.25587695D-14
 -0.96910657D-03 -0.64991940D-14  0.17129620D-02 -0.22332808D-02  0.70975993D-14
 -0.65366616D-02 -0.24395871D-02  0.12399983D-13  0.13977757D-02  0.91394296D-02
  0.38087854D-13  0.15947116D-14  0.31980260D-03 -0.20426807D-03 -0.24803248D-14
 -0.91337157D-03 -0.10422446D-02 -0.23038101D-14 -0.46036224D-04  0.16550488D-02