 Entering Gaussian System, Link 0=/home/bruns/programas/chemistry/gaussian/g09/g09
 Input=GAUSSIAN.com
 Output=GAUSSIAN.log
 Initial command:
 /home/bruns/programas/chemistry/gaussian/g09/l1.exe /home/bruns/programas/chemistry/gaussian/work/Gau-17900.inp -scrdir=/home/bruns/programas/chemistry/gaussian/work/
 Entering Link 1 = /home/bruns/programas/chemistry/gaussian/g09/l1.exe PID=     17902.
  
 Copyright (c) 1988,1990,1992,1993,1995,1998,2003,2009,2010,
            Gaussian, Inc.  All Rights Reserved.
  
 This is part of the Gaussian(R) 09 program.  It is based on
 the Gaussian(R) 03 system (copyright 2003, Gaussian, Inc.),
 the Gaussian(R) 98 system (copyright 1998, Gaussian, Inc.),
 the Gaussian(R) 94 system (copyright 1995, Gaussian, Inc.),
 the Gaussian 92(TM) system (copyright 1992, Gaussian, Inc.),
 the Gaussian 90(TM) system (copyright 1990, Gaussian, Inc.),
 the Gaussian 88(TM) system (copyright 1988, Gaussian, Inc.),
 the Gaussian 86(TM) system (copyright 1986, Carnegie Mellon
 University), and the Gaussian 82(TM) system (copyright 1983,
 Carnegie Mellon University). Gaussian is a federally registered
 trademark of Gaussian, Inc.
  
 This software contains proprietary and confidential information,
 including trade secrets, belonging to Gaussian, Inc.
  
 This software is provided under written license and may be
 used, copied, transmitted, or stored only in accord with that
 written license.
  
 The following legend is applicable only to US Government
 contracts under FAR:
  
                    RESTRICTED RIGHTS LEGEND
  
 Use, reproduction and disclosure by the US Government is
 subject to restrictions as set forth in subparagraphs (a)
 and (c) of the Commercial Computer Software - Restricted
 Rights clause in FAR 52.227-19.
  
 Gaussian, Inc.
 340 Quinnipiac St., Bldg. 40, Wallingford CT 06492
  
  
 ---------------------------------------------------------------
 Warning -- This program may not be used in any manner that
 competes with the business of Gaussian, Inc. or will provide
 assistance to any competitor of Gaussian, Inc.  The licensee
 of this program is prohibited from giving any competitor of
 Gaussian, Inc. access to this program.  By using this program,
 the user acknowledges that Gaussian, Inc. is engaged in the
 business of creating and licensing software in the field of
 computational chemistry and represents and warrants to the
 licensee that it is not a competitor of Gaussian, Inc. and that
 it will not use this program in any manner prohibited above.
 ---------------------------------------------------------------
  

 Cite this work as:
 Gaussian 09, Revision B.01,
 M. J. Frisch, G. W. Trucks, H. B. Schlegel, G. E. Scuseria, 
 M. A. Robb, J. R. Cheeseman, G. Scalmani, V. Barone, B. Mennucci, 
 G. A. Petersson, H. Nakatsuji, M. Caricato, X. Li, H. P. Hratchian, 
 A. F. Izmaylov, J. Bloino, G. Zheng, J. L. Sonnenberg, M. Hada, 
 M. Ehara, K. Toyota, R. Fukuda, J. Hasegawa, M. Ishida, T. Nakajima, 
 Y. Honda, O. Kitao, H. Nakai, T. Vreven, J. A. Montgomery, Jr., 
 J. E. Peralta, F. Ogliaro, M. Bearpark, J. J. Heyd, E. Brothers, 
 K. N. Kudin, V. N. Staroverov, T. Keith, R. Kobayashi, J. Normand, 
 K. Raghavachari, A. Rendell, J. C. Burant, S. S. Iyengar, J. Tomasi, 
 M. Cossi, N. Rega, J. M. Millam, M. Klene, J. E. Knox, J. B. Cross, 
 V. Bakken, C. Adamo, J. Jaramillo, R. Gomperts, R. E. Stratmann, 
 O. Yazyev, A. J. Austin, R. Cammi, C. Pomelli, J. W. Ochterski, 
 R. L. Martin, K. Morokuma, V. G. Zakrzewski, G. A. Voth, 
 P. Salvador, J. J. Dannenberg, S. Dapprich, A. D. Daniels, 
 O. Farkas, J. B. Foresman, J. V. Ortiz, J. Cioslowski, 
 and D. J. Fox, Gaussian, Inc., Wallingford CT, 2010.
 
 ******************************************
 Gaussian 09:  EM64L-G09RevB.01 12-Aug-2010
                26-Nov-2021 
 ******************************************
 %nproc=8
 Will use up to    8 processors via shared memory.
 %mem=8GB
 -----------------------------------------------------
 # qcisd/aug-cc-pvtz nosymm density=current output=wfn
 -----------------------------------------------------
 1/30=1,38=1/1;
 2/12=2,15=1,17=6,18=5,40=1/2;
 3/5=16,6=1,7=10,11=9,16=1,25=1,30=1,71=1/1,2,3;
 4//1;
 5/5=2,38=5/2;
 8/6=4,9=120000,10=1/1,4;
 9/5=8,15=1/13;
 11/28=-7,31=1,32=3,42=3/11;
 10/5=6,13=10,31=1/2;
 6/7=2,8=2,9=2,10=2,22=-1,31=1/1;
 99/5=1,6=1100,9=1/99;
 -----------------
 f2co-wavefunction
 -----------------
 Symbolic Z-matrix:
 Charge =  0 Multiplicity = 1
 O                     0.        0.        0.68993 
 C                     0.        0.       -0.49222 
 F                     0.       -1.05888  -1.26431 
 F                     0.        1.05888  -1.26431 
 
                          Input orientation:                          
 ---------------------------------------------------------------------
 Center     Atomic      Atomic             Coordinates (Angstroms)
 Number     Number       Type             X           Y           Z
 ---------------------------------------------------------------------
      1          8           0        0.000000    0.000000    0.689927
      2          6           0        0.000000    0.000000   -0.492216
      3          9           0        0.000000   -1.058878   -1.264305
      4          9           0        0.000000    1.058878   -1.264305
 ---------------------------------------------------------------------
                    Distance matrix (angstroms):
                    1          2          3          4
     1  O    0.000000
     2  C    1.182143   0.000000
     3  F    2.222666   1.310475   0.000000
     4  F    2.222666   1.310475   2.117756   0.000000
 Symmetry turned off by external request.
 Stoichiometry    CF2O
 Framework group  C2V[C2(CO),SGV(F2)]
 Deg. of freedom     3
 Full point group                 C2V     NOp   4
 Rotational constants (GHZ):     11.8625553     11.6567737      5.8793821
 Standard basis: Aug-CC-pVTZ (5D, 7F)
 Integral buffers will be    131072 words long.
 Raffenetti 1 integral format.
 Two-electron integral symmetry is turned off.
   184 basis functions,   288 primitive gaussians,   220 cartesian basis functions
    16 alpha electrons       16 beta electrons
       nuclear repulsion energy       119.6216686346 Hartrees.
 NAtoms=    4 NActive=    4 NUniq=    4 SFac= 1.00D+00 NAtFMM=   50 NAOKFM=F Big=F
 One-electron integrals computed using PRISM.
 NBasis=   184 RedAO= T  NBF=   184
 NBsUse=   184 1.00D-06 NBFU=   184
 Harris functional with IExCor=  205 diagonalized for initial guess.
 ExpMin= 3.57D-02 ExpMax= 1.95D+04 ExpMxC= 6.65D+02 IAcc=3 IRadAn=         0 AccDes= 0.00D+00
 HarFok:  IExCor=  205 AccDes= 0.00D+00 IRadAn=         0 IDoV= 1
 ScaDFX=  1.000000  1.000000  1.000000  1.000000
 FoFCou: FMM=F IPFlag=           0 FMFlag=      100000 FMFlg1=           0
         NFxFlg=           0 DoJE=T BraDBF=F KetDBF=T FulRan=T
         Omega=  0.000000  0.000000  1.000000  0.000000  0.000000 ICntrl=     500 IOpCl=  0
         NMat0=    1 NMatS0=    1 NMatT0=    0 NMatD0=    1 NMtDS0=    0 NMtDT0=    0
         I1Cent=           4 NGrid=           0.
 Symmetry not used in FoFCou.
 Requested convergence on RMS density matrix=1.00D-08 within 128 cycles.
 Requested convergence on MAX density matrix=1.00D-06.
 Requested convergence on             energy=1.00D-06.
 No special actions if energy rises.
 Keep R1 ints in memory in canonical form, NReq=301063473.
 SCF Done:  E(RHF) =  -311.740067107     A.U. after   11 cycles
             Convg  =    0.8660D-08             -V/T =  2.0016
 ExpMin= 3.57D-02 ExpMax= 1.95D+04 ExpMxC= 6.65D+02 IAcc=3 IRadAn=         5 AccDes= 0.00D+00
 HarFok:  IExCor=  205 AccDes= 0.00D+00 IRadAn=         5 IDoV=-2
 ScaDFX=  1.000000  1.000000  1.000000  1.000000
 DSYEVD returned Info=          93 IAlg= 4 N=    46 NDim=    46 NE2=    23339802 trying DSYEV.
 Range of M.O.s used for correlation:     5   184
 NBasis=   184 NAE=    16 NBE=    16 NFC=     4 NFV=     0
 NROrb=    180 NOA=    12 NOB=    12 NVA=   168 NVB=   168

 **** Warning!!: The largest alpha MO coefficient is  0.15499041D+02

 Semi-Direct transformation.
 ModeAB=           2 MOrb=            12 LenV=    1072785629
 LASXX=     33405819 LTotXX=    33405819 LenRXX=    33405819
 LTotAB=    33954012 MaxLAS=    52509600 LenRXY=    52509600
 NonZer=    66811638 LenScr=   100987392 LnRSAI=           0
 LnScr1=           0 LExtra=           0 Total=    186902811
 MaxDsk=          -1 SrtSym=           F ITran=            4
 JobTyp=0 Pass  1:  I=   1 to  12.
 (rs|ai) integrals will be sorted in core.
 Spin components of T(2) and E(2):
     alpha-alpha T2 =       0.2672370045D-01 E2=     -0.1192758464D+00
     alpha-beta  T2 =       0.1379074568D+00 E2=     -0.6585848782D+00
     beta-beta   T2 =       0.2672370045D-01 E2=     -0.1192758464D+00
 ANorm=    0.1091492033D+01
 E2 =    -0.8971365710D+00 EUMP2 =    -0.31263720367764D+03
 R2 and R3 integrals will be kept in memory, NReq=   596397230.
 Iterations=  50 Convergence= 0.100D-07
 Iteration Nr.   1
 **********************
 DD1Dir will call FoFMem   1 times, MxPair=       156
 NAB=    78 NAA=     0 NBB=     0.
 MP4(R+Q)=  0.16164746D-01
 E3=        0.12971802D-01        EUMP3=      -0.31262423188D+03
 E4(DQ)=    0.38063393D-03        UMP4(DQ)=   -0.31262385124D+03
 E4(SDQ)=  -0.11407091D-01        UMP4(SDQ)=  -0.31263563897D+03
 DE(Corr)= -0.86800002     E(Corr)=     -312.60806713    
 NORM(A)=   0.10862511D+01
 Iteration Nr.   2
 **********************
 DD1Dir will call FoFMem   1 times, MxPair=       156
 NAB=    78 NAA=     0 NBB=     0.
 DE(Corr)= -0.89423272     E(CORR)=     -312.63429983     Delta=-2.62D-02
 NORM(A)=   0.10936630D+01
 Iteration Nr.   3
 **********************
 DD1Dir will call FoFMem   1 times, MxPair=       156
 NAB=    78 NAA=     0 NBB=     0.
 DE(Corr)= -0.89239484     E(CORR)=     -312.63246195     Delta= 1.84D-03
 NORM(A)=   0.10959614D+01
 Iteration Nr.   4
 **********************
 DD1Dir will call FoFMem   1 times, MxPair=       156
 NAB=    78 NAA=     0 NBB=     0.
 DE(Corr)= -0.89474994     E(CORR)=     -312.63481705     Delta=-2.36D-03
 NORM(A)=   0.10967997D+01
 Iteration Nr.   5
 **********************
 DD1Dir will call FoFMem   1 times, MxPair=       156
 NAB=    78 NAA=     0 NBB=     0.
 DE(Corr)= -0.89502499     E(CORR)=     -312.63509209     Delta=-2.75D-04
 NORM(A)=   0.10969905D+01
 Iteration Nr.   6
 **********************
 DD1Dir will call FoFMem   1 times, MxPair=       156
 NAB=    78 NAA=     0 NBB=     0.
 DE(Corr)= -0.89505240     E(CORR)=     -312.63511950     Delta=-2.74D-05
 NORM(A)=   0.10970045D+01
 Iteration Nr.   7
 **********************
 DD1Dir will call FoFMem   1 times, MxPair=       156
 NAB=    78 NAA=     0 NBB=     0.
 DE(Corr)= -0.89505408     E(CORR)=     -312.63512119     Delta=-1.69D-06
 NORM(A)=   0.10970044D+01
 Iteration Nr.   8
 **********************
 DD1Dir will call FoFMem   1 times, MxPair=       156
 NAB=    78 NAA=     0 NBB=     0.
 DE(Corr)= -0.89505302     E(CORR)=     -312.63512013     Delta= 1.06D-06
 NORM(A)=   0.10970049D+01
 Iteration Nr.   9
 **********************
 DD1Dir will call FoFMem   1 times, MxPair=       156
 NAB=    78 NAA=     0 NBB=     0.
 DE(Corr)= -0.89505347     E(CORR)=     -312.63512057     Delta=-4.48D-07
 NORM(A)=   0.10970050D+01
 Iteration Nr.  10
 **********************
 DD1Dir will call FoFMem   1 times, MxPair=       156
 NAB=    78 NAA=     0 NBB=     0.
 DE(Corr)= -0.89505335     E(CORR)=     -312.63512045     Delta= 1.22D-07
 NORM(A)=   0.10970051D+01
 Iteration Nr.  11
 **********************
 DD1Dir will call FoFMem   1 times, MxPair=       156
 NAB=    78 NAA=     0 NBB=     0.
 DE(Corr)= -0.89505382     E(CORR)=     -312.63512092     Delta=-4.70D-07
 NORM(A)=   0.10970054D+01
 Iteration Nr.  12
 **********************
 DD1Dir will call FoFMem   1 times, MxPair=       156
 NAB=    78 NAA=     0 NBB=     0.
 DE(Corr)= -0.89505382     E(CORR)=     -312.63512093     Delta=-5.92D-09
 NORM(A)=   0.10970056D+01
 Iteration Nr.  13
 **********************
 DD1Dir will call FoFMem   1 times, MxPair=       156
 NAB=    78 NAA=     0 NBB=     0.
 DE(Corr)= -0.89505391     E(CORR)=     -312.63512102     Delta=-9.14D-08
 NORM(A)=   0.10970056D+01
 Iteration Nr.  14
 **********************
 DD1Dir will call FoFMem   1 times, MxPair=       156
 NAB=    78 NAA=     0 NBB=     0.
 DE(Corr)= -0.89505392     E(CORR)=     -312.63512103     Delta=-1.15D-08
 NORM(A)=   0.10970057D+01
 Iteration Nr.  15
 **********************
 DD1Dir will call FoFMem   1 times, MxPair=       156
 NAB=    78 NAA=     0 NBB=     0.
 DE(Corr)= -0.89505393     E(CORR)=     -312.63512104     Delta=-6.48D-09
 NORM(A)=   0.10970057D+01
 Iteration Nr.  16
 **********************
 DD1Dir will call FoFMem   1 times, MxPair=       156
 NAB=    78 NAA=     0 NBB=     0.
 DE(Corr)= -0.89505394     E(CORR)=     -312.63512104     Delta=-4.64D-09
 NORM(A)=   0.10970057D+01
 Largest amplitude= 6.15D-02

 Z-AMPLITUDE ITERATIONS

 Iteration Nr.   1
 **********************
 DD1Dir will call FoFMem   1 times, MxPair=       156
 NAB=    78 NAA=     0 NBB=     0.
 DE(Z)  -0.87558460D+00          E(Z)=    -0.31261565171D+03
 NORM(A)=   0.10970061D+01
 Iteration Nr.   2
 **********************
 DD1Dir will call FoFMem   1 times, MxPair=       156
 NAB=    78 NAA=     0 NBB=     0.
 DE(Z)  -0.87558460D+00          E(Z)=    -0.31261565171D+03
 NORM(A)=   0.10970056D+01
 Iteration Nr.   3
 **********************
 DD1Dir will call FoFMem   1 times, MxPair=       156
 NAB=    78 NAA=     0 NBB=     0.
 DE(Z)  -0.87558460D+00          E(Z)=    -0.31261565171D+03
 NORM(A)=   0.10970056D+01
 Iteration Nr.   4
 **********************
 DD1Dir will call FoFMem   1 times, MxPair=       156
 NAB=    78 NAA=     0 NBB=     0.
 DE(Z)  -0.87558460D+00          E(Z)=    -0.31261565171D+03
 NORM(A)=   0.10970057D+01
 Iteration Nr.   5
 **********************
 DD1Dir will call FoFMem   1 times, MxPair=       156
 NAB=    78 NAA=     0 NBB=     0.
 DE(Z)  -0.87558460D+00          E(Z)=    -0.31261565171D+03
 NORM(A)=   0.10925799D+01
 Iteration Nr.   6
 **********************
 DD1Dir will call FoFMem   1 times, MxPair=       156
 NAB=    78 NAA=     0 NBB=     0.
 DE(Z)  -0.87554339D+00          E(Z)=    -0.31261561050D+03
 NORM(A)=   0.10925265D+01
 Iteration Nr.   7
 **********************
 DD1Dir will call FoFMem   1 times, MxPair=       156
 NAB=    78 NAA=     0 NBB=     0.
 DE(Z)  -0.87555698D+00          E(Z)=    -0.31261562409D+03
 NORM(A)=   0.10925076D+01
 Iteration Nr.   8
 **********************
 DD1Dir will call FoFMem   1 times, MxPair=       156
 NAB=    78 NAA=     0 NBB=     0.
 DE(Z)  -0.87553122D+00          E(Z)=    -0.31261559833D+03
 NORM(A)=   0.10924914D+01
 Iteration Nr.   9
 **********************
 DD1Dir will call FoFMem   1 times, MxPair=       156
 NAB=    78 NAA=     0 NBB=     0.
 DE(Z)  -0.87553865D+00          E(Z)=    -0.31261560576D+03
 NORM(A)=   0.10924909D+01
 Iteration Nr.  10
 **********************
 DD1Dir will call FoFMem   1 times, MxPair=       156
 NAB=    78 NAA=     0 NBB=     0.
 DE(Z)  -0.87553726D+00          E(Z)=    -0.31261560437D+03
 NORM(A)=   0.10924909D+01
 Iteration Nr.  11
 **********************
 DD1Dir will call FoFMem   1 times, MxPair=       156
 NAB=    78 NAA=     0 NBB=     0.
 DE(Z)  -0.87553785D+00          E(Z)=    -0.31261560496D+03
 NORM(A)=   0.10924910D+01
 Iteration Nr.  12
 **********************
 DD1Dir will call FoFMem   1 times, MxPair=       156
 NAB=    78 NAA=     0 NBB=     0.
 DE(Z)  -0.87553775D+00          E(Z)=    -0.31261560486D+03
 NORM(A)=   0.10924911D+01
 Iteration Nr.  13
 **********************
 DD1Dir will call FoFMem   1 times, MxPair=       156
 NAB=    78 NAA=     0 NBB=     0.
 DE(Z)  -0.87553778D+00          E(Z)=    -0.31261560489D+03
 NORM(A)=   0.10924911D+01
 Iteration Nr.  14
 **********************
 DD1Dir will call FoFMem   1 times, MxPair=       156
 NAB=    78 NAA=     0 NBB=     0.
 DE(Z)  -0.87553783D+00          E(Z)=    -0.31261560494D+03
 NORM(A)=   0.10924912D+01
 Iteration Nr.  15
 **********************
 DD1Dir will call FoFMem   1 times, MxPair=       156
 NAB=    78 NAA=     0 NBB=     0.
 DE(Z)  -0.87553781D+00          E(Z)=    -0.31261560491D+03
 NORM(A)=   0.10924911D+01
 Iteration Nr.  16
 **********************
 DD1Dir will call FoFMem   1 times, MxPair=       156
 NAB=    78 NAA=     0 NBB=     0.
 DE(Z)  -0.87553782D+00          E(Z)=    -0.31261560492D+03
 NORM(A)=   0.10924911D+01
 Discarding MO integrals.
          Differentiating once with respect to electric field.
                with respect to dipole field.
          Electric field/nuclear overlap derivatives assumed to be zero.
          Keep R1 ints in memory in canonical form, NReq=297441306.
          There are     1 degrees of freedom in the 1st order CPHF.  IDoFFX=0.
 LinEq1:  Iter=  0 NonCon=     1 RMS=3.10D-03 Max=8.60D-02
 AX will form     1 AO Fock derivatives at one time.
 LinEq1:  Iter=  1 NonCon=     1 RMS=7.65D-04 Max=1.12D-02
 LinEq1:  Iter=  2 NonCon=     1 RMS=2.29D-04 Max=3.47D-03
 LinEq1:  Iter=  3 NonCon=     1 RMS=1.01D-04 Max=1.55D-03
 LinEq1:  Iter=  4 NonCon=     1 RMS=2.38D-05 Max=3.64D-04
 LinEq1:  Iter=  5 NonCon=     1 RMS=1.12D-05 Max=2.70D-04
 LinEq1:  Iter=  6 NonCon=     1 RMS=2.36D-06 Max=3.57D-05
 LinEq1:  Iter=  7 NonCon=     1 RMS=4.52D-07 Max=9.93D-06
 LinEq1:  Iter=  8 NonCon=     1 RMS=9.06D-08 Max=1.24D-06
 LinEq1:  Iter=  9 NonCon=     1 RMS=1.29D-08 Max=1.78D-07
 LinEq1:  Iter= 10 NonCon=     1 RMS=1.89D-09 Max=2.06D-08
 LinEq1:  Iter= 11 NonCon=     1 RMS=3.99D-10 Max=5.93D-09
 LinEq1:  Iter= 12 NonCon=     0 RMS=5.63D-11 Max=4.81D-10
 Linear equations converged to 1.000D-10 1.000D-09 after    12 iterations.
 End of Minotr Frequency-dependent properties file   721 does not exist.
 End of Minotr Frequency-dependent properties file   722 does not exist.

 **********************************************************************

            Population analysis using the QCI/CC density.

 **********************************************************************

     Natural Orbital Coefficients:
                           1         2         3         4         5
     Eigenvalues --     2.00001   2.00000   2.00000   2.00000   1.98617
   1 1   O  1S         -0.64547  -0.71086   0.00000   0.19338  -0.01845
   2        2S          0.01202   0.01255   0.00000  -0.00372   0.04441
   3        3S         -0.02730  -0.03052   0.00000   0.00840   0.01243
   4        4S          0.00216   0.00290   0.00000  -0.00179  -0.00097
   5        5S         -0.00044   0.00100   0.00000  -0.00178  -0.01916
   6        6PX         0.00000   0.00000   0.00000   0.00000   0.00000
   7        6PY         0.00000   0.00000  -0.00017   0.00000   0.00000
   8        6PZ         0.00401   0.00173   0.00000   0.00011  -0.01388
   9        7PX         0.00000   0.00000   0.00000   0.00000   0.00000
  10        7PY         0.00000   0.00000  -0.00012   0.00000   0.00000
  11        7PZ         0.00255  -0.00204   0.00000   0.00168  -0.01357
  12        8PX         0.00000   0.00000   0.00000   0.00000   0.00000
  13        8PY         0.00000   0.00000   0.00043   0.00000   0.00000
  14        8PZ         0.00317  -0.00085   0.00000   0.00063   0.00897
  15        9PX         0.00000   0.00000   0.00000   0.00000   0.00000
  16        9PY         0.00000   0.00000   0.00034   0.00000   0.00000
  17        9PZ         0.00034   0.00003   0.00000   0.00046   0.00541
  18       10D 0       -0.00026  -0.00009   0.00000  -0.00003   0.00110
  19       10D+1        0.00000   0.00000   0.00000   0.00000   0.00000
  20       10D-1        0.00000   0.00000   0.00001   0.00000   0.00000
  21       10D+2        0.00005   0.00005   0.00000   0.00001   0.00002
  22       10D-2        0.00000   0.00000   0.00000   0.00000   0.00000
  23       11D 0       -0.00003   0.00095   0.00000  -0.00047  -0.00028
  24       11D+1        0.00000   0.00000   0.00000   0.00000   0.00000
  25       11D-1        0.00000   0.00000  -0.00004   0.00000   0.00000
  26       11D+2        0.00006   0.00002   0.00000  -0.00016  -0.00077
  27       11D-2        0.00000   0.00000   0.00000   0.00000   0.00000
  28       12D 0       -0.00044   0.00024   0.00000  -0.00009  -0.00539
  29       12D+1        0.00000   0.00000   0.00000   0.00000   0.00000
  30       12D-1        0.00000   0.00000  -0.00013   0.00000   0.00000
  31       12D+2        0.00027  -0.00027   0.00000  -0.00017  -0.00212
  32       12D-2        0.00000   0.00000   0.00000   0.00000   0.00000
  33       13F 0       -0.00015   0.00006   0.00000  -0.00008  -0.00047
  34       13F+1        0.00000   0.00000   0.00000   0.00000   0.00000
  35       13F-1        0.00000   0.00000  -0.00002   0.00000   0.00000
  36       13F+2        0.00003   0.00002   0.00000   0.00002   0.00016
  37       13F-2        0.00000   0.00000   0.00000   0.00000   0.00000
  38       13F+3        0.00000   0.00000   0.00000   0.00000   0.00000
  39       13F-3        0.00000   0.00000   0.00002   0.00000   0.00000
  40       14F 0        0.00004  -0.00021   0.00000   0.00025   0.00164
  41       14F+1        0.00000   0.00000   0.00000   0.00000   0.00000
  42       14F-1        0.00000   0.00000   0.00007   0.00000   0.00000
  43       14F+2       -0.00001   0.00002   0.00000   0.00017   0.00090
  44       14F-2        0.00000   0.00000   0.00000   0.00000   0.00000
  45       14F+3        0.00000   0.00000   0.00000   0.00000   0.00000
  46       14F-3        0.00000   0.00000  -0.00007   0.00000   0.00000
  47 2   C  1S          0.70464  -0.51868   0.00000   0.44359  -0.05101
  48        2S         -0.00897   0.00513   0.00000  -0.00396   0.10718
  49        3S          0.02875  -0.02175   0.00000   0.01788   0.02317
  50        4S         -0.00036   0.00047   0.00000   0.00020   0.01444
  51        5S          0.00021  -0.00013   0.00000   0.00037   0.00334
  52        6PX         0.00000   0.00000   0.00000   0.00000   0.00000
  53        6PY         0.00000   0.00000  -0.00003   0.00000   0.00000
  54        6PZ        -0.00180   0.00119   0.00000  -0.00107  -0.01649
  55        7PX         0.00000   0.00000   0.00000   0.00000   0.00000
  56        7PY         0.00000   0.00000  -0.00090   0.00000   0.00000
  57        7PZ         0.00100  -0.00481   0.00000   0.00150  -0.01224
  58        8PX         0.00000   0.00000   0.00000   0.00000   0.00000
  59        8PY         0.00000   0.00000   0.00056   0.00000   0.00000
  60        8PZ         0.00077  -0.00032   0.00000   0.00204   0.01560
  61        9PX         0.00000   0.00000   0.00000   0.00000   0.00000
  62        9PY         0.00000   0.00000  -0.00028   0.00000   0.00000
  63        9PZ         0.00003  -0.00039   0.00000  -0.00005  -0.00015
  64       10D 0        0.00026  -0.00052   0.00000   0.00038   0.00499
  65       10D+1        0.00000   0.00000   0.00000   0.00000   0.00000
  66       10D-1        0.00000   0.00000   0.00018   0.00000   0.00000
  67       10D+2       -0.00040   0.00021   0.00000  -0.00042  -0.00852
  68       10D-2        0.00000   0.00000   0.00000   0.00000   0.00000
  69       11D 0       -0.00047  -0.00107   0.00000   0.00059   0.00658
  70       11D+1        0.00000   0.00000   0.00000   0.00000   0.00000
  71       11D-1        0.00000   0.00000   0.00100   0.00000   0.00000
  72       11D+2        0.00085  -0.00130   0.00000   0.00016  -0.00988
  73       11D-2        0.00000   0.00000   0.00000   0.00000   0.00000
  74       12D 0        0.00009   0.00059   0.00000   0.00031   0.00049
  75       12D+1        0.00000   0.00000   0.00000   0.00000   0.00000
  76       12D-1        0.00000   0.00000  -0.00056   0.00000   0.00000
  77       12D+2        0.00005   0.00022   0.00000   0.00032   0.00353
  78       12D-2        0.00000   0.00000   0.00000   0.00000   0.00000
  79       13F 0        0.00067  -0.00036   0.00000   0.00062   0.00426
  80       13F+1        0.00000   0.00000   0.00000   0.00000   0.00000
  81       13F-1        0.00000   0.00000  -0.00022   0.00000   0.00000
  82       13F+2        0.00032   0.00008   0.00000   0.00060   0.00556
  83       13F-2        0.00000   0.00000   0.00000   0.00000   0.00000
  84       13F+3        0.00000   0.00000   0.00000   0.00000   0.00000
  85       13F-3        0.00000   0.00000   0.00021   0.00000   0.00000
  86       14F 0       -0.00117   0.00046   0.00000   0.00055   0.00366
  87       14F+1        0.00000   0.00000   0.00000   0.00000   0.00000
  88       14F-1        0.00000   0.00000  -0.00088   0.00000   0.00000
  89       14F+2       -0.00098   0.00085   0.00000   0.00026   0.00485
  90       14F-2        0.00000   0.00000   0.00000   0.00000   0.00000
  91       14F+3        0.00000   0.00000   0.00000   0.00000   0.00000
  92       14F-3        0.00000   0.00000  -0.00006   0.00000   0.00000
  93 3   F  1S         -0.15522   0.30475   0.69212   0.60167  -0.14619
  94        2S          0.00331  -0.00551  -0.01113  -0.00907   0.37303
  95        3S         -0.00631   0.01290   0.02983   0.02618   0.11376
  96        4S          0.00262  -0.00295  -0.00059   0.00089   0.23180
  97        5S          0.00022  -0.00024   0.00070   0.00067   0.01440
  98        6PX         0.00000   0.00000   0.00000   0.00000   0.00000
  99        6PY        -0.00108   0.00132   0.00145   0.00092  -0.00567
 100        6PZ        -0.00088   0.00081   0.00111   0.00058  -0.01971
 101        7PX         0.00000   0.00000   0.00000   0.00000   0.00000
 102        7PY        -0.00099   0.00066  -0.00014  -0.00044  -0.00288
 103        7PZ        -0.00090   0.00025   0.00012  -0.00052  -0.02171
 104        8PX         0.00000   0.00000   0.00000   0.00000   0.00000
 105        8PY        -0.00056   0.00031   0.00085   0.00111  -0.01190
 106        8PZ        -0.00034  -0.00007   0.00145   0.00058  -0.02329
 107        9PX         0.00000   0.00000   0.00000   0.00000   0.00000
 108        9PY        -0.00007  -0.00003   0.00039   0.00009  -0.00086
 109        9PZ        -0.00004   0.00039   0.00007   0.00024  -0.00079
 110       10D 0        0.00000  -0.00001   0.00000   0.00000  -0.00012
 111       10D+1        0.00000   0.00000   0.00000   0.00000   0.00000
 112       10D-1        0.00003  -0.00002   0.00001   0.00004   0.00066
 113       10D+2        0.00001  -0.00001  -0.00002  -0.00002  -0.00064
 114       10D-2        0.00000   0.00000   0.00000   0.00000   0.00000
 115       11D 0       -0.00006   0.00004   0.00007  -0.00006  -0.00092
 116       11D+1        0.00000   0.00000   0.00000   0.00000   0.00000
 117       11D-1       -0.00036   0.00004  -0.00024  -0.00046   0.00348
 118       11D+2        0.00010   0.00002   0.00019   0.00020  -0.00330
 119       11D-2        0.00000   0.00000   0.00000   0.00000   0.00000
 120       12D 0       -0.00011   0.00000   0.00024   0.00005  -0.00006
 121       12D+1        0.00000   0.00000   0.00000   0.00000   0.00000
 122       12D-1       -0.00003  -0.00001   0.00040   0.00019  -0.00282
 123       12D+2        0.00020  -0.00010  -0.00022  -0.00024   0.00128
 124       12D-2        0.00000   0.00000   0.00000   0.00000   0.00000
 125       13F 0        0.00000  -0.00002   0.00000  -0.00001  -0.00034
 126       13F+1        0.00000   0.00000   0.00000   0.00000   0.00000
 127       13F-1       -0.00001  -0.00003   0.00000  -0.00002   0.00009
 128       13F+2        0.00001   0.00003   0.00002   0.00003  -0.00046
 129       13F-2        0.00000   0.00000   0.00000   0.00000   0.00000
 130       13F+3        0.00000   0.00000   0.00000   0.00000   0.00000
 131       13F-3        0.00001   0.00000   0.00006   0.00001  -0.00040
 132       14F 0        0.00014  -0.00001   0.00003   0.00014  -0.00032
 133       14F+1        0.00000   0.00000   0.00000   0.00000   0.00000
 134       14F-1       -0.00019   0.00018   0.00003  -0.00012  -0.00001
 135       14F+2        0.00025  -0.00022   0.00000   0.00014  -0.00099
 136       14F-2        0.00000   0.00000   0.00000   0.00000   0.00000
 137       14F+3        0.00000   0.00000   0.00000   0.00000   0.00000
 138       14F-3        0.00005  -0.00003  -0.00012   0.00003  -0.00053
 139 4   F  1S         -0.15522   0.30475  -0.69212   0.60167  -0.14619
 140        2S          0.00331  -0.00551   0.01113  -0.00907   0.37303
 141        3S         -0.00631   0.01290  -0.02983   0.02618   0.11376
 142        4S          0.00262  -0.00295   0.00059   0.00089   0.23180
 143        5S          0.00022  -0.00024  -0.00070   0.00067   0.01440
 144        6PX         0.00000   0.00000   0.00000   0.00000   0.00000
 145        6PY         0.00108  -0.00132   0.00145  -0.00092   0.00567
 146        6PZ        -0.00088   0.00081  -0.00111   0.00058  -0.01971
 147        7PX         0.00000   0.00000   0.00000   0.00000   0.00000
 148        7PY         0.00099  -0.00066  -0.00014   0.00044   0.00288
 149        7PZ        -0.00090   0.00025  -0.00012  -0.00052  -0.02171
 150        8PX         0.00000   0.00000   0.00000   0.00000   0.00000
 151        8PY         0.00056  -0.00031   0.00085  -0.00111   0.01190
 152        8PZ        -0.00034  -0.00007  -0.00145   0.00058  -0.02329
 153        9PX         0.00000   0.00000   0.00000   0.00000   0.00000
 154        9PY         0.00007   0.00003   0.00039  -0.00009   0.00086
 155        9PZ        -0.00004   0.00039  -0.00007   0.00024  -0.00079
 156       10D 0        0.00000  -0.00001   0.00000   0.00000  -0.00012
 157       10D+1        0.00000   0.00000   0.00000   0.00000   0.00000
 158       10D-1       -0.00003   0.00002   0.00001  -0.00004  -0.00066
 159       10D+2        0.00001  -0.00001   0.00002  -0.00002  -0.00064
 160       10D-2        0.00000   0.00000   0.00000   0.00000   0.00000
 161       11D 0       -0.00006   0.00004  -0.00007  -0.00006  -0.00092
 162       11D+1        0.00000   0.00000   0.00000   0.00000   0.00000
 163       11D-1        0.00036  -0.00004  -0.00024   0.00046  -0.00348
 164       11D+2        0.00010   0.00002  -0.00019   0.00020  -0.00330
 165       11D-2        0.00000   0.00000   0.00000   0.00000   0.00000
 166       12D 0       -0.00011   0.00000  -0.00024   0.00005  -0.00006
 167       12D+1        0.00000   0.00000   0.00000   0.00000   0.00000
 168       12D-1        0.00003   0.00001   0.00040  -0.00019   0.00282
 169       12D+2        0.00020  -0.00010   0.00022  -0.00024   0.00128
 170       12D-2        0.00000   0.00000   0.00000   0.00000   0.00000
 171       13F 0        0.00000  -0.00002   0.00000  -0.00001  -0.00034
 172       13F+1        0.00000   0.00000   0.00000   0.00000   0.00000
 173       13F-1        0.00001   0.00003   0.00000   0.00002  -0.00009
 174       13F+2        0.00001   0.00003  -0.00002   0.00003  -0.00046
 175       13F-2        0.00000   0.00000   0.00000   0.00000   0.00000
 176       13F+3        0.00000   0.00000   0.00000   0.00000   0.00000
 177       13F-3       -0.00001   0.00000   0.00006  -0.00001   0.00040
 178       14F 0        0.00014  -0.00001  -0.00003   0.00014  -0.00032
 179       14F+1        0.00000   0.00000   0.00000   0.00000   0.00000
 180       14F-1        0.00019  -0.00018   0.00003   0.00012   0.00001
 181       14F+2        0.00025  -0.00022   0.00000   0.00014  -0.00099
 182       14F-2        0.00000   0.00000   0.00000   0.00000   0.00000
 183       14F+3        0.00000   0.00000   0.00000   0.00000   0.00000
 184       14F-3       -0.00005   0.00003  -0.00012  -0.00003   0.00053
                           6         7         8         9        10
     Eigenvalues --     1.98560   1.98129   1.97344   1.97130   1.96821
   1 1   O  1S          0.00000  -0.19127  -0.03799   0.00000   0.00000
   2        2S          0.00000   0.49302   0.10510   0.00000   0.00000
   3        3S          0.00000   0.13860   0.03117   0.00000   0.00000
   4        4S          0.00000   0.30861   0.08947   0.00000   0.00000
   5        5S          0.00000   0.03349  -0.00644   0.00000   0.00000
   6        6PX         0.00000   0.00000   0.00000   0.00000  -0.00816
   7        6PY         0.02056   0.00000   0.00000  -0.04892   0.00000
   8        6PZ         0.00000   0.00276   0.02450   0.00000   0.00000
   9        7PX         0.00000   0.00000   0.00000   0.00000  -0.01076
  10        7PY         0.02566   0.00000   0.00000  -0.06658   0.00000
  11        7PZ         0.00000  -0.00266   0.02485   0.00000   0.00000
  12        8PX         0.00000   0.00000   0.00000   0.00000  -0.01865
  13        8PY         0.01638   0.00000   0.00000  -0.06708   0.00000
  14        8PZ         0.00000   0.04742   0.00455   0.00000   0.00000
  15        9PX         0.00000   0.00000   0.00000   0.00000  -0.00939
  16        9PY        -0.00184   0.00000   0.00000   0.00652   0.00000
  17        9PZ         0.00000   0.00298   0.00442   0.00000   0.00000
  18       10D 0        0.00000   0.00453  -0.00105   0.00000   0.00000
  19       10D+1        0.00000   0.00000   0.00000   0.00000  -0.00185
  20       10D-1       -0.00071   0.00000   0.00000   0.00302   0.00000
  21       10D+2        0.00000  -0.00003   0.00047   0.00000   0.00000
  22       10D-2        0.00000   0.00000   0.00000   0.00000   0.00000
  23       11D 0        0.00000   0.01158  -0.00031   0.00000   0.00000
  24       11D+1        0.00000   0.00000   0.00000   0.00000  -0.00221
  25       11D-1       -0.00183   0.00000   0.00000   0.01347   0.00000
  26       11D+2        0.00000   0.00008   0.00079   0.00000   0.00000
  27       11D-2        0.00000   0.00000   0.00000   0.00000   0.00000
  28       12D 0        0.00000  -0.01229   0.00736   0.00000   0.00000
  29       12D+1        0.00000   0.00000   0.00000   0.00000   0.00032
  30       12D-1       -0.00047   0.00000   0.00000   0.01404   0.00000
  31       12D+2        0.00000   0.00028   0.00075   0.00000   0.00000
  32       12D-2        0.00000   0.00000   0.00000   0.00000   0.00000
  33       13F 0        0.00000  -0.00272   0.00064   0.00000   0.00000
  34       13F+1        0.00000   0.00000   0.00000   0.00000   0.00123
  35       13F-1        0.00073   0.00000   0.00000  -0.00257   0.00000
  36       13F+2        0.00000   0.00022  -0.00018   0.00000   0.00000
  37       13F-2        0.00000   0.00000   0.00000   0.00000   0.00000
  38       13F+3        0.00000   0.00000   0.00000   0.00000  -0.00022
  39       13F-3        0.00000   0.00000   0.00000  -0.00006   0.00000
  40       14F 0        0.00000  -0.00062  -0.00044   0.00000   0.00000
  41       14F+1        0.00000   0.00000   0.00000   0.00000  -0.00181
  42       14F-1        0.00005   0.00000   0.00000  -0.00235   0.00000
  43       14F+2        0.00000  -0.00054   0.00095   0.00000   0.00000
  44       14F-2        0.00000   0.00000   0.00000   0.00000   0.00000
  45       14F+3        0.00000   0.00000   0.00000   0.00000   0.00116
  46       14F-3        0.00034   0.00000   0.00000  -0.00057   0.00000
  47 2   C  1S          0.00000  -0.06697  -0.01126   0.00000   0.00000
  48        2S          0.00000   0.15510   0.02637   0.00000   0.00000
  49        3S          0.00000   0.03755   0.00706   0.00000   0.00000
  50        4S          0.00000   0.02720  -0.01782   0.00000   0.00000
  51        5S          0.00000  -0.00225  -0.00045   0.00000   0.00000
  52        6PX         0.00000   0.00000   0.00000   0.00000   0.10426
  53        6PY         0.03728   0.00000   0.00000  -0.07600   0.00000
  54        6PZ         0.00000   0.07792  -0.05238   0.00000   0.00000
  55        7PX         0.00000   0.00000   0.00000   0.00000   0.13124
  56        7PY         0.03121   0.00000   0.00000  -0.09711   0.00000
  57        7PZ         0.00000   0.05542  -0.08197   0.00000   0.00000
  58        8PX         0.00000   0.00000   0.00000   0.00000   0.01720
  59        8PY        -0.02003   0.00000   0.00000   0.07447   0.00000
  60        8PZ         0.00000  -0.02883   0.02514   0.00000   0.00000
  61        9PX         0.00000   0.00000   0.00000   0.00000   0.00212
  62        9PY         0.00175   0.00000   0.00000  -0.00468   0.00000
  63        9PZ         0.00000  -0.00017   0.00219   0.00000   0.00000
  64       10D 0        0.00000   0.01200   0.02008   0.00000   0.00000
  65       10D+1        0.00000   0.00000   0.00000   0.00000  -0.01473
  66       10D-1       -0.00898   0.00000   0.00000  -0.01001   0.00000
  67       10D+2        0.00000  -0.00260   0.01030   0.00000   0.00000
  68       10D-2        0.00000   0.00000   0.00000   0.00000   0.00000
  69       11D 0        0.00000   0.00245   0.03771   0.00000   0.00000
  70       11D+1        0.00000   0.00000   0.00000   0.00000  -0.02470
  71       11D-1       -0.01047   0.00000   0.00000   0.00645   0.00000
  72       11D+2        0.00000  -0.00770   0.02171   0.00000   0.00000
  73       11D-2        0.00000   0.00000   0.00000   0.00000   0.00000
  74       12D 0        0.00000  -0.01149  -0.00430   0.00000   0.00000
  75       12D+1        0.00000   0.00000   0.00000   0.00000   0.00029
  76       12D-1        0.01028   0.00000   0.00000  -0.01257   0.00000
  77       12D+2        0.00000  -0.00282   0.00082   0.00000   0.00000
  78       12D-2        0.00000   0.00000   0.00000   0.00000   0.00000
  79       13F 0        0.00000   0.00609  -0.00584   0.00000   0.00000
  80       13F+1        0.00000   0.00000   0.00000   0.00000   0.00446
  81       13F-1        0.00199   0.00000   0.00000   0.01100   0.00000
  82       13F+2        0.00000   0.00258   0.00016   0.00000   0.00000
  83       13F-2        0.00000   0.00000   0.00000   0.00000   0.00000
  84       13F+3        0.00000   0.00000   0.00000   0.00000  -0.00775
  85       13F-3       -0.00207   0.00000   0.00000   0.00535   0.00000
  86       14F 0        0.00000  -0.00190  -0.00732   0.00000   0.00000
  87       14F+1        0.00000   0.00000   0.00000   0.00000  -0.00082
  88       14F-1        0.00549   0.00000   0.00000   0.01680   0.00000
  89       14F+2        0.00000   0.00056  -0.00647   0.00000   0.00000
  90       14F-2        0.00000   0.00000   0.00000   0.00000   0.00000
  91       14F+3        0.00000   0.00000   0.00000   0.00000  -0.00138
  92       14F-3        0.00088   0.00000   0.00000  -0.00098   0.00000
  93 3   F  1S          0.14946   0.01841   0.01633   0.01674   0.00000
  94        2S         -0.38200  -0.04707  -0.04386  -0.04521   0.00000
  95        3S         -0.11700  -0.01483  -0.01476  -0.01546   0.00000
  96        4S         -0.25141  -0.05178  -0.03462  -0.04971   0.00000
  97        5S         -0.03187  -0.02159   0.00882   0.04946   0.00000
  98        6PX         0.00000   0.00000   0.00000   0.00000   0.25085
  99        6PY         0.03799  -0.00281   0.16704  -0.13185   0.00000
 100        6PZ         0.00922   0.04655  -0.19455   0.23359   0.00000
 101        7PX         0.00000   0.00000   0.00000   0.00000   0.30628
 102        7PY         0.04163  -0.00577   0.20244  -0.16030   0.00000
 103        7PZ         0.00766   0.05478  -0.23586   0.28224   0.00000
 104        8PX         0.00000   0.00000   0.00000   0.00000   0.20950
 105        8PY         0.03527  -0.01309   0.12639  -0.13499   0.00000
 106        8PZ         0.00461   0.02850  -0.16435   0.18644   0.00000
 107        9PX         0.00000   0.00000   0.00000   0.00000   0.01570
 108        9PY        -0.00140  -0.00318   0.01317   0.00067   0.00000
 109        9PZ        -0.00040  -0.00335  -0.01425   0.02617   0.00000
 110       10D 0       -0.00016   0.00059  -0.00264   0.00238   0.00000
 111       10D+1        0.00000   0.00000   0.00000   0.00000   0.00189
 112       10D-1       -0.00041   0.00079  -0.00061   0.00162   0.00000
 113       10D+2        0.00009  -0.00003  -0.00223   0.00059   0.00000
 114       10D-2        0.00000   0.00000   0.00000   0.00000   0.00305
 115       11D 0       -0.00101   0.00171  -0.00992   0.00865   0.00000
 116       11D+1        0.00000   0.00000   0.00000   0.00000   0.00806
 117       11D-1       -0.00401   0.00024  -0.00238   0.00600   0.00000
 118       11D+2        0.00191   0.00119  -0.00753   0.00198   0.00000
 119       11D-2        0.00000   0.00000   0.00000   0.00000   0.01244
 120       12D 0       -0.00186   0.00010  -0.00474   0.00753   0.00000
 121       12D+1        0.00000   0.00000   0.00000   0.00000   0.00396
 122       12D-1       -0.00016  -0.00220  -0.00385  -0.00223   0.00000
 123       12D+2       -0.00148   0.00173   0.00086   0.01011   0.00000
 124       12D-2        0.00000   0.00000   0.00000   0.00000   0.00793
 125       13F 0        0.00011   0.00005  -0.00067   0.00044   0.00000
 126       13F+1        0.00000   0.00000   0.00000   0.00000   0.00029
 127       13F-1       -0.00029   0.00047  -0.00173   0.00183   0.00000
 128       13F+2        0.00031  -0.00013  -0.00042  -0.00026   0.00000
 129       13F-2        0.00000   0.00000   0.00000   0.00000   0.00165
 130       13F+3        0.00000   0.00000   0.00000   0.00000  -0.00157
 131       13F-3        0.00002   0.00008  -0.00107   0.00024   0.00000
 132       14F 0        0.00039   0.00071  -0.00188   0.00031   0.00000
 133       14F+1        0.00000   0.00000   0.00000   0.00000   0.00016
 134       14F-1       -0.00098   0.00006  -0.00271   0.00303   0.00000
 135       14F+2        0.00101   0.00057  -0.00045  -0.00077   0.00000
 136       14F-2        0.00000   0.00000   0.00000   0.00000   0.00303
 137       14F+3        0.00000   0.00000   0.00000   0.00000  -0.00200
 138       14F-3        0.00066   0.00029  -0.00072   0.00089   0.00000
 139 4   F  1S         -0.14946   0.01841   0.01633  -0.01674   0.00000
 140        2S          0.38200  -0.04707  -0.04386   0.04521   0.00000
 141        3S          0.11700  -0.01483  -0.01476   0.01546   0.00000
 142        4S          0.25141  -0.05178  -0.03462   0.04971   0.00000
 143        5S          0.03187  -0.02159   0.00882  -0.04946   0.00000
 144        6PX         0.00000   0.00000   0.00000   0.00000   0.25085
 145        6PY         0.03799   0.00281  -0.16704  -0.13185   0.00000
 146        6PZ        -0.00922   0.04655  -0.19455  -0.23359   0.00000
 147        7PX         0.00000   0.00000   0.00000   0.00000   0.30628
 148        7PY         0.04163   0.00577  -0.20244  -0.16030   0.00000
 149        7PZ        -0.00766   0.05478  -0.23586  -0.28224   0.00000
 150        8PX         0.00000   0.00000   0.00000   0.00000   0.20950
 151        8PY         0.03527   0.01309  -0.12639  -0.13499   0.00000
 152        8PZ        -0.00461   0.02850  -0.16435  -0.18644   0.00000
 153        9PX         0.00000   0.00000   0.00000   0.00000   0.01570
 154        9PY        -0.00140   0.00318  -0.01317   0.00067   0.00000
 155        9PZ         0.00040  -0.00335  -0.01425  -0.02617   0.00000
 156       10D 0        0.00016   0.00059  -0.00264  -0.00238   0.00000
 157       10D+1        0.00000   0.00000   0.00000   0.00000   0.00189
 158       10D-1       -0.00041  -0.00079   0.00061   0.00162   0.00000
 159       10D+2       -0.00009  -0.00003  -0.00223  -0.00059   0.00000
 160       10D-2        0.00000   0.00000   0.00000   0.00000  -0.00305
 161       11D 0        0.00101   0.00171  -0.00992  -0.00865   0.00000
 162       11D+1        0.00000   0.00000   0.00000   0.00000   0.00806
 163       11D-1       -0.00401  -0.00024   0.00238   0.00600   0.00000
 164       11D+2       -0.00191   0.00119  -0.00753  -0.00198   0.00000
 165       11D-2        0.00000   0.00000   0.00000   0.00000  -0.01244
 166       12D 0        0.00186   0.00010  -0.00474  -0.00753   0.00000
 167       12D+1        0.00000   0.00000   0.00000   0.00000   0.00396
 168       12D-1       -0.00016   0.00220   0.00385  -0.00223   0.00000
 169       12D+2        0.00148   0.00173   0.00086  -0.01011   0.00000
 170       12D-2        0.00000   0.00000   0.00000   0.00000  -0.00793
 171       13F 0       -0.00011   0.00005  -0.00067  -0.00044   0.00000
 172       13F+1        0.00000   0.00000   0.00000   0.00000   0.00029
 173       13F-1       -0.00029  -0.00047   0.00173   0.00183   0.00000
 174       13F+2       -0.00031  -0.00013  -0.00042   0.00026   0.00000
 175       13F-2        0.00000   0.00000   0.00000   0.00000  -0.00165
 176       13F+3        0.00000   0.00000   0.00000   0.00000  -0.00157
 177       13F-3        0.00002  -0.00008   0.00107   0.00024   0.00000
 178       14F 0       -0.00039   0.00071  -0.00188  -0.00031   0.00000
 179       14F+1        0.00000   0.00000   0.00000   0.00000   0.00016
 180       14F-1       -0.00098  -0.00006   0.00271   0.00303   0.00000
 181       14F+2       -0.00101   0.00057  -0.00045   0.00077   0.00000
 182       14F-2        0.00000   0.00000   0.00000   0.00000  -0.00303
 183       14F+3        0.00000   0.00000   0.00000   0.00000  -0.00200
 184       14F-3        0.00066  -0.00029   0.00072   0.00089   0.00000
                          11        12        13        14        15
     Eigenvalues --     1.96812   1.96659   1.96280   1.96073   1.95620
   1 1   O  1S          0.00000   0.04994   0.00000   0.00269   0.00000
   2        2S          0.00000  -0.14945   0.00000  -0.02968   0.00000
   3        3S          0.00000  -0.04581   0.00000  -0.01320   0.00000
   4        4S          0.00000  -0.20438   0.00000  -0.13754   0.00000
   5        5S          0.00000  -0.04324   0.00000  -0.04603   0.00000
   6        6PX         0.00000   0.00000   0.00000   0.00000   0.00000
   7        6PY         0.00000   0.00000   0.23014   0.00000   0.25982
   8        6PZ         0.00000  -0.15339   0.00000  -0.26687   0.00000
   9        7PX         0.00000   0.00000   0.00000   0.00000   0.00000
  10        7PY         0.00000   0.00000   0.28100   0.00000   0.31973
  11        7PZ         0.00000  -0.17769   0.00000  -0.32127   0.00000
  12        8PX         0.00000   0.00000   0.00000   0.00000   0.00000
  13        8PY         0.00000   0.00000   0.18625   0.00000   0.21971
  14        8PZ         0.00000  -0.07464   0.00000  -0.15797   0.00000
  15        9PX         0.00000   0.00000   0.00000   0.00000   0.00000
  16        9PY         0.00000   0.00000   0.02560   0.00000   0.02967
  17        9PZ         0.00000   0.00329   0.00000  -0.00422   0.00000
  18       10D 0        0.00000   0.00679   0.00000   0.01222   0.00000
  19       10D+1        0.00000   0.00000   0.00000   0.00000   0.00000
  20       10D-1        0.00000   0.00000  -0.00743   0.00000  -0.00495
  21       10D+2        0.00000   0.00007   0.00000   0.00022   0.00000
  22       10D-2       -0.00021   0.00000   0.00000   0.00000   0.00000
  23       11D 0        0.00000   0.01131   0.00000   0.03003   0.00000
  24       11D+1        0.00000   0.00000   0.00000   0.00000   0.00000
  25       11D-1        0.00000   0.00000  -0.01821   0.00000  -0.01235
  26       11D+2        0.00000  -0.00010   0.00000   0.00115   0.00000
  27       11D-2       -0.00270   0.00000   0.00000   0.00000   0.00000
  28       12D 0        0.00000  -0.00054   0.00000   0.00552   0.00000
  29       12D+1        0.00000   0.00000   0.00000   0.00000   0.00000
  30       12D-1        0.00000   0.00000  -0.00850   0.00000  -0.00184
  31       12D+2        0.00000  -0.00073   0.00000   0.00285   0.00000
  32       12D-2       -0.00731   0.00000   0.00000   0.00000   0.00000
  33       13F 0        0.00000  -0.00234   0.00000  -0.00494   0.00000
  34       13F+1        0.00000   0.00000   0.00000   0.00000   0.00000
  35       13F-1        0.00000   0.00000   0.00408   0.00000   0.00227
  36       13F+2        0.00000  -0.00026   0.00000  -0.00071   0.00000
  37       13F-2        0.00034   0.00000   0.00000   0.00000   0.00000
  38       13F+3        0.00000   0.00000   0.00000   0.00000   0.00000
  39       13F-3        0.00000   0.00000   0.00064   0.00000   0.00095
  40       14F 0        0.00000  -0.00066   0.00000  -0.00688   0.00000
  41       14F+1        0.00000   0.00000   0.00000   0.00000   0.00000
  42       14F-1        0.00000   0.00000   0.00376   0.00000   0.00259
  43       14F+2        0.00000  -0.00009   0.00000  -0.00083   0.00000
  44       14F-2        0.00303   0.00000   0.00000   0.00000   0.00000
  45       14F+3        0.00000   0.00000   0.00000   0.00000   0.00000
  46       14F-3        0.00000   0.00000   0.00082   0.00000  -0.00075
  47 2   C  1S          0.00000  -0.14279   0.00000  -0.02663   0.00000
  48        2S          0.00000   0.39202   0.00000   0.07615   0.00000
  49        3S          0.00000   0.10160   0.00000   0.02090   0.00000
  50        4S          0.00000   0.16040   0.00000  -0.01138   0.00000
  51        5S          0.00000   0.00584   0.00000   0.00775   0.00000
  52        6PX         0.00000   0.00000   0.00000   0.00000   0.00000
  53        6PY         0.00000   0.00000   0.18078   0.00000  -0.07069
  54        6PZ         0.00000  -0.01875   0.00000   0.22834   0.00000
  55        7PX         0.00000   0.00000   0.00000   0.00000   0.00000
  56        7PY         0.00000   0.00000   0.21813   0.00000  -0.07823
  57        7PZ         0.00000  -0.03405   0.00000   0.22707   0.00000
  58        8PX         0.00000   0.00000   0.00000   0.00000   0.00000
  59        8PY         0.00000   0.00000   0.05460   0.00000  -0.01321
  60        8PZ         0.00000  -0.00358   0.00000   0.02989   0.00000
  61        9PX         0.00000   0.00000   0.00000   0.00000   0.00000
  62        9PY         0.00000   0.00000  -0.00215   0.00000  -0.00286
  63        9PZ         0.00000  -0.00002   0.00000   0.00064   0.00000
  64       10D 0        0.00000   0.00692   0.00000   0.01839   0.00000
  65       10D+1        0.00000   0.00000   0.00000   0.00000   0.00000
  66       10D-1        0.00000   0.00000   0.00000   0.00000   0.04318
  67       10D+2        0.00000  -0.00923   0.00000   0.01128   0.00000
  68       10D-2       -0.02030   0.00000   0.00000   0.00000   0.00000
  69       11D 0        0.00000   0.00245   0.00000   0.01749   0.00000
  70       11D+1        0.00000   0.00000   0.00000   0.00000   0.00000
  71       11D-1        0.00000   0.00000  -0.02315   0.00000   0.08632
  72       11D+2        0.00000  -0.02306   0.00000   0.02298   0.00000
  73       11D-2       -0.03316   0.00000   0.00000   0.00000   0.00000
  74       12D 0        0.00000   0.00140   0.00000   0.00005   0.00000
  75       12D+1        0.00000   0.00000   0.00000   0.00000   0.00000
  76       12D-1        0.00000   0.00000  -0.00846   0.00000   0.01315
  77       12D+2        0.00000   0.00348   0.00000   0.00276   0.00000
  78       12D-2        0.00378   0.00000   0.00000   0.00000   0.00000
  79       13F 0        0.00000   0.00762   0.00000   0.00493   0.00000
  80       13F+1        0.00000   0.00000   0.00000   0.00000   0.00000
  81       13F-1        0.00000   0.00000   0.01413   0.00000   0.00451
  82       13F+2        0.00000   0.00603   0.00000  -0.00078   0.00000
  83       13F-2        0.00989   0.00000   0.00000   0.00000   0.00000
  84       13F+3        0.00000   0.00000   0.00000   0.00000   0.00000
  85       13F-3        0.00000   0.00000   0.00023   0.00000   0.00303
  86       14F 0        0.00000   0.00464   0.00000  -0.01394   0.00000
  87       14F+1        0.00000   0.00000   0.00000   0.00000   0.00000
  88       14F-1        0.00000   0.00000   0.02980   0.00000   0.01153
  89       14F+2        0.00000   0.00966   0.00000  -0.01207   0.00000
  90       14F-2        0.01506   0.00000   0.00000   0.00000   0.00000
  91       14F+3        0.00000   0.00000   0.00000   0.00000   0.00000
  92       14F-3        0.00000   0.00000   0.00317   0.00000   0.00914
  93 3   F  1S          0.00000   0.02031  -0.00433   0.00615  -0.02159
  94        2S          0.00000  -0.06307   0.02024  -0.00989   0.05254
  95        3S          0.00000  -0.02300   0.00936  -0.00032   0.01360
  96        4S          0.00000  -0.12584   0.09069   0.03493  -0.01244
  97        5S          0.00000  -0.02480   0.03641   0.01325  -0.02563
  98        6PX         0.27568   0.00000   0.00000   0.00000   0.00000
  99        6PY         0.00000   0.12784  -0.17594  -0.07482   0.15309
 100        6PZ         0.00000   0.10552  -0.01070  -0.12430   0.12040
 101        7PX         0.33562   0.00000   0.00000   0.00000   0.00000
 102        7PY         0.00000   0.15234  -0.21102  -0.09340   0.18858
 103        7PZ         0.00000   0.12530  -0.01196  -0.15283   0.14781
 104        8PX         0.23063   0.00000   0.00000   0.00000   0.00000
 105        8PY         0.00000   0.06760  -0.10854  -0.04665   0.11473
 106        8PZ         0.00000   0.05837   0.00710  -0.09801   0.08215
 107        9PX         0.02471   0.00000   0.00000   0.00000   0.00000
 108        9PY         0.00000  -0.00314  -0.00516   0.00233   0.00618
 109        9PZ         0.00000   0.00115   0.01220  -0.00777   0.00814
 110       10D 0        0.00000   0.00002  -0.00008   0.00035  -0.00005
 111       10D+1        0.00178   0.00000   0.00000   0.00000   0.00000
 112       10D-1        0.00000   0.00397  -0.00325  -0.00242   0.00338
 113       10D+2        0.00000  -0.00263   0.00221   0.00202  -0.00202
 114       10D-2        0.00221   0.00000   0.00000   0.00000   0.00000
 115       11D 0        0.00000  -0.00034  -0.00232   0.00151  -0.00143
 116       11D+1        0.00710   0.00000   0.00000   0.00000   0.00000
 117       11D-1        0.00000   0.01132  -0.01162  -0.01102   0.01167
 118       11D+2        0.00000  -0.00806   0.00678   0.00805  -0.00778
 119       11D-2        0.00953   0.00000   0.00000   0.00000   0.00000
 120       12D 0        0.00000  -0.00126  -0.00743  -0.00107  -0.00405
 121       12D+1        0.00447   0.00000   0.00000   0.00000   0.00000
 122       12D-1        0.00000   0.00207  -0.00248  -0.00315   0.00243
 123       12D+2        0.00000  -0.00118  -0.00095   0.00465  -0.00529
 124       12D-2        0.00455   0.00000   0.00000   0.00000   0.00000
 125       13F 0        0.00000  -0.00102   0.00091   0.00085  -0.00095
 126       13F+1        0.00018   0.00000   0.00000   0.00000   0.00000
 127       13F-1        0.00000   0.00078  -0.00054  -0.00060   0.00082
 128       13F+2        0.00000  -0.00160   0.00162   0.00140  -0.00156
 129       13F-2        0.00150   0.00000   0.00000   0.00000   0.00000
 130       13F+3       -0.00091   0.00000   0.00000   0.00000   0.00000
 131       13F-3        0.00000  -0.00086   0.00071   0.00087  -0.00065
 132       14F 0        0.00000  -0.00095   0.00018   0.00207  -0.00201
 133       14F+1        0.00093   0.00000   0.00000   0.00000   0.00000
 134       14F-1        0.00000   0.00069  -0.00332  -0.00045   0.00045
 135       14F+2        0.00000  -0.00261   0.00266   0.00297  -0.00257
 136       14F-2        0.00254   0.00000   0.00000   0.00000   0.00000
 137       14F+3       -0.00229   0.00000   0.00000   0.00000   0.00000
 138       14F-3        0.00000  -0.00161   0.00144   0.00154  -0.00176
 139 4   F  1S          0.00000   0.02031   0.00433   0.00615   0.02159
 140        2S          0.00000  -0.06307  -0.02024  -0.00989  -0.05254
 141        3S          0.00000  -0.02300  -0.00936  -0.00032  -0.01360
 142        4S          0.00000  -0.12584  -0.09069   0.03493   0.01244
 143        5S          0.00000  -0.02480  -0.03641   0.01325   0.02563
 144        6PX        -0.27568   0.00000   0.00000   0.00000   0.00000
 145        6PY         0.00000  -0.12784  -0.17594   0.07482   0.15309
 146        6PZ         0.00000   0.10552   0.01070  -0.12430  -0.12040
 147        7PX        -0.33562   0.00000   0.00000   0.00000   0.00000
 148        7PY         0.00000  -0.15234  -0.21102   0.09340   0.18858
 149        7PZ         0.00000   0.12530   0.01196  -0.15283  -0.14781
 150        8PX        -0.23063   0.00000   0.00000   0.00000   0.00000
 151        8PY         0.00000  -0.06760  -0.10854   0.04665   0.11473
 152        8PZ         0.00000   0.05837  -0.00710  -0.09801  -0.08215
 153        9PX        -0.02471   0.00000   0.00000   0.00000   0.00000
 154        9PY         0.00000   0.00314  -0.00516  -0.00233   0.00618
 155        9PZ         0.00000   0.00115  -0.01220  -0.00777  -0.00814
 156       10D 0        0.00000   0.00002   0.00008   0.00035   0.00005
 157       10D+1       -0.00178   0.00000   0.00000   0.00000   0.00000
 158       10D-1        0.00000  -0.00397  -0.00325   0.00242   0.00338
 159       10D+2        0.00000  -0.00263  -0.00221   0.00202   0.00202
 160       10D-2        0.00221   0.00000   0.00000   0.00000   0.00000
 161       11D 0        0.00000  -0.00034   0.00232   0.00151   0.00143
 162       11D+1       -0.00710   0.00000   0.00000   0.00000   0.00000
 163       11D-1        0.00000  -0.01132  -0.01162   0.01102   0.01167
 164       11D+2        0.00000  -0.00806  -0.00678   0.00805   0.00778
 165       11D-2        0.00953   0.00000   0.00000   0.00000   0.00000
 166       12D 0        0.00000  -0.00126   0.00743  -0.00107   0.00405
 167       12D+1       -0.00447   0.00000   0.00000   0.00000   0.00000
 168       12D-1        0.00000  -0.00207  -0.00248   0.00315   0.00243
 169       12D+2        0.00000  -0.00118   0.00095   0.00465   0.00529
 170       12D-2        0.00455   0.00000   0.00000   0.00000   0.00000
 171       13F 0        0.00000  -0.00102  -0.00091   0.00085   0.00095
 172       13F+1       -0.00018   0.00000   0.00000   0.00000   0.00000
 173       13F-1        0.00000  -0.00078  -0.00054   0.00060   0.00082
 174       13F+2        0.00000  -0.00160  -0.00162   0.00140   0.00156
 175       13F-2        0.00150   0.00000   0.00000   0.00000   0.00000
 176       13F+3        0.00091   0.00000   0.00000   0.00000   0.00000
 177       13F-3        0.00000   0.00086   0.00071  -0.00087  -0.00065
 178       14F 0        0.00000  -0.00095  -0.00018   0.00207   0.00201
 179       14F+1       -0.00093   0.00000   0.00000   0.00000   0.00000
 180       14F-1        0.00000  -0.00069  -0.00332   0.00045   0.00045
 181       14F+2        0.00000  -0.00261  -0.00266   0.00297   0.00257
 182       14F-2        0.00254   0.00000   0.00000   0.00000   0.00000
 183       14F+3        0.00229   0.00000   0.00000   0.00000   0.00000
 184       14F-3        0.00000   0.00161   0.00144  -0.00154  -0.00176
                          16        17        18        19        20
     Eigenvalues --     1.93904   0.05981   0.03817   0.03634   0.02487
   1 1   O  1S          0.00000   0.00000  -0.03490   0.00000   0.07030
   2        2S          0.00000   0.00000   0.14355   0.00000  -0.27126
   3        3S          0.00000   0.00000   0.05126   0.00000  -0.11211
   4        4S          0.00000   0.00000   0.19153   0.00000  -0.50080
   5        5S          0.00000   0.00000   0.08803   0.00000  -0.20760
   6        6PX         0.30126  -0.35065   0.00000   0.00000   0.00000
   7        6PY         0.00000   0.00000   0.00000   0.34294   0.00000
   8        6PZ         0.00000   0.00000  -0.20002   0.00000   0.34567
   9        7PX         0.37613  -0.39269   0.00000   0.00000   0.00000
  10        7PY         0.00000   0.00000   0.00000   0.30892   0.00000
  11        7PZ         0.00000   0.00000  -0.23212   0.00000   0.43283
  12        8PX         0.24123  -0.06619   0.00000   0.00000   0.00000
  13        8PY         0.00000   0.00000   0.00000  -0.05833   0.00000
  14        8PZ         0.00000   0.00000   0.02353   0.00000   0.16382
  15        9PX         0.01554  -0.00663   0.00000   0.00000   0.00000
  16        9PY         0.00000   0.00000   0.00000  -0.03301   0.00000
  17        9PZ         0.00000   0.00000  -0.00570   0.00000   0.02162
  18       10D 0        0.00000   0.00000  -0.00400   0.00000   0.03111
  19       10D+1       -0.01096  -0.01604   0.00000   0.00000   0.00000
  20       10D-1        0.00000   0.00000   0.00000   0.02756   0.00000
  21       10D+2        0.00000   0.00000  -0.00369   0.00000   0.00128
  22       10D-2        0.00000   0.00000   0.00000   0.00000   0.00000
  23       11D 0        0.00000   0.00000   0.00311   0.00000   0.02440
  24       11D+1       -0.02884  -0.01857   0.00000   0.00000   0.00000
  25       11D-1        0.00000   0.00000   0.00000   0.05161   0.00000
  26       11D+2        0.00000   0.00000  -0.00297   0.00000   0.00078
  27       11D-2        0.00000   0.00000   0.00000   0.00000   0.00000
  28       12D 0        0.00000   0.00000  -0.03210   0.00000  -0.02969
  29       12D+1       -0.00940   0.01811   0.00000   0.00000   0.00000
  30       12D-1        0.00000   0.00000   0.00000   0.00577   0.00000
  31       12D+2        0.00000   0.00000   0.00485   0.00000   0.00142
  32       12D-2        0.00000   0.00000   0.00000   0.00000   0.00000
  33       13F 0        0.00000   0.00000  -0.00304   0.00000  -0.00212
  34       13F+1        0.00578   0.00449   0.00000   0.00000   0.00000
  35       13F-1        0.00000   0.00000   0.00000  -0.00699   0.00000
  36       13F+2        0.00000   0.00000  -0.00171   0.00000   0.00146
  37       13F-2        0.00000   0.00000   0.00000   0.00000   0.00000
  38       13F+3        0.00101  -0.00265   0.00000   0.00000   0.00000
  39       13F-3        0.00000   0.00000   0.00000   0.00181   0.00000
  40       14F 0        0.00000   0.00000   0.00054   0.00000  -0.00832
  41       14F+1        0.00365  -0.00384   0.00000   0.00000   0.00000
  42       14F-1        0.00000   0.00000   0.00000  -0.00495   0.00000
  43       14F+2        0.00000   0.00000  -0.00266   0.00000  -0.00256
  44       14F-2        0.00000   0.00000   0.00000   0.00000   0.00000
  45       14F+3        0.00058  -0.00170   0.00000   0.00000   0.00000
  46       14F-3        0.00000   0.00000   0.00000   0.00207   0.00000
  47 2   C  1S          0.00000   0.00000   0.17929   0.00000  -0.05787
  48        2S          0.00000   0.00000  -0.61930   0.00000   0.25051
  49        3S          0.00000   0.00000  -0.18926   0.00000   0.11691
  50        4S          0.00000   0.00000  -0.46666   0.00000   0.19102
  51        5S          0.00000   0.00000  -0.04071   0.00000   0.04255
  52        6PX         0.18247   0.32841   0.00000   0.00000   0.00000
  53        6PY         0.00000   0.00000   0.00000  -0.34348   0.00000
  54        6PZ         0.00000   0.00000   0.11024   0.00000   0.35492
  55        7PX         0.23381   0.46409   0.00000   0.00000   0.00000
  56        7PY         0.00000   0.00000   0.00000  -0.59877   0.00000
  57        7PZ         0.00000   0.00000   0.18383   0.00000   0.68723
  58        8PX         0.08850   0.13981   0.00000   0.00000   0.00000
  59        8PY         0.00000   0.00000   0.00000  -0.13194   0.00000
  60        8PZ         0.00000   0.00000  -0.03446   0.00000   0.15052
  61        9PX         0.00850   0.00744   0.00000   0.00000   0.00000
  62        9PY         0.00000   0.00000   0.00000  -0.00381   0.00000
  63        9PZ         0.00000   0.00000   0.00248   0.00000   0.00783
  64       10D 0        0.00000   0.00000   0.00448   0.00000  -0.03028
  65       10D+1        0.02548   0.00948   0.00000   0.00000   0.00000
  66       10D-1        0.00000   0.00000   0.00000  -0.02130   0.00000
  67       10D+2        0.00000   0.00000  -0.00085   0.00000  -0.00190
  68       10D-2        0.00000   0.00000   0.00000   0.00000   0.00000
  69       11D 0        0.00000   0.00000  -0.02538   0.00000   0.03305
  70       11D+1        0.04513   0.05977   0.00000   0.00000   0.00000
  71       11D-1        0.00000   0.00000   0.00000   0.07358   0.00000
  72       11D+2        0.00000   0.00000   0.06047   0.00000   0.03385
  73       11D-2        0.00000   0.00000   0.00000   0.00000   0.00000
  74       12D 0        0.00000   0.00000  -0.04129   0.00000   0.04604
  75       12D+1        0.00540   0.02186   0.00000   0.00000   0.00000
  76       12D-1        0.00000   0.00000   0.00000  -0.01322   0.00000
  77       12D+2        0.00000   0.00000   0.00529   0.00000   0.01186
  78       12D-2        0.00000   0.00000   0.00000   0.00000   0.00000
  79       13F 0        0.00000   0.00000  -0.00537   0.00000   0.01256
  80       13F+1        0.00768   0.01580   0.00000   0.00000   0.00000
  81       13F-1        0.00000   0.00000   0.00000  -0.02654   0.00000
  82       13F+2        0.00000   0.00000  -0.02782   0.00000  -0.01341
  83       13F-2        0.00000   0.00000   0.00000   0.00000   0.00000
  84       13F+3        0.00057  -0.00444   0.00000   0.00000   0.00000
  85       13F-3        0.00000   0.00000   0.00000   0.01188   0.00000
  86       14F 0        0.00000   0.00000  -0.04349   0.00000   0.00335
  87       14F+1        0.00773   0.02650   0.00000   0.00000   0.00000
  88       14F-1        0.00000   0.00000   0.00000  -0.14926   0.00000
  89       14F+2        0.00000   0.00000  -0.03823   0.00000  -0.00800
  90       14F-2        0.00000   0.00000   0.00000   0.00000   0.00000
  91       14F+3        0.00409   0.00757   0.00000   0.00000   0.00000
  92       14F-3        0.00000   0.00000   0.00000  -0.03330   0.00000
  93 3   F  1S          0.00000   0.00000  -0.05213   0.04543  -0.01974
  94        2S          0.00000   0.00000   0.16246  -0.13266   0.04785
  95        3S          0.00000   0.00000   0.07357  -0.06616   0.03020
  96        4S          0.00000   0.00000   0.21787  -0.25104   0.11676
  97        5S          0.00000   0.00000   0.05218  -0.07506   0.06171
  98        6PX        -0.05670  -0.18452   0.00000   0.00000   0.00000
  99        6PY         0.00000   0.00000   0.27751  -0.10397   0.21842
 100        6PZ         0.00000   0.00000   0.14797  -0.22310  -0.16612
 101        7PX        -0.06853  -0.15244   0.00000   0.00000   0.00000
 102        7PY         0.00000   0.00000   0.26677  -0.13698   0.14302
 103        7PZ         0.00000   0.00000   0.15980  -0.19170  -0.06120
 104        8PX        -0.06266   0.02429   0.00000   0.00000   0.00000
 105        8PY         0.00000   0.00000  -0.00165  -0.19628  -0.07464
 106        8PZ         0.00000   0.00000   0.03457   0.09374   0.21140
 107        9PX        -0.01934  -0.00346   0.00000   0.00000   0.00000
 108        9PY         0.00000   0.00000   0.00414  -0.01106  -0.01176
 109        9PZ         0.00000   0.00000  -0.00821  -0.01087   0.03689
 110       10D 0        0.00000   0.00000   0.00215   0.00551   0.01240
 111       10D+1        0.00085   0.00404   0.00000   0.00000   0.00000
 112       10D-1        0.00000   0.00000  -0.01061   0.01129   0.00015
 113       10D+2        0.00000   0.00000   0.00855  -0.00423   0.01286
 114       10D-2        0.00079   0.00553   0.00000   0.00000   0.00000
 115       11D 0        0.00000   0.00000   0.00783   0.02750   0.03854
 116       11D+1        0.00264   0.01537   0.00000   0.00000   0.00000
 117       11D-1        0.00000   0.00000  -0.01236   0.01954   0.01127
 118       11D+2        0.00000   0.00000   0.01274   0.00216   0.03099
 119       11D-2        0.00205   0.01927   0.00000   0.00000   0.00000
 120       12D 0        0.00000   0.00000   0.00591   0.06593   0.02249
 121       12D+1        0.00235   0.01029   0.00000   0.00000   0.00000
 122       12D-1        0.00000   0.00000  -0.00640   0.00130   0.03062
 123       12D+2        0.00000   0.00000   0.01236   0.04382   0.00054
 124       12D-2       -0.00147   0.00418   0.00000   0.00000   0.00000
 125       13F 0        0.00000   0.00000  -0.00056   0.00078   0.00154
 126       13F+1        0.00018   0.00051   0.00000   0.00000   0.00000
 127       13F-1        0.00000   0.00000   0.00116   0.00070   0.00309
 128       13F+2        0.00000   0.00000  -0.00144  -0.00048  -0.00039
 129       13F-2        0.00040   0.00085   0.00000   0.00000   0.00000
 130       13F+3       -0.00046  -0.00211   0.00000   0.00000   0.00000
 131       13F-3        0.00000   0.00000   0.00037   0.00072   0.00249
 132       14F 0        0.00000   0.00000   0.00248   0.00492   0.00137
 133       14F+1        0.00070   0.00148   0.00000   0.00000   0.00000
 134       14F-1        0.00000   0.00000   0.00053   0.01145   0.00480
 135       14F+2        0.00000   0.00000   0.00347   0.00019   0.00168
 136       14F-2        0.00053   0.00400   0.00000   0.00000   0.00000
 137       14F+3        0.00079   0.00083   0.00000   0.00000   0.00000
 138       14F-3        0.00000   0.00000  -0.00009   0.00074   0.00141
 139 4   F  1S          0.00000   0.00000  -0.05213  -0.04543  -0.01974
 140        2S          0.00000   0.00000   0.16246   0.13266   0.04785
 141        3S          0.00000   0.00000   0.07357   0.06616   0.03020
 142        4S          0.00000   0.00000   0.21787   0.25104   0.11676
 143        5S          0.00000   0.00000   0.05218   0.07506   0.06171
 144        6PX        -0.05670  -0.18452   0.00000   0.00000   0.00000
 145        6PY         0.00000   0.00000  -0.27751  -0.10397  -0.21842
 146        6PZ         0.00000   0.00000   0.14797   0.22310  -0.16612
 147        7PX        -0.06853  -0.15244   0.00000   0.00000   0.00000
 148        7PY         0.00000   0.00000  -0.26677  -0.13698  -0.14302
 149        7PZ         0.00000   0.00000   0.15980   0.19170  -0.06120
 150        8PX        -0.06266   0.02429   0.00000   0.00000   0.00000
 151        8PY         0.00000   0.00000   0.00165  -0.19628   0.07464
 152        8PZ         0.00000   0.00000   0.03457  -0.09374   0.21140
 153        9PX        -0.01934  -0.00346   0.00000   0.00000   0.00000
 154        9PY         0.00000   0.00000  -0.00414  -0.01106   0.01176
 155        9PZ         0.00000   0.00000  -0.00821   0.01087   0.03689
 156       10D 0        0.00000   0.00000   0.00215  -0.00551   0.01240
 157       10D+1        0.00085   0.00404   0.00000   0.00000   0.00000
 158       10D-1        0.00000   0.00000   0.01061   0.01129  -0.00015
 159       10D+2        0.00000   0.00000   0.00855   0.00423   0.01286
 160       10D-2       -0.00079  -0.00553   0.00000   0.00000   0.00000
 161       11D 0        0.00000   0.00000   0.00783  -0.02750   0.03854
 162       11D+1        0.00264   0.01537   0.00000   0.00000   0.00000
 163       11D-1        0.00000   0.00000   0.01236   0.01954  -0.01127
 164       11D+2        0.00000   0.00000   0.01274  -0.00216   0.03099
 165       11D-2       -0.00205  -0.01927   0.00000   0.00000   0.00000
 166       12D 0        0.00000   0.00000   0.00591  -0.06593   0.02249
 167       12D+1        0.00235   0.01029   0.00000   0.00000   0.00000
 168       12D-1        0.00000   0.00000   0.00640   0.00130  -0.03062
 169       12D+2        0.00000   0.00000   0.01236  -0.04382   0.00054
 170       12D-2        0.00147  -0.00418   0.00000   0.00000   0.00000
 171       13F 0        0.00000   0.00000  -0.00056  -0.00078   0.00154
 172       13F+1        0.00018   0.00051   0.00000   0.00000   0.00000
 173       13F-1        0.00000   0.00000  -0.00116   0.00070  -0.00309
 174       13F+2        0.00000   0.00000  -0.00144   0.00048  -0.00039
 175       13F-2       -0.00040  -0.00085   0.00000   0.00000   0.00000
 176       13F+3       -0.00046  -0.00211   0.00000   0.00000   0.00000
 177       13F-3        0.00000   0.00000  -0.00037   0.00072  -0.00249
 178       14F 0        0.00000   0.00000   0.00248  -0.00492   0.00137
 179       14F+1        0.00070   0.00148   0.00000   0.00000   0.00000
 180       14F-1        0.00000   0.00000  -0.00053   0.01145  -0.00480
 181       14F+2        0.00000   0.00000   0.00347  -0.00019   0.00168
 182       14F-2       -0.00053  -0.00400   0.00000   0.00000   0.00000
 183       14F+3        0.00079   0.00083   0.00000   0.00000   0.00000
 184       14F-3        0.00000   0.00000   0.00009   0.00074  -0.00141
                          21        22        23        24        25
     Eigenvalues --     0.01548   0.01403   0.01397   0.01355   0.01082
   1 1   O  1S         -0.03448   0.00000   0.00000   0.00000  -0.24066
   2        2S          0.07167   0.00000   0.00000   0.00000   0.77869
   3        3S          0.11175   0.00000   0.00000   0.00000   0.66017
   4        4S         -0.77326   0.00000   0.00000   0.00000  -1.21449
   5        5S         -0.44316   0.00000   0.00000   0.00000  -0.30197
   6        6PX         0.00000   0.00000   0.26035   0.00000   0.00000
   7        6PY         0.00000   0.00000   0.00000   0.31111   0.00000
   8        6PZ         0.29035   0.00000   0.00000   0.00000   0.20865
   9        7PX         0.00000   0.00000   0.19700   0.00000   0.00000
  10        7PY         0.00000   0.00000   0.00000   0.16719   0.00000
  11        7PZ         0.28800   0.00000   0.00000   0.00000  -0.02554
  12        8PX         0.00000   0.00000  -0.14662   0.00000   0.00000
  13        8PY         0.00000   0.00000   0.00000  -0.19807   0.00000
  14        8PZ         0.03763   0.00000   0.00000   0.00000  -0.09661
  15        9PX         0.00000   0.00000  -0.03305   0.00000   0.00000
  16        9PY         0.00000   0.00000   0.00000  -0.00207   0.00000
  17        9PZ         0.05767   0.00000   0.00000   0.00000   0.00197
  18       10D 0        0.05342   0.00000   0.00000   0.00000  -0.01786
  19       10D+1        0.00000   0.00000   0.03984   0.00000   0.00000
  20       10D-1        0.00000   0.00000   0.00000  -0.00678   0.00000
  21       10D+2        0.01314   0.00000   0.00000   0.00000  -0.02036
  22       10D-2        0.00000  -0.02330   0.00000   0.00000   0.00000
  23       11D 0        0.08772   0.00000   0.00000   0.00000  -0.06443
  24       11D+1        0.00000   0.00000   0.07441   0.00000   0.00000
  25       11D-1        0.00000   0.00000   0.00000  -0.04600   0.00000
  26       11D+2        0.04503   0.00000   0.00000   0.00000  -0.00614
  27       11D-2        0.00000  -0.07393   0.00000   0.00000   0.00000
  28       12D 0        0.02373   0.00000   0.00000   0.00000  -0.05120
  29       12D+1        0.00000   0.00000  -0.01496   0.00000   0.00000
  30       12D-1        0.00000   0.00000   0.00000  -0.05009   0.00000
  31       12D+2        0.01853   0.00000   0.00000   0.00000   0.01105
  32       12D-2        0.00000  -0.05409   0.00000   0.00000   0.00000
  33       13F 0       -0.00987   0.00000   0.00000   0.00000   0.00101
  34       13F+1        0.00000   0.00000  -0.00668   0.00000   0.00000
  35       13F-1        0.00000   0.00000   0.00000   0.00531   0.00000
  36       13F+2       -0.00428   0.00000   0.00000   0.00000   0.00200
  37       13F-2        0.00000   0.00517   0.00000   0.00000   0.00000
  38       13F+3        0.00000   0.00000  -0.00072   0.00000   0.00000
  39       13F-3        0.00000   0.00000   0.00000  -0.00143   0.00000
  40       14F 0       -0.02590   0.00000   0.00000   0.00000   0.02204
  41       14F+1        0.00000   0.00000  -0.01049   0.00000   0.00000
  42       14F-1        0.00000   0.00000   0.00000   0.00464   0.00000
  43       14F+2       -0.00057   0.00000   0.00000   0.00000  -0.00126
  44       14F-2        0.00000   0.02796   0.00000   0.00000   0.00000
  45       14F+3        0.00000   0.00000   0.00637   0.00000   0.00000
  46       14F-3        0.00000   0.00000   0.00000   0.01281   0.00000
  47 2   C  1S         -0.03600   0.00000   0.00000   0.00000   0.00795
  48        2S          0.15709   0.00000   0.00000   0.00000   0.05858
  49        3S          0.11123   0.00000   0.00000   0.00000   0.05551
  50        4S         -0.13482   0.00000   0.00000   0.00000   0.20220
  51        5S          0.06039   0.00000   0.00000   0.00000   0.06261
  52        6PX         0.00000   0.00000  -0.11886   0.00000   0.00000
  53        6PY         0.00000   0.00000   0.00000   0.22528   0.00000
  54        6PZ         0.32671   0.00000   0.00000   0.00000  -0.11152
  55        7PX         0.00000   0.00000  -0.17545   0.00000   0.00000
  56        7PY         0.00000   0.00000   0.00000   0.48642   0.00000
  57        7PZ         0.48774   0.00000   0.00000   0.00000   0.00493
  58        8PX         0.00000   0.00000  -0.16533   0.00000   0.00000
  59        8PY         0.00000   0.00000   0.00000   0.44306   0.00000
  60        8PZ         0.44874   0.00000   0.00000   0.00000  -0.01857
  61        9PX         0.00000   0.00000  -0.00793   0.00000   0.00000
  62        9PY         0.00000   0.00000   0.00000  -0.00640   0.00000
  63        9PZ         0.01996   0.00000   0.00000   0.00000   0.00483
  64       10D 0        0.06098   0.00000   0.00000   0.00000  -0.02908
  65       10D+1        0.00000   0.00000  -0.10862   0.00000   0.00000
  66       10D-1        0.00000   0.00000   0.00000  -0.08684   0.00000
  67       10D+2        0.04731   0.00000   0.00000   0.00000  -0.02659
  68       10D-2        0.00000  -0.09145   0.00000   0.00000   0.00000
  69       11D 0        0.18909   0.00000   0.00000   0.00000  -0.12001
  70       11D+1        0.00000   0.00000  -0.20926   0.00000   0.00000
  71       11D-1        0.00000   0.00000   0.00000  -0.47209   0.00000
  72       11D+2        0.18281   0.00000   0.00000   0.00000  -0.03863
  73       11D-2        0.00000  -0.14102   0.00000   0.00000   0.00000
  74       12D 0        0.04863   0.00000   0.00000   0.00000   0.03361
  75       12D+1        0.00000   0.00000  -0.00703   0.00000   0.00000
  76       12D-1        0.00000   0.00000   0.00000  -0.18959   0.00000
  77       12D+2        0.04327   0.00000   0.00000   0.00000   0.00773
  78       12D-2        0.00000   0.02592   0.00000   0.00000   0.00000
  79       13F 0       -0.01316   0.00000   0.00000   0.00000  -0.00465
  80       13F+1        0.00000   0.00000  -0.00698   0.00000   0.00000
  81       13F-1        0.00000   0.00000   0.00000   0.04146   0.00000
  82       13F+2       -0.01529   0.00000   0.00000   0.00000  -0.00684
  83       13F-2        0.00000   0.02992   0.00000   0.00000   0.00000
  84       13F+3        0.00000   0.00000  -0.02672   0.00000   0.00000
  85       13F-3        0.00000   0.00000   0.00000  -0.01202   0.00000
  86       14F 0       -0.06671   0.00000   0.00000   0.00000  -0.05186
  87       14F+1        0.00000   0.00000  -0.04821   0.00000   0.00000
  88       14F-1        0.00000   0.00000   0.00000  -0.12336   0.00000
  89       14F+2       -0.07365   0.00000   0.00000   0.00000  -0.00449
  90       14F-2        0.00000   0.06244   0.00000   0.00000   0.00000
  91       14F+3        0.00000   0.00000  -0.00793   0.00000   0.00000
  92       14F-3        0.00000   0.00000   0.00000  -0.07212   0.00000
  93 3   F  1S          0.01384   0.00000   0.00000   0.04751  -0.02175
  94        2S         -0.02475   0.00000   0.00000  -0.11793   0.05298
  95        3S         -0.03764   0.00000   0.00000  -0.13214   0.05549
  96        4S          0.33933   0.00000   0.00000   0.68378  -0.11094
  97        5S          0.23310   0.00000   0.00000   0.53446  -0.00195
  98        6PX         0.00000  -0.45589  -0.39964   0.00000   0.00000
  99        6PY        -0.09703   0.00000   0.00000   0.33827   0.03773
 100        6PZ         0.33451   0.00000   0.00000  -0.00107  -0.12095
 101        7PX         0.00000  -0.13715  -0.11734   0.00000   0.00000
 102        7PY         0.01216   0.00000   0.00000   0.17914   0.00616
 103        7PZ         0.14147   0.00000   0.00000   0.06125  -0.02199
 104        8PX         0.00000   0.51870   0.50739   0.00000   0.00000
 105        8PY         0.20809   0.00000   0.00000  -0.25032  -0.05449
 106        8PZ        -0.28195   0.00000   0.00000   0.28598   0.14413
 107        9PX         0.00000   0.08102   0.07635   0.00000   0.00000
 108        9PY         0.05567   0.00000   0.00000   0.05457  -0.01256
 109        9PZ        -0.00413   0.00000   0.00000   0.05017   0.02401
 110       10D 0       -0.00173   0.00000   0.00000   0.00308   0.00068
 111       10D+1        0.00000   0.01500  -0.00419   0.00000   0.00000
 112       10D-1       -0.01450   0.00000   0.00000  -0.02588   0.01735
 113       10D+2        0.00450   0.00000   0.00000   0.01015  -0.00137
[...]
 117       11D-1        0.07657  -0.08163   0.00000  -0.03780  -0.01362
 118       11D+2       -0.09600   0.05610   0.00000   0.02641   0.03385
 119       11D-2        0.00000   0.00000   0.02942   0.00000   0.00000
 120       12D 0        0.45908   0.10743   0.00000   0.18288  -0.52104
 121       12D+1        0.00000   0.00000   0.25121   0.00000   0.00000
 122       12D-1        0.74319   0.51440   0.00000   0.00088  -0.27963
 123       12D+2        0.12596  -0.11574   0.00000  -0.18301  -0.11662
 124       12D-2        0.00000   0.00000  -0.02127   0.00000   0.00000
 125       13F 0        0.00449   0.02326   0.00000  -0.01355   0.00338
 126       13F+1        0.00000   0.00000   0.00418   0.00000   0.00000
 127       13F-1       -0.05121   0.02199   0.00000   0.00348   0.01086
 128       13F+2        0.02735  -0.03336   0.00000  -0.00021  -0.00540
 129       13F-2        0.00000   0.00000   0.01587   0.00000   0.00000
 130       13F+3        0.00000   0.00000   0.00942   0.00000   0.00000
 131       13F-3       -0.00915  -0.01999   0.00000   0.01583  -0.00909
 132       14F 0       -0.02055  -0.05548   0.00000   0.04308  -0.02283
 133       14F+1        0.00000   0.00000  -0.00308   0.00000   0.00000
 134       14F-1        0.16752  -0.04550   0.00000  -0.00016  -0.06568
 135       14F+2       -0.08542   0.05814   0.00000  -0.01012   0.02333
 136       14F-2        0.00000   0.00000  -0.04267   0.00000   0.00000
 137       14F+3        0.00000   0.00000  -0.01156   0.00000   0.00000
 138       14F-3        0.01663   0.04531   0.00000  -0.04604   0.01461
 139 4   F  1S          0.09544  -0.11461   0.00000   0.01611   0.00991
 140        2S          0.43079  -0.49184   0.00000   0.06007   0.01571
 141        3S         -0.07765   0.12194   0.00000  -0.02319  -0.03921
 142        4S         -1.48568   3.41745   0.00000  -1.61053   0.36074
 143        5S          1.39537   6.04575   0.00000   2.68293   2.43170
 144        6PX         0.00000   0.00000  -0.00365   0.00000   0.00000
 145        6PY         0.00346  -0.00679   0.00000  -0.01205  -0.01132
 146        6PZ         0.01795   0.00453   0.00000  -0.00318   0.00703
 147        7PX         0.00000   0.00000   0.00921   0.00000   0.00000
 148        7PY        -0.00498   0.01506   0.00000   0.09768   0.05783
 149        7PZ        -0.09293  -0.01359   0.00000  -0.03128  -0.06096
 150        8PX         0.00000   0.00000   0.10636   0.00000   0.00000
 151        8PY         0.57292  -1.23581   0.00000   0.06832  -0.23065
 152        8PZ        -1.69554   1.35372   0.00000  -0.46823   1.37932
 153        9PX         0.00000   0.00000  -0.14743   0.00000   0.00000
 154        9PY        -1.71575  -1.34910   0.00000  -0.27004   0.74863
 155        9PZ         1.63915   3.22014   0.00000   2.42315   0.80951
 156       10D 0        0.01025   0.01297   0.00000   0.02065   0.00417
 157       10D+1        0.00000   0.00000   0.03096   0.00000   0.00000
 158       10D-1       -0.01320  -0.02396   0.00000  -0.00449   0.00200
 159       10D+2       -0.02614  -0.01851   0.00000  -0.00640   0.01101
 160       10D-2        0.00000   0.00000   0.01186   0.00000   0.00000
 161       11D 0       -0.05311  -0.04645   0.00000  -0.07000  -0.01268
 162       11D+1        0.00000   0.00000  -0.10964   0.00000   0.00000
 163       11D-1        0.07657   0.08163   0.00000   0.03780  -0.01362
 164       11D+2        0.09600   0.05610   0.00000   0.02641  -0.03385
 165       11D-2        0.00000   0.00000  -0.02942   0.00000   0.00000
 166       12D 0       -0.45908   0.10743   0.00000   0.18288   0.52104
 167       12D+1        0.00000   0.00000   0.25121   0.00000   0.00000
 168       12D-1        0.74319  -0.51440   0.00000  -0.00088  -0.27963
 169       12D+2       -0.12596  -0.11574   0.00000  -0.18301   0.11662
 170       12D-2        0.00000   0.00000   0.02127   0.00000   0.00000
 171       13F 0       -0.00449   0.02326   0.00000  -0.01355  -0.00338
 172       13F+1        0.00000   0.00000   0.00418   0.00000   0.00000
 173       13F-1       -0.05121  -0.02199   0.00000  -0.00348   0.01086
 174       13F+2       -0.02735  -0.03336   0.00000  -0.00021   0.00540
 175       13F-2        0.00000   0.00000  -0.01587   0.00000   0.00000
 176       13F+3        0.00000   0.00000   0.00942   0.00000   0.00000
 177       13F-3       -0.00915   0.01999   0.00000  -0.01583  -0.00909
 178       14F 0        0.02055  -0.05548   0.00000   0.04308   0.02283
 179       14F+1        0.00000   0.00000  -0.00308   0.00000   0.00000
 180       14F-1        0.16752   0.04550   0.00000   0.00016  -0.06568
 181       14F+2        0.08542   0.05814   0.00000  -0.01012  -0.02333
 182       14F-2        0.00000   0.00000   0.04267   0.00000   0.00000
 183       14F+3        0.00000   0.00000  -0.01156   0.00000   0.00000
 184       14F-3        0.01663  -0.04531   0.00000   0.04604   0.01461
                         181       182       183       184
     Eigenvalues --     0.00000   0.00000   0.00000   0.00000
   1 1   O  1S          0.00000   0.00000   0.10994  -0.05367
   2        2S          0.00000   0.00000   0.54607  -0.26759
   3        3S          0.00000   0.00000  -0.04588   0.02561
   4        4S          0.00000   0.00000  -3.10699   6.75388
   5        5S          0.00000   0.00000 -10.94124  15.76507
   6        6PX         0.01339   0.00000   0.00000   0.00000
   7        6PY         0.00000  -0.00185   0.00000   0.00000
   8        6PZ         0.00000   0.00000   0.01318  -0.00477
   9        7PX        -0.03767   0.00000   0.00000   0.00000
  10        7PY         0.00000   0.00327   0.00000   0.00000
  11        7PZ         0.00000   0.00000  -0.07301  -0.11715
  12        8PX         0.64118   0.00000   0.00000   0.00000
  13        8PY         0.00000  -1.76061   0.00000   0.00000
  14        8PZ         0.00000   0.00000   2.78031  -3.06266
  15        9PX        -1.62837   0.00000   0.00000   0.00000
  16        9PY         0.00000  -4.11087   0.00000   0.00000
  17        9PZ         0.00000   0.00000   2.93816  -3.39803
  18       10D 0        0.00000   0.00000   0.01797  -0.00449
  19       10D+1        0.00991   0.00000   0.00000   0.00000
  20       10D-1        0.00000   0.00104   0.00000   0.00000
  21       10D+2        0.00000   0.00000  -0.00027  -0.00652
  22       10D-2        0.00000   0.00000   0.00000   0.00000
  23       11D 0        0.00000   0.00000  -0.13884   0.08856
  24       11D+1       -0.09695   0.00000   0.00000   0.00000
  25       11D-1        0.00000   0.08391   0.00000   0.00000
  26       11D+2        0.00000   0.00000  -0.00084   0.02732
  27       11D-2        0.00000   0.00000   0.00000   0.00000
  28       12D 0        0.00000   0.00000  -0.78195   0.25921
  29       12D+1       -0.06185   0.00000   0.00000   0.00000
  30       12D-1        0.00000   1.05245   0.00000   0.00000
  31       12D+2        0.00000   0.00000  -0.04138   0.10962
  32       12D-2        0.00000   0.00000   0.00000   0.00000
  33       13F 0        0.00000   0.00000   0.00273  -0.02145
  34       13F+1        0.00288   0.00000   0.00000   0.00000
  35       13F-1        0.00000   0.01553   0.00000   0.00000
  36       13F+2        0.00000   0.00000  -0.00273   0.01982
  37       13F-2        0.00000   0.00000   0.00000   0.00000
  38       13F+3       -0.00198   0.00000   0.00000   0.00000
  39       13F-3        0.00000  -0.00147   0.00000   0.00000
  40       14F 0        0.00000   0.00000   0.10672   0.04131
  41       14F+1        0.04905   0.00000   0.00000   0.00000
  42       14F-1        0.00000  -0.18012   0.00000   0.00000
  43       14F+2        0.00000   0.00000   0.01404  -0.06720
  44       14F-2        0.00000   0.00000   0.00000   0.00000
  45       14F+3        0.02058   0.00000   0.00000   0.00000
  46       14F-3        0.00000   0.01827   0.00000   0.00000
  47 2   C  1S          0.00000   0.00000   0.05808  -0.07559
  48        2S          0.00000   0.00000   0.35841  -0.40126
  49        3S          0.00000   0.00000   0.19023   0.19028
  50        4S          0.00000   0.00000  -4.32025 -18.10171
  51        5S          0.00000   0.00000  -0.33346  -9.89763
  52        6PX        -0.00602   0.00000   0.00000   0.00000
  53        6PY         0.00000   0.02372   0.00000   0.00000
  54        6PZ         0.00000   0.00000  -0.02052   0.00477
  55        7PX        -0.05876   0.00000   0.00000   0.00000
  56        7PY         0.00000  -1.25566   0.00000   0.00000
  57        7PZ         0.00000   0.00000   1.61678  -0.11494
  58        8PX         0.74591   0.00000   0.00000   0.00000
  59        8PY         0.00000  -8.25158   0.00000   0.00000
  60        8PZ         0.00000   0.00000   7.44707  -4.83234
  61        9PX         3.17068   0.00000   0.00000   0.00000
  62        9PY         0.00000   2.27065   0.00000   0.00000
  63        9PZ         0.00000   0.00000   1.93245   0.01920
  64       10D 0        0.00000   0.00000   0.01487   0.03584
  65       10D+1        0.00583   0.00000   0.00000   0.00000
  66       10D-1        0.00000  -0.01199   0.00000   0.00000
  67       10D+2        0.00000   0.00000  -0.00570  -0.02135
  68       10D-2        0.00000   0.00000   0.00000   0.00000
  69       11D 0        0.00000   0.00000   0.43357  -0.95055
  70       11D+1       -0.30247   0.00000   0.00000   0.00000
  71       11D-1        0.00000   2.31549   0.00000   0.00000
  72       11D+2        0.00000   0.00000   0.87029   0.65519
  73       11D-2        0.00000   0.00000   0.00000   0.00000
  74       12D 0        0.00000   0.00000   0.56207  -2.71444
  75       12D+1       -0.28383   0.00000   0.00000   0.00000
  76       12D-1        0.00000   4.51368   0.00000   0.00000
  77       12D+2        0.00000   0.00000   0.96447   0.05731
  78       12D-2        0.00000   0.00000   0.00000   0.00000
  79       13F 0        0.00000   0.00000  -0.04940  -0.02938
  80       13F+1       -0.04906   0.00000   0.00000   0.00000
  81       13F-1        0.00000  -0.00837   0.00000   0.00000
  82       13F+2        0.00000   0.00000  -0.04543  -0.02341
  83       13F-2        0.00000   0.00000   0.00000   0.00000
  84       13F+3        0.04686   0.00000   0.00000   0.00000
  85       13F-3        0.00000   0.06074   0.00000   0.00000
  86       14F 0        0.00000   0.00000  -0.31532  -0.51677
  87       14F+1       -0.10174   0.00000   0.00000   0.00000
  88       14F-1        0.00000  -0.07057   0.00000   0.00000
  89       14F+2        0.00000   0.00000  -0.22671  -0.39047
  90       14F-2        0.00000   0.00000   0.00000   0.00000
  91       14F+3       -0.22544   0.00000   0.00000   0.00000
  92       14F-3        0.00000  -0.06542   0.00000   0.00000
  93 3   F  1S          0.00000   0.09598  -0.02349  -0.01790
  94        2S          0.00000   0.44734  -0.13130  -0.10314
  95        3S          0.00000  -0.05934  -0.01592  -0.01059
  96        4S          0.00000  -3.04183   1.82731   1.80383
  97        5S          0.00000 -16.46661   8.00485   2.85110
  98        6PX         0.01771   0.00000   0.00000   0.00000
  99        6PY         0.00000  -0.01095   0.00973   0.00507
 100        6PZ         0.00000  -0.00647   0.00698   0.00297
 101        7PX        -0.06833   0.00000   0.00000   0.00000
 102        7PY         0.00000   0.05277  -0.04384  -0.02195
 103        7PZ         0.00000   0.02459  -0.02744  -0.01034
 104        8PX         0.01326   0.00000   0.00000   0.00000
 105        8PY         0.00000  -2.51037   1.43699   1.29028
 106        8PZ         0.00000  -1.48209   1.29872   0.93951
 107        9PX        -1.34191   0.00000   0.00000   0.00000
 108        9PY         0.00000  -5.55188   1.45068   0.55088
 109        9PZ         0.00000  -1.97037   1.22437  -1.02115
 110       10D 0        0.00000   0.00189  -0.00446  -0.00004
 111       10D+1       -0.00790   0.00000   0.00000   0.00000
 112       10D-1        0.00000  -0.00517  -0.00364  -0.00539
 113       10D+2        0.00000   0.01876  -0.00430   0.00076
 114       10D-2       -0.00782   0.00000   0.00000   0.00000
 115       11D 0        0.00000  -0.00980   0.02326  -0.00641
 116       11D+1        0.02626   0.00000   0.00000   0.00000
 117       11D-1        0.00000  -0.01513   0.04491   0.03242
 118       11D+2        0.00000  -0.04119  -0.00031  -0.01154
 119       11D-2        0.02930   0.00000   0.00000   0.00000
 120       12D 0        0.00000   0.24649   0.08467   0.00550
 121       12D+1       -0.16946   0.00000   0.00000   0.00000
 122       12D-1        0.00000  -0.68912   0.45465   0.25630
 123       12D+2        0.00000   0.64116  -0.18615  -0.18133
 124       12D-2       -0.12712   0.00000   0.00000   0.00000
 125       13F 0        0.00000  -0.01336   0.00342   0.00526
 126       13F+1        0.00548   0.00000   0.00000   0.00000
 127       13F-1        0.00000  -0.00168  -0.01222  -0.00247
 128       13F+2        0.00000   0.00631   0.00890   0.00180
 129       13F-2        0.01511   0.00000   0.00000   0.00000
 130       13F+3        0.00760   0.00000   0.00000   0.00000
 131       13F-3        0.00000   0.00937  -0.00941  -0.00853
 132       14F 0        0.00000   0.07002  -0.02289  -0.02497
 133       14F+1       -0.01951   0.00000   0.00000   0.00000
 134       14F-1        0.00000  -0.00204   0.06221   0.00593
 135       14F+2        0.00000   0.03458  -0.05533  -0.02013
 136       14F-2       -0.03075   0.00000   0.00000   0.00000
 137       14F+3       -0.01797   0.00000   0.00000   0.00000
 138       14F-3        0.00000   0.01356   0.01479   0.00511
 139 4   F  1S          0.00000  -0.09598  -0.02349  -0.01790
 140        2S          0.00000  -0.44734  -0.13130  -0.10314
 141        3S          0.00000   0.05934  -0.01592  -0.01059
 142        4S          0.00000   3.04183   1.82731   1.80383
 143        5S          0.00000  16.46661   8.00485   2.85110
 144        6PX         0.01771   0.00000   0.00000   0.00000
 145        6PY         0.00000  -0.01095  -0.00973  -0.00507
 146        6PZ         0.00000   0.00647   0.00698   0.00297
 147        7PX        -0.06833   0.00000   0.00000   0.00000
 148        7PY         0.00000   0.05277   0.04384   0.02195
 149        7PZ         0.00000  -0.02459  -0.02744  -0.01034
 150        8PX         0.01326   0.00000   0.00000   0.00000
 151        8PY         0.00000  -2.51037  -1.43699  -1.29028
 152        8PZ         0.00000   1.48209   1.29872   0.93951
 153        9PX        -1.34191   0.00000   0.00000   0.00000
 154        9PY         0.00000  -5.55188  -1.45068  -0.55088
 155        9PZ         0.00000   1.97037   1.22437  -1.02115
 156       10D 0        0.00000  -0.00189  -0.00446  -0.00004
 157       10D+1       -0.00790   0.00000   0.00000   0.00000
 158       10D-1        0.00000  -0.00517   0.00364   0.00539
 159       10D+2        0.00000  -0.01876  -0.00430   0.00076
 160       10D-2        0.00782   0.00000   0.00000   0.00000
 161       11D 0        0.00000   0.00980   0.02326  -0.00641
 162       11D+1        0.02626   0.00000   0.00000   0.00000
 163       11D-1        0.00000  -0.01513  -0.04491  -0.03242
 164       11D+2        0.00000   0.04119  -0.00031  -0.01154
 165       11D-2       -0.02930   0.00000   0.00000   0.00000
 166       12D 0        0.00000  -0.24649   0.08467   0.00550
 167       12D+1       -0.16946   0.00000   0.00000   0.00000
 168       12D-1        0.00000  -0.68912  -0.45465  -0.25630
 169       12D+2        0.00000  -0.64116  -0.18615  -0.18133
 170       12D-2        0.12712   0.00000   0.00000   0.00000
 171       13F 0        0.00000   0.01336   0.00342   0.00526
 172       13F+1        0.00548   0.00000   0.00000   0.00000
 173       13F-1        0.00000  -0.00168   0.01222   0.00247
 174       13F+2        0.00000  -0.00631   0.00890   0.00180
 175       13F-2       -0.01511   0.00000   0.00000   0.00000
 176       13F+3        0.00760   0.00000   0.00000   0.00000
 177       13F-3        0.00000   0.00937   0.00941   0.00853
 178       14F 0        0.00000  -0.07002  -0.02289  -0.02497
 179       14F+1       -0.01951   0.00000   0.00000   0.00000
 180       14F-1        0.00000  -0.00204  -0.06221  -0.00593
 181       14F+2        0.00000  -0.03458  -0.05533  -0.02013
 182       14F-2        0.03075   0.00000   0.00000   0.00000
 183       14F+3       -0.01797   0.00000   0.00000   0.00000
 184       14F-3        0.00000   0.01356  -0.01479  -0.00511
          Condensed to atoms (all electrons):
              1          2          3          4
     1  O    7.951778   0.495901  -0.078135  -0.078135
     2  C    0.495901   4.523147   0.185359   0.185359
     3  F   -0.078135   0.185359   9.100649  -0.048462
     4  F   -0.078135   0.185359  -0.048462   9.100649
 Mulliken atomic charges:
              1
     1  O   -0.291409
     2  C    0.610233
     3  F   -0.159412
     4  F   -0.159412
 Sum of Mulliken atomic charges =   0.00000
 Mulliken charges with hydrogens summed into heavy atoms:
              1
     1  O   -0.291409
     2  C    0.610233
     3  F   -0.159412
     4  F   -0.159412
 Sum of Mulliken charges with hydrogens summed into heavy atoms =   0.00000
 Electronic spatial extent (au):  <R**2>=            239.8278
 Charge=              0.0000 electrons
 Dipole moment (field-independent basis, Debye):
    X=              0.0000    Y=              0.0000    Z=             -1.0801  Tot=              1.0801
 Quadrupole moment (field-independent basis, Debye-Ang):
   XX=            -18.9344   YY=            -21.3163   ZZ=            -21.9150
   XY=              0.0000   XZ=              0.0000   YZ=              0.0000
 Traceless Quadrupole moment (field-independent basis, Debye-Ang):
   XX=              1.7875   YY=             -0.5944   ZZ=             -1.1931
   XY=              0.0000   XZ=              0.0000   YZ=              0.0000
 Octapole moment (field-independent basis, Debye-Ang**2):
  XXX=              0.0000  YYY=              0.0000  ZZZ=             34.0102  XYY=              0.0000
  XXY=              0.0000  XXZ=             10.2724  XZZ=              0.0000  YZZ=              0.0000
  YYZ=             11.8979  XYZ=              0.0000
 Hexadecapole moment (field-independent basis, Debye-Ang**3):
 XXXX=            -13.5397 YYYY=            -79.8884 ZZZZ=           -132.7277 XXXY=              0.0000
 XXXZ=              0.0000 YYYX=              0.0000 YYYZ=              0.0000 ZZZX=              0.0000
 ZZZY=              0.0000 XXYY=            -15.6473 XXZZ=            -23.6438 YYZZ=            -36.1827
 XXYZ=              0.0000 YYXZ=              0.0000 ZZXY=              0.0000
 N-N= 1.196216686346D+02 E-N=-9.812428655872D+02  KE= 3.123341846640D+02
 1\1\GINC-TRAPISTA\SP\RQCISD-FC\Aug-CC-pVTZ\C1F2O1\BRUNS\26-Nov-2021\0\
 \# qcisd/aug-cc-pvtz nosymm density=current output=wfn\\f2co-wavefunct
 ion\\0,1\O,0,0.,0.,0.689927\C,0,0.,0.,-0.492216\F,0,0.,-1.058878,-1.26
 4305\F,0,0.,1.058878,-1.264305\\Version=EM64L-G09RevB.01\HF=-311.74006
 71\MP2=-312.6372037\MP3=-312.6242319\MP4D=-312.640016\MP4DQ=-312.62385
 12\MP4SDQ=-312.635639\QCISD=-312.635121\RMSD=8.660e-09\Dipole=0.,0.,-0
 .4249354\Quadrupole=1.3289627,-0.4419184,-0.8870444,0.,0.,0.\PG=C02V [
 C2(C1O1),SGV(F2)]\\@

 Writing a WFN file to GAUSSIAN.wfn.


            THE IRISH PIG
 'TWAS AN EVENING IN NOVEMBER,
 AS I VERY WELL REMEMBER
 I WAS STROLLING DOWN THE STREET IN DRUNKEN PRIDE,
 BUT MY KNEES WERE ALL A'FLUTTER
 SO I LANDED IN THE GUTTER,
 AND A PIG CAME UP AND LAY DOWN BY MY SIDE.

 YES, I LAY THERE IN THE GUTTER
 THINKING THOUGHTS I COULD NOT UTTER
 WHEN A COLLEEN PASSING BY DID SOFTLY SAY,
 'YE CAN TELL A MAN THAT BOOZES
 BY THE COMPANY THAT HE CHOOSES.' -
 AT THAT, THE PIG GOT UP AND WALKED AWAY!
     -- THE ECONOMIST, AUGUST 23, 1986
 Job cpu time:  0 days  1 hours 51 minutes 41.9 seconds.
 File lengths (MBytes):  RWF=  17462 Int=      0 D2E=      0 Chk=      3 Scr=      1
 Normal termination of Gaussian 09 at Fri Nov 26 18:58:53 2021.
