 Entering Gaussian System, Link 0=/home/bruns/programas/chemistry/gaussian/g09/g09
 Input=GAUSSIAN.com
 Output=GAUSSIAN.log
 Initial command:
 /home/bruns/programas/chemistry/gaussian/g09/l1.exe /home/bruns/programas/chemistry/gaussian/work/Gau-23048.inp -scrdir=/home/bruns/programas/chemistry/gaussian/work/
 Entering Link 1 = /home/bruns/programas/chemistry/gaussian/g09/l1.exe PID=     23050.
  
 Copyright (c) 1988,1990,1992,1993,1995,1998,2003,2009,2010,
            Gaussian, Inc.  All Rights Reserved.
  
 This is part of the Gaussian(R) 09 program.  It is based on
 the Gaussian(R) 03 system (copyright 2003, Gaussian, Inc.),
 the Gaussian(R) 98 system (copyright 1998, Gaussian, Inc.),
 the Gaussian(R) 94 system (copyright 1995, Gaussian, Inc.),
 the Gaussian 92(TM) system (copyright 1992, Gaussian, Inc.),
 the Gaussian 90(TM) system (copyright 1990, Gaussian, Inc.),
 the Gaussian 88(TM) system (copyright 1988, Gaussian, Inc.),
 the Gaussian 86(TM) system (copyright 1986, Carnegie Mellon
 University), and the Gaussian 82(TM) system (copyright 1983,
 Carnegie Mellon University). Gaussian is a federally registered
 trademark of Gaussian, Inc.
  
 This software contains proprietary and confidential information,
 including trade secrets, belonging to Gaussian, Inc.
  
 This software is provided under written license and may be
 used, copied, transmitted, or stored only in accord with that
 written license.
  
 The following legend is applicable only to US Government
 contracts under FAR:
  
                    RESTRICTED RIGHTS LEGEND
  
 Use, reproduction and disclosure by the US Government is
 subject to restrictions as set forth in subparagraphs (a)
 and (c) of the Commercial Computer Software - Restricted
 Rights clause in FAR 52.227-19.
  
 Gaussian, Inc.
 340 Quinnipiac St., Bldg. 40, Wallingford CT 06492
  
  
 ---------------------------------------------------------------
 Warning -- This program may not be used in any manner that
 competes with the business of Gaussian, Inc. or will provide
 assistance to any competitor of Gaussian, Inc.  The licensee
 of this program is prohibited from giving any competitor of
 Gaussian, Inc. access to this program.  By using this program,
 the user acknowledges that Gaussian, Inc. is engaged in the
 business of creating and licensing software in the field of
 computational chemistry and represents and warrants to the
 licensee that it is not a competitor of Gaussian, Inc. and that
 it will not use this program in any manner prohibited above.
 ---------------------------------------------------------------
  

 Cite this work as:
 Gaussian 09, Revision B.01,
 M. J. Frisch, G. W. Trucks, H. B. Schlegel, G. E. Scuseria, 
 M. A. Robb, J. R. Cheeseman, G. Scalmani, V. Barone, B. Mennucci, 
 G. A. Petersson, H. Nakatsuji, M. Caricato, X. Li, H. P. Hratchian, 
 A. F. Izmaylov, J. Bloino, G. Zheng, J. L. Sonnenberg, M. Hada, 
 M. Ehara, K. Toyota, R. Fukuda, J. Hasegawa, M. Ishida, T. Nakajima, 
 Y. Honda, O. Kitao, H. Nakai, T. Vreven, J. A. Montgomery, Jr., 
 J. E. Peralta, F. Ogliaro, M. Bearpark, J. J. Heyd, E. Brothers, 
 K. N. Kudin, V. N. Staroverov, T. Keith, R. Kobayashi, J. Normand, 
 K. Raghavachari, A. Rendell, J. C. Burant, S. S. Iyengar, J. Tomasi, 
 M. Cossi, N. Rega, J. M. Millam, M. Klene, J. E. Knox, J. B. Cross, 
 V. Bakken, C. Adamo, J. Jaramillo, R. Gomperts, R. E. Stratmann, 
 O. Yazyev, A. J. Austin, R. Cammi, C. Pomelli, J. W. Ochterski, 
 R. L. Martin, K. Morokuma, V. G. Zakrzewski, G. A. Voth, 
 P. Salvador, J. J. Dannenberg, S. Dapprich, A. D. Daniels, 
 O. Farkas, J. B. Foresman, J. V. Ortiz, J. Cioslowski, 
 and D. J. Fox, Gaussian, Inc., Wallingford CT, 2010.
 
 ******************************************
 Gaussian 09:  EM64L-G09RevB.01 12-Aug-2010
                26-Nov-2021 
 ******************************************
 %nproc=8
 Will use up to    8 processors via shared memory.
 %mem=8GB
 -----------------------------------------------------
 # qcisd/aug-cc-pvtz nosymm density=current output=wfn
 -----------------------------------------------------
 1/30=1,38=1/1;
 2/12=2,15=1,17=6,18=5,40=1/2;
 3/5=16,6=1,7=10,11=9,16=1,25=1,30=1,71=1/1,2,3;
 4//1;
 5/5=2,38=5/2;
 8/6=4,9=120000,10=1/1,4;
 9/5=8,15=1/13;
 11/28=-7,31=1,32=3,42=3/11;
 10/5=6,13=10,31=1/2;
 6/7=2,8=2,9=2,10=2,22=-1,31=1/1;
 99/5=1,6=1100,9=1/99;
 -----------------
 f2co-wavefunction
 -----------------
 Symbolic Z-matrix:
 Charge =  0 Multiplicity = 1
 O                     0.        0.        0.67993 
 C                     0.        0.       -0.49222 
 F                     0.       -1.04888  -1.26431 
 F                     0.        1.05888  -1.26431 
 
                          Input orientation:                          
 ---------------------------------------------------------------------
 Center     Atomic      Atomic             Coordinates (Angstroms)
 Number     Number       Type             X           Y           Z
 ---------------------------------------------------------------------
      1          8           0        0.000000    0.000000    0.679927
      2          6           0        0.000000    0.000000   -0.492216
      3          9           0        0.000000   -1.048878   -1.264305
      4          9           0        0.000000    1.058878   -1.264305
 ---------------------------------------------------------------------
                    Distance matrix (angstroms):
                    1          2          3          4
     1  O    0.000000
     2  C    1.172143   0.000000
     3  F    2.209114   1.302408   0.000000
     4  F    2.213879   1.310475   2.107756   0.000000
 Symmetry turned off by external request.
 Stoichiometry    CF2O
 Framework group  CS[SG(CF2O)]
 Deg. of freedom     5
 Full point group                 CS      NOp   2
 Rotational constants (GHZ):     11.9804230     11.7678844      5.9366013
 Standard basis: Aug-CC-pVTZ (5D, 7F)
 Integral buffers will be    131072 words long.
 Raffenetti 1 integral format.
 Two-electron integral symmetry is turned off.
   184 basis functions,   288 primitive gaussians,   220 cartesian basis functions
    16 alpha electrons       16 beta electrons
       nuclear repulsion energy       120.2092667484 Hartrees.
 NAtoms=    4 NActive=    4 NUniq=    4 SFac= 1.00D+00 NAtFMM=   50 NAOKFM=F Big=F
 One-electron integrals computed using PRISM.
 NBasis=   184 RedAO= T  NBF=   184
 NBsUse=   184 1.00D-06 NBFU=   184
 Harris functional with IExCor=  205 diagonalized for initial guess.
 ExpMin= 3.57D-02 ExpMax= 1.95D+04 ExpMxC= 6.65D+02 IAcc=3 IRadAn=         0 AccDes= 0.00D+00
 HarFok:  IExCor=  205 AccDes= 0.00D+00 IRadAn=         0 IDoV= 1
 ScaDFX=  1.000000  1.000000  1.000000  1.000000
 FoFCou: FMM=F IPFlag=           0 FMFlag=      100000 FMFlg1=           0
         NFxFlg=           0 DoJE=T BraDBF=F KetDBF=T FulRan=T
         Omega=  0.000000  0.000000  1.000000  0.000000  0.000000 ICntrl=     500 IOpCl=  0
         NMat0=    1 NMatS0=    1 NMatT0=    0 NMatD0=    1 NMtDS0=    0 NMtDT0=    0
         I1Cent=           4 NGrid=           0.
 Symmetry not used in FoFCou.
 Requested convergence on RMS density matrix=1.00D-08 within 128 cycles.
 Requested convergence on MAX density matrix=1.00D-06.
 Requested convergence on             energy=1.00D-06.
 No special actions if energy rises.
 Keep R1 ints in memory in canonical form, NReq=301063473.
 SCF Done:  E(RHF) =  -311.741664432     A.U. after   12 cycles
             Convg  =    0.3425D-08             -V/T =  2.0013
 ExpMin= 3.57D-02 ExpMax= 1.95D+04 ExpMxC= 6.65D+02 IAcc=3 IRadAn=         5 AccDes= 0.00D+00
 HarFok:  IExCor=  205 AccDes= 0.00D+00 IRadAn=         5 IDoV=-2
 ScaDFX=  1.000000  1.000000  1.000000  1.000000
 DSYEVD returned Info=          93 IAlg= 4 N=    46 NDim=    46 NE2=    23339802 trying DSYEV.
 DSYEVD returned Info=          93 IAlg= 4 N=    46 NDim=    46 NE2=    23339802 trying DSYEV.
 Range of M.O.s used for correlation:     5   184
 NBasis=   184 NAE=    16 NBE=    16 NFC=     4 NFV=     0
 NROrb=    180 NOA=    12 NOB=    12 NVA=   168 NVB=   168

 **** Warning!!: The largest alpha MO coefficient is  0.15648123D+02

 Semi-Direct transformation.
 ModeAB=           2 MOrb=            12 LenV=    1072785513
 LASXX=     33405819 LTotXX=    33405819 LenRXX=    33405819
 LTotAB=    33954012 MaxLAS=    52509600 LenRXY=    52509600
 NonZer=    66811638 LenScr=   100987392 LnRSAI=           0
 LnScr1=           0 LExtra=           0 Total=    186902811
 MaxDsk=          -1 SrtSym=           F ITran=            4
 JobTyp=0 Pass  1:  I=   1 to  12.
 (rs|ai) integrals will be sorted in core.
 Spin components of T(2) and E(2):
     alpha-alpha T2 =       0.2651244042D-01 E2=     -0.1190489559D+00
     alpha-beta  T2 =       0.1367644505D+00 E2=     -0.6572355776D+00
     beta-beta   T2 =       0.2651244042D-01 E2=     -0.1190489559D+00
 ANorm=    0.1090774647D+01
 E2 =    -0.8953334893D+00 EUMP2 =    -0.31263699792115D+03
 R2 and R3 integrals will be kept in memory, NReq=   596397230.
 Iterations=  50 Convergence= 0.100D-07
 Iteration Nr.   1
 **********************
 DD1Dir will call FoFMem   1 times, MxPair=       156
 NAB=    78 NAA=     0 NBB=     0.
 MP4(R+Q)=  0.16008539D-01
 E3=        0.12319331D-01        EUMP3=      -0.31262467859D+03
 E4(DQ)=    0.49046737D-03        UMP4(DQ)=   -0.31262418812D+03
 E4(SDQ)=  -0.11038510D-01        UMP4(SDQ)=  -0.31263571710D+03
 DE(Corr)= -0.86700562     E(Corr)=     -312.60867005    
 NORM(A)=   0.10856892D+01
 Iteration Nr.   2
 **********************
 DD1Dir will call FoFMem   1 times, MxPair=       156
 NAB=    78 NAA=     0 NBB=     0.
 DE(Corr)= -0.89272689     E(CORR)=     -312.63439132     Delta=-2.57D-02
 NORM(A)=   0.10929449D+01
 Iteration Nr.   3
 **********************
 DD1Dir will call FoFMem   1 times, MxPair=       156
 NAB=    78 NAA=     0 NBB=     0.
 DE(Corr)= -0.89099542     E(CORR)=     -312.63265985     Delta= 1.73D-03
 NORM(A)=   0.10951539D+01
 Iteration Nr.   4
 **********************
 DD1Dir will call FoFMem   1 times, MxPair=       156
 NAB=    78 NAA=     0 NBB=     0.
 DE(Corr)= -0.89327845     E(CORR)=     -312.63494288     Delta=-2.28D-03
 NORM(A)=   0.10959512D+01
 Iteration Nr.   5
 **********************
 DD1Dir will call FoFMem   1 times, MxPair=       156
 NAB=    78 NAA=     0 NBB=     0.
 DE(Corr)= -0.89354103     E(CORR)=     -312.63520547     Delta=-2.63D-04
 NORM(A)=   0.10961309D+01
 Iteration Nr.   6
 **********************
 DD1Dir will call FoFMem   1 times, MxPair=       156
 NAB=    78 NAA=     0 NBB=     0.
 DE(Corr)= -0.89356704     E(CORR)=     -312.63523147     Delta=-2.60D-05
 NORM(A)=   0.10961437D+01
 Iteration Nr.   7
 **********************
 DD1Dir will call FoFMem   1 times, MxPair=       156
 NAB=    78 NAA=     0 NBB=     0.
 DE(Corr)= -0.89356860     E(CORR)=     -312.63523303     Delta=-1.56D-06
 NORM(A)=   0.10961436D+01
 Iteration Nr.   8
 **********************
 DD1Dir will call FoFMem   1 times, MxPair=       156
 NAB=    78 NAA=     0 NBB=     0.
 DE(Corr)= -0.89356758     E(CORR)=     -312.63523201     Delta= 1.02D-06
 NORM(A)=   0.10961441D+01
 Iteration Nr.   9
 **********************
 DD1Dir will call FoFMem   1 times, MxPair=       156
 NAB=    78 NAA=     0 NBB=     0.
 DE(Corr)= -0.89356798     E(CORR)=     -312.63523242     Delta=-4.02D-07
 NORM(A)=   0.10961441D+01
 Iteration Nr.  10
 **********************
 DD1Dir will call FoFMem   1 times, MxPair=       156
 NAB=    78 NAA=     0 NBB=     0.
 DE(Corr)= -0.89356789     E(CORR)=     -312.63523232     Delta= 9.72D-08
 NORM(A)=   0.10961443D+01
 Iteration Nr.  11
 **********************
 DD1Dir will call FoFMem   1 times, MxPair=       156
 NAB=    78 NAA=     0 NBB=     0.
 DE(Corr)= -0.89356833     E(CORR)=     -312.63523277     Delta=-4.47D-07
 NORM(A)=   0.10961446D+01
 Iteration Nr.  12
 **********************
 DD1Dir will call FoFMem   1 times, MxPair=       156
 NAB=    78 NAA=     0 NBB=     0.
 DE(Corr)= -0.89356836     E(CORR)=     -312.63523279     Delta=-2.88D-08
 NORM(A)=   0.10961447D+01
 Iteration Nr.  13
 **********************
 DD1Dir will call FoFMem   1 times, MxPair=       156
 NAB=    78 NAA=     0 NBB=     0.
 DE(Corr)= -0.89356845     E(CORR)=     -312.63523288     Delta=-8.89D-08
 NORM(A)=   0.10961448D+01
 Iteration Nr.  14
 **********************
 DD1Dir will call FoFMem   1 times, MxPair=       156
 NAB=    78 NAA=     0 NBB=     0.
 DE(Corr)= -0.89356847     E(CORR)=     -312.63523290     Delta=-1.49D-08
 NORM(A)=   0.10961448D+01
 Iteration Nr.  15
 **********************
 DD1Dir will call FoFMem   1 times, MxPair=       156
 NAB=    78 NAA=     0 NBB=     0.
 DE(Corr)= -0.89356847     E(CORR)=     -312.63523291     Delta=-7.52D-09
 NORM(A)=   0.10961448D+01
 Iteration Nr.  16
 **********************
 DD1Dir will call FoFMem   1 times, MxPair=       156
 NAB=    78 NAA=     0 NBB=     0.
 DE(Corr)= -0.89356848     E(CORR)=     -312.63523291     Delta=-3.74D-09
 NORM(A)=   0.10961448D+01
 Largest amplitude= 5.69D-02

 Z-AMPLITUDE ITERATIONS

 Iteration Nr.   1
 **********************
 DD1Dir will call FoFMem   1 times, MxPair=       156
 NAB=    78 NAA=     0 NBB=     0.
 DE(Z)  -0.87433967D+00          E(Z)=    -0.31261600410D+03
 NORM(A)=   0.10961318D+01
 Iteration Nr.   2
 **********************
 DD1Dir will call FoFMem   1 times, MxPair=       156
 NAB=    78 NAA=     0 NBB=     0.
 DE(Z)  -0.87433962D+00          E(Z)=    -0.31261600405D+03
 NORM(A)=   0.10961685D+01
 Iteration Nr.   3
 **********************
 DD1Dir will call FoFMem   1 times, MxPair=       156
 NAB=    78 NAA=     0 NBB=     0.
 DE(Z)  -0.87433995D+00          E(Z)=    -0.31261600439D+03
 NORM(A)=   0.10961180D+01
 Iteration Nr.   4
 **********************
 DD1Dir will call FoFMem   1 times, MxPair=       156
 NAB=    78 NAA=     0 NBB=     0.
 DE(Z)  -0.87433943D+00          E(Z)=    -0.31261600387D+03
 NORM(A)=   0.10962011D+01
 Iteration Nr.   5
 **********************
 DD1Dir will call FoFMem   1 times, MxPair=       156
 NAB=    78 NAA=     0 NBB=     0.
 DE(Z)  -0.87434046D+00          E(Z)=    -0.31261600489D+03
 NORM(A)=   0.10917315D+01
 Iteration Nr.   6
 **********************
 DD1Dir will call FoFMem   1 times, MxPair=       156
 NAB=    78 NAA=     0 NBB=     0.
 DE(Z)  -0.87428197D+00          E(Z)=    -0.31261594641D+03
 NORM(A)=   0.10917314D+01
 Iteration Nr.   7
 **********************
 DD1Dir will call FoFMem   1 times, MxPair=       156
 NAB=    78 NAA=     0 NBB=     0.
 DE(Z)  -0.87428036D+00          E(Z)=    -0.31261594480D+03
 NORM(A)=   0.10917313D+01
 Iteration Nr.   8
 **********************
 DD1Dir will call FoFMem   1 times, MxPair=       156
 NAB=    78 NAA=     0 NBB=     0.
 DE(Z)  -0.87428103D+00          E(Z)=    -0.31261594546D+03
 NORM(A)=   0.10917316D+01
 Iteration Nr.   9
 **********************
 DD1Dir will call FoFMem   1 times, MxPair=       156
 NAB=    78 NAA=     0 NBB=     0.
 DE(Z)  -0.87428073D+00          E(Z)=    -0.31261594516D+03
 NORM(A)=   0.10917316D+01
 Iteration Nr.  10
 **********************
 DD1Dir will call FoFMem   1 times, MxPair=       156
 NAB=    78 NAA=     0 NBB=     0.
 DE(Z)  -0.87428083D+00          E(Z)=    -0.31261594526D+03
 NORM(A)=   0.10917317D+01
 Iteration Nr.  11
 **********************
 DD1Dir will call FoFMem   1 times, MxPair=       156
 NAB=    78 NAA=     0 NBB=     0.
 DE(Z)  -0.87428082D+00          E(Z)=    -0.31261594525D+03
 NORM(A)=   0.10917317D+01
 Iteration Nr.  12
 **********************
 DD1Dir will call FoFMem   1 times, MxPair=       156
 NAB=    78 NAA=     0 NBB=     0.
 DE(Z)  -0.87428082D+00          E(Z)=    -0.31261594525D+03
 NORM(A)=   0.10917317D+01
 Iteration Nr.  13
 **********************
 DD1Dir will call FoFMem   1 times, MxPair=       156
 NAB=    78 NAA=     0 NBB=     0.
 DE(Z)  -0.87428082D+00          E(Z)=    -0.31261594525D+03
 NORM(A)=   0.10917317D+01
 Discarding MO integrals.
          Differentiating once with respect to electric field.
                with respect to dipole field.
          Electric field/nuclear overlap derivatives assumed to be zero.
          Keep R1 ints in memory in canonical form, NReq=297441306.
          There are     1 degrees of freedom in the 1st order CPHF.  IDoFFX=0.
 LinEq1:  Iter=  0 NonCon=     1 RMS=3.06D-03 Max=8.38D-02
 AX will form     1 AO Fock derivatives at one time.
 LinEq1:  Iter=  1 NonCon=     1 RMS=7.49D-04 Max=1.08D-02
 LinEq1:  Iter=  2 NonCon=     1 RMS=2.22D-04 Max=3.33D-03
 LinEq1:  Iter=  3 NonCon=     1 RMS=9.74D-05 Max=1.55D-03
 LinEq1:  Iter=  4 NonCon=     1 RMS=2.25D-05 Max=3.66D-04
 LinEq1:  Iter=  5 NonCon=     1 RMS=1.07D-05 Max=2.84D-04
 LinEq1:  Iter=  6 NonCon=     1 RMS=2.50D-06 Max=4.43D-05
 LinEq1:  Iter=  7 NonCon=     1 RMS=5.09D-07 Max=1.01D-05
 LinEq1:  Iter=  8 NonCon=     1 RMS=9.49D-08 Max=1.22D-06
 LinEq1:  Iter=  9 NonCon=     1 RMS=2.30D-08 Max=3.22D-07
 LinEq1:  Iter= 10 NonCon=     1 RMS=9.63D-09 Max=1.08D-07
 LinEq1:  Iter= 11 NonCon=     1 RMS=1.37D-09 Max=1.81D-08
 LinEq1:  Iter= 12 NonCon=     1 RMS=2.71D-10 Max=3.40D-09
 LinEq1:  Iter= 13 NonCon=     0 RMS=4.39D-11 Max=4.06D-10
 Linear equations converged to 1.000D-10 1.000D-09 after    13 iterations.
 End of Minotr Frequency-dependent properties file   721 does not exist.
 End of Minotr Frequency-dependent properties file   722 does not exist.

 **********************************************************************

            Population analysis using the QCI/CC density.

 **********************************************************************

     Natural Orbital Coefficients:
                           1         2         3         4         5
     Eigenvalues --     2.00001   2.00000   2.00000   2.00000   1.98621
   1 1   O  1S         -0.62975  -0.72339   0.00395   0.19834  -0.01936
   2        2S          0.01162   0.01271  -0.00008  -0.00379   0.04656
   3        3S         -0.02669  -0.03108   0.00017   0.00861   0.01300
   4        4S          0.00201   0.00275  -0.00004  -0.00171  -0.00042
   5        5S         -0.00049   0.00091  -0.00005  -0.00174  -0.01913
   6        6PX         0.00000   0.00000   0.00000   0.00000   0.00000
   7        6PY         0.00000   0.00000   0.00018  -0.00001  -0.00049
   8        6PZ         0.00403   0.00179   0.00000   0.00011  -0.01416
   9        7PX         0.00000   0.00000   0.00000   0.00000   0.00000
  10        7PY         0.00000   0.00000   0.00012   0.00000  -0.00059
  11        7PZ         0.00268  -0.00197   0.00003   0.00166  -0.01375
  12        8PX         0.00000   0.00000   0.00000   0.00000   0.00000
  13        8PY         0.00000   0.00000  -0.00044   0.00001  -0.00032
  14        8PZ         0.00319  -0.00075   0.00001   0.00058   0.00985
  15        9PX         0.00000   0.00000   0.00000   0.00000   0.00000
  16        9PY         0.00000  -0.00001  -0.00034   0.00000   0.00012
  17        9PZ         0.00035   0.00004   0.00001   0.00045   0.00547
  18       10D 0       -0.00026  -0.00011   0.00000  -0.00002   0.00115
  19       10D+1        0.00000   0.00000   0.00000   0.00000   0.00000
  20       10D-1        0.00000   0.00000  -0.00001   0.00000   0.00002
  21       10D+2        0.00005   0.00005   0.00000   0.00001   0.00002
  22       10D-2        0.00000   0.00000   0.00000   0.00000   0.00000
  23       11D 0       -0.00004   0.00092  -0.00001  -0.00046  -0.00026
  24       11D+1        0.00000   0.00000   0.00000   0.00000   0.00000
  25       11D-1        0.00000   0.00000   0.00005   0.00000   0.00005
  26       11D+2        0.00006   0.00001   0.00000  -0.00017  -0.00081
  27       11D-2        0.00000   0.00000   0.00000   0.00000   0.00000
  28       12D 0       -0.00043   0.00024   0.00000  -0.00009  -0.00571
  29       12D+1        0.00000   0.00000   0.00000   0.00000   0.00000
  30       12D-1        0.00000   0.00000   0.00013   0.00000   0.00003
  31       12D+2        0.00027  -0.00027   0.00000  -0.00018  -0.00212
  32       12D-2        0.00000   0.00000   0.00000   0.00000   0.00000
  33       13F 0       -0.00017   0.00007   0.00000  -0.00009  -0.00049
  34       13F+1        0.00000   0.00000   0.00000   0.00000   0.00000
  35       13F-1        0.00000   0.00000   0.00002   0.00000  -0.00002
  36       13F+2        0.00003   0.00002   0.00000   0.00002   0.00017
  37       13F-2        0.00000   0.00000   0.00000   0.00000   0.00000
  38       13F+3        0.00000   0.00000   0.00000   0.00000   0.00000
  39       13F-3        0.00000   0.00000  -0.00002   0.00000   0.00000
  40       14F 0        0.00005  -0.00022   0.00000   0.00025   0.00166
  41       14F+1        0.00000   0.00000   0.00000   0.00000   0.00000
  42       14F-1        0.00000   0.00000  -0.00008   0.00000  -0.00002
  43       14F+2        0.00000   0.00002   0.00000   0.00017   0.00091
  44       14F-2        0.00000   0.00000   0.00000   0.00000   0.00000
  45       14F+3        0.00000   0.00000   0.00000   0.00000   0.00000
  46       14F-3        0.00000   0.00000   0.00007   0.00000   0.00000
  47 2   C  1S          0.71739  -0.50310   0.00683   0.44098  -0.05202
  48        2S         -0.00910   0.00497  -0.00008  -0.00391   0.10950
  49        3S          0.02931  -0.02121   0.00028   0.01783   0.02381
  50        4S         -0.00027   0.00066  -0.00004   0.00016   0.01502
  51        5S          0.00023  -0.00010   0.00001   0.00036   0.00334
  52        6PX         0.00000   0.00000   0.00000   0.00000   0.00000
  53        6PY         0.00000   0.00000   0.00003  -0.00001  -0.00149
  54        6PZ        -0.00186   0.00115  -0.00002  -0.00107  -0.01638
  55        7PX         0.00000   0.00000   0.00000   0.00000   0.00000
  56        7PY        -0.00002  -0.00001   0.00094  -0.00008  -0.00110
  57        7PZ         0.00113  -0.00473   0.00006   0.00142  -0.01193
  58        8PX         0.00000   0.00000   0.00000   0.00000   0.00000
  59        8PY         0.00001  -0.00002  -0.00049  -0.00003   0.00072
  60        8PZ         0.00082  -0.00027   0.00007   0.00199   0.01494
  61        9PX         0.00000   0.00000   0.00000   0.00000   0.00000
  62        9PY         0.00000   0.00000   0.00028   0.00000  -0.00007
  63        9PZ         0.00004  -0.00038   0.00000  -0.00006  -0.00011
  64       10D 0        0.00029  -0.00051   0.00001   0.00038   0.00522
  65       10D+1        0.00000   0.00000   0.00000   0.00000   0.00000
  66       10D-1        0.00001   0.00000  -0.00019   0.00002   0.00041
  67       10D+2       -0.00041   0.00020   0.00000  -0.00043  -0.00856
  68       10D-2        0.00000   0.00000   0.00000   0.00000   0.00000
  69       11D 0       -0.00042  -0.00102   0.00000   0.00058   0.00675
  70       11D+1        0.00000   0.00000   0.00000   0.00000   0.00000
  71       11D-1        0.00000   0.00002  -0.00102   0.00004   0.00044
  72       11D+2        0.00088  -0.00128   0.00001   0.00016  -0.00976
  73       11D-2        0.00000   0.00000   0.00000   0.00000   0.00000
  74       12D 0        0.00009   0.00060   0.00001   0.00030   0.00019
  75       12D+1        0.00000   0.00000   0.00000   0.00000   0.00000
  76       12D-1       -0.00001   0.00001   0.00054  -0.00001  -0.00042
  77       12D+2        0.00005   0.00021   0.00001   0.00032   0.00344
  78       12D-2        0.00000   0.00000   0.00000   0.00000   0.00000
  79       13F 0        0.00072  -0.00033   0.00001   0.00061   0.00432
  80       13F+1        0.00000   0.00000   0.00000   0.00000   0.00000
  81       13F-1        0.00000   0.00000   0.00023  -0.00001  -0.00009
  82       13F+2        0.00034   0.00009   0.00001   0.00060   0.00559
  83       13F-2        0.00000   0.00000   0.00000   0.00000   0.00000
  84       13F+3        0.00000   0.00000   0.00000   0.00000   0.00000
  85       13F-3        0.00000   0.00000  -0.00022   0.00001   0.00005
  86       14F 0       -0.00115   0.00044   0.00001   0.00055   0.00346
  87       14F+1        0.00000   0.00000   0.00000   0.00000   0.00000
  88       14F-1        0.00000   0.00000   0.00088  -0.00002  -0.00029
  89       14F+2       -0.00098   0.00085   0.00000   0.00027   0.00486
  90       14F-2        0.00000   0.00000   0.00000   0.00000   0.00000
  91       14F+3        0.00000   0.00000   0.00000   0.00000   0.00000
  92       14F-3        0.00000   0.00000   0.00005   0.00000  -0.00006
  93 3   F  1S         -0.15897   0.30304  -0.68138   0.61364  -0.15039
  94        2S          0.00338  -0.00547   0.01094  -0.00922   0.38342
  95        3S         -0.00646   0.01284  -0.02939   0.02672   0.11686
  96        4S          0.00267  -0.00295   0.00065   0.00084   0.23806
  97        5S          0.00023  -0.00026  -0.00063   0.00064   0.01518
  98        6PX         0.00000   0.00000   0.00000   0.00000   0.00000
  99        6PY        -0.00111   0.00131  -0.00144   0.00096  -0.00619
 100        6PZ        -0.00091   0.00081  -0.00112   0.00061  -0.01991
 101        7PX         0.00000   0.00000   0.00000   0.00000   0.00000
 102        7PY        -0.00102   0.00063   0.00015  -0.00045  -0.00338
 103        7PZ        -0.00094   0.00023  -0.00013  -0.00052  -0.02184
 104        8PX         0.00000   0.00000   0.00000   0.00000   0.00000
 105        8PY        -0.00060   0.00032  -0.00081   0.00108  -0.01289
 106        8PZ        -0.00035  -0.00006  -0.00143   0.00059  -0.02342
 107        9PX         0.00000   0.00000   0.00000   0.00000   0.00000
 108        9PY        -0.00007  -0.00004  -0.00037   0.00008  -0.00080
 109        9PZ        -0.00004   0.00039  -0.00006   0.00024  -0.00091
 110       10D 0        0.00000  -0.00001   0.00000   0.00000  -0.00011
 111       10D+1        0.00000   0.00000   0.00000   0.00000   0.00000
 112       10D-1        0.00003  -0.00002  -0.00001   0.00004   0.00070
 113       10D+2        0.00001  -0.00001   0.00002  -0.00002  -0.00067
 114       10D-2        0.00000   0.00000   0.00000   0.00000   0.00000
 115       11D 0       -0.00007   0.00004  -0.00007  -0.00006  -0.00089
 116       11D+1        0.00000   0.00000   0.00000   0.00000   0.00000
 117       11D-1       -0.00038   0.00003   0.00024  -0.00048   0.00371
 118       11D+2        0.00010   0.00003  -0.00018   0.00021  -0.00343
 119       11D-2        0.00000   0.00000   0.00000   0.00000   0.00000
 120       12D 0       -0.00011   0.00001  -0.00024   0.00006   0.00005
 121       12D+1        0.00000   0.00000   0.00000   0.00000   0.00000
 122       12D-1       -0.00004   0.00001  -0.00039   0.00018  -0.00278
 123       12D+2        0.00021  -0.00011   0.00022  -0.00023   0.00141
 124       12D-2        0.00000   0.00000   0.00000   0.00000   0.00000
 125       13F 0        0.00000  -0.00002   0.00000  -0.00001  -0.00035
 126       13F+1        0.00000   0.00000   0.00000   0.00000   0.00000
 127       13F-1       -0.00001  -0.00003   0.00000  -0.00002   0.00011
 128       13F+2        0.00001   0.00003  -0.00002   0.00003  -0.00049
 129       13F-2        0.00000   0.00000   0.00000   0.00000   0.00000
 130       13F+3        0.00000   0.00000   0.00000   0.00000   0.00000
 131       13F-3        0.00001   0.00000  -0.00006   0.00001  -0.00041
 132       14F 0        0.00015  -0.00001  -0.00003   0.00014  -0.00033
 133       14F+1        0.00000   0.00000   0.00000   0.00000   0.00000
 134       14F-1       -0.00020   0.00018  -0.00003  -0.00012   0.00003
 135       14F+2        0.00026  -0.00022   0.00000   0.00014  -0.00104
 136       14F-2        0.00000   0.00000   0.00000   0.00000   0.00000
 137       14F+3        0.00000   0.00000   0.00000   0.00000   0.00000
 138       14F-3        0.00004  -0.00004   0.00012   0.00004  -0.00055
 139 4   F  1S         -0.15758   0.30284   0.70262   0.58972  -0.14157
 140        2S          0.00335  -0.00546  -0.01127  -0.00885   0.36104
 141        3S         -0.00640   0.01283   0.03029   0.02567   0.11006
 142        4S          0.00268  -0.00291  -0.00057   0.00093   0.22396
 143        5S          0.00023  -0.00023   0.00069   0.00068   0.01313
 144        6PX         0.00000   0.00000   0.00000   0.00000   0.00000
 145        6PY         0.00110  -0.00129  -0.00146  -0.00090   0.00439
 146        6PZ        -0.00089   0.00079   0.00112   0.00056  -0.01927
 147        7PX         0.00000   0.00000   0.00000   0.00000   0.00000
 148        7PY         0.00100  -0.00062   0.00016   0.00042   0.00149
 149        7PZ        -0.00091   0.00021   0.00011  -0.00051  -0.02129
 150        8PX         0.00000   0.00000   0.00000   0.00000   0.00000
 151        8PY         0.00054  -0.00029  -0.00088  -0.00111   0.01078
 152        8PZ        -0.00032  -0.00007   0.00145   0.00057  -0.02302
 153        9PX         0.00000   0.00000   0.00000   0.00000   0.00000
 154        9PY         0.00007   0.00003  -0.00038  -0.00009   0.00096
 155        9PZ        -0.00004   0.00039   0.00008   0.00024  -0.00093
 156       10D 0        0.00000  -0.00001   0.00000   0.00000  -0.00012
 157       10D+1        0.00000   0.00000   0.00000   0.00000   0.00000
 158       10D-1       -0.00003   0.00002  -0.00001  -0.00004  -0.00065
 159       10D+2        0.00001  -0.00001  -0.00001  -0.00002  -0.00065
 160       10D-2        0.00000   0.00000   0.00000   0.00000   0.00000
 161       11D 0       -0.00007   0.00004   0.00007  -0.00006  -0.00096
 162       11D+1        0.00000   0.00000   0.00000   0.00000   0.00000
 163       11D-1        0.00036  -0.00003   0.00025   0.00045  -0.00336
 164       11D+2        0.00010   0.00003   0.00019   0.00020  -0.00325
 165       11D-2        0.00000   0.00000   0.00000   0.00000   0.00000
 166       12D 0       -0.00011   0.00001   0.00023   0.00004  -0.00013
 167       12D+1        0.00000   0.00000   0.00000   0.00000   0.00000
 168       12D-1        0.00002   0.00001  -0.00040  -0.00018   0.00277
 169       12D+2        0.00019  -0.00009  -0.00023  -0.00024   0.00124
 170       12D-2        0.00000   0.00000   0.00000   0.00000   0.00000
 171       13F 0        0.00000  -0.00002   0.00000  -0.00001  -0.00034
 172       13F+1        0.00000   0.00000   0.00000   0.00000   0.00000
 173       13F-1        0.00001   0.00003   0.00000   0.00002  -0.00008
 174       13F+2        0.00001   0.00003   0.00002   0.00003  -0.00045
 175       13F-2        0.00000   0.00000   0.00000   0.00000   0.00000
 176       13F+3        0.00000   0.00000   0.00000   0.00000   0.00000
 177       13F-3       -0.00001   0.00000  -0.00006  -0.00001   0.00040
 178       14F 0        0.00014  -0.00001   0.00003   0.00014  -0.00031
 179       14F+1        0.00000   0.00000   0.00000   0.00000   0.00000
 180       14F-1        0.00020  -0.00018  -0.00003   0.00012   0.00005
 181       14F+2        0.00026  -0.00022   0.00000   0.00014  -0.00097
 182       14F-2        0.00000   0.00000   0.00000   0.00000   0.00000
 183       14F+3        0.00000   0.00000   0.00000   0.00000   0.00000
 184       14F-3       -0.00005   0.00003   0.00012  -0.00004   0.00051
                           6         7         8         9        10
     Eigenvalues --     1.98561   1.98141   1.97352   1.97138   1.96835
   1 1   O  1S         -0.00055  -0.19108  -0.03798   0.00017   0.00000
   2        2S          0.00133   0.49147   0.10512  -0.00056   0.00000
   3        3S          0.00037   0.13793   0.03118  -0.00018   0.00000
   4        4S          0.00034   0.30616   0.08958  -0.00097   0.00000
   5        5S         -0.00038   0.03430  -0.00646  -0.00070   0.00000
   6        6PX         0.00000   0.00000   0.00000   0.00000  -0.00645
   7        6PY         0.02081  -0.00003   0.00005  -0.05123   0.00000
   8        6PZ        -0.00039   0.00041   0.02481  -0.00057   0.00000
   9        7PX         0.00000   0.00000   0.00000   0.00000  -0.00876
  10        7PY         0.02598  -0.00003   0.00017  -0.06951   0.00000
  11        7PZ        -0.00045  -0.00520   0.02526  -0.00067   0.00000
  12        8PX         0.00000   0.00000   0.00000   0.00000  -0.01773
  13        8PY         0.01652  -0.00016   0.00057  -0.06868   0.00000
  14        8PZ        -0.00005   0.04780   0.00500  -0.00050   0.00000
  15        9PX         0.00000   0.00000   0.00000   0.00000  -0.00938
  16        9PY        -0.00183   0.00001  -0.00004   0.00657   0.00000
  17        9PZ         0.00010   0.00283   0.00450   0.00011   0.00000
  18       10D 0        0.00003   0.00473  -0.00107   0.00002   0.00000
  19       10D+1        0.00000   0.00000   0.00000   0.00000  -0.00194
  20       10D-1       -0.00075   0.00000  -0.00002   0.00319   0.00000
  21       10D+2        0.00000  -0.00003   0.00048   0.00000   0.00000
  22       10D-2        0.00000   0.00000   0.00000   0.00000  -0.00003
  23       11D 0        0.00003   0.01182  -0.00044   0.00010   0.00000
  24       11D+1        0.00000   0.00000   0.00000   0.00000  -0.00232
  25       11D-1       -0.00193   0.00001  -0.00013   0.01386   0.00000
  26       11D+2       -0.00002   0.00007   0.00079   0.00000   0.00000
  27       11D-2        0.00000   0.00000   0.00000   0.00000  -0.00042
  28       12D 0       -0.00005  -0.01273   0.00731   0.00017   0.00000
  29       12D+1        0.00000   0.00000   0.00000   0.00000   0.00043
  30       12D-1       -0.00049   0.00008  -0.00021   0.01405   0.00000
  31       12D+2       -0.00006   0.00037   0.00075   0.00001   0.00000
  32       12D-2        0.00000   0.00000   0.00000   0.00000  -0.00118
  33       13F 0       -0.00001  -0.00277   0.00066  -0.00002   0.00000
  34       13F+1        0.00000   0.00000   0.00000   0.00000   0.00128
  35       13F-1        0.00076   0.00000   0.00002  -0.00263   0.00000
  36       13F+2        0.00001   0.00023  -0.00018   0.00000   0.00000
  37       13F-2        0.00000   0.00000   0.00000   0.00000   0.00005
  38       13F+3        0.00000   0.00000   0.00000   0.00000  -0.00022
  39       13F-3        0.00000   0.00000   0.00000  -0.00006   0.00000
  40       14F 0        0.00003  -0.00059  -0.00038  -0.00003   0.00000
  41       14F+1        0.00000   0.00000   0.00000   0.00000  -0.00180
  42       14F-1        0.00009   0.00000   0.00002  -0.00244   0.00000
  43       14F+2        0.00002  -0.00054   0.00095   0.00002   0.00000
  44       14F-2        0.00000   0.00000   0.00000   0.00000   0.00048
  45       14F+3        0.00000   0.00000   0.00000   0.00000   0.00119
  46       14F-3        0.00034   0.00000   0.00001  -0.00057   0.00000
  47 2   C  1S         -0.00109  -0.06839  -0.01181  -0.00081   0.00000
  48        2S          0.00243   0.15859   0.02780   0.00214   0.00000
  49        3S          0.00049   0.03838   0.00745   0.00056   0.00000
  50        4S          0.00032   0.02792  -0.01748   0.00020   0.00000
  51        5S          0.00007  -0.00233  -0.00052   0.00014   0.00000
  52        6PX         0.00000   0.00000   0.00000   0.00000   0.10448
  53        6PY         0.03793  -0.00018   0.00111  -0.07771   0.00000
  54        6PZ        -0.00016   0.08048  -0.05250  -0.00027   0.00000
  55        7PX         0.00000   0.00000   0.00000   0.00000   0.13158
  56        7PY         0.03142  -0.00056   0.00125  -0.09826   0.00000
  57        7PZ        -0.00040   0.05644  -0.08188  -0.00072   0.00000
  58        8PX         0.00000   0.00000   0.00000   0.00000   0.01779
  59        8PY        -0.01985   0.00014  -0.00073   0.07484   0.00000
  60        8PZ         0.00036  -0.03052   0.02498   0.00075   0.00000
  61        9PX         0.00000   0.00000   0.00000   0.00000   0.00221
  62        9PY         0.00172  -0.00002   0.00003  -0.00474   0.00000
  63        9PZ        -0.00001  -0.00016   0.00220   0.00003   0.00000
  64       10D 0        0.00011   0.01232   0.02027  -0.00005   0.00000
  65       10D+1        0.00000   0.00000   0.00000   0.00000  -0.01459
  66       10D-1       -0.00903   0.00002   0.00005  -0.01017   0.00000
  67       10D+2       -0.00020  -0.00258   0.01037  -0.00011   0.00000
  68       10D-2        0.00000   0.00000   0.00000   0.00000  -0.00311
  69       11D 0        0.00007   0.00205   0.03817   0.00023   0.00000
  70       11D+1        0.00000   0.00000   0.00000   0.00000  -0.02455
  71       11D-1       -0.01058   0.00023  -0.00027   0.00710   0.00000
  72       11D+2       -0.00032  -0.00772   0.02192  -0.00003   0.00000
  73       11D-2        0.00000   0.00000   0.00000   0.00000  -0.00509
  74       12D 0        0.00008  -0.01197  -0.00449   0.00017   0.00000
  75       12D+1        0.00000   0.00000   0.00000   0.00000   0.00037
  76       12D-1        0.01020  -0.00007  -0.00001  -0.01271   0.00000
  77       12D+2        0.00011  -0.00297   0.00083   0.00002   0.00000
  78       12D-2        0.00000   0.00000   0.00000   0.00000   0.00061
  79       13F 0        0.00010   0.00625  -0.00588   0.00006   0.00000
  80       13F+1        0.00000   0.00000   0.00000   0.00000   0.00454
  81       13F-1        0.00199  -0.00003  -0.00012   0.01104   0.00000
  82       13F+2        0.00015   0.00266   0.00013   0.00008   0.00000
  83       13F-2        0.00000   0.00000   0.00000   0.00000   0.00151
  84       13F+3        0.00000   0.00000   0.00000   0.00000  -0.00766
  85       13F-3       -0.00206   0.00001  -0.00006   0.00534   0.00000
  86       14F 0        0.00014  -0.00226  -0.00758   0.00007   0.00000
  87       14F+1        0.00000   0.00000   0.00000   0.00000  -0.00065
  88       14F-1        0.00560   0.00001  -0.00047   0.01601   0.00000
  89       14F+2        0.00016   0.00049  -0.00649   0.00000   0.00000
  90       14F-2        0.00000   0.00000   0.00000   0.00000   0.00246
  91       14F+3        0.00000   0.00000   0.00000   0.00000  -0.00152
  92       14F-3        0.00087  -0.00001  -0.00009  -0.00112   0.00000
  93 3   F  1S          0.14513   0.01932   0.01643   0.01715   0.00000
  94        2S         -0.37070  -0.04941  -0.04417  -0.04657   0.00000
  95        3S         -0.11348  -0.01553  -0.01486  -0.01595   0.00000
  96        4S         -0.24410  -0.05430  -0.03531  -0.05243   0.00000
  97        5S         -0.03156  -0.02267   0.00827   0.05045   0.00000
  98        6PX         0.00000   0.00000   0.00000   0.00000   0.28772
  99        6PY         0.03780  -0.00288   0.16995  -0.12916   0.00000
 100        6PZ         0.00862   0.04685  -0.19487   0.23195   0.00000
 101        7PX         0.00000   0.00000   0.00000   0.00000   0.35131
 102        7PY         0.04150  -0.00605   0.20595  -0.15715   0.00000
 103        7PZ         0.00693   0.05495  -0.23632   0.28029   0.00000
 104        8PX         0.00000   0.00000   0.00000   0.00000   0.23918
 105        8PY         0.03509  -0.01365   0.12791  -0.13396   0.00000
 106        8PZ         0.00390   0.02825  -0.16393   0.18472   0.00000
 107        9PX         0.00000   0.00000   0.00000   0.00000   0.01876
 108        9PY        -0.00140  -0.00327   0.01311   0.00094   0.00000
 109        9PZ        -0.00042  -0.00372  -0.01430   0.02614   0.00000
 110       10D 0       -0.00017   0.00062  -0.00272   0.00241   0.00000
 111       10D+1        0.00000   0.00000   0.00000   0.00000   0.00219
 112       10D-1       -0.00042   0.00080  -0.00058   0.00165   0.00000
 113       10D+2        0.00008  -0.00002  -0.00229   0.00056   0.00000
 114       10D-2        0.00000   0.00000   0.00000   0.00000   0.00340
 115       11D 0       -0.00110   0.00177  -0.01013   0.00877   0.00000
 116       11D+1        0.00000   0.00000   0.00000   0.00000   0.00920
 117       11D-1       -0.00399   0.00015  -0.00229   0.00615   0.00000
 118       11D+2        0.00183   0.00126  -0.00768   0.00183   0.00000
 119       11D-2        0.00000   0.00000   0.00000   0.00000   0.01383
 120       12D 0       -0.00191   0.00009  -0.00454   0.00772   0.00000
 121       12D+1        0.00000   0.00000   0.00000   0.00000   0.00443
 122       12D-1       -0.00024  -0.00228  -0.00362  -0.00231   0.00000
 123       12D+2       -0.00144   0.00185   0.00099   0.01020   0.00000
 124       12D-2        0.00000   0.00000   0.00000   0.00000   0.00810
 125       13F 0        0.00010   0.00006  -0.00071   0.00045   0.00000
 126       13F+1        0.00000   0.00000   0.00000   0.00000   0.00034
 127       13F-1       -0.00030   0.00048  -0.00176   0.00185   0.00000
 128       13F+2        0.00031  -0.00012  -0.00045  -0.00028   0.00000
 129       13F-2        0.00000   0.00000   0.00000   0.00000   0.00191
 130       13F+3        0.00000   0.00000   0.00000   0.00000  -0.00171
 131       13F-3        0.00000   0.00009  -0.00108   0.00024   0.00000
 132       14F 0        0.00036   0.00075  -0.00191   0.00033   0.00000
 133       14F+1        0.00000   0.00000   0.00000   0.00000   0.00032
 134       14F-1       -0.00099   0.00008  -0.00268   0.00304   0.00000
 135       14F+2        0.00098   0.00057  -0.00048  -0.00080   0.00000
 136       14F-2        0.00000   0.00000   0.00000   0.00000   0.00334
 137       14F+3        0.00000   0.00000   0.00000   0.00000  -0.00223
 138       14F-3        0.00064   0.00030  -0.00074   0.00081   0.00000
 139 4   F  1S         -0.15369   0.01919   0.01684  -0.01685   0.00000
 140        2S          0.39262  -0.04903  -0.04527   0.04556   0.00000
 141        3S          0.12021  -0.01541  -0.01522   0.01556   0.00000
 142        4S          0.25807  -0.05319  -0.03599   0.05050   0.00000
 143        5S          0.03237  -0.02248   0.00896  -0.04972   0.00000
 144        6PX         0.00000   0.00000   0.00000   0.00000   0.20764
 145        6PY         0.03808   0.00276  -0.16636  -0.13303   0.00000
 146        6PZ        -0.00980   0.04627  -0.19169  -0.23448   0.00000
 147        7PX         0.00000   0.00000   0.00000   0.00000   0.25369
 148        7PY         0.04164   0.00579  -0.20156  -0.16176   0.00000
 149        7PZ        -0.00831   0.05435  -0.23240  -0.28330   0.00000
 150        8PX         0.00000   0.00000   0.00000   0.00000   0.17345
 151        8PY         0.03561   0.01303  -0.12564  -0.13674   0.00000
 152        8PZ        -0.00528   0.02828  -0.16230  -0.18805   0.00000
 153        9PX         0.00000   0.00000   0.00000   0.00000   0.01190
 154        9PY        -0.00134   0.00328  -0.01320   0.00056   0.00000
 155        9PZ         0.00038  -0.00361  -0.01414  -0.02639   0.00000
 156       10D 0        0.00016   0.00060  -0.00262  -0.00239   0.00000
 157       10D+1        0.00000   0.00000   0.00000   0.00000   0.00161
 158       10D-1       -0.00044  -0.00079   0.00058   0.00161   0.00000
 159       10D+2       -0.00011  -0.00002  -0.00223  -0.00060   0.00000
 160       10D-2        0.00000   0.00000   0.00000   0.00000  -0.00270
 161       11D 0        0.00099   0.00171  -0.00982  -0.00873   0.00000
 162       11D+1        0.00000   0.00000   0.00000   0.00000   0.00695
 163       11D-1       -0.00412  -0.00016   0.00226   0.00604   0.00000
 164       11D+2       -0.00201   0.00125  -0.00755  -0.00198   0.00000
 165       11D-2        0.00000   0.00000   0.00000   0.00000  -0.01093
 166       12D 0        0.00187   0.00008  -0.00472  -0.00790   0.00000
 167       12D+1        0.00000   0.00000   0.00000   0.00000   0.00325
 168       12D-1       -0.00010   0.00213   0.00376  -0.00206   0.00000
 169       12D+2        0.00150   0.00173   0.00092  -0.01028   0.00000
 170       12D-2        0.00000   0.00000   0.00000   0.00000  -0.00715
 171       13F 0       -0.00012   0.00006  -0.00067  -0.00044   0.00000
 172       13F+1        0.00000   0.00000   0.00000   0.00000   0.00027
 173       13F-1       -0.00029  -0.00047   0.00170   0.00183   0.00000
 174       13F+2       -0.00032  -0.00012  -0.00043   0.00026   0.00000
 175       13F-2        0.00000   0.00000   0.00000   0.00000  -0.00142
 176       13F+3        0.00000   0.00000   0.00000   0.00000  -0.00142
 177       13F-3        0.00003  -0.00009   0.00107   0.00025   0.00000
 178       14F 0       -0.00039   0.00073  -0.00188  -0.00034   0.00000
 179       14F+1        0.00000   0.00000   0.00000   0.00000   0.00002
 180       14F-1       -0.00099  -0.00006   0.00268   0.00307   0.00000
 181       14F+2       -0.00105   0.00057  -0.00047   0.00079   0.00000
 182       14F-2        0.00000   0.00000   0.00000   0.00000  -0.00263
 183       14F+3        0.00000   0.00000   0.00000   0.00000  -0.00162
 184       14F-3        0.00067  -0.00030   0.00075   0.00086   0.00000
                          11        12        13        14        15
     Eigenvalues --     1.96816   1.96689   1.96310   1.96132   1.95648
   1 1   O  1S          0.00000   0.05074   0.00139   0.00216  -0.00040
   2        2S          0.00000  -0.15222  -0.00508  -0.02824   0.00069
   3        3S          0.00000  -0.04659  -0.00173  -0.01255   0.00014
   4        4S          0.00000  -0.21049  -0.01080  -0.13600  -0.00170
   5        5S          0.00000  -0.04485  -0.00306  -0.04479  -0.00098
   6        6PX         0.00110   0.00000   0.00000   0.00000   0.00000
   7        6PY         0.00000  -0.00344   0.22788  -0.01553   0.26058
   8        6PZ         0.00000  -0.15957  -0.01468  -0.26466  -0.00502
   9        7PX         0.00147   0.00000   0.00000   0.00000   0.00000
  10        7PY         0.00000  -0.00412   0.27802  -0.01898   0.32060
  11        7PZ         0.00000  -0.18443  -0.01751  -0.31793  -0.00596
  12        8PX         0.00261   0.00000   0.00000   0.00000   0.00000
  13        8PY         0.00000  -0.00268   0.18382  -0.01257   0.21955
  14        8PZ         0.00000  -0.07700  -0.00837  -0.15473  -0.00276
  15        9PX         0.00128   0.00000   0.00000   0.00000   0.00000
  16        9PY         0.00000  -0.00056   0.02553  -0.00168   0.02973
  17        9PZ         0.00000   0.00323   0.00002  -0.00441  -0.00011
  18       10D 0        0.00000   0.00706   0.00068   0.01218   0.00023
  19       10D+1        0.00027   0.00000   0.00000   0.00000   0.00000
  20       10D-1        0.00000   0.00013  -0.00751   0.00043  -0.00506
  21       10D+2        0.00000   0.00007   0.00001   0.00023   0.00001
  22       10D-2       -0.00022   0.00000   0.00000   0.00000   0.00000
  23       11D 0        0.00000   0.01168   0.00153   0.02966   0.00054
  24       11D+1        0.00032   0.00000   0.00000   0.00000   0.00000
  25       11D-1        0.00000   0.00028  -0.01833   0.00104  -0.01252
  26       11D+2        0.00000  -0.00011   0.00005   0.00113   0.00004
  27       11D-2       -0.00278   0.00000   0.00000   0.00000   0.00000
  28       12D 0        0.00000  -0.00079   0.00027   0.00499   0.00005
  29       12D+1       -0.00005   0.00000   0.00000   0.00000   0.00000
  30       12D-1        0.00000   0.00017  -0.00860   0.00037  -0.00178
  31       12D+2        0.00000  -0.00065   0.00008   0.00291   0.00013
  32       12D-2       -0.00740   0.00000   0.00000   0.00000   0.00000
  33       13F 0        0.00000  -0.00241  -0.00026  -0.00485  -0.00009
  34       13F+1       -0.00018   0.00000   0.00000   0.00000   0.00000
  35       13F-1        0.00000  -0.00007   0.00411  -0.00022   0.00227
  36       13F+2        0.00000  -0.00025  -0.00003  -0.00070  -0.00001
  37       13F-2        0.00036   0.00000   0.00000   0.00000   0.00000
  38       13F+3        0.00003   0.00000   0.00000   0.00000   0.00000
  39       13F-3        0.00000  -0.00001   0.00063  -0.00005   0.00095
  40       14F 0        0.00000  -0.00076  -0.00028  -0.00672  -0.00015
  41       14F+1        0.00026   0.00000   0.00000   0.00000   0.00000
  42       14F-1        0.00000  -0.00007   0.00379  -0.00020   0.00257
  43       14F+2        0.00000  -0.00010  -0.00004  -0.00080  -0.00002
  44       14F-2        0.00305   0.00000   0.00000   0.00000   0.00000
  45       14F+3       -0.00016   0.00000   0.00000   0.00000   0.00000
  46       14F-3        0.00000  -0.00001   0.00081  -0.00002  -0.00075
  47 2   C  1S          0.00000  -0.14256  -0.00468  -0.02357   0.00035
  48        2S          0.00000   0.39162   0.01326   0.06818  -0.00109
  49        3S          0.00000   0.10139   0.00340   0.01852  -0.00010
  50        4S          0.00000   0.15899   0.00369  -0.01583  -0.00207
  51        5S          0.00000   0.00623   0.00038   0.00764   0.00020
  52        6PX        -0.01434   0.00000   0.00000   0.00000   0.00000
  53        6PY         0.00000  -0.00497   0.18117  -0.00532  -0.06916
  54        6PZ         0.00000  -0.01477   0.00908   0.22890   0.00501
  55        7PX        -0.01821   0.00000   0.00000   0.00000   0.00000
  56        7PY         0.00000  -0.00571   0.21717  -0.00721  -0.07657
  57        7PZ         0.00000  -0.02964   0.00830   0.22603   0.00578
  58        8PX        -0.00249   0.00000   0.00000   0.00000   0.00000
  59        8PY         0.00000  -0.00181   0.05466  -0.00227  -0.01255
  60        8PZ         0.00000  -0.00364   0.00121   0.02751   0.00085
  61        9PX        -0.00025   0.00000   0.00000   0.00000   0.00000
  62        9PY         0.00000   0.00014  -0.00228   0.00010  -0.00303
  63        9PZ         0.00000   0.00002  -0.00004   0.00068   0.00007
  64       10D 0        0.00000   0.00744   0.00079   0.01869   0.00052
  65       10D+1        0.00198   0.00000   0.00000   0.00000   0.00000
  66       10D-1        0.00000   0.00052   0.00004  -0.00114   0.04376
  67       10D+2        0.00000  -0.00905   0.00018   0.01143   0.00038
  68       10D-2       -0.02021   0.00000   0.00000   0.00000   0.00000
  69       11D 0        0.00000   0.00256   0.00018   0.01715   0.00061
  70       11D+1        0.00334   0.00000   0.00000   0.00000   0.00000
  71       11D-1        0.00000   0.00142  -0.02386  -0.00102   0.08660
  72       11D+2        0.00000  -0.02260   0.00008   0.02335   0.00089
  73       11D-2       -0.03295   0.00000   0.00000   0.00000   0.00000
  74       12D 0        0.00000   0.00128   0.00005  -0.00037  -0.00005
  75       12D+1        0.00006   0.00000   0.00000   0.00000   0.00000
  76       12D-1        0.00000   0.00047  -0.00917   0.00009   0.01285
  77       12D+2        0.00000   0.00345   0.00025   0.00248   0.00007
  78       12D-2        0.00369   0.00000   0.00000   0.00000   0.00000
  79       13F 0        0.00000   0.00789   0.00044   0.00502   0.00011
  80       13F+1       -0.00061   0.00000   0.00000   0.00000   0.00000
  81       13F-1        0.00000  -0.00044   0.01438  -0.00072   0.00470
  82       13F+2        0.00000   0.00603   0.00015  -0.00081  -0.00006
  83       13F-2        0.00986   0.00000   0.00000   0.00000   0.00000
  84       13F+3        0.00112   0.00000   0.00000   0.00000   0.00000
  85       13F-3        0.00000  -0.00003   0.00034  -0.00008   0.00306
  86       14F 0        0.00000   0.00401  -0.00022  -0.01461  -0.00051
  87       14F+1        0.00017   0.00000   0.00000   0.00000   0.00000
  88       14F-1        0.00000  -0.00075   0.02985  -0.00164   0.01175
  89       14F+2        0.00000   0.00937  -0.00008  -0.01225  -0.00045
  90       14F-2        0.01517   0.00000   0.00000   0.00000   0.00000
  91       14F+3        0.00014   0.00000   0.00000   0.00000   0.00000
  92       14F-3        0.00000  -0.00002   0.00313  -0.00038   0.00914
  93 3   F  1S          0.00000   0.02026  -0.00336   0.00632  -0.02179
  94        2S          0.00000  -0.06330   0.01787  -0.01038   0.05346
  95        3S          0.00000  -0.02312   0.00865  -0.00042   0.01401
  96        4S          0.00000  -0.12871   0.08979   0.03471  -0.01038
  97        5S          0.00000  -0.02649   0.03760   0.01212  -0.02463
  98        6PX         0.23619   0.00000   0.00000   0.00000   0.00000
  99        6PY         0.00000   0.13291  -0.17748  -0.07286   0.14860
 100        6PZ         0.00000   0.10480  -0.01232  -0.12981   0.11740
 101        7PX         0.28753   0.00000   0.00000   0.00000   0.00000
 102        7PY         0.00000   0.15832  -0.21304  -0.09123   0.18314
 103        7PZ         0.00000   0.12425  -0.01404  -0.15973   0.14415
 104        8PX         0.19712   0.00000   0.00000   0.00000   0.00000
 105        8PY         0.00000   0.07079  -0.10989  -0.04550   0.11162
 106        8PZ         0.00000   0.05682   0.00555  -0.10151   0.07953
 107        9PX         0.02206   0.00000   0.00000   0.00000   0.00000
 108        9PY         0.00000  -0.00305  -0.00515   0.00257   0.00634
 109        9PZ         0.00000   0.00061   0.01220  -0.00860   0.00800
 110       10D 0        0.00000   0.00005  -0.00008   0.00032  -0.00001
 111       10D+1        0.00152   0.00000   0.00000   0.00000   0.00000
 112       10D-1        0.00000   0.00409  -0.00330  -0.00252   0.00333
 113       10D+2        0.00000  -0.00268   0.00224   0.00206  -0.00195
 114       10D-2        0.00176   0.00000   0.00000   0.00000   0.00000
 115       11D 0        0.00000  -0.00022  -0.00241   0.00157  -0.00136
 116       11D+1        0.00599   0.00000   0.00000   0.00000   0.00000
 117       11D-1        0.00000   0.01166  -0.01199  -0.01131   0.01133
 118       11D+2        0.00000  -0.00823   0.00694   0.00819  -0.00745
 119       11D-2        0.00767   0.00000   0.00000   0.00000   0.00000
 120       12D 0        0.00000  -0.00118  -0.00761  -0.00055  -0.00417
 121       12D+1        0.00379   0.00000   0.00000   0.00000   0.00000
 122       12D-1        0.00000   0.00219  -0.00257  -0.00302   0.00228
 123       12D+2        0.00000  -0.00113  -0.00075   0.00494  -0.00511
 124       12D-2        0.00317   0.00000   0.00000   0.00000   0.00000
 125       13F 0        0.00000  -0.00104   0.00092   0.00086  -0.00090
 126       13F+1        0.00015   0.00000   0.00000   0.00000   0.00000
 127       13F-1        0.00000   0.00081  -0.00057  -0.00064   0.00082
 128       13F+2        0.00000  -0.00165   0.00165   0.00143  -0.00149
 129       13F-2        0.00128   0.00000   0.00000   0.00000   0.00000
 130       13F+3       -0.00068   0.00000   0.00000   0.00000   0.00000
 131       13F-3        0.00000  -0.00087   0.00072   0.00088  -0.00061
 132       14F 0        0.00000  -0.00092   0.00018   0.00218  -0.00198
 133       14F+1        0.00092   0.00000   0.00000   0.00000   0.00000
 134       14F-1        0.00000   0.00079  -0.00342  -0.00032   0.00042
 135       14F+2        0.00000  -0.00268   0.00274   0.00296  -0.00244
 136       14F-2        0.00205   0.00000   0.00000   0.00000   0.00000
 137       14F+3       -0.00193   0.00000   0.00000   0.00000   0.00000
 138       14F-3        0.00000  -0.00165   0.00145   0.00153  -0.00166
 139 4   F  1S          0.00000   0.02050   0.00498   0.00495   0.02180
 140        2S          0.00000  -0.06314  -0.02199  -0.00632  -0.05298
 141        3S          0.00000  -0.02284  -0.00987   0.00091  -0.01365
 142        4S          0.00000  -0.12225  -0.09257   0.04091   0.01345
 143        5S          0.00000  -0.02297  -0.03737   0.01416   0.02561
 144        6PX        -0.30928   0.00000   0.00000   0.00000   0.00000
 145        6PY         0.00000  -0.11893  -0.17810   0.07998   0.15543
 146        6PZ         0.00000   0.10376   0.00678  -0.12405  -0.12537
 147        7PX        -0.37666   0.00000   0.00000   0.00000   0.00000
 148        7PY         0.00000  -0.14151  -0.21348   0.09947   0.19153
 149        7PZ         0.00000   0.12312   0.00703  -0.15245  -0.15390
 150        8PX        -0.25905   0.00000   0.00000   0.00000   0.00000
 151        8PY         0.00000  -0.06182  -0.11038   0.04908   0.11637
 152        8PZ         0.00000   0.05801  -0.01108  -0.09696  -0.08603
 153        9PX        -0.02696   0.00000   0.00000   0.00000   0.00000
 154        9PY         0.00000   0.00314  -0.00519  -0.00227   0.00629
 155        9PZ         0.00000   0.00151  -0.01265  -0.00722  -0.00867
 156       10D 0        0.00000   0.00004   0.00007   0.00032   0.00005
 157       10D+1       -0.00203   0.00000   0.00000   0.00000   0.00000
 158       10D-1        0.00000  -0.00381  -0.00325   0.00255   0.00346
 159       10D+2        0.00000  -0.00249  -0.00221   0.00210   0.00208
 160       10D-2        0.00262   0.00000   0.00000   0.00000   0.00000
 161       11D 0        0.00000  -0.00030   0.00233   0.00133   0.00150
 162       11D+1       -0.00819   0.00000   0.00000   0.00000   0.00000
 163       11D-1        0.00000  -0.01071  -0.01151   0.01147   0.01197
 164       11D+2        0.00000  -0.00762  -0.00671   0.00826   0.00800
 165       11D-2        0.01120   0.00000   0.00000   0.00000   0.00000
 166       12D 0        0.00000  -0.00138   0.00726  -0.00151   0.00412
 167       12D+1       -0.00502   0.00000   0.00000   0.00000   0.00000
 168       12D-1        0.00000  -0.00208  -0.00244   0.00315   0.00244
 169       12D+2        0.00000  -0.00102   0.00093   0.00451   0.00544
 170       12D-2        0.00566   0.00000   0.00000   0.00000   0.00000
 171       13F 0        0.00000  -0.00096  -0.00091   0.00088   0.00097
 172       13F+1       -0.00022   0.00000   0.00000   0.00000   0.00000
 173       13F-1        0.00000  -0.00076  -0.00052   0.00063   0.00085
 174       13F+2        0.00000  -0.00151  -0.00160   0.00146   0.00160
 175       13F-2        0.00173   0.00000   0.00000   0.00000   0.00000
 176       13F+3        0.00112   0.00000   0.00000   0.00000   0.00000
 177       13F-3        0.00000   0.00081   0.00070  -0.00089  -0.00068
 178       14F 0        0.00000  -0.00089  -0.00009   0.00205   0.00208
 179       14F+1       -0.00095   0.00000   0.00000   0.00000   0.00000
 180       14F-1        0.00000  -0.00060  -0.00337   0.00057   0.00043
 181       14F+2        0.00000  -0.00248  -0.00265   0.00304   0.00263
 182       14F-2        0.00294   0.00000   0.00000   0.00000   0.00000
 183       14F+3        0.00255   0.00000   0.00000   0.00000   0.00000
 184       14F-3        0.00000   0.00155   0.00141  -0.00159  -0.00177
                          16        17        18        19        20
     Eigenvalues --     1.94008   0.05873   0.03760   0.03590   0.02442
   1 1   O  1S          0.00000   0.00000  -0.03424   0.00589   0.07108
   2        2S          0.00000   0.00000   0.14006  -0.02402  -0.27566
   3        3S          0.00000   0.00000   0.05104  -0.00887  -0.11530
   4        4S          0.00000   0.00000   0.17905  -0.03137  -0.49968
   5        5S          0.00000   0.00000   0.08304  -0.01344  -0.20465
   6        6PX         0.30133  -0.35162   0.00000   0.00000   0.00000
   7        6PY         0.00000   0.00000   0.05322   0.34063  -0.00264
   8        6PZ         0.00000   0.00000  -0.19226   0.03317   0.34552
   9        7PX         0.37607  -0.39403   0.00000   0.00000   0.00000
  10        7PY         0.00000   0.00000   0.04868   0.30763  -0.00246
  11        7PZ         0.00000   0.00000  -0.22015   0.03772   0.42998
  12        8PX         0.24015  -0.06868   0.00000   0.00000   0.00000
  13        8PY         0.00000   0.00000  -0.00735  -0.05301   0.00012
  14        8PZ         0.00000   0.00000   0.03031  -0.00482   0.16048
  15        9PX         0.01524  -0.00755   0.00000   0.00000   0.00000
  16        9PY         0.00000   0.00000  -0.00454  -0.03222   0.00016
  17        9PZ         0.00000   0.00000  -0.00506   0.00036   0.02089
  18       10D 0        0.00000   0.00000  -0.00353   0.00076   0.03095
  19       10D+1       -0.01117  -0.01646   0.00000   0.00000   0.00000
  20       10D-1        0.00000   0.00000   0.00423   0.02789  -0.00025
  21       10D+2        0.00000   0.00000  -0.00365   0.00063   0.00112
  22       10D-2        0.00000   0.00002   0.00000   0.00000   0.00000
  23       11D 0        0.00000   0.00000   0.00308  -0.00004   0.02475
  24       11D+1       -0.02916  -0.01844   0.00000   0.00000   0.00000
  25       11D-1        0.00000   0.00000   0.00793   0.05120  -0.00023
  26       11D+2        0.00000   0.00000  -0.00292   0.00062   0.00055
  27       11D-2       -0.00001  -0.00001   0.00000   0.00000   0.00000
  28       12D 0        0.00000   0.00000  -0.03283   0.00548  -0.02953
  29       12D+1       -0.00931   0.01912   0.00000   0.00000   0.00000
  30       12D-1        0.00000   0.00000   0.00101   0.00474   0.00017
  31       12D+2        0.00000   0.00000   0.00493  -0.00056   0.00144
  32       12D-2       -0.00001  -0.00015   0.00000   0.00000   0.00000
  33       13F 0        0.00000   0.00000  -0.00313   0.00049  -0.00198
  34       13F+1        0.00585   0.00446   0.00000   0.00000   0.00000
  35       13F-1        0.00000   0.00000  -0.00108  -0.00695   0.00000
  36       13F+2        0.00000   0.00000  -0.00172   0.00029   0.00149
  37       13F-2        0.00000   0.00000   0.00000   0.00000   0.00000
  38       13F+3        0.00100  -0.00261   0.00000   0.00000   0.00000
  39       13F-3        0.00000   0.00000   0.00028   0.00175   0.00000
  40       14F 0        0.00000   0.00000   0.00040  -0.00028  -0.00834
  41       14F+1        0.00368  -0.00388   0.00000   0.00000   0.00000
  42       14F-1        0.00000   0.00000  -0.00081  -0.00482   0.00002
  43       14F+2        0.00000   0.00000  -0.00251   0.00033  -0.00287
  44       14F-2        0.00001   0.00008   0.00000   0.00000   0.00000
  45       14F+3        0.00057  -0.00164   0.00000   0.00000   0.00000
  46       14F-3        0.00000   0.00000   0.00030   0.00204  -0.00008
  47 2   C  1S          0.00000   0.00000   0.17627  -0.02867  -0.05979
  48        2S          0.00000   0.00000  -0.60964   0.10055   0.25836
  49        3S          0.00000   0.00000  -0.18575   0.03082   0.12037
  50        4S          0.00000   0.00000  -0.45795   0.07706   0.19556
  51        5S          0.00000   0.00000  -0.03930   0.00671   0.04221
  52        6PX         0.18253   0.32815   0.00000   0.00000   0.00000
  53        6PY         0.00000   0.00000  -0.05458  -0.33975   0.00138
  54        6PZ         0.00000   0.00000   0.11506  -0.01620   0.34907
  55        7PX         0.23288   0.46563   0.00000   0.00000   0.00000
  56        7PY         0.00000   0.00000  -0.09346  -0.59482   0.00422
  57        7PZ         0.00000   0.00000   0.19486  -0.03006   0.68079
  58        8PX         0.08734   0.14049   0.00000   0.00000   0.00000
  59        8PY         0.00000   0.00000  -0.01960  -0.13372   0.00077
  60        8PZ         0.00000   0.00000  -0.03096   0.00395   0.14582
  61        9PX         0.00847   0.00764   0.00000   0.00000   0.00000
  62        9PY         0.00000   0.00000  -0.00083  -0.00355   0.00003
  63        9PZ         0.00000   0.00000   0.00287  -0.00025   0.00732
  64       10D 0        0.00000   0.00000   0.00462  -0.00092  -0.03239
  65       10D+1        0.02601   0.00951   0.00000   0.00000   0.00000
  66       10D-1        0.00000   0.00000  -0.00306  -0.02146   0.00027
  67       10D+2        0.00000   0.00000  -0.00054   0.00003  -0.00306
  68       10D-2        0.00004   0.00001   0.00000   0.00000   0.00000
  69       11D 0        0.00000   0.00000  -0.02411   0.00615   0.02684
  70       11D+1        0.04525   0.06065   0.00000   0.00000   0.00000
  71       11D-1        0.00000   0.00000   0.01237   0.07333  -0.00020
  72       11D+2        0.00000   0.00000   0.06154  -0.00903   0.02899
  73       11D-2        0.00006  -0.00017   0.00000   0.00000   0.00000
  74       12D 0        0.00000   0.00000  -0.04061   0.00693   0.04623
  75       12D+1        0.00517   0.02210   0.00000   0.00000   0.00000
  76       12D-1        0.00000   0.00000  -0.00243  -0.01230   0.00052
  77       12D+2        0.00000   0.00000   0.00519  -0.00106   0.01138
  78       12D-2       -0.00007   0.00000   0.00000   0.00000   0.00000
  79       13F 0        0.00000   0.00000  -0.00456   0.00061   0.01242
  80       13F+1        0.00770   0.01626   0.00000   0.00000   0.00000
  81       13F-1        0.00000   0.00000  -0.00400  -0.02680   0.00049
  82       13F+2        0.00000   0.00000  -0.02790   0.00448  -0.01309
  83       13F-2       -0.00001   0.00012   0.00000   0.00000   0.00000
  84       13F+3        0.00063  -0.00464   0.00000   0.00000   0.00000
  85       13F-3        0.00000   0.00000   0.00191   0.01177  -0.00002
  86       14F 0        0.00000   0.00000  -0.04304   0.00630   0.00496
  87       14F+1        0.00775   0.02744   0.00000   0.00000   0.00000
  88       14F-1        0.00000   0.00000  -0.02318  -0.15039   0.00229
  89       14F+2        0.00000   0.00000  -0.03818   0.00565  -0.00698
  90       14F-2       -0.00004   0.00033   0.00000   0.00000   0.00000
  91       14F+3        0.00403   0.00752   0.00000   0.00000   0.00000
  92       14F-3        0.00000   0.00000  -0.00520  -0.03317   0.00069
  93 3   F  1S          0.00000   0.00000  -0.04528   0.05338  -0.01955
  94        2S          0.00000   0.00000   0.14242  -0.15849   0.04732
  95        3S          0.00000   0.00000   0.06405  -0.07797   0.03022
  96        4S          0.00000   0.00000   0.18147  -0.28989   0.11541
  97        5S          0.00000   0.00000   0.04202  -0.08709   0.06019
  98        6PX        -0.05865  -0.18709   0.00000   0.00000   0.00000
  99        6PY         0.00000   0.00000   0.26010  -0.14434   0.21853
 100        6PZ         0.00000   0.00000   0.11201  -0.24568  -0.17295
 101        7PX        -0.07097  -0.15381   0.00000   0.00000   0.00000
 102        7PY         0.00000   0.00000   0.24332  -0.17590   0.14092
 103        7PZ         0.00000   0.00000   0.12870  -0.21567  -0.06396
 104        8PX        -0.06470   0.02498   0.00000   0.00000   0.00000
 105        8PY         0.00000   0.00000  -0.03254  -0.19749  -0.07380
 106        8PZ         0.00000   0.00000   0.05003   0.08944   0.21440
 107        9PX        -0.01959  -0.00358   0.00000   0.00000   0.00000
 108        9PY         0.00000   0.00000   0.00298  -0.01234  -0.01221
 109        9PZ         0.00000   0.00000  -0.00989  -0.01002   0.03751
 110       10D 0        0.00000   0.00000   0.00308   0.00540   0.01282
 111       10D+1        0.00086   0.00420   0.00000   0.00000   0.00000
 112       10D-1        0.00000   0.00000  -0.00901   0.01307   0.00044
 113       10D+2        0.00000   0.00000   0.00808  -0.00551   0.01309
 114       10D-2        0.00078   0.00572   0.00000   0.00000   0.00000
 115       11D 0        0.00000   0.00000   0.01237   0.02674   0.03887
 116       11D+1        0.00264   0.01576   0.00000   0.00000   0.00000
 117       11D-1        0.00000   0.00000  -0.00950   0.02136   0.01176
 118       11D+2        0.00000   0.00000   0.01314   0.00037   0.03119
 119       11D-2        0.00196   0.01957   0.00000   0.00000   0.00000
 120       12D 0        0.00000   0.00000   0.01643   0.06540   0.02103
 121       12D+1        0.00226   0.01035   0.00000   0.00000   0.00000
 122       12D-1        0.00000   0.00000  -0.00599   0.00200   0.03046
 123       12D+2        0.00000   0.00000   0.01895   0.04183  -0.00103
 124       12D-2       -0.00167   0.00362   0.00000   0.00000   0.00000
 125       13F 0        0.00000   0.00000  -0.00039   0.00093   0.00161
 126       13F+1        0.00018   0.00054   0.00000   0.00000   0.00000
 127       13F-1        0.00000   0.00000   0.00135   0.00062   0.00325
 128       13F+2        0.00000   0.00000  -0.00147  -0.00024  -0.00037
 129       13F-2        0.00041   0.00092   0.00000   0.00000   0.00000
 130       13F+3       -0.00046  -0.00221   0.00000   0.00000   0.00000
 131       13F-3        0.00000   0.00000   0.00057   0.00070   0.00256
 132       14F 0        0.00000   0.00000   0.00338   0.00451   0.00126
 133       14F+1        0.00074   0.00154   0.00000   0.00000   0.00000
 134       14F-1        0.00000   0.00000   0.00218   0.01127   0.00431
 135       14F+2        0.00000   0.00000   0.00356  -0.00038   0.00166
 136       14F-2        0.00053   0.00398   0.00000   0.00000   0.00000
 137       14F+3        0.00082   0.00104   0.00000   0.00000   0.00000
 138       14F-3        0.00000   0.00000  -0.00019   0.00067   0.00128
 139 4   F  1S          0.00000   0.00000  -0.05905  -0.03672  -0.01886
 140        2S          0.00000   0.00000   0.18218   0.10551   0.04502
 141        3S          0.00000   0.00000   0.08388   0.05387   0.02905
 142        4S          0.00000   0.00000   0.25750   0.21601   0.10902
 143        5S          0.00000   0.00000   0.06353   0.06839   0.05912
 144        6PX        -0.05762  -0.18572   0.00000   0.00000   0.00000
 145        6PY         0.00000   0.00000  -0.29391  -0.05910  -0.21706
 146        6PZ         0.00000   0.00000   0.18080   0.19688  -0.17641
 147        7PX        -0.06965  -0.15252   0.00000   0.00000   0.00000
 148        7PY         0.00000   0.00000  -0.28686  -0.09389  -0.13882
 149        7PZ         0.00000   0.00000   0.18794   0.16383  -0.06679
 150        8PX        -0.06355   0.02713   0.00000   0.00000   0.00000
 151        8PY         0.00000   0.00000  -0.02768  -0.19725   0.08070
 152        8PZ         0.00000   0.00000   0.02085  -0.09939   0.21875
 153        9PX        -0.01930  -0.00302   0.00000   0.00000   0.00000
 154        9PY         0.00000   0.00000  -0.00531  -0.01094   0.01276
 155        9PZ         0.00000   0.00000  -0.00639   0.01219   0.03785
 156       10D 0        0.00000   0.00000   0.00144  -0.00585   0.01272
 157       10D+1        0.00084   0.00409   0.00000   0.00000   0.00000
 158       10D-1        0.00000   0.00000   0.01242   0.00947  -0.00069
 159       10D+2        0.00000   0.00000   0.00936   0.00279   0.01287
 160       10D-2       -0.00077  -0.00561   0.00000   0.00000   0.00000
 161       11D 0        0.00000   0.00000   0.00388  -0.02850   0.03911
 162       11D+1        0.00260   0.01558   0.00000   0.00000   0.00000
 163       11D-1        0.00000   0.00000   0.01567   0.01716  -0.01227
 164       11D+2        0.00000   0.00000   0.01265  -0.00414   0.03104
 165       11D-2       -0.00196  -0.01952   0.00000   0.00000   0.00000
 166       12D 0        0.00000   0.00000  -0.00414  -0.06683   0.02313
 167       12D+1        0.00227   0.01055   0.00000   0.00000   0.00000
 168       12D-1        0.00000   0.00000   0.00618   0.00022  -0.03062
 169       12D+2        0.00000   0.00000   0.00526  -0.04586   0.00059
 170       12D-2        0.00163  -0.00430   0.00000   0.00000   0.00000
 171       13F 0        0.00000   0.00000  -0.00064  -0.00069   0.00154
 172       13F+1        0.00018   0.00052   0.00000   0.00000   0.00000
 173       13F-1        0.00000   0.00000  -0.00108   0.00089  -0.00316
 174       13F+2        0.00000   0.00000  -0.00133   0.00068  -0.00040
 175       13F-2       -0.00040  -0.00085   0.00000   0.00000   0.00000
 176       13F+3       -0.00045  -0.00214   0.00000   0.00000   0.00000
 177       13F-3        0.00000   0.00000  -0.00030   0.00078  -0.00251
 178       14F 0        0.00000   0.00000   0.00179  -0.00531   0.00140
 179       14F+1        0.00072   0.00149   0.00000   0.00000   0.00000
 180       14F-1        0.00000   0.00000   0.00130   0.01137  -0.00478
 181       14F+2        0.00000   0.00000   0.00348  -0.00074   0.00160
 182       14F-2       -0.00052  -0.00409   0.00000   0.00000   0.00000
 183       14F+3        0.00081   0.00089   0.00000   0.00000   0.00000
 184       14F-3        0.00000   0.00000   0.00028   0.00069  -0.00140
                          21        22        23        24        25
     Eigenvalues --     0.01540   0.01402   0.01389   0.01349   0.01082
   1 1   O  1S         -0.03520   0.00000   0.00000   0.00157  -0.23950
   2        2S          0.07208   0.00000   0.00000  -0.00481   0.77980
   3        3S          0.11439   0.00000   0.00000  -0.00437   0.65783
   4        4S         -0.79732   0.00000   0.00000   0.01177  -1.19452
   5        5S         -0.45138   0.00000   0.00000   0.00548  -0.29151
   6        6PX         0.00000  -0.10578   0.23962   0.00000   0.00000
   7        6PY         0.00137   0.00000   0.00000   0.30573   0.00429
   8        6PZ         0.30166   0.00000   0.00000  -0.00437   0.20615
   9        7PX         0.00000  -0.08082   0.18203   0.00000   0.00000
  10        7PY         0.00085   0.00000   0.00000   0.16466   0.00238
  11        7PZ         0.29742   0.00000   0.00000  -0.00266  -0.03029
  12        8PX         0.00000   0.05728  -0.13162   0.00000   0.00000
  13        8PY         0.00054   0.00000   0.00000  -0.18579  -0.00049
  14        8PZ         0.04045   0.00000   0.00000   0.00251  -0.09969
  15        9PX         0.00000   0.01289  -0.02987   0.00000   0.00000
  16        9PY         0.00097   0.00000   0.00000   0.00160  -0.00109
  17        9PZ         0.05789   0.00000   0.00000  -0.00018  -0.00028
  18       10D 0        0.05486   0.00000   0.00000  -0.00071  -0.01838
  19       10D+1        0.00000  -0.01634   0.03696   0.00000   0.00000
  20       10D-1       -0.00024   0.00000   0.00000  -0.00794  -0.00010
  21       10D+2        0.01333   0.00000   0.00000  -0.00029  -0.02068
  22       10D-2        0.00000  -0.02168  -0.00986   0.00000   0.00000
  23       11D 0        0.08920   0.00000   0.00000  -0.00138  -0.06609
  24       11D+1        0.00000  -0.03018   0.06827   0.00000   0.00000
  25       11D-1       -0.00045   0.00000   0.00000  -0.04728  -0.00124
  26       11D+2        0.04536   0.00000   0.00000  -0.00102  -0.00694
  27       11D-2        0.00000  -0.06887  -0.03134   0.00000   0.00000
  28       12D 0        0.02188   0.00000   0.00000  -0.00087  -0.05124
  29       12D+1        0.00000   0.00643  -0.01440   0.00000   0.00000
  30       12D-1       -0.00068   0.00000   0.00000  -0.05199  -0.00173
  31       12D+2        0.01860   0.00000   0.00000  -0.00033   0.01144
  32       12D-2        0.00000  -0.05020  -0.02306   0.00000   0.00000
  33       13F 0       -0.01009   0.00000   0.00000   0.00014   0.00126
  34       13F+1        0.00000   0.00271  -0.00605   0.00000   0.00000
  35       13F-1        0.00005   0.00000   0.00000   0.00574   0.00013
  36       13F+2       -0.00439   0.00000   0.00000   0.00009   0.00209
  37       13F-2        0.00000   0.00498   0.00224   0.00000   0.00000
  38       13F+3        0.00000   0.00027  -0.00071   0.00000   0.00000
  39       13F-3       -0.00002   0.00000   0.00000  -0.00140  -0.00002
  40       14F 0       -0.02594   0.00000   0.00000   0.00036   0.02175
  41       14F+1        0.00000   0.00433  -0.00973   0.00000   0.00000
  42       14F-1       -0.00010   0.00000   0.00000   0.00416   0.00011
  43       14F+2       -0.00038   0.00000   0.00000   0.00002  -0.00157
  44       14F-2        0.00000   0.02585   0.01181   0.00000   0.00000
  45       14F+3        0.00000  -0.00258   0.00609   0.00000   0.00000
  46       14F-3        0.00013   0.00000   0.00000   0.01273   0.00014
  47 2   C  1S         -0.03837   0.00000   0.00000   0.00151   0.00896
  48        2S          0.16688   0.00000   0.00000  -0.00723   0.05526
  49        3S          0.11733   0.00000   0.00000  -0.00394   0.05487
  50        4S         -0.13545   0.00000   0.00000  -0.00136   0.20191
  51        5S          0.06133   0.00000   0.00000  -0.00113   0.06159
  52        6PX         0.00000   0.05055  -0.11033   0.00000   0.00000
  53        6PY         0.00393   0.00000   0.00000   0.22393   0.00072
  54        6PZ         0.33376   0.00000   0.00000  -0.00120  -0.11721
  55        7PX         0.00000   0.07390  -0.16144   0.00000   0.00000
  56        7PY         0.00865   0.00000   0.00000   0.49026   0.00468
  57        7PZ         0.50219   0.00000   0.00000   0.00097  -0.00739
  58        8PX         0.00000   0.06706  -0.15099   0.00000   0.00000
  59        8PY         0.00783   0.00000   0.00000   0.44651  -0.00289
  60        8PZ         0.44677   0.00000   0.00000  -0.00341  -0.03185
  61        9PX         0.00000   0.00337  -0.00716   0.00000   0.00000
  62        9PY        -0.00036   0.00000   0.00000  -0.00694   0.00037
  63        9PZ         0.02003   0.00000   0.00000  -0.00018   0.00471
  64       10D 0        0.05985   0.00000   0.00000  -0.00123  -0.02917
  65       10D+1        0.00000   0.04393  -0.10015   0.00000   0.00000
  66       10D-1       -0.00104   0.00000   0.00000  -0.08545  -0.00052
  67       10D+2        0.04693   0.00000   0.00000  -0.00066  -0.02691
  68       10D-2        0.00000  -0.08378  -0.03794   0.00000   0.00000
  69       11D 0        0.19008   0.00000   0.00000  -0.00303  -0.12521
  70       11D+1        0.00000   0.08434  -0.19386   0.00000   0.00000
  71       11D-1       -0.00471   0.00000   0.00000  -0.47545  -0.00590
  72       11D+2        0.18543   0.00000   0.00000  -0.00282  -0.04145
  73       11D-2        0.00000  -0.12868  -0.05926   0.00000   0.00000
  74       12D 0        0.04919   0.00000   0.00000  -0.00150   0.03125
  75       12D+1        0.00000   0.00320  -0.00625   0.00000   0.00000
  76       12D-1       -0.00278   0.00000   0.00000  -0.19252  -0.00055
  77       12D+2        0.04386   0.00000   0.00000  -0.00120   0.00588
  78       12D-2        0.00000   0.02344   0.01088   0.00000   0.00000
  79       13F 0       -0.01367   0.00000   0.00000   0.00058  -0.00503
  80       13F+1        0.00000   0.00303  -0.00629   0.00000   0.00000
  81       13F-1        0.00106   0.00000   0.00000   0.04341  -0.00036
  82       13F+2       -0.01571   0.00000   0.00000   0.00006  -0.00678
  83       13F-2        0.00000   0.02744   0.01258   0.00000   0.00000
  84       13F+3        0.00000   0.01073  -0.02448   0.00000   0.00000
  85       13F-3       -0.00007   0.00000   0.00000  -0.01161  -0.00035
  86       14F 0       -0.07056   0.00000   0.00000   0.00150  -0.05242
  87       14F+1        0.00000   0.02009  -0.04455   0.00000   0.00000
  88       14F-1       -0.00214   0.00000   0.00000  -0.12407  -0.00357
  89       14F+2       -0.07432   0.00000   0.00000   0.00097  -0.00420
  90       14F-2        0.00000   0.05838   0.02744   0.00000   0.00000
  91       14F+3        0.00000   0.00299  -0.00811   0.00000   0.00000
  92       14F-3       -0.00121   0.00000   0.00000  -0.07186  -0.00073
  93 3   F  1S          0.01431   0.00000   0.00000   0.04899  -0.02360
  94        2S         -0.02518   0.00000   0.00000  -0.12123   0.05742
  95        3S         -0.03892   0.00000   0.00000  -0.13571   0.06018
  96        4S          0.35487   0.00000   0.00000   0.69725  -0.11964
  97        5S          0.24478   0.00000   0.00000   0.54374  -0.00796
  98        6PX         0.00000  -0.25309  -0.55121   0.00000   0.00000
  99        6PY        -0.08974   0.00000   0.00000   0.34252   0.03570
 100        6PZ         0.32709   0.00000   0.00000  -0.00497  -0.12046
 101        7PX         0.00000  -0.07708  -0.16171   0.00000   0.00000
 102        7PY         0.01619   0.00000   0.00000   0.17973   0.00589
 103        7PZ         0.14016   0.00000   0.00000   0.06090  -0.02180
 104        8PX         0.00000   0.26418   0.67130   0.00000   0.00000
 105        8PY         0.20036   0.00000   0.00000  -0.25412  -0.05160
 106        8PZ        -0.26184   0.00000   0.00000   0.29611   0.14409
 107        9PX         0.00000   0.04252   0.10224   0.00000   0.00000
 108        9PY         0.05618   0.00000   0.00000   0.05516  -0.01286
 109        9PZ        -0.00053   0.00000   0.00000   0.05149   0.02206
 110       10D 0       -0.00134   0.00000   0.00000   0.00286   0.00044
 111       10D+1        0.00000   0.01569   0.00228   0.00000   0.00000
 112       10D-1       -0.01473   0.00000   0.00000  -0.02600   0.01748
 113       10D+2        0.00495   0.00000   0.00000   0.00987  -0.00159
 114       10D-2        0.00000   0.00167   0.01619   0.00000   0.00000
 115       11D 0        0.00306   0.00000   0.00000   0.00500  -0.00214
 116       11D+1        0.00000   0.04210   0.00974   0.00000   0.00000
 117       11D-1       -0.02566   0.00000   0.00000  -0.04742   0.05157
 118       11D+2        0.01053   0.00000   0.00000   0.00695  -0.00940
 119       11D-2        0.00000   0.00666   0.04957   0.00000   0.00000
 120       12D 0       -0.00987   0.00000   0.00000   0.06033  -0.00208
[...]
 115       11D 0        0.05005  -0.04831   0.00000  -0.06891   0.01090
 116       11D+1        0.00000   0.00000  -0.11041   0.00000   0.00000
 117       11D-1        0.07056  -0.08593   0.00000  -0.03417  -0.01757
 118       11D+2       -0.09222   0.05939   0.00000   0.02356   0.03579
 119       11D-2        0.00000   0.00000   0.02370   0.00000   0.00000
 120       12D 0        0.44790   0.08434   0.00000   0.17909  -0.52577
 121       12D+1        0.00000   0.00000   0.26172   0.00000   0.00000
 122       12D-1        0.73702   0.45827   0.00000  -0.00525  -0.30132
 123       12D+2        0.11981  -0.11529   0.00000  -0.19190  -0.10587
 124       12D-2        0.00000   0.00000  -0.00611   0.00000   0.00000
 125       13F 0        0.00382   0.02220   0.00000  -0.01396   0.00304
 126       13F+1        0.00000   0.00000   0.00424   0.00000   0.00000
 127       13F-1       -0.04909   0.02404   0.00000   0.00320   0.01134
 128       13F+2        0.02568  -0.03442   0.00000   0.00066  -0.00612
 129       13F-2        0.00000   0.00000   0.01558   0.00000   0.00000
 130       13F+3        0.00000   0.00000   0.00790   0.00000   0.00000
 131       13F-3       -0.01010  -0.01864   0.00000   0.01624  -0.00902
 132       14F 0       -0.01858  -0.05175   0.00000   0.04409  -0.02081
 133       14F+1        0.00000   0.00000  -0.00232   0.00000   0.00000
 134       14F-1        0.15991  -0.05377   0.00000   0.00052  -0.06827
 135       14F+2       -0.07965   0.06359   0.00000  -0.01263   0.02726
 136       14F-2        0.00000   0.00000  -0.04223   0.00000   0.00000
 137       14F+3        0.00000   0.00000  -0.00796   0.00000   0.00000
 138       14F-3        0.01971   0.04211   0.00000  -0.04793   0.01580
 139 4   F  1S          0.09064  -0.11544   0.00000   0.01867   0.00630
 140        2S          0.40934  -0.49652   0.00000   0.07126  -0.00083
 141        3S         -0.07340   0.12183   0.00000  -0.02568  -0.03678
 142        4S         -1.40464   3.38884   0.00000  -1.69251   0.46184
 143        5S          1.65328   6.28882   0.00000   2.55291   2.85618
 144        6PX         0.00000   0.00000  -0.00372   0.00000   0.00000
 145        6PY         0.00255  -0.00733   0.00000  -0.01176  -0.01192
 146        6PZ         0.01783   0.00403   0.00000  -0.00317   0.00703
 147        7PX         0.00000   0.00000   0.00861   0.00000   0.00000
 148        7PY         0.00049   0.02004   0.00000   0.09683   0.06033
 149        7PZ        -0.09325  -0.01218   0.00000  -0.03128  -0.06050
 150        8PX         0.00000   0.00000   0.12814   0.00000   0.00000
 151        8PY         0.55000  -1.25461   0.00000   0.09857  -0.30764
 152        8PZ        -1.59370   1.33187   0.00000  -0.51135   1.43059
 153        9PX         0.00000   0.00000  -0.07411   0.00000   0.00000
 154        9PY        -1.78689  -1.38400   0.00000  -0.24494   0.64413
 155        9PZ         1.69810   3.28552   0.00000   2.34230   0.86244
 156       10D 0        0.00996   0.01312   0.00000   0.02022   0.00402
 157       10D+1        0.00000   0.00000   0.03117   0.00000   0.00000
 158       10D-1       -0.01343  -0.02376   0.00000  -0.00403   0.00195
 159       10D+2       -0.02650  -0.01819   0.00000  -0.00562   0.01089
 160       10D-2        0.00000   0.00000   0.01025   0.00000   0.00000
 161       11D 0       -0.05105  -0.04618   0.00000  -0.06877  -0.01186
 162       11D+1        0.00000   0.00000  -0.11059   0.00000   0.00000
 163       11D-1        0.07657   0.08144   0.00000   0.03667  -0.01466
 164       11D+2        0.09779   0.05520   0.00000   0.02409  -0.03417
 165       11D-2        0.00000   0.00000  -0.02373   0.00000   0.00000
 166       12D 0       -0.43248   0.10370   0.00000   0.17793   0.51872
 167       12D+1        0.00000   0.00000   0.26263   0.00000   0.00000
 168       12D-1        0.71054  -0.50959   0.00000   0.01537  -0.30384
 169       12D+2       -0.12617  -0.12640   0.00000  -0.17880   0.10334
 170       12D-2        0.00000   0.00000   0.00460   0.00000   0.00000
 171       13F 0       -0.00423   0.02224   0.00000  -0.01408  -0.00309
 172       13F+1        0.00000   0.00000   0.00430   0.00000   0.00000
 173       13F-1       -0.04996  -0.02167   0.00000  -0.00285   0.01130
 174       13F+2       -0.02784  -0.03342   0.00000   0.00068   0.00553
 175       13F-2        0.00000   0.00000  -0.01536   0.00000   0.00000
 176       13F+3        0.00000   0.00000   0.00782   0.00000   0.00000
 177       13F-3       -0.00886   0.01940   0.00000  -0.01629  -0.00860
 178       14F 0        0.02021  -0.05313   0.00000   0.04480   0.02116
 179       14F+1        0.00000   0.00000  -0.00259   0.00000   0.00000
 180       14F-1        0.16199   0.04464   0.00000  -0.00051  -0.06757
 181       14F+2        0.08514   0.05804   0.00000  -0.01114  -0.02505
 182       14F-2        0.00000   0.00000   0.04139   0.00000   0.00000
 183       14F+3        0.00000   0.00000  -0.00829   0.00000   0.00000
 184       14F-3        0.01651  -0.04267   0.00000   0.04718   0.01420
                         181       182       183       184
     Eigenvalues --     0.00000   0.00000   0.00000   0.00000
   1 1   O  1S          0.00000   0.00184   0.11151  -0.05272
   2        2S          0.00000   0.00888   0.55476  -0.26248
   3        3S          0.00000  -0.00141  -0.04544   0.02648
   4        4S          0.00000  -0.05971  -3.07448   6.90158
   5        5S          0.00000  -0.11199 -10.81443  16.07073
   6        6PX         0.01321   0.00000   0.00000   0.00000
   7        6PY         0.00000  -0.00217  -0.00030   0.00004
   8        6PZ         0.00000   0.00001   0.01233  -0.00407
   9        7PX        -0.03618   0.00000   0.00000   0.00000
  10        7PY         0.00000   0.00502   0.00222   0.00003
  11        7PZ         0.00000  -0.00122  -0.07100  -0.12528
  12        8PX         0.69305   0.00000   0.00000   0.00000
  13        8PY         0.00000  -1.80797   0.00482   0.01715
  14        8PZ         0.00000   0.03107   2.81782  -3.02680
  15        9PX        -1.56407   0.00000   0.00000   0.00000
  16        9PY         0.00000  -4.24658   0.02761   0.03087
  17        9PZ         0.00000   0.02960   2.88783  -3.44407
  18       10D 0        0.00000   0.00000   0.01907  -0.00426
  19       10D+1        0.00884   0.00000   0.00000   0.00000
  20       10D-1        0.00000   0.00110   0.00033   0.00004
  21       10D+2        0.00000  -0.00005   0.00015  -0.00661
  22       10D-2       -0.00007   0.00000   0.00000   0.00000
  23       11D 0        0.00000   0.00000  -0.14591   0.08778
  24       11D+1       -0.09556   0.00000   0.00000   0.00000
  25       11D-1        0.00000   0.08512  -0.00270  -0.00054
  26       11D+2        0.00000   0.00029  -0.00262   0.02774
  27       11D-2        0.00038   0.00000   0.00000   0.00000
  28       12D 0        0.00000  -0.01026  -0.80333   0.22959
  29       12D+1       -0.09049   0.00000   0.00000   0.00000
  30       12D-1        0.00000   1.07228  -0.00349  -0.00744
  31       12D+2        0.00000  -0.00014  -0.03661   0.11308
  32       12D-2        0.00050   0.00000   0.00000   0.00000
  33       13F 0        0.00000  -0.00018   0.00227  -0.02192
  34       13F+1        0.00306   0.00000   0.00000   0.00000
  35       13F-1        0.00000   0.01562  -0.00018  -0.00010
  36       13F+2        0.00000   0.00005  -0.00244   0.01966
  37       13F-2        0.00009   0.00000   0.00000   0.00000
  38       13F+3       -0.00209   0.00000   0.00000   0.00000
  39       13F-3        0.00000  -0.00153   0.00012  -0.00004
  40       14F 0        0.00000   0.00182   0.11193   0.04456
  41       14F+1        0.05014   0.00000   0.00000   0.00000
  42       14F-1        0.00000  -0.18164   0.00214   0.00076
  43       14F+2        0.00000  -0.00043   0.01344  -0.06739
  44       14F-2       -0.00051   0.00000   0.00000   0.00000
  45       14F+3        0.02101   0.00000   0.00000   0.00000
  46       14F-3        0.00000   0.01895  -0.00037   0.00008
  47 2   C  1S          0.00000   0.00240   0.06018  -0.07727
  48        2S          0.00000   0.01536   0.37207  -0.41202
  49        3S          0.00000   0.00800   0.20137   0.18905
  50        4S          0.00000   0.03582  -4.41672 -18.11771
  51        5S          0.00000  -0.05723  -0.41139  -9.92888
  52        6PX        -0.00495   0.00000   0.00000   0.00000
  53        6PY         0.00000   0.02213  -0.00069  -0.00002
  54        6PZ         0.00000  -0.00057  -0.01830   0.00521
  55        7PX        -0.07122   0.00000   0.00000   0.00000
  56        7PY         0.00000  -1.22679   0.04619   0.01196
  57        7PZ         0.00000   0.00819   1.65702  -0.12684
  58        8PX         0.69934   0.00000   0.00000   0.00000
  59        8PY         0.00000  -8.18304   0.23005   0.05663
  60        8PZ         0.00000   0.08626   7.32606  -5.02528
  61        9PX         3.15500   0.00000   0.00000   0.00000
  62        9PY         0.00000   2.37126   0.00153  -0.01791
  63        9PZ         0.00000   0.03300   1.95613   0.02613
  64       10D 0        0.00000   0.00003   0.01728   0.03495
  65       10D+1        0.00579   0.00000   0.00000   0.00000
  66       10D-1        0.00000  -0.01172  -0.00105  -0.00026
  67       10D+2        0.00000   0.00015  -0.00432  -0.02046
  68       10D-2       -0.00015   0.00000   0.00000   0.00000
  69       11D 0        0.00000   0.01085   0.40892  -0.96214
  70       11D+1       -0.31854   0.00000   0.00000   0.00000
  71       11D-1        0.00000   2.33127  -0.03754  -0.01497
  72       11D+2        0.00000   0.01730   0.87782   0.64223
  73       11D-2        0.00219   0.00000   0.00000   0.00000
  74       12D 0        0.00000   0.02254   0.47637  -2.76649
  75       12D+1       -0.33911   0.00000   0.00000   0.00000
  76       12D-1        0.00000   4.58772  -0.05544  -0.03949
  77       12D+2        0.00000   0.02745   0.93473   0.02708
  78       12D-2        0.00370   0.00000   0.00000   0.00000
  79       13F 0        0.00000  -0.00217  -0.05136  -0.02974
  80       13F+1       -0.04806   0.00000   0.00000   0.00000
  81       13F-1        0.00000  -0.00824  -0.00099   0.00061
  82       13F+2        0.00000  -0.00165  -0.04576  -0.02328
  83       13F-2       -0.00028   0.00000   0.00000   0.00000
  84       13F+3        0.04626   0.00000   0.00000   0.00000
  85       13F-3        0.00000   0.05922  -0.00071  -0.00001
  86       14F 0        0.00000   0.00105  -0.32839  -0.51834
  87       14F+1       -0.11064   0.00000   0.00000   0.00000
  88       14F-1        0.00000  -0.09532   0.00047  -0.00362
  89       14F+2        0.00000  -0.00628  -0.22654  -0.38702
  90       14F-2       -0.00283   0.00000   0.00000   0.00000
  91       14F+3       -0.22548   0.00000   0.00000   0.00000
  92       14F-3        0.00000  -0.07414  -0.00203  -0.00095
  93 3   F  1S          0.00000   0.09687  -0.02640  -0.01801
  94        2S          0.00000   0.44972  -0.14475  -0.10340
  95        3S          0.00000  -0.06223  -0.01409  -0.01022
  96        4S          0.00000  -3.07703   1.94019   1.82755
  97        5S          0.00000 -16.52008   8.37424   2.80485
  98        6PX         0.01731   0.00000   0.00000   0.00000
  99        6PY         0.00000  -0.01053   0.01028   0.00479
 100        6PZ         0.00000  -0.00623   0.00718   0.00280
 101        7PX        -0.06684   0.00000   0.00000   0.00000
 102        7PY         0.00000   0.04870  -0.04492  -0.01973
 103        7PZ         0.00000   0.02163  -0.02764  -0.00910
 104        8PX         0.00923   0.00000   0.00000   0.00000
 105        8PY         0.00000  -2.49751   1.50374   1.27644
 106        8PZ         0.00000  -1.45161   1.37310   0.94738
 107        9PX        -1.35175   0.00000   0.00000   0.00000
 108        9PY         0.00000  -5.57871   1.54240   0.56189
 109        9PZ         0.00000  -1.96735   1.23694  -1.07455
 110       10D 0        0.00000   0.00168  -0.00453   0.00009
 111       10D+1       -0.00746   0.00000   0.00000   0.00000
 112       10D-1        0.00000  -0.00511  -0.00404  -0.00553
 113       10D+2        0.00000   0.01878  -0.00439   0.00079
 114       10D-2       -0.00808   0.00000   0.00000   0.00000
 115       11D 0        0.00000  -0.00911   0.02375  -0.00692
 116       11D+1        0.02486   0.00000   0.00000   0.00000
 117       11D-1        0.00000  -0.01440   0.04805   0.03325
 118       11D+2        0.00000  -0.04207  -0.00079  -0.01198
 119       11D-2        0.03043   0.00000   0.00000   0.00000
 120       12D 0        0.00000   0.25626   0.09290   0.01035
 121       12D+1       -0.16717   0.00000   0.00000   0.00000
 122       12D-1        0.00000  -0.67825   0.47688   0.25419
 123       12D+2        0.00000   0.63649  -0.19657  -0.17553
 124       12D-2       -0.12734   0.00000   0.00000   0.00000
 125       13F 0        0.00000  -0.01345   0.00325   0.00518
 126       13F+1        0.00577   0.00000   0.00000   0.00000
 127       13F-1        0.00000  -0.00221  -0.01273  -0.00240
 128       13F+2        0.00000   0.00686   0.00921   0.00153
 129       13F-2        0.01509   0.00000   0.00000   0.00000
 130       13F+3        0.00777   0.00000   0.00000   0.00000
 131       13F-3        0.00000   0.00934  -0.00931  -0.00864
 132       14F 0        0.00000   0.06988  -0.02322  -0.02483
 133       14F+1       -0.02007   0.00000   0.00000   0.00000
 134       14F-1        0.00000   0.00019   0.06466   0.00600
 135       14F+2        0.00000   0.03169  -0.05761  -0.01959
 136       14F-2       -0.03045   0.00000   0.00000   0.00000
 137       14F+3       -0.01864   0.00000   0.00000   0.00000
 138       14F-3        0.00000   0.01249   0.01403   0.00549
 139 4   F  1S          0.00000  -0.09586  -0.02250  -0.01681
 140        2S          0.00000  -0.44710  -0.12628  -0.09791
 141        3S          0.00000   0.05884  -0.01614  -0.01102
 142        4S          0.00000   3.06632   1.78353   1.75904
 143        5S          0.00000  16.71568   7.62915   2.55248
 144        6PX         0.01760   0.00000   0.00000   0.00000
 145        6PY         0.00000  -0.01108  -0.00949  -0.00490
 146        6PZ         0.00000   0.00646   0.00679   0.00283
 147        7PX        -0.06765   0.00000   0.00000   0.00000
 148        7PY         0.00000   0.05348   0.04245   0.02112
 149        7PZ         0.00000  -0.02390  -0.02619  -0.00988
 150        8PX         0.00569   0.00000   0.00000   0.00000
 151        8PY         0.00000  -2.54942  -1.40740  -1.25892
 152        8PZ         0.00000   1.47200   1.27342   0.91403
 153        9PX        -1.35336   0.00000   0.00000   0.00000
 154        9PY         0.00000  -5.62053  -1.35608  -0.47960
 155        9PZ         0.00000   1.98318   1.12230  -1.08563
 156       10D 0        0.00000  -0.00196  -0.00455   0.00015
 157       10D+1       -0.00753   0.00000   0.00000   0.00000
 158       10D-1        0.00000  -0.00502   0.00396   0.00554
 159       10D+2        0.00000  -0.01878  -0.00413   0.00078
 160       10D-2        0.00841   0.00000   0.00000   0.00000
 161       11D 0        0.00000   0.01009   0.02308  -0.00725
 162       11D+1        0.02484   0.00000   0.00000   0.00000
 163       11D-1        0.00000  -0.01598  -0.04574  -0.03239
 164       11D+2        0.00000   0.04118  -0.00091  -0.01132
 165       11D-2       -0.03099   0.00000   0.00000   0.00000
 166       12D 0        0.00000  -0.25890   0.08452   0.00648
 167       12D+1       -0.16863   0.00000   0.00000   0.00000
 168       12D-1        0.00000  -0.68734  -0.44721  -0.24804
 169       12D+2        0.00000  -0.65161  -0.18114  -0.17671
 170       12D-2        0.13342   0.00000   0.00000   0.00000
 171       13F 0        0.00000   0.01321   0.00306   0.00524
 172       13F+1        0.00554   0.00000   0.00000   0.00000
 173       13F-1        0.00000  -0.00187   0.01247   0.00238
 174       13F+2        0.00000  -0.00604   0.00934   0.00191
 175       13F-2       -0.01536   0.00000   0.00000   0.00000
 176       13F+3        0.00768   0.00000   0.00000   0.00000
 177       13F-3        0.00000   0.00930   0.00926   0.00845
 178       14F 0        0.00000  -0.07003  -0.02222  -0.02476
 179       14F+1       -0.01963   0.00000   0.00000   0.00000
 180       14F-1        0.00000  -0.00097  -0.06197  -0.00548
 181       14F+2        0.00000  -0.03515  -0.05597  -0.01997
 182       14F-2        0.03176   0.00000   0.00000   0.00000
 183       14F+3       -0.01780   0.00000   0.00000   0.00000
 184       14F-3        0.00000   0.01421  -0.01459  -0.00526
          Condensed to atoms (all electrons):
              1          2          3          4
     1  O    7.950480   0.499870  -0.081380  -0.079603
     2  C    0.499870   4.520845   0.186328   0.185175
     3  F   -0.081380   0.186328   9.100711  -0.050486
     4  F   -0.079603   0.185175  -0.050486   9.108156
 Mulliken atomic charges:
              1
     1  O   -0.289367
     2  C    0.607781
     3  F   -0.155172
     4  F   -0.163243
 Sum of Mulliken atomic charges =   0.00000
 Mulliken charges with hydrogens summed into heavy atoms:
              1
     1  O   -0.289367
     2  C    0.607781
     3  F   -0.155172
     4  F   -0.163243
 Sum of Mulliken charges with hydrogens summed into heavy atoms =   0.00000
 Electronic spatial extent (au):  <R**2>=            238.7046
 Charge=              0.0000 electrons
 Dipole moment (field-independent basis, Debye):
    X=              0.0000    Y=             -0.0359    Z=             -1.0532  Tot=              1.0538
 Quadrupole moment (field-independent basis, Debye-Ang):
   XX=            -18.8956   YY=            -21.2950   ZZ=            -21.9020
   XY=              0.0000   XZ=              0.0000   YZ=              0.0450
 Traceless Quadrupole moment (field-independent basis, Debye-Ang):
   XX=              1.8019   YY=             -0.5975   ZZ=             -1.2044
   XY=              0.0000   XZ=              0.0000   YZ=              0.0450
 Octapole moment (field-independent basis, Debye-Ang**2):
  XXX=              0.0000  YYY=             -0.2341  ZZZ=             34.1986  XYY=              0.0000
  XXY=             -0.0677  XXZ=             10.3258  XZZ=              0.0000  YZZ=             -0.1172
  YYZ=             11.9832  XYZ=              0.0000
 Hexadecapole moment (field-independent basis, Debye-Ang**3):
 XXXX=            -13.4703 YYYY=            -79.2949 ZZZZ=           -132.2662 XXXY=              0.0000
 XXXZ=              0.0000 YYYX=              0.0000 YYYZ=              0.2805 ZZZX=              0.0000
 ZZZY=              0.3096 XXYY=            -15.5268 XXZZ=            -23.5478 YYZZ=            -36.0205
 XXYZ=              0.0851 YYXZ=              0.0000 ZZXY=              0.0000
 N-N= 1.202092667484D+02 E-N=-9.824713441928D+02  KE= 3.124037303196D+02
 1\1\GINC-TRAPISTA\SP\RQCISD-FC\Aug-CC-pVTZ\C1F2O1\BRUNS\26-Nov-2021\0\
 \# qcisd/aug-cc-pvtz nosymm density=current output=wfn\\f2co-wavefunct
 ion\\0,1\O,0,0.,0.,0.679927\C,0,0.,0.,-0.492216\F,0,0.,-1.048878,-1.26
 4305\F,0,0.,1.058878,-1.264305\\Version=EM64L-G09RevB.01\HF=-311.74166
 44\MP2=-312.6369979\MP3=-312.6246786\MP4D=-312.6401967\MP4DQ=-312.6241
 881\MP4SDQ=-312.6357171\QCISD=-312.6352329\RMSD=3.425e-09\Dipole=0.,-0
 .0141422,-0.4143464\Quadrupole=1.3396923,-0.4442305,-0.8954618,0.,0.,0
 .0334683\PG=CS [SG(C1F2O1)]\\@

 Writing a WFN file to GAUSSIAN.wfn.


 SCIENCE IS A VERY HUMAN FORM OF KNOWLEDGE.
 WE ARE ALWAYS AT THE BRINK OF THE KNOWN,
 WE ALWAYS FEEL FORWARD FOR WHAT IS HOPED.
 EVERY JUDGEMENT IN SCIENCE STANDS ON THE EDGE OF ERROR, AND IS PERSONAL.
 SCIENCE IS A TRIBUTE TO WHAT WE CAN KNOW ALTHOUGH WE ARE FALLIBLE.

                     -- J. BRONOWSKI
 Job cpu time:  0 days  1 hours 53 minutes 25.1 seconds.
 File lengths (MBytes):  RWF=  17462 Int=      0 D2E=      0 Chk=      3 Scr=      1
 Normal termination of Gaussian 09 at Fri Nov 26 22:25:15 2021.
