 f2co-wavefunction
GAUSSIAN            184 MOL ORBITALS    288 PRIMITIVES        4 NUCLEI
  O    1    (CENTRE  1)   0.00000000  0.00000000  1.30377308  CHARGE =  8.0
  C    2    (CENTRE  2)   0.00000000  0.00000000 -0.93015344  CHARGE =  6.0
  F    3    (CENTRE  3)   0.00000000 -2.00098943 -2.38919020  CHARGE =  9.0
  F    4    (CENTRE  4)   0.00000000  2.00098943 -2.38919020  CHARGE =  9.0
CENTRE ASSIGNMENTS    1  1  1  1  1  1  1  1  1  1  1  1  1  1  1  1  1  1  1  1
CENTRE ASSIGNMENTS    1  1  1  1  1  1  1  1  1  1  1  1  1  1  1  1  1  1  1  1
CENTRE ASSIGNMENTS    1  1  1  1  1  1  1  1  1  1  1  1  1  1  1  1  1  1  1  1
CENTRE ASSIGNMENTS    1  1  1  1  1  1  1  1  1  1  1  1  2  2  2  2  2  2  2  2
CENTRE ASSIGNMENTS    2  2  2  2  2  2  2  2  2  2  2  2  2  2  2  2  2  2  2  2
CENTRE ASSIGNMENTS    2  2  2  2  2  2  2  2  2  2  2  2  2  2  2  2  2  2  2  2
CENTRE ASSIGNMENTS    2  2  2  2  2  2  2  2  2  2  2  2  2  2  2  2  2  2  2  2
CENTRE ASSIGNMENTS    2  2  2  2  3  3  3  3  3  3  3  3  3  3  3  3  3  3  3  3
CENTRE ASSIGNMENTS    3  3  3  3  3  3  3  3  3  3  3  3  3  3  3  3  3  3  3  3
CENTRE ASSIGNMENTS    3  3  3  3  3  3  3  3  3  3  3  3  3  3  3  3  3  3  3  3
CENTRE ASSIGNMENTS    3  3  3  3  3  3  3  3  3  3  3  3  3  3  3  3  4  4  4  4
CENTRE ASSIGNMENTS    4  4  4  4  4  4  4  4  4  4  4  4  4  4  4  4  4  4  4  4
CENTRE ASSIGNMENTS    4  4  4  4  4  4  4  4  4  4  4  4  4  4  4  4  4  4  4  4
CENTRE ASSIGNMENTS    4  4  4  4  4  4  4  4  4  4  4  4  4  4  4  4  4  4  4  4
CENTRE ASSIGNMENTS    4  4  4  4  4  4  4  4
TYPE ASSIGNMENTS      1  1  1  1  1  1  1  1  1  1  1  1  1  1  1  1  2  2  2  3
TYPE ASSIGNMENTS      3  3  4  4  4  2  3  4  2  3  4  2  3  4  5  6  7  8  9 10
TYPE ASSIGNMENTS      5  6  7  8  9 10  5  6  7  8  9 10 11 12 13 17 14 15 18 19
TYPE ASSIGNMENTS     16 20 11 12 13 17 14 15 18 19 16 20  1  1  1  1  1  1  1  1
TYPE ASSIGNMENTS      1  1  1  1  1  1  1  1  2  2  2  3  3  3  4  4  4  2  3  4
TYPE ASSIGNMENTS      2  3  4  2  3  4  5  6  7  8  9 10  5  6  7  8  9 10  5  6
TYPE ASSIGNMENTS      7  8  9 10 11 12 13 17 14 15 18 19 16 20 11 12 13 17 14 15
TYPE ASSIGNMENTS     18 19 16 20  1  1  1  1  1  1  1  1  1  1  1  1  1  1  1  1
TYPE ASSIGNMENTS      2  2  2  3  3  3  4  4  4  2  3  4  2  3  4  2  3  4  5  6
TYPE ASSIGNMENTS      7  8  9 10  5  6  7  8  9 10  5  6  7  8  9 10 11 12 13 17
TYPE ASSIGNMENTS     14 15 18 19 16 20 11 12 13 17 14 15 18 19 16 20  1  1  1  1
TYPE ASSIGNMENTS      1  1  1  1  1  1  1  1  1  1  1  1  2  2  2  3  3  3  4  4
TYPE ASSIGNMENTS      4  2  3  4  2  3  4  2  3  4  5  6  7  8  9 10  5  6  7  8
TYPE ASSIGNMENTS      9 10  5  6  7  8  9 10 11 12 13 17 14 15 18 19 16 20 11 12
TYPE ASSIGNMENTS     13 17 14 15 18 19 16 20
EXPONENTS  0.1533000D+05 0.2299000D+04 0.5224000D+03 0.1473000D+03 0.4755000D+02
EXPONENTS  0.1676000D+02 0.6207000D+01 0.5224000D+03 0.1473000D+03 0.4755000D+02
EXPONENTS  0.1676000D+02 0.6207000D+01 0.6882000D+00 0.1752000D+01 0.2384000D+00
EXPONENTS  0.7376000D-01 0.3446000D+02 0.7749000D+01 0.2280000D+01 0.3446000D+02
EXPONENTS  0.7749000D+01 0.2280000D+01 0.3446000D+02 0.7749000D+01 0.2280000D+01
EXPONENTS  0.7156000D+00 0.7156000D+00 0.7156000D+00 0.2140000D+00 0.2140000D+00
EXPONENTS  0.2140000D+00 0.5974000D-01 0.5974000D-01 0.5974000D-01 0.2314000D+01
EXPONENTS  0.2314000D+01 0.2314000D+01 0.2314000D+01 0.2314000D+01 0.2314000D+01
EXPONENTS  0.6450000D+00 0.6450000D+00 0.6450000D+00 0.6450000D+00 0.6450000D+00
EXPONENTS  0.6450000D+00 0.2140000D+00 0.2140000D+00 0.2140000D+00 0.2140000D+00
EXPONENTS  0.2140000D+00 0.2140000D+00 0.1428000D+01 0.1428000D+01 0.1428000D+01
EXPONENTS  0.1428000D+01 0.1428000D+01 0.1428000D+01 0.1428000D+01 0.1428000D+01
EXPONENTS  0.1428000D+01 0.1428000D+01 0.5000000D+00 0.5000000D+00 0.5000000D+00
EXPONENTS  0.5000000D+00 0.5000000D+00 0.5000000D+00 0.5000000D+00 0.5000000D+00
EXPONENTS  0.5000000D+00 0.5000000D+00 0.8236000D+04 0.1235000D+04 0.2808000D+03
EXPONENTS  0.7927000D+02 0.2559000D+02 0.8997000D+01 0.3319000D+01 0.2808000D+03
EXPONENTS  0.7927000D+02 0.2559000D+02 0.8997000D+01 0.3319000D+01 0.3643000D+00
EXPONENTS  0.9059000D+00 0.1285000D+00 0.4402000D-01 0.1871000D+02 0.4133000D+01
EXPONENTS  0.1200000D+01 0.1871000D+02 0.4133000D+01 0.1200000D+01 0.1871000D+02
EXPONENTS  0.4133000D+01 0.1200000D+01 0.3827000D+00 0.3827000D+00 0.3827000D+00
EXPONENTS  0.1209000D+00 0.1209000D+00 0.1209000D+00 0.3569000D-01 0.3569000D-01
EXPONENTS  0.3569000D-01 0.1097000D+01 0.1097000D+01 0.1097000D+01 0.1097000D+01
EXPONENTS  0.1097000D+01 0.1097000D+01 0.3180000D+00 0.3180000D+00 0.3180000D+00
EXPONENTS  0.3180000D+00 0.3180000D+00 0.3180000D+00 0.1000000D+00 0.1000000D+00
EXPONENTS  0.1000000D+00 0.1000000D+00 0.1000000D+00 0.1000000D+00 0.7610000D+00
EXPONENTS  0.7610000D+00 0.7610000D+00 0.7610000D+00 0.7610000D+00 0.7610000D+00
EXPONENTS  0.7610000D+00 0.7610000D+00 0.7610000D+00 0.7610000D+00 0.2680000D+00
EXPONENTS  0.2680000D+00 0.2680000D+00 0.2680000D+00 0.2680000D+00 0.2680000D+00
EXPONENTS  0.2680000D+00 0.2680000D+00 0.2680000D+00 0.2680000D+00 0.1950000D+05
EXPONENTS  0.2923000D+04 0.6645000D+03 0.1875000D+03 0.6062000D+02 0.2142000D+02
EXPONENTS  0.7950000D+01 0.6645000D+03 0.1875000D+03 0.6062000D+02 0.2142000D+02
EXPONENTS  0.7950000D+01 0.8815000D+00 0.2257000D+01 0.3041000D+00 0.9158000D-01
EXPONENTS  0.4388000D+02 0.9926000D+01 0.2930000D+01 0.4388000D+02 0.9926000D+01
EXPONENTS  0.2930000D+01 0.4388000D+02 0.9926000D+01 0.2930000D+01 0.9132000D+00
EXPONENTS  0.9132000D+00 0.9132000D+00 0.2672000D+00 0.2672000D+00 0.2672000D+00
EXPONENTS  0.7361000D-01 0.7361000D-01 0.7361000D-01 0.3107000D+01 0.3107000D+01
EXPONENTS  0.3107000D+01 0.3107000D+01 0.3107000D+01 0.3107000D+01 0.8550000D+00
EXPONENTS  0.8550000D+00 0.8550000D+00 0.8550000D+00 0.8550000D+00 0.8550000D+00
EXPONENTS  0.2920000D+00 0.2920000D+00 0.2920000D+00 0.2920000D+00 0.2920000D+00
EXPONENTS  0.2920000D+00 0.1917000D+01 0.1917000D+01 0.1917000D+01 0.1917000D+01
EXPONENTS  0.1917000D+01 0.1917000D+01 0.1917000D+01 0.1917000D+01 0.1917000D+01
EXPONENTS  0.1917000D+01 0.7240000D+00 0.7240000D+00 0.7240000D+00 0.7240000D+00
EXPONENTS  0.7240000D+00 0.7240000D+00 0.7240000D+00 0.7240000D+00 0.7240000D+00
EXPONENTS  0.7240000D+00 0.1950000D+05 0.2923000D+04 0.6645000D+03 0.1875000D+03
EXPONENTS  0.6062000D+02 0.2142000D+02 0.7950000D+01 0.6645000D+03 0.1875000D+03
EXPONENTS  0.6062000D+02 0.2142000D+02 0.7950000D+01 0.8815000D+00 0.2257000D+01
EXPONENTS  0.3041000D+00 0.9158000D-01 0.4388000D+02 0.9926000D+01 0.2930000D+01
EXPONENTS  0.4388000D+02 0.9926000D+01 0.2930000D+01 0.4388000D+02 0.9926000D+01
EXPONENTS  0.2930000D+01 0.9132000D+00 0.9132000D+00 0.9132000D+00 0.2672000D+00
EXPONENTS  0.2672000D+00 0.2672000D+00 0.7361000D-01 0.7361000D-01 0.7361000D-01
EXPONENTS  0.3107000D+01 0.3107000D+01 0.3107000D+01 0.3107000D+01 0.3107000D+01
EXPONENTS  0.3107000D+01 0.8550000D+00 0.8550000D+00 0.8550000D+00 0.8550000D+00
EXPONENTS  0.8550000D+00 0.8550000D+00 0.2920000D+00 0.2920000D+00 0.2920000D+00
EXPONENTS  0.2920000D+00 0.2920000D+00 0.2920000D+00 0.1917000D+01 0.1917000D+01
EXPONENTS  0.1917000D+01 0.1917000D+01 0.1917000D+01 0.1917000D+01 0.1917000D+01
EXPONENTS  0.1917000D+01 0.1917000D+01 0.1917000D+01 0.7240000D+00 0.7240000D+00
EXPONENTS  0.7240000D+00 0.7240000D+00 0.7240000D+00 0.7240000D+00 0.7240000D+00
EXPONENTS  0.7240000D+00 0.7240000D+00 0.7240000D+00
MO    1     MO 0.0        OCC NO =    2.0000068  ORB. ENERGY =    0.000000
 -0.32944541D+00 -0.61403208D+00 -0.10411777D+01 -0.15757117D+01 -0.19655761D+01
 -0.16867568D+01 -0.64593823D+00 -0.41378234D-04 -0.44396130D-03 -0.16365249D-02
 -0.47851029D-02 -0.57662817D-02  0.69460973D-02 -0.29626942D-01  0.52441894D-03
 -0.44782286D-04  0.19722768D-13  0.19124451D-13  0.12901241D-13 -0.18628538D-12
 -0.18063416D-12 -0.12185474D-12  0.19656631D-01  0.19060320D-01  0.12857980D-01
  0.51282785D-14 -0.24934593D-14  0.23923379D-02 -0.78070667D-14  0.34833363D-13
  0.65793053D-03 -0.59930705D-15  0.21312738D-14  0.14375355D-04  0.12158274D-02
  0.64237467D-03 -0.18582021D-02 -0.31664155D-14 -0.23388796D-13  0.33253518D-13
  0.53093480D-04 -0.32767867D-04 -0.20325613D-04  0.88778020D-15  0.85717674D-14
 -0.26069305D-13  0.50367350D-04 -0.15129228D-05 -0.48854427D-04 -0.31407605D-15
  0.37903791D-14 -0.89951854D-14 -0.43067532D-14 -0.33281433D-14 -0.47978187D-03
 -0.28839566D-14  0.23579729D-13  0.93467100D-03  0.15804216D-13 -0.13595299D-13
  0.50467461D-03 -0.22245796D-14  0.14323807D-14  0.21343606D-15  0.12427272D-04
  0.97928637D-15 -0.11786855D-13 -0.27190194D-04 -0.52764285D-14  0.11146547D-13
 -0.10091622D-04  0.28896102D-15  0.23531214D+00  0.43866923D+00  0.74141077D+00
  0.11144787D+01  0.13689374D+01  0.11553349D+01  0.43443609D+00  0.26086627D-04
  0.19498137D-03  0.72868991D-03  0.20329314D-02  0.27235676D-02 -0.32160255D-02
  0.19029662D-01 -0.55082967D-04  0.14706303D-04  0.17165304D-13  0.16093563D-13
  0.11459576D-13  0.33702173D-13  0.31597929D-13  0.22499608D-13 -0.39284850D-02
 -0.36832044D-02 -0.26226610D-02  0.15891798D-13 -0.11418022D-12  0.42974546D-03
  0.41483264D-14 -0.81513265D-14  0.78698305D-04  0.15284798D-15 -0.13075508D-14
  0.69559144D-06 -0.92020181D-03  0.42266075D-03  0.49754106D-03  0.15883435D-14
  0.99845963D-15  0.15941974D-12  0.21630273D-03 -0.11153240D-03 -0.10477034D-03
  0.22635053D-14  0.63334104D-14  0.10507552D-12  0.11270168D-06 -0.26125069D-05
  0.24998052D-05  0.29146637D-15  0.55425742D-15 -0.43711291D-14 -0.10404504D-14
 -0.48743108D-15  0.53248516D-03 -0.58026863D-15  0.11440544D-12 -0.30431260D-03
  0.37016197D-14 -0.11294314D-12 -0.12931429D-02 -0.25653989D-14 -0.63523026D-15
  0.15148346D-13 -0.89043255D-04  0.32987151D-15  0.76025389D-14 -0.10353200D-04
  0.15758193D-14 -0.53047577D-13  0.27748296D-03 -0.79078545D-15 -0.94744066D-01
 -0.17660310D+00 -0.29938160D+00 -0.45330423D+00 -0.56673014D+00 -0.48748954D+00
 -0.18696273D+00 -0.11538382D-04 -0.15274658D-03 -0.55480336D-03 -0.16458137D-02
 -0.18964679D-02  0.23035427D-02 -0.82786363D-02  0.76327846D-03  0.25868387D-04
  0.90960057D-13  0.88956950D-13  0.58777618D-13 -0.72887487D-02 -0.71282370D-02
 -0.47099276D-02 -0.59571830D-02 -0.58259949D-02 -0.38494812D-02  0.20646916D-13
 -0.12569457D-02 -0.11432322D-02  0.32777466D-14 -0.15369919D-03 -0.92778372D-04
  0.20234561D-16 -0.36967853D-05 -0.19451875D-05  0.73937402D-04 -0.63728615D-04
 -0.10208788D-04 -0.28376741D-14  0.87455889D-15  0.65363136D-03  0.15044767D-03
 -0.72734783D-04 -0.77712884D-04  0.16157184D-14  0.13606953D-14 -0.77320344D-03
  0.43310300D-04 -0.22043250D-04 -0.21267050D-04  0.19711187D-15  0.17041919D-15
 -0.91851887D-05  0.16544837D-14 -0.16854402D-04 -0.34485708D-05 -0.35706123D-14
  0.22835467D-03  0.10629244D-03 -0.13928387D-14 -0.17779147D-03 -0.95946731D-04
 -0.43155982D-14  0.28233654D-15  0.55634696D-04  0.98859173D-04 -0.47218182D-15
  0.16612214D-03  0.20100398D-03 -0.37482781D-15 -0.33302623D-03 -0.49758150D-03
  0.36753356D-14 -0.94744066D-01 -0.17660310D+00 -0.29938160D+00 -0.45330424D+00
 -0.56673014D+00 -0.48748954D+00 -0.18696273D+00 -0.11538382D-04 -0.15274658D-03
 -0.55480336D-03 -0.16458137D-02 -0.18964679D-02  0.23035427D-02 -0.82786363D-02
  0.76327846D-03  0.25868387D-04  0.12363961D-12  0.12091684D-12  0.79894870D-13
  0.72887487D-02  0.71282370D-02  0.47099276D-02 -0.59571830D-02 -0.58259949D-02
 -0.38494812D-02  0.30454699D-13  0.12569457D-02 -0.11432322D-02  0.14651413D-14
  0.15369919D-03 -0.92778372D-04 -0.35378561D-15  0.36967853D-05 -0.19451875D-05
  0.73937402D-04 -0.63728615D-04 -0.10208788D-04 -0.34722211D-14  0.50896936D-15
 -0.65363136D-03  0.15044767D-03 -0.72734783D-04 -0.77712884D-04 -0.15036246D-14
  0.33030757D-14  0.77320344D-03  0.43310300D-04 -0.22043250D-04 -0.21267050D-04
  0.89893577D-15 -0.15905855D-14  0.91851887D-05 -0.23980975D-14  0.16854402D-04
 -0.34485708D-05  0.75870104D-15 -0.22835467D-03  0.10629244D-03  0.64355914D-14
  0.17779147D-03 -0.95946731D-04 -0.16213030D-13  0.88058136D-15 -0.55634696D-04
  0.98859173D-04 -0.90193742D-15 -0.16612214D-03  0.20100398D-03 -0.17398067D-14
  0.33302623D-03 -0.49758150D-03  0.19741960D-14
MO    2     MO 0.0        OCC NO =    2.0000038  ORB. ENERGY =    0.000000
 -0.36282147D+00 -0.67623957D+00 -0.11466592D+01 -0.17353468D+01 -0.21647084D+01
 -0.18576418D+01 -0.71137813D+00 -0.43197198D-04 -0.46347759D-03 -0.17084657D-02
 -0.49954534D-02 -0.60197642D-02  0.72514439D-02 -0.33121456D-01  0.70418101D-03
  0.10061319D-03  0.71689284D-13  0.69514491D-13  0.46894065D-13  0.20371788D-11
  0.19753782D-11  0.13325785D-11  0.84747811D-02  0.82176870D-02  0.55436031D-02
  0.16294164D-13  0.25435644D-12 -0.19116061D-02  0.50184162D-14 -0.21478634D-12
 -0.17680719D-03 -0.10958173D-15 -0.33669940D-13  0.12637419D-05  0.62506699D-03
  0.33879897D-04 -0.65894689D-03 -0.30596660D-14 -0.19240507D-14 -0.39971655D-12
 -0.35186340D-03 -0.37352282D-03  0.72538621D-03  0.25536839D-15 -0.62069691D-14
  0.14243367D-12 -0.39642979D-04  0.12611910D-04  0.27031068D-04  0.73721472D-15
 -0.88363991D-15  0.58581650D-13 -0.10652062D-15  0.30703813D-13  0.18436088D-03
  0.50835614D-14 -0.37678841D-12 -0.13943381D-03 -0.47639996D-14  0.28467697D-12
 -0.41364882D-03  0.11312878D-14 -0.56451378D-15 -0.79282075D-14 -0.66443857D-04
 -0.24502319D-15  0.15287528D-12  0.11067792D-03  0.19385645D-14 -0.12909066D-12
  0.88653653D-04 -0.10554645D-14 -0.17321152D+00 -0.32290116D+00 -0.54574696D+00
 -0.82035947D+00 -0.10076647D+01 -0.85043344D+00 -0.31978518D+00 -0.14930847D-04
 -0.11159883D-03 -0.41707032D-03 -0.11635612D-02 -0.15588513D-02  0.18407127D-02
 -0.14396558D-01  0.72190244D-04 -0.91796182D-05  0.28934292D-13  0.27127738D-13
  0.19316566D-13  0.12014913D-12  0.11264745D-12  0.80211693D-13  0.26112840D-02
  0.24482447D-02  0.17432961D-02  0.57545964D-14  0.94098684D-12 -0.20629964D-02
  0.47636351D-15 -0.13295336D-12 -0.32163501D-04  0.11436941D-15  0.14980384D-13
 -0.86333305D-05  0.85682839D-03  0.15171512D-03 -0.10085435D-02 -0.22553237D-14
  0.24591543D-14 -0.14789456D-11 -0.12973121D-03  0.36789513D-03 -0.23816392D-03
 -0.11045222D-14 -0.34725753D-14 -0.93467125D-12 -0.31029179D-05 -0.14126872D-04
  0.17229789D-04 -0.34521092D-15 -0.12668416D-15  0.66817170D-13 -0.11296505D-14
  0.58410644D-13 -0.28860256D-03  0.23138165D-14 -0.12266959D-11  0.56261555D-03
  0.10751351D-14  0.10514640D-11  0.30319213D-03  0.80363806D-15  0.65789576D-16
 -0.11056517D-12  0.35132799D-04  0.34243694D-15 -0.70366802D-13  0.72359793D-04
 -0.53980567D-15  0.40206232D-12 -0.17775819D-03 -0.57838469D-15  0.18601800D+00
  0.34673787D+00  0.58779794D+00  0.89000558D+00  0.11127030D+01  0.95712411D+00
  0.36707770D+00  0.19193365D-04  0.25408422D-03  0.92288011D-03  0.27377065D-02
  0.31546537D-02 -0.38317968D-02  0.16925005D-01 -0.86152745D-03 -0.28296040D-04
  0.53924429D-13  0.52736913D-13  0.34845508D-13  0.89147036D-02  0.87183854D-02
  0.57606059D-02  0.54906802D-02  0.53697653D-02  0.35480310D-02  0.13151819D-13
  0.83569955D-03  0.31718080D-03  0.56488787D-15  0.84922413D-04 -0.18711185D-04
 -0.37525866D-15 -0.15496306D-05  0.21283393D-04 -0.41198689D-04  0.16567261D-03
 -0.12447392D-03 -0.80866113D-14 -0.47932116D-14 -0.34774597D-03  0.40238684D-06
 -0.51914349D-04  0.51511962D-04  0.36044227D-15  0.25636736D-14  0.81684855D-04
 -0.16673987D-04  0.16190844D-04  0.48314262D-06 -0.60594768D-15 -0.13969790D-14
 -0.45939908D-05 -0.11968970D-14  0.10819215D-03 -0.11839168D-03  0.61065975D-14
  0.74856393D-04  0.56180743D-03 -0.25159064D-14 -0.39943283D-03 -0.20663238D-03
  0.27150296D-13  0.69057760D-15 -0.58403585D-04 -0.10397204D-04 -0.11667091D-15
 -0.13439167D-03 -0.29228640D-03 -0.19550619D-14  0.30960242D-03  0.32347801D-03
 -0.19490160D-14  0.18601800D+00  0.34673788D+00  0.58779795D+00  0.89000559D+00
  0.11127030D+01  0.95712412D+00  0.36707770D+00  0.19193365D-04  0.25408422D-03
  0.92288012D-03  0.27377065D-02  0.31546538D-02 -0.38317969D-02  0.16925005D-01
 -0.86152745D-03 -0.28296040D-04  0.37650228D-13  0.36821101D-13  0.24329258D-13
 -0.89147037D-02 -0.87183855D-02 -0.57606059D-02  0.54906803D-02  0.53697654D-02
  0.35480310D-02  0.74583035D-14 -0.83569955D-03  0.31718080D-03  0.30893396D-15
 -0.84922414D-04 -0.18711183D-04  0.11218205D-15  0.15496305D-05  0.21283393D-04
 -0.41198690D-04  0.16567261D-03 -0.12447392D-03  0.88531059D-14  0.39861531D-14
  0.34774597D-03  0.40238758D-06 -0.51914350D-04  0.51511963D-04 -0.24363197D-14
  0.77240329D-16 -0.81684853D-04 -0.16673987D-04  0.16190844D-04  0.48314285D-06
  0.59164694D-15  0.32909473D-16  0.45939902D-05  0.17577469D-14 -0.10819215D-03
 -0.11839168D-03 -0.10062113D-14 -0.74856397D-04  0.56180743D-03 -0.42670294D-14
  0.39943283D-03 -0.20663238D-03 -0.10206452D-13  0.27402566D-15  0.58403585D-04
 -0.10397204D-04 -0.68267761D-15  0.13439167D-03 -0.29228640D-03 -0.13939936D-15
 -0.30960242D-03  0.32347801D-03  0.25845734D-14
MO    3     MO 0.0        OCC NO =    2.0000022  ORB. ENERGY =    0.000000
 -0.13969455D-08 -0.26036767D-08 -0.44148998D-08 -0.66814814D-08 -0.83346214D-08
 -0.71523452D-08 -0.27389682D-08 -0.17218095D-12 -0.18473886D-11 -0.68098223D-11
 -0.19911521D-10 -0.23994351D-10  0.28903738D-10 -0.12829851D-09  0.42737632D-11
  0.13722776D-11  0.65722083D-14  0.63728313D-14  0.42990743D-14 -0.84440746D-03
 -0.81879119D-03 -0.55235170D-03  0.12382265D-10  0.12006632D-10  0.80996028D-11
  0.30587019D-14 -0.10949027D-03 -0.14790935D-10  0.16960585D-14  0.88573146D-04
 -0.13706656D-11  0.25609675D-15  0.14262662D-04 -0.12018092D-12  0.86235576D-13
 -0.17976230D-12  0.93526725D-13  0.96479957D-14  0.43036024D-14  0.16986911D-03
 -0.12834323D-11 -0.26638111D-11  0.39472434D-11  0.10932052D-14  0.46034453D-15
 -0.58510718D-04 -0.31331041D-13 -0.99902577D-13  0.13123362D-12  0.11094412D-15
 -0.53751377D-15 -0.24556791D-04  0.91844165D-15 -0.12403771D-04  0.21348110D-11
 -0.26945450D-14  0.16193597D-03 -0.37848390D-11 -0.60780012D-16 -0.12472466D-03
 -0.26195941D-11 -0.33310346D-14  0.52838383D-15  0.34803660D-05 -0.62730225D-12
 -0.94334334D-15 -0.65710825D-04  0.34887181D-12 -0.64180814D-15  0.55269727D-04
  0.15330349D-11 -0.44778328D-16 -0.13751253D-08 -0.25635106D-08 -0.43326821D-08
 -0.65128293D-08 -0.79998443D-08 -0.67515864D-08 -0.25387728D-08 -0.11246857D-12
 -0.84063289D-12 -0.31416370D-11 -0.87646782D-11 -0.11742252D-10  0.13865411D-10
 -0.11121035D-09 -0.85557063D-13 -0.18945566D-12 -0.15246512D-13 -0.14294574D-13
 -0.10178588D-13 -0.58394474D-04 -0.54748531D-04 -0.38984216D-04  0.21520492D-10
  0.20176829D-10  0.14367105D-10  0.21328533D-14 -0.38556605D-03 -0.89227255D-11
  0.40111133D-15  0.57231428D-04 -0.13766867D-11 -0.12685409D-15 -0.62991345D-05
 -0.13295626D-13  0.88662747D-11 -0.18372506D-11 -0.70290241D-11  0.83204366D-15
  0.83464013D-14  0.61641295D-03 -0.13140484D-12  0.14898139D-11 -0.13584091D-11
 -0.14639845D-15 -0.42922937D-14  0.38487014D-03 -0.28781459D-13  0.46893952D-13
 -0.18112492D-13  0.30991502D-16 -0.27757033D-15 -0.28185081D-04 -0.12124836D-14
 -0.25621010D-04 -0.38199855D-11  0.17600585D-14  0.51540169D-03  0.24812181D-12
  0.18773923D-14 -0.43853866D-03  0.11211835D-10 -0.14404437D-14 -0.19824789D-15
  0.44683441D-04 -0.15796975D-12  0.13680831D-14  0.30030360D-04  0.32332241D-12
 -0.77333946D-15 -0.16408068D-03  0.15058683D-12 -0.59127344D-15  0.42246140D+00
  0.78746879D+00  0.13349350D+01  0.20212722D+01  0.25270354D+01  0.21737036D+01
  0.83366211D+00  0.38769481D-04  0.51323533D-03  0.18641641D-02  0.55300077D-02
  0.63722170D-02 -0.77400066D-02  0.39146521D-01 -0.17192869D-03  0.83085969D-04
 -0.80281647D-13 -0.78513698D-13 -0.51877320D-13  0.97835022D-02  0.95680515D-02
  0.63220161D-02  0.74741868D-02  0.73095914D-02  0.48297561D-02 -0.14745900D-13
 -0.18199389D-03  0.15414935D-03 -0.58404319D-14  0.23280953D-03  0.39695006D-03
 -0.14761438D-16  0.21154666D-04  0.40909284D-05 -0.14703709D-03  0.16627817D-03
 -0.19241077D-04  0.28815218D-16 -0.25299180D-13  0.24844038D-03  0.15532313D-03
 -0.24643704D-03  0.91113901D-04 -0.22840385D-14 -0.84859644D-15 -0.51886266D-03
 -0.58527800D-04  0.13094645D-04  0.45433155D-04 -0.16567732D-14 -0.19116023D-14
  0.13148419D-03  0.69532189D-15 -0.27337039D-03  0.10406133D-04 -0.17435627D-14
  0.88495593D-03  0.18552129D-03 -0.34240299D-15 -0.64844759D-04 -0.21673969D-03
  0.28950236D-13  0.15133196D-14  0.51519759D-04  0.19495657D-04 -0.22857917D-14
 -0.20869962D-03 -0.31149299D-04 -0.22541672D-14  0.54140341D-04 -0.27337672D-04
 -0.44969900D-14 -0.42246141D+00 -0.78746879D+00 -0.13349350D+01 -0.20212722D+01
 -0.25270354D+01 -0.21737036D+01 -0.83366212D+00 -0.38769481D-04 -0.51323534D-03
 -0.18641641D-02 -0.55300078D-02 -0.63722170D-02  0.77400067D-02 -0.39146522D-01
  0.17192868D-03 -0.83085970D-04 -0.12186457D-12 -0.11918089D-12 -0.78747855D-13
  0.97835022D-02  0.95680515D-02  0.63220162D-02 -0.74741868D-02 -0.73095914D-02
 -0.48297561D-02 -0.26716866D-13 -0.18199390D-03 -0.15414934D-03 -0.78532147D-14
  0.23280953D-03 -0.39695006D-03 -0.14857011D-16  0.21154666D-04 -0.40909285D-05
  0.14703709D-03 -0.16627817D-03  0.19241076D-04 -0.27624327D-13  0.25402219D-14
  0.24844039D-03 -0.15532314D-03  0.24643704D-03 -0.91113900D-04  0.57475117D-14
 -0.43814266D-14 -0.51886267D-03  0.58527800D-04 -0.13094646D-04 -0.45433155D-04
  0.17398562D-14 -0.18878932D-14  0.13148420D-03 -0.98490486D-15 -0.27337039D-03
 -0.10406133D-04 -0.18543851D-14  0.88495593D-03 -0.18552129D-03  0.48090997D-14
 -0.64844761D-04  0.21673969D-03 -0.44193343D-14  0.13150792D-14  0.51519760D-04
 -0.19495658D-04 -0.20762145D-14 -0.20869962D-03  0.31149297D-04 -0.18690232D-14
  0.54140336D-04  0.27337678D-04  0.68562248D-14
MO    4     MO 0.0        OCC NO =    2.0000016  ORB. ENERGY =    0.000000
  0.98700915D-01  0.18396228D+00  0.31193389D+00  0.47207878D+00  0.58888106D+00
  0.50534756D+00  0.19352127D+00  0.12802598D-04  0.13736348D-03  0.50634765D-03
  0.14805308D-02  0.17841116D-02 -0.21491515D-02  0.91187930D-02 -0.43630775D-03
 -0.17910165D-03  0.17165998D-13  0.16645243D-13  0.11228783D-13 -0.51342614D-11
 -0.49785065D-11 -0.33584711D-11  0.53809569D-03  0.52177182D-03  0.35198419D-03
  0.32503862D-14 -0.65665771D-12  0.15774027D-02 -0.98882515D-14  0.54868828D-12
  0.13016054D-03 -0.76195327D-15  0.88950908D-13  0.19268174D-04  0.18188908D-03
  0.17284318D-04 -0.19917340D-03 -0.74693455D-14 -0.18555947D-13  0.10301411D-11
  0.72165554D-04  0.29022159D-03 -0.36238714D-03  0.32689559D-14  0.84441399D-14
 -0.36095486D-12 -0.11674218D-04  0.21186961D-04 -0.95127430D-05  0.40055970D-15
  0.42377384D-14 -0.15089600D-12 -0.21479634D-14 -0.82102333D-13 -0.25826149D-03
  0.62857580D-14  0.99018603D-12  0.52749692D-03  0.15813209D-15 -0.74387903D-12
  0.24728754D-03  0.68681337D-14  0.19277314D-14  0.21841629D-13  0.76259157D-04
 -0.79379166D-15 -0.40335191D-12 -0.14094564D-04 -0.49894025D-14  0.33782702D-12
 -0.21468291D-03 -0.30225056D-14  0.14813755D+00  0.27615824D+00  0.46674506D+00
  0.70160488D+00  0.86179593D+00  0.72732536D+00  0.27349333D+00  0.11530129D-04
  0.86180574D-04  0.32207648D-03  0.89854324D-03  0.12038002D-02 -0.14214636D-02
  0.11834120D-01  0.31106374D-04  0.25241434D-04  0.13535569D-14  0.12690456D-14
  0.90363609D-15 -0.36041094D-12 -0.33790817D-12 -0.24061075D-12 -0.23503490D-02
 -0.22036016D-02 -0.15690956D-02  0.19807829D-13 -0.23830606D-11  0.64268344D-03
  0.68498206D-14  0.35418771D-12  0.20768522D-03  0.23526835D-15 -0.39190722D-13
 -0.11731927D-05 -0.10799611D-02  0.34172991D-03  0.73823123D-03  0.18337674D-14
  0.24306794D-14  0.38129781D-11 -0.34150200D-04 -0.95908021D-04  0.13005822D-03
  0.27405958D-14  0.30925155D-14  0.23698868D-11  0.36729793D-05 -0.12790637D-04
  0.91176573D-05  0.25519331D-15  0.46581194D-15 -0.17557025D-12 -0.13577176D-14
 -0.15549064D-12  0.49046565D-03  0.76054120D-15  0.31742711D-11  0.18554912D-03
  0.33126115D-14 -0.27077992D-11 -0.16569461D-02 -0.16201634D-14 -0.12173014D-14
  0.27556387D-12  0.41966360D-04  0.11485553D-14  0.18377772D-12 -0.24421701D-04
  0.25033490D-14 -0.10104693D-11 -0.10147738D-03 -0.22151510D-14  0.36725257D+00
  0.68455942D+00  0.11604807D+01  0.17571248D+01  0.21967930D+01  0.18896359D+01
  0.72471603D+00  0.31591386D-04  0.41821080D-03  0.15190177D-02  0.45061375D-02
  0.51924133D-02 -0.63069593D-02  0.34361684D-01  0.25948601D-03  0.79554017D-04
  0.30315697D-13  0.29648090D-13  0.19589747D-13  0.62283757D-02  0.60912154D-02
  0.40247236D-02  0.38933633D-02  0.38076242D-02  0.25158583D-02  0.79058554D-14
 -0.55594273D-03 -0.65606521D-03 -0.18681676D-14  0.30490845D-03  0.15797527D-03
 -0.38460539D-15  0.48510687D-05  0.13268958D-04 -0.23033240D-03  0.17050243D-03
  0.59829977D-04  0.24917761D-14  0.22435174D-14  0.77956246D-03  0.25192365D-03
 -0.17940354D-03 -0.72520117D-04  0.21758888D-14  0.11540754D-14 -0.99767794D-03
 -0.43929707D-04  0.35098333D-04  0.88313745D-05 -0.19742146D-14 -0.13633396D-14
  0.62304134D-04 -0.53772706D-14  0.19463265D-04 -0.74875659D-04  0.16030544D-13
  0.27765320D-03  0.46417608D-03  0.10126723D-15 -0.33604300D-03 -0.23954910D-03
 -0.15324463D-13  0.14165745D-14  0.34158212D-04  0.10062191D-03 -0.26422780D-14
  0.10741600D-03  0.43101694D-04 -0.16074454D-14 -0.20989064D-03 -0.34496743D-03
 -0.29004741D-14  0.36725256D+00  0.68455941D+00  0.11604807D+01  0.17571247D+01
  0.21967929D+01  0.18896359D+01  0.72471602D+00  0.31591386D-04  0.41821079D-03
  0.15190177D-02  0.45061374D-02  0.51924132D-02 -0.63069592D-02  0.34361684D-01
  0.25948601D-03  0.79554016D-04  0.72055138D-13  0.70468352D-13  0.46561419D-13
 -0.62283756D-02 -0.60912153D-02 -0.40247235D-02  0.38933632D-02  0.38076242D-02
  0.25158583D-02  0.19169866D-13  0.55594273D-03 -0.65606521D-03 -0.50930278D-14
 -0.30490845D-03  0.15797526D-03 -0.67663566D-15 -0.48510684D-05  0.13268957D-04
 -0.23033240D-03  0.17050243D-03  0.59829977D-04 -0.14928244D-13  0.11389634D-16
 -0.77956246D-03  0.25192365D-03 -0.17940353D-03 -0.72520118D-04  0.16822748D-14
  0.15574617D-14  0.99767793D-03 -0.43929707D-04  0.35098333D-04  0.88313739D-05
  0.42320742D-14 -0.31220485D-14 -0.62304132D-04 -0.65541549D-14 -0.19463269D-04
 -0.74875659D-04  0.23807715D-13 -0.27765319D-03  0.46417608D-03 -0.41452506D-14
  0.33604300D-03 -0.23954910D-03 -0.19452719D-13  0.23664430D-14 -0.34158211D-04
  0.10062191D-03 -0.50292501D-14 -0.10741600D-03  0.43101694D-04 -0.20700790D-14
  0.20989064D-03 -0.34496743D-03  0.85079488D-14
MO    5     MO 0.0        OCC NO =    1.9861744  ORB. ENERGY =    0.000000
 -0.94176885D-02 -0.17553023D-01 -0.29763617D-01 -0.45044069D-01 -0.56188926D-01
 -0.48218458D-01 -0.18465108D-01 -0.15289246D-03 -0.16404358D-02 -0.60469552D-02
 -0.17680942D-01 -0.21306395D-01  0.25665811D-01  0.13487760D-01 -0.23478383D-03
 -0.19323812D-02  0.38476900D-13  0.37309650D-13  0.25168870D-13 -0.71497828D-12
 -0.69328842D-12 -0.46768827D-12 -0.67985709D-01 -0.65923269D-01 -0.44471448D-01
  0.12521833D-13 -0.27532695D-12 -0.12729166D-01  0.14221373D-13 -0.20715602D-13
  0.18610789D-02  0.71012652D-15  0.14032812D-13  0.22760124D-03 -0.38064202D-02
 -0.40682061D-02  0.78746263D-02  0.95470792D-14  0.99232913D-14  0.61353353D-13
 -0.40653940D-03  0.61749475D-03 -0.21095535D-03 -0.14606002D-14 -0.14387577D-13
  0.13359117D-13  0.95447858D-04  0.50219123D-03 -0.59763909D-03 -0.33497445D-15
 -0.57069978D-14 -0.23613339D-13 -0.17473692D-15 -0.10906363D-13 -0.15363795D-02
  0.53816641D-14  0.56653860D-13  0.33051111D-02 -0.48574534D-14 -0.23934771D-13
  0.13040274D-02 -0.62220740D-14 -0.11685790D-14 -0.61529115D-15  0.50873216D-03
 -0.27478004D-14 -0.35488450D-13 -0.22560331D-03  0.62535375D-14  0.37334323D-13
 -0.13005932D-02  0.21856686D-14 -0.17033357D-01 -0.31753609D-01 -0.53667926D-01
 -0.80672903D-01 -0.99092212D-01 -0.83630331D-01 -0.31447188D-01 -0.31173376D-03
 -0.23300167D-02 -0.87078045D-02 -0.24293419D-01 -0.32546484D-01  0.38431328D-01
  0.15336005D-01  0.22087565D-02  0.22858864D-03  0.63526439D-13  0.59560075D-13
  0.42410321D-13 -0.51735706D-13 -0.48505513D-13 -0.34538815D-13 -0.36061605D-01
 -0.33810047D-01 -0.24074768D-01  0.39525952D-14  0.41198078D-13 -0.52535001D-02
 -0.30553000D-14 -0.18564836D-13  0.15849196D-02 -0.69526316D-16 -0.51933169D-14
 -0.32836102D-05 -0.19114321D-01  0.94597465D-02  0.96545740D-02  0.90869577D-14
 -0.33170709D-14 -0.12406636D-12 -0.26255279D-02  0.11677647D-02  0.14577632D-02
  0.11892991D-14 -0.14728644D-13 -0.13431140D-12  0.82160536D-04 -0.96571471D-04
  0.14410935D-04  0.14763671D-15 -0.11556569D-14 -0.71325820D-14 -0.89019179D-15
  0.33274421D-13  0.33898818D-02  0.42036113D-14 -0.36226845D-13  0.34918526D-02
 -0.15330359D-14 -0.63596419D-13 -0.13661498D-01 -0.22830509D-14  0.40628756D-15
 -0.36532908D-13  0.27807356D-03  0.14806847D-14  0.22933580D-13  0.29777956D-03
 -0.26995474D-14  0.86665145D-13 -0.11320003D-02  0.83628473D-15 -0.89233135D-01
 -0.16633072D+00 -0.28196762D+00 -0.42693711D+00 -0.53376542D+00 -0.45913398D+00
 -0.17608776D+00 -0.12999456D-02 -0.17208846D-01 -0.62505659D-01 -0.18542186D+00
 -0.21366124D+00  0.25952340D+00  0.14929962D+00  0.67653088D-01  0.17088835D-02
  0.12614942D-12  0.12337138D-12  0.81516685D-13 -0.38250658D-01 -0.37408308D-01
 -0.24717251D-01 -0.13296271D+00 -0.13003462D+00 -0.85919373D-01  0.31630759D-13
 -0.36687578D-02 -0.27625670D-01  0.13322937D-14 -0.32582893D-02 -0.63765897D-02
  0.10874263D-15 -0.46979819D-04 -0.43411414D-04 -0.59732738D-02  0.73538049D-02
 -0.13805311D-02  0.86440320D-14  0.86465220D-14  0.13658753D-01 -0.29992404D-02
  0.41542214D-02 -0.11549810D-02  0.32323494D-14 -0.41047091D-15  0.75508740D-02
  0.21798932D-03 -0.20619468D-03 -0.11794640D-04 -0.81863809D-15 -0.78462628D-15
 -0.93288407D-03  0.20307680D-14  0.16684378D-02 -0.21653359D-02 -0.51748973D-14
 -0.64241582D-02 -0.23996226D-02 -0.91740679D-15  0.14188448D-02  0.88956303D-02
  0.16881930D-13 -0.53285315D-15  0.30030831D-03 -0.22486203D-03  0.15339095D-14
 -0.88310929D-03 -0.10278448D-02  0.64649925D-16 -0.17815650D-04  0.17024309D-02