 f2co-wavefunction
GAUSSIAN            184 MOL ORBITALS    288 PRIMITIVES        4 NUCLEI
  O    1    (CENTRE  1)   0.00000000  0.00000000  1.28487582  CHARGE =  8.0
  C    2    (CENTRE  2)   0.00000000  0.00000000 -0.93015344  CHARGE =  6.0
  F    3    (CENTRE  3)   0.00000000 -2.00098943 -2.38919020  CHARGE =  9.0
  F    4    (CENTRE  4)   0.00000000  2.00098943 -2.37029294  CHARGE =  9.0
CENTRE ASSIGNMENTS    1  1  1  1  1  1  1  1  1  1  1  1  1  1  1  1  1  1  1  1
CENTRE ASSIGNMENTS    1  1  1  1  1  1  1  1  1  1  1  1  1  1  1  1  1  1  1  1
CENTRE ASSIGNMENTS    1  1  1  1  1  1  1  1  1  1  1  1  1  1  1  1  1  1  1  1
CENTRE ASSIGNMENTS    1  1  1  1  1  1  1  1  1  1  1  1  2  2  2  2  2  2  2  2
CENTRE ASSIGNMENTS    2  2  2  2  2  2  2  2  2  2  2  2  2  2  2  2  2  2  2  2
CENTRE ASSIGNMENTS    2  2  2  2  2  2  2  2  2  2  2  2  2  2  2  2  2  2  2  2
CENTRE ASSIGNMENTS    2  2  2  2  2  2  2  2  2  2  2  2  2  2  2  2  2  2  2  2
CENTRE ASSIGNMENTS    2  2  2  2  3  3  3  3  3  3  3  3  3  3  3  3  3  3  3  3
CENTRE ASSIGNMENTS    3  3  3  3  3  3  3  3  3  3  3  3  3  3  3  3  3  3  3  3
CENTRE ASSIGNMENTS    3  3  3  3  3  3  3  3  3  3  3  3  3  3  3  3  3  3  3  3
CENTRE ASSIGNMENTS    3  3  3  3  3  3  3  3  3  3  3  3  3  3  3  3  4  4  4  4
CENTRE ASSIGNMENTS    4  4  4  4  4  4  4  4  4  4  4  4  4  4  4  4  4  4  4  4
CENTRE ASSIGNMENTS    4  4  4  4  4  4  4  4  4  4  4  4  4  4  4  4  4  4  4  4
CENTRE ASSIGNMENTS    4  4  4  4  4  4  4  4  4  4  4  4  4  4  4  4  4  4  4  4
CENTRE ASSIGNMENTS    4  4  4  4  4  4  4  4
TYPE ASSIGNMENTS      1  1  1  1  1  1  1  1  1  1  1  1  1  1  1  1  2  2  2  3
TYPE ASSIGNMENTS      3  3  4  4  4  2  3  4  2  3  4  2  3  4  5  6  7  8  9 10
TYPE ASSIGNMENTS      5  6  7  8  9 10  5  6  7  8  9 10 11 12 13 17 14 15 18 19
TYPE ASSIGNMENTS     16 20 11 12 13 17 14 15 18 19 16 20  1  1  1  1  1  1  1  1
TYPE ASSIGNMENTS      1  1  1  1  1  1  1  1  2  2  2  3  3  3  4  4  4  2  3  4
TYPE ASSIGNMENTS      2  3  4  2  3  4  5  6  7  8  9 10  5  6  7  8  9 10  5  6
TYPE ASSIGNMENTS      7  8  9 10 11 12 13 17 14 15 18 19 16 20 11 12 13 17 14 15
TYPE ASSIGNMENTS     18 19 16 20  1  1  1  1  1  1  1  1  1  1  1  1  1  1  1  1
TYPE ASSIGNMENTS      2  2  2  3  3  3  4  4  4  2  3  4  2  3  4  2  3  4  5  6
TYPE ASSIGNMENTS      7  8  9 10  5  6  7  8  9 10  5  6  7  8  9 10 11 12 13 17
TYPE ASSIGNMENTS     14 15 18 19 16 20 11 12 13 17 14 15 18 19 16 20  1  1  1  1
TYPE ASSIGNMENTS      1  1  1  1  1  1  1  1  1  1  1  1  2  2  2  3  3  3  4  4
TYPE ASSIGNMENTS      4  2  3  4  2  3  4  2  3  4  5  6  7  8  9 10  5  6  7  8
TYPE ASSIGNMENTS      9 10  5  6  7  8  9 10 11 12 13 17 14 15 18 19 16 20 11 12
TYPE ASSIGNMENTS     13 17 14 15 18 19 16 20
EXPONENTS  0.1533000D+05 0.2299000D+04 0.5224000D+03 0.1473000D+03 0.4755000D+02
EXPONENTS  0.1676000D+02 0.6207000D+01 0.5224000D+03 0.1473000D+03 0.4755000D+02
EXPONENTS  0.1676000D+02 0.6207000D+01 0.6882000D+00 0.1752000D+01 0.2384000D+00
EXPONENTS  0.7376000D-01 0.3446000D+02 0.7749000D+01 0.2280000D+01 0.3446000D+02
EXPONENTS  0.7749000D+01 0.2280000D+01 0.3446000D+02 0.7749000D+01 0.2280000D+01
EXPONENTS  0.7156000D+00 0.7156000D+00 0.7156000D+00 0.2140000D+00 0.2140000D+00
EXPONENTS  0.2140000D+00 0.5974000D-01 0.5974000D-01 0.5974000D-01 0.2314000D+01
EXPONENTS  0.2314000D+01 0.2314000D+01 0.2314000D+01 0.2314000D+01 0.2314000D+01
EXPONENTS  0.6450000D+00 0.6450000D+00 0.6450000D+00 0.6450000D+00 0.6450000D+00
EXPONENTS  0.6450000D+00 0.2140000D+00 0.2140000D+00 0.2140000D+00 0.2140000D+00
EXPONENTS  0.2140000D+00 0.2140000D+00 0.1428000D+01 0.1428000D+01 0.1428000D+01
EXPONENTS  0.1428000D+01 0.1428000D+01 0.1428000D+01 0.1428000D+01 0.1428000D+01
EXPONENTS  0.1428000D+01 0.1428000D+01 0.5000000D+00 0.5000000D+00 0.5000000D+00
EXPONENTS  0.5000000D+00 0.5000000D+00 0.5000000D+00 0.5000000D+00 0.5000000D+00
EXPONENTS  0.5000000D+00 0.5000000D+00 0.8236000D+04 0.1235000D+04 0.2808000D+03
EXPONENTS  0.7927000D+02 0.2559000D+02 0.8997000D+01 0.3319000D+01 0.2808000D+03
EXPONENTS  0.7927000D+02 0.2559000D+02 0.8997000D+01 0.3319000D+01 0.3643000D+00
EXPONENTS  0.9059000D+00 0.1285000D+00 0.4402000D-01 0.1871000D+02 0.4133000D+01
EXPONENTS  0.1200000D+01 0.1871000D+02 0.4133000D+01 0.1200000D+01 0.1871000D+02
EXPONENTS  0.4133000D+01 0.1200000D+01 0.3827000D+00 0.3827000D+00 0.3827000D+00
EXPONENTS  0.1209000D+00 0.1209000D+00 0.1209000D+00 0.3569000D-01 0.3569000D-01
EXPONENTS  0.3569000D-01 0.1097000D+01 0.1097000D+01 0.1097000D+01 0.1097000D+01
EXPONENTS  0.1097000D+01 0.1097000D+01 0.3180000D+00 0.3180000D+00 0.3180000D+00
EXPONENTS  0.3180000D+00 0.3180000D+00 0.3180000D+00 0.1000000D+00 0.1000000D+00
EXPONENTS  0.1000000D+00 0.1000000D+00 0.1000000D+00 0.1000000D+00 0.7610000D+00
EXPONENTS  0.7610000D+00 0.7610000D+00 0.7610000D+00 0.7610000D+00 0.7610000D+00
EXPONENTS  0.7610000D+00 0.7610000D+00 0.7610000D+00 0.7610000D+00 0.2680000D+00
EXPONENTS  0.2680000D+00 0.2680000D+00 0.2680000D+00 0.2680000D+00 0.2680000D+00
EXPONENTS  0.2680000D+00 0.2680000D+00 0.2680000D+00 0.2680000D+00 0.1950000D+05
EXPONENTS  0.2923000D+04 0.6645000D+03 0.1875000D+03 0.6062000D+02 0.2142000D+02
EXPONENTS  0.7950000D+01 0.6645000D+03 0.1875000D+03 0.6062000D+02 0.2142000D+02
EXPONENTS  0.7950000D+01 0.8815000D+00 0.2257000D+01 0.3041000D+00 0.9158000D-01
EXPONENTS  0.4388000D+02 0.9926000D+01 0.2930000D+01 0.4388000D+02 0.9926000D+01
EXPONENTS  0.2930000D+01 0.4388000D+02 0.9926000D+01 0.2930000D+01 0.9132000D+00
EXPONENTS  0.9132000D+00 0.9132000D+00 0.2672000D+00 0.2672000D+00 0.2672000D+00
EXPONENTS  0.7361000D-01 0.7361000D-01 0.7361000D-01 0.3107000D+01 0.3107000D+01
EXPONENTS  0.3107000D+01 0.3107000D+01 0.3107000D+01 0.3107000D+01 0.8550000D+00
EXPONENTS  0.8550000D+00 0.8550000D+00 0.8550000D+00 0.8550000D+00 0.8550000D+00
EXPONENTS  0.2920000D+00 0.2920000D+00 0.2920000D+00 0.2920000D+00 0.2920000D+00
EXPONENTS  0.2920000D+00 0.1917000D+01 0.1917000D+01 0.1917000D+01 0.1917000D+01
EXPONENTS  0.1917000D+01 0.1917000D+01 0.1917000D+01 0.1917000D+01 0.1917000D+01
EXPONENTS  0.1917000D+01 0.7240000D+00 0.7240000D+00 0.7240000D+00 0.7240000D+00
EXPONENTS  0.7240000D+00 0.7240000D+00 0.7240000D+00 0.7240000D+00 0.7240000D+00
EXPONENTS  0.7240000D+00 0.1950000D+05 0.2923000D+04 0.6645000D+03 0.1875000D+03
EXPONENTS  0.6062000D+02 0.2142000D+02 0.7950000D+01 0.6645000D+03 0.1875000D+03
EXPONENTS  0.6062000D+02 0.2142000D+02 0.7950000D+01 0.8815000D+00 0.2257000D+01
EXPONENTS  0.3041000D+00 0.9158000D-01 0.4388000D+02 0.9926000D+01 0.2930000D+01
EXPONENTS  0.4388000D+02 0.9926000D+01 0.2930000D+01 0.4388000D+02 0.9926000D+01
EXPONENTS  0.2930000D+01 0.9132000D+00 0.9132000D+00 0.9132000D+00 0.2672000D+00
EXPONENTS  0.2672000D+00 0.2672000D+00 0.7361000D-01 0.7361000D-01 0.7361000D-01
EXPONENTS  0.3107000D+01 0.3107000D+01 0.3107000D+01 0.3107000D+01 0.3107000D+01
EXPONENTS  0.3107000D+01 0.8550000D+00 0.8550000D+00 0.8550000D+00 0.8550000D+00
EXPONENTS  0.8550000D+00 0.8550000D+00 0.2920000D+00 0.2920000D+00 0.2920000D+00
EXPONENTS  0.2920000D+00 0.2920000D+00 0.2920000D+00 0.1917000D+01 0.1917000D+01
EXPONENTS  0.1917000D+01 0.1917000D+01 0.1917000D+01 0.1917000D+01 0.1917000D+01
EXPONENTS  0.1917000D+01 0.1917000D+01 0.1917000D+01 0.7240000D+00 0.7240000D+00
EXPONENTS  0.7240000D+00 0.7240000D+00 0.7240000D+00 0.7240000D+00 0.7240000D+00
EXPONENTS  0.7240000D+00 0.7240000D+00 0.7240000D+00
MO    1     MO 0.0        OCC NO =    2.0000067  ORB. ENERGY =    0.000000
 -0.32115901D+00 -0.59858759D+00 -0.10149894D+01 -0.15360785D+01 -0.19161369D+01
 -0.16443305D+01 -0.62969122D+00 -0.39956252D-04 -0.42870436D-03 -0.15802850D-02
 -0.46206606D-02 -0.55681207D-02  0.67073914D-02 -0.28943441D-01  0.48293398D-03
 -0.51367710D-04  0.79607143D-14  0.77192151D-14  0.52073369D-14  0.29823757D-04
  0.28919012D-04  0.19508595D-04  0.19729571D-01  0.19131048D-01  0.12905692D-01
  0.45795455D-14 -0.94232814D-06  0.25113462D-02 -0.12597746D-14 -0.23216426D-05
  0.66289790D-03  0.10255843D-15 -0.14005903D-07  0.14696682D-04  0.12308069D-02
  0.64911805D-03 -0.18799249D-02  0.90293681D-14 -0.15970268D-13  0.91445354D-05
  0.49318168D-04 -0.23090382D-04 -0.26227786D-04 -0.27669056D-14  0.23554359D-14
 -0.89993804D-06  0.49703421D-04 -0.18374218D-05 -0.47865999D-04  0.45875146D-15
  0.46279376D-15  0.38138329D-07 -0.33458104D-14 -0.29940909D-06 -0.55040061D-03
 -0.31884231D-14  0.99951509D-06  0.10365522D-02  0.13225854D-13 -0.10128781D-06
  0.61464964D-03  0.27522990D-14  0.85205270D-15 -0.29080458D-06  0.13239768D-04
 -0.83585506D-15 -0.10335597D-05 -0.20588586D-04 -0.17203030D-14  0.19059734D-05
 -0.19130717D-04  0.16879776D-14  0.23968017D+00  0.44681212D+00  0.75517335D+00
  0.11351664D+01  0.13943486D+01  0.11767810D+01  0.44250040D+00  0.26520564D-04
  0.19822479D-03  0.74081128D-03  0.20667481D-02  0.27688727D-02 -0.32695224D-02
  0.19401559D-01 -0.41840543D-04  0.15659883D-04  0.74115936D-14  0.69488401D-14
  0.49479881D-14  0.74155317D-05  0.69525323D-05  0.49506172D-05 -0.40815880D-02
 -0.38267482D-02 -0.27248727D-02  0.11083509D-13  0.79902689D-05  0.48448528D-03
  0.15994733D-14  0.13028429D-05  0.84286228D-04 -0.44284853D-16 -0.72994997D-09
  0.80746116D-06 -0.96662787D-03  0.42240854D-03  0.54421933D-03  0.27009424D-14
 -0.76546030D-15 -0.19422705D-04  0.21591828D-03 -0.13323883D-03 -0.82679449D-04
  0.24874289D-14 -0.25481151D-14 -0.70133182D-05 -0.76690803D-08 -0.29183099D-05
  0.29259790D-05 -0.35178389D-15 -0.12925653D-15  0.31864872D-06 -0.32856106D-14
  0.22398906D-06  0.56519923D-03  0.49392015D-14 -0.42787434D-05 -0.33375653D-03
  0.49176304D-14  0.36067762D-05 -0.13618411D-02 -0.54616489D-14 -0.48442129D-15
 -0.19390782D-05 -0.88424961D-04  0.12047607D-14  0.12640136D-06 -0.11996198D-04
  0.24850315D-15  0.56908333D-05  0.27727108D-03 -0.12769362D-15 -0.96623466D-01
 -0.18010631D+00 -0.30532031D+00 -0.46229625D+00 -0.57797213D+00 -0.49715968D+00
 -0.19067144D+00 -0.11722722D-04 -0.15518688D-03 -0.56366700D-03 -0.16721075D-02
 -0.19267662D-02  0.23403445D-02 -0.84425005D-02  0.79173670D-03  0.30641224D-04
  0.31654148D-13  0.30957065D-13  0.20454642D-13 -0.74164802D-02 -0.72531556D-02
 -0.47924666D-02 -0.60125331D-02 -0.58801261D-02 -0.38852479D-02  0.83474969D-14
 -0.12760283D-02 -0.11514955D-02 -0.15510509D-14 -0.14550189D-03 -0.85227558D-04
 -0.39651271D-15 -0.35081344D-05 -0.15999700D-05  0.78482130D-04 -0.64496805D-04
 -0.13985325D-04  0.18439365D-13  0.20193217D-13  0.66848967D-03  0.15091222D-03
 -0.72954849D-04 -0.77957370D-04 -0.72964512D-15  0.26393912D-14 -0.78598228D-03
  0.41997952D-04 -0.21185263D-04 -0.20812689D-04 -0.10891102D-14 -0.16270844D-14
 -0.49984918D-05 -0.17452480D-14 -0.17514043D-04 -0.20565861D-05  0.49427440D-14
  0.23835206D-03  0.10084735D-03  0.29300014D-15 -0.18580993D-03 -0.94677589D-04
  0.20879231D-13  0.41743794D-15  0.58021947D-04  0.10159098D-03 -0.86921656D-15
  0.16604078D-03  0.20631206D-03 -0.38309726D-15 -0.34010663D-03 -0.51108499D-03
 -0.15257676D-14 -0.96941205D-01 -0.18069857D+00 -0.30632434D+00 -0.46381647D+00
 -0.57987275D+00 -0.49879455D+00 -0.19129845D+00 -0.11755535D-04 -0.15562127D-03
 -0.56524479D-03 -0.16767880D-02 -0.19321595D-02  0.23468955D-02 -0.84701885D-02
  0.77937745D-03  0.26246827D-04  0.12775202D-12  0.12493868D-12  0.82552270D-13
  0.75533112D-02  0.73869734D-02  0.48808856D-02 -0.60431656D-02 -0.59100840D-02
 -0.39050423D-02  0.30954279D-13  0.13193500D-02 -0.11687210D-02  0.53863770D-15
  0.16697827D-03 -0.85147225D-04  0.26721143D-15  0.40850445D-05 -0.20414994D-05
  0.97853892D-04 -0.60031557D-04 -0.37822335D-04 -0.11216584D-13  0.20661712D-13
 -0.62744988D-03  0.15377425D-03 -0.87777556D-04 -0.65996698D-04 -0.31823222D-15
 -0.11568817D-14  0.80194164D-03  0.43848596D-04 -0.26302928D-04 -0.17545668D-04
  0.21338766D-14 -0.16302946D-14  0.78785143D-05 -0.93453806D-14  0.13226034D-04
 -0.70290925D-05  0.62540047D-14 -0.22833035D-03  0.92060905D-04  0.21782137D-13
  0.18865225D-03 -0.70973628D-04 -0.44747943D-13  0.22970982D-14 -0.51492004D-04
  0.10787993D-03 -0.43908018D-14 -0.16784542D-03  0.20305392D-03 -0.25004928D-14
  0.32232144D-03 -0.52669371D-03  0.99941306D-14
MO    2     MO 0.0        OCC NO =    2.0000037  ORB. ENERGY =    0.000000
 -0.36926698D+00 -0.68825293D+00 -0.11670296D+01 -0.17661751D+01 -0.22031643D+01
 -0.18906427D+01 -0.72401572D+00 -0.43758502D-04 -0.46950001D-03 -0.17306654D-02
 -0.50603642D-02 -0.60979849D-02  0.73456691D-02 -0.33737654D-01  0.66960201D-03
  0.91777093D-04  0.11505106D-13  0.11156083D-13  0.75258276D-14  0.75391388D-05
  0.73104286D-05  0.49315719D-05  0.87686290D-02  0.85026205D-02  0.57358176D-02
  0.43047644D-14  0.99583318D-06 -0.18360165D-02  0.43835237D-14  0.34827756D-05
 -0.15370018D-03  0.15576553D-15  0.91344036D-07  0.18391825D-05  0.69436488D-03
  0.91134207D-04 -0.78549909D-03 -0.13116250D-13  0.17930831D-13  0.28431566D-05
 -0.33733218D-03 -0.35818727D-03  0.69551946D-03  0.15850884D-14 -0.72756718D-14
  0.13266849D-05 -0.38812697D-04  0.13182355D-04  0.25630342D-04 -0.11392128D-15
 -0.18176637D-14 -0.32016628D-06  0.29823854D-15  0.14063719D-06  0.24909414D-03
  0.58980139D-14 -0.94344485D-06 -0.22158049D-03 -0.67927295D-14  0.52153327D-06
 -0.52570193D-03  0.45467910D-14 -0.12536384D-14  0.38744642D-06 -0.66382588D-04
 -0.20928774D-15  0.91106886D-06  0.10898558D-03  0.39702029D-14 -0.20734081D-05
  0.90162180D-04 -0.17486067D-14 -0.16755535D+00 -0.31235693D+00 -0.52792577D+00
 -0.79357090D+00 -0.97475972D+00 -0.82266281D+00 -0.30934270D+00 -0.14459249D-04
 -0.10807393D-03 -0.40389694D-03 -0.11268096D-02 -0.15096142D-02  0.17825729D-02
 -0.13998233D-01  0.10254282D-03 -0.70504239D-05  0.87701896D-14  0.82226102D-14
  0.58549883D-14 -0.21279547D-05 -0.19950928D-05 -0.14206249D-05  0.25191697D-02
  0.23618817D-02  0.16818005D-02 -0.78203737D-14  0.21491948D-05 -0.20217666D-02
 -0.17183989D-14 -0.71124743D-06 -0.27886895D-04 -0.25846518D-16 -0.15017759D-07
 -0.84519849D-05  0.82673055D-03  0.14203686D-03 -0.96876741D-03  0.41373611D-15
 -0.11534373D-14  0.72897789D-05 -0.13333906D-03  0.36580424D-03 -0.23246518D-03
 -0.19019556D-14 -0.19700489D-14 -0.12574613D-05 -0.33440301D-05 -0.14270772D-04
  0.17614802D-04  0.17640957D-15 -0.17090788D-15 -0.61668025D-06  0.22398064D-14
 -0.16225425D-05 -0.25333771D-03 -0.22552027D-14  0.22247266D-05  0.52667007D-03
 -0.44642165D-14  0.26429010D-05  0.23334306D-03  0.29362151D-14  0.30327506D-15
  0.11137717D-05  0.34486438D-04 -0.29522683D-15  0.46601747D-07  0.73198887D-04
 -0.61459833D-15 -0.33879169D-05 -0.17665820D-03 -0.22979369D-15  0.18571782D+00
  0.34617833D+00  0.58684939D+00  0.88856935D+00  0.11109074D+01  0.95557957D+00
  0.36648533D+00  0.19117941D-04  0.25308575D-03  0.91925348D-03  0.27269481D-02
  0.31422569D-02 -0.38167391D-02  0.16913384D-01 -0.85608723D-03 -0.29783395D-04
  0.90323754D-14  0.88334659D-14  0.58366444D-14  0.87488035D-02  0.85561387D-02
  0.56534026D-02  0.53097451D-02  0.51928147D-02  0.34311122D-02  0.23014475D-14
  0.78973071D-03  0.26576029D-03  0.13854571D-14  0.78540472D-04 -0.21037097D-04
  0.23485751D-15 -0.18287882D-05  0.21005805D-04 -0.30636766D-04  0.15523118D-03
 -0.12459441D-03 -0.78043195D-14 -0.22077995D-13 -0.33405005D-03  0.43998568D-05
 -0.52937679D-04  0.48537822D-04  0.16959827D-14  0.20101441D-14  0.51794557D-04
 -0.16775564D-04  0.15713008D-04  0.10625559D-05  0.76501256D-15  0.44792621D-15
 -0.27897307D-05  0.27173286D-14  0.10572116D-03 -0.11850513D-03 -0.28589688D-14
  0.97189189D-04  0.57517506D-03 -0.52930170D-14 -0.41435267D-03 -0.21965967D-03
 -0.20733283D-13 -0.79870183D-15 -0.54514712D-04 -0.67574415D-05  0.27138374D-14
 -0.13687453D-03 -0.29063113D-03 -0.31773188D-15  0.30041866D-03  0.31090346D-03
  0.78772477D-15  0.18533393D+00  0.34546276D+00  0.58563635D+00  0.88673263D+00
  0.11086111D+01  0.95360434D+00  0.36572779D+00  0.19110374D-04  0.25298557D-03
  0.91888962D-03  0.27258687D-02  0.31410132D-02 -0.38152283D-02  0.16881671D-01
 -0.85685442D-03 -0.28254383D-04 -0.27162131D-13 -0.26563970D-13 -0.17551938D-13
 -0.88642559D-02 -0.86690487D-02 -0.57280070D-02  0.52743087D-02  0.51581587D-02
  0.34082135D-02 -0.45384256D-14 -0.80832982D-03  0.26444091D-03  0.12272421D-14
 -0.86493387D-04 -0.19698645D-04 -0.28268433D-16  0.16301223D-05  0.21432387D-04
 -0.35939822D-04  0.16290637D-03 -0.12696655D-03  0.21882150D-13 -0.12135099D-13
  0.32476717D-03  0.40056775D-07 -0.51270751D-04  0.51230694D-04 -0.27464450D-14
  0.24348714D-14 -0.66534228D-04 -0.18331970D-04  0.17017763D-04  0.13142068D-05
 -0.11511610D-14  0.11793907D-14  0.33112626D-06  0.53098635D-14 -0.10545990D-03
 -0.11630778D-03 -0.14573281D-13 -0.11030062D-03  0.59040289D-03 -0.13563096D-14
  0.42668034D-03 -0.24147955D-03  0.25743890D-13 -0.16889446D-14  0.53558031D-04
 -0.76175062D-05  0.36033103D-14  0.14077509D-03 -0.29553529D-03  0.14635235D-14
 -0.30144918D-03  0.31838781D-03 -0.66556482D-14
MO    3     MO 0.0        OCC NO =    2.0000022  ORB. ENERGY =    0.000000
  0.18330079D-02  0.34164254D-02  0.57930294D-02  0.87671340D-02  0.10936309D-01
  0.93849798D-02  0.35939487D-02  0.25375178D-06  0.27225901D-05  0.10035980D-04
  0.29344616D-04  0.35361689D-04 -0.42596902D-04  0.16868866D-03 -0.80901790D-05
 -0.38077864D-05 -0.20343381D-13 -0.19726236D-13 -0.13307203D-13 -0.86957180D-03
 -0.84319214D-03 -0.56881244D-03  0.33126658D-05  0.32121715D-05  0.21669119D-05
 -0.20199886D-14 -0.12041542D-03  0.28358130D-04  0.69542137D-14  0.88505268D-04
  0.87249291D-06  0.53575806D-15  0.14505335D-04  0.46177354D-06  0.57902040D-05
 -0.51625920D-06 -0.52739448D-05 -0.73972871D-14  0.95622138D-14  0.18912744D-03
  0.15521671D-07  0.51388579D-05 -0.51543796D-05  0.22529744D-14 -0.64587429D-14
 -0.62227650D-04 -0.55446242D-06  0.40849972D-06  0.14596270D-06  0.17033452D-16
 -0.31050684D-14 -0.25270189D-04  0.50663797D-15 -0.10008097D-04 -0.45617383D-05
 -0.51557379D-14  0.16629508D-03  0.80829520D-05  0.36358240D-14 -0.13627079D-03
  0.56022628D-05  0.68749700D-14 -0.88944655D-15  0.30665702D-05  0.10801574D-05
  0.56857371D-15 -0.69297284D-04  0.15783681D-05  0.20997659D-14  0.60097574D-04
 -0.48188402D-05 -0.30713630D-14  0.22241556D-02  0.41462742D-02  0.70077683D-02
  0.10533983D-01  0.12939111D-01  0.10920153D-01  0.41062628D-02  0.22728781D-06
  0.16988356D-05  0.63489364D-05  0.17712544D-04  0.23729926D-04 -0.28020617D-04
  0.17911044D-03 -0.33990050D-05  0.23910079D-06 -0.46461310D-14 -0.43560432D-14
 -0.31017622D-14 -0.64726471D-04 -0.60685181D-04 -0.43211464D-04 -0.33571283D-04
 -0.31475212D-04 -0.22412226D-04 -0.13672758D-13 -0.40578300D-03  0.18915826D-04
 -0.61079539D-14  0.55692579D-04  0.56511290D-05 -0.20068851D-15 -0.63833745D-05
 -0.61949776D-07 -0.94827500D-05 -0.34865057D-05  0.12969256D-04  0.50783081D-14
  0.24286490D-14  0.62805049D-03  0.13097393D-05 -0.50753859D-05  0.37656467D-05
 -0.36101012D-14 -0.25761661D-14  0.38882858D-03  0.13761496D-06 -0.34850107D-06
  0.21088611D-06  0.55957397D-16 -0.12203365D-15 -0.28146068D-04  0.91788852D-15
 -0.27271782D-04  0.66178263D-05  0.11109960D-15  0.52057876D-03  0.32385246D-05
 -0.28647651D-14 -0.43876342D-03 -0.23092004D-04 -0.14651462D-14  0.10246297D-14
  0.43118043D-04  0.25251334D-06 -0.76314465D-15  0.30901049D-04 -0.45423795D-06
 -0.23107444D-14 -0.16025518D-03 -0.30330207D-06  0.25526417D-15  0.42792857D+00
  0.79765959D+00  0.13522107D+01  0.20474299D+01  0.25597383D+01  0.22018340D+01
  0.84445071D+00  0.39192497D-04  0.51883528D-03  0.18845041D-02  0.55903460D-02
  0.64417446D-02 -0.78244583D-02  0.39664951D-01 -0.16584034D-03  0.85157912D-04
 -0.88663425D-13 -0.86710893D-13 -0.57293553D-13  0.98685159D-02  0.96511930D-02
  0.63769513D-02  0.75036018D-02  0.73383587D-02  0.48487638D-02 -0.23716805D-13
 -0.19180080D-03  0.14019425D-03 -0.17741489D-15  0.23843851D-03  0.39489773D-03
  0.68040290D-15  0.21306668D-04  0.45449473D-05 -0.15199335D-03  0.16538228D-03
 -0.13388932D-04  0.99965373D-14 -0.10211091D-13  0.26597951D-03  0.16006744D-03
 -0.24867836D-03  0.88610920D-04 -0.58561761D-15 -0.18479114D-14 -0.53512513D-03
 -0.58448707D-04  0.14007778D-04  0.44440929D-04  0.21107197D-14  0.68904931D-15
  0.13201812D-03  0.48600253D-14 -0.27163427D-03  0.12519311D-04 -0.18312455D-13
  0.88502995D-03  0.19200369D-03  0.37323791D-14 -0.70127146D-04 -0.22956162D-03
 -0.31651887D-14 -0.52955740D-15  0.51780337D-04  0.19707888D-04  0.10952404D-14
 -0.20524940D-03 -0.29635007D-04  0.49343181D-15  0.49908387D-04 -0.29488656D-04
  0.12876345D-14 -0.41688402D+00 -0.77707253D+00 -0.13173111D+01 -0.19945871D+01
 -0.24936732D+01 -0.21450061D+01 -0.82265601D+00 -0.38186201D-04 -0.50551381D-03
 -0.18361181D-02 -0.54468098D-02 -0.62763482D-02  0.76235597D-02 -0.38648933D-01
  0.18204766D-03 -0.79519378D-04  0.18188067D-13  0.17787532D-13  0.11752975D-13
  0.98159688D-02  0.95998031D-02  0.63429958D-02 -0.73632390D-02 -0.72010869D-02
 -0.47580626D-02  0.95480204D-15 -0.17611735D-03 -0.16000091D-03  0.70023003D-14
  0.22908546D-03 -0.38730133D-03  0.56418523D-15  0.21061112D-04 -0.35405981D-05
  0.15920395D-03 -0.16943658D-03  0.10232635D-04 -0.11701191D-13  0.13349048D-13
  0.27223450D-03 -0.15513399D-03  0.24928143D-03 -0.94147432D-04 -0.14722316D-14
  0.24405560D-15 -0.50627993D-03  0.57087941D-04 -0.13821393D-04 -0.43266548D-04
 -0.38763854D-14  0.28961420D-14  0.13022992D-03  0.50867967D-14 -0.27528235D-03
 -0.16134660D-04 -0.93406054D-14  0.87999440D-03 -0.16913125D-03 -0.59197848D-14
 -0.54147362D-04  0.21753523D-03  0.24674565D-13 -0.19425980D-14  0.50515924D-04
 -0.16009458D-04  0.29415189D-14 -0.20760251D-03  0.27264181D-04  0.28862750D-14
  0.56054739D-04  0.20764193D-04 -0.48184575D-14
MO    4     MO 0.0        OCC NO =    2.0000015  ORB. ENERGY =    0.000000
  0.10189261D+00  0.18991107D+00  0.32202091D+00  0.48734441D+00  0.60792374D+00
  0.52168901D+00  0.19977918D+00  0.13147696D-04  0.14106616D-03  0.51999641D-03
  0.15204390D-02  0.18322029D-02 -0.22070826D-02  0.94040190D-02 -0.42252214D-03
 -0.17774517D-03  0.94806513D-14  0.91930427D-14  0.62015723D-14  0.21189813D-04
  0.20546991D-04  0.13860879D-04  0.52230696D-03  0.50646206D-03  0.34165631D-03
  0.76741526D-14  0.11616285D-04  0.15658456D-02  0.13666944D-14  0.77575810D-06
  0.12163973D-03 -0.53811224D-15 -0.18057877D-06  0.19291081D-04  0.14969814D-03
 -0.94043655D-05 -0.14029378D-03  0.11965568D-13  0.22811978D-14 -0.82738097D-05
  0.62649128D-04  0.28831222D-03 -0.35096135D-03 -0.28932294D-14 -0.64536982D-14
 -0.51305553D-05 -0.11791360D-04  0.21757293D-04 -0.99659325D-05  0.11477440D-14
  0.18431738D-16  0.92234208D-07 -0.16804641D-14 -0.30853052D-05 -0.31270641D-03
  0.12758327D-14 -0.61497204D-05  0.61772838D-03  0.37655595D-14  0.15405636D-04
  0.32039085D-03  0.13076851D-13  0.55287432D-16 -0.12764501D-06  0.78092180D-04
 -0.14036640D-14  0.16543866D-05 -0.16071216D-04  0.12378018D-14 -0.12714516D-05
 -0.21820532D-03 -0.18136186D-14  0.14760313D+00  0.27516197D+00  0.46506122D+00
  0.69907375D+00  0.85868689D+00  0.72470144D+00  0.27250667D+00  0.11442074D-04
  0.85522417D-04  0.31961680D-03  0.89168110D-03  0.11946068D-02 -0.14106079D-02
  0.11826434D-01  0.27596986D-04  0.24535997D-04  0.27262618D-14  0.25560437D-14
  0.18200554D-14  0.93618974D-05  0.87773739D-05  0.62500131D-05 -0.23638460D-02
 -0.22162559D-02 -0.15781062D-02  0.44442312D-14  0.27351057D-04  0.62320621D-03
  0.23206183D-14  0.54992066D-06  0.20426255D-03  0.19998818D-15  0.10908207D-06
 -0.12645114D-05 -0.10912457D-02  0.35859093D-03  0.73265480D-03  0.75160593D-15
  0.31663446D-14 -0.41493319D-04 -0.33635432D-04 -0.95785647D-04  0.12942108D-03
 -0.30349251D-14 -0.65596241D-14 -0.19386173D-04  0.38170291D-05 -0.12824126D-04
  0.90070972D-05 -0.54420285D-15  0.14878976D-15  0.17967047D-06 -0.56280762D-15
  0.62970835D-05  0.48781012D-03  0.39176060D-14 -0.14811684D-04  0.19893056D-03
 -0.22291831D-14 -0.40795663D-05 -0.16623609D-02  0.62929990D-14 -0.36076913D-15
 -0.70009329D-06  0.42897806D-04  0.10734663D-14 -0.47896118D-06 -0.24724013D-04
  0.88410471D-17  0.25792411D-05 -0.10396941D-03 -0.29994255D-15  0.36051589D+00
  0.67200223D+00  0.11391935D+01  0.17248930D+01  0.21564962D+01  0.18549734D+01
  0.71142223D+00  0.30955469D-04  0.40979245D-03  0.14884408D-02  0.44154314D-02
  0.50878929D-02 -0.61800038D-02  0.33743362D-01  0.27122854D-03  0.81419820D-04
 -0.46441392D-13 -0.45418667D-13 -0.30010033D-13  0.61136882D-02  0.59790535D-02
  0.39506135D-02  0.38015642D-02  0.37178467D-02  0.24565385D-02 -0.92339230D-14
 -0.54224730D-03 -0.64284122D-03 -0.71135781D-14  0.30771048D-03  0.15557510D-03
 -0.73248426D-15  0.47194333D-05  0.13405354D-04 -0.23048411D-03  0.17294139D-03
  0.57542711D-04  0.12392530D-13 -0.13429758D-13  0.78099303D-03  0.24857030D-03
 -0.17760196D-03 -0.70968339D-04 -0.32464532D-14  0.17723306D-14 -0.98331961D-03
 -0.43932677D-04  0.35830811D-04  0.81018658D-05 -0.31321790D-14 -0.35295492D-14
  0.60513010D-04 -0.68450536D-14  0.23876465D-04 -0.76599800D-04  0.17485916D-13
  0.25976240D-03  0.45418247D-03  0.30492449D-14 -0.33139180D-03 -0.22438307D-03
  0.43537152D-13  0.23860873D-14  0.32257630D-04  0.10129142D-03 -0.42586222D-14
  0.11186718D-03  0.44711393D-04 -0.28996398D-14 -0.20864007D-03 -0.34858564D-03
 -0.12139215D-13  0.37332349D+00  0.69587563D+00  0.11796642D+01  0.17861712D+01
  0.22331074D+01  0.19208728D+01  0.73669606D+00  0.32058807D-04  0.42439857D-03
  0.15414928D-02  0.45728095D-02  0.52692393D-02 -0.64002760D-02  0.34950416D-01
  0.24508735D-03  0.78380040D-04  0.33799634D-13  0.33055304D-13  0.21841037D-13
 -0.64644755D-02 -0.63221158D-02 -0.41772892D-02  0.40037224D-02  0.39155531D-02
  0.25871715D-02  0.87110142D-14  0.57756260D-03 -0.65258505D-03 -0.86428641D-15
 -0.29937114D-03  0.15751910D-03  0.18967804D-15 -0.47946275D-05  0.13219119D-04
 -0.23841608D-03  0.18643682D-03  0.51979251D-04  0.48002583D-14  0.61731101D-14
 -0.80626174D-03  0.25866955D-03 -0.19700375D-03 -0.61665797D-04 -0.12841616D-14
 -0.22595663D-14  0.10212396D-02 -0.43918526D-04  0.33913583D-04  0.10004943D-04
  0.11931531D-14 -0.40170858D-15 -0.58746856D-04 -0.51113472D-14 -0.15953029D-04
 -0.77720300D-04  0.19336510D-13 -0.28347964D-03  0.45488897D-03 -0.40024685D-14
  0.33133873D-03 -0.22172807D-03 -0.44996761D-14  0.86873994D-15 -0.31802366D-04
  0.10509500D-03 -0.31773681D-14 -0.10798366D-03  0.44661330D-04  0.57114828D-15
  0.20339076D-03 -0.35994634D-03  0.12053585D-14
MO    5     MO 0.0        OCC NO =    1.9861927  ORB. ENERGY =    0.000000
 -0.10013027D-01 -0.18662636D-01 -0.31645123D-01 -0.47891528D-01 -0.59740906D-01
 -0.51266585D-01 -0.19632379D-01 -0.16241683D-03 -0.17426260D-02 -0.64236475D-02
 -0.18782368D-01 -0.22633667D-01  0.27264651D-01  0.14281820D-01 -0.21029901D-04
 -0.19416712D-02  0.40877960D-13  0.39637870D-13  0.26739473D-13  0.22732927D-02
  0.22043292D-02  0.14870275D-02 -0.69612521D-01 -0.67500729D-01 -0.45535593D-01
  0.11173814D-13  0.57575376D-03 -0.12978341D-01  0.11011483D-14  0.10910246D-03
  0.20184401D-02 -0.34784886D-15 -0.18934187D-05  0.23156594D-03 -0.40425593D-02
 -0.42585620D-02  0.83011213D-02  0.13213017D-13  0.50379235D-14 -0.25724178D-03
 -0.45322903D-03  0.61773105D-03 -0.16450203D-03 -0.26463545D-14 -0.67843091D-14
 -0.11749984D-03  0.11020379D-03  0.52174851D-03 -0.63195230D-03  0.12650218D-15
  0.23678177D-15 -0.13485058D-04 -0.11474670D-14 -0.54197386D-04 -0.16363747D-02
  0.10511739D-14 -0.53344334D-04  0.35226822D-02  0.23912272D-14  0.21593649D-03
  0.13864420D-02  0.47765867D-14 -0.62970241D-15 -0.46684589D-05  0.51211132D-03
 -0.11883117D-15  0.29862784D-05 -0.22908783D-03  0.20079384D-14  0.11019098D-04
 -0.13072461D-02 -0.61459108D-15 -0.17351337D-01 -0.32346388D-01 -0.54669802D-01
 -0.82178909D-01 -0.10094207D+00 -0.85191547D-01 -0.32034246D-01 -0.31820724D-03
 -0.23784020D-02 -0.88886312D-02 -0.24797897D-01 -0.33222345D-01  0.39229395D-01
  0.15725745D-01  0.23309972D-02  0.23202195D-03  0.27786996D-13  0.26052075D-13
  0.18550630D-13  0.29690650D-02  0.27836871D-02  0.19821511D-02 -0.34652063D-01
 -0.32488512D-01 -0.23133756D-01 -0.20953763D-14  0.46853405D-03 -0.49618807D-02
  0.13122415D-15 -0.80704220D-04  0.15194132D-02  0.15380520D-15  0.87775696D-06
 -0.36572869D-05 -0.19370493D-01  0.95477056D-02  0.98227875D-02 -0.14008185D-14
 -0.22371827D-14 -0.95416284D-03 -0.26301465D-02  0.11945684D-02  0.14355782D-02
 -0.54234784D-14  0.26032763D-14 -0.16101958D-03  0.83380750D-04 -0.95130307D-04
  0.11749558D-04 -0.65166166D-16  0.35607366D-15  0.12881605D-04  0.14807987D-14
  0.47201720D-04  0.34784398D-02 -0.37564297D-15 -0.13480128D-03  0.34321966D-02
 -0.40667531D-14 -0.68038823D-05 -0.13867516D-01  0.83979030D-14  0.23206999D-15
 -0.61529946D-05  0.27485198D-03 -0.78700071D-15  0.27473176D-05  0.31325491D-03
  0.90790725D-16  0.15711666D-04 -0.11378108D-02  0.16584798D-14 -0.86971128D-01
 -0.16211433D+00 -0.27481991D+00 -0.41611451D+00 -0.52023479D+00 -0.44749521D+00
 -0.17162404D+00 -0.12665423D-02 -0.16766649D-01 -0.60899519D-01 -0.18065728D+00
 -0.20817102D+00  0.25285471D+00  0.14543895D+00  0.65789841D-01  0.15834955D-02
  0.77075296D-13  0.75377956D-13  0.49805403D-13 -0.33079303D-01 -0.32350836D-01
 -0.21375565D-01 -0.12864228D+00 -0.12580934D+00 -0.83127551D-01  0.16146685D-13
 -0.26613463D-02 -0.26782966D-01  0.21404455D-14 -0.30618574D-02 -0.62541971D-02
  0.40059029D-16 -0.53592220D-04 -0.46115817D-04 -0.59432585D-02  0.72990343D-02
 -0.13557757D-02 -0.13187947D-14 -0.31725076D-14  0.13593723D-01 -0.29215788D-02
  0.40860147D-02 -0.11644359D-02  0.78194284D-15  0.94572578D-15  0.73172271D-02
  0.21086289D-03 -0.19201465D-03 -0.18848236D-04 -0.12324166D-15  0.46502188D-16
 -0.92072868D-03  0.21517582D-14  0.16663388D-02 -0.21423196D-02 -0.93366166D-15
 -0.63679566D-02 -0.23343834D-02 -0.55216131D-14  0.13689404D-02  0.87613423D-02
  0.73071364D-14 -0.57251743D-15  0.30175781D-03 -0.20886504D-03  0.92950103D-15
 -0.84767246D-03 -0.10082525D-02  0.78805127D-15 -0.57600970D-04  0.16348477D-02