 f2co-wavefunction
GAUSSIAN            184 MOL ORBITALS    288 PRIMITIVES        4 NUCLEI
  O    1    (CENTRE  1)   0.00000000  0.00000000  1.28487582  CHARGE =  8.0
  C    2    (CENTRE  2)   0.00000000  0.00000000 -0.93015344  CHARGE =  6.0
  F    3    (CENTRE  3)   0.00000000 -1.98209217 -2.38919020  CHARGE =  9.0
  F    4    (CENTRE  4)   0.00000000  2.00098943 -2.38919020  CHARGE =  9.0
CENTRE ASSIGNMENTS    1  1  1  1  1  1  1  1  1  1  1  1  1  1  1  1  1  1  1  1
CENTRE ASSIGNMENTS    1  1  1  1  1  1  1  1  1  1  1  1  1  1  1  1  1  1  1  1
CENTRE ASSIGNMENTS    1  1  1  1  1  1  1  1  1  1  1  1  1  1  1  1  1  1  1  1
CENTRE ASSIGNMENTS    1  1  1  1  1  1  1  1  1  1  1  1  2  2  2  2  2  2  2  2
CENTRE ASSIGNMENTS    2  2  2  2  2  2  2  2  2  2  2  2  2  2  2  2  2  2  2  2
CENTRE ASSIGNMENTS    2  2  2  2  2  2  2  2  2  2  2  2  2  2  2  2  2  2  2  2
CENTRE ASSIGNMENTS    2  2  2  2  2  2  2  2  2  2  2  2  2  2  2  2  2  2  2  2
CENTRE ASSIGNMENTS    2  2  2  2  3  3  3  3  3  3  3  3  3  3  3  3  3  3  3  3
CENTRE ASSIGNMENTS    3  3  3  3  3  3  3  3  3  3  3  3  3  3  3  3  3  3  3  3
CENTRE ASSIGNMENTS    3  3  3  3  3  3  3  3  3  3  3  3  3  3  3  3  3  3  3  3
CENTRE ASSIGNMENTS    3  3  3  3  3  3  3  3  3  3  3  3  3  3  3  3  4  4  4  4
CENTRE ASSIGNMENTS    4  4  4  4  4  4  4  4  4  4  4  4  4  4  4  4  4  4  4  4
CENTRE ASSIGNMENTS    4  4  4  4  4  4  4  4  4  4  4  4  4  4  4  4  4  4  4  4
CENTRE ASSIGNMENTS    4  4  4  4  4  4  4  4  4  4  4  4  4  4  4  4  4  4  4  4
CENTRE ASSIGNMENTS    4  4  4  4  4  4  4  4
TYPE ASSIGNMENTS      1  1  1  1  1  1  1  1  1  1  1  1  1  1  1  1  2  2  2  3
TYPE ASSIGNMENTS      3  3  4  4  4  2  3  4  2  3  4  2  3  4  5  6  7  8  9 10
TYPE ASSIGNMENTS      5  6  7  8  9 10  5  6  7  8  9 10 11 12 13 17 14 15 18 19
TYPE ASSIGNMENTS     16 20 11 12 13 17 14 15 18 19 16 20  1  1  1  1  1  1  1  1
TYPE ASSIGNMENTS      1  1  1  1  1  1  1  1  2  2  2  3  3  3  4  4  4  2  3  4
TYPE ASSIGNMENTS      2  3  4  2  3  4  5  6  7  8  9 10  5  6  7  8  9 10  5  6
TYPE ASSIGNMENTS      7  8  9 10 11 12 13 17 14 15 18 19 16 20 11 12 13 17 14 15
TYPE ASSIGNMENTS     18 19 16 20  1  1  1  1  1  1  1  1  1  1  1  1  1  1  1  1
TYPE ASSIGNMENTS      2  2  2  3  3  3  4  4  4  2  3  4  2  3  4  2  3  4  5  6
TYPE ASSIGNMENTS      7  8  9 10  5  6  7  8  9 10  5  6  7  8  9 10 11 12 13 17
TYPE ASSIGNMENTS     14 15 18 19 16 20 11 12 13 17 14 15 18 19 16 20  1  1  1  1
TYPE ASSIGNMENTS      1  1  1  1  1  1  1  1  1  1  1  1  2  2  2  3  3  3  4  4
TYPE ASSIGNMENTS      4  2  3  4  2  3  4  2  3  4  5  6  7  8  9 10  5  6  7  8
TYPE ASSIGNMENTS      9 10  5  6  7  8  9 10 11 12 13 17 14 15 18 19 16 20 11 12
TYPE ASSIGNMENTS     13 17 14 15 18 19 16 20
EXPONENTS  0.1533000D+05 0.2299000D+04 0.5224000D+03 0.1473000D+03 0.4755000D+02
EXPONENTS  0.1676000D+02 0.6207000D+01 0.5224000D+03 0.1473000D+03 0.4755000D+02
EXPONENTS  0.1676000D+02 0.6207000D+01 0.6882000D+00 0.1752000D+01 0.2384000D+00
EXPONENTS  0.7376000D-01 0.3446000D+02 0.7749000D+01 0.2280000D+01 0.3446000D+02
EXPONENTS  0.7749000D+01 0.2280000D+01 0.3446000D+02 0.7749000D+01 0.2280000D+01
EXPONENTS  0.7156000D+00 0.7156000D+00 0.7156000D+00 0.2140000D+00 0.2140000D+00
EXPONENTS  0.2140000D+00 0.5974000D-01 0.5974000D-01 0.5974000D-01 0.2314000D+01
EXPONENTS  0.2314000D+01 0.2314000D+01 0.2314000D+01 0.2314000D+01 0.2314000D+01
EXPONENTS  0.6450000D+00 0.6450000D+00 0.6450000D+00 0.6450000D+00 0.6450000D+00
EXPONENTS  0.6450000D+00 0.2140000D+00 0.2140000D+00 0.2140000D+00 0.2140000D+00
EXPONENTS  0.2140000D+00 0.2140000D+00 0.1428000D+01 0.1428000D+01 0.1428000D+01
EXPONENTS  0.1428000D+01 0.1428000D+01 0.1428000D+01 0.1428000D+01 0.1428000D+01
EXPONENTS  0.1428000D+01 0.1428000D+01 0.5000000D+00 0.5000000D+00 0.5000000D+00
EXPONENTS  0.5000000D+00 0.5000000D+00 0.5000000D+00 0.5000000D+00 0.5000000D+00
EXPONENTS  0.5000000D+00 0.5000000D+00 0.8236000D+04 0.1235000D+04 0.2808000D+03
EXPONENTS  0.7927000D+02 0.2559000D+02 0.8997000D+01 0.3319000D+01 0.2808000D+03
EXPONENTS  0.7927000D+02 0.2559000D+02 0.8997000D+01 0.3319000D+01 0.3643000D+00
EXPONENTS  0.9059000D+00 0.1285000D+00 0.4402000D-01 0.1871000D+02 0.4133000D+01
EXPONENTS  0.1200000D+01 0.1871000D+02 0.4133000D+01 0.1200000D+01 0.1871000D+02
EXPONENTS  0.4133000D+01 0.1200000D+01 0.3827000D+00 0.3827000D+00 0.3827000D+00
EXPONENTS  0.1209000D+00 0.1209000D+00 0.1209000D+00 0.3569000D-01 0.3569000D-01
EXPONENTS  0.3569000D-01 0.1097000D+01 0.1097000D+01 0.1097000D+01 0.1097000D+01
EXPONENTS  0.1097000D+01 0.1097000D+01 0.3180000D+00 0.3180000D+00 0.3180000D+00
EXPONENTS  0.3180000D+00 0.3180000D+00 0.3180000D+00 0.1000000D+00 0.1000000D+00
EXPONENTS  0.1000000D+00 0.1000000D+00 0.1000000D+00 0.1000000D+00 0.7610000D+00
EXPONENTS  0.7610000D+00 0.7610000D+00 0.7610000D+00 0.7610000D+00 0.7610000D+00
EXPONENTS  0.7610000D+00 0.7610000D+00 0.7610000D+00 0.7610000D+00 0.2680000D+00
EXPONENTS  0.2680000D+00 0.2680000D+00 0.2680000D+00 0.2680000D+00 0.2680000D+00
EXPONENTS  0.2680000D+00 0.2680000D+00 0.2680000D+00 0.2680000D+00 0.1950000D+05
EXPONENTS  0.2923000D+04 0.6645000D+03 0.1875000D+03 0.6062000D+02 0.2142000D+02
EXPONENTS  0.7950000D+01 0.6645000D+03 0.1875000D+03 0.6062000D+02 0.2142000D+02
EXPONENTS  0.7950000D+01 0.8815000D+00 0.2257000D+01 0.3041000D+00 0.9158000D-01
EXPONENTS  0.4388000D+02 0.9926000D+01 0.2930000D+01 0.4388000D+02 0.9926000D+01
EXPONENTS  0.2930000D+01 0.4388000D+02 0.9926000D+01 0.2930000D+01 0.9132000D+00
EXPONENTS  0.9132000D+00 0.9132000D+00 0.2672000D+00 0.2672000D+00 0.2672000D+00
EXPONENTS  0.7361000D-01 0.7361000D-01 0.7361000D-01 0.3107000D+01 0.3107000D+01
EXPONENTS  0.3107000D+01 0.3107000D+01 0.3107000D+01 0.3107000D+01 0.8550000D+00
EXPONENTS  0.8550000D+00 0.8550000D+00 0.8550000D+00 0.8550000D+00 0.8550000D+00
EXPONENTS  0.2920000D+00 0.2920000D+00 0.2920000D+00 0.2920000D+00 0.2920000D+00
EXPONENTS  0.2920000D+00 0.1917000D+01 0.1917000D+01 0.1917000D+01 0.1917000D+01
EXPONENTS  0.1917000D+01 0.1917000D+01 0.1917000D+01 0.1917000D+01 0.1917000D+01
EXPONENTS  0.1917000D+01 0.7240000D+00 0.7240000D+00 0.7240000D+00 0.7240000D+00
EXPONENTS  0.7240000D+00 0.7240000D+00 0.7240000D+00 0.7240000D+00 0.7240000D+00
EXPONENTS  0.7240000D+00 0.1950000D+05 0.2923000D+04 0.6645000D+03 0.1875000D+03
EXPONENTS  0.6062000D+02 0.2142000D+02 0.7950000D+01 0.6645000D+03 0.1875000D+03
EXPONENTS  0.6062000D+02 0.2142000D+02 0.7950000D+01 0.8815000D+00 0.2257000D+01
EXPONENTS  0.3041000D+00 0.9158000D-01 0.4388000D+02 0.9926000D+01 0.2930000D+01
EXPONENTS  0.4388000D+02 0.9926000D+01 0.2930000D+01 0.4388000D+02 0.9926000D+01
EXPONENTS  0.2930000D+01 0.9132000D+00 0.9132000D+00 0.9132000D+00 0.2672000D+00
EXPONENTS  0.2672000D+00 0.2672000D+00 0.7361000D-01 0.7361000D-01 0.7361000D-01
EXPONENTS  0.3107000D+01 0.3107000D+01 0.3107000D+01 0.3107000D+01 0.3107000D+01
EXPONENTS  0.3107000D+01 0.8550000D+00 0.8550000D+00 0.8550000D+00 0.8550000D+00
EXPONENTS  0.8550000D+00 0.8550000D+00 0.2920000D+00 0.2920000D+00 0.2920000D+00
EXPONENTS  0.2920000D+00 0.2920000D+00 0.2920000D+00 0.1917000D+01 0.1917000D+01
EXPONENTS  0.1917000D+01 0.1917000D+01 0.1917000D+01 0.1917000D+01 0.1917000D+01
EXPONENTS  0.1917000D+01 0.1917000D+01 0.1917000D+01 0.7240000D+00 0.7240000D+00
EXPONENTS  0.7240000D+00 0.7240000D+00 0.7240000D+00 0.7240000D+00 0.7240000D+00
EXPONENTS  0.7240000D+00 0.7240000D+00 0.7240000D+00
MO    1     MO 0.0        OCC NO =    2.0000067  ORB. ENERGY =    0.000000
 -0.32142178D+00 -0.59907735D+00 -0.10158198D+01 -0.15373353D+01 -0.19177046D+01
 -0.16456759D+01 -0.63020642D+00 -0.40002805D-04 -0.42920385D-03 -0.15821262D-02
 -0.46260442D-02 -0.55746082D-02  0.67152063D-02 -0.28963505D-01  0.48901963D-03
 -0.49908547D-04  0.59512050D-14  0.57706670D-14  0.38928579D-14 -0.17738558D-06
 -0.17200434D-06 -0.11603311D-06  0.19740440D-01  0.19141586D-01  0.12912801D-01
  0.17994254D-13  0.12859290D-06  0.25131409D-02  0.23263310D-13 -0.71183861D-07
  0.66216678D-03  0.17288388D-14  0.18443228D-06  0.14550939D-04  0.12271769D-02
  0.65351192D-03 -0.18806888D-02 -0.89943385D-14  0.28776263D-13 -0.26325960D-05
  0.52765342D-04 -0.21615049D-04 -0.31150293D-04  0.25059226D-14 -0.28298609D-13
 -0.15981221D-05  0.49990391D-04 -0.19634917D-05 -0.48026900D-04  0.95407264D-15
 -0.11113973D-13  0.78934978D-07  0.17241759D-14  0.95905637D-06 -0.54385141D-03
  0.85546091D-14  0.18437139D-06  0.10289073D-02 -0.13727137D-13 -0.30615405D-05
  0.60264694D-03  0.18476129D-13 -0.36827804D-14 -0.17571925D-06  0.14187766D-04
 -0.41949565D-14  0.53268269D-07 -0.23408699D-04  0.15243298D-13  0.47388949D-06
 -0.19154599D-04 -0.45246213D-14  0.23957187D+00  0.44661022D+00  0.75483212D+00
  0.11346535D+01  0.13937185D+01  0.11762493D+01  0.44230045D+00  0.26470401D-04
  0.19784985D-03  0.73941005D-03  0.20628389D-02  0.27636354D-02 -0.32633381D-02
  0.19398261D-01 -0.42024088D-04  0.15503721D-04  0.32502047D-13  0.30472735D-13
  0.21698403D-13 -0.10334079D-04 -0.96888562D-05 -0.68990428D-05 -0.40685353D-02
 -0.38145105D-02 -0.27161587D-02 -0.14223539D-13 -0.10035829D-04  0.48669056D-03
 -0.79253490D-14  0.14607421D-05  0.83203969D-04 -0.40662877D-15 -0.63991722D-07
  0.82984166D-06 -0.97249044D-03  0.41330914D-03  0.55918129D-03 -0.16002068D-14
 -0.61203911D-14  0.35503792D-04  0.21594592D-03 -0.12273077D-03 -0.93215147D-04
  0.14914423D-14 -0.26642720D-13 -0.14684885D-06 -0.82339847D-09 -0.27304310D-05
  0.27312544D-05  0.38145866D-16 -0.16748213D-14 -0.60415501D-06  0.17507184D-14
  0.66432910D-06  0.57025439D-03  0.74680083D-14  0.60863115D-05 -0.33878180D-03
 -0.12720164D-13 -0.80792988D-05 -0.13719814D-02 -0.34636621D-14  0.60225832D-15
  0.60068879D-07 -0.87798951D-04  0.16980245D-14 -0.62134904D-06 -0.12542377D-04
 -0.35047995D-14  0.44114240D-06  0.27593923D-03 -0.27351204D-14 -0.97030239D-01
 -0.18086453D+00 -0.30660568D+00 -0.46424246D+00 -0.58040532D+00 -0.49925266D+00
 -0.19147414D+00 -0.11778422D-04 -0.15592425D-03 -0.56634524D-03 -0.16800525D-02
 -0.19359212D-02  0.23514646D-02 -0.84784188D-02  0.77964933D-03  0.27390989D-04
  0.18412869D-12  0.18007384D-12  0.11898240D-12 -0.74992146D-02 -0.73340681D-02
 -0.48459289D-02 -0.61605733D-02 -0.60249061D-02 -0.39809102D-02  0.42775635D-13
 -0.13035533D-02 -0.11969257D-02  0.55062761D-14 -0.16431826D-03 -0.95695812D-04
  0.41833255D-15 -0.38261233D-05 -0.21541881D-05  0.10352289D-03 -0.91978464D-04
 -0.11544421D-04  0.52617097D-13  0.18178305D-13  0.63535630D-03  0.15369385D-03
 -0.66898184D-04 -0.86795663D-04  0.15021692D-14  0.10079603D-15 -0.81465580D-03
  0.44168328D-04 -0.23867817D-04 -0.20300510D-04  0.17884988D-15 -0.12287956D-15
 -0.12401482D-04 -0.42845871D-14 -0.14020328D-04 -0.12868405D-04  0.15134647D-13
  0.21848836D-03  0.92108275D-04 -0.22808859D-14 -0.17642738D-03 -0.53503060D-04
  0.30492058D-13  0.15521441D-15  0.63515320D-04  0.10345769D-03  0.34351368D-15
  0.16374320D-03  0.20766154D-03 -0.80915690D-15 -0.35428916D-03 -0.51803461D-03
 -0.44525661D-15 -0.96184472D-01 -0.17928802D+00 -0.30393314D+00 -0.46019588D+00
 -0.57534621D+00 -0.49490091D+00 -0.18980515D+00 -0.11666358D-04 -0.15444074D-03
 -0.56095687D-03 -0.16640680D-02 -0.19175023D-02  0.23290921D-02 -0.84033369D-02
  0.78217038D-03  0.27435109D-04  0.57584808D-13  0.56316684D-13  0.37210814D-13
  0.73877476D-02  0.72250558D-02  0.47738998D-02 -0.60118134D-02 -0.58794222D-02
 -0.38847828D-02  0.11237917D-13  0.12737295D-02 -0.11579142D-02 -0.32614993D-14
  0.14689687D-03 -0.86963641D-04  0.25081948D-15  0.37735635D-05 -0.19481889D-05
  0.83667272D-04 -0.76363039D-04 -0.73042332D-05 -0.45487420D-13  0.14580468D-13
 -0.67333658D-03  0.14916503D-03 -0.67604194D-04 -0.81560835D-04  0.25127918D-14
 -0.44735653D-14  0.79025874D-03  0.41391043D-04 -0.20794116D-04 -0.20596927D-04
  0.28036076D-14 -0.88430453D-15  0.60625554D-05 -0.13989228D-14  0.18755436D-04
 -0.34721230D-05  0.12802186D-13 -0.23913003D-03  0.10601682D-03 -0.86054182D-14
  0.18286372D-03 -0.95600455D-04 -0.32349095D-13  0.62893239D-15 -0.60493145D-04
  0.10205826D-03 -0.31691103D-14 -0.16279712D-03  0.20443319D-03  0.12823131D-14
  0.34427656D-03 -0.51060796D-03  0.84836137D-14
MO    2     MO 0.0        OCC NO =    2.0000037  ORB. ENERGY =    0.000000
 -0.36921983D+00 -0.68816506D+00 -0.11668806D+01 -0.17659496D+01 -0.22028830D+01
 -0.18904013D+01 -0.72392328D+00 -0.43766231D-04 -0.46958294D-03 -0.17309711D-02
 -0.50612580D-02 -0.60990620D-02  0.73469665D-02 -0.33733623D-01  0.66979995D-03
  0.91934419D-04  0.15492189D-13  0.15022213D-13  0.10133896D-13  0.13009748D-04
  0.12615080D-04  0.85100583D-05  0.87691960D-02  0.85031703D-02  0.57361885D-02
 -0.23157575D-14  0.22851628D-05 -0.18439029D-02 -0.82337082D-14 -0.42427227D-06
 -0.15499893D-03 -0.69770715D-15 -0.23798851D-06  0.17657622D-05  0.69348727D-03
  0.90646220D-04 -0.78413349D-03 -0.36712863D-15 -0.21231760D-13 -0.25892808D-05
 -0.34099787D-03 -0.36014684D-03  0.70114471D-03 -0.17415313D-14  0.10748915D-13
  0.25197551D-06 -0.39130316D-04  0.13036279D-04  0.26094037D-04 -0.42838161D-15
  0.42311344D-14  0.34902503D-06 -0.19224407D-14 -0.91614611D-06  0.24541373D-03
 -0.22621148D-14 -0.60505931D-06 -0.21985922D-03  0.80294369D-14  0.33534976D-05
 -0.51638196D-03  0.12605817D-14  0.13362064D-14  0.80232032D-07 -0.67521787D-04
  0.16006635D-14 -0.83540029D-07  0.11174988D-03 -0.56092827D-14 -0.15715607D-06
  0.90815477D-04  0.23869482D-14 -0.16800775D+00 -0.31320030D+00 -0.52935118D+00
 -0.79571355D+00 -0.97739157D+00 -0.82488401D+00 -0.31017793D+00 -0.14468649D-04
 -0.10814418D-03 -0.40415951D-03 -0.11275421D-02 -0.15105956D-02  0.17837317D-02
 -0.14039372D-01  0.10101365D-03 -0.67180260D-05  0.10953223D-13  0.10269342D-13
  0.73123836D-14  0.89332448D-05  0.83754848D-05  0.59638442D-05  0.25176315D-02
  0.23604396D-02  0.16807736D-02  0.12082714D-13 -0.32248501D-05 -0.20300384D-02
  0.38116277D-14 -0.23496639D-05 -0.27815579D-04  0.22806571D-15  0.88063460D-07
 -0.84581069D-05  0.83301440D-03  0.14845203D-03 -0.98146642D-03 -0.30258057D-14
 -0.25544640D-17 -0.11314378D-04 -0.13351752D-03  0.35936959D-03 -0.22585208D-03
 -0.15034886D-14  0.94742129D-14  0.67354839D-05 -0.34451561D-05 -0.14211074D-04
  0.17656230D-04  0.44137759D-16  0.60219877D-15  0.70531471D-06 -0.19209975D-14
  0.65963521D-06 -0.25932980D-03 -0.16494661D-14 -0.27746128D-05  0.53122697D-03
  0.74124587D-14  0.79570713D-06  0.24676241D-03  0.24747879D-14 -0.30641191D-15
  0.21286863D-07  0.33765165D-04 -0.55677273D-15  0.67295541D-06  0.74083033D-04
  0.14760084D-14 -0.73681600D-06 -0.17537853D-03  0.15561151D-14  0.18497144D+00
  0.34478708D+00  0.58449091D+00  0.88499829D+00  0.11064428D+01  0.95173921D+00
  0.36501247D+00  0.19065837D-04  0.25239598D-03  0.91674811D-03  0.27195160D-02
  0.31336929D-02 -0.38063368D-02  0.16849854D-01 -0.86125110D-03 -0.31200146D-04
  0.13381742D-12  0.13087051D-12  0.86471679D-13  0.88226541D-02  0.86283630D-02
  0.57011243D-02  0.54375814D-02  0.53178358D-02  0.35137190D-02  0.30412295D-13
  0.80642303D-03  0.28858624D-03  0.37471764D-14  0.86492222D-04 -0.15858675D-04
 -0.11690361D-15 -0.19484289D-05  0.21359025D-04 -0.45496584D-04  0.17798771D-03
 -0.13249112D-03  0.32332919D-14 -0.35068764D-14 -0.32073458D-03  0.14406816D-05
 -0.55304168D-04  0.53863486D-04  0.18995548D-14  0.55366251D-15  0.72776693D-04
 -0.17918854D-04  0.16932675D-04  0.98617928D-06 -0.36681853D-15  0.14919091D-16
  0.22545958D-05 -0.76685477D-16  0.10658189D-03 -0.11333914D-03  0.29124498D-14
  0.10992769D-03  0.58675801D-03 -0.26823934D-14 -0.42967335D-03 -0.24674058D-03
  0.16867431D-14 -0.33454487D-16 -0.58286255D-04 -0.80014863D-05  0.36929759D-16
 -0.13755598D-03 -0.29542007D-03  0.63433703D-16  0.31241475D-03  0.31942452D-03
 -0.64263026D-15  0.18485126D+00  0.34456307D+00  0.58411116D+00  0.88442329D+00
  0.11057239D+01  0.95112084D+00  0.36477531D+00  0.19017131D-04  0.25175121D-03
  0.91440619D-03  0.27125688D-02  0.31256876D-02 -0.37966132D-02  0.16834501D-01
 -0.84987354D-03 -0.27241284D-04  0.14509443D-13  0.14189919D-13  0.93758793D-14
 -0.87180893D-02 -0.85261010D-02 -0.56335554D-02  0.53082271D-02  0.51913301D-02
  0.34301313D-02  0.38632194D-14 -0.79079908D-03  0.27261608D-03  0.23735203D-14
 -0.78409680D-04 -0.18905812D-04 -0.30182952D-15  0.13724737D-05  0.21123699D-04
 -0.35414897D-04  0.16787119D-03 -0.13245629D-03  0.19828965D-13 -0.11038456D-13
  0.34337902D-03  0.49274172D-05 -0.57274798D-04  0.52347381D-04 -0.33549563D-14
  0.30574963D-14 -0.59575967D-04 -0.16185771D-04  0.15024839D-04  0.11609315D-05
 -0.70345801D-15  0.24900737D-15  0.16907281D-05 -0.29092387D-14 -0.10685918D-03
 -0.11702911D-03  0.45102181D-14 -0.95526195D-04  0.57146918D-03  0.42174980D-14
  0.41610375D-03 -0.22038185D-03  0.62646145D-14  0.44020075D-15  0.57064953D-04
 -0.76001650D-05  0.94907501D-15  0.13462289D-03 -0.29040425D-03 -0.22696773D-14
 -0.30581775D-03  0.31320474D-03 -0.33386419D-14
MO    3     MO 0.0        OCC NO =    2.0000022  ORB. ENERGY =    0.000000
  0.20183335D-02  0.37618417D-02  0.63787313D-02  0.96535315D-02  0.12042020D-01
  0.10333844D-01  0.39573134D-02  0.27773136D-06  0.29798752D-05  0.10984381D-04
  0.32117686D-04  0.38703373D-04 -0.46622314D-04  0.18588336D-03 -0.10771884D-04
 -0.48565684D-05  0.21119975D-13  0.20479271D-13  0.13815195D-13  0.86918675D-03
  0.84281877D-03  0.56856056D-03 -0.76921307D-05 -0.74587793D-05 -0.50316484D-05
  0.77154872D-14  0.11303860D-03  0.29327552D-04 -0.45555365D-14 -0.91475516D-04
  0.13475061D-05 -0.78702877D-15 -0.14163346D-04  0.49089388D-06  0.38469171D-05
 -0.18612832D-06 -0.36607888D-05  0.56284284D-14  0.13124930D-15 -0.18050827D-03
  0.10294657D-05  0.55861387D-05 -0.66156045D-05 -0.67053652D-15 -0.12148614D-14
  0.62315858D-04 -0.39200621D-06  0.44075248D-06 -0.48746272D-07 -0.26069336D-15
  0.27712492D-14  0.25368224D-04 -0.21477336D-14  0.10678175D-04 -0.45622067D-05
  0.26125633D-14 -0.16265076D-03  0.93522640D-05  0.38306376D-14  0.13061624D-03
  0.43343562D-05 -0.88701764D-14  0.76273494D-15 -0.33377986D-05  0.12527881D-05
 -0.84955448D-15  0.67587637D-04  0.29841228D-06 -0.14386503D-14 -0.57574241D-04
 -0.40567766D-05  0.18224469D-14  0.22821120D-02  0.42543165D-02  0.71903744D-02
  0.10808474D-01  0.13276274D-01  0.11204707D-01  0.42132625D-02  0.24652505D-06
  0.18426220D-05  0.68862992D-05  0.19211703D-04  0.25738385D-04 -0.30392233D-04
  0.18471471D-03 -0.58372411D-05  0.49504938D-06 -0.22952470D-14 -0.21519400D-14
 -0.15323094D-14  0.67548495D-04  0.63331008D-04  0.45095450D-04 -0.33860914D-04
 -0.31746759D-04 -0.22605584D-04  0.43600653D-14  0.40498868D-03  0.27542149D-04
  0.45026371D-14 -0.49527219D-04  0.67663000D-05  0.28680324D-15  0.62617186D-05
 -0.36952784D-07 -0.82695370D-05 -0.33479496D-05  0.11617487D-04  0.86171222D-14
  0.21285698D-14 -0.63662661D-03  0.18547896D-05 -0.29505137D-05  0.10957241D-05
  0.15357527D-14  0.21170858D-14 -0.39174170D-03  0.12830144D-06 -0.46278505D-06
  0.33448361D-06  0.37785369D-16  0.36813819D-15  0.27326884D-04 -0.90383993D-17
  0.24072461D-04  0.90904781D-05  0.24107436D-14 -0.51788105D-03 -0.87637512D-06
 -0.23836284D-14  0.44566366D-03 -0.26395059D-04 -0.37256351D-14 -0.52248500D-15
 -0.44446198D-04  0.11235698D-05  0.46698066D-15 -0.31530200D-04 -0.11268432D-05
  0.11004743D-14  0.16486880D-03 -0.22438661D-05  0.17649638D-15 -0.41590862D+00
 -0.77525439D+00 -0.13142289D+01 -0.19899203D+01 -0.24878386D+01 -0.21399874D+01
 -0.82073121D+00 -0.38113355D-04 -0.50454945D-03 -0.18326154D-02 -0.54364191D-02
 -0.62643749D-02  0.76090164D-02 -0.38567532D-01  0.18925403D-03 -0.74467710D-04
 -0.88589059D-13 -0.86638164D-13 -0.57245498D-13 -0.96852700D-02 -0.94719825D-02
 -0.62585393D-02 -0.75288733D-02 -0.73630736D-02 -0.48650941D-02 -0.19528377D-13
  0.19240119D-03 -0.16310434D-03 -0.47341281D-14 -0.22260709D-03 -0.39235804D-03
 -0.48246171D-15 -0.20380059D-04 -0.33370755D-05  0.15830115D-03 -0.16915746D-03
  0.10856303D-04 -0.46271887D-13  0.32934604D-13 -0.28514176D-03 -0.15400967D-03
  0.24342942D-03 -0.89419749D-04  0.46995939D-14  0.23155912D-15  0.51730709D-03
  0.58399417D-04 -0.13343256D-04 -0.45056161D-04 -0.14645822D-14 -0.75035614D-15
 -0.12904527D-03 -0.11049079D-14  0.27934079D-03 -0.12472317D-04 -0.52522672D-14
 -0.88689328D-03 -0.17846914D-03  0.85669908D-14  0.48870909D-04  0.21588609D-03
 -0.78131596D-14  0.11674762D-15 -0.53314041D-04 -0.18709126D-04  0.98479906D-15
  0.21120118D-03  0.29484263D-04 -0.13350419D-14 -0.51259053D-04  0.26643114D-04
  0.16298057D-14  0.42886726D+00  0.79940930D+00  0.13551769D+01  0.20519211D+01
  0.25653533D+01  0.22066638D+01  0.84630307D+00  0.39280320D-04  0.51999789D-03
  0.18887270D-02  0.56028729D-02  0.64561794D-02 -0.78419915D-02  0.39758187D-01
 -0.16636069D-03  0.81482075D-04 -0.35533795D-13 -0.34751276D-13 -0.22961637D-13
 -0.98321387D-02 -0.96156169D-02 -0.63534446D-02  0.75361323D-02  0.73701728D-02
  0.48697848D-02 -0.61958852D-14  0.20151342D-03  0.14260256D-03 -0.40724821D-14
 -0.24065211D-03  0.39796284D-03 -0.47362691D-15 -0.20877695D-04  0.43307208D-05
 -0.14872236D-03  0.16152831D-03 -0.12805948D-04  0.15541578D-13  0.38879657D-13
 -0.26632232D-03  0.15818955D-03 -0.24595780D-03  0.87768253D-04 -0.63513915D-15
 -0.17392350D-14  0.53750242D-03 -0.60118084D-04  0.15297077D-04  0.44821007D-04
  0.17123469D-14 -0.16620769D-14 -0.13240531D-03 -0.66510933D-14  0.27723564D-03
  0.85917391D-05  0.12548565D-13 -0.89509842D-03  0.19548626D-03  0.74047144D-14
  0.63391505D-04 -0.22126148D-03 -0.24828008D-13  0.14158678D-14 -0.54689181D-04
  0.21583049D-04 -0.20690323D-14  0.21057877D-03 -0.31073471D-04 -0.21785710D-14
 -0.46511223D-04 -0.33675676D-04  0.52982086D-14
MO    4     MO 0.0        OCC NO =    2.0000015  ORB. ENERGY =    0.000000
  0.10123421D+00  0.18868393D+00  0.31994012D+00  0.48419535D+00  0.60399553D+00
  0.51831802D+00  0.19848827D+00  0.13053651D-04  0.14005711D-03  0.51627689D-03
  0.15095633D-02  0.18190972D-02 -0.21912954D-02  0.93440934D-02 -0.41529951D-03
 -0.17533141D-03  0.61084243D-13  0.59231168D-13  0.39956996D-13 -0.30192012D-04
 -0.29276096D-04 -0.19749481D-04  0.53291543D-03  0.51674870D-03  0.34859562D-03
  0.27233880D-13 -0.28380199D-05  0.15599538D-02  0.25213939D-13  0.23089180D-05
  0.12100295D-03  0.13848448D-14  0.17959351D-06  0.19091417D-04  0.15107299D-03
 -0.11147033D-04 -0.13992596D-03 -0.33024546D-15  0.42528041D-13  0.48628377D-05
  0.62665998D-04  0.28850323D-03 -0.35116923D-03  0.88665914D-17 -0.33382054D-13
 -0.39596136D-05 -0.11770567D-04  0.21869552D-04 -0.10098985D-04  0.12574152D-14
 -0.10813450D-13 -0.49126665D-06  0.14091437D-14  0.41701182D-06 -0.30920519D-03
  0.86461162D-14  0.22508365D-05  0.61251502D-03 -0.12873547D-13 -0.35018719D-05
  0.31510054D-03  0.18697975D-13 -0.39420930D-14 -0.78406326D-07  0.78442879D-04
 -0.54422533D-14 -0.11804935D-05 -0.15969309D-04  0.17268532D-13  0.14157125D-05
 -0.21935933D-03 -0.47854408D-14  0.14726442D+00  0.27453054D+00  0.46399402D+00
  0.69746955D+00  0.85671642D+00  0.72303844D+00  0.27188133D+00  0.11378745D-04
  0.85049069D-04  0.31784779D-03  0.88674585D-03  0.11879950D-02 -0.14028005D-02
  0.11802827D-01  0.24572097D-04  0.24450440D-04  0.33912686D-13  0.31795299D-13
  0.22640147D-13 -0.14327992D-04 -0.13433403D-04 -0.95653834D-05 -0.23498204D-02
 -0.22031060D-02 -0.15687427D-02 -0.16578442D-13 -0.32228694D-04  0.61138280D-03
 -0.62942539D-14 -0.25636015D-05  0.20207910D-03 -0.24597263D-15 -0.92643633D-07
 -0.12820232D-05 -0.10950753D-02  0.35172432D-03  0.74335094D-03  0.23217658D-15
 -0.25656970D-14  0.64355674D-04 -0.33162615D-04 -0.94987615D-04  0.12815023D-03
 -0.11825035D-14 -0.27125982D-13  0.16606893D-04  0.38315323D-05 -0.12627669D-04
  0.87961365D-05 -0.11333915D-15 -0.17164816D-14 -0.35459606D-06  0.35614925D-14
  0.13950325D-05  0.48471337D-03  0.67482368D-14  0.16018067D-04  0.20456764D-03
 -0.17432714D-13 -0.20203164D-04 -0.16587077D-02  0.93893540D-15  0.50280794D-15
  0.11276613D-05  0.42109075D-04  0.12913218D-14  0.10409130D-05 -0.23744858D-04
 -0.27997456D-14 -0.44238971D-05 -0.10258237D-03 -0.19314292D-14  0.37455742D+00
  0.69817568D+00  0.11835633D+01  0.17920749D+01  0.22404884D+01  0.19272218D+01
  0.73913103D+00  0.32119079D-04  0.42519646D-03  0.15443909D-02  0.45814065D-02
  0.52791457D-02 -0.64123087D-02  0.35072671D-01  0.24371741D-03  0.75963441D-04
 -0.35123705D-13 -0.34350216D-13 -0.22696640D-13  0.64540460D-02  0.63119160D-02
  0.41705498D-02  0.41364000D-02  0.40453088D-02  0.26729066D-02 -0.64668720D-14
 -0.56676158D-03 -0.66484701D-03 -0.44808530D-14  0.29578042D-03  0.16111446D-03
 -0.48646468D-16  0.45681314D-05  0.13055663D-04 -0.24904723D-03  0.19180742D-03
  0.57239804D-04 -0.51574259D-14  0.30213441D-13  0.81042899D-03  0.26211343D-03
 -0.18618312D-03 -0.75930307D-04 -0.78127074D-15 -0.34722730D-14 -0.10295317D-02
 -0.43207995D-04  0.32172232D-04  0.11035764D-04 -0.20375759D-14 -0.77113897D-15
  0.59869522D-04 -0.51957633D-14  0.23932922D-04 -0.81300648D-04  0.15183731D-13
  0.26566503D-03  0.45749656D-03  0.40355886D-15 -0.33746379D-03 -0.21359461D-03
  0.10031253D-13  0.40556529D-15  0.33813884D-04  0.10184155D-03 -0.19619902D-14
  0.11262446D-03  0.46366394D-04  0.74529429D-15 -0.21406611D-03 -0.35189105D-03
 -0.46385777D-14  0.35995687D+00  0.67096023D+00  0.11374271D+01  0.17222184D+01
  0.21531523D+01  0.18520971D+01  0.71031910D+00  0.30851010D-04  0.40840961D-03
  0.14834180D-02  0.44005316D-02  0.50707238D-02 -0.61591493D-02  0.33694996D-01
  0.27048068D-03  0.80675710D-04  0.69830779D-13  0.68292977D-13  0.45124057D-13
 -0.60980290D-02 -0.59637391D-02 -0.39404946D-02  0.38001401D-02  0.37164540D-02
  0.24556183D-02  0.16155755D-13  0.53281135D-03 -0.64380652D-03 -0.11014392D-14
 -0.30460507D-03  0.15511359D-03  0.53728402D-16 -0.47972913D-05  0.13329078D-04
 -0.23644516D-03  0.18150811D-03  0.54937049D-04  0.17273952D-13  0.49472723D-13
 -0.77258227D-03  0.24863208D-03 -0.17598374D-03 -0.72648342D-04 -0.24157109D-14
 -0.45674494D-14  0.97822639D-03 -0.43117943D-04  0.34750528D-04  0.83674156D-05
  0.26392464D-14  0.26507503D-15 -0.60867066D-04  0.33095121D-14 -0.27659384D-04
 -0.75384632D-04 -0.81424059D-15 -0.25261183D-03  0.45590487D-03 -0.91142957D-14
  0.33558998D-03 -0.22975098D-03 -0.15717132D-14 -0.46089763D-15 -0.30904965D-04
  0.99300222D-04 -0.15057841D-14 -0.11391959D-03  0.43536469D-04  0.28884770D-14
  0.20663448D-03 -0.34143714D-03  0.17619308D-14
MO    5     MO 0.0        OCC NO =    1.9862091  ORB. ENERGY =    0.000000
 -0.98821897D-02 -0.18418777D-01 -0.31231624D-01 -0.47265742D-01 -0.58960288D-01
 -0.50596699D-01 -0.19375848D-01 -0.16030269D-03 -0.17199426D-02 -0.63400324D-02
 -0.18537883D-01 -0.22339050D-01  0.26909753D-01  0.14107480D-01 -0.10115928D-03
 -0.19301191D-02  0.62826594D-13  0.60920663D-13  0.41096719D-13 -0.24072989D-02
 -0.23342701D-02 -0.15746848D-02 -0.69387739D-01 -0.67282766D-01 -0.45388557D-01
  0.87101934D-14 -0.55481891D-03 -0.12900556D-01 -0.20227969D-14 -0.66042558D-04
  0.20432031D-02 -0.38338632D-15  0.49205560D-05  0.23011730D-03 -0.39858231D-02
 -0.42337095D-02  0.82195325D-02 -0.64399253D-14 -0.18509171D-13  0.23439070D-03
 -0.43505870D-03  0.63673162D-03 -0.20167291D-03  0.15514639D-14  0.30275012D-14
  0.66991199D-04  0.11292858D-03  0.52041176D-03 -0.63334034D-03  0.14919218D-16
  0.16745588D-14  0.53994169D-05  0.98491828D-15  0.46389664D-04 -0.15970774D-02
 -0.36834028D-14  0.38108002D-04  0.34554749D-02  0.72864797D-15 -0.17727699D-03
  0.13357574D-02  0.52056156D-14  0.33839622D-15  0.41388897D-05  0.51281617D-03
  0.69752557D-15  0.13530298D-05 -0.22646362D-03 -0.17127142D-14 -0.13769699D-04
 -0.13119849D-02 -0.69627798D-15 -0.17371625D-01 -0.32384208D-01 -0.54733723D-01
 -0.82274994D-01 -0.10106009D+00 -0.85291154D-01 -0.32071701D-01 -0.31848554D-03
 -0.23804821D-02 -0.88964050D-02 -0.24819585D-01 -0.33251401D-01  0.39263704D-01
  0.15757917D-01  0.22971841D-02  0.22864398D-03  0.47384168D-13  0.44425670D-13
  0.31633723D-13 -0.32660622D-02 -0.30621409D-02 -0.21804268D-02 -0.35829593D-01
 -0.33592521D-01 -0.23919876D-01  0.14825787D-13 -0.47169240D-03 -0.51197571D-02
  0.33803741D-14  0.73545844D-04  0.15184610D-02  0.21262854D-15 -0.16241256D-05
 -0.25128516D-05 -0.19387015D-01  0.92933524D-02  0.10093663D-01 -0.63723448D-14
 -0.25164476D-14  0.13818320D-02 -0.26216216D-02  0.11252567D-02  0.14963650D-02
  0.29688298D-14  0.34087586D-14  0.16749498D-03  0.84318968D-04 -0.89850726D-04
  0.55317578D-05  0.13373849D-15 -0.17097674D-16 -0.21388334D-04 -0.10656292D-14
  0.13807522D-04  0.34392939D-02 -0.69200360D-15  0.13447082D-03  0.34647221D-02
  0.38888912D-14 -0.17589338D-03 -0.13782604D-01 -0.42730086D-14 -0.33652048D-15
  0.17313729D-04  0.26323819D-03 -0.32077761D-15  0.17748065D-05  0.32083250D-03
  0.13303390D-14 -0.53715993D-04 -0.11105471D-02 -0.15195855D-14 -0.91793175D-01
 -0.17110264D+00 -0.29005709D+00 -0.43918566D+00 -0.54907880D+00 -0.47230623D+00
 -0.18113961D+00 -0.13361812D-02 -0.17688537D-01 -0.64247985D-01 -0.19059044D+00
 -0.21961699D+00  0.26675754D+00  0.15336192D+00  0.69480905D-01  0.18009119D-02
  0.34483995D-12  0.33724594D-12  0.22283265D-12 -0.41761513D-01 -0.40841847D-01
 -0.26985935D-01 -0.13428474D+00 -0.13132754D+00 -0.86773659D-01  0.81821325D-13
 -0.43043338D-02 -0.27788871D-01  0.13985158D-13 -0.35304633D-02 -0.64118100D-02
 -0.20440048D-15 -0.43825276D-04 -0.49722987D-04 -0.62862651D-02  0.76139713D-02
 -0.13277061D-02  0.80262124D-14  0.29697390D-15  0.14609842D-01 -0.31578843D-02
  0.42689710D-02 -0.11110867D-02  0.96405156D-14  0.62500199D-14  0.80322818D-02
  0.22794695D-03 -0.23772188D-03  0.97749254D-05  0.11371330D-14  0.16216567D-14
 -0.91992232D-03  0.13433315D-14  0.16617440D-02 -0.22477916D-02 -0.64723853D-15
 -0.66877063D-02 -0.26289003D-02 -0.33827560D-14  0.17024742D-02  0.93722752D-02
  0.10329454D-14 -0.10675645D-14  0.29433633D-03 -0.23735806D-03  0.19604737D-14
 -0.93852023D-03 -0.10815522D-02  0.12422199D-14  0.55511248D-04  0.17936264D-02