 f2co-wavefunction
GAUSSIAN            184 MOL ORBITALS    288 PRIMITIVES        4 NUCLEI
  O    1    (CENTRE  1)   0.00000000  0.00000000  1.28487582  CHARGE =  8.0
  C    2    (CENTRE  2)   0.01889726  0.00000000 -0.93015344  CHARGE =  6.0
  F    3    (CENTRE  3)   0.00000000 -2.00098943 -2.38919020  CHARGE =  9.0
  F    4    (CENTRE  4)   0.00000000  2.00098943 -2.38919020  CHARGE =  9.0
CENTRE ASSIGNMENTS    1  1  1  1  1  1  1  1  1  1  1  1  1  1  1  1  1  1  1  1
CENTRE ASSIGNMENTS    1  1  1  1  1  1  1  1  1  1  1  1  1  1  1  1  1  1  1  1
CENTRE ASSIGNMENTS    1  1  1  1  1  1  1  1  1  1  1  1  1  1  1  1  1  1  1  1
CENTRE ASSIGNMENTS    1  1  1  1  1  1  1  1  1  1  1  1  2  2  2  2  2  2  2  2
CENTRE ASSIGNMENTS    2  2  2  2  2  2  2  2  2  2  2  2  2  2  2  2  2  2  2  2
CENTRE ASSIGNMENTS    2  2  2  2  2  2  2  2  2  2  2  2  2  2  2  2  2  2  2  2
CENTRE ASSIGNMENTS    2  2  2  2  2  2  2  2  2  2  2  2  2  2  2  2  2  2  2  2
CENTRE ASSIGNMENTS    2  2  2  2  3  3  3  3  3  3  3  3  3  3  3  3  3  3  3  3
CENTRE ASSIGNMENTS    3  3  3  3  3  3  3  3  3  3  3  3  3  3  3  3  3  3  3  3
CENTRE ASSIGNMENTS    3  3  3  3  3  3  3  3  3  3  3  3  3  3  3  3  3  3  3  3
CENTRE ASSIGNMENTS    3  3  3  3  3  3  3  3  3  3  3  3  3  3  3  3  4  4  4  4
CENTRE ASSIGNMENTS    4  4  4  4  4  4  4  4  4  4  4  4  4  4  4  4  4  4  4  4
CENTRE ASSIGNMENTS    4  4  4  4  4  4  4  4  4  4  4  4  4  4  4  4  4  4  4  4
CENTRE ASSIGNMENTS    4  4  4  4  4  4  4  4  4  4  4  4  4  4  4  4  4  4  4  4
CENTRE ASSIGNMENTS    4  4  4  4  4  4  4  4
TYPE ASSIGNMENTS      1  1  1  1  1  1  1  1  1  1  1  1  1  1  1  1  2  2  2  3
TYPE ASSIGNMENTS      3  3  4  4  4  2  3  4  2  3  4  2  3  4  5  6  7  8  9 10
TYPE ASSIGNMENTS      5  6  7  8  9 10  5  6  7  8  9 10 11 12 13 17 14 15 18 19
TYPE ASSIGNMENTS     16 20 11 12 13 17 14 15 18 19 16 20  1  1  1  1  1  1  1  1
TYPE ASSIGNMENTS      1  1  1  1  1  1  1  1  2  2  2  3  3  3  4  4  4  2  3  4
TYPE ASSIGNMENTS      2  3  4  2  3  4  5  6  7  8  9 10  5  6  7  8  9 10  5  6
TYPE ASSIGNMENTS      7  8  9 10 11 12 13 17 14 15 18 19 16 20 11 12 13 17 14 15
TYPE ASSIGNMENTS     18 19 16 20  1  1  1  1  1  1  1  1  1  1  1  1  1  1  1  1
TYPE ASSIGNMENTS      2  2  2  3  3  3  4  4  4  2  3  4  2  3  4  2  3  4  5  6
TYPE ASSIGNMENTS      7  8  9 10  5  6  7  8  9 10  5  6  7  8  9 10 11 12 13 17
TYPE ASSIGNMENTS     14 15 18 19 16 20 11 12 13 17 14 15 18 19 16 20  1  1  1  1
TYPE ASSIGNMENTS      1  1  1  1  1  1  1  1  1  1  1  1  2  2  2  3  3  3  4  4
TYPE ASSIGNMENTS      4  2  3  4  2  3  4  2  3  4  5  6  7  8  9 10  5  6  7  8
TYPE ASSIGNMENTS      9 10  5  6  7  8  9 10 11 12 13 17 14 15 18 19 16 20 11 12
TYPE ASSIGNMENTS     13 17 14 15 18 19 16 20
EXPONENTS  0.1533000D+05 0.2299000D+04 0.5224000D+03 0.1473000D+03 0.4755000D+02
EXPONENTS  0.1676000D+02 0.6207000D+01 0.5224000D+03 0.1473000D+03 0.4755000D+02
EXPONENTS  0.1676000D+02 0.6207000D+01 0.6882000D+00 0.1752000D+01 0.2384000D+00
EXPONENTS  0.7376000D-01 0.3446000D+02 0.7749000D+01 0.2280000D+01 0.3446000D+02
EXPONENTS  0.7749000D+01 0.2280000D+01 0.3446000D+02 0.7749000D+01 0.2280000D+01
EXPONENTS  0.7156000D+00 0.7156000D+00 0.7156000D+00 0.2140000D+00 0.2140000D+00
EXPONENTS  0.2140000D+00 0.5974000D-01 0.5974000D-01 0.5974000D-01 0.2314000D+01
EXPONENTS  0.2314000D+01 0.2314000D+01 0.2314000D+01 0.2314000D+01 0.2314000D+01
EXPONENTS  0.6450000D+00 0.6450000D+00 0.6450000D+00 0.6450000D+00 0.6450000D+00
EXPONENTS  0.6450000D+00 0.2140000D+00 0.2140000D+00 0.2140000D+00 0.2140000D+00
EXPONENTS  0.2140000D+00 0.2140000D+00 0.1428000D+01 0.1428000D+01 0.1428000D+01
EXPONENTS  0.1428000D+01 0.1428000D+01 0.1428000D+01 0.1428000D+01 0.1428000D+01
EXPONENTS  0.1428000D+01 0.1428000D+01 0.5000000D+00 0.5000000D+00 0.5000000D+00
EXPONENTS  0.5000000D+00 0.5000000D+00 0.5000000D+00 0.5000000D+00 0.5000000D+00
EXPONENTS  0.5000000D+00 0.5000000D+00 0.8236000D+04 0.1235000D+04 0.2808000D+03
EXPONENTS  0.7927000D+02 0.2559000D+02 0.8997000D+01 0.3319000D+01 0.2808000D+03
EXPONENTS  0.7927000D+02 0.2559000D+02 0.8997000D+01 0.3319000D+01 0.3643000D+00
EXPONENTS  0.9059000D+00 0.1285000D+00 0.4402000D-01 0.1871000D+02 0.4133000D+01
EXPONENTS  0.1200000D+01 0.1871000D+02 0.4133000D+01 0.1200000D+01 0.1871000D+02
EXPONENTS  0.4133000D+01 0.1200000D+01 0.3827000D+00 0.3827000D+00 0.3827000D+00
EXPONENTS  0.1209000D+00 0.1209000D+00 0.1209000D+00 0.3569000D-01 0.3569000D-01
EXPONENTS  0.3569000D-01 0.1097000D+01 0.1097000D+01 0.1097000D+01 0.1097000D+01
EXPONENTS  0.1097000D+01 0.1097000D+01 0.3180000D+00 0.3180000D+00 0.3180000D+00
EXPONENTS  0.3180000D+00 0.3180000D+00 0.3180000D+00 0.1000000D+00 0.1000000D+00
EXPONENTS  0.1000000D+00 0.1000000D+00 0.1000000D+00 0.1000000D+00 0.7610000D+00
EXPONENTS  0.7610000D+00 0.7610000D+00 0.7610000D+00 0.7610000D+00 0.7610000D+00
EXPONENTS  0.7610000D+00 0.7610000D+00 0.7610000D+00 0.7610000D+00 0.2680000D+00
EXPONENTS  0.2680000D+00 0.2680000D+00 0.2680000D+00 0.2680000D+00 0.2680000D+00
EXPONENTS  0.2680000D+00 0.2680000D+00 0.2680000D+00 0.2680000D+00 0.1950000D+05
EXPONENTS  0.2923000D+04 0.6645000D+03 0.1875000D+03 0.6062000D+02 0.2142000D+02
EXPONENTS  0.7950000D+01 0.6645000D+03 0.1875000D+03 0.6062000D+02 0.2142000D+02
EXPONENTS  0.7950000D+01 0.8815000D+00 0.2257000D+01 0.3041000D+00 0.9158000D-01
EXPONENTS  0.4388000D+02 0.9926000D+01 0.2930000D+01 0.4388000D+02 0.9926000D+01
EXPONENTS  0.2930000D+01 0.4388000D+02 0.9926000D+01 0.2930000D+01 0.9132000D+00
EXPONENTS  0.9132000D+00 0.9132000D+00 0.2672000D+00 0.2672000D+00 0.2672000D+00
EXPONENTS  0.7361000D-01 0.7361000D-01 0.7361000D-01 0.3107000D+01 0.3107000D+01
EXPONENTS  0.3107000D+01 0.3107000D+01 0.3107000D+01 0.3107000D+01 0.8550000D+00
EXPONENTS  0.8550000D+00 0.8550000D+00 0.8550000D+00 0.8550000D+00 0.8550000D+00
EXPONENTS  0.2920000D+00 0.2920000D+00 0.2920000D+00 0.2920000D+00 0.2920000D+00
EXPONENTS  0.2920000D+00 0.1917000D+01 0.1917000D+01 0.1917000D+01 0.1917000D+01
EXPONENTS  0.1917000D+01 0.1917000D+01 0.1917000D+01 0.1917000D+01 0.1917000D+01
EXPONENTS  0.1917000D+01 0.7240000D+00 0.7240000D+00 0.7240000D+00 0.7240000D+00
EXPONENTS  0.7240000D+00 0.7240000D+00 0.7240000D+00 0.7240000D+00 0.7240000D+00
EXPONENTS  0.7240000D+00 0.1950000D+05 0.2923000D+04 0.6645000D+03 0.1875000D+03
EXPONENTS  0.6062000D+02 0.2142000D+02 0.7950000D+01 0.6645000D+03 0.1875000D+03
EXPONENTS  0.6062000D+02 0.2142000D+02 0.7950000D+01 0.8815000D+00 0.2257000D+01
EXPONENTS  0.3041000D+00 0.9158000D-01 0.4388000D+02 0.9926000D+01 0.2930000D+01
EXPONENTS  0.4388000D+02 0.9926000D+01 0.2930000D+01 0.4388000D+02 0.9926000D+01
EXPONENTS  0.2930000D+01 0.9132000D+00 0.9132000D+00 0.9132000D+00 0.2672000D+00
EXPONENTS  0.2672000D+00 0.2672000D+00 0.7361000D-01 0.7361000D-01 0.7361000D-01
EXPONENTS  0.3107000D+01 0.3107000D+01 0.3107000D+01 0.3107000D+01 0.3107000D+01
EXPONENTS  0.3107000D+01 0.8550000D+00 0.8550000D+00 0.8550000D+00 0.8550000D+00
EXPONENTS  0.8550000D+00 0.8550000D+00 0.2920000D+00 0.2920000D+00 0.2920000D+00
EXPONENTS  0.2920000D+00 0.2920000D+00 0.2920000D+00 0.1917000D+01 0.1917000D+01
EXPONENTS  0.1917000D+01 0.1917000D+01 0.1917000D+01 0.1917000D+01 0.1917000D+01
EXPONENTS  0.1917000D+01 0.1917000D+01 0.1917000D+01 0.7240000D+00 0.7240000D+00
EXPONENTS  0.7240000D+00 0.7240000D+00 0.7240000D+00 0.7240000D+00 0.7240000D+00
EXPONENTS  0.7240000D+00 0.7240000D+00 0.7240000D+00
MO    1     MO 0.0        OCC NO =    2.0000067  ORB. ENERGY =    0.000000
 -0.32221248D+00 -0.60055109D+00 -0.10183188D+01 -0.15411172D+01 -0.19224222D+01
 -0.16497242D+01 -0.63175674D+00 -0.40145280D-04 -0.43073251D-03 -0.15877611D-02
 -0.46425204D-02 -0.55944628D-02  0.67391233D-02 -0.29033410D-01  0.49038199D-03
 -0.49972573D-04 -0.21683266D-03 -0.21025474D-03 -0.14183661D-03  0.44191342D-12
  0.42850737D-12  0.28906854D-12  0.19770028D-01  0.19170277D-01  0.12932155D-01
 -0.20061397D-04  0.56659234D-13  0.25044008D-02 -0.23316740D-06 -0.28797927D-13
  0.66407373D-03 -0.10020373D-06 -0.11040402D-13  0.14586850D-04  0.12275763D-02
  0.65192935D-03 -0.18795057D-02  0.23434929D-13  0.59512247D-04 -0.90219267D-13
  0.50326394D-04 -0.25153216D-04 -0.25173179D-04 -0.77041795D-14 -0.63720897D-05
  0.24834181D-13  0.50129499D-04 -0.18287647D-05 -0.48300734D-04 -0.30382943D-14
 -0.73237814D-06  0.47386871D-14 -0.84625881D-05  0.65913494D-15 -0.54847237D-03
  0.45028123D-05 -0.76694152D-13  0.10329141D-02  0.20884952D-04  0.74716747D-13
  0.61250302D-03 -0.22115857D-13  0.31745977D-06 -0.17123312D-14  0.13160936D-04
 -0.25505961D-05  0.31825344D-13 -0.22415018D-04  0.15982168D-05 -0.26688351D-13
 -0.17067791D-04  0.10696193D-13  0.23919688D+00  0.44591117D+00  0.75365063D+00
  0.11328775D+01  0.13915371D+01  0.11744082D+01  0.44160814D+00  0.26516952D-04
  0.19819779D-03  0.74071038D-03  0.20664666D-02  0.27684956D-02 -0.32690770D-02
  0.19351954D-01 -0.41365169D-04  0.15416693D-04  0.22710271D-04  0.21292323D-04
  0.15161402D-04  0.83112723D-13  0.77923461D-13  0.55486146D-13 -0.40559468D-02
 -0.38027080D-02 -0.27077546D-02 -0.16325991D-04  0.15185213D-12  0.48140659D-03
 -0.17801160D-05 -0.93289528D-13  0.81584993D-04  0.68542284D-07  0.42790810D-14
  0.82314180D-06 -0.95452189D-03  0.40685078D-03  0.54767111D-03 -0.27683918D-14
 -0.94467057D-06 -0.33835162D-12  0.21528941D-03 -0.12687631D-03 -0.88413101D-04
 -0.31995752D-14 -0.54094817D-05 -0.18147468D-12 -0.28862616D-07 -0.26964408D-05
  0.27253034D-05  0.22785606D-15 -0.34655807D-06  0.23739312D-13  0.77898918D-05
  0.15400361D-13  0.56070329D-03 -0.21829820D-05 -0.27958768D-12 -0.33646764D-03
 -0.21186693D-04  0.23338659D-12 -0.13456422D-02  0.15904736D-13 -0.18818955D-06
 -0.22677799D-13 -0.88300876D-04  0.67667951D-06 -0.10123609D-13 -0.11508753D-04
 -0.11211084D-06  0.78157006D-13  0.27641138D-03  0.78867616D-14 -0.96274727D-01
 -0.17945626D+00 -0.30421834D+00 -0.46062770D+00 -0.57588608D+00 -0.49536530D+00
 -0.18998325D+00 -0.11687688D-04 -0.15472311D-03 -0.56198249D-03 -0.16671105D-02
 -0.19210081D-02  0.23333505D-02 -0.84117868D-02  0.77982873D-03  0.27613433D-04
 -0.71348741D-04 -0.69777510D-04 -0.46104951D-04 -0.73994631D-02 -0.72365133D-02
 -0.47814703D-02 -0.60156564D-02 -0.58831805D-02 -0.38872661D-02 -0.10391254D-04
 -0.12759793D-02 -0.11543116D-02  0.29909064D-05 -0.15261384D-03 -0.84463347D-04
 -0.17132256D-06 -0.37504838D-05 -0.19661453D-05  0.79659175D-04 -0.63632779D-04
 -0.16026396D-04 -0.48859483D-05  0.70639460D-05  0.66498990D-03  0.15030599D-03
 -0.73250212D-04 -0.77055776D-04 -0.17238559D-05 -0.67686477D-05 -0.78453966D-03
  0.42129177D-04 -0.22722698D-04 -0.19406479D-04  0.10744407D-05  0.11335584D-05
 -0.55374819D-05  0.21940290D-05 -0.17701938D-04 -0.26762406D-05 -0.11338464D-04
  0.23956392D-03  0.10250462D-03  0.47563771D-05 -0.18645811D-03 -0.94475897D-04
 -0.15106352D-04  0.14208655D-05  0.57458222D-04  0.10166245D-03  0.13486356D-05
  0.16486513D-03  0.20468758D-03 -0.56112320D-05 -0.33723979D-03 -0.50967493D-03
 -0.93832521D-05 -0.96274727D-01 -0.17945626D+00 -0.30421833D+00 -0.46062770D+00
 -0.57588608D+00 -0.49536530D+00 -0.18998325D+00 -0.11687688D-04 -0.15472311D-03
 -0.56198249D-03 -0.16671105D-02 -0.19210081D-02  0.23333504D-02 -0.84117868D-02
  0.77982873D-03  0.27613433D-04 -0.71348741D-04 -0.69777510D-04 -0.46104951D-04
  0.73994631D-02  0.72365133D-02  0.47814703D-02 -0.60156563D-02 -0.58831805D-02
 -0.38872661D-02 -0.10391254D-04  0.12759793D-02 -0.11543116D-02  0.29909064D-05
  0.15261384D-03 -0.84463346D-04 -0.17132256D-06  0.37504838D-05 -0.19661453D-05
  0.79659175D-04 -0.63632779D-04 -0.16026396D-04  0.48859483D-05  0.70639460D-05
 -0.66498990D-03  0.15030599D-03 -0.73250212D-04 -0.77055776D-04  0.17238559D-05
 -0.67686477D-05  0.78453966D-03  0.42129177D-04 -0.22722698D-04 -0.19406479D-04
 -0.10744407D-05  0.11335584D-05  0.55374818D-05  0.21940290D-05  0.17701938D-04
 -0.26762406D-05 -0.11338464D-04 -0.23956392D-03  0.10250462D-03  0.47563771D-05
  0.18645811D-03 -0.94475897D-04  0.15106352D-04  0.14208655D-05 -0.57458222D-04
  0.10166245D-03  0.13486356D-05 -0.16486513D-03  0.20468758D-03 -0.56112320D-05
  0.33723979D-03 -0.50967493D-03  0.93832521D-05
MO    2     MO 0.0        OCC NO =    2.0000037  ORB. ENERGY =    0.000000
 -0.36837632D+00 -0.68659289D+00 -0.11642147D+01 -0.17619152D+01 -0.21978503D+01
 -0.18860826D+01 -0.72226943D+00 -0.43675865D-04 -0.46861337D-03 -0.17273971D-02
 -0.50508078D-02 -0.60864690D-02  0.73317969D-02 -0.33651331D-01  0.66798143D-03
  0.91628390D-04 -0.57679207D-04 -0.55929429D-04 -0.37729662D-04 -0.14663453D-11
 -0.14218617D-11 -0.95917950D-12  0.87217585D-02  0.84571719D-02  0.57051582D-02
  0.20150335D-04 -0.19862649D-12 -0.18393928D-02 -0.54132710D-05  0.13607756D-12
 -0.15559229D-03  0.11088822D-06  0.28093135D-13  0.17784742D-05  0.69251408D-03
  0.89332065D-04 -0.78184614D-03 -0.36231663D-13  0.19234607D-05  0.30393005D-12
 -0.33885468D-03 -0.35770335D-03  0.69655803D-03  0.20419223D-13 -0.16395956D-04
 -0.97816880D-13 -0.39192297D-04  0.13194423D-04  0.25997874D-04  0.73559230D-14
  0.12161501D-05 -0.36176254D-13  0.34748927D-05 -0.13251910D-13  0.24869752D-03
 -0.83877865D-05  0.26502016D-12 -0.22318645D-03 -0.20368916D-05 -0.22526443D-12
 -0.52290611D-03  0.35856170D-13 -0.23829551D-05  0.48257234D-14 -0.66625989D-04
  0.27678622D-05 -0.10839195D-12  0.11077882D-03  0.43810032D-05  0.93914784D-13
  0.89099142D-04 -0.26805223D-13 -0.16826322D+00 -0.31367653D+00 -0.53015607D+00
 -0.79692346D+00 -0.97887773D+00 -0.82613827D+00 -0.31064956D+00 -0.14536194D-04
 -0.10864904D-03 -0.40604629D-03 -0.11328059D-02 -0.15176476D-02  0.17920588D-02
 -0.14047051D-01  0.98868003D-04 -0.68539519D-05 -0.12530508D-04 -0.11748147D-04
 -0.83653808D-05 -0.14082512D-12 -0.13203250D-12 -0.94015004D-13  0.25227697D-02
  0.23652570D-02  0.16842039D-02  0.15765585D-04 -0.58164172D-12 -0.20186430D-02
  0.23513548D-05  0.16020008D-12 -0.25993758D-04 -0.36485663D-07 -0.11451855D-13
 -0.84447760D-05  0.82530063D-03  0.15029473D-03 -0.97559536D-03  0.12403525D-13
  0.17935166D-04  0.10015262D-11 -0.13253127D-03  0.36153389D-03 -0.22900262D-03
  0.66240103D-14  0.13493561D-04  0.59148040D-12 -0.33203679D-05 -0.14267253D-04
  0.17587620D-04 -0.60282199D-15 -0.49247095D-07 -0.57023701D-13 -0.20920377D-05
 -0.42522207D-13 -0.25391963D-03 -0.10383429D-05  0.85337543D-12  0.52928486D-03
  0.73144560D-05 -0.72580881D-12  0.23247403D-03 -0.46669253D-13 -0.49338406D-06
  0.72626739D-13  0.34358263D-04 -0.28537838D-05  0.43825326D-13  0.73079876D-04
  0.43339359D-05 -0.26170554D-12 -0.17615467D-03 -0.18411292D-13  0.18573355D+00
  0.34620765D+00  0.58689910D+00  0.88864462D+00  0.11110015D+01  0.95566052D+00
  0.36651638D+00  0.19125131D-04  0.25318093D-03  0.91959920D-03  0.27279737D-02
  0.31434387D-02 -0.38181745D-02  0.16913271D-01 -0.85306585D-03 -0.28937006D-04
  0.11017826D-03  0.10775193D-03  0.71196254D-04  0.87678575D-02  0.85747731D-02
  0.56657152D-02  0.53358487D-02  0.52183435D-02  0.34479802D-02  0.10644233D-04
  0.79536203D-03  0.27222302D-03 -0.23329272D-05  0.81813586D-04 -0.20865268D-04
 -0.61237083D-07 -0.16356064D-05  0.21143194D-04 -0.31830237D-04  0.15653837D-03
 -0.12470813D-03  0.65898264D-06  0.40349051D-05 -0.33593136D-03  0.41082818D-05
 -0.53389760D-04  0.49281478D-04 -0.20973925D-05 -0.36705640D-05  0.54854321D-04
 -0.16791563D-04  0.16082146D-04  0.70941714D-06 -0.29372006D-05  0.89116098D-06
 -0.25881076D-05 -0.45225153D-06  0.10627658D-03 -0.11829245D-03  0.10012857D-04
  0.95131060D-04  0.57530864D-03 -0.86561027D-05 -0.41396079D-03 -0.22043129D-03
 -0.81691580D-05 -0.46050222D-06 -0.54991788D-04 -0.69542122D-05 -0.27943577D-05
 -0.13653877D-03 -0.29129386D-03  0.41758644D-05  0.30151413D-03  0.31215650D-03
  0.74505173D-05  0.18573355D+00  0.34620765D+00  0.58689910D+00  0.88864461D+00
  0.11110015D+01  0.95566051D+00  0.36651637D+00  0.19125131D-04  0.25318093D-03
  0.91959920D-03  0.27279737D-02  0.31434387D-02 -0.38181745D-02  0.16913271D-01
 -0.85306585D-03 -0.28937006D-04  0.11017826D-03  0.10775193D-03  0.71196254D-04
 -0.87678575D-02 -0.85747731D-02 -0.56657151D-02  0.53358487D-02  0.52183434D-02
  0.34479801D-02  0.10644233D-04 -0.79536203D-03  0.27222302D-03 -0.23329272D-05
 -0.81813585D-04 -0.20865270D-04 -0.61237083D-07  0.16356065D-05  0.21143194D-04
 -0.31830236D-04  0.15653837D-03 -0.12470813D-03 -0.65898266D-06  0.40349051D-05
  0.33593136D-03  0.41082813D-05 -0.53389759D-04  0.49281478D-04  0.20973925D-05
 -0.36705640D-05 -0.54854323D-04 -0.16791563D-04  0.16082146D-04  0.70941700D-06
  0.29372007D-05  0.89116097D-06  0.25881081D-05 -0.45225153D-06 -0.10627658D-03
 -0.11829245D-03  0.10012857D-04 -0.95131057D-04  0.57530864D-03 -0.86561028D-05
  0.41396079D-03 -0.22043128D-03  0.81691580D-05 -0.46050222D-06  0.54991788D-04
 -0.69542123D-05 -0.27943578D-05  0.13653877D-03 -0.29129386D-03  0.41758644D-05
 -0.30151413D-03  0.31215650D-03 -0.74505173D-05
MO    3     MO 0.0        OCC NO =    2.0000022  ORB. ENERGY =    0.000000
  0.68185719D-09  0.12708697D-08  0.21549381D-08  0.32612697D-08  0.40681769D-08
  0.34911011D-08  0.13369062D-08  0.82280544D-13  0.88281624D-12  0.32542269D-11
  0.95151685D-11  0.11466241D-10 -0.13812302D-10  0.62760572D-10 -0.19084491D-11
 -0.62542243D-12 -0.15251453D-12 -0.14788779D-12 -0.99764232D-13 -0.86327433D-03
 -0.83708571D-03 -0.56469307D-03 -0.23465513D-11 -0.22753655D-11 -0.15349481D-11
 -0.11140088D-12 -0.11271469D-03  0.82673719D-11  0.10110598D-13  0.90240357D-04
  0.94132974D-12  0.21812453D-16  0.14466684D-04  0.52588322D-13 -0.11397626D-12
  0.19262249D-12 -0.78646238D-13 -0.19652449D-04  0.91097213D-13  0.17959144D-03
  0.75088879D-12  0.12817631D-11 -0.20326519D-11  0.11330775D-04  0.35145332D-13
 -0.62223941D-04  0.64817084D-13  0.29204878D-13 -0.94021962D-13  0.44639161D-05
 -0.85284229D-14 -0.25103701D-04 -0.98009674D-14 -0.11125194D-04 -0.14622637D-11
  0.76548144D-14  0.16261111D-03  0.24104107D-11  0.21748088D-13 -0.12923553D-03
  0.19763806D-11  0.15410730D-04 -0.69741714D-15  0.32175977D-05  0.30467687D-12
  0.18698464D-14 -0.67486207D-04 -0.23245425D-12  0.22240498D-15  0.57833414D-04
 -0.68157636D-12 -0.15674356D-04  0.77132146D-09  0.14378986D-08  0.24302445D-08
  0.36531108D-08  0.44871923D-08  0.37870320D-08  0.14240229D-08  0.66838876D-13
  0.49957918D-12  0.18670415D-11  0.52087550D-11  0.69782957D-11 -0.82400660D-11
  0.62825958D-10 -0.37660138D-13  0.86118396D-13  0.37343844D-13  0.35012227D-13
  0.24930792D-13 -0.59977864D-04 -0.56233060D-04 -0.40041289D-04 -0.12123938D-10
 -0.11366962D-10 -0.80939542D-11 -0.83920088D-13 -0.38899010D-03  0.51891811D-11
 -0.76183140D-14  0.56058098D-04  0.58338124D-12 -0.20427392D-15 -0.63350524D-05
  0.11672265D-13 -0.45066467D-11  0.77711224D-12  0.37295345D-11  0.66089095D-05
 -0.34897320D-13  0.60965201D-03  0.24944721D-12 -0.90670712D-12  0.65725991D-12
  0.43302617D-05 -0.42981746D-13  0.38148612D-03  0.13758224D-13 -0.83069294D-14
 -0.54512948D-14 -0.35135143D-06 -0.12235770D-14 -0.28214555D-04  0.31612826D-13
 -0.24449366D-04  0.19132093D-11 -0.27676405D-13  0.51648785D-03 -0.61140301D-12
 -0.67162074D-13 -0.44313975D-03 -0.51282248D-11 -0.26949097D-04  0.86451138D-15
  0.44137277D-04 -0.33162583D-14  0.67780611D-14  0.30436254D-04 -0.18694101D-12
 -0.93715952D-14 -0.16284809D-03  0.19688979D-12 -0.10989014D-04  0.42245871D+00
  0.78746377D+00  0.13349265D+01  0.20212593D+01  0.25270193D+01  0.21736898D+01
  0.83365680D+00  0.38738313D-04  0.51282273D-03  0.18626655D-02  0.55255621D-02
  0.63670942D-02 -0.77337843D-02  0.39152305D-01 -0.16952539D-03  0.82899282D-04
  0.12495753D-03  0.12220574D-03  0.80746497D-04  0.97644314D-02  0.95494006D-02
  0.63096927D-02  0.74575193D-02  0.72932910D-02  0.48189858D-02  0.45786513D-05
 -0.18454028D-03  0.15264874D-03  0.86801501D-05  0.23431114D-03  0.39557719D-03
 -0.79951782D-07  0.21133606D-04  0.41309530D-05 -0.14778235D-03  0.16434305D-03
 -0.16560702D-04 -0.47447219D-05 -0.92494683D-05  0.25089798D-03  0.15559806D-03
 -0.24665157D-03  0.91053510D-04 -0.56062139D-05 -0.65370247D-06 -0.51858108D-03
 -0.58506003D-04  0.13584792D-04  0.44921212D-04  0.34485454D-05  0.22290666D-05
  0.13169208D-03 -0.44686987D-06 -0.27304695D-03  0.11107045D-04 -0.88287584D-05
  0.88372309D-03  0.18517844D-03  0.10169368D-04 -0.64582257D-04 -0.21849958D-03
 -0.22344584D-04  0.26306567D-06  0.51257837D-04  0.19254054D-04  0.19498849D-05
 -0.20823893D-03 -0.31070054D-04 -0.27390819D-05  0.54465424D-04 -0.26692107D-04
  0.72339919D-05 -0.42245871D+00 -0.78746377D+00 -0.13349265D+01 -0.20212593D+01
 -0.25270193D+01 -0.21736897D+01 -0.83365680D+00 -0.38738313D-04 -0.51282273D-03
 -0.18626655D-02 -0.55255620D-02 -0.63670942D-02  0.77337843D-02 -0.39152305D-01
  0.16952539D-03 -0.82899282D-04 -0.12495753D-03 -0.12220574D-03 -0.80746497D-04
  0.97644314D-02  0.95494006D-02  0.63096927D-02 -0.74575194D-02 -0.72932910D-02
 -0.48189858D-02 -0.45786514D-05 -0.18454027D-03 -0.15264875D-03 -0.86801501D-05
  0.23431114D-03 -0.39557719D-03  0.79951783D-07  0.21133606D-04 -0.41309530D-05
  0.14778235D-03 -0.16434305D-03  0.16560702D-04 -0.47447219D-05  0.92494684D-05
  0.25089797D-03 -0.15559806D-03  0.24665157D-03 -0.91053511D-04 -0.56062138D-05
  0.65370241D-06 -0.51858107D-03  0.58506003D-04 -0.13584791D-04 -0.44921212D-04
  0.34485454D-05 -0.22290666D-05  0.13169208D-03  0.44686992D-06 -0.27304695D-03
 -0.11107045D-04  0.88287583D-05  0.88372309D-03 -0.18517844D-03 -0.10169368D-04
 -0.64582257D-04  0.21849958D-03 -0.22344584D-04 -0.26306568D-06  0.51257836D-04
 -0.19254053D-04 -0.19498848D-05 -0.20823894D-03  0.31070056D-04  0.27390819D-05
  0.54465427D-04  0.26692104D-04  0.72339919D-05
MO    4     MO 0.0        OCC NO =    2.0000016  ORB. ENERGY =    0.000000
  0.10182502D+00  0.18978510D+00  0.32180730D+00  0.48702113D+00  0.60752048D+00
  0.52134295D+00  0.19964665D+00  0.13151302D-04  0.14110484D-03  0.52013902D-03
  0.15208560D-02  0.18327054D-02 -0.22076879D-02  0.93964074D-02 -0.42176480D-03
 -0.17757800D-03 -0.39826988D-04 -0.38618782D-04 -0.26052002D-04  0.20612232D-11
  0.19986931D-11  0.13483066D-11  0.53261355D-03  0.51645598D-03  0.34839816D-03
 -0.24769879D-04  0.28057234D-12  0.15683748D-02  0.16233550D-05 -0.21313172D-12
  0.12186136D-03  0.17954316D-06 -0.34616750D-13  0.19299608D-04  0.15169927D-03
 -0.88870264D-05 -0.14281225D-03  0.54142984D-13  0.21940321D-04 -0.42705883D-12
  0.62684456D-04  0.28794486D-03 -0.35062931D-03 -0.30802104D-13  0.38850863D-05
  0.14502536D-12 -0.11742543D-04  0.21706303D-04 -0.99637599D-05 -0.12302102D-13
 -0.28188153D-05  0.60576375D-13  0.10000327D-05  0.21335229D-13 -0.31182248D-03
 -0.46591709D-05 -0.38444825D-12  0.61553956D-03  0.16590728D-05  0.32044257D-12
  0.31992788D-03 -0.51947300D-13 -0.21225391D-05 -0.67416161D-14  0.77893766D-04
  0.33153655D-05  0.16218206D-12 -0.15553796D-04  0.30522518D-05 -0.14195721D-12
 -0.21812750D-03  0.43495188D-13  0.14760210D+00  0.27516004D+00  0.46505796D+00
  0.69906885D+00  0.85868087D+00  0.72469636D+00  0.27250476D+00  0.11535174D-04
  0.86218279D-04  0.32221739D-03  0.89893636D-03  0.12043269D-02 -0.14220855D-02
  0.11820722D-01  0.21343341D-04  0.24401518D-04  0.10748511D-04  0.10077412D-04
  0.71757179D-05  0.14476477D-12  0.13572617D-12  0.96645121D-13 -0.23507772D-02
 -0.22040030D-02 -0.15693814D-02 -0.18091533D-04  0.96355067D-12  0.63215147D-03
 -0.12430222D-05 -0.12417540D-12  0.20543875D-03 -0.11410935D-06  0.15498570D-13
 -0.12649388D-05 -0.10770975D-02  0.33940010D-03  0.73769743D-03 -0.13716856D-13
 -0.17859208D-05 -0.14779489D-11 -0.31408591D-04 -0.98206235D-04  0.12961483D-03
 -0.17471264D-13 -0.74247283D-05 -0.93532521D-12  0.38549575D-05 -0.12771071D-04
  0.89161133D-05  0.69484960D-15 -0.55824201D-06  0.65883302D-13  0.95614170D-05
  0.61321130D-13  0.48368085D-03 -0.11076336D-04 -0.12533618D-11  0.19725583D-03
 -0.17607915D-04  0.10693984D-11 -0.16482984D-02  0.69587733D-13  0.97900155D-07
 -0.10496938D-12  0.42317102D-04  0.57192794D-06 -0.73604903D-13 -0.24693908D-04
 -0.86562841D-06  0.38851305D-12 -0.10225740D-03  0.32283252D-13  0.36699524D+00
  0.68407976D+00  0.11596676D+01  0.17558936D+01  0.21952537D+01  0.18883118D+01
  0.72420823D+00  0.31538964D-04  0.41751682D-03  0.15164971D-02  0.44986600D-02
  0.51837970D-02 -0.62964936D-02  0.34341997D-01  0.26316059D-03  0.80850880D-04
  0.59489481D-04  0.58179413D-04  0.38441598D-04  0.62410665D-02  0.61036268D-02
  0.40329243D-02  0.39233423D-02  0.38369431D-02  0.25352306D-02 -0.13948187D-04
 -0.54792424D-03 -0.64187281D-03  0.33769424D-05  0.30577420D-03  0.16052047D-03
  0.94839211D-07  0.49053537D-05  0.13385428D-04 -0.23382175D-03  0.17460893D-03
  0.59212817D-04  0.14019145D-05  0.80374699D-05  0.78307741D-03  0.25117965D-03
 -0.18033773D-03 -0.70841917D-04 -0.11498110D-04 -0.12531777D-04 -0.99169615D-03
 -0.44044606D-04  0.34784316D-04  0.92602897D-05  0.28424614D-05  0.17630886D-05
  0.61915149D-04  0.10963954D-04  0.20914986D-04 -0.75204777D-04 -0.18697750D-04
  0.27189967D-03  0.45867392D-03 -0.14194112D-04 -0.33464462D-03 -0.23305959D-03
 -0.15030226D-04 -0.14517092D-05  0.32891649D-04  0.10050911D-03  0.29738215D-05
  0.10919311D-03  0.44099366D-04  0.13813060D-05 -0.20786805D-03 -0.34562670D-03
 -0.76122959D-05  0.36699524D+00  0.68407976D+00  0.11596676D+01  0.17558936D+01
  0.21952537D+01  0.18883119D+01  0.72420824D+00  0.31538964D-04  0.41751683D-03
  0.15164971D-02  0.44986600D-02  0.51837970D-02 -0.62964936D-02  0.34341997D-01
  0.26316059D-03  0.80850880D-04  0.59489482D-04  0.58179414D-04  0.38441599D-04
 -0.62410666D-02 -0.61036268D-02 -0.40329243D-02  0.39233424D-02  0.38369432D-02
  0.25352306D-02 -0.13948187D-04  0.54792424D-03 -0.64187281D-03  0.33769425D-05
 -0.30577420D-03  0.16052047D-03  0.94839211D-07 -0.49053538D-05  0.13385428D-04
 -0.23382175D-03  0.17460893D-03  0.59212817D-04 -0.14019145D-05  0.80374698D-05
 -0.78307741D-03  0.25117965D-03 -0.18033774D-03 -0.70841916D-04  0.11498110D-04
 -0.12531777D-04  0.99169615D-03 -0.44044606D-04  0.34784316D-04  0.92602899D-05
 -0.28424614D-05  0.17630887D-05 -0.61915150D-04  0.10963954D-04 -0.20914985D-04
 -0.75204777D-04 -0.18697750D-04 -0.27189967D-03  0.45867392D-03 -0.14194112D-04
  0.33464462D-03 -0.23305959D-03  0.15030226D-04 -0.14517092D-05 -0.32891649D-04
  0.10050911D-03  0.29738215D-05 -0.10919310D-03  0.44099366D-04  0.13813060D-05
  0.20786805D-03 -0.34562670D-03  0.76122958D-05
MO    5     MO 0.0        OCC NO =    1.9861784  ORB. ENERGY =    0.000000
 -0.99157223D-02 -0.18481276D-01 -0.31337601D-01 -0.47426126D-01 -0.59160354D-01
 -0.50768386D-01 -0.19441595D-01 -0.16086161D-03 -0.17259395D-02 -0.63621381D-02
 -0.18602518D-01 -0.22416939D-01  0.27003579D-01  0.14150452D-01 -0.30756278D-04
 -0.19217707D-02  0.60854448D-03  0.59008345D-03  0.39806681D-03 -0.56410499D-12
 -0.54699209D-12 -0.36899763D-12 -0.69614072D-01 -0.67502233D-01 -0.45536608D-01
  0.10192893D-03  0.13725400D-12 -0.13005647D-01 -0.14909773D-04  0.69534115D-12
  0.19930866D-02  0.17003840D-05 -0.78621421D-13  0.22940808D-03 -0.40044523D-02
 -0.42473657D-02  0.82518180D-02 -0.85780973D-14 -0.11172773D-03  0.17740349D-12
 -0.45483127D-03  0.61877657D-03 -0.16394530D-03  0.87547446D-14 -0.17786110D-04
 -0.82023513D-13  0.10939485D-03  0.51802156D-03 -0.62741641D-03  0.24761971D-14
  0.81317314D-05 -0.27758855D-12  0.41335471D-06 -0.58806058D-15 -0.16157647D-02
 -0.27332719D-04  0.12479154D-12  0.34856932D-02  0.26092655D-04 -0.12302736D-12
  0.13616009D-02  0.11274935D-13 -0.11924761D-04  0.12203116D-13  0.50944182D-03
  0.23315679D-04 -0.41180880D-13 -0.22282756D-03  0.12458603D-04  0.45715314D-14
 -0.13054979D-02 -0.69550172D-14 -0.17211382D-01 -0.32085483D-01 -0.54228838D-01
 -0.81516057D-01 -0.10012788D+00 -0.84504395D-01 -0.31775859D-01 -0.31579564D-03
 -0.23603768D-02 -0.88212669D-02 -0.24609961D-01 -0.32970563D-01  0.38932087D-01
  0.15590868D-01  0.22587971D-02  0.22658543D-03 -0.12167100D-02 -0.11407429D-02
 -0.81227692D-03 -0.69373522D-12 -0.65042086D-12 -0.46313840D-12 -0.34517356D-01
 -0.32362216D-01 -0.23043825D-01 -0.30427446D-03 -0.59733271D-13 -0.49750817D-02
  0.52452478D-05 -0.13361966D-11  0.15135577D-02 -0.13969428D-05  0.18218828D-13
 -0.32781506D-05 -0.19252076D-01  0.93254152D-02  0.99266609D-02 -0.14684831D-13
  0.24697676D-03  0.63277132D-13 -0.26122828D-02  0.11488932D-02  0.14633896D-02
 -0.39842053D-14  0.24135674D-04  0.28608558D-12  0.83452524D-04 -0.92077134D-04
  0.86246100D-05  0.17772967D-14 -0.46755704D-05  0.19471014D-12  0.90753977D-04
 -0.24759578D-14  0.34357604D-02 -0.10477726D-03 -0.78001719D-13  0.34591482D-02
 -0.16748467D-03  0.85429592D-13 -0.13766429D-01  0.26745054D-14 -0.27300701D-05
  0.11581257D-12  0.26826785D-03 -0.10040015D-05  0.15091720D-12  0.31639662D-03
  0.91942118D-05 -0.49835491D-12 -0.11212002D-02  0.65141791D-15 -0.89169764D-01
 -0.16621259D+00 -0.28176737D+00 -0.42663391D+00 -0.53338636D+00 -0.45880791D+00
 -0.17596271D+00 -0.12987021D-02 -0.17192384D-01 -0.62445866D-01 -0.18524449D+00
 -0.21345685D+00  0.25927514D+00  0.14914224D+00  0.67597439D-01  0.16898444D-02
 -0.15098979D-02 -0.14766472D-02 -0.97568324D-03 -0.38046005D-01 -0.37208162D-01
 -0.24585006D-01 -0.13143257D+00 -0.12853818D+00 -0.84930612D-01 -0.30299122D-03
 -0.36419035D-02 -0.27296519D-01 -0.84308728D-04 -0.32647888D-02 -0.62983170D-02
 -0.98671409D-06 -0.48528962D-04 -0.46794607D-04 -0.59980703D-02  0.73442104D-02
 -0.13461401D-02  0.13055433D-03  0.10595123D-03  0.13751543D-01 -0.29939695D-02
  0.41354123D-02 -0.11414428D-02  0.98267780D-04  0.39800126D-04  0.75485162D-02
  0.21598316D-03 -0.21184445D-03 -0.41387024D-05 -0.19160171D-04 -0.80104118D-05
 -0.91051792D-03 -0.25005130D-04  0.16650468D-02 -0.21595994D-02  0.89969375D-04
 -0.64256414D-02 -0.23949107D-02 -0.14953984D-04  0.14305010D-02  0.88737090D-02
  0.16003755D-03 -0.14191395D-04  0.29374375D-03 -0.22228399D-03  0.34116614D-04
 -0.87850876D-03 -0.10352193D-02  0.84575712D-05 -0.27224711D-05  0.17020713D-02