 f2co-wavefunction
GAUSSIAN            184 MOL ORBITALS    288 PRIMITIVES        4 NUCLEI
  O    1    (CENTRE  1)   0.00000000  0.00000000  1.28487582  CHARGE =  8.0
  C    2    (CENTRE  2)  -0.01889726  0.00000000 -0.93015344  CHARGE =  6.0
  F    3    (CENTRE  3)   0.00000000 -2.00098943 -2.38919020  CHARGE =  9.0
  F    4    (CENTRE  4)   0.00000000  2.00098943 -2.38919020  CHARGE =  9.0
CENTRE ASSIGNMENTS    1  1  1  1  1  1  1  1  1  1  1  1  1  1  1  1  1  1  1  1
CENTRE ASSIGNMENTS    1  1  1  1  1  1  1  1  1  1  1  1  1  1  1  1  1  1  1  1
CENTRE ASSIGNMENTS    1  1  1  1  1  1  1  1  1  1  1  1  1  1  1  1  1  1  1  1
CENTRE ASSIGNMENTS    1  1  1  1  1  1  1  1  1  1  1  1  2  2  2  2  2  2  2  2
CENTRE ASSIGNMENTS    2  2  2  2  2  2  2  2  2  2  2  2  2  2  2  2  2  2  2  2
CENTRE ASSIGNMENTS    2  2  2  2  2  2  2  2  2  2  2  2  2  2  2  2  2  2  2  2
CENTRE ASSIGNMENTS    2  2  2  2  2  2  2  2  2  2  2  2  2  2  2  2  2  2  2  2
CENTRE ASSIGNMENTS    2  2  2  2  3  3  3  3  3  3  3  3  3  3  3  3  3  3  3  3
CENTRE ASSIGNMENTS    3  3  3  3  3  3  3  3  3  3  3  3  3  3  3  3  3  3  3  3
CENTRE ASSIGNMENTS    3  3  3  3  3  3  3  3  3  3  3  3  3  3  3  3  3  3  3  3
CENTRE ASSIGNMENTS    3  3  3  3  3  3  3  3  3  3  3  3  3  3  3  3  4  4  4  4
CENTRE ASSIGNMENTS    4  4  4  4  4  4  4  4  4  4  4  4  4  4  4  4  4  4  4  4
CENTRE ASSIGNMENTS    4  4  4  4  4  4  4  4  4  4  4  4  4  4  4  4  4  4  4  4
CENTRE ASSIGNMENTS    4  4  4  4  4  4  4  4  4  4  4  4  4  4  4  4  4  4  4  4
CENTRE ASSIGNMENTS    4  4  4  4  4  4  4  4
TYPE ASSIGNMENTS      1  1  1  1  1  1  1  1  1  1  1  1  1  1  1  1  2  2  2  3
TYPE ASSIGNMENTS      3  3  4  4  4  2  3  4  2  3  4  2  3  4  5  6  7  8  9 10
TYPE ASSIGNMENTS      5  6  7  8  9 10  5  6  7  8  9 10 11 12 13 17 14 15 18 19
TYPE ASSIGNMENTS     16 20 11 12 13 17 14 15 18 19 16 20  1  1  1  1  1  1  1  1
TYPE ASSIGNMENTS      1  1  1  1  1  1  1  1  2  2  2  3  3  3  4  4  4  2  3  4
TYPE ASSIGNMENTS      2  3  4  2  3  4  5  6  7  8  9 10  5  6  7  8  9 10  5  6
TYPE ASSIGNMENTS      7  8  9 10 11 12 13 17 14 15 18 19 16 20 11 12 13 17 14 15
TYPE ASSIGNMENTS     18 19 16 20  1  1  1  1  1  1  1  1  1  1  1  1  1  1  1  1
TYPE ASSIGNMENTS      2  2  2  3  3  3  4  4  4  2  3  4  2  3  4  2  3  4  5  6
TYPE ASSIGNMENTS      7  8  9 10  5  6  7  8  9 10  5  6  7  8  9 10 11 12 13 17
TYPE ASSIGNMENTS     14 15 18 19 16 20 11 12 13 17 14 15 18 19 16 20  1  1  1  1
TYPE ASSIGNMENTS      1  1  1  1  1  1  1  1  1  1  1  1  2  2  2  3  3  3  4  4
TYPE ASSIGNMENTS      4  2  3  4  2  3  4  2  3  4  5  6  7  8  9 10  5  6  7  8
TYPE ASSIGNMENTS      9 10  5  6  7  8  9 10 11 12 13 17 14 15 18 19 16 20 11 12
TYPE ASSIGNMENTS     13 17 14 15 18 19 16 20
EXPONENTS  0.1533000D+05 0.2299000D+04 0.5224000D+03 0.1473000D+03 0.4755000D+02
EXPONENTS  0.1676000D+02 0.6207000D+01 0.5224000D+03 0.1473000D+03 0.4755000D+02
EXPONENTS  0.1676000D+02 0.6207000D+01 0.6882000D+00 0.1752000D+01 0.2384000D+00
EXPONENTS  0.7376000D-01 0.3446000D+02 0.7749000D+01 0.2280000D+01 0.3446000D+02
EXPONENTS  0.7749000D+01 0.2280000D+01 0.3446000D+02 0.7749000D+01 0.2280000D+01
EXPONENTS  0.7156000D+00 0.7156000D+00 0.7156000D+00 0.2140000D+00 0.2140000D+00
EXPONENTS  0.2140000D+00 0.5974000D-01 0.5974000D-01 0.5974000D-01 0.2314000D+01
EXPONENTS  0.2314000D+01 0.2314000D+01 0.2314000D+01 0.2314000D+01 0.2314000D+01
EXPONENTS  0.6450000D+00 0.6450000D+00 0.6450000D+00 0.6450000D+00 0.6450000D+00
EXPONENTS  0.6450000D+00 0.2140000D+00 0.2140000D+00 0.2140000D+00 0.2140000D+00
EXPONENTS  0.2140000D+00 0.2140000D+00 0.1428000D+01 0.1428000D+01 0.1428000D+01
EXPONENTS  0.1428000D+01 0.1428000D+01 0.1428000D+01 0.1428000D+01 0.1428000D+01
EXPONENTS  0.1428000D+01 0.1428000D+01 0.5000000D+00 0.5000000D+00 0.5000000D+00
EXPONENTS  0.5000000D+00 0.5000000D+00 0.5000000D+00 0.5000000D+00 0.5000000D+00
EXPONENTS  0.5000000D+00 0.5000000D+00 0.8236000D+04 0.1235000D+04 0.2808000D+03
EXPONENTS  0.7927000D+02 0.2559000D+02 0.8997000D+01 0.3319000D+01 0.2808000D+03
EXPONENTS  0.7927000D+02 0.2559000D+02 0.8997000D+01 0.3319000D+01 0.3643000D+00
EXPONENTS  0.9059000D+00 0.1285000D+00 0.4402000D-01 0.1871000D+02 0.4133000D+01
EXPONENTS  0.1200000D+01 0.1871000D+02 0.4133000D+01 0.1200000D+01 0.1871000D+02
EXPONENTS  0.4133000D+01 0.1200000D+01 0.3827000D+00 0.3827000D+00 0.3827000D+00
EXPONENTS  0.1209000D+00 0.1209000D+00 0.1209000D+00 0.3569000D-01 0.3569000D-01
EXPONENTS  0.3569000D-01 0.1097000D+01 0.1097000D+01 0.1097000D+01 0.1097000D+01
EXPONENTS  0.1097000D+01 0.1097000D+01 0.3180000D+00 0.3180000D+00 0.3180000D+00
EXPONENTS  0.3180000D+00 0.3180000D+00 0.3180000D+00 0.1000000D+00 0.1000000D+00
EXPONENTS  0.1000000D+00 0.1000000D+00 0.1000000D+00 0.1000000D+00 0.7610000D+00
EXPONENTS  0.7610000D+00 0.7610000D+00 0.7610000D+00 0.7610000D+00 0.7610000D+00
EXPONENTS  0.7610000D+00 0.7610000D+00 0.7610000D+00 0.7610000D+00 0.2680000D+00
EXPONENTS  0.2680000D+00 0.2680000D+00 0.2680000D+00 0.2680000D+00 0.2680000D+00
EXPONENTS  0.2680000D+00 0.2680000D+00 0.2680000D+00 0.2680000D+00 0.1950000D+05
EXPONENTS  0.2923000D+04 0.6645000D+03 0.1875000D+03 0.6062000D+02 0.2142000D+02
EXPONENTS  0.7950000D+01 0.6645000D+03 0.1875000D+03 0.6062000D+02 0.2142000D+02
EXPONENTS  0.7950000D+01 0.8815000D+00 0.2257000D+01 0.3041000D+00 0.9158000D-01
EXPONENTS  0.4388000D+02 0.9926000D+01 0.2930000D+01 0.4388000D+02 0.9926000D+01
EXPONENTS  0.2930000D+01 0.4388000D+02 0.9926000D+01 0.2930000D+01 0.9132000D+00
EXPONENTS  0.9132000D+00 0.9132000D+00 0.2672000D+00 0.2672000D+00 0.2672000D+00
EXPONENTS  0.7361000D-01 0.7361000D-01 0.7361000D-01 0.3107000D+01 0.3107000D+01
EXPONENTS  0.3107000D+01 0.3107000D+01 0.3107000D+01 0.3107000D+01 0.8550000D+00
EXPONENTS  0.8550000D+00 0.8550000D+00 0.8550000D+00 0.8550000D+00 0.8550000D+00
EXPONENTS  0.2920000D+00 0.2920000D+00 0.2920000D+00 0.2920000D+00 0.2920000D+00
EXPONENTS  0.2920000D+00 0.1917000D+01 0.1917000D+01 0.1917000D+01 0.1917000D+01
EXPONENTS  0.1917000D+01 0.1917000D+01 0.1917000D+01 0.1917000D+01 0.1917000D+01
EXPONENTS  0.1917000D+01 0.7240000D+00 0.7240000D+00 0.7240000D+00 0.7240000D+00
EXPONENTS  0.7240000D+00 0.7240000D+00 0.7240000D+00 0.7240000D+00 0.7240000D+00
EXPONENTS  0.7240000D+00 0.1950000D+05 0.2923000D+04 0.6645000D+03 0.1875000D+03
EXPONENTS  0.6062000D+02 0.2142000D+02 0.7950000D+01 0.6645000D+03 0.1875000D+03
EXPONENTS  0.6062000D+02 0.2142000D+02 0.7950000D+01 0.8815000D+00 0.2257000D+01
EXPONENTS  0.3041000D+00 0.9158000D-01 0.4388000D+02 0.9926000D+01 0.2930000D+01
EXPONENTS  0.4388000D+02 0.9926000D+01 0.2930000D+01 0.4388000D+02 0.9926000D+01
EXPONENTS  0.2930000D+01 0.9132000D+00 0.9132000D+00 0.9132000D+00 0.2672000D+00
EXPONENTS  0.2672000D+00 0.2672000D+00 0.7361000D-01 0.7361000D-01 0.7361000D-01
EXPONENTS  0.3107000D+01 0.3107000D+01 0.3107000D+01 0.3107000D+01 0.3107000D+01
EXPONENTS  0.3107000D+01 0.8550000D+00 0.8550000D+00 0.8550000D+00 0.8550000D+00
EXPONENTS  0.8550000D+00 0.8550000D+00 0.2920000D+00 0.2920000D+00 0.2920000D+00
EXPONENTS  0.2920000D+00 0.2920000D+00 0.2920000D+00 0.1917000D+01 0.1917000D+01
EXPONENTS  0.1917000D+01 0.1917000D+01 0.1917000D+01 0.1917000D+01 0.1917000D+01
EXPONENTS  0.1917000D+01 0.1917000D+01 0.1917000D+01 0.7240000D+00 0.7240000D+00
EXPONENTS  0.7240000D+00 0.7240000D+00 0.7240000D+00 0.7240000D+00 0.7240000D+00
EXPONENTS  0.7240000D+00 0.7240000D+00 0.7240000D+00
MO    1     MO 0.0        OCC NO =    2.0000067  ORB. ENERGY =    0.000000
 -0.32221248D+00 -0.60055109D+00 -0.10183188D+01 -0.15411172D+01 -0.19224222D+01
 -0.16497243D+01 -0.63175675D+00 -0.40145280D-04 -0.43073251D-03 -0.15877611D-02
 -0.46425204D-02 -0.55944628D-02  0.67391233D-02 -0.29033410D-01  0.49038198D-03
 -0.49972573D-04  0.21683265D-03  0.21025473D-03  0.14183660D-03  0.29563277D-12
  0.28666435D-12  0.19338207D-12  0.19770028D-01  0.19170276D-01  0.12932155D-01
  0.20061396D-04  0.42907133D-13  0.25044007D-02  0.23316721D-06 -0.21100251D-13
  0.66407373D-03  0.10020372D-06 -0.75788009D-14  0.14586850D-04  0.12275763D-02
  0.65192936D-03 -0.18795057D-02 -0.19825446D-13 -0.59512246D-04 -0.70551738D-13
  0.50326392D-04 -0.25153218D-04 -0.25173175D-04  0.46737371D-14  0.63720899D-05
  0.15767829D-13  0.50129499D-04 -0.18287647D-05 -0.48300734D-04  0.22575048D-14
  0.73237813D-06  0.53366726D-14  0.84625881D-05 -0.10576440D-14 -0.54847237D-03
 -0.45028122D-05 -0.51072850D-13  0.10329141D-02 -0.20884952D-04  0.54245782D-13
  0.61250302D-03  0.19981112D-13 -0.31745976D-06 -0.10189487D-14  0.13160936D-04
  0.25505961D-05  0.22181756D-13 -0.22415017D-04 -0.15982168D-05 -0.19124909D-13
 -0.17067790D-04 -0.80880253D-14  0.23919688D+00  0.44591117D+00  0.75365063D+00
  0.11328775D+01  0.13915370D+01  0.11744082D+01  0.44160814D+00  0.26516952D-04
  0.19819778D-03  0.74071038D-03  0.20664666D-02  0.27684955D-02 -0.32690770D-02
  0.19351954D-01 -0.41365166D-04  0.15416693D-04 -0.22710272D-04 -0.21292323D-04
 -0.15161403D-04  0.62740225D-13  0.58822949D-13  0.41885444D-13 -0.40559469D-02
 -0.38027080D-02 -0.27077546D-02  0.16325991D-04  0.81031009D-13  0.48140658D-03
  0.17801159D-05 -0.56873540D-13  0.81584993D-04 -0.68542285D-07  0.30831258D-14
  0.82314174D-06 -0.95452189D-03  0.40685078D-03  0.54767111D-03  0.13767731D-14
  0.94466983D-06 -0.21240723D-12  0.21528941D-03 -0.12687631D-03 -0.88413102D-04
  0.24378070D-14  0.54094815D-05 -0.10558485D-12 -0.28862654D-07 -0.26964409D-05
  0.27253035D-05 -0.14475717D-15  0.34655807D-06  0.15086011D-13 -0.77898918D-05
  0.10458882D-13  0.56070329D-03  0.21829821D-05 -0.17865483D-12 -0.33646764D-03
  0.21186693D-04  0.14727819D-12 -0.13456422D-02 -0.10797013D-13  0.18818956D-06
 -0.13008391D-13 -0.88300876D-04 -0.67667949D-06 -0.79860647D-14 -0.11508753D-04
  0.11211081D-06  0.47011238D-13  0.27641138D-03 -0.56690945D-14 -0.96274727D-01
 -0.17945626D+00 -0.30421834D+00 -0.46062770D+00 -0.57588608D+00 -0.49536530D+00
 -0.18998325D+00 -0.11687688D-04 -0.15472311D-03 -0.56198249D-03 -0.16671105D-02
 -0.19210081D-02  0.23333505D-02 -0.84117868D-02  0.77982873D-03  0.27613433D-04
  0.71348745D-04  0.69777515D-04  0.46104954D-04 -0.73994630D-02 -0.72365132D-02
 -0.47814702D-02 -0.60156563D-02 -0.58831805D-02 -0.38872661D-02  0.10391255D-04
 -0.12759792D-02 -0.11543116D-02 -0.29909062D-05 -0.15261383D-03 -0.84463346D-04
  0.17132257D-06 -0.37504839D-05 -0.19661452D-05  0.79659173D-04 -0.63632775D-04
 -0.16026398D-04  0.48859483D-05 -0.70639460D-05  0.66498990D-03  0.15030599D-03
 -0.73250210D-04 -0.77055776D-04  0.17238559D-05  0.67686477D-05 -0.78453966D-03
  0.42129177D-04 -0.22722698D-04 -0.19406479D-04 -0.10744407D-05 -0.11335584D-05
 -0.55374820D-05 -0.21940289D-05 -0.17701937D-04 -0.26762419D-05  0.11338464D-04
  0.23956392D-03  0.10250462D-03 -0.47563771D-05 -0.18645811D-03 -0.94475892D-04
  0.15106352D-04 -0.14208655D-05  0.57458222D-04  0.10166245D-03 -0.13486356D-05
  0.16486513D-03  0.20468757D-03  0.56112320D-05 -0.33723979D-03 -0.50967492D-03
  0.93832520D-05 -0.96274727D-01 -0.17945626D+00 -0.30421833D+00 -0.46062770D+00
 -0.57588608D+00 -0.49536530D+00 -0.18998325D+00 -0.11687688D-04 -0.15472311D-03
 -0.56198249D-03 -0.16671105D-02 -0.19210081D-02  0.23333505D-02 -0.84117868D-02
  0.77982873D-03  0.27613433D-04  0.71348745D-04  0.69777515D-04  0.46104954D-04
  0.73994630D-02  0.72365132D-02  0.47814702D-02 -0.60156563D-02 -0.58831805D-02
 -0.38872661D-02  0.10391255D-04  0.12759792D-02 -0.11543116D-02 -0.29909062D-05
  0.15261383D-03 -0.84463346D-04  0.17132257D-06  0.37504838D-05 -0.19661452D-05
  0.79659173D-04 -0.63632775D-04 -0.16026398D-04 -0.48859483D-05 -0.70639460D-05
 -0.66498990D-03  0.15030599D-03 -0.73250210D-04 -0.77055776D-04 -0.17238559D-05
  0.67686477D-05  0.78453966D-03  0.42129177D-04 -0.22722698D-04 -0.19406479D-04
  0.10744407D-05 -0.11335584D-05  0.55374819D-05 -0.21940289D-05  0.17701937D-04
 -0.26762419D-05  0.11338464D-04 -0.23956392D-03  0.10250462D-03 -0.47563771D-05
  0.18645811D-03 -0.94475893D-04 -0.15106352D-04 -0.14208655D-05 -0.57458222D-04
  0.10166245D-03 -0.13486356D-05 -0.16486513D-03  0.20468757D-03  0.56112320D-05
  0.33723979D-03 -0.50967492D-03 -0.93832520D-05
MO    2     MO 0.0        OCC NO =    2.0000037  ORB. ENERGY =    0.000000
 -0.36837632D+00 -0.68659289D+00 -0.11642147D+01 -0.17619152D+01 -0.21978503D+01
 -0.18860826D+01 -0.72226943D+00 -0.43675865D-04 -0.46861336D-03 -0.17273971D-02
 -0.50508078D-02 -0.60864690D-02  0.73317969D-02 -0.33651330D-01  0.66798142D-03
  0.91628391D-04  0.57679202D-04  0.55929424D-04  0.37729659D-04 -0.13240857D-11
 -0.12839177D-11 -0.86612332D-12  0.87217583D-02  0.84571717D-02  0.57051581D-02
 -0.20150335D-04 -0.18406985D-12 -0.18393929D-02  0.54132709D-05  0.12758001D-12
 -0.15559230D-03 -0.11088822D-06  0.24116548D-13  0.17784742D-05  0.69251407D-03
  0.89332061D-04 -0.78184613D-03  0.32913400D-13 -0.19234598D-05  0.27716884D-12
 -0.33885468D-03 -0.35770335D-03  0.69655803D-03 -0.17850616D-13  0.16395956D-04
 -0.87536341D-13 -0.39192297D-04  0.13194423D-04  0.25997874D-04 -0.66514150D-14
 -0.12161501D-05 -0.35797125D-13 -0.34748927D-05 -0.13404183D-13  0.24869752D-03
  0.83877865D-05  0.24462071D-12 -0.22318646D-03  0.20368916D-05 -0.20440816D-12
 -0.52290611D-03 -0.33777898D-13  0.23829551D-05  0.46442674D-14 -0.66625989D-04
 -0.27678622D-05 -0.10091583D-12  0.11077882D-03 -0.43810032D-05  0.86983031D-13
  0.89099142D-04  0.24585986D-13 -0.16826322D+00 -0.31367653D+00 -0.53015608D+00
 -0.79692346D+00 -0.97887774D+00 -0.82613828D+00 -0.31064957D+00 -0.14536194D-04
 -0.10864904D-03 -0.40604629D-03 -0.11328059D-02 -0.15176476D-02  0.17920588D-02
 -0.14047051D-01  0.98868001D-04 -0.68539521D-05  0.12530505D-04  0.11748145D-04
  0.83653792D-05 -0.12717378D-12 -0.11923350D-12 -0.84901356D-13  0.25227698D-02
  0.23652570D-02  0.16842039D-02 -0.15765586D-04 -0.53410488D-12 -0.20186430D-02
 -0.23513549D-05  0.11782809D-12 -0.25993758D-04  0.36485662D-07 -0.10213300D-13
 -0.84447760D-05  0.82530063D-03  0.15029472D-03 -0.97559536D-03 -0.11678032D-13
 -0.17935166D-04  0.90452096D-12 -0.13253127D-03  0.36153389D-03 -0.22900261D-03
 -0.60126478D-14 -0.13493561D-04  0.54251652D-12 -0.33203679D-05 -0.14267253D-04
  0.17587620D-04  0.51137178D-15  0.49247094D-07 -0.47313826D-13  0.20920378D-05
 -0.38393284D-13 -0.25391963D-03  0.10383428D-05  0.77240629D-12  0.52928486D-03
 -0.73144562D-05 -0.65722643D-12  0.23247403D-03  0.42436837D-13  0.49338406D-06
  0.64193483D-13  0.34358264D-04  0.28537838D-05  0.43160253D-13  0.73079877D-04
 -0.43339360D-05 -0.23574070D-12 -0.17615467D-03  0.16534303D-13  0.18573355D+00
  0.34620766D+00  0.58689911D+00  0.88864462D+00  0.11110015D+01  0.95566052D+00
  0.36651638D+00  0.19125132D-04  0.25318093D-03  0.91959921D-03  0.27279737D-02
  0.31434387D-02 -0.38181745D-02  0.16913271D-01 -0.85306586D-03 -0.28937006D-04
 -0.11017827D-03 -0.10775194D-03 -0.71196262D-04  0.87678575D-02  0.85747731D-02
  0.56657151D-02  0.53358486D-02  0.52183434D-02  0.34479801D-02 -0.10644236D-04
  0.79536202D-03  0.27222301D-03  0.23329268D-05  0.81813585D-04 -0.20865270D-04
  0.61237077D-07 -0.16356064D-05  0.21143194D-04 -0.31830236D-04  0.15653837D-03
 -0.12470813D-03 -0.65898300D-06 -0.40349053D-05 -0.33593137D-03  0.41082822D-05
 -0.53389761D-04  0.49281479D-04  0.20973924D-05  0.36705639D-05  0.54854320D-04
 -0.16791563D-04  0.16082146D-04  0.70941725D-06  0.29372006D-05 -0.89116100D-06
 -0.25881075D-05  0.45225156D-06  0.10627658D-03 -0.11829245D-03 -0.10012857D-04
  0.95131062D-04  0.57530864D-03  0.86561028D-05 -0.41396079D-03 -0.22043129D-03
  0.81691579D-05  0.46050224D-06 -0.54991788D-04 -0.69542123D-05  0.27943577D-05
 -0.13653877D-03 -0.29129386D-03 -0.41758645D-05  0.30151413D-03  0.31215650D-03
 -0.74505174D-05  0.18573355D+00  0.34620765D+00  0.58689910D+00  0.88864461D+00
  0.11110015D+01  0.95566051D+00  0.36651638D+00  0.19125131D-04  0.25318093D-03
  0.91959920D-03  0.27279737D-02  0.31434387D-02 -0.38181745D-02  0.16913271D-01
 -0.85306585D-03 -0.28937006D-04 -0.11017827D-03 -0.10775194D-03 -0.71196261D-04
 -0.87678574D-02 -0.85747731D-02 -0.56657151D-02  0.53358486D-02  0.52183434D-02
  0.34479801D-02 -0.10644236D-04 -0.79536202D-03  0.27222301D-03  0.23329268D-05
 -0.81813584D-04 -0.20865271D-04  0.61237077D-07  0.16356064D-05  0.21143194D-04
 -0.31830235D-04  0.15653837D-03 -0.12470813D-03  0.65898302D-06 -0.40349053D-05
  0.33593137D-03  0.41082818D-05 -0.53389761D-04  0.49281479D-04 -0.20973924D-05
  0.36705639D-05 -0.54854322D-04 -0.16791563D-04  0.16082146D-04  0.70941712D-06
 -0.29372006D-05 -0.89116099D-06  0.25881079D-05  0.45225157D-06 -0.10627658D-03
 -0.11829245D-03 -0.10012857D-04 -0.95131059D-04  0.57530864D-03  0.86561028D-05
  0.41396079D-03 -0.22043129D-03 -0.81691578D-05  0.46050224D-06  0.54991788D-04
 -0.69542124D-05  0.27943577D-05  0.13653877D-03 -0.29129386D-03 -0.41758645D-05
 -0.30151413D-03  0.31215650D-03  0.74505174D-05
MO    3     MO 0.0        OCC NO =    2.0000022  ORB. ENERGY =    0.000000
  0.10102983D-08  0.18830299D-08  0.31929417D-08  0.48321778D-08  0.60277609D-08
  0.51727157D-08  0.19808753D-08  0.12509346D-12  0.13421707D-11  0.49474939D-11
  0.14466182D-10  0.17432453D-10 -0.20999236D-10  0.92988158D-10 -0.32461307D-11
 -0.11609815D-11  0.24794287D-12  0.24042118D-12  0.16218671D-12 -0.86327435D-03
 -0.83708573D-03 -0.56469309D-03 -0.29909589D-11 -0.29002240D-11 -0.19564740D-11
  0.18387487D-12 -0.11271470D-03  0.12517630D-10 -0.14498039D-13  0.90240356D-04
  0.11808942D-11 -0.68219045D-15  0.14466684D-04  0.11052408D-12  0.24961974D-12
  0.51463410D-13 -0.30108316D-12  0.19652449D-04 -0.15023367D-12  0.17959144D-03
  0.88382790D-12  0.21513095D-11 -0.30351374D-11 -0.11330775D-04 -0.46283384D-13
 -0.62223941D-04  0.10770406D-13  0.10212013D-12 -0.11289054D-12 -0.44639161D-05
  0.17298515D-13 -0.25103701D-04  0.46874787D-14 -0.11125194D-04 -0.23166625D-11
  0.90387667D-14  0.16261111D-03  0.41510515D-11 -0.23101203D-13 -0.12923553D-03
  0.27989360D-11 -0.15410730D-04  0.79279681D-14  0.32175977D-05  0.54092188D-12
 -0.13270577D-13 -0.67486207D-04 -0.25904325D-12 -0.10513327D-13  0.57833414D-04
 -0.13637224D-11  0.15674356D-04  0.11691806D-08  0.21795882D-08  0.36838010D-08
  0.55374400D-08  0.68017533D-08  0.57404398D-08  0.21585553D-08  0.96284219D-13
  0.71966488D-12  0.26895520D-11  0.75034312D-11  0.10052529D-10 -0.11870163D-10
  0.94546824D-10  0.10486657D-12  0.16274881D-12 -0.63170461D-13 -0.59226322D-13
 -0.42172670D-13 -0.59977864D-04 -0.56233060D-04 -0.40041289D-04 -0.18454401D-10
 -0.17302174D-10 -0.12320179D-10  0.13590251D-12 -0.38899010D-03  0.67768776D-11
  0.10883882D-13  0.56058098D-04  0.12046830D-11  0.59852615D-15 -0.63350524D-05
  0.61789272D-14 -0.76190596D-11  0.18045606D-11  0.58144990D-11 -0.66089094D-05
  0.37767886D-13  0.60965201D-03  0.77566096D-13 -0.11351204D-11  0.10575543D-11
 -0.43302616D-05  0.63698412D-13  0.38148612D-03  0.24917080D-13 -0.50097358D-13
  0.25180279D-13  0.35135142D-06  0.29867050D-14 -0.28214555D-04 -0.60692824D-13
 -0.24449366D-04  0.33091453D-11  0.63292030D-13  0.51648785D-03  0.17476348D-12
  0.11878644D-12 -0.44313975D-03 -0.10102199D-10  0.26949097D-04 -0.10450901D-14
  0.44137277D-04  0.15650401D-12 -0.80862910D-14  0.30436254D-04 -0.24977283D-12
  0.11221561D-13 -0.16284809D-03 -0.21973920D-12  0.10989014D-04  0.42245872D+00
  0.78746377D+00  0.13349265D+01  0.20212593D+01  0.25270193D+01  0.21736898D+01
  0.83365681D+00  0.38738313D-04  0.51282274D-03  0.18626655D-02  0.55255621D-02
  0.63670942D-02 -0.77337843D-02  0.39152305D-01 -0.16952538D-03  0.82899283D-04
 -0.12495754D-03 -0.12220574D-03 -0.80746501D-04  0.97644314D-02  0.95494006D-02
  0.63096927D-02  0.74575193D-02  0.72932910D-02  0.48189858D-02 -0.45786522D-05
 -0.18454029D-03  0.15264873D-03 -0.86801503D-05  0.23431114D-03  0.39557719D-03
  0.79951778D-07  0.21133606D-04  0.41309530D-05 -0.14778235D-03  0.16434305D-03
 -0.16560700D-04  0.47447218D-05  0.92494682D-05  0.25089798D-03  0.15559806D-03
 -0.24665157D-03  0.91053510D-04  0.56062139D-05  0.65370247D-06 -0.51858108D-03
 -0.58506003D-04  0.13584792D-04  0.44921212D-04 -0.34485454D-05 -0.22290667D-05
  0.13169208D-03  0.44686983D-06 -0.27304695D-03  0.11107045D-04  0.88287584D-05
  0.88372310D-03  0.18517844D-03 -0.10169368D-04 -0.64582259D-04 -0.21849958D-03
  0.22344584D-04 -0.26306566D-06  0.51257837D-04  0.19254054D-04 -0.19498849D-05
 -0.20823893D-03 -0.31070054D-04  0.27390819D-05  0.54465424D-04 -0.26692108D-04
 -0.72339919D-05 -0.42245871D+00 -0.78746377D+00 -0.13349265D+01 -0.20212593D+01
 -0.25270193D+01 -0.21736897D+01 -0.83365680D+00 -0.38738313D-04 -0.51282273D-03
 -0.18626655D-02 -0.55255620D-02 -0.63670942D-02  0.77337842D-02 -0.39152304D-01
  0.16952539D-03 -0.82899282D-04  0.12495754D-03  0.12220574D-03  0.80746501D-04
  0.97644313D-02  0.95494006D-02  0.63096927D-02 -0.74575193D-02 -0.72932910D-02
 -0.48189857D-02  0.45786524D-05 -0.18454028D-03 -0.15264874D-03  0.86801502D-05
  0.23431114D-03 -0.39557719D-03 -0.79951779D-07  0.21133606D-04 -0.41309529D-05
  0.14778235D-03 -0.16434305D-03  0.16560701D-04  0.47447219D-05 -0.92494683D-05
  0.25089797D-03 -0.15559806D-03  0.24665157D-03 -0.91053511D-04  0.56062138D-05
 -0.65370233D-06 -0.51858107D-03  0.58506003D-04 -0.13584791D-04 -0.44921212D-04
 -0.34485454D-05  0.22290666D-05  0.13169208D-03 -0.44686996D-06 -0.27304695D-03
 -0.11107045D-04 -0.88287582D-05  0.88372309D-03 -0.18517844D-03  0.10169368D-04
 -0.64582256D-04  0.21849958D-03  0.22344584D-04  0.26306568D-06  0.51257836D-04
 -0.19254053D-04  0.19498848D-05 -0.20823894D-03  0.31070056D-04 -0.27390819D-05
  0.54465427D-04  0.26692103D-04 -0.72339920D-05
MO    4     MO 0.0        OCC NO =    2.0000016  ORB. ENERGY =    0.000000
  0.10182502D+00  0.18978510D+00  0.32180730D+00  0.48702114D+00  0.60752048D+00
  0.52134295D+00  0.19964665D+00  0.13151302D-04  0.14110484D-03  0.52013902D-03
  0.15208560D-02  0.18327054D-02 -0.22076879D-02  0.93964074D-02 -0.42176480D-03
 -0.17757800D-03  0.39826987D-04  0.38618781D-04  0.26052001D-04  0.48194418D-11
  0.46732374D-11  0.31525383D-11  0.53261359D-03  0.51645603D-03  0.34839818D-03
  0.24769879D-04  0.63843169D-12  0.15683748D-02 -0.16233551D-05 -0.50205509D-12
  0.12186136D-03 -0.17954316D-06 -0.82471638D-13  0.19299608D-04  0.15169927D-03
 -0.88870247D-05 -0.14281225D-03 -0.11674744D-12 -0.21940321D-04 -0.10154334D-11
  0.62684456D-04  0.28794486D-03 -0.35062931D-03  0.66223241D-13 -0.38850863D-05
  0.34368723D-12 -0.11742543D-04  0.21706303D-04 -0.99637601D-05  0.26555909D-13
  0.28188153D-05  0.13969373D-12 -0.10000326D-05  0.56484547D-13 -0.31182248D-03
  0.46591708D-05 -0.90137484D-12  0.61553957D-03 -0.16590729D-05  0.73192120D-12
  0.31992788D-03  0.10081846D-12  0.21225391D-05 -0.17513814D-13  0.77893767D-04
 -0.33153654D-05  0.37617603D-12 -0.15553796D-04 -0.30522518D-05 -0.32363459D-12
 -0.21812750D-03 -0.93519843D-13  0.14760210D+00  0.27516004D+00  0.46505796D+00
  0.69906885D+00  0.85868088D+00  0.72469637D+00  0.27250476D+00  0.11535174D-04
  0.86218279D-04  0.32221740D-03  0.89893636D-03  0.12043269D-02 -0.14220855D-02
  0.11820722D-01  0.21343341D-04  0.24401518D-04 -0.10748511D-04 -0.10077413D-04
 -0.71757181D-05  0.34208010D-12  0.32072183D-12  0.22837305D-12 -0.23507772D-02
 -0.22040031D-02 -0.15693815D-02  0.18091533D-04  0.21868448D-11  0.63215147D-03
  0.12430222D-05 -0.31854144D-12  0.20543875D-03  0.11410935D-06  0.36303121D-13
 -0.12649388D-05 -0.10770975D-02  0.33940010D-03  0.73769743D-03  0.35253097D-13
  0.17859206D-05 -0.34213823D-11 -0.31408591D-04 -0.98206237D-04  0.12961483D-03
  0.31312613D-13  0.74247283D-05 -0.21401864D-11  0.38549575D-05 -0.12771071D-04
  0.89161133D-05 -0.18567507D-14  0.55824201D-06  0.15925848D-12 -0.95614170D-05
  0.13784341D-12  0.48368085D-03  0.11076336D-04 -0.28915941D-11  0.19725582D-03
  0.17607915D-04  0.24780639D-11 -0.16482984D-02 -0.15543670D-12 -0.97900155D-07
 -0.24606252D-12  0.42317102D-04 -0.57192795D-06 -0.17000611D-12 -0.24693908D-04
  0.86562842D-06  0.90819368D-12 -0.10225740D-03 -0.67303787D-13  0.36699524D+00
  0.68407976D+00  0.11596676D+01  0.17558936D+01  0.21952537D+01  0.18883118D+01
  0.72420823D+00  0.31538963D-04  0.41751682D-03  0.15164971D-02  0.44986600D-02
  0.51837970D-02 -0.62964935D-02  0.34341997D-01  0.26316060D-03  0.80850880D-04
 -0.59489481D-04 -0.58179413D-04 -0.38441598D-04  0.62410665D-02  0.61036267D-02
  0.40329243D-02  0.39233423D-02  0.38369431D-02  0.25352305D-02  0.13948187D-04
 -0.54792423D-03 -0.64187281D-03 -0.33769424D-05  0.30577420D-03  0.16052047D-03
 -0.94839210D-07  0.49053536D-05  0.13385427D-04 -0.23382175D-03  0.17460893D-03
  0.59212818D-04 -0.14019146D-05 -0.80374700D-05  0.78307742D-03  0.25117965D-03
 -0.18033773D-03 -0.70841918D-04  0.11498110D-04  0.12531777D-04 -0.99169615D-03
 -0.44044606D-04  0.34784316D-04  0.92602894D-05 -0.28424614D-05 -0.17630886D-05
  0.61915148D-04 -0.10963954D-04  0.20914987D-04 -0.75204778D-04  0.18697750D-04
  0.27189966D-03  0.45867392D-03  0.14194112D-04 -0.33464462D-03 -0.23305959D-03
  0.15030226D-04  0.14517092D-05  0.32891649D-04  0.10050911D-03 -0.29738215D-05
  0.10919311D-03  0.44099367D-04 -0.13813060D-05 -0.20786805D-03 -0.34562670D-03
  0.76122960D-05  0.36699524D+00  0.68407977D+00  0.11596676D+01  0.17558936D+01
  0.21952537D+01  0.18883119D+01  0.72420824D+00  0.31538964D-04  0.41751683D-03
  0.15164971D-02  0.44986600D-02  0.51837970D-02 -0.62964936D-02  0.34341997D-01
  0.26316060D-03  0.80850881D-04 -0.59489482D-04 -0.58179414D-04 -0.38441599D-04
 -0.62410666D-02 -0.61036269D-02 -0.40329243D-02  0.39233424D-02  0.38369432D-02
  0.25352306D-02  0.13948187D-04  0.54792423D-03 -0.64187281D-03 -0.33769425D-05
 -0.30577420D-03  0.16052047D-03 -0.94839209D-07 -0.49053539D-05  0.13385428D-04
 -0.23382175D-03  0.17460893D-03  0.59212818D-04  0.14019145D-05 -0.80374698D-05
 -0.78307742D-03  0.25117965D-03 -0.18033774D-03 -0.70841917D-04 -0.11498110D-04
  0.12531777D-04  0.99169615D-03 -0.44044606D-04  0.34784316D-04  0.92602899D-05
  0.28424614D-05 -0.17630887D-05 -0.61915150D-04 -0.10963954D-04 -0.20914984D-04
 -0.75204778D-04  0.18697750D-04 -0.27189967D-03  0.45867392D-03  0.14194112D-04
  0.33464462D-03 -0.23305959D-03 -0.15030226D-04  0.14517092D-05 -0.32891650D-04
  0.10050911D-03 -0.29738215D-05 -0.10919310D-03  0.44099367D-04 -0.13813059D-05
  0.20786805D-03 -0.34562670D-03 -0.76122959D-05
MO    5     MO 0.0        OCC NO =    1.9861784  ORB. ENERGY =    0.000000
 -0.99157225D-02 -0.18481276D-01 -0.31337601D-01 -0.47426127D-01 -0.59160355D-01
 -0.50768386D-01 -0.19441595D-01 -0.16086161D-03 -0.17259395D-02 -0.63621381D-02
 -0.18602519D-01 -0.22416940D-01  0.27003579D-01  0.14150452D-01 -0.30756188D-04
 -0.19217707D-02 -0.60854447D-03 -0.59008343D-03 -0.39806680D-03  0.11904923D-11
  0.11543770D-11  0.77873592D-12 -0.69614072D-01 -0.67502233D-01 -0.45536608D-01
 -0.10192893D-03  0.52453189D-12 -0.13005648D-01  0.14909774D-04  0.48356892D-12
  0.19930866D-02 -0.17003840D-05 -0.31931778D-13  0.22940808D-03 -0.40044523D-02
 -0.42473658D-02  0.82518181D-02 -0.20856159D-15  0.11172772D-03 -0.14264319D-12
 -0.45483128D-03  0.61877656D-03 -0.16394528D-03 -0.50487368D-14  0.17786109D-04
 -0.46130531D-15  0.10939485D-03  0.51802156D-03 -0.62741642D-03 -0.19380452D-14
 -0.81317314D-05 -0.15668502D-12 -0.41335504D-06 -0.21333534D-14 -0.16157647D-02
  0.27332719D-04  0.12132110D-13  0.34856932D-02 -0.26092654D-04 -0.57320498D-14
  0.13616009D-02 -0.66056604D-14  0.11924761D-04  0.17644174D-13  0.50944182D-03
 -0.23315680D-04  0.25834455D-13 -0.22282756D-03 -0.12458603D-04 -0.78766976D-13
 -0.13054979D-02  0.25597249D-14 -0.17211382D-01 -0.32085483D-01 -0.54228838D-01
 -0.81516057D-01 -0.10012788D+00 -0.84504395D-01 -0.31775859D-01 -0.31579564D-03
 -0.23603768D-02 -0.88212669D-02 -0.24609961D-01 -0.32970563D-01  0.38932087D-01
  0.15590868D-01  0.22587971D-02  0.22658544D-03  0.12167100D-02  0.11407430D-02
  0.81227695D-03  0.61942114D-12  0.58074669D-12  0.41352624D-12 -0.34517356D-01
 -0.32362215D-01 -0.23043825D-01  0.30427447D-03  0.78943178D-12 -0.49750816D-02
 -0.52452474D-05 -0.50762169D-12  0.15135576D-02  0.13969428D-05  0.83924257D-14
 -0.32781503D-05 -0.19252076D-01  0.93254153D-02  0.99266609D-02  0.17788267D-13
 -0.24697676D-03 -0.56210243D-12 -0.26122828D-02  0.11488932D-02  0.14633896D-02
  0.88067311D-14 -0.24135674D-04 -0.79316163D-13  0.83452523D-04 -0.92077133D-04
  0.86246100D-05 -0.85734360D-15  0.46755704D-05  0.81476834D-13 -0.90753978D-04
 -0.15548474D-13  0.34357604D-02  0.10477727D-03 -0.25612389D-12  0.34591481D-02
  0.16748467D-03  0.30276932D-12 -0.13766429D-01 -0.69594351D-14  0.27300701D-05
  0.10357558D-12  0.26826785D-03  0.10040016D-05  0.58631885D-13  0.31639662D-03
 -0.91942118D-05 -0.36935863D-12 -0.11212002D-02 -0.15453513D-14 -0.89169764D-01
 -0.16621259D+00 -0.28176737D+00 -0.42663391D+00 -0.53338636D+00 -0.45880791D+00
 -0.17596271D+00 -0.12987021D-02 -0.17192384D-01 -0.62445866D-01 -0.18524449D+00
 -0.21345685D+00  0.25927514D+00  0.14914224D+00  0.67597439D-01  0.16898444D-02
  0.15098981D-02  0.14766474D-02  0.97568337D-03 -0.38046007D-01 -0.37208164D-01
 -0.24585007D-01 -0.13143257D+00 -0.12853818D+00 -0.84930611D-01  0.30299127D-03
 -0.36419039D-02 -0.27296519D-01  0.84308735D-04 -0.32647888D-02 -0.62983170D-02
  0.98671419D-06 -0.48528964D-04 -0.46794608D-04 -0.59980702D-02  0.73442103D-02
 -0.13461400D-02 -0.13055432D-03 -0.10595123D-03  0.13751543D-01 -0.29939695D-02
  0.41354122D-02 -0.11414428D-02 -0.98267776D-04 -0.39800123D-04  0.75485162D-02
  0.21598316D-03 -0.21184446D-03 -0.41387008D-05  0.19160171D-04  0.80104119D-05
 -0.91051792D-03  0.25005129D-04  0.16650468D-02 -0.21595994D-02 -0.89969371D-04
 -0.64256414D-02 -0.23949107D-02  0.14953984D-04  0.14305011D-02  0.88737089D-02
 -0.16003754D-03  0.14191395D-04  0.29374374D-03 -0.22228399D-03 -0.34116613D-04
 -0.87850876D-03 -0.10352193D-02 -0.84575713D-05 -0.27224658D-05  0.17020713D-02