 Entering Gaussian System, Link 0=/home/wagner/chemistry/gaussian/g16/g16
 Input=GAUSSIAN.com
 Output=GAUSSIAN.log
 Initial command:
 /home/wagner/chemistry/gaussian/g16/l1.exe "/home/wagner/chemistry/gaussian/work/Gau-75768.inp" -scrdir="/home/wagner/chemistry/gaussian/work/"
 Entering Link 1 = /home/wagner/chemistry/gaussian/g16/l1.exe PID=     75770.
  
 Copyright (c) 1988-2019, Gaussian, Inc.  All Rights Reserved.
  
 This is part of the Gaussian(R) 16 program.  It is based on
 the Gaussian(R) 09 system (copyright 2009, Gaussian, Inc.),
 the Gaussian(R) 03 system (copyright 2003, Gaussian, Inc.),
 the Gaussian(R) 98 system (copyright 1998, Gaussian, Inc.),
 the Gaussian(R) 94 system (copyright 1995, Gaussian, Inc.),
 the Gaussian 92(TM) system (copyright 1992, Gaussian, Inc.),
 the Gaussian 90(TM) system (copyright 1990, Gaussian, Inc.),
 the Gaussian 88(TM) system (copyright 1988, Gaussian, Inc.),
 the Gaussian 86(TM) system (copyright 1986, Carnegie Mellon
 University), and the Gaussian 82(TM) system (copyright 1983,
 Carnegie Mellon University). Gaussian is a federally registered
 trademark of Gaussian, Inc.
  
 This software contains proprietary and confidential information,
 including trade secrets, belonging to Gaussian, Inc.
  
 This software is provided under written license and may be
 used, copied, transmitted, or stored only in accord with that
 written license.
  
 The following legend is applicable only to US Government
 contracts under FAR:
  
                    RESTRICTED RIGHTS LEGEND
  
 Use, reproduction and disclosure by the US Government is
 subject to restrictions as set forth in subparagraphs (a)
 and (c) of the Commercial Computer Software - Restricted
 Rights clause in FAR 52.227-19.
  
 Gaussian, Inc.
 340 Quinnipiac St., Bldg. 40, Wallingford CT 06492
  
  
 ---------------------------------------------------------------
 Warning -- This program may not be used in any manner that
 competes with the business of Gaussian, Inc. or will provide
 assistance to any competitor of Gaussian, Inc.  The licensee
 of this program is prohibited from giving any competitor of
 Gaussian, Inc. access to this program.  By using this program,
 the user acknowledges that Gaussian, Inc. is engaged in the
 business of creating and licensing software in the field of
 computational chemistry and represents and warrants to the
 licensee that it is not a competitor of Gaussian, Inc. and that
 it will not use this program in any manner prohibited above.
 ---------------------------------------------------------------
  

 Cite this work as:
 Gaussian 16, Revision C.01,
 M. J. Frisch, G. W. Trucks, H. B. Schlegel, G. E. Scuseria, 
 M. A. Robb, J. R. Cheeseman, G. Scalmani, V. Barone, 
 G. A. Petersson, H. Nakatsuji, X. Li, M. Caricato, A. V. Marenich, 
 J. Bloino, B. G. Janesko, R. Gomperts, B. Mennucci, H. P. Hratchian, 
 J. V. Ortiz, A. F. Izmaylov, J. L. Sonnenberg, D. Williams-Young, 
 F. Ding, F. Lipparini, F. Egidi, J. Goings, B. Peng, A. Petrone, 
 T. Henderson, D. Ranasinghe, V. G. Zakrzewski, J. Gao, N. Rega, 
 G. Zheng, W. Liang, M. Hada, M. Ehara, K. Toyota, R. Fukuda, 
 J. Hasegawa, M. Ishida, T. Nakajima, Y. Honda, O. Kitao, H. Nakai, 
 T. Vreven, K. Throssell, J. A. Montgomery, Jr., J. E. Peralta, 
 F. Ogliaro, M. J. Bearpark, J. J. Heyd, E. N. Brothers, K. N. Kudin, 
 V. N. Staroverov, T. A. Keith, R. Kobayashi, J. Normand, 
 K. Raghavachari, A. P. Rendell, J. C. Burant, S. S. Iyengar, 
 J. Tomasi, M. Cossi, J. M. Millam, M. Klene, C. Adamo, R. Cammi, 
 J. W. Ochterski, R. L. Martin, K. Morokuma, O. Farkas, 
 J. B. Foresman, and D. J. Fox, Gaussian, Inc., Wallingford CT, 2019.
 
 ******************************************
 Gaussian 16:  EM64L-G16RevC.01  3-Jul-2019
                 2-Sep-2022 
 ******************************************
 %nproc=16
 Will use up to   16 processors via shared memory.
 %mem=16GB
 ----------------------------------------------------------------------
 # qcisd/aug-cc-pvtz nosymm density=current pop=(chelpg,hirshfeld,npa,d
 ipole)
 ----------------------------------------------------------------------
 1/30=1,38=1,172=1/1;
 2/12=2,15=1,17=6,18=5,40=1/2;
 3/5=16,6=1,7=10,11=9,25=1,30=1,71=1/1,2,3;
 4//1;
 5/5=2,38=5/2;
 8/6=4,9=120000,10=1/1,4;
 9/5=8,15=1/13;
 11/28=-7,31=1,32=3,42=3/11;
 10/5=6,13=10,31=1/2;
 6/7=2,8=2,9=2,10=2,15=24,20=3,22=-1,40=-1,79=1/1,2,7;
 99/5=1,9=1/99;
 -----------------
 h2cs-wavefunction
 -----------------
 Symbolic Z-matrix:
 Charge =  0 Multiplicity = 1
 C                     0.        0.       -0.55529 
 S                     0.        0.        1.06037 
 H                     0.       -0.92228  -1.11899 
 H                     0.        0.92228  -1.12899 
 
                          Input orientation:                          
 ---------------------------------------------------------------------
 Center     Atomic      Atomic             Coordinates (Angstroms)
 Number     Number       Type             X           Y           Z
 ---------------------------------------------------------------------
      1          6           0        0.000000    0.000000   -0.555291
      2         16           0        0.000000    0.000000    1.060374
      3          1           0        0.000000   -0.922280   -1.118992
      4          1           0        0.000000    0.922280   -1.128992
 ---------------------------------------------------------------------
                    Distance matrix (angstroms):
                    1          2          3          4
     1  C    0.000000
     2  S    1.615665   0.000000
     3  H    1.080907   2.366482   0.000000
     4  H    1.086155   2.375694   1.844587   0.000000
 Symmetry turned off by external request.
 Stoichiometry    CH2S
 Framework group  CS[SG(CH2S)]
 Deg. of freedom     5
 Full point group                 CS      NOp   2
 Rotational constants (GHZ):         294.7659348          17.6494051          16.6523302
 Standard basis: Aug-CC-pVTZ (5D, 7F)
   142 basis functions,   240 primitive gaussians,   164 cartesian basis functions
    12 alpha electrons       12 beta electrons
       nuclear repulsion energy        44.7320464518 Hartrees.
 NAtoms=    4 NActive=    4 NUniq=    4 SFac= 1.00D+00 NAtFMM=   60 NAOKFM=F Big=F
 Integral buffers will be    131072 words long.
 Raffenetti 1 integral format.
 Two-electron integral symmetry is turned off.
 One-electron integrals computed using PRISM.
 NBasis=   142 RedAO= T EigKep=  8.88D-05  NBF=   142
 NBsUse=   142 1.00D-06 EigRej= -1.00D+00 NBFU=   142
 ExpMin= 2.53D-02 ExpMax= 3.74D+05 ExpMxC= 1.18D+03 IAcc=3 IRadAn=         5 AccDes= 0.00D+00
 Harris functional with IExCor=  205 and IRadAn=       5 diagonalized for initial guess.
 HarFok:  IExCor=  205 AccDes= 0.00D+00 IRadAn=         5 IDoV= 1 UseB2=F ITyADJ=14
 ICtDFT=  3500011 ScaDFX=  1.000000  1.000000  1.000000  1.000000
 FoFCou: FMM=F IPFlag=           0 FMFlag=      100000 FMFlg1=           0
         NFxFlg=           0 DoJE=T BraDBF=F KetDBF=T FulRan=T
         wScrn=  0.000000 ICntrl=       500 IOpCl=  0 I1Cent=   200000004 NGrid=           0
         NMat0=    1 NMatS0=      1 NMatT0=    0 NMatD0=    1 NMtDS0=    0 NMtDT0=    0
 Symmetry not used in FoFCou.
 Keep R1 ints in memory in canonical form, NReq=59473533.
 Requested convergence on RMS density matrix=1.00D-08 within 128 cycles.
 Requested convergence on MAX density matrix=1.00D-06.
 Requested convergence on             energy=1.00D-06.
 No special actions if energy rises.
 SCF Done:  E(RHF) =  -436.557632349     A.U. after   12 cycles
            NFock= 12  Conv=0.29D-08     -V/T= 2.0003
 ExpMin= 2.53D-02 ExpMax= 3.74D+05 ExpMxC= 1.18D+03 IAcc=3 IRadAn=         5 AccDes= 0.00D+00
 HarFok:  IExCor=  205 AccDes= 0.00D+00 IRadAn=         5 IDoV=-2 UseB2=F ITyADJ=14
 ICtDFT= 12500011 ScaDFX=  1.000000  1.000000  1.000000  1.000000
 Range of M.O.s used for correlation:     7   142
 NBasis=   142 NAE=    12 NBE=    12 NFC=     6 NFV=     0
 NROrb=    136 NOA=     6 NOB=     6 NVA=   130 NVB=   130

 **** Warning!!: The largest alpha MO coefficient is  0.44624521D+02

 Semi-Direct transformation.
 ModeAB=           2 MOrb=             6 LenV=    2146810999
 LASXX=      7286295 LTotXX=     7286295 LenRXX=     7286295
 LTotAB=     7445736 MaxLAS=    11040480 LenRXY=    11040480
 NonZer=    14572590 LenScr=    22628352 LnRSAI=           0
 LnScr1=           0 LExtra=           0 Total=     40955127
 MaxDsk=          -1 SrtSym=           F ITran=            4
 JobTyp=0 Pass  1:  I=   1 to   6.
 (rs|ai) integrals will be sorted in core.
 Spin components of T(2) and E(2):
     alpha-alpha T2 =       0.1682806475D-01 E2=     -0.3867147475D-01
     alpha-beta  T2 =       0.1051298857D+00 E2=     -0.2634646396D+00
     beta-beta   T2 =       0.1682806475D-01 E2=     -0.3867147475D-01
 ANorm=    0.1067139173D+01
 E2 =    -0.3408075891D+00 EUMP2 =    -0.43689843993796D+03
 Keep R2 and R3 ints in memory in canonical form, NReq=111025316.
 CIDS: In Core Option IDoMem=           1.
 Iterations=  50 Convergence= 0.100D-07
 Produce multiple copies of IABC intergrals
 Iteration Nr.   1
 **********************
 DD1Dir will call FoFMem   1 times, MxPair=        42
 NAB=    21 NAA=     0 NBB=     0.
 MP4(R+Q)=  0.11658825D-01
 E3=       -0.22828012D-01        EUMP3=      -0.43692126795D+03
 E4(DQ)=    0.16544948D-02        UMP4(DQ)=   -0.43691961346D+03
 E4(SDQ)=  -0.18200638D-02        UMP4(SDQ)=  -0.43692308801D+03
 DE(Corr)= -0.35197678     E(Corr)=     -436.90960913    
 NORM(A)=   0.10737828D+01
 Iteration Nr.   2
 **********************
 DD1Dir will call FoFMem   1 times, MxPair=        42
 NAB=    21 NAA=     0 NBB=     0.
 DE(Corr)= -0.36337717     E(CORR)=     -436.92100952     Delta=-1.14D-02
 NORM(A)=   0.10811376D+01
 Iteration Nr.   3
 **********************
 DD1Dir will call FoFMem   1 times, MxPair=        42
 NAB=    21 NAA=     0 NBB=     0.
 DE(Corr)= -0.36430549     E(CORR)=     -436.92193784     Delta=-9.28D-04
 NORM(A)=   0.10835582D+01
 Iteration Nr.   4
 **********************
 DD1Dir will call FoFMem   1 times, MxPair=        42
 NAB=    21 NAA=     0 NBB=     0.
 DE(Corr)= -0.36562960     E(CORR)=     -436.92326195     Delta=-1.32D-03
 NORM(A)=   0.10845469D+01
 Iteration Nr.   5
 **********************
 DD1Dir will call FoFMem   1 times, MxPair=        42
 NAB=    21 NAA=     0 NBB=     0.
 DE(Corr)= -0.36582648     E(CORR)=     -436.92345883     Delta=-1.97D-04
 NORM(A)=   0.10849068D+01
 Iteration Nr.   6
 **********************
 DD1Dir will call FoFMem   1 times, MxPair=        42
 NAB=    21 NAA=     0 NBB=     0.
 DE(Corr)= -0.36585832     E(CORR)=     -436.92349067     Delta=-3.18D-05
 NORM(A)=   0.10849213D+01
 Iteration Nr.   7
 **********************
 DD1Dir will call FoFMem   1 times, MxPair=        42
 NAB=    21 NAA=     0 NBB=     0.
 DE(Corr)= -0.36585972     E(CORR)=     -436.92349207     Delta=-1.39D-06
 NORM(A)=   0.10849329D+01
 Iteration Nr.   8
 **********************
 DD1Dir will call FoFMem   1 times, MxPair=        42
 NAB=    21 NAA=     0 NBB=     0.
 DE(Corr)= -0.36585677     E(CORR)=     -436.92348912     Delta= 2.94D-06
 NORM(A)=   0.10849319D+01
 Iteration Nr.   9
 **********************
 DD1Dir will call FoFMem   1 times, MxPair=        42
 NAB=    21 NAA=     0 NBB=     0.
 DE(Corr)= -0.36585922     E(CORR)=     -436.92349157     Delta=-2.45D-06
 NORM(A)=   0.10849332D+01
 Iteration Nr.  10
 **********************
 DD1Dir will call FoFMem   1 times, MxPair=        42
 NAB=    21 NAA=     0 NBB=     0.
 DE(Corr)= -0.36585890     E(CORR)=     -436.92349125     Delta= 3.18D-07
 NORM(A)=   0.10849340D+01
 Iteration Nr.  11
 **********************
 DD1Dir will call FoFMem   1 times, MxPair=        42
 NAB=    21 NAA=     0 NBB=     0.
 DE(Corr)= -0.36585942     E(CORR)=     -436.92349177     Delta=-5.21D-07
 NORM(A)=   0.10849345D+01
 Iteration Nr.  12
 **********************
 DD1Dir will call FoFMem   1 times, MxPair=        42
 NAB=    21 NAA=     0 NBB=     0.
 DE(Corr)= -0.36585953     E(CORR)=     -436.92349188     Delta=-1.08D-07
 NORM(A)=   0.10849349D+01
 Iteration Nr.  13
 **********************
 DD1Dir will call FoFMem   1 times, MxPair=        42
 NAB=    21 NAA=     0 NBB=     0.
 DE(Corr)= -0.36585962     E(CORR)=     -436.92349197     Delta=-8.92D-08
 NORM(A)=   0.10849351D+01
 Iteration Nr.  14
 **********************
 DD1Dir will call FoFMem   1 times, MxPair=        42
 NAB=    21 NAA=     0 NBB=     0.
 DE(Corr)= -0.36585965     E(CORR)=     -436.92349200     Delta=-2.93D-08
 NORM(A)=   0.10849351D+01
 Iteration Nr.  15
 **********************
 DD1Dir will call FoFMem   1 times, MxPair=        42
 NAB=    21 NAA=     0 NBB=     0.
 DE(Corr)= -0.36585966     E(CORR)=     -436.92349201     Delta=-9.03D-09
 NORM(A)=   0.10849352D+01
 Wavefunction amplitudes converged. E(Corr)=     -436.92349201    
 Dominant configurations:
 ***********************
 Spin Case        I    J    A    B          Value
   ABAB          11   11   14   14      -0.114498D+00
 Largest amplitude= 1.14D-01

 Z-amplitude iterations

 Iteration Nr.   1
 **********************
 DD1Dir will call FoFMem   1 times, MxPair=        42
 NAB=    21 NAA=     0 NBB=     0.
 DE(Z)= -0.34985431     E(Z)=     -436.90748666     Delta= 1.60D-02
 NORM(A)=   0.10849221D+01
 Iteration Nr.   2
 **********************
 DD1Dir will call FoFMem   1 times, MxPair=        42
 NAB=    21 NAA=     0 NBB=     0.
 DE(Z)= -0.34985372     E(Z)=     -436.90748607     Delta= 5.84D-07
 NORM(A)=   0.10849250D+01
 Iteration Nr.   3
 **********************
 DD1Dir will call FoFMem   1 times, MxPair=        42
 NAB=    21 NAA=     0 NBB=     0.
 DE(Z)= -0.34985384     E(Z)=     -436.90748619     Delta=-1.15D-07
 NORM(A)=   0.10849197D+01
 Iteration Nr.   4
 **********************
 DD1Dir will call FoFMem   1 times, MxPair=        42
 NAB=    21 NAA=     0 NBB=     0.
 DE(Z)= -0.34985359     E(Z)=     -436.90748594     Delta= 2.48D-07
 NORM(A)=   0.10849144D+01
 Iteration Nr.   5
 **********************
 DD1Dir will call FoFMem   1 times, MxPair=        42
 NAB=    21 NAA=     0 NBB=     0.
 DE(Z)= -0.34985333     E(Z)=     -436.90748567     Delta= 2.66D-07
 NORM(A)=   0.10767279D+01
 Iteration Nr.   6
 **********************
 DD1Dir will call FoFMem   1 times, MxPair=        42
 NAB=    21 NAA=     0 NBB=     0.
 DE(Z)= -0.34945475     E(Z)=     -436.90708710     Delta= 3.99D-04
 NORM(A)=   0.10767246D+01
 Iteration Nr.   7
 **********************
 DD1Dir will call FoFMem   1 times, MxPair=        42
 NAB=    21 NAA=     0 NBB=     0.
 DE(Z)= -0.34945383     E(Z)=     -436.90708618     Delta= 9.19D-07
 NORM(A)=   0.10767220D+01
 Iteration Nr.   8
 **********************
 DD1Dir will call FoFMem   1 times, MxPair=        42
 NAB=    21 NAA=     0 NBB=     0.
 DE(Z)= -0.34945365     E(Z)=     -436.90708600     Delta= 1.75D-07
 NORM(A)=   0.10767217D+01
 Iteration Nr.   9
 **********************
 DD1Dir will call FoFMem   1 times, MxPair=        42
 NAB=    21 NAA=     0 NBB=     0.
 DE(Z)= -0.34945349     E(Z)=     -436.90708584     Delta= 1.63D-07
 NORM(A)=   0.10767217D+01
 Iteration Nr.  10
 **********************
 DD1Dir will call FoFMem   1 times, MxPair=        42
 NAB=    21 NAA=     0 NBB=     0.
 DE(Z)= -0.34945351     E(Z)=     -436.90708586     Delta=-1.70D-08
 NORM(A)=   0.10767218D+01
 Iteration Nr.  11
 **********************
 DD1Dir will call FoFMem   1 times, MxPair=        42
 NAB=    21 NAA=     0 NBB=     0.
 DE(Z)= -0.34945352     E(Z)=     -436.90708587     Delta=-9.26D-09
 NORM(A)=   0.10767218D+01
 Z-amplitudes converged.
 Discarding MO integrals.
          Differentiating once with respect to electric field.
                with respect to dipole field.
          Electric field/nuclear overlap derivatives assumed to be zero.
 Keep R1 ints in memory in canonical form, NReq=59475126.
          There are     1 degrees of freedom in the 1st order CPHF.  IDoFFX=0 NUNeed=     1.
 LinEq1:  Iter=  0 NonCon=     1 RMS=2.95D-03 Max=4.36D-02 NDo=     1
 AX will form     1 AO Fock derivatives at one time.
 LinEq1:  Iter=  1 NonCon=     1 RMS=9.84D-04 Max=1.22D-02 NDo=     1
 LinEq1:  Iter=  2 NonCon=     1 RMS=4.75D-04 Max=1.32D-02 NDo=     1
 LinEq1:  Iter=  3 NonCon=     1 RMS=1.60D-04 Max=2.46D-03 NDo=     1
 LinEq1:  Iter=  4 NonCon=     1 RMS=3.98D-05 Max=5.23D-04 NDo=     1
 LinEq1:  Iter=  5 NonCon=     1 RMS=8.71D-06 Max=9.97D-05 NDo=     1
 LinEq1:  Iter=  6 NonCon=     1 RMS=1.54D-06 Max=2.18D-05 NDo=     1
 LinEq1:  Iter=  7 NonCon=     1 RMS=2.00D-07 Max=2.68D-06 NDo=     1
 LinEq1:  Iter=  8 NonCon=     1 RMS=2.32D-08 Max=2.26D-07 NDo=     1
 LinEq1:  Iter=  9 NonCon=     1 RMS=3.71D-09 Max=3.79D-08 NDo=     1
 LinEq1:  Iter= 10 NonCon=     1 RMS=5.20D-10 Max=5.78D-09 NDo=     1
 LinEq1:  Iter= 11 NonCon=     0 RMS=6.77D-11 Max=6.64D-10 NDo=     1
 Linear equations converged to 1.000D-10 1.000D-09 after    11 iterations.
 End of Minotr F.D. properties file   721 does not exist.
 End of Minotr F.D. properties file   722 does not exist.
 End of Minotr F.D. properties file   788 does not exist.

 **********************************************************************

            Population analysis using the CC Density.

 **********************************************************************

 Alpha  occ. eigenvalues --  -91.95631 -11.32059  -8.95841  -6.63902  -6.63876
 Alpha  occ. eigenvalues --   -6.63678  -1.06457  -0.81488  -0.64658  -0.54100
 Alpha  occ. eigenvalues --   -0.41769  -0.35259
 Alpha virt. eigenvalues --    0.02842   0.03500   0.04266   0.06131   0.09226
 Alpha virt. eigenvalues --    0.10417   0.11648   0.13133   0.13506   0.14766
 Alpha virt. eigenvalues --    0.19840   0.21660   0.23055   0.24400   0.27074
 Alpha virt. eigenvalues --    0.29059   0.30934   0.31767   0.32533   0.34365
 Alpha virt. eigenvalues --    0.37548   0.38379   0.38566   0.40171   0.41293
 Alpha virt. eigenvalues --    0.43208   0.44719   0.45233   0.47168   0.48664
 Alpha virt. eigenvalues --    0.56411   0.62060   0.65273   0.66099   0.67805
 Alpha virt. eigenvalues --    0.74954   0.75472   0.76845   0.78938   0.80663
 Alpha virt. eigenvalues --    0.83402   0.84797   0.85018   0.87240   0.87817
 Alpha virt. eigenvalues --    0.89545   0.89799   0.96052   0.97105   0.97281
 Alpha virt. eigenvalues --    0.99437   1.00067   1.02028   1.08641   1.10786
 Alpha virt. eigenvalues --    1.10891   1.12679   1.13419   1.14075   1.16802
 Alpha virt. eigenvalues --    1.24491   1.30308   1.34232   1.42746   1.49947
 Alpha virt. eigenvalues --    1.52775   1.55044   1.58470   1.58521   1.58923
 Alpha virt. eigenvalues --    1.61771   1.65298   1.80436   1.87911   1.88906
 Alpha virt. eigenvalues --    2.02060   2.02866   2.02920   2.05575   2.09020
 Alpha virt. eigenvalues --    2.09812   2.13225   2.17951   2.34512   2.35693
 Alpha virt. eigenvalues --    2.39369   2.40534   2.42301   2.47493   2.50537
 Alpha virt. eigenvalues --    2.57281   2.69323   2.71768   2.88541   3.00828
 Alpha virt. eigenvalues --    3.04173   3.12147   3.19023   3.23461   3.46892
 Alpha virt. eigenvalues --    3.57743   3.59566   3.64475   3.67068   3.69353
 Alpha virt. eigenvalues --    3.80729   3.83918   3.85318   3.90275   3.93152
 Alpha virt. eigenvalues --    4.05843   4.10720   4.25644   4.40726   4.41857
 Alpha virt. eigenvalues --    4.45426   4.69035   4.73881   4.74655   5.08133
 Alpha virt. eigenvalues --    5.12405   5.25032   5.25779   5.30761   5.52232
 Alpha virt. eigenvalues --    5.85511   5.95632   6.47680   6.60949  15.30508
          Condensed to atoms (all electrons):
               1          2          3          4
     1  C    6.189764   0.274747   0.183062   0.182963
     2  S    0.274747  16.030290  -0.120396  -0.118580
     3  H    0.183062  -0.120396   0.647755  -0.161651
     4  H    0.182963  -0.118580  -0.161651   0.651901
 Mulliken charges:
               1
     1  C   -0.830535
     2  S   -0.066061
     3  H    0.451230
     4  H    0.445366
 Sum of Mulliken charges =  -0.00000
 Mulliken charges with hydrogens summed into heavy atoms:
               1
     1  C    0.066061
     2  S   -0.066061
 Electronic spatial extent (au):  <R**2>=            130.2056
 Charge=             -0.0000 electrons
 Dipole moment (field-independent basis, Debye):
    X=              0.0000    Y=             -0.0025    Z=             -1.7549  Tot=              1.7549
 Quadrupole moment (field-independent basis, Debye-Ang):
   XX=            -19.9731   YY=            -20.5635   ZZ=            -18.9893
   XY=             -0.0000   XZ=             -0.0000   YZ=             -0.0088
 Traceless Quadrupole moment (field-independent basis, Debye-Ang):
   XX=             -0.1311   YY=             -0.7215   ZZ=              0.8526
   XY=             -0.0000   XZ=             -0.0000   YZ=             -0.0088
 Octapole moment (field-independent basis, Debye-Ang**2):
  XXX=              0.0000  YYY=             -0.0157  ZZZ=            -27.7113  XYY=              0.0000
  XXY=             -0.0053  XXZ=             -8.5785  XZZ=              0.0000  YZZ=              0.0060
  YYZ=            -13.1543  XYZ=             -0.0000
 Hexadecapole moment (field-independent basis, Debye-Ang**3):
 XXXX=            -25.3129 YYYY=            -35.0758 ZZZZ=           -127.3184 XXXY=             -0.0000
 XXXZ=             -0.0000 YYYX=              0.0000 YYYZ=              0.0200 ZZZX=             -0.0000
 ZZZY=             -0.0203 XXYY=            -10.4955 XXZZ=            -25.3095 YYZZ=            -29.5496
 XXYZ=              0.0113 YYXZ=             -0.0000 ZZXY=             -0.0000
 N-N= 4.473204645181D+01 E-N=-1.127426714056D+03  KE= 4.368753297335D+02
 There are a total of       91844 grid points.
 ElSum from          density=       24.0000001212
 ElSum from atomic densities=       24.0000001589

 Hirshfeld populations at iteration   1 (CX, CA, CB, DipXYZ):
               1          2          3          4          5          6
     1  C    0.000000   3.004479   3.004479   0.000000  -0.000123  -0.151095
     2  S    0.000013   8.044631   8.044631   0.000000  -0.000889   0.034153
     3  H    0.000004   0.475598   0.475598   0.000000  -0.131238  -0.097257
     4  H    0.000004   0.475292   0.475292  -0.000000   0.130199  -0.098128
       Tot   0.000022  12.000000  12.000000   0.000000  -0.002051  -0.312327

 Dip from Atomic Chgs              0.000000   0.001065  -0.378092
         Total Dipole              0.000000  -0.000986  -0.690419

 Hirshfeld charges, spin densities, dipoles, and CM5 charges using IRadAn=      5:
              Q-H        S-H        Dx         Dy         Dz        Q-CM5   
     1  C   -0.008957   0.000000   0.000000  -0.000123  -0.151095  -0.087736
     2  S   -0.089262   0.000000   0.000000  -0.000889   0.034153  -0.117760
     3  H    0.048804   0.000000   0.000000  -0.131238  -0.097257   0.102816
     4  H    0.049415   0.000000  -0.000000   0.130199  -0.098128   0.102681
       Tot  -0.000000   0.000000   0.000000  -0.002051  -0.312327  -0.000000
 Hirshfeld charges with hydrogens summed into heavy atoms:
              Q-H       Q-CM5   
     1  C    0.089262   0.117760
     2  S   -0.089262  -0.117760
 
 EQQ= 0.000000000000E+00 EQD= 0.000000000000E+00 EDD= 0.300539484003E-02
 EQQ+QD+DD= 0.300539484003E-02
 
 Breneman (CHELPG) radii used.
 Generate Potential Derived Charges using the Breneman model, NDens= 1.
 Grid spacing= 0.300 Box extension= 2.800
 NStep X,Y,Z=   20     26     27   Total possible points=       14040
 Number of Points to Fit=    4702

 **********************************************************************

            Electrostatic Properties Using The CC Density.

 **********************************************************************

       Atomic Center    1 is at   0.000000  0.000000 -0.555291
       Atomic Center    2 is at   0.000000  0.000000  1.060374
       Atomic Center    3 is at   0.000000 -0.922280 -1.118992
       Atomic Center    4 is at   0.000000  0.922280 -1.128992
    4702 points will be used for fitting atomic charges
 Fitting point charges to electrostatic potential
 The dipole moment will be constrained to the correct value
 Charges from ESP fit, RMS=   0.00537 RRMS=   0.40218:
 ESP charges:
               1
     1  C   -0.021862
     2  S   -0.161568
     3  H    0.091998
     4  H    0.091432
 Sum of ESP charges =   0.00000
 ESP charges with hydrogens summed into heavy atoms:
               1
     1  C    0.161568
     2  S   -0.161568
 Charge=   0.00000 Dipole=     0.0000    -0.0025    -1.7549 Tot=     1.7549
 -----------------------------------------------------------------

              Electrostatic Properties (Atomic Units)

 -----------------------------------------------------------------
    Center     Electric         -------- Electric Field --------
               Potential          X             Y             Z
 -----------------------------------------------------------------
    1 Atom    -14.690037
    2 Atom    -59.229899
    3 Atom     -1.072471
    4 Atom     -1.071515
 -----------------------------------------------------------------
 ******************************Gaussian NBO Version 3.1******************************
             N A T U R A L   A T O M I C   O R B I T A L   A N D
          N A T U R A L   B O N D   O R B I T A L   A N A L Y S I S
 ******************************Gaussian NBO Version 3.1******************************
       /RESON  / : Allow strongly delocalized NBO set

 Analyzing the QCI/CC density

 Job title: h2cs-wavefunction                                               

 Storage needed:     61222 in NPA (2147483536 available)
 GSVD:  LWork=        -636 too small for GESVD, short by       41336 words or       41336 for optimal perf.


 NATURAL POPULATIONS:  Natural atomic orbital occupancies 
                                                          
   NAO  Atom  No  lang   Type(AO)    Occupancy
 --------------------------------------------
     1    C    1  S      Cor( 1S)     1.99938
     2    C    1  S      Val( 2S)     1.18017
     3    C    1  S      Ryd( 3S)     0.00802
     4    C    1  S      Ryd( 4S)     0.00051
     5    C    1  S      Ryd( 5S)     0.00007
     6    C    1  px     Val( 2p)     0.88341
     7    C    1  px     Ryd( 3p)     0.00622
     8    C    1  px     Ryd( 5p)     0.00023
     9    C    1  px     Ryd( 4p)     0.00028
    10    C    1  py     Val( 2p)     1.17610
    11    C    1  py     Ryd( 3p)     0.00607
    12    C    1  py     Ryd( 4p)     0.00045
    13    C    1  py     Ryd( 5p)     0.00031
    14    C    1  pz     Val( 2p)     1.09991
    15    C    1  pz     Ryd( 3p)     0.00709
    16    C    1  pz     Ryd( 4p)     0.00028
    17    C    1  pz     Ryd( 5p)     0.00008
    18    C    1  dxy    Ryd( 3d)     0.00626
    19    C    1  dxy    Ryd( 4d)     0.00025
    20    C    1  dxy    Ryd( 5d)     0.00012
    21    C    1  dxz    Ryd( 3d)     0.00970
    22    C    1  dxz    Ryd( 4d)     0.00026
    23    C    1  dxz    Ryd( 5d)     0.00011
    24    C    1  dyz    Ryd( 3d)     0.01135
    25    C    1  dyz    Ryd( 4d)     0.00028
    26    C    1  dyz    Ryd( 5d)     0.00024
    27    C    1  dx2y2  Ryd( 3d)     0.00766
    28    C    1  dx2y2  Ryd( 4d)     0.00031
    29    C    1  dx2y2  Ryd( 5d)     0.00011
    30    C    1  dz2    Ryd( 3d)     0.01235
    31    C    1  dz2    Ryd( 4d)     0.00030
    32    C    1  dz2    Ryd( 5d)     0.00013
    33    C    1  f(0)   Ryd( 4f)     0.00060
    34    C    1  f(0)   Ryd( 5f)     0.00008
    35    C    1  f(C1)  Ryd( 4f)     0.00056
    36    C    1  f(C1)  Ryd( 5f)     0.00012
    37    C    1  f(S1)  Ryd( 4f)     0.00065
    38    C    1  f(S1)  Ryd( 5f)     0.00012
    39    C    1  f(C2)  Ryd( 4f)     0.00083
    40    C    1  f(C2)  Ryd( 5f)     0.00011
    41    C    1  f(S2)  Ryd( 4f)     0.00065
    42    C    1  f(S2)  Ryd( 5f)     0.00014
    43    C    1  f(C3)  Ryd( 4f)     0.00048
    44    C    1  f(C3)  Ryd( 5f)     0.00013
    45    C    1  f(S3)  Ryd( 4f)     0.00069
    46    C    1  f(S3)  Ryd( 5f)     0.00012

    47    S    2  S      Cor( 1S)     2.00000
    48    S    2  S      Cor( 2S)     1.99900
    49    S    2  S      Val( 3S)     1.72874
    50    S    2  S      Ryd( 4S)     0.01579
    51    S    2  S      Ryd( 5S)     0.00041
    52    S    2  S      Ryd( 6S)     0.00011
    53    S    2  px     Cor( 2p)     1.99986
    54    S    2  px     Val( 3p)     1.08369
    55    S    2  px     Ryd( 4p)     0.00431
    56    S    2  px     Ryd( 5p)     0.00031
    57    S    2  px     Ryd( 6p)     0.00002
    58    S    2  py     Cor( 2p)     2.00000
    59    S    2  py     Val( 3p)     1.87271
    60    S    2  py     Ryd( 4p)     0.01449
    61    S    2  py     Ryd( 5p)     0.00055
    62    S    2  py     Ryd( 6p)     0.00005
    63    S    2  pz     Cor( 2p)     1.99973
    64    S    2  pz     Val( 3p)     1.07845
    65    S    2  pz     Ryd( 4p)     0.00648
    66    S    2  pz     Ryd( 5p)     0.00041
    67    S    2  pz     Ryd( 6p)     0.00004
    68    S    2  dxy    Ryd( 3d)     0.01721
    69    S    2  dxy    Ryd( 4d)     0.00057
    70    S    2  dxy    Ryd( 5d)     0.00006
    71    S    2  dxz    Ryd( 3d)     0.01854
    72    S    2  dxz    Ryd( 4d)     0.00033
    73    S    2  dxz    Ryd( 5d)     0.00007
    74    S    2  dyz    Ryd( 3d)     0.01394
    75    S    2  dyz    Ryd( 4d)     0.00049
    76    S    2  dyz    Ryd( 5d)     0.00027
    77    S    2  dx2y2  Ryd( 3d)     0.01636
    78    S    2  dx2y2  Ryd( 4d)     0.00060
    79    S    2  dx2y2  Ryd( 5d)     0.00006
    80    S    2  dz2    Ryd( 3d)     0.02342
    81    S    2  dz2    Ryd( 4d)     0.00031
    82    S    2  dz2    Ryd( 5d)     0.00016
    83    S    2  f(0)   Ryd( 4f)     0.00133
    84    S    2  f(0)   Ryd( 5f)     0.00018
    85    S    2  f(C1)  Ryd( 4f)     0.00100
    86    S    2  f(C1)  Ryd( 5f)     0.00013
    87    S    2  f(S1)  Ryd( 4f)     0.00122
    88    S    2  f(S1)  Ryd( 5f)     0.00017
    89    S    2  f(C2)  Ryd( 4f)     0.00125
    90    S    2  f(C2)  Ryd( 5f)     0.00013
    91    S    2  f(S2)  Ryd( 4f)     0.00132
    92    S    2  f(S2)  Ryd( 5f)     0.00011
    93    S    2  f(C3)  Ryd( 4f)     0.00151
    94    S    2  f(C3)  Ryd( 5f)     0.00011
    95    S    2  f(S3)  Ryd( 4f)     0.00151
    96    S    2  f(S3)  Ryd( 5f)     0.00012

    97    H    3  S      Val( 1S)     0.82389
    98    H    3  S      Ryd( 2S)     0.00306
    99    H    3  S      Ryd( 3S)     0.00016
   100    H    3  S      Ryd( 4S)     0.00006
   101    H    3  px     Ryd( 2p)     0.00094
   102    H    3  px     Ryd( 3p)     0.00050
   103    H    3  px     Ryd( 4p)     0.00007
   104    H    3  py     Ryd( 2p)     0.00148
   105    H    3  py     Ryd( 3p)     0.00038
   106    H    3  py     Ryd( 4p)     0.00023
   107    H    3  pz     Ryd( 2p)     0.00286
   108    H    3  pz     Ryd( 3p)     0.00047
   109    H    3  pz     Ryd( 4p)     0.00017
   110    H    3  dxy    Ryd( 4d)     0.00007
   111    H    3  dxy    Ryd( 3d)     0.00007
   112    H    3  dxz    Ryd( 3d)     0.00010
   113    H    3  dxz    Ryd( 4d)     0.00005
   114    H    3  dyz    Ryd( 4d)     0.00008
   115    H    3  dyz    Ryd( 3d)     0.00009
   116    H    3  dx2y2  Ryd( 3d)     0.00011
   117    H    3  dx2y2  Ryd( 4d)     0.00009
   118    H    3  dz2    Ryd( 3d)     0.00009
   119    H    3  dz2    Ryd( 4d)     0.00006

   120    H    4  S      Val( 1S)     0.82288
   121    H    4  S      Ryd( 2S)     0.00303
   122    H    4  S      Ryd( 3S)     0.00016
   123    H    4  S      Ryd( 4S)     0.00006
   124    H    4  px     Ryd( 2p)     0.00093
   125    H    4  px     Ryd( 3p)     0.00051
   126    H    4  px     Ryd( 4p)     0.00007
   127    H    4  py     Ryd( 2p)     0.00148
   128    H    4  py     Ryd( 3p)     0.00037
   129    H    4  py     Ryd( 4p)     0.00023
   130    H    4  pz     Ryd( 2p)     0.00283
   131    H    4  pz     Ryd( 3p)     0.00047
   132    H    4  pz     Ryd( 4p)     0.00017
   133    H    4  dxy    Ryd( 4d)     0.00007
   134    H    4  dxy    Ryd( 3d)     0.00007
   135    H    4  dxz    Ryd( 3d)     0.00010
   136    H    4  dxz    Ryd( 4d)     0.00005
   137    H    4  dyz    Ryd( 4d)     0.00009
   138    H    4  dyz    Ryd( 3d)     0.00010
   139    H    4  dx2y2  Ryd( 3d)     0.00011
   140    H    4  dx2y2  Ryd( 4d)     0.00009
   141    H    4  dz2    Ryd( 3d)     0.00009
   142    H    4  dz2    Ryd( 4d)     0.00006


 Summary of Natural Population Analysis:                  
                                                          
                                       Natural Population 
                Natural  -----------------------------------------------
    Atom  No    Charge         Core      Valence    Rydberg      Total
 -----------------------------------------------------------------------
      C    1   -0.42328      1.99938     4.33959    0.08431     6.42328
      S    2    0.09236      9.99859     5.76359    0.14546    15.90764
      H    3    0.16491      0.00000     0.82389    0.01120     0.83509
      H    4    0.16601      0.00000     0.82288    0.01111     0.83399
 =======================================================================
   * Total *    0.00000     11.99798    11.74995    0.25207    24.00000

                                 Natural Population      
 --------------------------------------------------------
   Core                      11.99798 ( 99.9831% of  12)
   Valence                   11.74995 ( 97.9163% of  12)
   Natural Minimal Basis     23.74793 ( 98.9497% of  24)
   Natural Rydberg Basis      0.25207 (  1.0503% of  24)
 --------------------------------------------------------

    Atom  No          Natural Electron Configuration
 ----------------------------------------------------------------------------
      C    1      [core]2S( 1.18)2p( 3.16)3S( 0.01)3p( 0.02)3d( 0.05)
      S    2      [core]3S( 1.73)3p( 4.03)4S( 0.02)3d( 0.09)4p( 0.03)4f( 0.01)
      H    3            1S( 0.82)2p( 0.01)
      H    4            1S( 0.82)2p( 0.01)


 NBO analysis skipped by request.
 Unable to Open any file for archive entry.
 1\1\GINC-TRAPISTA\SP\RQCISD-FC\Aug-CC-pVTZ\C1H2S1\WAGNER\02-Sep-2022\0
 \\# qcisd/aug-cc-pvtz nosymm density=current pop=(chelpg,hirshfeld,npa
 ,dipole)\\h2cs-wavefunction\\0,1\C,0,0.,0.,-0.555291\S,0,0.,0.,1.06037
 4\H,0,0.,-0.92228,-1.118992\H,0,0.,0.92228,-1.128992\\Version=EM64L-G1
 6RevC.01\HF=-436.5576323\MP2=-436.8984399\MP3=-436.921268\MP4D=-436.93
 12723\MP4DQ=-436.9196135\MP4SDQ=-436.923088\QCISD=-436.923492\RMSD=2.8
 83e-09\Dipole=0.,-0.000986,-0.6904183\Quadrupole=-0.0974645,-0.5364482
 ,0.6339128,0.,0.,-0.0065237\PG=CS [SG(C1H2S1)]\\@
 The archive entry for this job was punched.


 In the beginning there was nothing, which exploded.
 Job cpu time:       0 days  1 hours 33 minutes  2.8 seconds.
 Elapsed time:       0 days  0 hours  5 minutes 54.0 seconds.
 File lengths (MBytes):  RWF=   7177 Int=      0 D2E=      0 Chk=      3 Scr=      1
 Normal termination of Gaussian 16 at Fri Sep  2 22:00:40 2022.
