 Entering Gaussian System, Link 0=/home/wagner/chemistry/gaussian/g16/g16
 Input=GAUSSIAN.com
 Output=GAUSSIAN.log
 Initial command:
 /home/wagner/chemistry/gaussian/g16/l1.exe "/home/wagner/chemistry/gaussian/work/Gau-74088.inp" -scrdir="/home/wagner/chemistry/gaussian/work/"
 Entering Link 1 = /home/wagner/chemistry/gaussian/g16/l1.exe PID=     74090.
  
 Copyright (c) 1988-2019, Gaussian, Inc.  All Rights Reserved.
  
 This is part of the Gaussian(R) 16 program.  It is based on
 the Gaussian(R) 09 system (copyright 2009, Gaussian, Inc.),
 the Gaussian(R) 03 system (copyright 2003, Gaussian, Inc.),
 the Gaussian(R) 98 system (copyright 1998, Gaussian, Inc.),
 the Gaussian(R) 94 system (copyright 1995, Gaussian, Inc.),
 the Gaussian 92(TM) system (copyright 1992, Gaussian, Inc.),
 the Gaussian 90(TM) system (copyright 1990, Gaussian, Inc.),
 the Gaussian 88(TM) system (copyright 1988, Gaussian, Inc.),
 the Gaussian 86(TM) system (copyright 1986, Carnegie Mellon
 University), and the Gaussian 82(TM) system (copyright 1983,
 Carnegie Mellon University). Gaussian is a federally registered
 trademark of Gaussian, Inc.
  
 This software contains proprietary and confidential information,
 including trade secrets, belonging to Gaussian, Inc.
  
 This software is provided under written license and may be
 used, copied, transmitted, or stored only in accord with that
 written license.
  
 The following legend is applicable only to US Government
 contracts under FAR:
  
                    RESTRICTED RIGHTS LEGEND
  
 Use, reproduction and disclosure by the US Government is
 subject to restrictions as set forth in subparagraphs (a)
 and (c) of the Commercial Computer Software - Restricted
 Rights clause in FAR 52.227-19.
  
 Gaussian, Inc.
 340 Quinnipiac St., Bldg. 40, Wallingford CT 06492
  
  
 ---------------------------------------------------------------
 Warning -- This program may not be used in any manner that
 competes with the business of Gaussian, Inc. or will provide
 assistance to any competitor of Gaussian, Inc.  The licensee
 of this program is prohibited from giving any competitor of
 Gaussian, Inc. access to this program.  By using this program,
 the user acknowledges that Gaussian, Inc. is engaged in the
 business of creating and licensing software in the field of
 computational chemistry and represents and warrants to the
 licensee that it is not a competitor of Gaussian, Inc. and that
 it will not use this program in any manner prohibited above.
 ---------------------------------------------------------------
  

 Cite this work as:
 Gaussian 16, Revision C.01,
 M. J. Frisch, G. W. Trucks, H. B. Schlegel, G. E. Scuseria, 
 M. A. Robb, J. R. Cheeseman, G. Scalmani, V. Barone, 
 G. A. Petersson, H. Nakatsuji, X. Li, M. Caricato, A. V. Marenich, 
 J. Bloino, B. G. Janesko, R. Gomperts, B. Mennucci, H. P. Hratchian, 
 J. V. Ortiz, A. F. Izmaylov, J. L. Sonnenberg, D. Williams-Young, 
 F. Ding, F. Lipparini, F. Egidi, J. Goings, B. Peng, A. Petrone, 
 T. Henderson, D. Ranasinghe, V. G. Zakrzewski, J. Gao, N. Rega, 
 G. Zheng, W. Liang, M. Hada, M. Ehara, K. Toyota, R. Fukuda, 
 J. Hasegawa, M. Ishida, T. Nakajima, Y. Honda, O. Kitao, H. Nakai, 
 T. Vreven, K. Throssell, J. A. Montgomery, Jr., J. E. Peralta, 
 F. Ogliaro, M. J. Bearpark, J. J. Heyd, E. N. Brothers, K. N. Kudin, 
 V. N. Staroverov, T. A. Keith, R. Kobayashi, J. Normand, 
 K. Raghavachari, A. P. Rendell, J. C. Burant, S. S. Iyengar, 
 J. Tomasi, M. Cossi, J. M. Millam, M. Klene, C. Adamo, R. Cammi, 
 J. W. Ochterski, R. L. Martin, K. Morokuma, O. Farkas, 
 J. B. Foresman, and D. J. Fox, Gaussian, Inc., Wallingford CT, 2019.
 
 ******************************************
 Gaussian 16:  EM64L-G16RevC.01  3-Jul-2019
                 2-Sep-2022 
 ******************************************
 %nproc=16
 Will use up to   16 processors via shared memory.
 %mem=16GB
 ----------------------------------------------------------------------
 # qcisd/aug-cc-pvtz nosymm density=current pop=(chelpg,hirshfeld,npa,d
 ipole)
 ----------------------------------------------------------------------
 1/30=1,38=1,172=1/1;
 2/12=2,15=1,17=6,18=5,40=1/2;
 3/5=16,6=1,7=10,11=9,25=1,30=1,71=1/1,2,3;
 4//1;
 5/5=2,38=5/2;
 8/6=4,9=120000,10=1/1,4;
 9/5=8,15=1/13;
 11/28=-7,31=1,32=3,42=3/11;
 10/5=6,13=10,31=1/2;
 6/7=2,8=2,9=2,10=2,15=24,20=3,22=-1,40=-1,79=1/1,2,7;
 99/5=1,9=1/99;
 -----------------
 h2cs-wavefunction
 -----------------
 Symbolic Z-matrix:
 Charge =  0 Multiplicity = 1
 C                     0.        0.       -0.55529 
 S                     0.        0.        1.05037 
 H                     0.       -0.92228  -1.12899 
 H                     0.        0.92228  -1.12899 
 
                          Input orientation:                          
 ---------------------------------------------------------------------
 Center     Atomic      Atomic             Coordinates (Angstroms)
 Number     Number       Type             X           Y           Z
 ---------------------------------------------------------------------
      1          6           0        0.000000    0.000000   -0.555291
      2         16           0        0.000000    0.000000    1.050374
      3          1           0        0.000000   -0.922280   -1.128992
      4          1           0        0.000000    0.922280   -1.128992
 ---------------------------------------------------------------------
                    Distance matrix (angstroms):
                    1          2          3          4
     1  C    0.000000
     2  S    1.605665   0.000000
     3  H    1.086155   2.366482   0.000000
     4  H    1.086155   2.366482   1.844560   0.000000
 Symmetry turned off by external request.
 Stoichiometry    CH2S
 Framework group  C2V[C2(CS),SGV(H2)]
 Deg. of freedom     3
 Full point group                 C2V     NOp   4
 Rotational constants (GHZ):         294.7653830          17.8339915          16.8165511
 Standard basis: Aug-CC-pVTZ (5D, 7F)
   142 basis functions,   240 primitive gaussians,   164 cartesian basis functions
    12 alpha electrons       12 beta electrons
       nuclear repulsion energy        44.9275545298 Hartrees.
 NAtoms=    4 NActive=    4 NUniq=    4 SFac= 1.00D+00 NAtFMM=   60 NAOKFM=F Big=F
 Integral buffers will be    131072 words long.
 Raffenetti 1 integral format.
 Two-electron integral symmetry is turned off.
 One-electron integrals computed using PRISM.
 NBasis=   142 RedAO= T EigKep=  8.89D-05  NBF=   142
 NBsUse=   142 1.00D-06 EigRej= -1.00D+00 NBFU=   142
 ExpMin= 2.53D-02 ExpMax= 3.74D+05 ExpMxC= 1.18D+03 IAcc=3 IRadAn=         5 AccDes= 0.00D+00
 Harris functional with IExCor=  205 and IRadAn=       5 diagonalized for initial guess.
 HarFok:  IExCor=  205 AccDes= 0.00D+00 IRadAn=         5 IDoV= 1 UseB2=F ITyADJ=14
 ICtDFT=  3500011 ScaDFX=  1.000000  1.000000  1.000000  1.000000
 FoFCou: FMM=F IPFlag=           0 FMFlag=      100000 FMFlg1=           0
         NFxFlg=           0 DoJE=T BraDBF=F KetDBF=T FulRan=T
         wScrn=  0.000000 ICntrl=       500 IOpCl=  0 I1Cent=   200000004 NGrid=           0
         NMat0=    1 NMatS0=      1 NMatT0=    0 NMatD0=    1 NMtDS0=    0 NMtDT0=    0
 Symmetry not used in FoFCou.
 Keep R1 ints in memory in canonical form, NReq=59473649.
 Requested convergence on RMS density matrix=1.00D-08 within 128 cycles.
 Requested convergence on MAX density matrix=1.00D-06.
 Requested convergence on             energy=1.00D-06.
 No special actions if energy rises.
 SCF Done:  E(RHF) =  -436.557887650     A.U. after   11 cycles
            NFock= 11  Conv=0.95D-08     -V/T= 2.0002
 ExpMin= 2.53D-02 ExpMax= 3.74D+05 ExpMxC= 1.18D+03 IAcc=3 IRadAn=         5 AccDes= 0.00D+00
 HarFok:  IExCor=  205 AccDes= 0.00D+00 IRadAn=         5 IDoV=-2 UseB2=F ITyADJ=14
 ICtDFT= 12500011 ScaDFX=  1.000000  1.000000  1.000000  1.000000
 Range of M.O.s used for correlation:     7   142
 NBasis=   142 NAE=    12 NBE=    12 NFC=     6 NFV=     0
 NROrb=    136 NOA=     6 NOB=     6 NVA=   130 NVB=   130

 **** Warning!!: The largest alpha MO coefficient is  0.44442778D+02

 Semi-Direct transformation.
 ModeAB=           2 MOrb=             6 LenV=    2146810957
 LASXX=      7286295 LTotXX=     7286295 LenRXX=     7286295
 LTotAB=     7445736 MaxLAS=    11040480 LenRXY=    11040480
 NonZer=    14572590 LenScr=    22628352 LnRSAI=           0
 LnScr1=           0 LExtra=           0 Total=     40955127
 MaxDsk=          -1 SrtSym=           F ITran=            4
 JobTyp=0 Pass  1:  I=   1 to   6.
 (rs|ai) integrals will be sorted in core.
 Spin components of T(2) and E(2):
     alpha-alpha T2 =       0.1675571216D-01 E2=     -0.3865013852D-01
     alpha-beta  T2 =       0.1046355270D+00 E2=     -0.2632108382D+00
     beta-beta   T2 =       0.1675571216D-01 E2=     -0.3865013852D-01
 ANorm=    0.1066839703D+01
 E2 =    -0.3405111153D+00 EUMP2 =    -0.43689839876477D+03
 Keep R2 and R3 ints in memory in canonical form, NReq=111025432.
 CIDS: In Core Option IDoMem=           1.
 Iterations=  50 Convergence= 0.100D-07
 Produce multiple copies of IABC intergrals
 Iteration Nr.   1
 **********************
 DD1Dir will call FoFMem   1 times, MxPair=        42
 NAB=    21 NAA=     0 NBB=     0.
 MP4(R+Q)=  0.11578426D-01
 E3=       -0.22894856D-01        EUMP3=      -0.43692129362D+03
 E4(DQ)=    0.16252182D-02        UMP4(DQ)=   -0.43691966840D+03
 E4(SDQ)=  -0.17658592D-02        UMP4(SDQ)=  -0.43692305948D+03
 DE(Corr)= -0.35182754     E(Corr)=     -436.90971519    
 NORM(A)=   0.10735019D+01
 Iteration Nr.   2
 **********************
 DD1Dir will call FoFMem   1 times, MxPair=        42
 NAB=    21 NAA=     0 NBB=     0.
 DE(Corr)= -0.36309120     E(CORR)=     -436.92097885     Delta=-1.13D-02
 NORM(A)=   0.10807406D+01
 Iteration Nr.   3
 **********************
 DD1Dir will call FoFMem   1 times, MxPair=        42
 NAB=    21 NAA=     0 NBB=     0.
 DE(Corr)= -0.36404355     E(CORR)=     -436.92193120     Delta=-9.52D-04
 NORM(A)=   0.10830584D+01
 Iteration Nr.   4
 **********************
 DD1Dir will call FoFMem   1 times, MxPair=        42
 NAB=    21 NAA=     0 NBB=     0.
 DE(Corr)= -0.36532873     E(CORR)=     -436.92321638     Delta=-1.29D-03
 NORM(A)=   0.10839881D+01
 Iteration Nr.   5
 **********************
 DD1Dir will call FoFMem   1 times, MxPair=        42
 NAB=    21 NAA=     0 NBB=     0.
 DE(Corr)= -0.36551588     E(CORR)=     -436.92340353     Delta=-1.87D-04
 NORM(A)=   0.10843224D+01
 Iteration Nr.   6
 **********************
 DD1Dir will call FoFMem   1 times, MxPair=        42
 NAB=    21 NAA=     0 NBB=     0.
 DE(Corr)= -0.36554588     E(CORR)=     -436.92343353     Delta=-3.00D-05
 NORM(A)=   0.10843349D+01
 Iteration Nr.   7
 **********************
 DD1Dir will call FoFMem   1 times, MxPair=        42
 NAB=    21 NAA=     0 NBB=     0.
 DE(Corr)= -0.36554712     E(CORR)=     -436.92343477     Delta=-1.24D-06
 NORM(A)=   0.10843457D+01
 Iteration Nr.   8
 **********************
 DD1Dir will call FoFMem   1 times, MxPair=        42
 NAB=    21 NAA=     0 NBB=     0.
 DE(Corr)= -0.36554431     E(CORR)=     -436.92343196     Delta= 2.81D-06
 NORM(A)=   0.10843448D+01
 Iteration Nr.   9
 **********************
 DD1Dir will call FoFMem   1 times, MxPair=        42
 NAB=    21 NAA=     0 NBB=     0.
 DE(Corr)= -0.36554662     E(CORR)=     -436.92343427     Delta=-2.31D-06
 NORM(A)=   0.10843460D+01
 Iteration Nr.  10
 **********************
 DD1Dir will call FoFMem   1 times, MxPair=        42
 NAB=    21 NAA=     0 NBB=     0.
 DE(Corr)= -0.36554634     E(CORR)=     -436.92343399     Delta= 2.77D-07
 NORM(A)=   0.10843467D+01
 Iteration Nr.  11
 **********************
 DD1Dir will call FoFMem   1 times, MxPair=        42
 NAB=    21 NAA=     0 NBB=     0.
 DE(Corr)= -0.36554683     E(CORR)=     -436.92343448     Delta=-4.93D-07
 NORM(A)=   0.10843472D+01
 Iteration Nr.  12
 **********************
 DD1Dir will call FoFMem   1 times, MxPair=        42
 NAB=    21 NAA=     0 NBB=     0.
 DE(Corr)= -0.36554694     E(CORR)=     -436.92343459     Delta=-1.06D-07
 NORM(A)=   0.10843476D+01
 Iteration Nr.  13
 **********************
 DD1Dir will call FoFMem   1 times, MxPair=        42
 NAB=    21 NAA=     0 NBB=     0.
 DE(Corr)= -0.36554703     E(CORR)=     -436.92343467     Delta=-8.50D-08
 NORM(A)=   0.10843478D+01
 Iteration Nr.  14
 **********************
 DD1Dir will call FoFMem   1 times, MxPair=        42
 NAB=    21 NAA=     0 NBB=     0.
 DE(Corr)= -0.36554705     E(CORR)=     -436.92343470     Delta=-2.72D-08
 NORM(A)=   0.10843478D+01
 Iteration Nr.  15
 **********************
 DD1Dir will call FoFMem   1 times, MxPair=        42
 NAB=    21 NAA=     0 NBB=     0.
 DE(Corr)= -0.36554706     E(CORR)=     -436.92343471     Delta=-8.41D-09
 NORM(A)=   0.10843478D+01
 Wavefunction amplitudes converged. E(Corr)=     -436.92343471    
 Dominant configurations:
 ***********************
 Spin Case        I    J    A    B          Value
   ABAB          11   11   14   14      -0.112178D+00
 Largest amplitude= 1.12D-01

 Z-amplitude iterations

 Iteration Nr.   1
 **********************
 DD1Dir will call FoFMem   1 times, MxPair=        42
 NAB=    21 NAA=     0 NBB=     0.
 DE(Z)= -0.34970297     E(Z)=     -436.90759062     Delta= 1.58D-02
 NORM(A)=   0.10843347D+01
 Iteration Nr.   2
 **********************
 DD1Dir will call FoFMem   1 times, MxPair=        42
 NAB=    21 NAA=     0 NBB=     0.
 DE(Z)= -0.34970236     E(Z)=     -436.90759001     Delta= 6.19D-07
 NORM(A)=   0.10843309D+01
 Iteration Nr.   3
 **********************
 DD1Dir will call FoFMem   1 times, MxPair=        42
 NAB=    21 NAA=     0 NBB=     0.
 DE(Z)= -0.34970215     E(Z)=     -436.90758980     Delta= 2.05D-07
 NORM(A)=   0.10843274D+01
 Iteration Nr.   4
 **********************
 DD1Dir will call FoFMem   1 times, MxPair=        42
 NAB=    21 NAA=     0 NBB=     0.
 DE(Z)= -0.34970198     E(Z)=     -436.90758963     Delta= 1.70D-07
 NORM(A)=   0.10842359D+01
 Iteration Nr.   5
 **********************
 DD1Dir will call FoFMem   1 times, MxPair=        42
 NAB=    21 NAA=     0 NBB=     0.
 DE(Z)= -0.34969743     E(Z)=     -436.90758507     Delta= 4.56D-06
 NORM(A)=   0.10762919D+01
 Iteration Nr.   6
 **********************
 DD1Dir will call FoFMem   1 times, MxPair=        42
 NAB=    21 NAA=     0 NBB=     0.
 DE(Z)= -0.34929286     E(Z)=     -436.90718051     Delta= 4.05D-04
 NORM(A)=   0.10762895D+01
 Iteration Nr.   7
 **********************
 DD1Dir will call FoFMem   1 times, MxPair=        42
 NAB=    21 NAA=     0 NBB=     0.
 DE(Z)= -0.34929177     E(Z)=     -436.90717942     Delta= 1.09D-06
 NORM(A)=   0.10762863D+01
 Iteration Nr.   8
 **********************
 DD1Dir will call FoFMem   1 times, MxPair=        42
 NAB=    21 NAA=     0 NBB=     0.
 DE(Z)= -0.34929185     E(Z)=     -436.90717950     Delta=-7.37D-08
 NORM(A)=   0.10762861D+01
 Iteration Nr.   9
 **********************
 DD1Dir will call FoFMem   1 times, MxPair=        42
 NAB=    21 NAA=     0 NBB=     0.
 DE(Z)= -0.34929173     E(Z)=     -436.90717938     Delta= 1.12D-07
 NORM(A)=   0.10762861D+01
 Iteration Nr.  10
 **********************
 DD1Dir will call FoFMem   1 times, MxPair=        42
 NAB=    21 NAA=     0 NBB=     0.
 DE(Z)= -0.34929174     E(Z)=     -436.90717939     Delta=-1.07D-08
 NORM(A)=   0.10762861D+01
 Iteration Nr.  11
 **********************
 DD1Dir will call FoFMem   1 times, MxPair=        42
 NAB=    21 NAA=     0 NBB=     0.
 DE(Z)= -0.34929175     E(Z)=     -436.90717940     Delta=-4.34D-09
 NORM(A)=   0.10762861D+01
 Z-amplitudes converged.
 Discarding MO integrals.
          Differentiating once with respect to electric field.
                with respect to dipole field.
          Electric field/nuclear overlap derivatives assumed to be zero.
 Keep R1 ints in memory in canonical form, NReq=59475213.
          There are     1 degrees of freedom in the 1st order CPHF.  IDoFFX=0 NUNeed=     1.
 LinEq1:  Iter=  0 NonCon=     1 RMS=2.91D-03 Max=4.34D-02 NDo=     1
 AX will form     1 AO Fock derivatives at one time.
 LinEq1:  Iter=  1 NonCon=     1 RMS=9.77D-04 Max=1.19D-02 NDo=     1
 LinEq1:  Iter=  2 NonCon=     1 RMS=4.63D-04 Max=1.27D-02 NDo=     1
 LinEq1:  Iter=  3 NonCon=     1 RMS=1.54D-04 Max=2.37D-03 NDo=     1
 LinEq1:  Iter=  4 NonCon=     1 RMS=3.88D-05 Max=5.20D-04 NDo=     1
 LinEq1:  Iter=  5 NonCon=     1 RMS=8.52D-06 Max=9.61D-05 NDo=     1
 LinEq1:  Iter=  6 NonCon=     1 RMS=1.52D-06 Max=2.15D-05 NDo=     1
 LinEq1:  Iter=  7 NonCon=     1 RMS=1.96D-07 Max=2.61D-06 NDo=     1
 LinEq1:  Iter=  8 NonCon=     1 RMS=2.25D-08 Max=2.20D-07 NDo=     1
 LinEq1:  Iter=  9 NonCon=     1 RMS=3.58D-09 Max=3.69D-08 NDo=     1
 LinEq1:  Iter= 10 NonCon=     1 RMS=5.02D-10 Max=5.66D-09 NDo=     1
 LinEq1:  Iter= 11 NonCon=     0 RMS=6.15D-11 Max=6.15D-10 NDo=     1
 Linear equations converged to 1.000D-10 1.000D-09 after    11 iterations.
 End of Minotr F.D. properties file   721 does not exist.
 End of Minotr F.D. properties file   722 does not exist.
 End of Minotr F.D. properties file   788 does not exist.

 **********************************************************************

            Population analysis using the CC Density.

 **********************************************************************

 Alpha  occ. eigenvalues --  -91.95558 -11.31921  -8.95809  -6.63876  -6.63843
 Alpha  occ. eigenvalues --   -6.63645  -1.06730  -0.81352  -0.64507  -0.54229
 Alpha  occ. eigenvalues --   -0.41982  -0.35215
 Alpha virt. eigenvalues --    0.02853   0.03629   0.04273   0.06129   0.09211
 Alpha virt. eigenvalues --    0.10414   0.11631   0.13157   0.13527   0.14773
 Alpha virt. eigenvalues --    0.19867   0.21687   0.23067   0.24399   0.27187
 Alpha virt. eigenvalues --    0.29031   0.30927   0.31771   0.32549   0.34401
 Alpha virt. eigenvalues --    0.37622   0.38317   0.38591   0.40199   0.41288
 Alpha virt. eigenvalues --    0.43257   0.44835   0.45214   0.47169   0.48837
 Alpha virt. eigenvalues --    0.56315   0.62054   0.65151   0.66090   0.67824
 Alpha virt. eigenvalues --    0.74899   0.75463   0.76964   0.78875   0.80743
 Alpha virt. eigenvalues --    0.83345   0.84962   0.85076   0.87288   0.87798
 Alpha virt. eigenvalues --    0.89606   0.89850   0.96109   0.97207   0.97283
 Alpha virt. eigenvalues --    0.99522   1.00342   1.02096   1.08803   1.10932
 Alpha virt. eigenvalues --    1.10968   1.12789   1.13532   1.14072   1.16901
 Alpha virt. eigenvalues --    1.24661   1.30301   1.34343   1.42897   1.49987
 Alpha virt. eigenvalues --    1.52919   1.54986   1.58436   1.58911   1.59013
 Alpha virt. eigenvalues --    1.61647   1.65509   1.80293   1.88244   1.89145
 Alpha virt. eigenvalues --    2.02392   2.02808   2.02833   2.05463   2.09009
 Alpha virt. eigenvalues --    2.09784   2.13465   2.17698   2.34667   2.35628
 Alpha virt. eigenvalues --    2.39356   2.40635   2.42438   2.47794   2.50697
 Alpha virt. eigenvalues --    2.57465   2.69683   2.71808   2.89321   3.01554
 Alpha virt. eigenvalues --    3.05101   3.12551   3.19524   3.23625   3.46866
 Alpha virt. eigenvalues --    3.57997   3.59721   3.64743   3.67519   3.69442
 Alpha virt. eigenvalues --    3.80858   3.83867   3.85949   3.90583   3.93179
 Alpha virt. eigenvalues --    4.05559   4.10840   4.25565   4.40762   4.42140
 Alpha virt. eigenvalues --    4.46119   4.68910   4.73794   4.74517   5.07410
 Alpha virt. eigenvalues --    5.12559   5.25102   5.25274   5.29748   5.51509
 Alpha virt. eigenvalues --    5.84928   5.95353   6.48209   6.64282  15.25147
          Condensed to atoms (all electrons):
               1          2          3          4
     1  C    6.189106   0.271507   0.183089   0.183089
     2  S    0.271507  16.038628  -0.122208  -0.122208
     3  H    0.183089  -0.122208   0.655872  -0.163008
     4  H    0.183089  -0.122208  -0.163008   0.655872
 Mulliken charges:
               1
     1  C   -0.826791
     2  S   -0.065719
     3  H    0.446255
     4  H    0.446255
 Sum of Mulliken charges =  -0.00000
 Mulliken charges with hydrogens summed into heavy atoms:
               1
     1  C    0.065719
     2  S   -0.065719
 Electronic spatial extent (au):  <R**2>=            129.0482
 Charge=             -0.0000 electrons
 Dipole moment (field-independent basis, Debye):
    X=             -0.0000    Y=              0.0000    Z=             -1.7353  Tot=              1.7353
 Quadrupole moment (field-independent basis, Debye-Ang):
   XX=            -19.9438   YY=            -20.5580   ZZ=            -18.9815
   XY=             -0.0000   XZ=              0.0000   YZ=              0.0000
 Traceless Quadrupole moment (field-independent basis, Debye-Ang):
   XX=             -0.1161   YY=             -0.7302   ZZ=              0.8463
   XY=             -0.0000   XZ=              0.0000   YZ=              0.0000
 Octapole moment (field-independent basis, Debye-Ang**2):
  XXX=             -0.0000  YYY=              0.0000  ZZZ=            -27.2890  XYY=             -0.0000
  XXY=              0.0000  XXZ=             -8.4175  XZZ=              0.0000  YZZ=              0.0000
  YYZ=            -12.9688  XYZ=             -0.0000
 Hexadecapole moment (field-independent basis, Debye-Ang**3):
 XXXX=            -25.2076 YYYY=            -35.0745 ZZZZ=           -125.8816 XXXY=             -0.0000
 XXXZ=              0.0000 YYYX=             -0.0000 YYYZ=              0.0000 ZZZX=              0.0000
 ZZZY=             -0.0000 XXYY=            -10.4756 XXZZ=            -25.0434 YYZZ=            -29.2583
 XXYZ=             -0.0000 YYXZ=              0.0000 ZZXY=             -0.0000
 N-N= 4.492755452976D+01 E-N=-1.127836582326D+03  KE= 4.368943381182D+02
 There are a total of       91844 grid points.
 ElSum from          density=       24.0000000223
 ElSum from atomic densities=       24.0000000460

 Hirshfeld populations at iteration   1 (CX, CA, CB, DipXYZ):
               1          2          3          4          5          6
     1  C    0.000000   3.005165   3.005165   0.000000  -0.000000  -0.150385
     2  S    0.000013   8.043567   8.043567   0.000000   0.000000   0.032865
     3  H    0.000004   0.475634   0.475634   0.000000  -0.129801  -0.097574
     4  H    0.000004   0.475634   0.475634  -0.000000   0.129801  -0.097574
       Tot   0.000022  12.000000  12.000000   0.000000   0.000000  -0.312667

 Dip from Atomic Chgs              0.000000   0.000000  -0.370052
         Total Dipole              0.000000   0.000000  -0.682719

 Hirshfeld charges, spin densities, dipoles, and CM5 charges using IRadAn=      5:
              Q-H        S-H        Dx         Dy         Dz        Q-CM5   
     1  C   -0.010331   0.000000   0.000000  -0.000000  -0.150385  -0.088021
     2  S   -0.087134   0.000000   0.000000   0.000000   0.032865  -0.116207
     3  H    0.048732   0.000000   0.000000  -0.129801  -0.097574   0.102114
     4  H    0.048732   0.000000  -0.000000   0.129801  -0.097574   0.102114
       Tot  -0.000000   0.000000   0.000000   0.000000  -0.312667  -0.000000
 Hirshfeld charges with hydrogens summed into heavy atoms:
              Q-H       Q-CM5   
     1  C    0.087134   0.116207
     2  S   -0.087134  -0.116207
 
 EQQ= 0.000000000000E+00 EQD= 0.000000000000E+00 EDD= 0.297221658426E-02
 EQQ+QD+DD= 0.297221658426E-02
 
 Breneman (CHELPG) radii used.
 Generate Potential Derived Charges using the Breneman model, NDens= 1.
 Grid spacing= 0.300 Box extension= 2.800
 NStep X,Y,Z=   20     26     27   Total possible points=       14040
 Number of Points to Fit=    4700

 **********************************************************************

            Electrostatic Properties Using The CC Density.

 **********************************************************************

       Atomic Center    1 is at   0.000000  0.000000 -0.555291
       Atomic Center    2 is at   0.000000  0.000000  1.050374
       Atomic Center    3 is at   0.000000 -0.922280 -1.128992
       Atomic Center    4 is at   0.000000  0.922280 -1.128992
    4700 points will be used for fitting atomic charges
 Fitting point charges to electrostatic potential
 The dipole moment will be constrained to the correct value
 Charges from ESP fit, RMS=   0.00533 RRMS=   0.40438:
 ESP charges:
               1
     1  C   -0.015630
     2  S   -0.161658
     3  H    0.088644
     4  H    0.088644
 Sum of ESP charges =   0.00000
 ESP charges with hydrogens summed into heavy atoms:
               1
     1  C    0.161658
     2  S   -0.161658
 Charge=   0.00000 Dipole=     0.0000    -0.0000    -1.7353 Tot=     1.7353
 -----------------------------------------------------------------

              Electrostatic Properties (Atomic Units)

 -----------------------------------------------------------------
    Center     Electric         -------- Electric Field --------
               Potential          X             Y             Z
 -----------------------------------------------------------------
    1 Atom    -14.690937
    2 Atom    -59.230662
    3 Atom     -1.072611
    4 Atom     -1.072611
 -----------------------------------------------------------------
 ******************************Gaussian NBO Version 3.1******************************
             N A T U R A L   A T O M I C   O R B I T A L   A N D
          N A T U R A L   B O N D   O R B I T A L   A N A L Y S I S
 ******************************Gaussian NBO Version 3.1******************************
       /RESON  / : Allow strongly delocalized NBO set

 Analyzing the QCI/CC density

 Job title: h2cs-wavefunction                                               

 Storage needed:     61222 in NPA (2147483536 available)
 GSVD:  LWork=        -636 too small for GESVD, short by       41336 words or       41336 for optimal perf.


 NATURAL POPULATIONS:  Natural atomic orbital occupancies 
                                                          
   NAO  Atom  No  lang   Type(AO)    Occupancy
 --------------------------------------------
     1    C    1  S      Cor( 1S)     1.99939
     2    C    1  S      Val( 2S)     1.17903
     3    C    1  S      Ryd( 3S)     0.00819
     4    C    1  S      Ryd( 4S)     0.00051
     5    C    1  S      Ryd( 5S)     0.00007
     6    C    1  px     Val( 2p)     0.88639
     7    C    1  px     Ryd( 3p)     0.00616
     8    C    1  px     Ryd( 5p)     0.00023
     9    C    1  px     Ryd( 4p)     0.00028
    10    C    1  py     Val( 2p)     1.17786
    11    C    1  py     Ryd( 3p)     0.00603
    12    C    1  py     Ryd( 4p)     0.00046
    13    C    1  py     Ryd( 5p)     0.00031
    14    C    1  pz     Val( 2p)     1.10252
    15    C    1  pz     Ryd( 3p)     0.00723
    16    C    1  pz     Ryd( 4p)     0.00028
    17    C    1  pz     Ryd( 5p)     0.00008
    18    C    1  dxy    Ryd( 3d)     0.00629
    19    C    1  dxy    Ryd( 4d)     0.00025
    20    C    1  dxy    Ryd( 5d)     0.00012
    21    C    1  dxz    Ryd( 3d)     0.00982
    22    C    1  dxz    Ryd( 4d)     0.00026
    23    C    1  dxz    Ryd( 5d)     0.00011
    24    C    1  dyz    Ryd( 3d)     0.01129
    25    C    1  dyz    Ryd( 4d)     0.00028
    26    C    1  dyz    Ryd( 5d)     0.00024
    27    C    1  dx2y2  Ryd( 3d)     0.00770
    28    C    1  dx2y2  Ryd( 4d)     0.00031
    29    C    1  dx2y2  Ryd( 5d)     0.00011
    30    C    1  dz2    Ryd( 3d)     0.01256
    31    C    1  dz2    Ryd( 4d)     0.00030
    32    C    1  dz2    Ryd( 5d)     0.00013
    33    C    1  f(0)   Ryd( 4f)     0.00061
    34    C    1  f(0)   Ryd( 5f)     0.00008
    35    C    1  f(C1)  Ryd( 4f)     0.00056
    36    C    1  f(C1)  Ryd( 5f)     0.00012
    37    C    1  f(S1)  Ryd( 4f)     0.00065
    38    C    1  f(S1)  Ryd( 5f)     0.00012
    39    C    1  f(C2)  Ryd( 4f)     0.00083
    40    C    1  f(C2)  Ryd( 5f)     0.00011
    41    C    1  f(S2)  Ryd( 4f)     0.00065
    42    C    1  f(S2)  Ryd( 5f)     0.00014
    43    C    1  f(C3)  Ryd( 4f)     0.00049
    44    C    1  f(C3)  Ryd( 5f)     0.00013
    45    C    1  f(S3)  Ryd( 4f)     0.00068
    46    C    1  f(S3)  Ryd( 5f)     0.00012

    47    S    2  S      Cor( 1S)     2.00000
    48    S    2  S      Cor( 2S)     1.99897
    49    S    2  S      Val( 3S)     1.72403
    50    S    2  S      Ryd( 4S)     0.01616
    51    S    2  S      Ryd( 5S)     0.00041
    52    S    2  S      Ryd( 6S)     0.00011
    53    S    2  px     Cor( 2p)     1.99985
    54    S    2  px     Val( 3p)     1.08054
    55    S    2  px     Ryd( 4p)     0.00428
    56    S    2  px     Ryd( 5p)     0.00031
    57    S    2  px     Ryd( 6p)     0.00002
    58    S    2  py     Cor( 2p)     2.00000
    59    S    2  py     Val( 3p)     1.87029
    60    S    2  py     Ryd( 4p)     0.01461
    61    S    2  py     Ryd( 5p)     0.00055
    62    S    2  py     Ryd( 6p)     0.00005
    63    S    2  pz     Cor( 2p)     1.99971
    64    S    2  pz     Val( 3p)     1.08161
    65    S    2  pz     Ryd( 4p)     0.00649
    66    S    2  pz     Ryd( 5p)     0.00041
    67    S    2  pz     Ryd( 6p)     0.00004
    68    S    2  dxy    Ryd( 3d)     0.01721
    69    S    2  dxy    Ryd( 4d)     0.00057
    70    S    2  dxy    Ryd( 5d)     0.00006
    71    S    2  dxz    Ryd( 3d)     0.01866
    72    S    2  dxz    Ryd( 4d)     0.00033
    73    S    2  dxz    Ryd( 5d)     0.00007
    74    S    2  dyz    Ryd( 3d)     0.01394
    75    S    2  dyz    Ryd( 4d)     0.00050
    76    S    2  dyz    Ryd( 5d)     0.00028
    77    S    2  dx2y2  Ryd( 3d)     0.01634
    78    S    2  dx2y2  Ryd( 4d)     0.00060
    79    S    2  dx2y2  Ryd( 5d)     0.00006
    80    S    2  dz2    Ryd( 3d)     0.02349
    81    S    2  dz2    Ryd( 4d)     0.00032
    82    S    2  dz2    Ryd( 5d)     0.00016
    83    S    2  f(0)   Ryd( 4f)     0.00133
    84    S    2  f(0)   Ryd( 5f)     0.00018
    85    S    2  f(C1)  Ryd( 4f)     0.00100
    86    S    2  f(C1)  Ryd( 5f)     0.00013
    87    S    2  f(S1)  Ryd( 4f)     0.00122
    88    S    2  f(S1)  Ryd( 5f)     0.00017
    89    S    2  f(C2)  Ryd( 4f)     0.00125
    90    S    2  f(C2)  Ryd( 5f)     0.00013
    91    S    2  f(S2)  Ryd( 4f)     0.00131
    92    S    2  f(S2)  Ryd( 5f)     0.00011
    93    S    2  f(C3)  Ryd( 4f)     0.00151
    94    S    2  f(C3)  Ryd( 5f)     0.00012
    95    S    2  f(S3)  Ryd( 4f)     0.00151
    96    S    2  f(S3)  Ryd( 5f)     0.00012

    97    H    3  S      Val( 1S)     0.82324
    98    H    3  S      Ryd( 2S)     0.00303
    99    H    3  S      Ryd( 3S)     0.00016
   100    H    3  S      Ryd( 4S)     0.00006
   101    H    3  px     Ryd( 2p)     0.00093
   102    H    3  px     Ryd( 3p)     0.00050
   103    H    3  px     Ryd( 4p)     0.00007
   104    H    3  py     Ryd( 2p)     0.00150
   105    H    3  py     Ryd( 3p)     0.00037
   106    H    3  py     Ryd( 4p)     0.00023
   107    H    3  pz     Ryd( 2p)     0.00285
   108    H    3  pz     Ryd( 3p)     0.00047
   109    H    3  pz     Ryd( 4p)     0.00017
   110    H    3  dxy    Ryd( 4d)     0.00006
   111    H    3  dxy    Ryd( 3d)     0.00007
   112    H    3  dxz    Ryd( 3d)     0.00010
   113    H    3  dxz    Ryd( 4d)     0.00005
   114    H    3  dyz    Ryd( 4d)     0.00009
   115    H    3  dyz    Ryd( 3d)     0.00010
   116    H    3  dx2y2  Ryd( 3d)     0.00011
   117    H    3  dx2y2  Ryd( 4d)     0.00009
   118    H    3  dz2    Ryd( 3d)     0.00009
   119    H    3  dz2    Ryd( 4d)     0.00006

   120    H    4  S      Val( 1S)     0.82324
   121    H    4  S      Ryd( 2S)     0.00303
   122    H    4  S      Ryd( 3S)     0.00016
   123    H    4  S      Ryd( 4S)     0.00006
   124    H    4  px     Ryd( 2p)     0.00093
   125    H    4  px     Ryd( 3p)     0.00050
   126    H    4  px     Ryd( 4p)     0.00007
   127    H    4  py     Ryd( 2p)     0.00150
   128    H    4  py     Ryd( 3p)     0.00037
   129    H    4  py     Ryd( 4p)     0.00023
   130    H    4  pz     Ryd( 2p)     0.00285
   131    H    4  pz     Ryd( 3p)     0.00047
   132    H    4  pz     Ryd( 4p)     0.00017
   133    H    4  dxy    Ryd( 4d)     0.00006
   134    H    4  dxy    Ryd( 3d)     0.00007
   135    H    4  dxz    Ryd( 3d)     0.00010
   136    H    4  dxz    Ryd( 4d)     0.00005
   137    H    4  dyz    Ryd( 4d)     0.00009
   138    H    4  dyz    Ryd( 3d)     0.00010
   139    H    4  dx2y2  Ryd( 3d)     0.00011
   140    H    4  dx2y2  Ryd( 4d)     0.00009
   141    H    4  dz2    Ryd( 3d)     0.00009
   142    H    4  dz2    Ryd( 4d)     0.00006

 WARNING:  1 low occupancy (<1.9990e) core orbital  found on  S    2


 Summary of Natural Population Analysis:                  
                                                          
                                       Natural Population 
                Natural  -----------------------------------------------
    Atom  No    Charge         Core      Valence    Rydberg      Total
 -----------------------------------------------------------------------
      C    1   -0.43010      1.99939     4.34580    0.08491     6.43010
      S    2    0.09887      9.99854     5.75648    0.14611    15.90113
      H    3    0.16561      0.00000     0.82324    0.01115     0.83439
      H    4    0.16561      0.00000     0.82324    0.01115     0.83439
 =======================================================================
   * Total *   -0.00000     11.99793    11.74875    0.25332    24.00000

                                 Natural Population      
 --------------------------------------------------------
   Core                      11.99793 ( 99.9828% of  12)
   Valence                   11.74875 ( 97.9062% of  12)
   Natural Minimal Basis     23.74668 ( 98.9445% of  24)
   Natural Rydberg Basis      0.25332 (  1.0555% of  24)
 --------------------------------------------------------

    Atom  No          Natural Electron Configuration
 ----------------------------------------------------------------------------
      C    1      [core]2S( 1.18)2p( 3.17)3S( 0.01)3p( 0.02)3d( 0.05)
      S    2      [core]3S( 1.72)3p( 4.03)4S( 0.02)3d( 0.09)4p( 0.03)4f( 0.01)
      H    3            1S( 0.82)2p( 0.01)
      H    4            1S( 0.82)2p( 0.01)


 NBO analysis skipped by request.
 Unable to Open any file for archive entry.
 1\1\GINC-TRAPISTA\SP\RQCISD-FC\Aug-CC-pVTZ\C1H2S1\WAGNER\02-Sep-2022\0
 \\# qcisd/aug-cc-pvtz nosymm density=current pop=(chelpg,hirshfeld,npa
 ,dipole)\\h2cs-wavefunction\\0,1\C,0,0.,0.,-0.555291\S,0,0.,0.,1.05037
 4\H,0,0.,-0.92228,-1.128992\H,0,0.,0.92228,-1.128992\\Version=EM64L-G1
 6RevC.01\HF=-436.5578876\MP2=-436.8983988\MP3=-436.9212936\MP4D=-436.9
 312468\MP4DQ=-436.9196684\MP4SDQ=-436.9230595\QCISD=-436.9234347\RMSD=
 9.475e-09\Dipole=0.,0.,-0.6827188\Quadrupole=-0.0863012,-0.5429005,0.6
 292017,0.,0.,0.\PG=C02V [C2(C1S1),SGV(H2)]\\@
 The archive entry for this job was punched.


 A successful marriage requires falling in love
 many times, always with the same person.
                           -- Mignon McLaughlin
 Job cpu time:       0 days  1 hours 32 minutes 40.1 seconds.
 Elapsed time:       0 days  0 hours  5 minutes 52.3 seconds.
 File lengths (MBytes):  RWF=   7177 Int=      0 D2E=      0 Chk=      3 Scr=      1
 Normal termination of Gaussian 16 at Fri Sep  2 21:30:37 2022.
