 Entering Gaussian System, Link 0=/home/wagner/chemistry/gaussian/g16/g16
 Input=GAUSSIAN.com
 Output=GAUSSIAN.log
 Initial command:
 /home/wagner/chemistry/gaussian/g16/l1.exe "/home/wagner/chemistry/gaussian/work/Gau-75437.inp" -scrdir="/home/wagner/chemistry/gaussian/work/"
 Entering Link 1 = /home/wagner/chemistry/gaussian/g16/l1.exe PID=     75439.
  
 Copyright (c) 1988-2019, Gaussian, Inc.  All Rights Reserved.
  
 This is part of the Gaussian(R) 16 program.  It is based on
 the Gaussian(R) 09 system (copyright 2009, Gaussian, Inc.),
 the Gaussian(R) 03 system (copyright 2003, Gaussian, Inc.),
 the Gaussian(R) 98 system (copyright 1998, Gaussian, Inc.),
 the Gaussian(R) 94 system (copyright 1995, Gaussian, Inc.),
 the Gaussian 92(TM) system (copyright 1992, Gaussian, Inc.),
 the Gaussian 90(TM) system (copyright 1990, Gaussian, Inc.),
 the Gaussian 88(TM) system (copyright 1988, Gaussian, Inc.),
 the Gaussian 86(TM) system (copyright 1986, Carnegie Mellon
 University), and the Gaussian 82(TM) system (copyright 1983,
 Carnegie Mellon University). Gaussian is a federally registered
 trademark of Gaussian, Inc.
  
 This software contains proprietary and confidential information,
 including trade secrets, belonging to Gaussian, Inc.
  
 This software is provided under written license and may be
 used, copied, transmitted, or stored only in accord with that
 written license.
  
 The following legend is applicable only to US Government
 contracts under FAR:
  
                    RESTRICTED RIGHTS LEGEND
  
 Use, reproduction and disclosure by the US Government is
 subject to restrictions as set forth in subparagraphs (a)
 and (c) of the Commercial Computer Software - Restricted
 Rights clause in FAR 52.227-19.
  
 Gaussian, Inc.
 340 Quinnipiac St., Bldg. 40, Wallingford CT 06492
  
  
 ---------------------------------------------------------------
 Warning -- This program may not be used in any manner that
 competes with the business of Gaussian, Inc. or will provide
 assistance to any competitor of Gaussian, Inc.  The licensee
 of this program is prohibited from giving any competitor of
 Gaussian, Inc. access to this program.  By using this program,
 the user acknowledges that Gaussian, Inc. is engaged in the
 business of creating and licensing software in the field of
 computational chemistry and represents and warrants to the
 licensee that it is not a competitor of Gaussian, Inc. and that
 it will not use this program in any manner prohibited above.
 ---------------------------------------------------------------
  

 Cite this work as:
 Gaussian 16, Revision C.01,
 M. J. Frisch, G. W. Trucks, H. B. Schlegel, G. E. Scuseria, 
 M. A. Robb, J. R. Cheeseman, G. Scalmani, V. Barone, 
 G. A. Petersson, H. Nakatsuji, X. Li, M. Caricato, A. V. Marenich, 
 J. Bloino, B. G. Janesko, R. Gomperts, B. Mennucci, H. P. Hratchian, 
 J. V. Ortiz, A. F. Izmaylov, J. L. Sonnenberg, D. Williams-Young, 
 F. Ding, F. Lipparini, F. Egidi, J. Goings, B. Peng, A. Petrone, 
 T. Henderson, D. Ranasinghe, V. G. Zakrzewski, J. Gao, N. Rega, 
 G. Zheng, W. Liang, M. Hada, M. Ehara, K. Toyota, R. Fukuda, 
 J. Hasegawa, M. Ishida, T. Nakajima, Y. Honda, O. Kitao, H. Nakai, 
 T. Vreven, K. Throssell, J. A. Montgomery, Jr., J. E. Peralta, 
 F. Ogliaro, M. J. Bearpark, J. J. Heyd, E. N. Brothers, K. N. Kudin, 
 V. N. Staroverov, T. A. Keith, R. Kobayashi, J. Normand, 
 K. Raghavachari, A. P. Rendell, J. C. Burant, S. S. Iyengar, 
 J. Tomasi, M. Cossi, J. M. Millam, M. Klene, C. Adamo, R. Cammi, 
 J. W. Ochterski, R. L. Martin, K. Morokuma, O. Farkas, 
 J. B. Foresman, and D. J. Fox, Gaussian, Inc., Wallingford CT, 2019.
 
 ******************************************
 Gaussian 16:  EM64L-G16RevC.01  3-Jul-2019
                 2-Sep-2022 
 ******************************************
 %nproc=16
 Will use up to   16 processors via shared memory.
 %mem=16GB
 ----------------------------------------------------------------------
 # qcisd/aug-cc-pvtz nosymm density=current pop=(chelpg,hirshfeld,npa,d
 ipole)
 ----------------------------------------------------------------------
 1/30=1,38=1,172=1/1;
 2/12=2,15=1,17=6,18=5,40=1/2;
 3/5=16,6=1,7=10,11=9,25=1,30=1,71=1/1,2,3;
 4//1;
 5/5=2,38=5/2;
 8/6=4,9=120000,10=1/1,4;
 9/5=8,15=1/13;
 11/28=-7,31=1,32=3,42=3/11;
 10/5=6,13=10,31=1/2;
 6/7=2,8=2,9=2,10=2,15=24,20=3,22=-1,40=-1,79=1/1,2,7;
 99/5=1,9=1/99;
 -----------------
 h2cs-wavefunction
 -----------------
 Symbolic Z-matrix:
 Charge =  0 Multiplicity = 1
 C                     0.        0.       -0.55529 
 S                     0.        0.        1.06037 
 H                     0.       -0.93228  -1.12899 
 H                     0.        0.92228  -1.12899 
 
                          Input orientation:                          
 ---------------------------------------------------------------------
 Center     Atomic      Atomic             Coordinates (Angstroms)
 Number     Number       Type             X           Y           Z
 ---------------------------------------------------------------------
      1          6           0        0.000000    0.000000   -0.555291
      2         16           0        0.000000    0.000000    1.060374
      3          1           0        0.000000   -0.932280   -1.128992
      4          1           0        0.000000    0.922280   -1.128992
 ---------------------------------------------------------------------
                    Distance matrix (angstroms):
                    1          2          3          4
     1  C    0.000000
     2  S    1.615665   0.000000
     3  H    1.094659   2.379594   0.000000
     4  H    1.086155   2.375694   1.854560   0.000000
 Symmetry turned off by external request.
 Stoichiometry    CH2S
 Framework group  CS[SG(CH2S)]
 Deg. of freedom     5
 Full point group                 CS      NOp   2
 Rotational constants (GHZ):         291.5888028          17.6287152          16.6236893
 Standard basis: Aug-CC-pVTZ (5D, 7F)
   142 basis functions,   240 primitive gaussians,   164 cartesian basis functions
    12 alpha electrons       12 beta electrons
       nuclear repulsion energy        44.6738849532 Hartrees.
 NAtoms=    4 NActive=    4 NUniq=    4 SFac= 1.00D+00 NAtFMM=   60 NAOKFM=F Big=F
 Integral buffers will be    131072 words long.
 Raffenetti 1 integral format.
 Two-electron integral symmetry is turned off.
 One-electron integrals computed using PRISM.
 NBasis=   142 RedAO= T EigKep=  9.01D-05  NBF=   142
 NBsUse=   142 1.00D-06 EigRej= -1.00D+00 NBFU=   142
 ExpMin= 2.53D-02 ExpMax= 3.74D+05 ExpMxC= 1.18D+03 IAcc=3 IRadAn=         5 AccDes= 0.00D+00
 Harris functional with IExCor=  205 and IRadAn=       5 diagonalized for initial guess.
 HarFok:  IExCor=  205 AccDes= 0.00D+00 IRadAn=         5 IDoV= 1 UseB2=F ITyADJ=14
 ICtDFT=  3500011 ScaDFX=  1.000000  1.000000  1.000000  1.000000
 FoFCou: FMM=F IPFlag=           0 FMFlag=      100000 FMFlg1=           0
         NFxFlg=           0 DoJE=T BraDBF=F KetDBF=T FulRan=T
         wScrn=  0.000000 ICntrl=       500 IOpCl=  0 I1Cent=   200000004 NGrid=           0
         NMat0=    1 NMatS0=      1 NMatT0=    0 NMatD0=    1 NMtDS0=    0 NMtDT0=    0
 Symmetry not used in FoFCou.
 Keep R1 ints in memory in canonical form, NReq=59473533.
 Requested convergence on RMS density matrix=1.00D-08 within 128 cycles.
 Requested convergence on MAX density matrix=1.00D-06.
 Requested convergence on             energy=1.00D-06.
 No special actions if energy rises.
 SCF Done:  E(RHF) =  -436.557429790     A.U. after   11 cycles
            NFock= 11  Conv=0.10D-07     -V/T= 2.0003
 ExpMin= 2.53D-02 ExpMax= 3.74D+05 ExpMxC= 1.18D+03 IAcc=3 IRadAn=         5 AccDes= 0.00D+00
 HarFok:  IExCor=  205 AccDes= 0.00D+00 IRadAn=         5 IDoV=-2 UseB2=F ITyADJ=14
 ICtDFT= 12500011 ScaDFX=  1.000000  1.000000  1.000000  1.000000
 Range of M.O.s used for correlation:     7   142
 NBasis=   142 NAE=    12 NBE=    12 NFC=     6 NFV=     0
 NROrb=    136 NOA=     6 NOB=     6 NVA=   130 NVB=   130

 **** Warning!!: The largest alpha MO coefficient is  0.44395170D+02

 Semi-Direct transformation.
 ModeAB=           2 MOrb=             6 LenV=    2146811013
 LASXX=      7286295 LTotXX=     7286295 LenRXX=     7286295
 LTotAB=     7445736 MaxLAS=    11040480 LenRXY=    11040480
 NonZer=    14572590 LenScr=    22628352 LnRSAI=           0
 LnScr1=           0 LExtra=           0 Total=     40955127
 MaxDsk=          -1 SrtSym=           F ITran=            4
 JobTyp=0 Pass  1:  I=   1 to   6.
 (rs|ai) integrals will be sorted in core.
 Spin components of T(2) and E(2):
     alpha-alpha T2 =       0.1685965610D-01 E2=     -0.3869159827D-01
     alpha-beta  T2 =       0.1053571216D+00 E2=     -0.2636049558D+00
     beta-beta   T2 =       0.1685965610D-01 E2=     -0.3869159827D-01
 ANorm=    0.1067275238D+01
 E2 =    -0.3409881523D+00 EUMP2 =    -0.43689841794204D+03
 Keep R2 and R3 ints in memory in canonical form, NReq=111025316.
 CIDS: In Core Option IDoMem=           1.
 Iterations=  50 Convergence= 0.100D-07
 Produce multiple copies of IABC intergrals
 Iteration Nr.   1
 **********************
 DD1Dir will call FoFMem   1 times, MxPair=        42
 NAB=    21 NAA=     0 NBB=     0.
 MP4(R+Q)=  0.11672386D-01
 E3=       -0.22783073D-01        EUMP3=      -0.43692120102D+03
 E4(DQ)=    0.16307781D-02        UMP4(DQ)=   -0.43691957024D+03
 E4(SDQ)=  -0.18600504D-02        UMP4(SDQ)=  -0.43692306107D+03
 DE(Corr)= -0.35209884     E(Corr)=     -436.90952863    
 NORM(A)=   0.10739180D+01
 Iteration Nr.   2
 **********************
 DD1Dir will call FoFMem   1 times, MxPair=        42
 NAB=    21 NAA=     0 NBB=     0.
 DE(Corr)= -0.36354687     E(CORR)=     -436.92097666     Delta=-1.14D-02
 NORM(A)=   0.10813021D+01
 Iteration Nr.   3
 **********************
 DD1Dir will call FoFMem   1 times, MxPair=        42
 NAB=    21 NAA=     0 NBB=     0.
 DE(Corr)= -0.36447368     E(CORR)=     -436.92190347     Delta=-9.27D-04
 NORM(A)=   0.10837312D+01
 Iteration Nr.   4
 **********************
 DD1Dir will call FoFMem   1 times, MxPair=        42
 NAB=    21 NAA=     0 NBB=     0.
 DE(Corr)= -0.36580547     E(CORR)=     -436.92323526     Delta=-1.33D-03
 NORM(A)=   0.10847220D+01
 Iteration Nr.   5
 **********************
 DD1Dir will call FoFMem   1 times, MxPair=        42
 NAB=    21 NAA=     0 NBB=     0.
 DE(Corr)= -0.36600335     E(CORR)=     -436.92343314     Delta=-1.98D-04
 NORM(A)=   0.10850842D+01
 Iteration Nr.   6
 **********************
 DD1Dir will call FoFMem   1 times, MxPair=        42
 NAB=    21 NAA=     0 NBB=     0.
 DE(Corr)= -0.36603550     E(CORR)=     -436.92346529     Delta=-3.21D-05
 NORM(A)=   0.10850991D+01
 Iteration Nr.   7
 **********************
 DD1Dir will call FoFMem   1 times, MxPair=        42
 NAB=    21 NAA=     0 NBB=     0.
 DE(Corr)= -0.36603689     E(CORR)=     -436.92346668     Delta=-1.39D-06
 NORM(A)=   0.10851107D+01
 Iteration Nr.   8
 **********************
 DD1Dir will call FoFMem   1 times, MxPair=        42
 NAB=    21 NAA=     0 NBB=     0.
 DE(Corr)= -0.36603392     E(CORR)=     -436.92346371     Delta= 2.97D-06
 NORM(A)=   0.10851098D+01
 Iteration Nr.   9
 **********************
 DD1Dir will call FoFMem   1 times, MxPair=        42
 NAB=    21 NAA=     0 NBB=     0.
 DE(Corr)= -0.36603637     E(CORR)=     -436.92346616     Delta=-2.45D-06
 NORM(A)=   0.10851110D+01
 Iteration Nr.  10
 **********************
 DD1Dir will call FoFMem   1 times, MxPair=        42
 NAB=    21 NAA=     0 NBB=     0.
 DE(Corr)= -0.36603605     E(CORR)=     -436.92346583     Delta= 3.22D-07
 NORM(A)=   0.10851118D+01
 Iteration Nr.  11
 **********************
 DD1Dir will call FoFMem   1 times, MxPair=        42
 NAB=    21 NAA=     0 NBB=     0.
 DE(Corr)= -0.36603657     E(CORR)=     -436.92346636     Delta=-5.27D-07
 NORM(A)=   0.10851124D+01
 Iteration Nr.  12
 **********************
 DD1Dir will call FoFMem   1 times, MxPair=        42
 NAB=    21 NAA=     0 NBB=     0.
 DE(Corr)= -0.36603668     E(CORR)=     -436.92346647     Delta=-1.08D-07
 NORM(A)=   0.10851128D+01
 Iteration Nr.  13
 **********************
 DD1Dir will call FoFMem   1 times, MxPair=        42
 NAB=    21 NAA=     0 NBB=     0.
 DE(Corr)= -0.36603677     E(CORR)=     -436.92346656     Delta=-9.07D-08
 NORM(A)=   0.10851129D+01
 Iteration Nr.  14
 **********************
 DD1Dir will call FoFMem   1 times, MxPair=        42
 NAB=    21 NAA=     0 NBB=     0.
 DE(Corr)= -0.36603680     E(CORR)=     -436.92346659     Delta=-2.93D-08
 NORM(A)=   0.10851130D+01
 Iteration Nr.  15
 **********************
 DD1Dir will call FoFMem   1 times, MxPair=        42
 NAB=    21 NAA=     0 NBB=     0.
 DE(Corr)= -0.36603681     E(CORR)=     -436.92346660     Delta=-9.14D-09
 NORM(A)=   0.10851130D+01
 Wavefunction amplitudes converged. E(Corr)=     -436.92346660    
 Dominant configurations:
 ***********************
 Spin Case        I    J    A    B          Value
   ABAB          11   11   14   14      -0.114411D+00
 Largest amplitude= 1.14D-01

 Z-amplitude iterations

 Iteration Nr.   1
 **********************
 DD1Dir will call FoFMem   1 times, MxPair=        42
 NAB=    21 NAA=     0 NBB=     0.
 DE(Z)= -0.35000464     E(Z)=     -436.90743443     Delta= 1.60D-02
 NORM(A)=   0.10851046D+01
 Iteration Nr.   2
 **********************
 DD1Dir will call FoFMem   1 times, MxPair=        42
 NAB=    21 NAA=     0 NBB=     0.
 DE(Z)= -0.35000426     E(Z)=     -436.90743405     Delta= 3.80D-07
 NORM(A)=   0.10851055D+01
 Iteration Nr.   3
 **********************
 DD1Dir will call FoFMem   1 times, MxPair=        42
 NAB=    21 NAA=     0 NBB=     0.
 DE(Z)= -0.35000429     E(Z)=     -436.90743408     Delta=-3.24D-08
 NORM(A)=   0.10850920D+01
 Iteration Nr.   4
 **********************
 DD1Dir will call FoFMem   1 times, MxPair=        42
 NAB=    21 NAA=     0 NBB=     0.
 DE(Z)= -0.35000366     E(Z)=     -436.90743345     Delta= 6.28D-07
 NORM(A)=   0.10850752D+01
 Iteration Nr.   5
 **********************
 DD1Dir will call FoFMem   1 times, MxPair=        42
 NAB=    21 NAA=     0 NBB=     0.
 DE(Z)= -0.35000285     E(Z)=     -436.90743264     Delta= 8.13D-07
 NORM(A)=   0.10768883D+01
 Iteration Nr.   6
 **********************
 DD1Dir will call FoFMem   1 times, MxPair=        42
 NAB=    21 NAA=     0 NBB=     0.
 DE(Z)= -0.34960439     E(Z)=     -436.90703418     Delta= 3.98D-04
 NORM(A)=   0.10768857D+01
 Iteration Nr.   7
 **********************
 DD1Dir will call FoFMem   1 times, MxPair=        42
 NAB=    21 NAA=     0 NBB=     0.
 DE(Z)= -0.34960356     E(Z)=     -436.90703335     Delta= 8.36D-07
 NORM(A)=   0.10768836D+01
 Iteration Nr.   8
 **********************
 DD1Dir will call FoFMem   1 times, MxPair=        42
 NAB=    21 NAA=     0 NBB=     0.
 DE(Z)= -0.34960357     E(Z)=     -436.90703336     Delta=-8.52D-09
 NORM(A)=   0.10768826D+01
 Iteration Nr.   9
 **********************
 DD1Dir will call FoFMem   1 times, MxPair=        42
 NAB=    21 NAA=     0 NBB=     0.
 DE(Z)= -0.34960329     E(Z)=     -436.90703308     Delta= 2.72D-07
 NORM(A)=   0.10768825D+01
 Iteration Nr.  10
 **********************
 DD1Dir will call FoFMem   1 times, MxPair=        42
 NAB=    21 NAA=     0 NBB=     0.
 DE(Z)= -0.34960329     E(Z)=     -436.90703308     Delta= 7.60D-09
 NORM(A)=   0.10768825D+01
 Z-amplitudes converged.
 Discarding MO integrals.
          Differentiating once with respect to electric field.
                with respect to dipole field.
          Electric field/nuclear overlap derivatives assumed to be zero.
 Keep R1 ints in memory in canonical form, NReq=59475126.
          There are     1 degrees of freedom in the 1st order CPHF.  IDoFFX=0 NUNeed=     1.
 LinEq1:  Iter=  0 NonCon=     1 RMS=2.95D-03 Max=4.36D-02 NDo=     1
 AX will form     1 AO Fock derivatives at one time.
 LinEq1:  Iter=  1 NonCon=     1 RMS=9.89D-04 Max=1.22D-02 NDo=     1
 LinEq1:  Iter=  2 NonCon=     1 RMS=4.77D-04 Max=1.33D-02 NDo=     1
 LinEq1:  Iter=  3 NonCon=     1 RMS=1.60D-04 Max=2.47D-03 NDo=     1
 LinEq1:  Iter=  4 NonCon=     1 RMS=4.01D-05 Max=5.29D-04 NDo=     1
 LinEq1:  Iter=  5 NonCon=     1 RMS=8.78D-06 Max=9.99D-05 NDo=     1
 LinEq1:  Iter=  6 NonCon=     1 RMS=1.56D-06 Max=2.22D-05 NDo=     1
 LinEq1:  Iter=  7 NonCon=     1 RMS=2.02D-07 Max=2.71D-06 NDo=     1
 LinEq1:  Iter=  8 NonCon=     1 RMS=2.33D-08 Max=2.28D-07 NDo=     1
 LinEq1:  Iter=  9 NonCon=     1 RMS=3.72D-09 Max=3.77D-08 NDo=     1
 LinEq1:  Iter= 10 NonCon=     1 RMS=5.24D-10 Max=5.89D-09 NDo=     1
 LinEq1:  Iter= 11 NonCon=     0 RMS=6.66D-11 Max=6.54D-10 NDo=     1
 Linear equations converged to 1.000D-10 1.000D-09 after    11 iterations.
 End of Minotr F.D. properties file   721 does not exist.
 End of Minotr F.D. properties file   722 does not exist.
 End of Minotr F.D. properties file   788 does not exist.

 **********************************************************************

            Population analysis using the CC Density.

 **********************************************************************

 Alpha  occ. eigenvalues --  -91.95644 -11.32212  -8.95853  -6.63914  -6.63888
 Alpha  occ. eigenvalues --   -6.63690  -1.06389  -0.81328  -0.64398  -0.54099
 Alpha  occ. eigenvalues --   -0.41773  -0.35251
 Alpha virt. eigenvalues --    0.02843   0.03501   0.04267   0.06129   0.09233
 Alpha virt. eigenvalues --    0.10417   0.11645   0.13134   0.13508   0.14771
 Alpha virt. eigenvalues --    0.19798   0.21662   0.23052   0.24328   0.27054
 Alpha virt. eigenvalues --    0.29049   0.30922   0.31733   0.32519   0.34352
 Alpha virt. eigenvalues --    0.37564   0.38339   0.38585   0.40182   0.41295
 Alpha virt. eigenvalues --    0.43117   0.44694   0.45159   0.47141   0.48652
 Alpha virt. eigenvalues --    0.56357   0.62037   0.65225   0.66032   0.67765
 Alpha virt. eigenvalues --    0.74947   0.75410   0.76850   0.78826   0.80637
 Alpha virt. eigenvalues --    0.83286   0.84755   0.85198   0.87251   0.87787
 Alpha virt. eigenvalues --    0.89490   0.89828   0.96043   0.97076   0.97204
 Alpha virt. eigenvalues --    0.99397   0.99977   1.02001   1.08588   1.10701
 Alpha virt. eigenvalues --    1.10736   1.12602   1.13332   1.13974   1.16564
 Alpha virt. eigenvalues --    1.24478   1.30164   1.34033   1.42598   1.49702
 Alpha virt. eigenvalues --    1.52803   1.54943   1.58220   1.58473   1.58776
 Alpha virt. eigenvalues --    1.61670   1.65129   1.80108   1.87780   1.88975
 Alpha virt. eigenvalues --    2.01885   2.02594   2.02782   2.05463   2.08964
 Alpha virt. eigenvalues --    2.09791   2.13268   2.17225   2.34521   2.35640
 Alpha virt. eigenvalues --    2.39352   2.40309   2.42324   2.47474   2.50446
 Alpha virt. eigenvalues --    2.57144   2.69088   2.71494   2.89315   3.00743
 Alpha virt. eigenvalues --    3.04126   3.11962   3.19086   3.23580   3.46418
 Alpha virt. eigenvalues --    3.57822   3.59573   3.64566   3.67205   3.69072
 Alpha virt. eigenvalues --    3.79848   3.83390   3.85302   3.89979   3.92511
 Alpha virt. eigenvalues --    4.05360   4.09776   4.24765   4.40410   4.41036
 Alpha virt. eigenvalues --    4.44228   4.68271   4.73029   4.74044   5.06438
 Alpha virt. eigenvalues --    5.11889   5.22934   5.23852   5.28499   5.50183
 Alpha virt. eigenvalues --    5.83453   5.93263   6.47887   6.59721  15.13467
          Condensed to atoms (all electrons):
               1          2          3          4
     1  C    6.176999   0.273471   0.186632   0.182451
     2  S    0.273471  16.026763  -0.117533  -0.118362
     3  H    0.186632  -0.117533   0.652284  -0.158008
     4  H    0.182451  -0.118362  -0.158008   0.646652
 Mulliken charges:
               1
     1  C   -0.819553
     2  S   -0.064339
     3  H    0.436625
     4  H    0.447267
 Sum of Mulliken charges =  -0.00000
 Mulliken charges with hydrogens summed into heavy atoms:
               1
     1  C    0.064339
     2  S   -0.064339
 Electronic spatial extent (au):  <R**2>=            130.3643
 Charge=             -0.0000 electrons
 Dipole moment (field-independent basis, Debye):
    X=             -0.0000    Y=              0.0001    Z=             -1.7486  Tot=              1.7486
 Quadrupole moment (field-independent basis, Debye-Ang):
   XX=            -19.9880   YY=            -20.5640   ZZ=            -18.9903
   XY=              0.0000   XZ=              0.0000   YZ=             -0.0062
 Traceless Quadrupole moment (field-independent basis, Debye-Ang):
   XX=             -0.1405   YY=             -0.7165   ZZ=              0.8571
   XY=              0.0000   XZ=              0.0000   YZ=             -0.0062
 Octapole moment (field-independent basis, Debye-Ang**2):
  XXX=             -0.0000  YYY=              0.0158  ZZZ=            -27.6381  XYY=             -0.0000
  XXY=              0.0155  XXZ=             -8.5523  XZZ=             -0.0000  YZZ=              0.0178
  YYZ=            -13.1433  XYZ=             -0.0000
 Hexadecapole moment (field-independent basis, Debye-Ang**3):
 XXXX=            -25.3327 YYYY=            -35.1779 ZZZZ=           -127.4733 XXXY=              0.0000
 XXXZ=              0.0000 YYYX=              0.0000 YYYZ=             -0.0367 ZZZX=             -0.0000
 ZZZY=             -0.0711 XXYY=            -10.5241 XXZZ=            -25.3518 YYZZ=            -29.5630
 XXYZ=             -0.0226 YYXZ=             -0.0000 ZZXY=             -0.0000
 N-N= 4.467388495322D+01 E-N=-1.127296367101D+03  KE= 4.368559787163D+02
 There are a total of       91844 grid points.
 ElSum from          density=       24.0000001358
 ElSum from atomic densities=       24.0000001593

 Hirshfeld populations at iteration   1 (CX, CA, CB, DipXYZ):
               1          2          3          4          5          6
     1  C    0.000000   3.004488   3.004488   0.000000   0.001368  -0.149539
     2  S    0.000013   8.044726   8.044726   0.000000  -0.000543   0.036153
     3  H    0.000004   0.475396   0.475396   0.000000  -0.130561  -0.096684
     4  H    0.000004   0.475390   0.475390  -0.000000   0.130669  -0.098067
       Tot   0.000022  12.000000  12.000000   0.000000   0.000932  -0.308137

 Dip from Atomic Chgs              0.000000  -0.000912  -0.379821
         Total Dipole              0.000000   0.000021  -0.687958

 Hirshfeld charges, spin densities, dipoles, and CM5 charges using IRadAn=      5:
              Q-H        S-H        Dx         Dy         Dz        Q-CM5   
     1  C   -0.008977   0.000000   0.000000   0.001368  -0.149539  -0.086122
     2  S   -0.089452   0.000000   0.000000  -0.000543   0.036153  -0.117786
     3  H    0.049209   0.000000   0.000000  -0.130561  -0.096684   0.101422
     4  H    0.049219   0.000000  -0.000000   0.130669  -0.098067   0.102485
       Tot  -0.000000   0.000000   0.000000   0.000932  -0.308137  -0.000000
 Hirshfeld charges with hydrogens summed into heavy atoms:
              Q-H       Q-CM5   
     1  C    0.089452   0.117785
     2  S   -0.089452  -0.117786
 
 EQQ= 0.000000000000E+00 EQD= 0.000000000000E+00 EDD= 0.288607949802E-02
 EQQ+QD+DD= 0.288607949802E-02
 
 Breneman (CHELPG) radii used.
 Generate Potential Derived Charges using the Breneman model, NDens= 1.
 Grid spacing= 0.300 Box extension= 2.800
 NStep X,Y,Z=   20     26     27   Total possible points=       14040
 Number of Points to Fit=    4714

 **********************************************************************

            Electrostatic Properties Using The CC Density.

 **********************************************************************

       Atomic Center    1 is at   0.000000  0.000000 -0.555291
       Atomic Center    2 is at   0.000000  0.000000  1.060374
       Atomic Center    3 is at   0.000000 -0.932280 -1.128992
       Atomic Center    4 is at   0.000000  0.922280 -1.128992
    4714 points will be used for fitting atomic charges
 Fitting point charges to electrostatic potential
 The dipole moment will be constrained to the correct value
 Charges from ESP fit, RMS=   0.00536 RRMS=   0.40411:
 ESP charges:
               1
     1  C   -0.021031
     2  S   -0.160770
     3  H    0.090405
     4  H    0.091397
 Sum of ESP charges =  -0.00000
 ESP charges with hydrogens summed into heavy atoms:
               1
     1  C    0.160770
     2  S   -0.160770
 Charge=  -0.00000 Dipole=     0.0000     0.0001    -1.7486 Tot=     1.7486
 -----------------------------------------------------------------

              Electrostatic Properties (Atomic Units)

 -----------------------------------------------------------------
    Center     Electric         -------- Electric Field --------
               Potential          X             Y             Z
 -----------------------------------------------------------------
    1 Atom    -14.688395
    2 Atom    -59.229754
    3 Atom     -1.070764
    4 Atom     -1.071364
 -----------------------------------------------------------------
 ******************************Gaussian NBO Version 3.1******************************
             N A T U R A L   A T O M I C   O R B I T A L   A N D
          N A T U R A L   B O N D   O R B I T A L   A N A L Y S I S
 ******************************Gaussian NBO Version 3.1******************************
       /RESON  / : Allow strongly delocalized NBO set

 Analyzing the QCI/CC density

 Job title: h2cs-wavefunction                                               

 Storage needed:     61222 in NPA (2147483536 available)
 GSVD:  LWork=        -636 too small for GESVD, short by       41336 words or       41336 for optimal perf.


 NATURAL POPULATIONS:  Natural atomic orbital occupancies 
                                                          
   NAO  Atom  No  lang   Type(AO)    Occupancy
 --------------------------------------------
     1    C    1  S      Cor( 1S)     1.99940
     2    C    1  S      Val( 2S)     1.18372
     3    C    1  S      Ryd( 3S)     0.00812
     4    C    1  S      Ryd( 4S)     0.00050
     5    C    1  S      Ryd( 5S)     0.00007
     6    C    1  px     Val( 2p)     0.88313
     7    C    1  px     Ryd( 3p)     0.00618
     8    C    1  px     Ryd( 5p)     0.00023
     9    C    1  px     Ryd( 4p)     0.00028
    10    C    1  py     Val( 2p)     1.17611
    11    C    1  py     Ryd( 3p)     0.00607
    12    C    1  py     Ryd( 4p)     0.00045
    13    C    1  py     Ryd( 5p)     0.00031
    14    C    1  pz     Val( 2p)     1.09972
    15    C    1  pz     Ryd( 3p)     0.00722
    16    C    1  pz     Ryd( 4p)     0.00028
    17    C    1  pz     Ryd( 5p)     0.00008
    18    C    1  dxy    Ryd( 3d)     0.00627
    19    C    1  dxy    Ryd( 4d)     0.00025
    20    C    1  dxy    Ryd( 5d)     0.00012
    21    C    1  dxz    Ryd( 3d)     0.00972
    22    C    1  dxz    Ryd( 4d)     0.00026
    23    C    1  dxz    Ryd( 5d)     0.00011
    24    C    1  dyz    Ryd( 3d)     0.01132
    25    C    1  dyz    Ryd( 4d)     0.00028
    26    C    1  dyz    Ryd( 5d)     0.00024
    27    C    1  dx2y2  Ryd( 3d)     0.00767
    28    C    1  dx2y2  Ryd( 4d)     0.00030
    29    C    1  dx2y2  Ryd( 5d)     0.00011
    30    C    1  dz2    Ryd( 3d)     0.01236
    31    C    1  dz2    Ryd( 4d)     0.00030
    32    C    1  dz2    Ryd( 5d)     0.00013
    33    C    1  f(0)   Ryd( 4f)     0.00061
    34    C    1  f(0)   Ryd( 5f)     0.00008
    35    C    1  f(C1)  Ryd( 4f)     0.00056
    36    C    1  f(C1)  Ryd( 5f)     0.00012
    37    C    1  f(S1)  Ryd( 4f)     0.00065
    38    C    1  f(S1)  Ryd( 5f)     0.00012
    39    C    1  f(C2)  Ryd( 4f)     0.00084
    40    C    1  f(C2)  Ryd( 5f)     0.00011
    41    C    1  f(S2)  Ryd( 4f)     0.00066
    42    C    1  f(S2)  Ryd( 5f)     0.00014
    43    C    1  f(C3)  Ryd( 4f)     0.00049
    44    C    1  f(C3)  Ryd( 5f)     0.00013
    45    C    1  f(S3)  Ryd( 4f)     0.00069
    46    C    1  f(S3)  Ryd( 5f)     0.00012

    47    S    2  S      Cor( 1S)     2.00000
    48    S    2  S      Cor( 2S)     1.99899
    49    S    2  S      Val( 3S)     1.72813
    50    S    2  S      Ryd( 4S)     0.01583
    51    S    2  S      Ryd( 5S)     0.00041
    52    S    2  S      Ryd( 6S)     0.00011
    53    S    2  px     Cor( 2p)     1.99986
    54    S    2  px     Val( 3p)     1.08399
    55    S    2  px     Ryd( 4p)     0.00430
    56    S    2  px     Ryd( 5p)     0.00031
    57    S    2  px     Ryd( 6p)     0.00002
    58    S    2  py     Cor( 2p)     2.00000
    59    S    2  py     Val( 3p)     1.87170
    60    S    2  py     Ryd( 4p)     0.01450
    61    S    2  py     Ryd( 5p)     0.00055
    62    S    2  py     Ryd( 6p)     0.00005
    63    S    2  pz     Cor( 2p)     1.99973
    64    S    2  pz     Val( 3p)     1.07877
    65    S    2  pz     Ryd( 4p)     0.00646
    66    S    2  pz     Ryd( 5p)     0.00041
    67    S    2  pz     Ryd( 6p)     0.00004
    68    S    2  dxy    Ryd( 3d)     0.01720
    69    S    2  dxy    Ryd( 4d)     0.00057
    70    S    2  dxy    Ryd( 5d)     0.00006
    71    S    2  dxz    Ryd( 3d)     0.01853
    72    S    2  dxz    Ryd( 4d)     0.00033
    73    S    2  dxz    Ryd( 5d)     0.00007
    74    S    2  dyz    Ryd( 3d)     0.01396
    75    S    2  dyz    Ryd( 4d)     0.00049
    76    S    2  dyz    Ryd( 5d)     0.00027
    77    S    2  dx2y2  Ryd( 3d)     0.01635
    78    S    2  dx2y2  Ryd( 4d)     0.00060
    79    S    2  dx2y2  Ryd( 5d)     0.00006
    80    S    2  dz2    Ryd( 3d)     0.02345
    81    S    2  dz2    Ryd( 4d)     0.00031
    82    S    2  dz2    Ryd( 5d)     0.00015
    83    S    2  f(0)   Ryd( 4f)     0.00133
    84    S    2  f(0)   Ryd( 5f)     0.00018
    85    S    2  f(C1)  Ryd( 4f)     0.00100
    86    S    2  f(C1)  Ryd( 5f)     0.00013
    87    S    2  f(S1)  Ryd( 4f)     0.00123
    88    S    2  f(S1)  Ryd( 5f)     0.00017
    89    S    2  f(C2)  Ryd( 4f)     0.00125
    90    S    2  f(C2)  Ryd( 5f)     0.00013
    91    S    2  f(S2)  Ryd( 4f)     0.00132
    92    S    2  f(S2)  Ryd( 5f)     0.00011
    93    S    2  f(C3)  Ryd( 4f)     0.00151
    94    S    2  f(C3)  Ryd( 5f)     0.00011
    95    S    2  f(S3)  Ryd( 4f)     0.00151
    96    S    2  f(S3)  Ryd( 5f)     0.00012

    97    H    3  S      Val( 1S)     0.82172
    98    H    3  S      Ryd( 2S)     0.00300
    99    H    3  S      Ryd( 3S)     0.00016
   100    H    3  S      Ryd( 4S)     0.00006
   101    H    3  px     Ryd( 2p)     0.00093
   102    H    3  px     Ryd( 3p)     0.00051
   103    H    3  px     Ryd( 4p)     0.00007
   104    H    3  py     Ryd( 2p)     0.00149
   105    H    3  py     Ryd( 3p)     0.00037
   106    H    3  py     Ryd( 4p)     0.00022
   107    H    3  pz     Ryd( 2p)     0.00283
   108    H    3  pz     Ryd( 3p)     0.00048
   109    H    3  pz     Ryd( 4p)     0.00016
   110    H    3  dxy    Ryd( 4d)     0.00006
   111    H    3  dxy    Ryd( 3d)     0.00007
   112    H    3  dxz    Ryd( 3d)     0.00010
   113    H    3  dxz    Ryd( 4d)     0.00005
   114    H    3  dyz    Ryd( 4d)     0.00009
   115    H    3  dyz    Ryd( 3d)     0.00009
   116    H    3  dx2y2  Ryd( 3d)     0.00011
   117    H    3  dx2y2  Ryd( 4d)     0.00009
   118    H    3  dz2    Ryd( 3d)     0.00009
   119    H    3  dz2    Ryd( 4d)     0.00006

   120    H    4  S      Val( 1S)     0.82280
   121    H    4  S      Ryd( 2S)     0.00305
   122    H    4  S      Ryd( 3S)     0.00016
   123    H    4  S      Ryd( 4S)     0.00006
   124    H    4  px     Ryd( 2p)     0.00093
   125    H    4  px     Ryd( 3p)     0.00051
   126    H    4  px     Ryd( 4p)     0.00007
   127    H    4  py     Ryd( 2p)     0.00149
   128    H    4  py     Ryd( 3p)     0.00038
   129    H    4  py     Ryd( 4p)     0.00023
   130    H    4  pz     Ryd( 2p)     0.00282
   131    H    4  pz     Ryd( 3p)     0.00047
   132    H    4  pz     Ryd( 4p)     0.00017
   133    H    4  dxy    Ryd( 4d)     0.00007
   134    H    4  dxy    Ryd( 3d)     0.00007
   135    H    4  dxz    Ryd( 3d)     0.00010
   136    H    4  dxz    Ryd( 4d)     0.00005
   137    H    4  dyz    Ryd( 4d)     0.00008
   138    H    4  dyz    Ryd( 3d)     0.00010
   139    H    4  dx2y2  Ryd( 3d)     0.00011
   140    H    4  dx2y2  Ryd( 4d)     0.00009
   141    H    4  dz2    Ryd( 3d)     0.00009
   142    H    4  dz2    Ryd( 4d)     0.00006

 WARNING:  1 low occupancy (<1.9990e) core orbital  found on  S    2


 Summary of Natural Population Analysis:                  
                                                          
                                       Natural Population 
                Natural  -----------------------------------------------
    Atom  No    Charge         Core      Valence    Rydberg      Total
 -----------------------------------------------------------------------
      C    1   -0.42661      1.99940     4.34267    0.08454     6.42661
      S    2    0.09334      9.99858     5.76259    0.14549    15.90666
      H    3    0.16719      0.00000     0.82172    0.01109     0.83281
      H    4    0.16607      0.00000     0.82280    0.01113     0.83393
 =======================================================================
   * Total *    0.00000     11.99798    11.74978    0.25224    24.00000

                                 Natural Population      
 --------------------------------------------------------
   Core                      11.99798 ( 99.9832% of  12)
   Valence                   11.74978 ( 97.9148% of  12)
   Natural Minimal Basis     23.74776 ( 98.9490% of  24)
   Natural Rydberg Basis      0.25224 (  1.0510% of  24)
 --------------------------------------------------------

    Atom  No          Natural Electron Configuration
 ----------------------------------------------------------------------------
      C    1      [core]2S( 1.18)2p( 3.16)3S( 0.01)3p( 0.02)3d( 0.05)
      S    2      [core]3S( 1.73)3p( 4.03)4S( 0.02)3d( 0.09)4p( 0.03)4f( 0.01)
      H    3            1S( 0.82)2p( 0.01)
      H    4            1S( 0.82)2p( 0.01)


 NBO analysis skipped by request.
 Unable to Open any file for archive entry.
 1\1\GINC-TRAPISTA\SP\RQCISD-FC\Aug-CC-pVTZ\C1H2S1\WAGNER\02-Sep-2022\0
 \\# qcisd/aug-cc-pvtz nosymm density=current pop=(chelpg,hirshfeld,npa
 ,dipole)\\h2cs-wavefunction\\0,1\C,0,0.,0.,-0.555291\S,0,0.,0.,1.06037
 4\H,0,0.,-0.93228,-1.128992\H,0,0.,0.92228,-1.128992\\Version=EM64L-G1
 6RevC.01\HF=-436.5574298\MP2=-436.8984179\MP3=-436.921201\MP4D=-436.93
 12426\MP4DQ=-436.9195702\MP4SDQ=-436.9230611\QCISD=-436.9234666\RMSD=9
 .987e-09\Dipole=0.,0.0000209,-0.6879567\Quadrupole=-0.1044892,-0.53273
 35,0.6372227,0.,0.,-0.0046057\PG=CS [SG(C1H2S1)]\\@
 The archive entry for this job was punched.


 ... A MOLECULAR SYSTEM ... (PASSES) ... FROM ONE STATE OF EQUILIBRIUM 
 TO ANOTHER ... BY MEANS OF ALL POSSIBLE INTERMEDIATE PATHS, 
 BUT THE PATH MOST ECONOMICAL OF ENERGY WILL BE THE MORE OFTEN TRAVELED.

                      -- HENRY EYRING, 1945
 Job cpu time:       0 days  1 hours 32 minutes 25.0 seconds.
 Elapsed time:       0 days  0 hours  5 minutes 50.7 seconds.
 File lengths (MBytes):  RWF=   7177 Int=      0 D2E=      0 Chk=      3 Scr=      1
 Normal termination of Gaussian 16 at Fri Sep  2 21:54:42 2022.
