 Entering Gaussian System, Link 0=/home/wagner/chemistry/gaussian/g16/g16
 Input=GAUSSIAN.com
 Output=GAUSSIAN.log
 Initial command:
 /home/wagner/chemistry/gaussian/g16/l1.exe "/home/wagner/chemistry/gaussian/work/Gau-73758.inp" -scrdir="/home/wagner/chemistry/gaussian/work/"
 Entering Link 1 = /home/wagner/chemistry/gaussian/g16/l1.exe PID=     73761.
  
 Copyright (c) 1988-2019, Gaussian, Inc.  All Rights Reserved.
  
 This is part of the Gaussian(R) 16 program.  It is based on
 the Gaussian(R) 09 system (copyright 2009, Gaussian, Inc.),
 the Gaussian(R) 03 system (copyright 2003, Gaussian, Inc.),
 the Gaussian(R) 98 system (copyright 1998, Gaussian, Inc.),
 the Gaussian(R) 94 system (copyright 1995, Gaussian, Inc.),
 the Gaussian 92(TM) system (copyright 1992, Gaussian, Inc.),
 the Gaussian 90(TM) system (copyright 1990, Gaussian, Inc.),
 the Gaussian 88(TM) system (copyright 1988, Gaussian, Inc.),
 the Gaussian 86(TM) system (copyright 1986, Carnegie Mellon
 University), and the Gaussian 82(TM) system (copyright 1983,
 Carnegie Mellon University). Gaussian is a federally registered
 trademark of Gaussian, Inc.
  
 This software contains proprietary and confidential information,
 including trade secrets, belonging to Gaussian, Inc.
  
 This software is provided under written license and may be
 used, copied, transmitted, or stored only in accord with that
 written license.
  
 The following legend is applicable only to US Government
 contracts under FAR:
  
                    RESTRICTED RIGHTS LEGEND
  
 Use, reproduction and disclosure by the US Government is
 subject to restrictions as set forth in subparagraphs (a)
 and (c) of the Commercial Computer Software - Restricted
 Rights clause in FAR 52.227-19.
  
 Gaussian, Inc.
 340 Quinnipiac St., Bldg. 40, Wallingford CT 06492
  
  
 ---------------------------------------------------------------
 Warning -- This program may not be used in any manner that
 competes with the business of Gaussian, Inc. or will provide
 assistance to any competitor of Gaussian, Inc.  The licensee
 of this program is prohibited from giving any competitor of
 Gaussian, Inc. access to this program.  By using this program,
 the user acknowledges that Gaussian, Inc. is engaged in the
 business of creating and licensing software in the field of
 computational chemistry and represents and warrants to the
 licensee that it is not a competitor of Gaussian, Inc. and that
 it will not use this program in any manner prohibited above.
 ---------------------------------------------------------------
  

 Cite this work as:
 Gaussian 16, Revision C.01,
 M. J. Frisch, G. W. Trucks, H. B. Schlegel, G. E. Scuseria, 
 M. A. Robb, J. R. Cheeseman, G. Scalmani, V. Barone, 
 G. A. Petersson, H. Nakatsuji, X. Li, M. Caricato, A. V. Marenich, 
 J. Bloino, B. G. Janesko, R. Gomperts, B. Mennucci, H. P. Hratchian, 
 J. V. Ortiz, A. F. Izmaylov, J. L. Sonnenberg, D. Williams-Young, 
 F. Ding, F. Lipparini, F. Egidi, J. Goings, B. Peng, A. Petrone, 
 T. Henderson, D. Ranasinghe, V. G. Zakrzewski, J. Gao, N. Rega, 
 G. Zheng, W. Liang, M. Hada, M. Ehara, K. Toyota, R. Fukuda, 
 J. Hasegawa, M. Ishida, T. Nakajima, Y. Honda, O. Kitao, H. Nakai, 
 T. Vreven, K. Throssell, J. A. Montgomery, Jr., J. E. Peralta, 
 F. Ogliaro, M. J. Bearpark, J. J. Heyd, E. N. Brothers, K. N. Kudin, 
 V. N. Staroverov, T. A. Keith, R. Kobayashi, J. Normand, 
 K. Raghavachari, A. P. Rendell, J. C. Burant, S. S. Iyengar, 
 J. Tomasi, M. Cossi, J. M. Millam, M. Klene, C. Adamo, R. Cammi, 
 J. W. Ochterski, R. L. Martin, K. Morokuma, O. Farkas, 
 J. B. Foresman, and D. J. Fox, Gaussian, Inc., Wallingford CT, 2019.
 
 ******************************************
 Gaussian 16:  EM64L-G16RevC.01  3-Jul-2019
                 2-Sep-2022 
 ******************************************
 %nproc=16
 Will use up to   16 processors via shared memory.
 %mem=16GB
 ----------------------------------------------------------------------
 # qcisd/aug-cc-pvtz nosymm density=current pop=(chelpg,hirshfeld,npa,d
 ipole)
 ----------------------------------------------------------------------
 1/30=1,38=1,172=1/1;
 2/12=2,15=1,17=6,18=5,40=1/2;
 3/5=16,6=1,7=10,11=9,25=1,30=1,71=1/1,2,3;
 4//1;
 5/5=2,38=5/2;
 8/6=4,9=120000,10=1/1,4;
 9/5=8,15=1/13;
 11/28=-7,31=1,32=3,42=3/11;
 10/5=6,13=10,31=1/2;
 6/7=2,8=2,9=2,10=2,15=24,20=3,22=-1,40=-1,79=1/1,2,7;
 99/5=1,9=1/99;
 -----------------
 h2cs-wavefunction
 -----------------
 Symbolic Z-matrix:
 Charge =  0 Multiplicity = 1
 C                     0.        0.       -0.55529 
 S                     0.        0.        1.07037 
 H                     0.       -0.92228  -1.12899 
 H                     0.        0.92228  -1.12899 
 
                          Input orientation:                          
 ---------------------------------------------------------------------
 Center     Atomic      Atomic             Coordinates (Angstroms)
 Number     Number       Type             X           Y           Z
 ---------------------------------------------------------------------
      1          6           0        0.000000    0.000000   -0.555291
      2         16           0        0.000000    0.000000    1.070374
      3          1           0        0.000000   -0.922280   -1.128992
      4          1           0        0.000000    0.922280   -1.128992
 ---------------------------------------------------------------------
                    Distance matrix (angstroms):
                    1          2          3          4
     1  C    0.000000
     2  S    1.625665   0.000000
     3  H    1.086155   2.384913   0.000000
     4  H    1.086155   2.384913   1.844560   0.000000
 Symmetry turned off by external request.
 Stoichiometry    CH2S
 Framework group  C2V[C2(CS),SGV(H2)]
 Deg. of freedom     3
 Full point group                 C2V     NOp   4
 Rotational constants (GHZ):         294.7653830          17.4269522          16.4541587
 Standard basis: Aug-CC-pVTZ (5D, 7F)
   142 basis functions,   240 primitive gaussians,   164 cartesian basis functions
    12 alpha electrons       12 beta electrons
       nuclear repulsion energy        44.4830145697 Hartrees.
 NAtoms=    4 NActive=    4 NUniq=    4 SFac= 1.00D+00 NAtFMM=   60 NAOKFM=F Big=F
 Integral buffers will be    131072 words long.
 Raffenetti 1 integral format.
 Two-electron integral symmetry is turned off.
 One-electron integrals computed using PRISM.
 NBasis=   142 RedAO= T EigKep=  9.00D-05  NBF=   142
 NBsUse=   142 1.00D-06 EigRej= -1.00D+00 NBFU=   142
 ExpMin= 2.53D-02 ExpMax= 3.74D+05 ExpMxC= 1.18D+03 IAcc=3 IRadAn=         5 AccDes= 0.00D+00
 Harris functional with IExCor=  205 and IRadAn=       5 diagonalized for initial guess.
 HarFok:  IExCor=  205 AccDes= 0.00D+00 IRadAn=         5 IDoV= 1 UseB2=F ITyADJ=14
 ICtDFT=  3500011 ScaDFX=  1.000000  1.000000  1.000000  1.000000
 FoFCou: FMM=F IPFlag=           0 FMFlag=      100000 FMFlg1=           0
         NFxFlg=           0 DoJE=T BraDBF=F KetDBF=T FulRan=T
         wScrn=  0.000000 ICntrl=       500 IOpCl=  0 I1Cent=   200000004 NGrid=           0
         NMat0=    1 NMatS0=      1 NMatT0=    0 NMatD0=    1 NMtDS0=    0 NMtDT0=    0
 Symmetry not used in FoFCou.
 Keep R1 ints in memory in canonical form, NReq=59473533.
 Requested convergence on RMS density matrix=1.00D-08 within 128 cycles.
 Requested convergence on MAX density matrix=1.00D-06.
 Requested convergence on             energy=1.00D-06.
 No special actions if energy rises.
 SCF Done:  E(RHF) =  -436.557127693     A.U. after   12 cycles
            NFock= 12  Conv=0.30D-08     -V/T= 2.0003
 ExpMin= 2.53D-02 ExpMax= 3.74D+05 ExpMxC= 1.18D+03 IAcc=3 IRadAn=         5 AccDes= 0.00D+00
 HarFok:  IExCor=  205 AccDes= 0.00D+00 IRadAn=         5 IDoV=-2 UseB2=F ITyADJ=14
 ICtDFT= 12500011 ScaDFX=  1.000000  1.000000  1.000000  1.000000
 Range of M.O.s used for correlation:     7   142
 NBasis=   142 NAE=    12 NBE=    12 NFC=     6 NFV=     0
 NROrb=    136 NOA=     6 NOB=     6 NVA=   130 NVB=   130

 **** Warning!!: The largest alpha MO coefficient is  0.44570626D+02

 Semi-Direct transformation.
 ModeAB=           2 MOrb=             6 LenV=    2146811083
 LASXX=      7286295 LTotXX=     7286295 LenRXX=     7286295
 LTotAB=     7445736 MaxLAS=    11040480 LenRXY=    11040480
 NonZer=    14572590 LenScr=    22628352 LnRSAI=           0
 LnScr1=           0 LExtra=           0 Total=     40955127
 MaxDsk=          -1 SrtSym=           F ITran=            4
 JobTyp=0 Pass  1:  I=   1 to   6.
 (rs|ai) integrals will be sorted in core.
 Spin components of T(2) and E(2):
     alpha-alpha T2 =       0.1692532920D-01 E2=     -0.3870427449D-01
     alpha-beta  T2 =       0.1058037258D+00 E2=     -0.2638241104D+00
     beta-beta   T2 =       0.1692532920D-01 E2=     -0.3870427449D-01
 ANorm=    0.1067545964D+01
 E2 =    -0.3412326594D+00 EUMP2 =    -0.43689836035192D+03
 Keep R2 and R3 ints in memory in canonical form, NReq=111025316.
 CIDS: In Core Option IDoMem=           1.
 Iterations=  50 Convergence= 0.100D-07
 Produce multiple copies of IABC intergrals
 Iteration Nr.   1
 **********************
 DD1Dir will call FoFMem   1 times, MxPair=        42
 NAB=    21 NAA=     0 NBB=     0.
 MP4(R+Q)=  0.11748992D-01
 E3=       -0.22726499D-01        EUMP3=      -0.43692108685D+03
 E4(DQ)=    0.16618555D-02        UMP4(DQ)=   -0.43691942500D+03
 E4(SDQ)=  -0.19156004D-02        UMP4(SDQ)=  -0.43692300245D+03
 DE(Corr)= -0.35221017     E(Corr)=     -436.90933786    
 NORM(A)=   0.10741750D+01
 Iteration Nr.   2
 **********************
 DD1Dir will call FoFMem   1 times, MxPair=        42
 NAB=    21 NAA=     0 NBB=     0.
 DE(Corr)= -0.36379353     E(CORR)=     -436.92092123     Delta=-1.16D-02
 NORM(A)=   0.10816745D+01
 Iteration Nr.   3
 **********************
 DD1Dir will call FoFMem   1 times, MxPair=        42
 NAB=    21 NAA=     0 NBB=     0.
 DE(Corr)= -0.36469379     E(CORR)=     -436.92182148     Delta=-9.00D-04
 NORM(A)=   0.10842154D+01
 Iteration Nr.   4
 **********************
 DD1Dir will call FoFMem   1 times, MxPair=        42
 NAB=    21 NAA=     0 NBB=     0.
 DE(Corr)= -0.36606643     E(CORR)=     -436.92319412     Delta=-1.37D-03
 NORM(A)=   0.10852723D+01
 Iteration Nr.   5
 **********************
 DD1Dir will call FoFMem   1 times, MxPair=        42
 NAB=    21 NAA=     0 NBB=     0.
 DE(Corr)= -0.36627499     E(CORR)=     -436.92340269     Delta=-2.09D-04
 NORM(A)=   0.10856632D+01
 Iteration Nr.   6
 **********************
 DD1Dir will call FoFMem   1 times, MxPair=        42
 NAB=    21 NAA=     0 NBB=     0.
 DE(Corr)= -0.36630917     E(CORR)=     -436.92343686     Delta=-3.42D-05
 NORM(A)=   0.10856803D+01
 Iteration Nr.   7
 **********************
 DD1Dir will call FoFMem   1 times, MxPair=        42
 NAB=    21 NAA=     0 NBB=     0.
 DE(Corr)= -0.36631073     E(CORR)=     -436.92343842     Delta=-1.56D-06
 NORM(A)=   0.10856927D+01
 Iteration Nr.   8
 **********************
 DD1Dir will call FoFMem   1 times, MxPair=        42
 NAB=    21 NAA=     0 NBB=     0.
 DE(Corr)= -0.36630762     E(CORR)=     -436.92343531     Delta= 3.11D-06
 NORM(A)=   0.10856918D+01
 Iteration Nr.   9
 **********************
 DD1Dir will call FoFMem   1 times, MxPair=        42
 NAB=    21 NAA=     0 NBB=     0.
 DE(Corr)= -0.36631022     E(CORR)=     -436.92343791     Delta=-2.60D-06
 NORM(A)=   0.10856931D+01
 Iteration Nr.  10
 **********************
 DD1Dir will call FoFMem   1 times, MxPair=        42
 NAB=    21 NAA=     0 NBB=     0.
 DE(Corr)= -0.36630985     E(CORR)=     -436.92343754     Delta= 3.67D-07
 NORM(A)=   0.10856940D+01
 Iteration Nr.  11
 **********************
 DD1Dir will call FoFMem   1 times, MxPair=        42
 NAB=    21 NAA=     0 NBB=     0.
 DE(Corr)= -0.36631041     E(CORR)=     -436.92343810     Delta=-5.57D-07
 NORM(A)=   0.10856945D+01
 Iteration Nr.  12
 **********************
 DD1Dir will call FoFMem   1 times, MxPair=        42
 NAB=    21 NAA=     0 NBB=     0.
 DE(Corr)= -0.36631052     E(CORR)=     -436.92343821     Delta=-1.11D-07
 NORM(A)=   0.10856950D+01
 Iteration Nr.  13
 **********************
 DD1Dir will call FoFMem   1 times, MxPair=        42
 NAB=    21 NAA=     0 NBB=     0.
 DE(Corr)= -0.36631062     E(CORR)=     -436.92343831     Delta=-9.54D-08
 NORM(A)=   0.10856951D+01
 Iteration Nr.  14
 **********************
 DD1Dir will call FoFMem   1 times, MxPair=        42
 NAB=    21 NAA=     0 NBB=     0.
 DE(Corr)= -0.36631065     E(CORR)=     -436.92343834     Delta=-3.15D-08
 NORM(A)=   0.10856952D+01
 Iteration Nr.  15
 **********************
 DD1Dir will call FoFMem   1 times, MxPair=        42
 NAB=    21 NAA=     0 NBB=     0.
 DE(Corr)= -0.36631066     E(CORR)=     -436.92343835     Delta=-9.76D-09
 NORM(A)=   0.10856952D+01
 Wavefunction amplitudes converged. E(Corr)=     -436.92343835    
 Dominant configurations:
 ***********************
 Spin Case        I    J    A    B          Value
   ABAB          11   11   14   14      -0.116764D+00
 Largest amplitude= 1.17D-01

 Z-amplitude iterations

 Iteration Nr.   1
 **********************
 DD1Dir will call FoFMem   1 times, MxPair=        42
 NAB=    21 NAA=     0 NBB=     0.
 DE(Z)= -0.35011627     E(Z)=     -436.90724396     Delta= 1.62D-02
 NORM(A)=   0.10856845D+01
 Iteration Nr.   2
 **********************
 DD1Dir will call FoFMem   1 times, MxPair=        42
 NAB=    21 NAA=     0 NBB=     0.
 DE(Z)= -0.35011581     E(Z)=     -436.90724350     Delta= 4.55D-07
 NORM(A)=   0.10856837D+01
 Iteration Nr.   3
 **********************
 DD1Dir will call FoFMem   1 times, MxPair=        42
 NAB=    21 NAA=     0 NBB=     0.
 DE(Z)= -0.35011576     E(Z)=     -436.90724345     Delta= 5.65D-08
 NORM(A)=   0.10856753D+01
 Iteration Nr.   4
 **********************
 DD1Dir will call FoFMem   1 times, MxPair=        42
 NAB=    21 NAA=     0 NBB=     0.
 DE(Z)= -0.35011539     E(Z)=     -436.90724308     Delta= 3.68D-07
 NORM(A)=   0.10856737D+01
 Iteration Nr.   5
 **********************
 DD1Dir will call FoFMem   1 times, MxPair=        42
 NAB=    21 NAA=     0 NBB=     0.
 DE(Z)= -0.35011530     E(Z)=     -436.90724299     Delta= 9.21D-08
 NORM(A)=   0.10773131D+01
 Iteration Nr.   6
 **********************
 DD1Dir will call FoFMem   1 times, MxPair=        42
 NAB=    21 NAA=     0 NBB=     0.
 DE(Z)= -0.34972659     E(Z)=     -436.90685428     Delta= 3.89D-04
 NORM(A)=   0.10773088D+01
 Iteration Nr.   7
 **********************
 DD1Dir will call FoFMem   1 times, MxPair=        42
 NAB=    21 NAA=     0 NBB=     0.
 DE(Z)= -0.34972551     E(Z)=     -436.90685321     Delta= 1.08D-06
 NORM(A)=   0.10773064D+01
 Iteration Nr.   8
 **********************
 DD1Dir will call FoFMem   1 times, MxPair=        42
 NAB=    21 NAA=     0 NBB=     0.
 DE(Z)= -0.34972542     E(Z)=     -436.90685311     Delta= 9.09D-08
 NORM(A)=   0.10773061D+01
 Iteration Nr.   9
 **********************
 DD1Dir will call FoFMem   1 times, MxPair=        42
 NAB=    21 NAA=     0 NBB=     0.
 DE(Z)= -0.34972524     E(Z)=     -436.90685293     Delta= 1.81D-07
 NORM(A)=   0.10773062D+01
 Iteration Nr.  10
 **********************
 DD1Dir will call FoFMem   1 times, MxPair=        42
 NAB=    21 NAA=     0 NBB=     0.
 DE(Z)= -0.34972527     E(Z)=     -436.90685297     Delta=-3.26D-08
 NORM(A)=   0.10773062D+01
 Iteration Nr.  11
 **********************
 DD1Dir will call FoFMem   1 times, MxPair=        42
 NAB=    21 NAA=     0 NBB=     0.
 DE(Z)= -0.34972528     E(Z)=     -436.90685297     Delta=-7.25D-09
 NORM(A)=   0.10773062D+01
 Z-amplitudes converged.
 Discarding MO integrals.
          Differentiating once with respect to electric field.
                with respect to dipole field.
          Electric field/nuclear overlap derivatives assumed to be zero.
 Keep R1 ints in memory in canonical form, NReq=59475039.
          There are     1 degrees of freedom in the 1st order CPHF.  IDoFFX=0 NUNeed=     1.
 LinEq1:  Iter=  0 NonCon=     1 RMS=2.98D-03 Max=4.43D-02 NDo=     1
 AX will form     1 AO Fock derivatives at one time.
 LinEq1:  Iter=  1 NonCon=     1 RMS=9.95D-04 Max=1.23D-02 NDo=     1
 LinEq1:  Iter=  2 NonCon=     1 RMS=4.89D-04 Max=1.37D-02 NDo=     1
 LinEq1:  Iter=  3 NonCon=     1 RMS=1.66D-04 Max=2.57D-03 NDo=     1
 LinEq1:  Iter=  4 NonCon=     1 RMS=4.11D-05 Max=5.32D-04 NDo=     1
 LinEq1:  Iter=  5 NonCon=     1 RMS=8.97D-06 Max=1.04D-04 NDo=     1
 LinEq1:  Iter=  6 NonCon=     1 RMS=1.58D-06 Max=2.26D-05 NDo=     1
 LinEq1:  Iter=  7 NonCon=     1 RMS=2.07D-07 Max=2.78D-06 NDo=     1
 LinEq1:  Iter=  8 NonCon=     1 RMS=2.40D-08 Max=2.33D-07 NDo=     1
 LinEq1:  Iter=  9 NonCon=     1 RMS=3.82D-09 Max=3.85D-08 NDo=     1
 LinEq1:  Iter= 10 NonCon=     1 RMS=5.33D-10 Max=5.97D-09 NDo=     1
 LinEq1:  Iter= 11 NonCon=     0 RMS=6.52D-11 Max=6.60D-10 NDo=     1
 Linear equations converged to 1.000D-10 1.000D-09 after    11 iterations.
 End of Minotr F.D. properties file   721 does not exist.
 End of Minotr F.D. properties file   722 does not exist.
 End of Minotr F.D. properties file   788 does not exist.

 **********************************************************************

            Population analysis using the CC Density.

 **********************************************************************

 Alpha  occ. eigenvalues --  -91.95734 -11.32322  -8.95899  -6.63956  -6.63935
 Alpha  occ. eigenvalues --   -6.63738  -1.06122  -0.81580  -0.64488  -0.54035
 Alpha  occ. eigenvalues --   -0.41564  -0.35303
 Alpha virt. eigenvalues --    0.02828   0.03365   0.04264   0.06130   0.09247
 Alpha virt. eigenvalues --    0.10425   0.11659   0.13108   0.13486   0.14768
 Alpha virt. eigenvalues --    0.19852   0.21642   0.23072   0.24304   0.26885
 Alpha virt. eigenvalues --    0.29055   0.30892   0.31737   0.32496   0.34382
 Alpha virt. eigenvalues --    0.37542   0.38403   0.38548   0.40174   0.41312
 Alpha virt. eigenvalues --    0.43183   0.44604   0.45104   0.47122   0.48603
 Alpha virt. eigenvalues --    0.56466   0.62001   0.65276   0.66020   0.67704
 Alpha virt. eigenvalues --    0.74978   0.75479   0.76736   0.78958   0.80702
 Alpha virt. eigenvalues --    0.83243   0.84615   0.85048   0.87319   0.87821
 Alpha virt. eigenvalues --    0.89303   0.89773   0.95932   0.97131   0.97163
 Alpha virt. eigenvalues --    0.99510   0.99645   1.01999   1.08444   1.10548
 Alpha virt. eigenvalues --    1.10819   1.12346   1.13370   1.13967   1.16478
 Alpha virt. eigenvalues --    1.24428   1.30053   1.33997   1.42368   1.49810
 Alpha virt. eigenvalues --    1.52674   1.54981   1.58090   1.58251   1.58800
 Alpha virt. eigenvalues --    1.61825   1.64887   1.80226   1.87535   1.88694
 Alpha virt. eigenvalues --    2.01672   2.02458   2.02861   2.05474   2.08967
 Alpha virt. eigenvalues --    2.09767   2.13248   2.17795   2.34314   2.35700
 Alpha virt. eigenvalues --    2.39332   2.40408   2.42174   2.47234   2.50223
 Alpha virt. eigenvalues --    2.57003   2.68560   2.71633   2.89221   3.00126
 Alpha virt. eigenvalues --    3.03373   3.11805   3.18576   3.23399   3.46570
 Alpha virt. eigenvalues --    3.57675   3.59419   3.64068   3.66992   3.68891
 Alpha virt. eigenvalues --    3.79389   3.83334   3.84669   3.89993   3.92475
 Alpha virt. eigenvalues --    4.05243   4.09872   4.24875   4.40375   4.41543
 Alpha virt. eigenvalues --    4.44025   4.68461   4.73436   4.74188   5.07209
 Alpha virt. eigenvalues --    5.12312   5.24330   5.24887   5.29619   5.50771
 Alpha virt. eigenvalues --    5.83552   5.93916   6.48026   6.56589  15.22347
          Condensed to atoms (all electrons):
               1          2          3          4
     1  C    6.180830   0.277410   0.183496   0.183496
     2  S    0.277410  16.018270  -0.115107  -0.115107
     3  H    0.183496  -0.115107   0.643931  -0.157670
     4  H    0.183496  -0.115107  -0.157670   0.643931
 Mulliken charges:
               1
     1  C   -0.825233
     2  S   -0.065467
     3  H    0.445350
     4  H    0.445350
 Sum of Mulliken charges =  -0.00000
 Mulliken charges with hydrogens summed into heavy atoms:
               1
     1  C    0.065467
     2  S   -0.065467
 Electronic spatial extent (au):  <R**2>=            131.5346
 Charge=             -0.0000 electrons
 Dipole moment (field-independent basis, Debye):
    X=             -0.0000    Y=             -0.0000    Z=             -1.7694  Tot=              1.7694
 Quadrupole moment (field-independent basis, Debye-Ang):
   XX=            -20.0116   YY=            -20.5925   ZZ=            -18.9637
   XY=             -0.0000   XZ=              0.0000   YZ=             -0.0000
 Traceless Quadrupole moment (field-independent basis, Debye-Ang):
   XX=             -0.1557   YY=             -0.7365   ZZ=              0.8922
   XY=             -0.0000   XZ=              0.0000   YZ=             -0.0000
 Octapole moment (field-independent basis, Debye-Ang**2):
  XXX=             -0.0000  YYY=             -0.0000  ZZZ=            -28.0725  XYY=             -0.0000
  XXY=             -0.0000  XXZ=             -8.7096  XZZ=             -0.0000  YZZ=             -0.0000
  YYZ=            -13.2977  XYZ=              0.0000
 Hexadecapole moment (field-independent basis, Debye-Ang**3):
 XXXX=            -25.4263 YYYY=            -35.1591 ZZZZ=           -128.8558 XXXY=             -0.0000
 XXXZ=              0.0000 YYYX=             -0.0000 YYYZ=             -0.0000 ZZZX=              0.0000
 ZZZY=             -0.0000 XXYY=            -10.5276 XXZZ=            -25.6243 YYZZ=            -29.8521
 XXYZ=             -0.0000 YYXZ=              0.0000 ZZXY=             -0.0000
 N-N= 4.448301456973D+01 E-N=-1.126896318792D+03  KE= 4.368413609613D+02
 There are a total of       91844 grid points.
 ElSum from          density=       24.0000001382
 ElSum from atomic densities=       24.0000001935

 Hirshfeld populations at iteration   1 (CX, CA, CB, DipXYZ):
               1          2          3          4          5          6
     1  C    0.000000   3.003776   3.003776   0.000000   0.000000  -0.149882
     2  S    0.000013   8.045518   8.045518   0.000000  -0.000000   0.038072
     3  H    0.000004   0.475353   0.475353   0.000000  -0.130213  -0.098893
     4  H    0.000004   0.475353   0.475353  -0.000000   0.130213  -0.098893
       Tot   0.000022  12.000000  12.000000   0.000000   0.000000  -0.309597

 Dip from Atomic Chgs              0.000000   0.000000  -0.386550
         Total Dipole              0.000000   0.000000  -0.696147

 Hirshfeld charges, spin densities, dipoles, and CM5 charges using IRadAn=      5:
              Q-H        S-H        Dx         Dy         Dz        Q-CM5   
     1  C   -0.007551   0.000000   0.000000   0.000000  -0.149882  -0.086148
     2  S   -0.091036   0.000000   0.000000  -0.000000   0.038072  -0.118744
     3  H    0.049293   0.000000   0.000000  -0.130213  -0.098893   0.102446
     4  H    0.049293   0.000000  -0.000000   0.130213  -0.098893   0.102446
       Tot  -0.000000   0.000000   0.000000   0.000000  -0.309597  -0.000000
 Hirshfeld charges with hydrogens summed into heavy atoms:
              Q-H       Q-CM5   
     1  C    0.091036   0.118744
     2  S   -0.091036  -0.118744
 
 EQQ= 0.000000000000E+00 EQD= 0.000000000000E+00 EDD= 0.297976201502E-02
 EQQ+QD+DD= 0.297976201502E-02
 
 Breneman (CHELPG) radii used.
 Generate Potential Derived Charges using the Breneman model, NDens= 1.
 Grid spacing= 0.300 Box extension= 2.800
 NStep X,Y,Z=   20     26     27   Total possible points=       14040
 Number of Points to Fit=    4708

 **********************************************************************

            Electrostatic Properties Using The CC Density.

 **********************************************************************

       Atomic Center    1 is at   0.000000  0.000000 -0.555291
       Atomic Center    2 is at   0.000000  0.000000  1.070374
       Atomic Center    3 is at   0.000000 -0.922280 -1.128992
       Atomic Center    4 is at   0.000000  0.922280 -1.128992
    4708 points will be used for fitting atomic charges
 Fitting point charges to electrostatic potential
 The dipole moment will be constrained to the correct value
 Charges from ESP fit, RMS=   0.00541 RRMS=   0.40262:
 ESP charges:
               1
     1  C   -0.027764
     2  S   -0.160254
     3  H    0.094009
     4  H    0.094009
 Sum of ESP charges =  -0.00000
 ESP charges with hydrogens summed into heavy atoms:
               1
     1  C    0.160254
     2  S   -0.160254
 Charge=  -0.00000 Dipole=     0.0000     0.0000    -1.7694 Tot=     1.7694
 -----------------------------------------------------------------

              Electrostatic Properties (Atomic Units)

 -----------------------------------------------------------------
    Center     Electric         -------- Electric Field --------
               Potential          X             Y             Z
 -----------------------------------------------------------------
    1 Atom    -14.687854
    2 Atom    -59.228810
    3 Atom     -1.071091
    4 Atom     -1.071091
 -----------------------------------------------------------------
 ******************************Gaussian NBO Version 3.1******************************
             N A T U R A L   A T O M I C   O R B I T A L   A N D
          N A T U R A L   B O N D   O R B I T A L   A N A L Y S I S
 ******************************Gaussian NBO Version 3.1******************************
       /RESON  / : Allow strongly delocalized NBO set

 Analyzing the QCI/CC density

 Job title: h2cs-wavefunction                                               

 Storage needed:     61222 in NPA (2147483536 available)
 GSVD:  LWork=        -636 too small for GESVD, short by       41336 words or       41336 for optimal perf.


 NATURAL POPULATIONS:  Natural atomic orbital occupancies 
                                                          
   NAO  Atom  No  lang   Type(AO)    Occupancy
 --------------------------------------------
     1    C    1  S      Cor( 1S)     1.99939
     2    C    1  S      Val( 2S)     1.18364
     3    C    1  S      Ryd( 3S)     0.00793
     4    C    1  S      Ryd( 4S)     0.00050
     5    C    1  S      Ryd( 5S)     0.00007
     6    C    1  px     Val( 2p)     0.87972
     7    C    1  px     Ryd( 3p)     0.00624
     8    C    1  px     Ryd( 5p)     0.00023
     9    C    1  px     Ryd( 4p)     0.00027
    10    C    1  py     Val( 2p)     1.17405
    11    C    1  py     Ryd( 3p)     0.00614
    12    C    1  py     Ryd( 4p)     0.00044
    13    C    1  py     Ryd( 5p)     0.00032
    14    C    1  pz     Val( 2p)     1.09777
    15    C    1  pz     Ryd( 3p)     0.00701
    16    C    1  pz     Ryd( 4p)     0.00028
    17    C    1  pz     Ryd( 5p)     0.00008
    18    C    1  dxy    Ryd( 3d)     0.00623
    19    C    1  dxy    Ryd( 4d)     0.00025
    20    C    1  dxy    Ryd( 5d)     0.00012
    21    C    1  dxz    Ryd( 3d)     0.00958
    22    C    1  dxz    Ryd( 4d)     0.00026
    23    C    1  dxz    Ryd( 5d)     0.00012
    24    C    1  dyz    Ryd( 3d)     0.01139
    25    C    1  dyz    Ryd( 4d)     0.00028
    26    C    1  dyz    Ryd( 5d)     0.00024
    27    C    1  dx2y2  Ryd( 3d)     0.00764
    28    C    1  dx2y2  Ryd( 4d)     0.00030
    29    C    1  dx2y2  Ryd( 5d)     0.00011
    30    C    1  dz2    Ryd( 3d)     0.01211
    31    C    1  dz2    Ryd( 4d)     0.00029
    32    C    1  dz2    Ryd( 5d)     0.00013
    33    C    1  f(0)   Ryd( 4f)     0.00060
    34    C    1  f(0)   Ryd( 5f)     0.00008
    35    C    1  f(C1)  Ryd( 4f)     0.00056
    36    C    1  f(C1)  Ryd( 5f)     0.00012
    37    C    1  f(S1)  Ryd( 4f)     0.00065
    38    C    1  f(S1)  Ryd( 5f)     0.00012
    39    C    1  f(C2)  Ryd( 4f)     0.00084
    40    C    1  f(C2)  Ryd( 5f)     0.00011
    41    C    1  f(S2)  Ryd( 4f)     0.00065
    42    C    1  f(S2)  Ryd( 5f)     0.00014
    43    C    1  f(C3)  Ryd( 4f)     0.00048
    44    C    1  f(C3)  Ryd( 5f)     0.00012
    45    C    1  f(S3)  Ryd( 4f)     0.00069
    46    C    1  f(S3)  Ryd( 5f)     0.00012

    47    S    2  S      Cor( 1S)     2.00000
    48    S    2  S      Cor( 2S)     1.99902
    49    S    2  S      Val( 3S)     1.73287
    50    S    2  S      Ryd( 4S)     0.01547
    51    S    2  S      Ryd( 5S)     0.00041
    52    S    2  S      Ryd( 6S)     0.00011
    53    S    2  px     Cor( 2p)     1.99987
    54    S    2  px     Val( 3p)     1.08758
    55    S    2  px     Ryd( 4p)     0.00433
    56    S    2  px     Ryd( 5p)     0.00031
    57    S    2  px     Ryd( 6p)     0.00002
    58    S    2  py     Cor( 2p)     2.00000
    59    S    2  py     Val( 3p)     1.87369
    60    S    2  py     Ryd( 4p)     0.01438
    61    S    2  py     Ryd( 5p)     0.00056
    62    S    2  py     Ryd( 6p)     0.00005
    63    S    2  pz     Cor( 2p)     1.99974
    64    S    2  pz     Val( 3p)     1.07501
    65    S    2  pz     Ryd( 4p)     0.00645
    66    S    2  pz     Ryd( 5p)     0.00041
    67    S    2  pz     Ryd( 6p)     0.00004
    68    S    2  dxy    Ryd( 3d)     0.01720
    69    S    2  dxy    Ryd( 4d)     0.00057
    70    S    2  dxy    Ryd( 5d)     0.00006
    71    S    2  dxz    Ryd( 3d)     0.01840
    72    S    2  dxz    Ryd( 4d)     0.00033
    73    S    2  dxz    Ryd( 5d)     0.00007
    74    S    2  dyz    Ryd( 3d)     0.01397
    75    S    2  dyz    Ryd( 4d)     0.00049
    76    S    2  dyz    Ryd( 5d)     0.00025
    77    S    2  dx2y2  Ryd( 3d)     0.01637
    78    S    2  dx2y2  Ryd( 4d)     0.00060
    79    S    2  dx2y2  Ryd( 5d)     0.00006
    80    S    2  dz2    Ryd( 3d)     0.02335
    81    S    2  dz2    Ryd( 4d)     0.00031
    82    S    2  dz2    Ryd( 5d)     0.00016
    83    S    2  f(0)   Ryd( 4f)     0.00132
    84    S    2  f(0)   Ryd( 5f)     0.00017
    85    S    2  f(C1)  Ryd( 4f)     0.00100
    86    S    2  f(C1)  Ryd( 5f)     0.00013
    87    S    2  f(S1)  Ryd( 4f)     0.00123
    88    S    2  f(S1)  Ryd( 5f)     0.00017
    89    S    2  f(C2)  Ryd( 4f)     0.00126
    90    S    2  f(C2)  Ryd( 5f)     0.00013
    91    S    2  f(S2)  Ryd( 4f)     0.00132
    92    S    2  f(S2)  Ryd( 5f)     0.00011
    93    S    2  f(C3)  Ryd( 4f)     0.00152
    94    S    2  f(C3)  Ryd( 5f)     0.00011
    95    S    2  f(S3)  Ryd( 4f)     0.00152
    96    S    2  f(S3)  Ryd( 5f)     0.00012

    97    H    3  S      Val( 1S)     0.82341
    98    H    3  S      Ryd( 2S)     0.00303
    99    H    3  S      Ryd( 3S)     0.00016
   100    H    3  S      Ryd( 4S)     0.00006
   101    H    3  px     Ryd( 2p)     0.00094
   102    H    3  px     Ryd( 3p)     0.00050
   103    H    3  px     Ryd( 4p)     0.00007
   104    H    3  py     Ryd( 2p)     0.00148
   105    H    3  py     Ryd( 3p)     0.00038
   106    H    3  py     Ryd( 4p)     0.00023
   107    H    3  pz     Ryd( 2p)     0.00281
   108    H    3  pz     Ryd( 3p)     0.00047
   109    H    3  pz     Ryd( 4p)     0.00017
   110    H    3  dxy    Ryd( 3d)     0.00007
   111    H    3  dxy    Ryd( 4d)     0.00007
   112    H    3  dxz    Ryd( 3d)     0.00010
   113    H    3  dxz    Ryd( 4d)     0.00005
   114    H    3  dyz    Ryd( 4d)     0.00008
   115    H    3  dyz    Ryd( 3d)     0.00009
   116    H    3  dx2y2  Ryd( 3d)     0.00011
   117    H    3  dx2y2  Ryd( 4d)     0.00009
   118    H    3  dz2    Ryd( 3d)     0.00009
   119    H    3  dz2    Ryd( 4d)     0.00006

   120    H    4  S      Val( 1S)     0.82341
   121    H    4  S      Ryd( 2S)     0.00303
   122    H    4  S      Ryd( 3S)     0.00016
   123    H    4  S      Ryd( 4S)     0.00006
   124    H    4  px     Ryd( 2p)     0.00094
   125    H    4  px     Ryd( 3p)     0.00050
   126    H    4  px     Ryd( 4p)     0.00007
   127    H    4  py     Ryd( 2p)     0.00148
   128    H    4  py     Ryd( 3p)     0.00038
   129    H    4  py     Ryd( 4p)     0.00023
   130    H    4  pz     Ryd( 2p)     0.00281
   131    H    4  pz     Ryd( 3p)     0.00047
   132    H    4  pz     Ryd( 4p)     0.00017
   133    H    4  dxy    Ryd( 3d)     0.00007
   134    H    4  dxy    Ryd( 4d)     0.00007
   135    H    4  dxz    Ryd( 3d)     0.00010
   136    H    4  dxz    Ryd( 4d)     0.00005
   137    H    4  dyz    Ryd( 4d)     0.00008
   138    H    4  dyz    Ryd( 3d)     0.00009
   139    H    4  dx2y2  Ryd( 3d)     0.00011
   140    H    4  dx2y2  Ryd( 4d)     0.00009
   141    H    4  dz2    Ryd( 3d)     0.00009
   142    H    4  dz2    Ryd( 4d)     0.00006


 Summary of Natural Population Analysis:                  
                                                          
                                       Natural Population 
                Natural  -----------------------------------------------
    Atom  No    Charge         Core      Valence    Rydberg      Total
 -----------------------------------------------------------------------
      C    1   -0.41837      1.99939     4.33517    0.08382     6.41837
      S    2    0.08741      9.99863     5.76916    0.14480    15.91259
      H    3    0.16548      0.00000     0.82341    0.01111     0.83452
      H    4    0.16548      0.00000     0.82341    0.01111     0.83452
 =======================================================================
   * Total *   -0.00000     11.99802    11.75115    0.25083    24.00000

                                 Natural Population      
 --------------------------------------------------------
   Core                      11.99802 ( 99.9835% of  12)
   Valence                   11.75115 ( 97.9263% of  12)
   Natural Minimal Basis     23.74917 ( 98.9549% of  24)
   Natural Rydberg Basis      0.25083 (  1.0451% of  24)
 --------------------------------------------------------

    Atom  No          Natural Electron Configuration
 ----------------------------------------------------------------------------
      C    1      [core]2S( 1.18)2p( 3.15)3S( 0.01)3p( 0.02)3d( 0.05)
      S    2      [core]3S( 1.73)3p( 4.04)4S( 0.02)3d( 0.09)4p( 0.03)4f( 0.01)
      H    3            1S( 0.82)2p( 0.01)
      H    4            1S( 0.82)2p( 0.01)


 NBO analysis skipped by request.
 Unable to Open any file for archive entry.
 1\1\GINC-TRAPISTA\SP\RQCISD-FC\Aug-CC-pVTZ\C1H2S1\WAGNER\02-Sep-2022\0
 \\# qcisd/aug-cc-pvtz nosymm density=current pop=(chelpg,hirshfeld,npa
 ,dipole)\\h2cs-wavefunction\\0,1\C,0,0.,0.,-0.555291\S,0,0.,0.,1.07037
 4\H,0,0.,-0.92228,-1.128992\H,0,0.,0.92228,-1.128992\\Version=EM64L-G1
 6RevC.01\HF=-436.5571277\MP2=-436.8983604\MP3=-436.9210869\MP4D=-436.9
 31174\MP4DQ=-436.919425\MP4SDQ=-436.9230025\QCISD=-436.9234383\RMSD=3.
 012e-09\Dipole=0.,0.,-0.6961458\Quadrupole=-0.1157348,-0.5476044,0.663
 3392,0.,0.,0.\PG=C02V [C2(C1S1),SGV(H2)]\\@
 The archive entry for this job was punched.


 A true friend is someone who is there for
 you when he'd rather be anywhere else.
                               -- Len Wein
 Job cpu time:       0 days  1 hours 34 minutes 13.2 seconds.
 Elapsed time:       0 days  0 hours  5 minutes 58.7 seconds.
 File lengths (MBytes):  RWF=   7177 Int=      0 D2E=      0 Chk=      3 Scr=      1
 Normal termination of Gaussian 16 at Fri Sep  2 21:24:41 2022.
