 Entering Gaussian System, Link 0=/home/wagner/chemistry/gaussian/g16/g16
 Input=GAUSSIAN.com
 Output=GAUSSIAN.log
 Initial command:
 /home/wagner/chemistry/gaussian/g16/l1.exe "/home/wagner/chemistry/gaussian/work/Gau-70900.inp" -scrdir="/home/wagner/chemistry/gaussian/work/"
 Entering Link 1 = /home/wagner/chemistry/gaussian/g16/l1.exe PID=     70902.
  
 Copyright (c) 1988-2019, Gaussian, Inc.  All Rights Reserved.
  
 This is part of the Gaussian(R) 16 program.  It is based on
 the Gaussian(R) 09 system (copyright 2009, Gaussian, Inc.),
 the Gaussian(R) 03 system (copyright 2003, Gaussian, Inc.),
 the Gaussian(R) 98 system (copyright 1998, Gaussian, Inc.),
 the Gaussian(R) 94 system (copyright 1995, Gaussian, Inc.),
 the Gaussian 92(TM) system (copyright 1992, Gaussian, Inc.),
 the Gaussian 90(TM) system (copyright 1990, Gaussian, Inc.),
 the Gaussian 88(TM) system (copyright 1988, Gaussian, Inc.),
 the Gaussian 86(TM) system (copyright 1986, Carnegie Mellon
 University), and the Gaussian 82(TM) system (copyright 1983,
 Carnegie Mellon University). Gaussian is a federally registered
 trademark of Gaussian, Inc.
  
 This software contains proprietary and confidential information,
 including trade secrets, belonging to Gaussian, Inc.
  
 This software is provided under written license and may be
 used, copied, transmitted, or stored only in accord with that
 written license.
  
 The following legend is applicable only to US Government
 contracts under FAR:
  
                    RESTRICTED RIGHTS LEGEND
  
 Use, reproduction and disclosure by the US Government is
 subject to restrictions as set forth in subparagraphs (a)
 and (c) of the Commercial Computer Software - Restricted
 Rights clause in FAR 52.227-19.
  
 Gaussian, Inc.
 340 Quinnipiac St., Bldg. 40, Wallingford CT 06492
  
  
 ---------------------------------------------------------------
 Warning -- This program may not be used in any manner that
 competes with the business of Gaussian, Inc. or will provide
 assistance to any competitor of Gaussian, Inc.  The licensee
 of this program is prohibited from giving any competitor of
 Gaussian, Inc. access to this program.  By using this program,
 the user acknowledges that Gaussian, Inc. is engaged in the
 business of creating and licensing software in the field of
 computational chemistry and represents and warrants to the
 licensee that it is not a competitor of Gaussian, Inc. and that
 it will not use this program in any manner prohibited above.
 ---------------------------------------------------------------
  

 Cite this work as:
 Gaussian 16, Revision C.01,
 M. J. Frisch, G. W. Trucks, H. B. Schlegel, G. E. Scuseria, 
 M. A. Robb, J. R. Cheeseman, G. Scalmani, V. Barone, 
 G. A. Petersson, H. Nakatsuji, X. Li, M. Caricato, A. V. Marenich, 
 J. Bloino, B. G. Janesko, R. Gomperts, B. Mennucci, H. P. Hratchian, 
 J. V. Ortiz, A. F. Izmaylov, J. L. Sonnenberg, D. Williams-Young, 
 F. Ding, F. Lipparini, F. Egidi, J. Goings, B. Peng, A. Petrone, 
 T. Henderson, D. Ranasinghe, V. G. Zakrzewski, J. Gao, N. Rega, 
 G. Zheng, W. Liang, M. Hada, M. Ehara, K. Toyota, R. Fukuda, 
 J. Hasegawa, M. Ishida, T. Nakajima, Y. Honda, O. Kitao, H. Nakai, 
 T. Vreven, K. Throssell, J. A. Montgomery, Jr., J. E. Peralta, 
 F. Ogliaro, M. J. Bearpark, J. J. Heyd, E. N. Brothers, K. N. Kudin, 
 V. N. Staroverov, T. A. Keith, R. Kobayashi, J. Normand, 
 K. Raghavachari, A. P. Rendell, J. C. Burant, S. S. Iyengar, 
 J. Tomasi, M. Cossi, J. M. Millam, M. Klene, C. Adamo, R. Cammi, 
 J. W. Ochterski, R. L. Martin, K. Morokuma, O. Farkas, 
 J. B. Foresman, and D. J. Fox, Gaussian, Inc., Wallingford CT, 2019.
 
 ******************************************
 Gaussian 16:  EM64L-G16RevC.01  3-Jul-2019
                 2-Sep-2022 
 ******************************************
 %nproc=16
 Will use up to   16 processors via shared memory.
 %mem=16GB
 ----------------------------------------------------------------------
 # qcisd/aug-cc-pvtz nosymm density=current pop=(chelpg,hirshfeld,npa,d
 ipole)
 ----------------------------------------------------------------------
 1/30=1,38=1,172=1/1;
 2/12=2,15=1,17=6,18=5,40=1/2;
 3/5=16,6=1,7=10,11=9,25=1,30=1,71=1/1,2,3;
 4//1;
 5/5=2,38=5/2;
 8/6=4,9=120000,10=1/1,4;
 9/5=8,15=1/13;
 11/28=-7,31=1,32=3,42=3/11;
 10/5=6,13=10,31=1/2;
 6/7=2,8=2,9=2,10=2,15=24,20=3,22=-1,40=-1,79=1/1,2,7;
 99/5=1,9=1/99;
 -----------------
 h2cs-wavefunction
 -----------------
 Symbolic Z-matrix:
 Charge =  0 Multiplicity = 1
 C                     0.        0.01     -0.55529 
 S                     0.        0.        1.06037 
 H                     0.       -0.92228  -1.12899 
 H                     0.        0.92228  -1.12899 
 
                          Input orientation:                          
 ---------------------------------------------------------------------
 Center     Atomic      Atomic             Coordinates (Angstroms)
 Number     Number       Type             X           Y           Z
 ---------------------------------------------------------------------
      1          6           0        0.000000    0.010000   -0.555291
      2         16           0        0.000000    0.000000    1.060374
      3          1           0        0.000000   -0.922280   -1.128992
      4          1           0        0.000000    0.922280   -1.128992
 ---------------------------------------------------------------------
                    Distance matrix (angstroms):
                    1          2          3          4
     1  C    0.000000
     2  S    1.615696   0.000000
     3  H    1.094659   2.375694   0.000000
     4  H    1.077677   2.375694   1.844560   0.000000
 Symmetry turned off by external request.
 Stoichiometry    CH2S
 Framework group  CS[SG(CH2S)]
 Deg. of freedom     5
 Full point group                 CS      NOp   2
 Rotational constants (GHZ):         294.7236746          17.6283255          16.6334292
 Standard basis: Aug-CC-pVTZ (5D, 7F)
   142 basis functions,   240 primitive gaussians,   164 cartesian basis functions
    12 alpha electrons       12 beta electrons
       nuclear repulsion energy        44.7036681602 Hartrees.
 NAtoms=    4 NActive=    4 NUniq=    4 SFac= 1.00D+00 NAtFMM=   60 NAOKFM=F Big=F
 Integral buffers will be    131072 words long.
 Raffenetti 1 integral format.
 Two-electron integral symmetry is turned off.
 One-electron integrals computed using PRISM.
 NBasis=   142 RedAO= T EigKep=  8.89D-05  NBF=   142
 NBsUse=   142 1.00D-06 EigRej= -1.00D+00 NBFU=   142
 ExpMin= 2.53D-02 ExpMax= 3.74D+05 ExpMxC= 1.18D+03 IAcc=3 IRadAn=         5 AccDes= 0.00D+00
 Harris functional with IExCor=  205 and IRadAn=       5 diagonalized for initial guess.
 HarFok:  IExCor=  205 AccDes= 0.00D+00 IRadAn=         5 IDoV= 1 UseB2=F ITyADJ=14
 ICtDFT=  3500011 ScaDFX=  1.000000  1.000000  1.000000  1.000000
 FoFCou: FMM=F IPFlag=           0 FMFlag=      100000 FMFlg1=           0
         NFxFlg=           0 DoJE=T BraDBF=F KetDBF=T FulRan=T
         wScrn=  0.000000 ICntrl=       500 IOpCl=  0 I1Cent=   200000004 NGrid=           0
         NMat0=    1 NMatS0=      1 NMatT0=    0 NMatD0=    1 NMtDS0=    0 NMtDT0=    0
 Symmetry not used in FoFCou.
 Keep R1 ints in memory in canonical form, NReq=59473533.
 Requested convergence on RMS density matrix=1.00D-08 within 128 cycles.
 Requested convergence on MAX density matrix=1.00D-06.
 Requested convergence on             energy=1.00D-06.
 No special actions if energy rises.
 SCF Done:  E(RHF) =  -436.557480619     A.U. after   12 cycles
            NFock= 12  Conv=0.29D-08     -V/T= 2.0003
 ExpMin= 2.53D-02 ExpMax= 3.74D+05 ExpMxC= 1.18D+03 IAcc=3 IRadAn=         5 AccDes= 0.00D+00
 HarFok:  IExCor=  205 AccDes= 0.00D+00 IRadAn=         5 IDoV=-2 UseB2=F ITyADJ=14
 ICtDFT= 12500011 ScaDFX=  1.000000  1.000000  1.000000  1.000000
 Range of M.O.s used for correlation:     7   142
 NBasis=   142 NAE=    12 NBE=    12 NFC=     6 NFV=     0
 NROrb=    136 NOA=     6 NOB=     6 NVA=   130 NVB=   130

 **** Warning!!: The largest alpha MO coefficient is  0.44467441D+02

 Semi-Direct transformation.
 ModeAB=           2 MOrb=             6 LenV=    2146810999
 LASXX=      7286295 LTotXX=     7286295 LenRXX=     7286295
 LTotAB=     7445736 MaxLAS=    11040480 LenRXY=    11040480
 NonZer=    14572590 LenScr=    22628352 LnRSAI=           0
 LnScr1=           0 LExtra=           0 Total=     40955127
 MaxDsk=          -1 SrtSym=           F ITran=            4
 JobTyp=0 Pass  1:  I=   1 to   6.
 (rs|ai) integrals will be sorted in core.
 Spin components of T(2) and E(2):
     alpha-alpha T2 =       0.1684051251D-01 E2=     -0.3867721825D-01
     alpha-beta  T2 =       0.1052215368D+00 E2=     -0.2635201491D+00
     beta-beta   T2 =       0.1684051251D-01 E2=     -0.3867721825D-01
 ANorm=    0.1067193779D+01
 E2 =    -0.3408745856D+00 EUMP2 =    -0.43689835520460D+03
 Keep R2 and R3 ints in memory in canonical form, NReq=111025316.
 CIDS: In Core Option IDoMem=           1.
 Iterations=  50 Convergence= 0.100D-07
 Produce multiple copies of IABC intergrals
 Iteration Nr.   1
 **********************
 DD1Dir will call FoFMem   1 times, MxPair=        42
 NAB=    21 NAA=     0 NBB=     0.
 MP4(R+Q)=  0.11663826D-01
 E3=       -0.22811979D-01        EUMP3=      -0.43692116718D+03
 E4(DQ)=    0.16432656D-02        UMP4(DQ)=   -0.43691952392D+03
 E4(SDQ)=  -0.18399665D-02        UMP4(SDQ)=  -0.43692300715D+03
 DE(Corr)= -0.35202274     E(Corr)=     -436.90950336    
 NORM(A)=   0.10738397D+01
 Iteration Nr.   2
 **********************
 DD1Dir will call FoFMem   1 times, MxPair=        42
 NAB=    21 NAA=     0 NBB=     0.
 DE(Corr)= -0.36344523     E(CORR)=     -436.92092585     Delta=-1.14D-02
 NORM(A)=   0.10812081D+01
 Iteration Nr.   3
 **********************
 DD1Dir will call FoFMem   1 times, MxPair=        42
 NAB=    21 NAA=     0 NBB=     0.
 DE(Corr)= -0.36437229     E(CORR)=     -436.92185291     Delta=-9.27D-04
 NORM(A)=   0.10836349D+01
 Iteration Nr.   4
 **********************
 DD1Dir will call FoFMem   1 times, MxPair=        42
 NAB=    21 NAA=     0 NBB=     0.
 DE(Corr)= -0.36570058     E(CORR)=     -436.92318119     Delta=-1.33D-03
 NORM(A)=   0.10846260D+01
 Iteration Nr.   5
 **********************
 DD1Dir will call FoFMem   1 times, MxPair=        42
 NAB=    21 NAA=     0 NBB=     0.
 DE(Corr)= -0.36589814     E(CORR)=     -436.92337876     Delta=-1.98D-04
 NORM(A)=   0.10849876D+01
 Iteration Nr.   6
 **********************
 DD1Dir will call FoFMem   1 times, MxPair=        42
 NAB=    21 NAA=     0 NBB=     0.
 DE(Corr)= -0.36593017     E(CORR)=     -436.92341079     Delta=-3.20D-05
 NORM(A)=   0.10850023D+01
 Iteration Nr.   7
 **********************
 DD1Dir will call FoFMem   1 times, MxPair=        42
 NAB=    21 NAA=     0 NBB=     0.
 DE(Corr)= -0.36593157     E(CORR)=     -436.92341219     Delta=-1.40D-06
 NORM(A)=   0.10850139D+01
 Iteration Nr.   8
 **********************
 DD1Dir will call FoFMem   1 times, MxPair=        42
 NAB=    21 NAA=     0 NBB=     0.
 DE(Corr)= -0.36592861     E(CORR)=     -436.92340923     Delta= 2.96D-06
 NORM(A)=   0.10850130D+01
 Iteration Nr.   9
 **********************
 DD1Dir will call FoFMem   1 times, MxPair=        42
 NAB=    21 NAA=     0 NBB=     0.
 DE(Corr)= -0.36593106     E(CORR)=     -436.92341168     Delta=-2.45D-06
 NORM(A)=   0.10850142D+01
 Iteration Nr.  10
 **********************
 DD1Dir will call FoFMem   1 times, MxPair=        42
 NAB=    21 NAA=     0 NBB=     0.
 DE(Corr)= -0.36593074     E(CORR)=     -436.92341136     Delta= 3.20D-07
 NORM(A)=   0.10850151D+01
 Iteration Nr.  11
 **********************
 DD1Dir will call FoFMem   1 times, MxPair=        42
 NAB=    21 NAA=     0 NBB=     0.
 DE(Corr)= -0.36593126     E(CORR)=     -436.92341188     Delta=-5.24D-07
 NORM(A)=   0.10850156D+01
 Iteration Nr.  12
 **********************
 DD1Dir will call FoFMem   1 times, MxPair=        42
 NAB=    21 NAA=     0 NBB=     0.
 DE(Corr)= -0.36593137     E(CORR)=     -436.92341199     Delta=-1.08D-07
 NORM(A)=   0.10850160D+01
 Iteration Nr.  13
 **********************
 DD1Dir will call FoFMem   1 times, MxPair=        42
 NAB=    21 NAA=     0 NBB=     0.
 DE(Corr)= -0.36593146     E(CORR)=     -436.92341208     Delta=-9.00D-08
 NORM(A)=   0.10850161D+01
 Iteration Nr.  14
 **********************
 DD1Dir will call FoFMem   1 times, MxPair=        42
 NAB=    21 NAA=     0 NBB=     0.
 DE(Corr)= -0.36593149     E(CORR)=     -436.92341211     Delta=-2.93D-08
 NORM(A)=   0.10850162D+01
 Iteration Nr.  15
 **********************
 DD1Dir will call FoFMem   1 times, MxPair=        42
 NAB=    21 NAA=     0 NBB=     0.
 DE(Corr)= -0.36593150     E(CORR)=     -436.92341212     Delta=-9.10D-09
 NORM(A)=   0.10850162D+01
 Wavefunction amplitudes converged. E(Corr)=     -436.92341212    
 Dominant configurations:
 ***********************
 Spin Case        I    J    A    B          Value
   ABAB          11   11   14   14      -0.114485D+00
 Largest amplitude= 1.14D-01

 Z-amplitude iterations

 Iteration Nr.   1
 **********************
 DD1Dir will call FoFMem   1 times, MxPair=        42
 NAB=    21 NAA=     0 NBB=     0.
 DE(Z)= -0.34991367     E(Z)=     -436.90739429     Delta= 1.60D-02
 NORM(A)=   0.10850028D+01
 Iteration Nr.   2
 **********************
 DD1Dir will call FoFMem   1 times, MxPair=        42
 NAB=    21 NAA=     0 NBB=     0.
 DE(Z)= -0.34991307     E(Z)=     -436.90739369     Delta= 6.01D-07
 NORM(A)=   0.10850077D+01
 Iteration Nr.   3
 **********************
 DD1Dir will call FoFMem   1 times, MxPair=        42
 NAB=    21 NAA=     0 NBB=     0.
 DE(Z)= -0.34991327     E(Z)=     -436.90739389     Delta=-2.04D-07
 NORM(A)=   0.10850001D+01
 Iteration Nr.   4
 **********************
 DD1Dir will call FoFMem   1 times, MxPair=        42
 NAB=    21 NAA=     0 NBB=     0.
 DE(Z)= -0.34991292     E(Z)=     -436.90739354     Delta= 3.53D-07
 NORM(A)=   0.10849952D+01
 Iteration Nr.   5
 **********************
 DD1Dir will call FoFMem   1 times, MxPair=        42
 NAB=    21 NAA=     0 NBB=     0.
 DE(Z)= -0.34991267     E(Z)=     -436.90739329     Delta= 2.46D-07
 NORM(A)=   0.10768004D+01
 Iteration Nr.   6
 **********************
 DD1Dir will call FoFMem   1 times, MxPair=        42
 NAB=    21 NAA=     0 NBB=     0.
 DE(Z)= -0.34951349     E(Z)=     -436.90699411     Delta= 3.99D-04
 NORM(A)=   0.10767968D+01
 Iteration Nr.   7
 **********************
 DD1Dir will call FoFMem   1 times, MxPair=        42
 NAB=    21 NAA=     0 NBB=     0.
 DE(Z)= -0.34951264     E(Z)=     -436.90699326     Delta= 8.50D-07
 NORM(A)=   0.10767939D+01
 Iteration Nr.   8
 **********************
 DD1Dir will call FoFMem   1 times, MxPair=        42
 NAB=    21 NAA=     0 NBB=     0.
 DE(Z)= -0.34951247     E(Z)=     -436.90699309     Delta= 1.70D-07
 NORM(A)=   0.10767935D+01
 Iteration Nr.   9
 **********************
 DD1Dir will call FoFMem   1 times, MxPair=        42
 NAB=    21 NAA=     0 NBB=     0.
 DE(Z)= -0.34951228     E(Z)=     -436.90699290     Delta= 1.93D-07
 NORM(A)=   0.10767935D+01
 Iteration Nr.  10
 **********************
 DD1Dir will call FoFMem   1 times, MxPair=        42
 NAB=    21 NAA=     0 NBB=     0.
 DE(Z)= -0.34951231     E(Z)=     -436.90699293     Delta=-3.15D-08
 NORM(A)=   0.10767936D+01
 Iteration Nr.  11
 **********************
 DD1Dir will call FoFMem   1 times, MxPair=        42
 NAB=    21 NAA=     0 NBB=     0.
 DE(Z)= -0.34951231     E(Z)=     -436.90699293     Delta=-5.67D-09
 NORM(A)=   0.10767936D+01
 Z-amplitudes converged.
 Discarding MO integrals.
          Differentiating once with respect to electric field.
                with respect to dipole field.
          Electric field/nuclear overlap derivatives assumed to be zero.
 Keep R1 ints in memory in canonical form, NReq=59475126.
          There are     1 degrees of freedom in the 1st order CPHF.  IDoFFX=0 NUNeed=     1.
 LinEq1:  Iter=  0 NonCon=     1 RMS=2.95D-03 Max=4.36D-02 NDo=     1
 AX will form     1 AO Fock derivatives at one time.
 LinEq1:  Iter=  1 NonCon=     1 RMS=9.86D-04 Max=1.21D-02 NDo=     1
 LinEq1:  Iter=  2 NonCon=     1 RMS=4.76D-04 Max=1.32D-02 NDo=     1
 LinEq1:  Iter=  3 NonCon=     1 RMS=1.60D-04 Max=2.44D-03 NDo=     1
 LinEq1:  Iter=  4 NonCon=     1 RMS=3.99D-05 Max=5.26D-04 NDo=     1
 LinEq1:  Iter=  5 NonCon=     1 RMS=8.74D-06 Max=9.99D-05 NDo=     1
 LinEq1:  Iter=  6 NonCon=     1 RMS=1.55D-06 Max=2.20D-05 NDo=     1
 LinEq1:  Iter=  7 NonCon=     1 RMS=2.01D-07 Max=2.70D-06 NDo=     1
 LinEq1:  Iter=  8 NonCon=     1 RMS=2.32D-08 Max=2.27D-07 NDo=     1
 LinEq1:  Iter=  9 NonCon=     1 RMS=3.71D-09 Max=3.77D-08 NDo=     1
 LinEq1:  Iter= 10 NonCon=     1 RMS=5.22D-10 Max=5.83D-09 NDo=     1
 LinEq1:  Iter= 11 NonCon=     0 RMS=6.73D-11 Max=6.57D-10 NDo=     1
 Linear equations converged to 1.000D-10 1.000D-09 after    11 iterations.
 End of Minotr F.D. properties file   721 does not exist.
 End of Minotr F.D. properties file   722 does not exist.
 End of Minotr F.D. properties file   788 does not exist.

 **********************************************************************

            Population analysis using the CC Density.

 **********************************************************************

 Alpha  occ. eigenvalues --  -91.95648 -11.32123  -8.95856  -6.63917  -6.63891
 Alpha  occ. eigenvalues --   -6.63693  -1.06423  -0.81476  -0.64490  -0.54132
 Alpha  occ. eigenvalues --   -0.41771  -0.35260
 Alpha virt. eigenvalues --    0.02840   0.03496   0.04269   0.06130   0.09229
 Alpha virt. eigenvalues --    0.10419   0.11645   0.13132   0.13507   0.14770
 Alpha virt. eigenvalues --    0.19858   0.21665   0.23070   0.24352   0.27036
 Alpha virt. eigenvalues --    0.29043   0.30909   0.31753   0.32523   0.34393
 Alpha virt. eigenvalues --    0.37582   0.38356   0.38571   0.40184   0.41299
 Alpha virt. eigenvalues --    0.43218   0.44711   0.45175   0.47146   0.48717
 Alpha virt. eigenvalues --    0.56393   0.62029   0.65216   0.66046   0.67763
 Alpha virt. eigenvalues --    0.74937   0.75459   0.76848   0.78912   0.80718
 Alpha virt. eigenvalues --    0.83314   0.84781   0.85065   0.87305   0.87808
 Alpha virt. eigenvalues --    0.89461   0.89812   0.96020   0.97142   0.97249
 Alpha virt. eigenvalues --    0.99517   0.99992   1.02045   1.08602   1.10757
 Alpha virt. eigenvalues --    1.10891   1.12565   1.13451   1.14034   1.16693
 Alpha virt. eigenvalues --    1.24545   1.30179   1.34170   1.42630   1.49888
 Alpha virt. eigenvalues --    1.52804   1.54992   1.58335   1.58364   1.59043
 Alpha virt. eigenvalues --    1.61734   1.65194   1.80241   1.87892   1.88916
 Alpha virt. eigenvalues --    2.01806   2.02768   2.02841   2.05435   2.09002
 Alpha virt. eigenvalues --    2.09761   2.13364   2.17898   2.34476   2.35664
 Alpha virt. eigenvalues --    2.39342   2.40512   2.42325   2.47515   2.50456
 Alpha virt. eigenvalues --    2.57229   2.69105   2.71722   2.89311   3.00852
 Alpha virt. eigenvalues --    3.04228   3.12179   3.19038   3.23525   3.46727
 Alpha virt. eigenvalues --    3.57831   3.59598   3.64385   3.67266   3.69164
 Alpha virt. eigenvalues --    3.80128   3.83567   3.85300   3.90262   3.92783
 Alpha virt. eigenvalues --    4.05390   4.10390   4.25226   4.40579   4.41856
 Alpha virt. eigenvalues --    4.45046   4.68557   4.73730   4.74341   5.07103
 Alpha virt. eigenvalues --    5.12368   5.24700   5.25325   5.29680   5.51281
 Alpha virt. eigenvalues --    5.84326   5.94743   6.48102   6.60392  15.24185
          Condensed to atoms (all electrons):
               1          2          3          4
     1  C    6.184898   0.274368   0.189017   0.177647
     2  S    0.274368  16.028283  -0.118517  -0.118659
     3  H    0.189017  -0.118517   0.654898  -0.160188
     4  H    0.177647  -0.118659  -0.160188   0.644585
 Mulliken charges:
               1
     1  C   -0.825930
     2  S   -0.065475
     3  H    0.434790
     4  H    0.456615
 Sum of Mulliken charges =  -0.00000
 Mulliken charges with hydrogens summed into heavy atoms:
               1
     1  C    0.065475
     2  S   -0.065475
 Electronic spatial extent (au):  <R**2>=            130.2881
 Charge=             -0.0000 electrons
 Dipole moment (field-independent basis, Debye):
    X=             -0.0000    Y=              0.0079    Z=             -1.7521  Tot=              1.7521
 Quadrupole moment (field-independent basis, Debye-Ang):
   XX=            -19.9780   YY=            -20.5751   ZZ=            -18.9729
   XY=              0.0000   XZ=              0.0000   YZ=             -0.0478
 Traceless Quadrupole moment (field-independent basis, Debye-Ang):
   XX=             -0.1360   YY=             -0.7331   ZZ=              0.8691
   XY=              0.0000   XZ=              0.0000   YZ=             -0.0478
 Octapole moment (field-independent basis, Debye-Ang**2):
  XXX=             -0.0000  YYY=             -0.1365  ZZZ=            -27.6803  XYY=             -0.0000
  XXY=             -0.0424  XXZ=             -8.5632  XZZ=              0.0000  YZZ=             -0.0614
  YYZ=            -13.1329  XYZ=             -0.0000
 Hexadecapole moment (field-independent basis, Debye-Ang**3):
 XXXX=            -25.3177 YYYY=            -35.1193 ZZZZ=           -127.3641 XXXY=              0.0000
 XXXZ=              0.0000 YYYX=              0.0000 YYYZ=             -0.0030 ZZZX=              0.0000
 ZZZY=             -0.1566 XXYY=            -10.5021 XXZZ=            -25.3326 YYZZ=            -29.5537
 XXYZ=             -0.0122 YYXZ=              0.0000 ZZXY=             -0.0000
 N-N= 4.470366816017D+01 E-N=-1.127362720402D+03  KE= 4.368675641892D+02
 There are a total of       91844 grid points.
 ElSum from          density=       24.0000001098
 ElSum from atomic densities=       24.0000001546

 Hirshfeld populations at iteration   1 (CX, CA, CB, DipXYZ):
               1          2          3          4          5          6
     1  C    0.000000   3.004456   3.004456   0.000000   0.004485  -0.150112
     2  S    0.000013   8.044543   8.044543   0.000000  -0.002705   0.035464
     3  H    0.000004   0.475673   0.475673   0.000000  -0.129855  -0.096673
     4  H    0.000004   0.475329   0.475329  -0.000000   0.130159  -0.099783
       Tot   0.000022  12.000000  12.000000   0.000000   0.002085  -0.311104

 Dip from Atomic Chgs              0.000000   0.001031  -0.378238
         Total Dipole              0.000000   0.003115  -0.689342

 Hirshfeld charges, spin densities, dipoles, and CM5 charges using IRadAn=      5:
              Q-H        S-H        Dx         Dy         Dz        Q-CM5   
     1  C   -0.008912   0.000000   0.000000   0.004485  -0.150112  -0.087080
     2  S   -0.089086   0.000000   0.000000  -0.002705   0.035464  -0.117467
     3  H    0.048655   0.000000   0.000000  -0.129855  -0.096673   0.100916
     4  H    0.049343   0.000000  -0.000000   0.130159  -0.099783   0.103631
       Tot  -0.000000   0.000000   0.000000   0.002085  -0.311104  -0.000000
 Hirshfeld charges with hydrogens summed into heavy atoms:
              Q-H       Q-CM5   
     1  C    0.089086   0.117467
     2  S   -0.089086  -0.117467
 
 EQQ= 0.000000000000E+00 EQD= 0.000000000000E+00 EDD= 0.298035612354E-02
 EQQ+QD+DD= 0.298035612354E-02
 
 Breneman (CHELPG) radii used.
 Generate Potential Derived Charges using the Breneman model, NDens= 1.
 Grid spacing= 0.300 Box extension= 2.800
 NStep X,Y,Z=   20     26     27   Total possible points=       14040
 Number of Points to Fit=    4704

 **********************************************************************

            Electrostatic Properties Using The CC Density.

 **********************************************************************

       Atomic Center    1 is at   0.000000  0.010000 -0.555291
       Atomic Center    2 is at   0.000000  0.000000  1.060374
       Atomic Center    3 is at   0.000000 -0.922280 -1.128992
       Atomic Center    4 is at   0.000000  0.922280 -1.128992
    4704 points will be used for fitting atomic charges
 Fitting point charges to electrostatic potential
 The dipole moment will be constrained to the correct value
 Charges from ESP fit, RMS=   0.00537 RRMS=   0.40317:
 ESP charges:
               1
     1  C   -0.022312
     2  S   -0.160769
     3  H    0.090526
     4  H    0.092556
 Sum of ESP charges =   0.00000
 ESP charges with hydrogens summed into heavy atoms:
               1
     1  C    0.160769
     2  S   -0.160769
 Charge=   0.00000 Dipole=     0.0000     0.0079    -1.7521 Tot=     1.7521
 -----------------------------------------------------------------

              Electrostatic Properties (Atomic Units)

 -----------------------------------------------------------------
    Center     Electric         -------- Electric Field --------
               Potential          X             Y             Z
 -----------------------------------------------------------------
    1 Atom    -14.689384
    2 Atom    -59.229713
    3 Atom     -1.071592
    4 Atom     -1.072054
 -----------------------------------------------------------------
 ******************************Gaussian NBO Version 3.1******************************
             N A T U R A L   A T O M I C   O R B I T A L   A N D
          N A T U R A L   B O N D   O R B I T A L   A N A L Y S I S
 ******************************Gaussian NBO Version 3.1******************************
       /RESON  / : Allow strongly delocalized NBO set

 Analyzing the QCI/CC density

 Job title: h2cs-wavefunction                                               

 Storage needed:     61222 in NPA (2147483536 available)
 GSVD:  LWork=        -636 too small for GESVD, short by       41336 words or       41336 for optimal perf.


 NATURAL POPULATIONS:  Natural atomic orbital occupancies 
                                                          
   NAO  Atom  No  lang   Type(AO)    Occupancy
 --------------------------------------------
     1    C    1  S      Cor( 1S)     1.99939
     2    C    1  S      Val( 2S)     1.18127
     3    C    1  S      Ryd( 3S)     0.00806
     4    C    1  S      Ryd( 4S)     0.00050
     5    C    1  S      Ryd( 5S)     0.00007
     6    C    1  px     Val( 2p)     0.88304
     7    C    1  px     Ryd( 3p)     0.00620
     8    C    1  px     Ryd( 5p)     0.00023
     9    C    1  px     Ryd( 4p)     0.00028
    10    C    1  py     Val( 2p)     1.17589
    11    C    1  py     Ryd( 3p)     0.00609
    12    C    1  py     Ryd( 4p)     0.00045
    13    C    1  py     Ryd( 5p)     0.00031
    14    C    1  pz     Val( 2p)     1.10011
    15    C    1  pz     Ryd( 3p)     0.00712
    16    C    1  pz     Ryd( 4p)     0.00028
    17    C    1  pz     Ryd( 5p)     0.00008
    18    C    1  dxy    Ryd( 3d)     0.00626
    19    C    1  dxy    Ryd( 4d)     0.00025
    20    C    1  dxy    Ryd( 5d)     0.00012
    21    C    1  dxz    Ryd( 3d)     0.00970
    22    C    1  dxz    Ryd( 4d)     0.00026
    23    C    1  dxz    Ryd( 5d)     0.00011
    24    C    1  dyz    Ryd( 3d)     0.01134
    25    C    1  dyz    Ryd( 4d)     0.00028
    26    C    1  dyz    Ryd( 5d)     0.00024
    27    C    1  dx2y2  Ryd( 3d)     0.00766
    28    C    1  dx2y2  Ryd( 4d)     0.00030
    29    C    1  dx2y2  Ryd( 5d)     0.00011
    30    C    1  dz2    Ryd( 3d)     0.01232
    31    C    1  dz2    Ryd( 4d)     0.00030
    32    C    1  dz2    Ryd( 5d)     0.00013
    33    C    1  f(0)   Ryd( 4f)     0.00060
    34    C    1  f(0)   Ryd( 5f)     0.00008
    35    C    1  f(C1)  Ryd( 4f)     0.00056
    36    C    1  f(C1)  Ryd( 5f)     0.00012
    37    C    1  f(S1)  Ryd( 4f)     0.00065
    38    C    1  f(S1)  Ryd( 5f)     0.00012
    39    C    1  f(C2)  Ryd( 4f)     0.00083
    40    C    1  f(C2)  Ryd( 5f)     0.00011
    41    C    1  f(S2)  Ryd( 4f)     0.00065
    42    C    1  f(S2)  Ryd( 5f)     0.00014
    43    C    1  f(C3)  Ryd( 4f)     0.00048
    44    C    1  f(C3)  Ryd( 5f)     0.00013
    45    C    1  f(S3)  Ryd( 4f)     0.00069
    46    C    1  f(S3)  Ryd( 5f)     0.00012

    47    S    2  S      Cor( 1S)     2.00000
    48    S    2  S      Cor( 2S)     1.99900
    49    S    2  S      Val( 3S)     1.72850
    50    S    2  S      Ryd( 4S)     0.01581
    51    S    2  S      Ryd( 5S)     0.00041
    52    S    2  S      Ryd( 6S)     0.00011
    53    S    2  px     Cor( 2p)     1.99986
    54    S    2  px     Val( 3p)     1.08408
    55    S    2  px     Ryd( 4p)     0.00431
    56    S    2  px     Ryd( 5p)     0.00031
    57    S    2  px     Ryd( 6p)     0.00002
    58    S    2  py     Cor( 2p)     2.00000
    59    S    2  py     Val( 3p)     1.87197
    60    S    2  py     Ryd( 4p)     0.01449
    61    S    2  py     Ryd( 5p)     0.00055
    62    S    2  py     Ryd( 6p)     0.00005
    63    S    2  pz     Cor( 2p)     1.99973
    64    S    2  pz     Val( 3p)     1.07833
    65    S    2  pz     Ryd( 4p)     0.00647
    66    S    2  pz     Ryd( 5p)     0.00041
    67    S    2  pz     Ryd( 6p)     0.00004
    68    S    2  dxy    Ryd( 3d)     0.01720
    69    S    2  dxy    Ryd( 4d)     0.00057
    70    S    2  dxy    Ryd( 5d)     0.00006
    71    S    2  dxz    Ryd( 3d)     0.01853
    72    S    2  dxz    Ryd( 4d)     0.00033
    73    S    2  dxz    Ryd( 5d)     0.00007
    74    S    2  dyz    Ryd( 3d)     0.01396
    75    S    2  dyz    Ryd( 4d)     0.00049
    76    S    2  dyz    Ryd( 5d)     0.00027
    77    S    2  dx2y2  Ryd( 3d)     0.01636
    78    S    2  dx2y2  Ryd( 4d)     0.00060
    79    S    2  dx2y2  Ryd( 5d)     0.00006
    80    S    2  dz2    Ryd( 3d)     0.02342
    81    S    2  dz2    Ryd( 4d)     0.00031
    82    S    2  dz2    Ryd( 5d)     0.00016
    83    S    2  f(0)   Ryd( 4f)     0.00133
    84    S    2  f(0)   Ryd( 5f)     0.00018
    85    S    2  f(C1)  Ryd( 4f)     0.00100
    86    S    2  f(C1)  Ryd( 5f)     0.00013
    87    S    2  f(S1)  Ryd( 4f)     0.00123
    88    S    2  f(S1)  Ryd( 5f)     0.00017
    89    S    2  f(C2)  Ryd( 4f)     0.00125
    90    S    2  f(C2)  Ryd( 5f)     0.00013
    91    S    2  f(S2)  Ryd( 4f)     0.00132
    92    S    2  f(S2)  Ryd( 5f)     0.00011
    93    S    2  f(C3)  Ryd( 4f)     0.00151
    94    S    2  f(C3)  Ryd( 5f)     0.00011
    95    S    2  f(S3)  Ryd( 4f)     0.00151
    96    S    2  f(S3)  Ryd( 5f)     0.00012

    97    H    3  S      Val( 1S)     0.82247
    98    H    3  S      Ryd( 2S)     0.00299
    99    H    3  S      Ryd( 3S)     0.00016
   100    H    3  S      Ryd( 4S)     0.00006
   101    H    3  px     Ryd( 2p)     0.00094
   102    H    3  px     Ryd( 3p)     0.00051
   103    H    3  px     Ryd( 4p)     0.00007
   104    H    3  py     Ryd( 2p)     0.00150
   105    H    3  py     Ryd( 3p)     0.00037
   106    H    3  py     Ryd( 4p)     0.00022
   107    H    3  pz     Ryd( 2p)     0.00287
   108    H    3  pz     Ryd( 3p)     0.00048
   109    H    3  pz     Ryd( 4p)     0.00016
   110    H    3  dxy    Ryd( 4d)     0.00006
   111    H    3  dxy    Ryd( 3d)     0.00007
   112    H    3  dxz    Ryd( 3d)     0.00010
   113    H    3  dxz    Ryd( 4d)     0.00005
   114    H    3  dyz    Ryd( 4d)     0.00009
   115    H    3  dyz    Ryd( 3d)     0.00009
   116    H    3  dx2y2  Ryd( 3d)     0.00011
   117    H    3  dx2y2  Ryd( 4d)     0.00009
   118    H    3  dz2    Ryd( 3d)     0.00009
   119    H    3  dz2    Ryd( 4d)     0.00006

   120    H    4  S      Val( 1S)     0.82432
   121    H    4  S      Ryd( 2S)     0.00308
   122    H    4  S      Ryd( 3S)     0.00016
   123    H    4  S      Ryd( 4S)     0.00006
   124    H    4  px     Ryd( 2p)     0.00093
   125    H    4  px     Ryd( 3p)     0.00050
   126    H    4  px     Ryd( 4p)     0.00007
   127    H    4  py     Ryd( 2p)     0.00148
   128    H    4  py     Ryd( 3p)     0.00038
   129    H    4  py     Ryd( 4p)     0.00023
   130    H    4  pz     Ryd( 2p)     0.00279
   131    H    4  pz     Ryd( 3p)     0.00047
   132    H    4  pz     Ryd( 4p)     0.00017
   133    H    4  dxy    Ryd( 3d)     0.00007
   134    H    4  dxy    Ryd( 4d)     0.00006
   135    H    4  dxz    Ryd( 3d)     0.00010
   136    H    4  dxz    Ryd( 4d)     0.00005
   137    H    4  dyz    Ryd( 4d)     0.00008
   138    H    4  dyz    Ryd( 3d)     0.00009
   139    H    4  dx2y2  Ryd( 3d)     0.00010
   140    H    4  dx2y2  Ryd( 4d)     0.00009
   141    H    4  dz2    Ryd( 3d)     0.00009
   142    H    4  dz2    Ryd( 4d)     0.00006

 WARNING:  1 low occupancy (<1.9990e) core orbital  found on  S    2


 Summary of Natural Population Analysis:                  
                                                          
                                       Natural Population 
                Natural  -----------------------------------------------
    Atom  No    Charge         Core      Valence    Rydberg      Total
 -----------------------------------------------------------------------
      C    1   -0.42404      1.99939     4.34030    0.08435     6.42404
      S    2    0.09308      9.99859     5.76288    0.14545    15.90692
      H    3    0.16641      0.00000     0.82247    0.01112     0.83359
      H    4    0.16454      0.00000     0.82432    0.01114     0.83546
 =======================================================================
   * Total *   -0.00000     11.99798    11.74997    0.25205    24.00000

                                 Natural Population      
 --------------------------------------------------------
   Core                      11.99798 ( 99.9831% of  12)
   Valence                   11.74997 ( 97.9164% of  12)
   Natural Minimal Basis     23.74795 ( 98.9498% of  24)
   Natural Rydberg Basis      0.25205 (  1.0502% of  24)
 --------------------------------------------------------

    Atom  No          Natural Electron Configuration
 ----------------------------------------------------------------------------
      C    1      [core]2S( 1.18)2p( 3.16)3S( 0.01)3p( 0.02)3d( 0.05)
      S    2      [core]3S( 1.73)3p( 4.03)4S( 0.02)3d( 0.09)4p( 0.03)4f( 0.01)
      H    3            1S( 0.82)2p( 0.01)
      H    4            1S( 0.82)2p( 0.01)


 NBO analysis skipped by request.
 Unable to Open any file for archive entry.
 1\1\GINC-TRAPISTA\SP\RQCISD-FC\Aug-CC-pVTZ\C1H2S1\WAGNER\02-Sep-2022\0
 \\# qcisd/aug-cc-pvtz nosymm density=current pop=(chelpg,hirshfeld,npa
 ,dipole)\\h2cs-wavefunction\\0,1\C,0,0.,0.01,-0.555291\S,0,0.,0.,1.060
 374\H,0,0.,-0.92228,-1.128992\H,0,0.,0.92228,-1.128992\\Version=EM64L-
 G16RevC.01\HF=-436.5574806\MP2=-436.8983552\MP3=-436.9211672\MP4D=-436
 .9311877\MP4DQ=-436.9195239\MP4SDQ=-436.9230072\QCISD=-436.9234121\RMS
 D=2.923e-09\Dipole=0.,0.0031154,-0.6893412\Quadrupole=-0.101128,-0.545
 0567,0.6461847,0.,0.,-0.0355329\PG=CS [SG(C1H2S1)]\\@
 The archive entry for this job was punched.


 Some scientists claim that hydrogen, because it is so
 plentiful, is the basic building block of the universe. 
 I dispute that. I say that stupidity is far more
 abundant than hydrogen, and THAT is the basic building 
 block of the universe.
                   --Frank Zappa
 Job cpu time:       0 days  1 hours 35 minutes 19.7 seconds.
 Elapsed time:       0 days  0 hours  6 minutes  2.3 seconds.
 File lengths (MBytes):  RWF=   7177 Int=      0 D2E=      0 Chk=      3 Scr=      1
 Normal termination of Gaussian 16 at Fri Sep  2 20:36:41 2022.
