 Entering Gaussian System, Link 0=/home/wagner/chemistry/gaussian/g16/g16
 Input=GAUSSIAN.com
 Output=GAUSSIAN.log
 Initial command:
 /home/wagner/chemistry/gaussian/g16/l1.exe "/home/wagner/chemistry/gaussian/work/Gau-72723.inp" -scrdir="/home/wagner/chemistry/gaussian/work/"
 Entering Link 1 = /home/wagner/chemistry/gaussian/g16/l1.exe PID=     72725.
  
 Copyright (c) 1988-2019, Gaussian, Inc.  All Rights Reserved.
  
 This is part of the Gaussian(R) 16 program.  It is based on
 the Gaussian(R) 09 system (copyright 2009, Gaussian, Inc.),
 the Gaussian(R) 03 system (copyright 2003, Gaussian, Inc.),
 the Gaussian(R) 98 system (copyright 1998, Gaussian, Inc.),
 the Gaussian(R) 94 system (copyright 1995, Gaussian, Inc.),
 the Gaussian 92(TM) system (copyright 1992, Gaussian, Inc.),
 the Gaussian 90(TM) system (copyright 1990, Gaussian, Inc.),
 the Gaussian 88(TM) system (copyright 1988, Gaussian, Inc.),
 the Gaussian 86(TM) system (copyright 1986, Carnegie Mellon
 University), and the Gaussian 82(TM) system (copyright 1983,
 Carnegie Mellon University). Gaussian is a federally registered
 trademark of Gaussian, Inc.
  
 This software contains proprietary and confidential information,
 including trade secrets, belonging to Gaussian, Inc.
  
 This software is provided under written license and may be
 used, copied, transmitted, or stored only in accord with that
 written license.
  
 The following legend is applicable only to US Government
 contracts under FAR:
  
                    RESTRICTED RIGHTS LEGEND
  
 Use, reproduction and disclosure by the US Government is
 subject to restrictions as set forth in subparagraphs (a)
 and (c) of the Commercial Computer Software - Restricted
 Rights clause in FAR 52.227-19.
  
 Gaussian, Inc.
 340 Quinnipiac St., Bldg. 40, Wallingford CT 06492
  
  
 ---------------------------------------------------------------
 Warning -- This program may not be used in any manner that
 competes with the business of Gaussian, Inc. or will provide
 assistance to any competitor of Gaussian, Inc.  The licensee
 of this program is prohibited from giving any competitor of
 Gaussian, Inc. access to this program.  By using this program,
 the user acknowledges that Gaussian, Inc. is engaged in the
 business of creating and licensing software in the field of
 computational chemistry and represents and warrants to the
 licensee that it is not a competitor of Gaussian, Inc. and that
 it will not use this program in any manner prohibited above.
 ---------------------------------------------------------------
  

 Cite this work as:
 Gaussian 16, Revision C.01,
 M. J. Frisch, G. W. Trucks, H. B. Schlegel, G. E. Scuseria, 
 M. A. Robb, J. R. Cheeseman, G. Scalmani, V. Barone, 
 G. A. Petersson, H. Nakatsuji, X. Li, M. Caricato, A. V. Marenich, 
 J. Bloino, B. G. Janesko, R. Gomperts, B. Mennucci, H. P. Hratchian, 
 J. V. Ortiz, A. F. Izmaylov, J. L. Sonnenberg, D. Williams-Young, 
 F. Ding, F. Lipparini, F. Egidi, J. Goings, B. Peng, A. Petrone, 
 T. Henderson, D. Ranasinghe, V. G. Zakrzewski, J. Gao, N. Rega, 
 G. Zheng, W. Liang, M. Hada, M. Ehara, K. Toyota, R. Fukuda, 
 J. Hasegawa, M. Ishida, T. Nakajima, Y. Honda, O. Kitao, H. Nakai, 
 T. Vreven, K. Throssell, J. A. Montgomery, Jr., J. E. Peralta, 
 F. Ogliaro, M. J. Bearpark, J. J. Heyd, E. N. Brothers, K. N. Kudin, 
 V. N. Staroverov, T. A. Keith, R. Kobayashi, J. Normand, 
 K. Raghavachari, A. P. Rendell, J. C. Burant, S. S. Iyengar, 
 J. Tomasi, M. Cossi, J. M. Millam, M. Klene, C. Adamo, R. Cammi, 
 J. W. Ochterski, R. L. Martin, K. Morokuma, O. Farkas, 
 J. B. Foresman, and D. J. Fox, Gaussian, Inc., Wallingford CT, 2019.
 
 ******************************************
 Gaussian 16:  EM64L-G16RevC.01  3-Jul-2019
                 2-Sep-2022 
 ******************************************
 %nproc=16
 Will use up to   16 processors via shared memory.
 %mem=16GB
 ----------------------------------------------------------------------
 # qcisd/aug-cc-pvtz nosymm density=current pop=(chelpg,hirshfeld,npa,d
 ipole)
 ----------------------------------------------------------------------
 1/30=1,38=1,172=1/1;
 2/12=2,15=1,17=6,18=5,40=1/2;
 3/5=16,6=1,7=10,11=9,25=1,30=1,71=1/1,2,3;
 4//1;
 5/5=2,38=5/2;
 8/6=4,9=120000,10=1/1,4;
 9/5=8,15=1/13;
 11/28=-7,31=1,32=3,42=3/11;
 10/5=6,13=10,31=1/2;
 6/7=2,8=2,9=2,10=2,15=24,20=3,22=-1,40=-1,79=1/1,2,7;
 99/5=1,9=1/99;
 -----------------
 h2cs-wavefunction
 -----------------
 Symbolic Z-matrix:
 Charge =  0 Multiplicity = 1
 C                     0.        0.       -0.55529 
 S                    -0.01      0.        1.06037 
 H                     0.       -0.92228  -1.12899 
 H                     0.        0.92228  -1.12899 
 
                          Input orientation:                          
 ---------------------------------------------------------------------
 Center     Atomic      Atomic             Coordinates (Angstroms)
 Number     Number       Type             X           Y           Z
 ---------------------------------------------------------------------
      1          6           0        0.000000    0.000000   -0.555291
      2         16           0       -0.010000    0.000000    1.060374
      3          1           0        0.000000   -0.922280   -1.128992
      4          1           0        0.000000    0.922280   -1.128992
 ---------------------------------------------------------------------
                    Distance matrix (angstroms):
                    1          2          3          4
     1  C    0.000000
     2  S    1.615696   0.000000
     3  H    1.086155   2.375715   0.000000
     4  H    1.086155   2.375715   1.844560   0.000000
 Symmetry turned off by external request.
 Stoichiometry    CH2S
 Framework group  CS[SG(CS),X(H2)]
 Deg. of freedom     4
 Full point group                 CS      NOp   2
 Rotational constants (GHZ):         294.7620640          17.6281225          16.6333918
 Standard basis: Aug-CC-pVTZ (5D, 7F)
   142 basis functions,   240 primitive gaussians,   164 cartesian basis functions
    12 alpha electrons       12 beta electrons
       nuclear repulsion energy        44.7033168337 Hartrees.
 NAtoms=    4 NActive=    4 NUniq=    4 SFac= 1.00D+00 NAtFMM=   60 NAOKFM=F Big=F
 Integral buffers will be    131072 words long.
 Raffenetti 1 integral format.
 Two-electron integral symmetry is turned off.
 One-electron integrals computed using PRISM.
 NBasis=   142 RedAO= T EigKep=  8.95D-05  NBF=   142
 NBsUse=   142 1.00D-06 EigRej= -1.00D+00 NBFU=   142
 ExpMin= 2.53D-02 ExpMax= 3.74D+05 ExpMxC= 1.18D+03 IAcc=3 IRadAn=         5 AccDes= 0.00D+00
 Harris functional with IExCor=  205 and IRadAn=       5 diagonalized for initial guess.
 HarFok:  IExCor=  205 AccDes= 0.00D+00 IRadAn=         5 IDoV= 1 UseB2=F ITyADJ=14
 ICtDFT=  3500011 ScaDFX=  1.000000  1.000000  1.000000  1.000000
 FoFCou: FMM=F IPFlag=           0 FMFlag=      100000 FMFlg1=           0
         NFxFlg=           0 DoJE=T BraDBF=F KetDBF=T FulRan=T
         wScrn=  0.000000 ICntrl=       500 IOpCl=  0 I1Cent=   200000004 NGrid=           0
         NMat0=    1 NMatS0=      1 NMatT0=    0 NMatD0=    1 NMtDS0=    0 NMtDT0=    0
 Symmetry not used in FoFCou.
 Keep R1 ints in memory in canonical form, NReq=59473533.
 Requested convergence on RMS density matrix=1.00D-08 within 128 cycles.
 Requested convergence on MAX density matrix=1.00D-06.
 Requested convergence on             energy=1.00D-06.
 No special actions if energy rises.
 SCF Done:  E(RHF) =  -436.557586631     A.U. after   12 cycles
            NFock= 12  Conv=0.30D-08     -V/T= 2.0003
 ExpMin= 2.53D-02 ExpMax= 3.74D+05 ExpMxC= 1.18D+03 IAcc=3 IRadAn=         5 AccDes= 0.00D+00
 HarFok:  IExCor=  205 AccDes= 0.00D+00 IRadAn=         5 IDoV=-2 UseB2=F ITyADJ=14
 ICtDFT= 12500011 ScaDFX=  1.000000  1.000000  1.000000  1.000000
 Range of M.O.s used for correlation:     7   142
 NBasis=   142 NAE=    12 NBE=    12 NFC=     6 NFV=     0
 NROrb=    136 NOA=     6 NOB=     6 NVA=   130 NVB=   130

 **** Warning!!: The largest alpha MO coefficient is  0.44111447D+02

 Semi-Direct transformation.
 ModeAB=           2 MOrb=             6 LenV=    2146810999
 LASXX=      7286295 LTotXX=     7286295 LenRXX=     7286295
 LTotAB=     7445736 MaxLAS=    11040480 LenRXY=    11040480
 NonZer=    14572590 LenScr=    22628352 LnRSAI=           0
 LnScr1=           0 LExtra=           0 Total=     40955127
 MaxDsk=          -1 SrtSym=           F ITran=            4
 JobTyp=0 Pass  1:  I=   1 to   6.
 (rs|ai) integrals will be sorted in core.
 Spin components of T(2) and E(2):
     alpha-alpha T2 =       0.1684019316D-01 E2=     -0.3867688457D-01
     alpha-beta  T2 =       0.1052183001D+00 E2=     -0.2635170727D+00
     beta-beta   T2 =       0.1684019316D-01 E2=     -0.3867688457D-01
 ANorm=    0.1067191963D+01
 E2 =    -0.3408708419D+00 EUMP2 =    -0.43689845747251D+03
 Keep R2 and R3 ints in memory in canonical form, NReq=111025316.
 CIDS: In Core Option IDoMem=           1.
 Iterations=  50 Convergence= 0.100D-07
 Produce multiple copies of IABC intergrals
 Iteration Nr.   1
 **********************
 DD1Dir will call FoFMem   1 times, MxPair=        42
 NAB=    21 NAA=     0 NBB=     0.
 MP4(R+Q)=  0.11663419D-01
 E3=       -0.22811985D-01        EUMP3=      -0.43692126946D+03
 E4(DQ)=    0.16434936D-02        UMP4(DQ)=   -0.43691962596D+03
 E4(SDQ)=  -0.18393883D-02        UMP4(SDQ)=  -0.43692310885D+03
 DE(Corr)= -0.35201941     E(Corr)=     -436.90960604    
 NORM(A)=   0.10738376D+01
 Iteration Nr.   2
 **********************
 DD1Dir will call FoFMem   1 times, MxPair=        42
 NAB=    21 NAA=     0 NBB=     0.
 DE(Corr)= -0.36344102     E(CORR)=     -436.92102765     Delta=-1.14D-02
 NORM(A)=   0.10812053D+01
 Iteration Nr.   3
 **********************
 DD1Dir will call FoFMem   1 times, MxPair=        42
 NAB=    21 NAA=     0 NBB=     0.
 DE(Corr)= -0.36436799     E(CORR)=     -436.92195462     Delta=-9.27D-04
 NORM(A)=   0.10836317D+01
 Iteration Nr.   4
 **********************
 DD1Dir will call FoFMem   1 times, MxPair=        42
 NAB=    21 NAA=     0 NBB=     0.
 DE(Corr)= -0.36569608     E(CORR)=     -436.92328271     Delta=-1.33D-03
 NORM(A)=   0.10846229D+01
 Iteration Nr.   5
 **********************
 DD1Dir will call FoFMem   1 times, MxPair=        42
 NAB=    21 NAA=     0 NBB=     0.
 DE(Corr)= -0.36589363     E(CORR)=     -436.92348026     Delta=-1.98D-04
 NORM(A)=   0.10849844D+01
 Iteration Nr.   6
 **********************
 DD1Dir will call FoFMem   1 times, MxPair=        42
 NAB=    21 NAA=     0 NBB=     0.
 DE(Corr)= -0.36592566     E(CORR)=     -436.92351229     Delta=-3.20D-05
 NORM(A)=   0.10849991D+01
 Iteration Nr.   7
 **********************
 DD1Dir will call FoFMem   1 times, MxPair=        42
 NAB=    21 NAA=     0 NBB=     0.
 DE(Corr)= -0.36592705     E(CORR)=     -436.92351368     Delta=-1.40D-06
 NORM(A)=   0.10850107D+01
 Iteration Nr.   8
 **********************
 DD1Dir will call FoFMem   1 times, MxPair=        42
 NAB=    21 NAA=     0 NBB=     0.
 DE(Corr)= -0.36592410     E(CORR)=     -436.92351073     Delta= 2.96D-06
 NORM(A)=   0.10850098D+01
 Iteration Nr.   9
 **********************
 DD1Dir will call FoFMem   1 times, MxPair=        42
 NAB=    21 NAA=     0 NBB=     0.
 DE(Corr)= -0.36592655     E(CORR)=     -436.92351318     Delta=-2.45D-06
 NORM(A)=   0.10850110D+01
 Iteration Nr.  10
 **********************
 DD1Dir will call FoFMem   1 times, MxPair=        42
 NAB=    21 NAA=     0 NBB=     0.
 DE(Corr)= -0.36592622     E(CORR)=     -436.92351286     Delta= 3.20D-07
 NORM(A)=   0.10850118D+01
 Iteration Nr.  11
 **********************
 DD1Dir will call FoFMem   1 times, MxPair=        42
 NAB=    21 NAA=     0 NBB=     0.
 DE(Corr)= -0.36592675     E(CORR)=     -436.92351338     Delta=-5.24D-07
 NORM(A)=   0.10850124D+01
 Iteration Nr.  12
 **********************
 DD1Dir will call FoFMem   1 times, MxPair=        42
 NAB=    21 NAA=     0 NBB=     0.
 DE(Corr)= -0.36592686     E(CORR)=     -436.92351349     Delta=-1.08D-07
 NORM(A)=   0.10850128D+01
 Iteration Nr.  13
 **********************
 DD1Dir will call FoFMem   1 times, MxPair=        42
 NAB=    21 NAA=     0 NBB=     0.
 DE(Corr)= -0.36592695     E(CORR)=     -436.92351358     Delta=-9.00D-08
 NORM(A)=   0.10850129D+01
 Iteration Nr.  14
 **********************
 DD1Dir will call FoFMem   1 times, MxPair=        42
 NAB=    21 NAA=     0 NBB=     0.
 DE(Corr)= -0.36592698     E(CORR)=     -436.92351361     Delta=-2.94D-08
 NORM(A)=   0.10850130D+01
 Iteration Nr.  15
 **********************
 DD1Dir will call FoFMem   1 times, MxPair=        42
 NAB=    21 NAA=     0 NBB=     0.
 DE(Corr)= -0.36592699     E(CORR)=     -436.92351362     Delta=-9.02D-09
 NORM(A)=   0.10850130D+01
 Wavefunction amplitudes converged. E(Corr)=     -436.92351362    
 Dominant configurations:
 ***********************
 Spin Case        I    J    A    B          Value
   ABAB          11   11   14   14      -0.114481D+00
 Largest amplitude= 1.14D-01

 Z-amplitude iterations

 Iteration Nr.   1
 **********************
 DD1Dir will call FoFMem   1 times, MxPair=        42
 NAB=    21 NAA=     0 NBB=     0.
 DE(Z)= -0.34990993     E(Z)=     -436.90749656     Delta= 1.60D-02
 NORM(A)=   0.10849988D+01
 Iteration Nr.   2
 **********************
 DD1Dir will call FoFMem   1 times, MxPair=        42
 NAB=    21 NAA=     0 NBB=     0.
 DE(Z)= -0.34990929     E(Z)=     -436.90749592     Delta= 6.40D-07
 NORM(A)=   0.10850024D+01
 Iteration Nr.   3
 **********************
 DD1Dir will call FoFMem   1 times, MxPair=        42
 NAB=    21 NAA=     0 NBB=     0.
 DE(Z)= -0.34990944     E(Z)=     -436.90749607     Delta=-1.50D-07
 NORM(A)=   0.10849954D+01
 Iteration Nr.   4
 **********************
 DD1Dir will call FoFMem   1 times, MxPair=        42
 NAB=    21 NAA=     0 NBB=     0.
 DE(Z)= -0.34990911     E(Z)=     -436.90749574     Delta= 3.27D-07
 NORM(A)=   0.10849976D+01
 Iteration Nr.   5
 **********************
 DD1Dir will call FoFMem   1 times, MxPair=        42
 NAB=    21 NAA=     0 NBB=     0.
 DE(Z)= -0.34990920     E(Z)=     -436.90749583     Delta=-8.68D-08
 NORM(A)=   0.10767971D+01
 Iteration Nr.   6
 **********************
 DD1Dir will call FoFMem   1 times, MxPair=        42
 NAB=    21 NAA=     0 NBB=     0.
 DE(Z)= -0.34950986     E(Z)=     -436.90709649     Delta= 3.99D-04
 NORM(A)=   0.10767927D+01
 Iteration Nr.   7
 **********************
 DD1Dir will call FoFMem   1 times, MxPair=        42
 NAB=    21 NAA=     0 NBB=     0.
 DE(Z)= -0.34950875     E(Z)=     -436.90709538     Delta= 1.11D-06
 NORM(A)=   0.10767910D+01
 Iteration Nr.   8
 **********************
 DD1Dir will call FoFMem   1 times, MxPair=        42
 NAB=    21 NAA=     0 NBB=     0.
 DE(Z)= -0.34950873     E(Z)=     -436.90709536     Delta= 2.63D-08
 NORM(A)=   0.10767907D+01
 Iteration Nr.   9
 **********************
 DD1Dir will call FoFMem   1 times, MxPair=        42
 NAB=    21 NAA=     0 NBB=     0.
 DE(Z)= -0.34950856     E(Z)=     -436.90709519     Delta= 1.68D-07
 NORM(A)=   0.10767908D+01
 Iteration Nr.  10
 **********************
 DD1Dir will call FoFMem   1 times, MxPair=        42
 NAB=    21 NAA=     0 NBB=     0.
 DE(Z)= -0.34950859     E(Z)=     -436.90709522     Delta=-3.13D-08
 NORM(A)=   0.10767908D+01
 Iteration Nr.  11
 **********************
 DD1Dir will call FoFMem   1 times, MxPair=        42
 NAB=    21 NAA=     0 NBB=     0.
 DE(Z)= -0.34950859     E(Z)=     -436.90709522     Delta=-5.46D-09
 NORM(A)=   0.10767908D+01
 Z-amplitudes converged.
 Discarding MO integrals.
          Differentiating once with respect to electric field.
                with respect to dipole field.
          Electric field/nuclear overlap derivatives assumed to be zero.
 Keep R1 ints in memory in canonical form, NReq=59475126.
          There are     1 degrees of freedom in the 1st order CPHF.  IDoFFX=0 NUNeed=     1.
 LinEq1:  Iter=  0 NonCon=     1 RMS=2.95D-03 Max=4.36D-02 NDo=     1
 AX will form     1 AO Fock derivatives at one time.
 LinEq1:  Iter=  1 NonCon=     1 RMS=9.86D-04 Max=1.21D-02 NDo=     1
 LinEq1:  Iter=  2 NonCon=     1 RMS=4.76D-04 Max=1.32D-02 NDo=     1
 LinEq1:  Iter=  3 NonCon=     1 RMS=1.60D-04 Max=2.47D-03 NDo=     1
 LinEq1:  Iter=  4 NonCon=     1 RMS=3.99D-05 Max=5.26D-04 NDo=     1
 LinEq1:  Iter=  5 NonCon=     1 RMS=8.74D-06 Max=9.98D-05 NDo=     1
 LinEq1:  Iter=  6 NonCon=     1 RMS=1.55D-06 Max=2.20D-05 NDo=     1
 LinEq1:  Iter=  7 NonCon=     1 RMS=2.01D-07 Max=2.70D-06 NDo=     1
 LinEq1:  Iter=  8 NonCon=     1 RMS=2.32D-08 Max=2.27D-07 NDo=     1
 LinEq1:  Iter=  9 NonCon=     1 RMS=3.72D-09 Max=3.76D-08 NDo=     1
 LinEq1:  Iter= 10 NonCon=     1 RMS=5.35D-10 Max=5.78D-09 NDo=     1
 LinEq1:  Iter= 11 NonCon=     1 RMS=8.49D-11 Max=1.74D-09 NDo=     1
 LinEq1:  Iter= 12 NonCon=     0 RMS=2.12D-11 Max=2.80D-10 NDo=     1
 Linear equations converged to 1.000D-10 1.000D-09 after    12 iterations.
 End of Minotr F.D. properties file   721 does not exist.
 End of Minotr F.D. properties file   722 does not exist.
 End of Minotr F.D. properties file   788 does not exist.

 **********************************************************************

            Population analysis using the CC Density.

 **********************************************************************

 Alpha  occ. eigenvalues --  -91.95647 -11.32123  -8.95855  -6.63916  -6.63890
 Alpha  occ. eigenvalues --   -6.63692  -1.06422  -0.81467  -0.64496  -0.54133
 Alpha  occ. eigenvalues --   -0.41771  -0.35261
 Alpha virt. eigenvalues --    0.02840   0.03497   0.04269   0.06130   0.09229
 Alpha virt. eigenvalues --    0.10419   0.11645   0.13132   0.13507   0.14771
 Alpha virt. eigenvalues --    0.19859   0.21666   0.23069   0.24352   0.27036
 Alpha virt. eigenvalues --    0.29043   0.30910   0.31754   0.32522   0.34392
 Alpha virt. eigenvalues --    0.37581   0.38361   0.38570   0.40186   0.41300
 Alpha virt. eigenvalues --    0.43222   0.44721   0.45158   0.47146   0.48716
 Alpha virt. eigenvalues --    0.56392   0.62026   0.65216   0.66051   0.67763
 Alpha virt. eigenvalues --    0.74938   0.75470   0.76846   0.78917   0.80724
 Alpha virt. eigenvalues --    0.83295   0.84782   0.85066   0.87303   0.87809
 Alpha virt. eigenvalues --    0.89455   0.89810   0.96021   0.97168   0.97225
 Alpha virt. eigenvalues --    0.99516   0.99989   1.02048   1.08623   1.10737
 Alpha virt. eigenvalues --    1.10895   1.12566   1.13450   1.14021   1.16688
 Alpha virt. eigenvalues --    1.24543   1.30177   1.34170   1.42632   1.49898
 Alpha virt. eigenvalues --    1.52798   1.54992   1.58334   1.58494   1.58906
 Alpha virt. eigenvalues --    1.61731   1.65196   1.80262   1.87871   1.88947
 Alpha virt. eigenvalues --    2.02031   2.02627   2.02849   2.05459   2.08985
 Alpha virt. eigenvalues --    2.09775   2.13350   2.17744   2.34490   2.35664
 Alpha virt. eigenvalues --    2.39342   2.40526   2.42303   2.47508   2.50455
 Alpha virt. eigenvalues --    2.57235   2.69111   2.71721   2.89263   3.00845
 Alpha virt. eigenvalues --    3.04231   3.12179   3.19044   3.23513   3.46719
 Alpha virt. eigenvalues --    3.57844   3.59568   3.64407   3.67254   3.69178
 Alpha virt. eigenvalues --    3.80141   3.83578   3.85297   3.90272   3.92816
 Alpha virt. eigenvalues --    4.05398   4.10357   4.25215   4.40578   4.41835
 Alpha virt. eigenvalues --    4.45046   4.68682   4.73613   4.74357   5.07309
 Alpha virt. eigenvalues --    5.12431   5.24714   5.25078   5.29684   5.51136
 Alpha virt. eigenvalues --    5.84229   5.94634   6.48116   6.60355  15.23693
          Condensed to atoms (all electrons):
               1          2          3          4
     1  C    6.185044   0.274403   0.183320   0.183320
     2  S    0.274403  16.028269  -0.118599  -0.118599
     3  H    0.183320  -0.118599   0.649803  -0.160304
     4  H    0.183320  -0.118599  -0.160304   0.649803
 Mulliken charges:
               1
     1  C   -0.826087
     2  S   -0.065474
     3  H    0.445780
     4  H    0.445780
 Sum of Mulliken charges =  -0.00000
 Mulliken charges with hydrogens summed into heavy atoms:
               1
     1  C    0.065474
     2  S   -0.065474
 Electronic spatial extent (au):  <R**2>=            130.2916
 Charge=             -0.0000 electrons
 Dipole moment (field-independent basis, Debye):
    X=              0.0059    Y=             -0.0000    Z=             -1.7524  Tot=              1.7524
 Quadrupole moment (field-independent basis, Debye-Ang):
   XX=            -19.9781   YY=            -20.5754   ZZ=            -18.9724
   XY=              0.0000   XZ=              0.0031   YZ=              0.0000
 Traceless Quadrupole moment (field-independent basis, Debye-Ang):
   XX=             -0.1361   YY=             -0.7334   ZZ=              0.8695
   XY=              0.0000   XZ=              0.0031   YZ=              0.0000
 Octapole moment (field-independent basis, Debye-Ang**2):
  XXX=              0.3774  YYY=              0.0000  ZZZ=            -27.6811  XYY=              0.1484
  XXY=              0.0000  XXZ=             -8.5634  XZZ=              0.1236  YZZ=             -0.0000
  YYZ=            -13.1333  XYZ=              0.0000
 Hexadecapole moment (field-independent basis, Debye-Ang**3):
 XXXX=            -25.3250 YYYY=            -35.1168 ZZZZ=           -127.3605 XXXY=              0.0000
 XXXZ=              0.3821 YYYX=              0.0000 YYYZ=              0.0000 ZZZX=              0.3959
 ZZZY=             -0.0000 XXYY=            -10.5032 XXZZ=            -25.3335 YYZZ=            -29.5531
 XXYZ=              0.0000 YYXZ=              0.1654 ZZXY=              0.0000
 N-N= 4.470331683371D+01 E-N=-1.127362134827D+03  KE= 4.368673154945D+02
 There are a total of       91844 grid points.
 ElSum from          density=       24.0000001068
 ElSum from atomic densities=       24.0000001506

 Hirshfeld populations at iteration   1 (CX, CA, CB, DipXYZ):
               1          2          3          4          5          6
     1  C    0.000000   3.004463   3.004463   0.001560   0.000000  -0.150117
     2  S    0.000013   8.044551   8.044551  -0.000791  -0.000000   0.035467
     3  H    0.000004   0.475493   0.475493  -0.000075  -0.130011  -0.098244
     4  H    0.000004   0.475493   0.475493  -0.000075   0.130011  -0.098244
       Tot   0.000022  12.000000  12.000000   0.000619  -0.000000  -0.311139

 Dip from Atomic Chgs              0.001684  -0.000000  -0.378323
         Total Dipole              0.002303  -0.000000  -0.689461

 Hirshfeld charges, spin densities, dipoles, and CM5 charges using IRadAn=      5:
              Q-H        S-H        Dx         Dy         Dz        Q-CM5   
     1  C   -0.008926   0.000000   0.001560   0.000000  -0.150117  -0.087076
     2  S   -0.089103   0.000000  -0.000791  -0.000000   0.035467  -0.117483
     3  H    0.049014   0.000000  -0.000075  -0.130011  -0.098244   0.102280
     4  H    0.049014   0.000000  -0.000075   0.130011  -0.098244   0.102280
       Tot  -0.000000   0.000000   0.000619  -0.000000  -0.311139  -0.000000
 Hirshfeld charges with hydrogens summed into heavy atoms:
              Q-H       Q-CM5   
     1  C    0.089103   0.117483
     2  S   -0.089103  -0.117483
 
 EQQ= 0.000000000000E+00 EQD= 0.000000000000E+00 EDD= 0.297576089751E-02
 EQQ+QD+DD= 0.297576089751E-02
 
 Breneman (CHELPG) radii used.
 Generate Potential Derived Charges using the Breneman model, NDens= 1.
 Grid spacing= 0.300 Box extension= 2.800
 NStep X,Y,Z=   20     26     27   Total possible points=       14040
 Number of Points to Fit=    4706

 **********************************************************************

            Electrostatic Properties Using The CC Density.

 **********************************************************************

       Atomic Center    1 is at   0.000000  0.000000 -0.555291
       Atomic Center    2 is at  -0.010000  0.000000  1.060374
       Atomic Center    3 is at   0.000000 -0.922280 -1.128992
       Atomic Center    4 is at   0.000000  0.922280 -1.128992
    4706 points will be used for fitting atomic charges
 Fitting point charges to electrostatic potential
 The dipole moment will be constrained to the correct value
 Charges from ESP fit, RMS=   0.00566 RRMS=   0.42528:
 ESP charges:
               1
     1  C   -0.170915
     2  S   -0.121859
     3  H    0.146387
     4  H    0.146387
 Sum of ESP charges =  -0.00000
 ESP charges with hydrogens summed into heavy atoms:
               1
     1  C    0.121859
     2  S   -0.121859
 Charge=  -0.00000 Dipole=     0.0059    -0.0000    -1.7524 Tot=     1.7524
 -----------------------------------------------------------------

              Electrostatic Properties (Atomic Units)

 -----------------------------------------------------------------
    Center     Electric         -------- Electric Field --------
               Potential          X             Y             Z
 -----------------------------------------------------------------
    1 Atom    -14.689375
    2 Atom    -59.229721
    3 Atom     -1.071847
    4 Atom     -1.071847
 -----------------------------------------------------------------
 ******************************Gaussian NBO Version 3.1******************************
             N A T U R A L   A T O M I C   O R B I T A L   A N D
          N A T U R A L   B O N D   O R B I T A L   A N A L Y S I S
 ******************************Gaussian NBO Version 3.1******************************
       /RESON  / : Allow strongly delocalized NBO set

 Analyzing the QCI/CC density

 Job title: h2cs-wavefunction                                               

 Storage needed:     61222 in NPA (2147483536 available)
 GSVD:  LWork=        -636 too small for GESVD, short by       41336 words or       41336 for optimal perf.


 NATURAL POPULATIONS:  Natural atomic orbital occupancies 
                                                          
   NAO  Atom  No  lang   Type(AO)    Occupancy
 --------------------------------------------
     1    C    1  S      Cor( 1S)     1.99939
     2    C    1  S      Val( 2S)     1.18135
     3    C    1  S      Ryd( 3S)     0.00806
     4    C    1  S      Ryd( 4S)     0.00050
     5    C    1  S      Ryd( 5S)     0.00007
     6    C    1  px     Val( 2p)     0.88304
     7    C    1  px     Ryd( 3p)     0.00620
     8    C    1  px     Ryd( 5p)     0.00023
     9    C    1  px     Ryd( 4p)     0.00028
    10    C    1  py     Val( 2p)     1.17594
    11    C    1  py     Ryd( 3p)     0.00608
    12    C    1  py     Ryd( 4p)     0.00045
    13    C    1  py     Ryd( 5p)     0.00031
    14    C    1  pz     Val( 2p)     1.10011
    15    C    1  pz     Ryd( 3p)     0.00712
    16    C    1  pz     Ryd( 4p)     0.00028
    17    C    1  pz     Ryd( 5p)     0.00008
    18    C    1  dxy    Ryd( 3d)     0.00626
    19    C    1  dxy    Ryd( 4d)     0.00025
    20    C    1  dxy    Ryd( 5d)     0.00012
    21    C    1  dxz    Ryd( 3d)     0.00970
    22    C    1  dxz    Ryd( 4d)     0.00026
    23    C    1  dxz    Ryd( 5d)     0.00011
    24    C    1  dyz    Ryd( 3d)     0.01134
    25    C    1  dyz    Ryd( 4d)     0.00028
    26    C    1  dyz    Ryd( 5d)     0.00024
    27    C    1  dx2y2  Ryd( 3d)     0.00767
    28    C    1  dx2y2  Ryd( 4d)     0.00030
    29    C    1  dx2y2  Ryd( 5d)     0.00011
    30    C    1  dz2    Ryd( 3d)     0.01233
    31    C    1  dz2    Ryd( 4d)     0.00030
    32    C    1  dz2    Ryd( 5d)     0.00013
    33    C    1  f(0)   Ryd( 4f)     0.00060
    34    C    1  f(0)   Ryd( 5f)     0.00008
    35    C    1  f(C1)  Ryd( 4f)     0.00056
    36    C    1  f(C1)  Ryd( 5f)     0.00012
    37    C    1  f(S1)  Ryd( 4f)     0.00065
    38    C    1  f(S1)  Ryd( 5f)     0.00012
    39    C    1  f(C2)  Ryd( 4f)     0.00083
    40    C    1  f(C2)  Ryd( 5f)     0.00011
    41    C    1  f(S2)  Ryd( 4f)     0.00065
    42    C    1  f(S2)  Ryd( 5f)     0.00014
    43    C    1  f(C3)  Ryd( 4f)     0.00048
    44    C    1  f(C3)  Ryd( 5f)     0.00013
    45    C    1  f(S3)  Ryd( 4f)     0.00069
    46    C    1  f(S3)  Ryd( 5f)     0.00012

    47    S    2  S      Cor( 1S)     2.00000
    48    S    2  S      Cor( 2S)     1.99900
    49    S    2  S      Val( 3S)     1.72850
    50    S    2  S      Ryd( 4S)     0.01581
    51    S    2  S      Ryd( 5S)     0.00041
    52    S    2  S      Ryd( 6S)     0.00011
    53    S    2  px     Cor( 2p)     1.99986
    54    S    2  px     Val( 3p)     1.08407
    55    S    2  px     Ryd( 4p)     0.00431
    56    S    2  px     Ryd( 5p)     0.00031
    57    S    2  px     Ryd( 6p)     0.00002
    58    S    2  py     Cor( 2p)     2.00000
    59    S    2  py     Val( 3p)     1.87202
    60    S    2  py     Ryd( 4p)     0.01449
    61    S    2  py     Ryd( 5p)     0.00055
    62    S    2  py     Ryd( 6p)     0.00005
    63    S    2  pz     Cor( 2p)     1.99973
    64    S    2  pz     Val( 3p)     1.07831
    65    S    2  pz     Ryd( 4p)     0.00647
    66    S    2  pz     Ryd( 5p)     0.00041
    67    S    2  pz     Ryd( 6p)     0.00004
    68    S    2  dxy    Ryd( 3d)     0.01720
    69    S    2  dxy    Ryd( 4d)     0.00057
    70    S    2  dxy    Ryd( 5d)     0.00006
    71    S    2  dxz    Ryd( 3d)     0.01853
    72    S    2  dxz    Ryd( 4d)     0.00033
    73    S    2  dxz    Ryd( 5d)     0.00007
    74    S    2  dyz    Ryd( 3d)     0.01395
    75    S    2  dyz    Ryd( 4d)     0.00049
    76    S    2  dyz    Ryd( 5d)     0.00027
    77    S    2  dx2y2  Ryd( 3d)     0.01636
    78    S    2  dx2y2  Ryd( 4d)     0.00060
    79    S    2  dx2y2  Ryd( 5d)     0.00006
    80    S    2  dz2    Ryd( 3d)     0.02342
    81    S    2  dz2    Ryd( 4d)     0.00031
    82    S    2  dz2    Ryd( 5d)     0.00016
    83    S    2  f(0)   Ryd( 4f)     0.00133
    84    S    2  f(0)   Ryd( 5f)     0.00018
    85    S    2  f(C1)  Ryd( 4f)     0.00100
    86    S    2  f(C1)  Ryd( 5f)     0.00013
    87    S    2  f(S1)  Ryd( 4f)     0.00123
    88    S    2  f(S1)  Ryd( 5f)     0.00017
    89    S    2  f(C2)  Ryd( 4f)     0.00125
    90    S    2  f(C2)  Ryd( 5f)     0.00013
    91    S    2  f(S2)  Ryd( 4f)     0.00132
    92    S    2  f(S2)  Ryd( 5f)     0.00011
    93    S    2  f(C3)  Ryd( 4f)     0.00151
    94    S    2  f(C3)  Ryd( 5f)     0.00011
    95    S    2  f(S3)  Ryd( 4f)     0.00151
    96    S    2  f(S3)  Ryd( 5f)     0.00012

    97    H    3  S      Val( 1S)     0.82332
    98    H    3  S      Ryd( 2S)     0.00303
    99    H    3  S      Ryd( 3S)     0.00016
   100    H    3  S      Ryd( 4S)     0.00006
   101    H    3  px     Ryd( 2p)     0.00094
   102    H    3  px     Ryd( 3p)     0.00050
   103    H    3  px     Ryd( 4p)     0.00007
   104    H    3  py     Ryd( 2p)     0.00149
   105    H    3  py     Ryd( 3p)     0.00037
   106    H    3  py     Ryd( 4p)     0.00023
   107    H    3  pz     Ryd( 2p)     0.00283
   108    H    3  pz     Ryd( 3p)     0.00047
   109    H    3  pz     Ryd( 4p)     0.00017
   110    H    3  dxy    Ryd( 4d)     0.00007
   111    H    3  dxy    Ryd( 3d)     0.00007
   112    H    3  dxz    Ryd( 3d)     0.00010
   113    H    3  dxz    Ryd( 4d)     0.00005
   114    H    3  dyz    Ryd( 4d)     0.00009
   115    H    3  dyz    Ryd( 3d)     0.00010
   116    H    3  dx2y2  Ryd( 3d)     0.00011
   117    H    3  dx2y2  Ryd( 4d)     0.00009
   118    H    3  dz2    Ryd( 3d)     0.00009
   119    H    3  dz2    Ryd( 4d)     0.00006

   120    H    4  S      Val( 1S)     0.82332
   121    H    4  S      Ryd( 2S)     0.00303
   122    H    4  S      Ryd( 3S)     0.00016
   123    H    4  S      Ryd( 4S)     0.00006
   124    H    4  px     Ryd( 2p)     0.00094
   125    H    4  px     Ryd( 3p)     0.00050
   126    H    4  px     Ryd( 4p)     0.00007
   127    H    4  py     Ryd( 2p)     0.00149
   128    H    4  py     Ryd( 3p)     0.00037
   129    H    4  py     Ryd( 4p)     0.00023
   130    H    4  pz     Ryd( 2p)     0.00283
   131    H    4  pz     Ryd( 3p)     0.00047
   132    H    4  pz     Ryd( 4p)     0.00017
   133    H    4  dxy    Ryd( 4d)     0.00007
   134    H    4  dxy    Ryd( 3d)     0.00007
   135    H    4  dxz    Ryd( 3d)     0.00010
   136    H    4  dxz    Ryd( 4d)     0.00005
   137    H    4  dyz    Ryd( 4d)     0.00009
   138    H    4  dyz    Ryd( 3d)     0.00010
   139    H    4  dx2y2  Ryd( 3d)     0.00011
   140    H    4  dx2y2  Ryd( 4d)     0.00009
   141    H    4  dz2    Ryd( 3d)     0.00009
   142    H    4  dz2    Ryd( 4d)     0.00006

 WARNING:  1 low occupancy (<1.9990e) core orbital  found on  S    2


 Summary of Natural Population Analysis:                  
                                                          
                                       Natural Population 
                Natural  -----------------------------------------------
    Atom  No    Charge         Core      Valence    Rydberg      Total
 -----------------------------------------------------------------------
      C    1   -0.42419      1.99939     4.34045    0.08435     6.42419
      S    2    0.09308      9.99859     5.76289    0.14545    15.90692
      H    3    0.16556      0.00000     0.82332    0.01113     0.83444
      H    4    0.16556      0.00000     0.82332    0.01113     0.83444
 =======================================================================
   * Total *    0.00000     11.99798    11.74997    0.25206    24.00000

                                 Natural Population      
 --------------------------------------------------------
   Core                      11.99798 ( 99.9831% of  12)
   Valence                   11.74997 ( 97.9164% of  12)
   Natural Minimal Basis     23.74794 ( 98.9498% of  24)
   Natural Rydberg Basis      0.25206 (  1.0502% of  24)
 --------------------------------------------------------

    Atom  No          Natural Electron Configuration
 ----------------------------------------------------------------------------
      C    1      [core]2S( 1.18)2p( 3.16)3S( 0.01)3p( 0.02)3d( 0.05)
      S    2      [core]3S( 1.73)3p( 4.03)4S( 0.02)3d( 0.09)4p( 0.03)4f( 0.01)
      H    3            1S( 0.82)2p( 0.01)
      H    4            1S( 0.82)2p( 0.01)


 NBO analysis skipped by request.
 Unable to Open any file for archive entry.
 1\1\GINC-TRAPISTA\SP\RQCISD-FC\Aug-CC-pVTZ\C1H2S1\WAGNER\02-Sep-2022\0
 \\# qcisd/aug-cc-pvtz nosymm density=current pop=(chelpg,hirshfeld,npa
 ,dipole)\\h2cs-wavefunction\\0,1\C,0,0.,0.,-0.555291\S,0,-0.01,0.,1.06
 0374\H,0,0.,-0.92228,-1.128992\H,0,0.,0.92228,-1.128992\\Version=EM64L
 -G16RevC.01\HF=-436.5575866\MP2=-436.8984575\MP3=-436.9212695\MP4D=-43
 6.9312894\MP4DQ=-436.919626\MP4SDQ=-436.9231088\QCISD=-436.9235136\RMS
 D=2.953e-09\Dipole=0.0023028,0.,-0.6894605\Quadrupole=-0.101205,-0.545
 2835,0.6464885,0.,0.0023173,0.\PG=CS [SG(C1S1),X(H2)]\\@
 The archive entry for this job was punched.


 IN THE FIGHT BETWEEN YOU AND THE WORLD, BACK THE WORLD

                                        -- FRANZ KAFKA
 Job cpu time:       0 days  1 hours 33 minutes 35.1 seconds.
 Elapsed time:       0 days  0 hours  5 minutes 55.5 seconds.
 File lengths (MBytes):  RWF=   7177 Int=      0 D2E=      0 Chk=      3 Scr=      1
 Normal termination of Gaussian 16 at Fri Sep  2 21:06:50 2022.
