 Entering Gaussian System, Link 0=/home/wagner/chemistry/gaussian/g16/g16
 Input=GAUSSIAN.com
 Output=GAUSSIAN.log
 Initial command:
 /home/wagner/chemistry/gaussian/g16/l1.exe "/home/wagner/chemistry/gaussian/work/Gau-71700.inp" -scrdir="/home/wagner/chemistry/gaussian/work/"
 Entering Link 1 = /home/wagner/chemistry/gaussian/g16/l1.exe PID=     71702.
  
 Copyright (c) 1988-2019, Gaussian, Inc.  All Rights Reserved.
  
 This is part of the Gaussian(R) 16 program.  It is based on
 the Gaussian(R) 09 system (copyright 2009, Gaussian, Inc.),
 the Gaussian(R) 03 system (copyright 2003, Gaussian, Inc.),
 the Gaussian(R) 98 system (copyright 1998, Gaussian, Inc.),
 the Gaussian(R) 94 system (copyright 1995, Gaussian, Inc.),
 the Gaussian 92(TM) system (copyright 1992, Gaussian, Inc.),
 the Gaussian 90(TM) system (copyright 1990, Gaussian, Inc.),
 the Gaussian 88(TM) system (copyright 1988, Gaussian, Inc.),
 the Gaussian 86(TM) system (copyright 1986, Carnegie Mellon
 University), and the Gaussian 82(TM) system (copyright 1983,
 Carnegie Mellon University). Gaussian is a federally registered
 trademark of Gaussian, Inc.
  
 This software contains proprietary and confidential information,
 including trade secrets, belonging to Gaussian, Inc.
  
 This software is provided under written license and may be
 used, copied, transmitted, or stored only in accord with that
 written license.
  
 The following legend is applicable only to US Government
 contracts under FAR:
  
                    RESTRICTED RIGHTS LEGEND
  
 Use, reproduction and disclosure by the US Government is
 subject to restrictions as set forth in subparagraphs (a)
 and (c) of the Commercial Computer Software - Restricted
 Rights clause in FAR 52.227-19.
  
 Gaussian, Inc.
 340 Quinnipiac St., Bldg. 40, Wallingford CT 06492
  
  
 ---------------------------------------------------------------
 Warning -- This program may not be used in any manner that
 competes with the business of Gaussian, Inc. or will provide
 assistance to any competitor of Gaussian, Inc.  The licensee
 of this program is prohibited from giving any competitor of
 Gaussian, Inc. access to this program.  By using this program,
 the user acknowledges that Gaussian, Inc. is engaged in the
 business of creating and licensing software in the field of
 computational chemistry and represents and warrants to the
 licensee that it is not a competitor of Gaussian, Inc. and that
 it will not use this program in any manner prohibited above.
 ---------------------------------------------------------------
  

 Cite this work as:
 Gaussian 16, Revision C.01,
 M. J. Frisch, G. W. Trucks, H. B. Schlegel, G. E. Scuseria, 
 M. A. Robb, J. R. Cheeseman, G. Scalmani, V. Barone, 
 G. A. Petersson, H. Nakatsuji, X. Li, M. Caricato, A. V. Marenich, 
 J. Bloino, B. G. Janesko, R. Gomperts, B. Mennucci, H. P. Hratchian, 
 J. V. Ortiz, A. F. Izmaylov, J. L. Sonnenberg, D. Williams-Young, 
 F. Ding, F. Lipparini, F. Egidi, J. Goings, B. Peng, A. Petrone, 
 T. Henderson, D. Ranasinghe, V. G. Zakrzewski, J. Gao, N. Rega, 
 G. Zheng, W. Liang, M. Hada, M. Ehara, K. Toyota, R. Fukuda, 
 J. Hasegawa, M. Ishida, T. Nakajima, Y. Honda, O. Kitao, H. Nakai, 
 T. Vreven, K. Throssell, J. A. Montgomery, Jr., J. E. Peralta, 
 F. Ogliaro, M. J. Bearpark, J. J. Heyd, E. N. Brothers, K. N. Kudin, 
 V. N. Staroverov, T. A. Keith, R. Kobayashi, J. Normand, 
 K. Raghavachari, A. P. Rendell, J. C. Burant, S. S. Iyengar, 
 J. Tomasi, M. Cossi, J. M. Millam, M. Klene, C. Adamo, R. Cammi, 
 J. W. Ochterski, R. L. Martin, K. Morokuma, O. Farkas, 
 J. B. Foresman, and D. J. Fox, Gaussian, Inc., Wallingford CT, 2019.
 
 ******************************************
 Gaussian 16:  EM64L-G16RevC.01  3-Jul-2019
                 2-Sep-2022 
 ******************************************
 %nproc=16
 Will use up to   16 processors via shared memory.
 %mem=16GB
 ----------------------------------------------------------------------
 # qcisd/aug-cc-pvtz nosymm density=current pop=(chelpg,hirshfeld,npa,d
 ipole)
 ----------------------------------------------------------------------
 1/30=1,38=1,172=1/1;
 2/12=2,15=1,17=6,18=5,40=1/2;
 3/5=16,6=1,7=10,11=9,25=1,30=1,71=1/1,2,3;
 4//1;
 5/5=2,38=5/2;
 8/6=4,9=120000,10=1/1,4;
 9/5=8,15=1/13;
 11/28=-7,31=1,32=3,42=3/11;
 10/5=6,13=10,31=1/2;
 6/7=2,8=2,9=2,10=2,15=24,20=3,22=-1,40=-1,79=1/1,2,7;
 99/5=1,9=1/99;
 -----------------
 h2cs-wavefunction
 -----------------
 Symbolic Z-matrix:
 Charge =  0 Multiplicity = 1
 C                     0.        0.       -0.54529 
 S                     0.        0.        1.06037 
 H                     0.       -0.92228  -1.12899 
 H                     0.        0.92228  -1.12899 
 
                          Input orientation:                          
 ---------------------------------------------------------------------
 Center     Atomic      Atomic             Coordinates (Angstroms)
 Number     Number       Type             X           Y           Z
 ---------------------------------------------------------------------
      1          6           0        0.000000    0.000000   -0.545291
      2         16           0        0.000000    0.000000    1.060374
      3          1           0        0.000000   -0.922280   -1.128992
      4          1           0        0.000000    0.922280   -1.128992
 ---------------------------------------------------------------------
                    Distance matrix (angstroms):
                    1          2          3          4
     1  C    0.000000
     2  S    1.605665   0.000000
     3  H    1.091470   2.375694   0.000000
     4  H    1.091470   2.375694   1.844560   0.000000
 Symmetry turned off by external request.
 Stoichiometry    CH2S
 Framework group  C2V[C2(CS),SGV(H2)]
 Deg. of freedom     3
 Full point group                 C2V     NOp   4
 Rotational constants (GHZ):         294.7653830          17.7917326          16.7789713
 Standard basis: Aug-CC-pVTZ (5D, 7F)
   142 basis functions,   240 primitive gaussians,   164 cartesian basis functions
    12 alpha electrons       12 beta electrons
       nuclear repulsion energy        44.8713368288 Hartrees.
 NAtoms=    4 NActive=    4 NUniq=    4 SFac= 1.00D+00 NAtFMM=   60 NAOKFM=F Big=F
 Integral buffers will be    131072 words long.
 Raffenetti 1 integral format.
 Two-electron integral symmetry is turned off.
 One-electron integrals computed using PRISM.
 NBasis=   142 RedAO= T EigKep=  9.01D-05  NBF=   142
 NBsUse=   142 1.00D-06 EigRej= -1.00D+00 NBFU=   142
 ExpMin= 2.53D-02 ExpMax= 3.74D+05 ExpMxC= 1.18D+03 IAcc=3 IRadAn=         5 AccDes= 0.00D+00
 Harris functional with IExCor=  205 and IRadAn=       5 diagonalized for initial guess.
 HarFok:  IExCor=  205 AccDes= 0.00D+00 IRadAn=         5 IDoV= 1 UseB2=F ITyADJ=14
 ICtDFT=  3500011 ScaDFX=  1.000000  1.000000  1.000000  1.000000
 FoFCou: FMM=F IPFlag=           0 FMFlag=      100000 FMFlg1=           0
         NFxFlg=           0 DoJE=T BraDBF=F KetDBF=T FulRan=T
         wScrn=  0.000000 ICntrl=       500 IOpCl=  0 I1Cent=   200000004 NGrid=           0
         NMat0=    1 NMatS0=      1 NMatT0=    0 NMatD0=    1 NMtDS0=    0 NMtDT0=    0
 Symmetry not used in FoFCou.
 Keep R1 ints in memory in canonical form, NReq=59473649.
 Requested convergence on RMS density matrix=1.00D-08 within 128 cycles.
 Requested convergence on MAX density matrix=1.00D-06.
 Requested convergence on             energy=1.00D-06.
 No special actions if energy rises.
 SCF Done:  E(RHF) =  -436.557710315     A.U. after   11 cycles
            NFock= 11  Conv=0.92D-08     -V/T= 2.0002
 ExpMin= 2.53D-02 ExpMax= 3.74D+05 ExpMxC= 1.18D+03 IAcc=3 IRadAn=         5 AccDes= 0.00D+00
 HarFok:  IExCor=  205 AccDes= 0.00D+00 IRadAn=         5 IDoV=-2 UseB2=F ITyADJ=14
 ICtDFT= 12500011 ScaDFX=  1.000000  1.000000  1.000000  1.000000
 Range of M.O.s used for correlation:     7   142
 NBasis=   142 NAE=    12 NBE=    12 NFC=     6 NFV=     0
 NROrb=    136 NOA=     6 NOB=     6 NVA=   130 NVB=   130

 **** Warning!!: The largest alpha MO coefficient is  0.44325776D+02

 Semi-Direct transformation.
 ModeAB=           2 MOrb=             6 LenV=    2146810957
 LASXX=      7286295 LTotXX=     7286295 LenRXX=     7286295
 LTotAB=     7445736 MaxLAS=    11040480 LenRXY=    11040480
 NonZer=    14572590 LenScr=    22628352 LnRSAI=           0
 LnScr1=           0 LExtra=           0 Total=     40955127
 MaxDsk=          -1 SrtSym=           F ITran=            4
 JobTyp=0 Pass  1:  I=   1 to   6.
 (rs|ai) integrals will be sorted in core.
 Spin components of T(2) and E(2):
     alpha-alpha T2 =       0.1678066317D-01 E2=     -0.3866235985D-01
     alpha-beta  T2 =       0.1048150771D+00 E2=     -0.2633194109D+00
     beta-beta   T2 =       0.1678066317D-01 E2=     -0.3866235985D-01
 ANorm=    0.1066947236D+01
 E2 =    -0.3406441306D+00 EUMP2 =    -0.43689835444531D+03
 Keep R2 and R3 ints in memory in canonical form, NReq=111025432.
 CIDS: In Core Option IDoMem=           1.
 Iterations=  50 Convergence= 0.100D-07
 Produce multiple copies of IABC intergrals
 Iteration Nr.   1
 **********************
 DD1Dir will call FoFMem   1 times, MxPair=        42
 NAB=    21 NAA=     0 NBB=     0.
 MP4(R+Q)=  0.11588080D-01
 E3=       -0.22861750D-01        EUMP3=      -0.43692121620D+03
 E4(DQ)=    0.16032757D-02        UMP4(DQ)=   -0.43691961292D+03
 E4(SDQ)=  -0.18041037D-02        UMP4(SDQ)=  -0.43692302030D+03
 DE(Corr)= -0.35191780     E(Corr)=     -436.90962812    
 NORM(A)=   0.10736127D+01
 Iteration Nr.   2
 **********************
 DD1Dir will call FoFMem   1 times, MxPair=        42
 NAB=    21 NAA=     0 NBB=     0.
 DE(Corr)= -0.36322390     E(CORR)=     -436.92093421     Delta=-1.13D-02
 NORM(A)=   0.10808770D+01
 Iteration Nr.   3
 **********************
 DD1Dir will call FoFMem   1 times, MxPair=        42
 NAB=    21 NAA=     0 NBB=     0.
 DE(Corr)= -0.36417377     E(CORR)=     -436.92188408     Delta=-9.50D-04
 NORM(A)=   0.10832057D+01
 Iteration Nr.   4
 **********************
 DD1Dir will call FoFMem   1 times, MxPair=        42
 NAB=    21 NAA=     0 NBB=     0.
 DE(Corr)= -0.36546670     E(CORR)=     -436.92317701     Delta=-1.29D-03
 NORM(A)=   0.10841394D+01
 Iteration Nr.   5
 **********************
 DD1Dir will call FoFMem   1 times, MxPair=        42
 NAB=    21 NAA=     0 NBB=     0.
 DE(Corr)= -0.36565507     E(CORR)=     -436.92336538     Delta=-1.88D-04
 NORM(A)=   0.10844766D+01
 Iteration Nr.   6
 **********************
 DD1Dir will call FoFMem   1 times, MxPair=        42
 NAB=    21 NAA=     0 NBB=     0.
 DE(Corr)= -0.36568540     E(CORR)=     -436.92339572     Delta=-3.03D-05
 NORM(A)=   0.10844895D+01
 Iteration Nr.   7
 **********************
 DD1Dir will call FoFMem   1 times, MxPair=        42
 NAB=    21 NAA=     0 NBB=     0.
 DE(Corr)= -0.36568665     E(CORR)=     -436.92339697     Delta=-1.25D-06
 NORM(A)=   0.10845003D+01
 Iteration Nr.   8
 **********************
 DD1Dir will call FoFMem   1 times, MxPair=        42
 NAB=    21 NAA=     0 NBB=     0.
 DE(Corr)= -0.36568381     E(CORR)=     -436.92339413     Delta= 2.84D-06
 NORM(A)=   0.10844995D+01
 Iteration Nr.   9
 **********************
 DD1Dir will call FoFMem   1 times, MxPair=        42
 NAB=    21 NAA=     0 NBB=     0.
 DE(Corr)= -0.36568613     E(CORR)=     -436.92339644     Delta=-2.31D-06
 NORM(A)=   0.10845006D+01
 Iteration Nr.  10
 **********************
 DD1Dir will call FoFMem   1 times, MxPair=        42
 NAB=    21 NAA=     0 NBB=     0.
 DE(Corr)= -0.36568585     E(CORR)=     -436.92339616     Delta= 2.80D-07
 NORM(A)=   0.10845014D+01
 Iteration Nr.  11
 **********************
 DD1Dir will call FoFMem   1 times, MxPair=        42
 NAB=    21 NAA=     0 NBB=     0.
 DE(Corr)= -0.36568635     E(CORR)=     -436.92339666     Delta=-4.99D-07
 NORM(A)=   0.10845019D+01
 Iteration Nr.  12
 **********************
 DD1Dir will call FoFMem   1 times, MxPair=        42
 NAB=    21 NAA=     0 NBB=     0.
 DE(Corr)= -0.36568645     E(CORR)=     -436.92339677     Delta=-1.06D-07
 NORM(A)=   0.10845023D+01
 Iteration Nr.  13
 **********************
 DD1Dir will call FoFMem   1 times, MxPair=        42
 NAB=    21 NAA=     0 NBB=     0.
 DE(Corr)= -0.36568654     E(CORR)=     -436.92339686     Delta=-8.67D-08
 NORM(A)=   0.10845025D+01
 Iteration Nr.  14
 **********************
 DD1Dir will call FoFMem   1 times, MxPair=        42
 NAB=    21 NAA=     0 NBB=     0.
 DE(Corr)= -0.36568657     E(CORR)=     -436.92339688     Delta=-2.70D-08
 NORM(A)=   0.10845025D+01
 Iteration Nr.  15
 **********************
 DD1Dir will call FoFMem   1 times, MxPair=        42
 NAB=    21 NAA=     0 NBB=     0.
 DE(Corr)= -0.36568658     E(CORR)=     -436.92339689     Delta=-8.64D-09
 NORM(A)=   0.10845025D+01
 Wavefunction amplitudes converged. E(Corr)=     -436.92339689    
 Dominant configurations:
 ***********************
 Spin Case        I    J    A    B          Value
   ABAB          11   11   14   14      -0.112134D+00
 Largest amplitude= 1.12D-01

 Z-amplitude iterations

 Iteration Nr.   1
 **********************
 DD1Dir will call FoFMem   1 times, MxPair=        42
 NAB=    21 NAA=     0 NBB=     0.
 DE(Z)= -0.34981917     E(Z)=     -436.90752948     Delta= 1.59D-02
 NORM(A)=   0.10844917D+01
 Iteration Nr.   2
 **********************
 DD1Dir will call FoFMem   1 times, MxPair=        42
 NAB=    21 NAA=     0 NBB=     0.
 DE(Z)= -0.34981865     E(Z)=     -436.90752897     Delta= 5.15D-07
 NORM(A)=   0.10844901D+01
 Iteration Nr.   3
 **********************
 DD1Dir will call FoFMem   1 times, MxPair=        42
 NAB=    21 NAA=     0 NBB=     0.
 DE(Z)= -0.34981857     E(Z)=     -436.90752888     Delta= 8.95D-08
 NORM(A)=   0.10844672D+01
 Iteration Nr.   4
 **********************
 DD1Dir will call FoFMem   1 times, MxPair=        42
 NAB=    21 NAA=     0 NBB=     0.
 DE(Z)= -0.34981745     E(Z)=     -436.90752776     Delta= 1.12D-06
 NORM(A)=   0.10844779D+01
 Iteration Nr.   5
 **********************
 DD1Dir will call FoFMem   1 times, MxPair=        42
 NAB=    21 NAA=     0 NBB=     0.
 DE(Z)= -0.34981795     E(Z)=     -436.90752827     Delta=-5.00D-07
 NORM(A)=   0.10764294D+01
 Iteration Nr.   6
 **********************
 DD1Dir will call FoFMem   1 times, MxPair=        42
 NAB=    21 NAA=     0 NBB=     0.
 DE(Z)= -0.34940794     E(Z)=     -436.90711825     Delta= 4.10D-04
 NORM(A)=   0.10764256D+01
 Iteration Nr.   7
 **********************
 DD1Dir will call FoFMem   1 times, MxPair=        42
 NAB=    21 NAA=     0 NBB=     0.
 DE(Z)= -0.34940698     E(Z)=     -436.90711729     Delta= 9.64D-07
 NORM(A)=   0.10764241D+01
 Iteration Nr.   8
 **********************
 DD1Dir will call FoFMem   1 times, MxPair=        42
 NAB=    21 NAA=     0 NBB=     0.
 DE(Z)= -0.34940696     E(Z)=     -436.90711728     Delta= 1.18D-08
 NORM(A)=   0.10764239D+01
 Iteration Nr.   9
 **********************
 DD1Dir will call FoFMem   1 times, MxPair=        42
 NAB=    21 NAA=     0 NBB=     0.
 DE(Z)= -0.34940681     E(Z)=     -436.90711713     Delta= 1.52D-07
 NORM(A)=   0.10764240D+01
 Iteration Nr.  10
 **********************
 DD1Dir will call FoFMem   1 times, MxPair=        42
 NAB=    21 NAA=     0 NBB=     0.
 DE(Z)= -0.34940685     E(Z)=     -436.90711716     Delta=-3.75D-08
 NORM(A)=   0.10764240D+01
 Iteration Nr.  11
 **********************
 DD1Dir will call FoFMem   1 times, MxPair=        42
 NAB=    21 NAA=     0 NBB=     0.
 DE(Z)= -0.34940685     E(Z)=     -436.90711717     Delta=-1.46D-09
 NORM(A)=   0.10764240D+01
 Z-amplitudes converged.
 Discarding MO integrals.
          Differentiating once with respect to electric field.
                with respect to dipole field.
          Electric field/nuclear overlap derivatives assumed to be zero.
 Keep R1 ints in memory in canonical form, NReq=59475213.
          There are     1 degrees of freedom in the 1st order CPHF.  IDoFFX=0 NUNeed=     1.
 LinEq1:  Iter=  0 NonCon=     1 RMS=2.91D-03 Max=4.34D-02 NDo=     1
 AX will form     1 AO Fock derivatives at one time.
 LinEq1:  Iter=  1 NonCon=     1 RMS=9.82D-04 Max=1.16D-02 NDo=     1
 LinEq1:  Iter=  2 NonCon=     1 RMS=4.65D-04 Max=1.28D-02 NDo=     1
 LinEq1:  Iter=  3 NonCon=     1 RMS=1.55D-04 Max=2.39D-03 NDo=     1
 LinEq1:  Iter=  4 NonCon=     1 RMS=3.91D-05 Max=5.26D-04 NDo=     1
 LinEq1:  Iter=  5 NonCon=     1 RMS=8.58D-06 Max=9.65D-05 NDo=     1
 LinEq1:  Iter=  6 NonCon=     1 RMS=1.54D-06 Max=2.19D-05 NDo=     1
 LinEq1:  Iter=  7 NonCon=     1 RMS=1.98D-07 Max=2.64D-06 NDo=     1
 LinEq1:  Iter=  8 NonCon=     1 RMS=2.25D-08 Max=2.23D-07 NDo=     1
 LinEq1:  Iter=  9 NonCon=     1 RMS=3.58D-09 Max=3.66D-08 NDo=     1
 LinEq1:  Iter= 10 NonCon=     1 RMS=5.06D-10 Max=5.75D-09 NDo=     1
 LinEq1:  Iter= 11 NonCon=     0 RMS=6.21D-11 Max=6.17D-10 NDo=     1
 Linear equations converged to 1.000D-10 1.000D-09 after    11 iterations.
 End of Minotr F.D. properties file   721 does not exist.
 End of Minotr F.D. properties file   722 does not exist.
 End of Minotr F.D. properties file   788 does not exist.

 **********************************************************************

            Population analysis using the CC Density.

 **********************************************************************

 Alpha  occ. eigenvalues --  -91.95590 -11.32049  -8.95838  -6.63905  -6.63872
 Alpha  occ. eigenvalues --   -6.63674  -1.06665  -0.81306  -0.64182  -0.54294
 Alpha  occ. eigenvalues --   -0.41988  -0.35217
 Alpha virt. eigenvalues --    0.02851   0.03624   0.04279   0.06126   0.09217
 Alpha virt. eigenvalues --    0.10419   0.11624   0.13156   0.13529   0.14784
 Alpha virt. eigenvalues --    0.19905   0.21698   0.23096   0.24300   0.27107
 Alpha virt. eigenvalues --    0.29001   0.30878   0.31744   0.32529   0.34456
 Alpha virt. eigenvalues --    0.37690   0.38273   0.38601   0.40228   0.41303
 Alpha virt. eigenvalues --    0.43281   0.44841   0.45068   0.47126   0.48938
 Alpha virt. eigenvalues --    0.56273   0.61986   0.65020   0.66011   0.67740
 Alpha virt. eigenvalues --    0.74867   0.75457   0.76970   0.78826   0.80866
 Alpha virt. eigenvalues --    0.83147   0.84931   0.85166   0.87413   0.87784
 Alpha virt. eigenvalues --    0.89413   0.89891   0.96050   0.97160   0.97341
 Alpha virt. eigenvalues --    0.99671   1.00187   1.02135   1.08756   1.10828
 Alpha virt. eigenvalues --    1.10967   1.12569   1.13556   1.14016   1.16678
 Alpha virt. eigenvalues --    1.24772   1.30037   1.34214   1.42658   1.49886
 Alpha virt. eigenvalues --    1.52986   1.54887   1.58147   1.58841   1.58979
 Alpha virt. eigenvalues --    1.61584   1.65311   1.79939   1.88208   1.89197
 Alpha virt. eigenvalues --    2.02050   2.02520   2.02693   2.05320   2.08944
 Alpha virt. eigenvalues --    2.09708   2.13719   2.17279   2.34619   2.35567
 Alpha virt. eigenvalues --    2.39300   2.40619   2.42468   2.47831   2.50534
 Alpha virt. eigenvalues --    2.57363   2.69255   2.71705   2.90791   3.01582
 Alpha virt. eigenvalues --    3.05227   3.12616   3.19583   3.23730   3.46529
 Alpha virt. eigenvalues --    3.58220   3.59724   3.64609   3.67886   3.69091
 Alpha virt. eigenvalues --    3.79639   3.83172   3.85907   3.90554   3.92515
 Alpha virt. eigenvalues --    4.04695   4.10156   4.24722   4.40448   4.42076
 Alpha virt. eigenvalues --    4.45345   4.68193   4.73279   4.73923   5.05761
 Alpha virt. eigenvalues --    5.12572   5.23911   5.24414   5.27581   5.49451
 Alpha virt. eigenvalues --    5.82467   5.93379   6.49040   6.63132  15.11495
          Condensed to atoms (all electrons):
               1          2          3          4
     1  C    6.179548   0.270830   0.183625   0.183625
     2  S    0.270830  16.034516  -0.120409  -0.120409
     3  H    0.183625  -0.120409   0.656127  -0.160422
     4  H    0.183625  -0.120409  -0.160422   0.656127
 Mulliken charges:
               1
     1  C   -0.817629
     2  S   -0.064528
     3  H    0.441079
     4  H    0.441079
 Sum of Mulliken charges =  -0.00000
 Mulliken charges with hydrogens summed into heavy atoms:
               1
     1  C    0.064528
     2  S   -0.064528
 Electronic spatial extent (au):  <R**2>=            130.0443
 Charge=             -0.0000 electrons
 Dipole moment (field-independent basis, Debye):
    X=              0.0000    Y=             -0.0000    Z=             -1.7299  Tot=              1.7299
 Quadrupole moment (field-independent basis, Debye-Ang):
   XX=            -19.9537   YY=            -20.5818   ZZ=            -18.9826
   XY=             -0.0000   XZ=             -0.0000   YZ=              0.0000
 Traceless Quadrupole moment (field-independent basis, Debye-Ang):
   XX=             -0.1143   YY=             -0.7425   ZZ=              0.8568
   XY=             -0.0000   XZ=             -0.0000   YZ=              0.0000
 Octapole moment (field-independent basis, Debye-Ang**2):
  XXX=             -0.0000  YYY=             -0.0000  ZZZ=            -27.7969  XYY=             -0.0000
  XXY=              0.0000  XXZ=             -8.5861  XZZ=              0.0000  YZZ=              0.0000
  YYZ=            -13.1310  XYZ=              0.0000
 Hexadecapole moment (field-independent basis, Debye-Ang**3):
 XXXX=            -25.2168 YYYY=            -35.1576 ZZZZ=           -127.0714 XXXY=             -0.0000
 XXXZ=             -0.0000 YYYX=             -0.0000 YYYZ=              0.0000 ZZZX=              0.0000
 ZZZY=              0.0000 XXYY=            -10.4880 XXZZ=            -25.2596 YYZZ=            -29.5278
 XXYZ=              0.0000 YYXZ=              0.0000 ZZXY=             -0.0000
 N-N= 4.487133682880D+01 E-N=-1.127709857411D+03  KE= 4.368785089705D+02
 There are a total of       91844 grid points.
 ElSum from          density=       23.9999999984
 ElSum from atomic densities=       24.0000000365

 Hirshfeld populations at iteration   1 (CX, CA, CB, DipXYZ):
               1          2          3          4          5          6
     1  C    0.000000   3.005135   3.005135   0.000000  -0.000000  -0.148440
     2  S    0.000013   8.043390   8.043390   0.000000  -0.000000   0.035508
     3  H    0.000004   0.475737   0.475737   0.000000  -0.128365  -0.098657
     4  H    0.000004   0.475737   0.475737  -0.000000   0.128365  -0.098657
       Tot   0.000022  12.000000  12.000000   0.000000  -0.000000  -0.310245

 Dip from Atomic Chgs              0.000000  -0.000000  -0.370365
         Total Dipole              0.000000  -0.000000  -0.680610

 Hirshfeld charges, spin densities, dipoles, and CM5 charges using IRadAn=      5:
              Q-H        S-H        Dx         Dy         Dz        Q-CM5   
     1  C   -0.010270   0.000000   0.000000  -0.000000  -0.148440  -0.086700
     2  S   -0.086780   0.000000   0.000000  -0.000000   0.035508  -0.115621
     3  H    0.048525   0.000000   0.000000  -0.128365  -0.098657   0.101161
     4  H    0.048525   0.000000  -0.000000   0.128365  -0.098657   0.101161
       Tot   0.000000   0.000000   0.000000  -0.000000  -0.310245   0.000000
 Hirshfeld charges with hydrogens summed into heavy atoms:
              Q-H       Q-CM5   
     1  C    0.086780   0.115621
     2  S   -0.086780  -0.115621
 
 EQQ= 0.000000000000E+00 EQD= 0.000000000000E+00 EDD= 0.291256161500E-02
 EQQ+QD+DD= 0.291256161500E-02
 
 Breneman (CHELPG) radii used.
 Generate Potential Derived Charges using the Breneman model, NDens= 1.
 Grid spacing= 0.300 Box extension= 2.800
 NStep X,Y,Z=   20     26     27   Total possible points=       14040
 Number of Points to Fit=    4704

 **********************************************************************

            Electrostatic Properties Using The CC Density.

 **********************************************************************

       Atomic Center    1 is at   0.000000  0.000000 -0.545291
       Atomic Center    2 is at   0.000000  0.000000  1.060374
       Atomic Center    3 is at   0.000000 -0.922280 -1.128992
       Atomic Center    4 is at   0.000000  0.922280 -1.128992
    4704 points will be used for fitting atomic charges
 Fitting point charges to electrostatic potential
 The dipole moment will be constrained to the correct value
 Charges from ESP fit, RMS=   0.00535 RRMS=   0.40648:
 ESP charges:
               1
     1  C   -0.019461
     2  S   -0.159317
     3  H    0.089389
     4  H    0.089389
 Sum of ESP charges =   0.00000
 ESP charges with hydrogens summed into heavy atoms:
               1
     1  C    0.159317
     2  S   -0.159317
 Charge=   0.00000 Dipole=     0.0000    -0.0000    -1.7299 Tot=     1.7299
 -----------------------------------------------------------------

              Electrostatic Properties (Atomic Units)

 -----------------------------------------------------------------
    Center     Electric         -------- Electric Field --------
               Potential          X             Y             Z
 -----------------------------------------------------------------
    1 Atom    -14.689616
    2 Atom    -59.230305
    3 Atom     -1.072289
    4 Atom     -1.072289
 -----------------------------------------------------------------
 ******************************Gaussian NBO Version 3.1******************************
             N A T U R A L   A T O M I C   O R B I T A L   A N D
          N A T U R A L   B O N D   O R B I T A L   A N A L Y S I S
 ******************************Gaussian NBO Version 3.1******************************
       /RESON  / : Allow strongly delocalized NBO set

 Analyzing the QCI/CC density

 Job title: h2cs-wavefunction                                               

 Storage needed:     61222 in NPA (2147483536 available)
 GSVD:  LWork=        -636 too small for GESVD, short by       41336 words or       41336 for optimal perf.


 NATURAL POPULATIONS:  Natural atomic orbital occupancies 
                                                          
   NAO  Atom  No  lang   Type(AO)    Occupancy
 --------------------------------------------
     1    C    1  S      Cor( 1S)     1.99940
     2    C    1  S      Val( 2S)     1.18135
     3    C    1  S      Ryd( 3S)     0.00827
     4    C    1  S      Ryd( 4S)     0.00050
     5    C    1  S      Ryd( 5S)     0.00007
     6    C    1  px     Val( 2p)     0.88567
     7    C    1  px     Ryd( 3p)     0.00613
     8    C    1  px     Ryd( 5p)     0.00023
     9    C    1  px     Ryd( 4p)     0.00028
    10    C    1  py     Val( 2p)     1.17756
    11    C    1  py     Ryd( 3p)     0.00605
    12    C    1  py     Ryd( 4p)     0.00046
    13    C    1  py     Ryd( 5p)     0.00031
    14    C    1  pz     Val( 2p)     1.10294
    15    C    1  pz     Ryd( 3p)     0.00728
    16    C    1  pz     Ryd( 4p)     0.00028
    17    C    1  pz     Ryd( 5p)     0.00008
    18    C    1  dxy    Ryd( 3d)     0.00629
    19    C    1  dxy    Ryd( 4d)     0.00026
    20    C    1  dxy    Ryd( 5d)     0.00012
    21    C    1  dxz    Ryd( 3d)     0.00982
    22    C    1  dxz    Ryd( 4d)     0.00026
    23    C    1  dxz    Ryd( 5d)     0.00011
    24    C    1  dyz    Ryd( 3d)     0.01127
    25    C    1  dyz    Ryd( 4d)     0.00028
    26    C    1  dyz    Ryd( 5d)     0.00024
    27    C    1  dx2y2  Ryd( 3d)     0.00770
    28    C    1  dx2y2  Ryd( 4d)     0.00031
    29    C    1  dx2y2  Ryd( 5d)     0.00011
    30    C    1  dz2    Ryd( 3d)     0.01252
    31    C    1  dz2    Ryd( 4d)     0.00030
    32    C    1  dz2    Ryd( 5d)     0.00013
    33    C    1  f(0)   Ryd( 4f)     0.00061
    34    C    1  f(0)   Ryd( 5f)     0.00008
    35    C    1  f(C1)  Ryd( 4f)     0.00056
    36    C    1  f(C1)  Ryd( 5f)     0.00012
    37    C    1  f(S1)  Ryd( 4f)     0.00066
    38    C    1  f(S1)  Ryd( 5f)     0.00013
    39    C    1  f(C2)  Ryd( 4f)     0.00084
    40    C    1  f(C2)  Ryd( 5f)     0.00011
    41    C    1  f(S2)  Ryd( 4f)     0.00066
    42    C    1  f(S2)  Ryd( 5f)     0.00014
    43    C    1  f(C3)  Ryd( 4f)     0.00049
    44    C    1  f(C3)  Ryd( 5f)     0.00013
    45    C    1  f(S3)  Ryd( 4f)     0.00068
    46    C    1  f(S3)  Ryd( 5f)     0.00012

    47    S    2  S      Cor( 1S)     2.00000
    48    S    2  S      Cor( 2S)     1.99896
    49    S    2  S      Val( 3S)     1.72351
    50    S    2  S      Ryd( 4S)     0.01619
    51    S    2  S      Ryd( 5S)     0.00041
    52    S    2  S      Ryd( 6S)     0.00011
    53    S    2  px     Cor( 2p)     1.99986
    54    S    2  px     Val( 3p)     1.08130
    55    S    2  px     Ryd( 4p)     0.00428
    56    S    2  px     Ryd( 5p)     0.00031
    57    S    2  px     Ryd( 6p)     0.00002
    58    S    2  py     Cor( 2p)     2.00000
    59    S    2  py     Val( 3p)     1.86884
    60    S    2  py     Ryd( 4p)     0.01461
    61    S    2  py     Ryd( 5p)     0.00055
    62    S    2  py     Ryd( 6p)     0.00005
    63    S    2  pz     Cor( 2p)     1.99971
    64    S    2  pz     Val( 3p)     1.08139
    65    S    2  pz     Ryd( 4p)     0.00647
    66    S    2  pz     Ryd( 5p)     0.00041
    67    S    2  pz     Ryd( 6p)     0.00004
    68    S    2  dxy    Ryd( 3d)     0.01719
    69    S    2  dxy    Ryd( 4d)     0.00057
    70    S    2  dxy    Ryd( 5d)     0.00006
    71    S    2  dxz    Ryd( 3d)     0.01864
    72    S    2  dxz    Ryd( 4d)     0.00033
    73    S    2  dxz    Ryd( 5d)     0.00007
    74    S    2  dyz    Ryd( 3d)     0.01395
    75    S    2  dyz    Ryd( 4d)     0.00049
    76    S    2  dyz    Ryd( 5d)     0.00028
    77    S    2  dx2y2  Ryd( 3d)     0.01633
    78    S    2  dx2y2  Ryd( 4d)     0.00059
    79    S    2  dx2y2  Ryd( 5d)     0.00006
    80    S    2  dz2    Ryd( 3d)     0.02350
    81    S    2  dz2    Ryd( 4d)     0.00032
    82    S    2  dz2    Ryd( 5d)     0.00015
    83    S    2  f(0)   Ryd( 4f)     0.00134
    84    S    2  f(0)   Ryd( 5f)     0.00018
    85    S    2  f(C1)  Ryd( 4f)     0.00100
    86    S    2  f(C1)  Ryd( 5f)     0.00013
    87    S    2  f(S1)  Ryd( 4f)     0.00122
    88    S    2  f(S1)  Ryd( 5f)     0.00017
    89    S    2  f(C2)  Ryd( 4f)     0.00125
    90    S    2  f(C2)  Ryd( 5f)     0.00013
    91    S    2  f(S2)  Ryd( 4f)     0.00131
    92    S    2  f(S2)  Ryd( 5f)     0.00011
    93    S    2  f(C3)  Ryd( 4f)     0.00151
    94    S    2  f(C3)  Ryd( 5f)     0.00012
    95    S    2  f(S3)  Ryd( 4f)     0.00151
    96    S    2  f(S3)  Ryd( 5f)     0.00012

    97    H    3  S      Val( 1S)     0.82310
    98    H    3  S      Ryd( 2S)     0.00301
    99    H    3  S      Ryd( 3S)     0.00016
   100    H    3  S      Ryd( 4S)     0.00006
   101    H    3  px     Ryd( 2p)     0.00093
   102    H    3  px     Ryd( 3p)     0.00051
   103    H    3  px     Ryd( 4p)     0.00007
   104    H    3  py     Ryd( 2p)     0.00151
   105    H    3  py     Ryd( 3p)     0.00037
   106    H    3  py     Ryd( 4p)     0.00022
   107    H    3  pz     Ryd( 2p)     0.00282
   108    H    3  pz     Ryd( 3p)     0.00047
   109    H    3  pz     Ryd( 4p)     0.00017
   110    H    3  dxy    Ryd( 4d)     0.00006
   111    H    3  dxy    Ryd( 3d)     0.00007
   112    H    3  dxz    Ryd( 3d)     0.00010
   113    H    3  dxz    Ryd( 4d)     0.00005
   114    H    3  dyz    Ryd( 4d)     0.00009
   115    H    3  dyz    Ryd( 3d)     0.00010
   116    H    3  dx2y2  Ryd( 3d)     0.00011
   117    H    3  dx2y2  Ryd( 4d)     0.00009
   118    H    3  dz2    Ryd( 3d)     0.00009
   119    H    3  dz2    Ryd( 4d)     0.00006

   120    H    4  S      Val( 1S)     0.82310
   121    H    4  S      Ryd( 2S)     0.00301
   122    H    4  S      Ryd( 3S)     0.00016
   123    H    4  S      Ryd( 4S)     0.00006
   124    H    4  px     Ryd( 2p)     0.00093
   125    H    4  px     Ryd( 3p)     0.00051
   126    H    4  px     Ryd( 4p)     0.00007
   127    H    4  py     Ryd( 2p)     0.00151
   128    H    4  py     Ryd( 3p)     0.00037
   129    H    4  py     Ryd( 4p)     0.00022
   130    H    4  pz     Ryd( 2p)     0.00282
   131    H    4  pz     Ryd( 3p)     0.00047
   132    H    4  pz     Ryd( 4p)     0.00017
   133    H    4  dxy    Ryd( 4d)     0.00006
   134    H    4  dxy    Ryd( 3d)     0.00007
   135    H    4  dxz    Ryd( 3d)     0.00010
   136    H    4  dxz    Ryd( 4d)     0.00005
   137    H    4  dyz    Ryd( 4d)     0.00009
   138    H    4  dyz    Ryd( 3d)     0.00010
   139    H    4  dx2y2  Ryd( 3d)     0.00011
   140    H    4  dx2y2  Ryd( 4d)     0.00009
   141    H    4  dz2    Ryd( 3d)     0.00009
   142    H    4  dz2    Ryd( 4d)     0.00006

 WARNING:  1 low occupancy (<1.9990e) core orbital  found on  S    2


 Summary of Natural Population Analysis:                  
                                                          
                                       Natural Population 
                Natural  -----------------------------------------------
    Atom  No    Charge         Core      Valence    Rydberg      Total
 -----------------------------------------------------------------------
      C    1   -0.43192      1.99940     4.34752    0.08500     6.43192
      S    2    0.10033      9.99853     5.75504    0.14610    15.89967
      H    3    0.16580      0.00000     0.82310    0.01110     0.83420
      H    4    0.16580      0.00000     0.82310    0.01110     0.83420
 =======================================================================
   * Total *    0.00000     11.99793    11.74877    0.25330    24.00000

                                 Natural Population      
 --------------------------------------------------------
   Core                      11.99793 ( 99.9828% of  12)
   Valence                   11.74877 ( 97.9064% of  12)
   Natural Minimal Basis     23.74670 ( 98.9446% of  24)
   Natural Rydberg Basis      0.25330 (  1.0554% of  24)
 --------------------------------------------------------

    Atom  No          Natural Electron Configuration
 ----------------------------------------------------------------------------
      C    1      [core]2S( 1.18)2p( 3.17)3S( 0.01)3p( 0.02)3d( 0.05)
      S    2      [core]3S( 1.72)3p( 4.03)4S( 0.02)3d( 0.09)4p( 0.03)4f( 0.01)
      H    3            1S( 0.82)2p( 0.01)
      H    4            1S( 0.82)2p( 0.01)


 NBO analysis skipped by request.
 Unable to Open any file for archive entry.
 1\1\GINC-TRAPISTA\SP\RQCISD-FC\Aug-CC-pVTZ\C1H2S1\WAGNER\02-Sep-2022\0
 \\# qcisd/aug-cc-pvtz nosymm density=current pop=(chelpg,hirshfeld,npa
 ,dipole)\\h2cs-wavefunction\\0,1\C,0,0.,0.,-0.545291\S,0,0.,0.,1.06037
 4\H,0,0.,-0.92228,-1.128992\H,0,0.,0.92228,-1.128992\\Version=EM64L-G1
 6RevC.01\HF=-436.5577103\MP2=-436.8983544\MP3=-436.9212162\MP4D=-436.9
 31201\MP4DQ=-436.9196129\MP4SDQ=-436.9230203\QCISD=-436.9233969\RMSD=9
 .217e-09\Dipole=0.,0.,-0.6806089\Quadrupole=-0.0850008,-0.5520187,0.63
 70196,0.,0.,0.\PG=C02V [C2(C1S1),SGV(H2)]\\@
 The archive entry for this job was punched.


 THERE'S SMALL CHOICE IN A BOWL OF ROTTEN APPLES.
                     SHAKESPEARE
 Job cpu time:       0 days  1 hours 36 minutes 29.8 seconds.
 Elapsed time:       0 days  0 hours  6 minutes  6.8 seconds.
 File lengths (MBytes):  RWF=   7177 Int=      0 D2E=      0 Chk=      3 Scr=      1
 Normal termination of Gaussian 16 at Fri Sep  2 20:48:56 2022.
