 Entering Gaussian System, Link 0=/home/wagner/chemistry/gaussian/g16/g16
 Input=GAUSSIAN.com
 Output=GAUSSIAN.log
 Initial command:
 /home/wagner/chemistry/gaussian/g16/l1.exe "/home/wagner/chemistry/gaussian/work/Gau-70227.inp" -scrdir="/home/wagner/chemistry/gaussian/work/"
 Entering Link 1 = /home/wagner/chemistry/gaussian/g16/l1.exe PID=     70229.
  
 Copyright (c) 1988-2019, Gaussian, Inc.  All Rights Reserved.
  
 This is part of the Gaussian(R) 16 program.  It is based on
 the Gaussian(R) 09 system (copyright 2009, Gaussian, Inc.),
 the Gaussian(R) 03 system (copyright 2003, Gaussian, Inc.),
 the Gaussian(R) 98 system (copyright 1998, Gaussian, Inc.),
 the Gaussian(R) 94 system (copyright 1995, Gaussian, Inc.),
 the Gaussian 92(TM) system (copyright 1992, Gaussian, Inc.),
 the Gaussian 90(TM) system (copyright 1990, Gaussian, Inc.),
 the Gaussian 88(TM) system (copyright 1988, Gaussian, Inc.),
 the Gaussian 86(TM) system (copyright 1986, Carnegie Mellon
 University), and the Gaussian 82(TM) system (copyright 1983,
 Carnegie Mellon University). Gaussian is a federally registered
 trademark of Gaussian, Inc.
  
 This software contains proprietary and confidential information,
 including trade secrets, belonging to Gaussian, Inc.
  
 This software is provided under written license and may be
 used, copied, transmitted, or stored only in accord with that
 written license.
  
 The following legend is applicable only to US Government
 contracts under FAR:
  
                    RESTRICTED RIGHTS LEGEND
  
 Use, reproduction and disclosure by the US Government is
 subject to restrictions as set forth in subparagraphs (a)
 and (c) of the Commercial Computer Software - Restricted
 Rights clause in FAR 52.227-19.
  
 Gaussian, Inc.
 340 Quinnipiac St., Bldg. 40, Wallingford CT 06492
  
  
 ---------------------------------------------------------------
 Warning -- This program may not be used in any manner that
 competes with the business of Gaussian, Inc. or will provide
 assistance to any competitor of Gaussian, Inc.  The licensee
 of this program is prohibited from giving any competitor of
 Gaussian, Inc. access to this program.  By using this program,
 the user acknowledges that Gaussian, Inc. is engaged in the
 business of creating and licensing software in the field of
 computational chemistry and represents and warrants to the
 licensee that it is not a competitor of Gaussian, Inc. and that
 it will not use this program in any manner prohibited above.
 ---------------------------------------------------------------
  

 Cite this work as:
 Gaussian 16, Revision C.01,
 M. J. Frisch, G. W. Trucks, H. B. Schlegel, G. E. Scuseria, 
 M. A. Robb, J. R. Cheeseman, G. Scalmani, V. Barone, 
 G. A. Petersson, H. Nakatsuji, X. Li, M. Caricato, A. V. Marenich, 
 J. Bloino, B. G. Janesko, R. Gomperts, B. Mennucci, H. P. Hratchian, 
 J. V. Ortiz, A. F. Izmaylov, J. L. Sonnenberg, D. Williams-Young, 
 F. Ding, F. Lipparini, F. Egidi, J. Goings, B. Peng, A. Petrone, 
 T. Henderson, D. Ranasinghe, V. G. Zakrzewski, J. Gao, N. Rega, 
 G. Zheng, W. Liang, M. Hada, M. Ehara, K. Toyota, R. Fukuda, 
 J. Hasegawa, M. Ishida, T. Nakajima, Y. Honda, O. Kitao, H. Nakai, 
 T. Vreven, K. Throssell, J. A. Montgomery, Jr., J. E. Peralta, 
 F. Ogliaro, M. J. Bearpark, J. J. Heyd, E. N. Brothers, K. N. Kudin, 
 V. N. Staroverov, T. A. Keith, R. Kobayashi, J. Normand, 
 K. Raghavachari, A. P. Rendell, J. C. Burant, S. S. Iyengar, 
 J. Tomasi, M. Cossi, J. M. Millam, M. Klene, C. Adamo, R. Cammi, 
 J. W. Ochterski, R. L. Martin, K. Morokuma, O. Farkas, 
 J. B. Foresman, and D. J. Fox, Gaussian, Inc., Wallingford CT, 2019.
 
 ******************************************
 Gaussian 16:  EM64L-G16RevC.01  3-Jul-2019
                 2-Sep-2022 
 ******************************************
 %nproc=16
 Will use up to   16 processors via shared memory.
 %mem=16GB
 ----------------------------------------------------------------------
 # qcisd/aug-cc-pvtz nosymm density=current pop=(chelpg,hirshfeld,npa,d
 ipole)
 ----------------------------------------------------------------------
 1/30=1,38=1,172=1/1;
 2/12=2,15=1,17=6,18=5,40=1/2;
 3/5=16,6=1,7=10,11=9,25=1,30=1,71=1/1,2,3;
 4//1;
 5/5=2,38=5/2;
 8/6=4,9=120000,10=1/1,4;
 9/5=8,15=1/13;
 11/28=-7,31=1,32=3,42=3/11;
 10/5=6,13=10,31=1/2;
 6/7=2,8=2,9=2,10=2,15=24,20=3,22=-1,40=-1,79=1/1,2,7;
 99/5=1,9=1/99;
 -----------------
 h2cs-wavefunction
 -----------------
 Symbolic Z-matrix:
 Charge =  0 Multiplicity = 1
 C                     0.01      0.       -0.55529 
 S                     0.        0.        1.06037 
 H                     0.       -0.92228  -1.12899 
 H                     0.        0.92228  -1.12899 
 
                          Input orientation:                          
 ---------------------------------------------------------------------
 Center     Atomic      Atomic             Coordinates (Angstroms)
 Number     Number       Type             X           Y           Z
 ---------------------------------------------------------------------
      1          6           0        0.010000    0.000000   -0.555291
      2         16           0        0.000000    0.000000    1.060374
      3          1           0        0.000000   -0.922280   -1.128992
      4          1           0        0.000000    0.922280   -1.128992
 ---------------------------------------------------------------------
                    Distance matrix (angstroms):
                    1          2          3          4
     1  C    0.000000
     2  S    1.615696   0.000000
     3  H    1.086201   2.375694   0.000000
     4  H    1.086201   2.375694   1.844560   0.000000
 Symmetry turned off by external request.
 Stoichiometry    CH2S
 Framework group  CS[SG(CS),X(H2)]
 Deg. of freedom     4
 Full point group                 CS      NOp   2
 Rotational constants (GHZ):         294.7170526          17.6281763          16.6335831
 Standard basis: Aug-CC-pVTZ (5D, 7F)
   142 basis functions,   240 primitive gaussians,   164 cartesian basis functions
    12 alpha electrons       12 beta electrons
       nuclear repulsion energy        44.7031322092 Hartrees.
 NAtoms=    4 NActive=    4 NUniq=    4 SFac= 1.00D+00 NAtFMM=   60 NAOKFM=F Big=F
 Integral buffers will be    131072 words long.
 Raffenetti 1 integral format.
 Two-electron integral symmetry is turned off.
 One-electron integrals computed using PRISM.
 NBasis=   142 RedAO= T EigKep=  8.95D-05  NBF=   142
 NBsUse=   142 1.00D-06 EigRej= -1.00D+00 NBFU=   142
 ExpMin= 2.53D-02 ExpMax= 3.74D+05 ExpMxC= 1.18D+03 IAcc=3 IRadAn=         5 AccDes= 0.00D+00
 Harris functional with IExCor=  205 and IRadAn=       5 diagonalized for initial guess.
 HarFok:  IExCor=  205 AccDes= 0.00D+00 IRadAn=         5 IDoV= 1 UseB2=F ITyADJ=14
 ICtDFT=  3500011 ScaDFX=  1.000000  1.000000  1.000000  1.000000
 FoFCou: FMM=F IPFlag=           0 FMFlag=      100000 FMFlg1=           0
         NFxFlg=           0 DoJE=T BraDBF=F KetDBF=T FulRan=T
         wScrn=  0.000000 ICntrl=       500 IOpCl=  0 I1Cent=   200000004 NGrid=           0
         NMat0=    1 NMatS0=      1 NMatT0=    0 NMatD0=    1 NMtDS0=    0 NMtDT0=    0
 Symmetry not used in FoFCou.
 Keep R1 ints in memory in canonical form, NReq=59473533.
 Requested convergence on RMS density matrix=1.00D-08 within 128 cycles.
 Requested convergence on MAX density matrix=1.00D-06.
 Requested convergence on             energy=1.00D-06.
 No special actions if energy rises.
 SCF Done:  E(RHF) =  -436.557562746     A.U. after   12 cycles
            NFock= 12  Conv=0.31D-08     -V/T= 2.0003
 ExpMin= 2.53D-02 ExpMax= 3.74D+05 ExpMxC= 1.18D+03 IAcc=3 IRadAn=         5 AccDes= 0.00D+00
 HarFok:  IExCor=  205 AccDes= 0.00D+00 IRadAn=         5 IDoV=-2 UseB2=F ITyADJ=14
 ICtDFT= 12500011 ScaDFX=  1.000000  1.000000  1.000000  1.000000
 Range of M.O.s used for correlation:     7   142
 NBasis=   142 NAE=    12 NBE=    12 NFC=     6 NFV=     0
 NROrb=    136 NOA=     6 NOB=     6 NVA=   130 NVB=   130

 **** Warning!!: The largest alpha MO coefficient is  0.44079879D+02

 Semi-Direct transformation.
 ModeAB=           2 MOrb=             6 LenV=    2146810999
 LASXX=      7286295 LTotXX=     7286295 LenRXX=     7286295
 LTotAB=     7445736 MaxLAS=    11040480 LenRXY=    11040480
 NonZer=    14572590 LenScr=    22628352 LnRSAI=           0
 LnScr1=           0 LExtra=           0 Total=     40955127
 MaxDsk=          -1 SrtSym=           F ITran=            4
 JobTyp=0 Pass  1:  I=   1 to   6.
 (rs|ai) integrals will be sorted in core.
 Spin components of T(2) and E(2):
     alpha-alpha T2 =       0.1684068008D-01 E2=     -0.3867757806D-01
     alpha-beta  T2 =       0.1052230222D+00 E2=     -0.2635215282D+00
     beta-beta   T2 =       0.1684068008D-01 E2=     -0.3867757806D-01
 ANorm=    0.1067194632D+01
 E2 =    -0.3408766843D+00 EUMP2 =    -0.43689843942982D+03
 Keep R2 and R3 ints in memory in canonical form, NReq=111025316.
 CIDS: In Core Option IDoMem=           1.
 Iterations=  50 Convergence= 0.100D-07
 Produce multiple copies of IABC intergrals
 Iteration Nr.   1
 **********************
 DD1Dir will call FoFMem   1 times, MxPair=        42
 NAB=    21 NAA=     0 NBB=     0.
 MP4(R+Q)=  0.11664034D-01
 E3=       -0.22811366D-01        EUMP3=      -0.43692125080D+03
 E4(DQ)=    0.16433838D-02        UMP4(DQ)=   -0.43691960741D+03
 E4(SDQ)=  -0.18396739D-02        UMP4(SDQ)=  -0.43692309047D+03
 DE(Corr)= -0.35202402     E(Corr)=     -436.90958676    
 NORM(A)=   0.10738401D+01
 Iteration Nr.   2
 **********************
 DD1Dir will call FoFMem   1 times, MxPair=        42
 NAB=    21 NAA=     0 NBB=     0.
 DE(Corr)= -0.36344635     E(CORR)=     -436.92100909     Delta=-1.14D-02
 NORM(A)=   0.10812087D+01
 Iteration Nr.   3
 **********************
 DD1Dir will call FoFMem   1 times, MxPair=        42
 NAB=    21 NAA=     0 NBB=     0.
 DE(Corr)= -0.36437337     E(CORR)=     -436.92193611     Delta=-9.27D-04
 NORM(A)=   0.10836354D+01
 Iteration Nr.   4
 **********************
 DD1Dir will call FoFMem   1 times, MxPair=        42
 NAB=    21 NAA=     0 NBB=     0.
 DE(Corr)= -0.36570158     E(CORR)=     -436.92326433     Delta=-1.33D-03
 NORM(A)=   0.10846265D+01
 Iteration Nr.   5
 **********************
 DD1Dir will call FoFMem   1 times, MxPair=        42
 NAB=    21 NAA=     0 NBB=     0.
 DE(Corr)= -0.36589914     E(CORR)=     -436.92346189     Delta=-1.98D-04
 NORM(A)=   0.10849881D+01
 Iteration Nr.   6
 **********************
 DD1Dir will call FoFMem   1 times, MxPair=        42
 NAB=    21 NAA=     0 NBB=     0.
 DE(Corr)= -0.36593117     E(CORR)=     -436.92349392     Delta=-3.20D-05
 NORM(A)=   0.10850029D+01
 Iteration Nr.   7
 **********************
 DD1Dir will call FoFMem   1 times, MxPair=        42
 NAB=    21 NAA=     0 NBB=     0.
 DE(Corr)= -0.36593257     E(CORR)=     -436.92349531     Delta=-1.40D-06
 NORM(A)=   0.10850144D+01
 Iteration Nr.   8
 **********************
 DD1Dir will call FoFMem   1 times, MxPair=        42
 NAB=    21 NAA=     0 NBB=     0.
 DE(Corr)= -0.36592961     E(CORR)=     -436.92349235     Delta= 2.96D-06
 NORM(A)=   0.10850135D+01
 Iteration Nr.   9
 **********************
 DD1Dir will call FoFMem   1 times, MxPair=        42
 NAB=    21 NAA=     0 NBB=     0.
 DE(Corr)= -0.36593206     E(CORR)=     -436.92349480     Delta=-2.45D-06
 NORM(A)=   0.10850148D+01
 Iteration Nr.  10
 **********************
 DD1Dir will call FoFMem   1 times, MxPair=        42
 NAB=    21 NAA=     0 NBB=     0.
 DE(Corr)= -0.36593174     E(CORR)=     -436.92349448     Delta= 3.21D-07
 NORM(A)=   0.10850156D+01
 Iteration Nr.  11
 **********************
 DD1Dir will call FoFMem   1 times, MxPair=        42
 NAB=    21 NAA=     0 NBB=     0.
 DE(Corr)= -0.36593226     E(CORR)=     -436.92349501     Delta=-5.25D-07
 NORM(A)=   0.10850161D+01
 Iteration Nr.  12
 **********************
 DD1Dir will call FoFMem   1 times, MxPair=        42
 NAB=    21 NAA=     0 NBB=     0.
 DE(Corr)= -0.36593237     E(CORR)=     -436.92349512     Delta=-1.08D-07
 NORM(A)=   0.10850165D+01
 Iteration Nr.  13
 **********************
 DD1Dir will call FoFMem   1 times, MxPair=        42
 NAB=    21 NAA=     0 NBB=     0.
 DE(Corr)= -0.36593246     E(CORR)=     -436.92349521     Delta=-9.03D-08
 NORM(A)=   0.10850167D+01
 Iteration Nr.  14
 **********************
 DD1Dir will call FoFMem   1 times, MxPair=        42
 NAB=    21 NAA=     0 NBB=     0.
 DE(Corr)= -0.36593249     E(CORR)=     -436.92349524     Delta=-2.92D-08
 NORM(A)=   0.10850167D+01
 Iteration Nr.  15
 **********************
 DD1Dir will call FoFMem   1 times, MxPair=        42
 NAB=    21 NAA=     0 NBB=     0.
 DE(Corr)= -0.36593250     E(CORR)=     -436.92349525     Delta=-8.83D-09
 NORM(A)=   0.10850168D+01
 Wavefunction amplitudes converged. E(Corr)=     -436.92349525    
 Dominant configurations:
 ***********************
 Spin Case        I    J    A    B          Value
   ABAB          11   11   14   14      -0.114483D+00
 Largest amplitude= 1.14D-01

 Z-amplitude iterations

 Iteration Nr.   1
 **********************
 DD1Dir will call FoFMem   1 times, MxPair=        42
 NAB=    21 NAA=     0 NBB=     0.
 DE(Z)= -0.34991429     E(Z)=     -436.90747704     Delta= 1.60D-02
 NORM(A)=   0.10850011D+01
 Iteration Nr.   2
 **********************
 DD1Dir will call FoFMem   1 times, MxPair=        42
 NAB=    21 NAA=     0 NBB=     0.
 DE(Z)= -0.34991359     E(Z)=     -436.90747634     Delta= 7.03D-07
 NORM(A)=   0.10849886D+01
 Iteration Nr.   3
 **********************
 DD1Dir will call FoFMem   1 times, MxPair=        42
 NAB=    21 NAA=     0 NBB=     0.
 DE(Z)= -0.34991299     E(Z)=     -436.90747573     Delta= 6.04D-07
 NORM(A)=   0.10849871D+01
 Iteration Nr.   4
 **********************
 DD1Dir will call FoFMem   1 times, MxPair=        42
 NAB=    21 NAA=     0 NBB=     0.
 DE(Z)= -0.34991292     E(Z)=     -436.90747566     Delta= 6.92D-08
 NORM(A)=   0.10849858D+01
 Iteration Nr.   5
 **********************
 DD1Dir will call FoFMem   1 times, MxPair=        42
 NAB=    21 NAA=     0 NBB=     0.
 DE(Z)= -0.34991283     E(Z)=     -436.90747557     Delta= 9.02D-08
 NORM(A)=   0.10767996D+01
 Iteration Nr.   6
 **********************
 DD1Dir will call FoFMem   1 times, MxPair=        42
 NAB=    21 NAA=     0 NBB=     0.
 DE(Z)= -0.34951416     E(Z)=     -436.90707690     Delta= 3.99D-04
 NORM(A)=   0.10767957D+01
 Iteration Nr.   7
 **********************
 DD1Dir will call FoFMem   1 times, MxPair=        42
 NAB=    21 NAA=     0 NBB=     0.
 DE(Z)= -0.34951318     E(Z)=     -436.90707592     Delta= 9.79D-07
 NORM(A)=   0.10767939D+01
 Iteration Nr.   8
 **********************
 DD1Dir will call FoFMem   1 times, MxPair=        42
 NAB=    21 NAA=     0 NBB=     0.
 DE(Z)= -0.34951314     E(Z)=     -436.90707588     Delta= 3.78D-08
 NORM(A)=   0.10767936D+01
 Iteration Nr.   9
 **********************
 DD1Dir will call FoFMem   1 times, MxPair=        42
 NAB=    21 NAA=     0 NBB=     0.
 DE(Z)= -0.34951298     E(Z)=     -436.90707573     Delta= 1.55D-07
 NORM(A)=   0.10767937D+01
 Iteration Nr.  10
 **********************
 DD1Dir will call FoFMem   1 times, MxPair=        42
 NAB=    21 NAA=     0 NBB=     0.
 DE(Z)= -0.34951302     E(Z)=     -436.90707576     Delta=-3.25D-08
 NORM(A)=   0.10767938D+01
 Iteration Nr.  11
 **********************
 DD1Dir will call FoFMem   1 times, MxPair=        42
 NAB=    21 NAA=     0 NBB=     0.
 DE(Z)= -0.34951302     E(Z)=     -436.90707577     Delta=-6.02D-09
 NORM(A)=   0.10767938D+01
 Z-amplitudes converged.
 Discarding MO integrals.
          Differentiating once with respect to electric field.
                with respect to dipole field.
          Electric field/nuclear overlap derivatives assumed to be zero.
 Keep R1 ints in memory in canonical form, NReq=59475126.
          There are     1 degrees of freedom in the 1st order CPHF.  IDoFFX=0 NUNeed=     1.
 LinEq1:  Iter=  0 NonCon=     1 RMS=2.95D-03 Max=4.33D-02 NDo=     1
 AX will form     1 AO Fock derivatives at one time.
 LinEq1:  Iter=  1 NonCon=     1 RMS=9.86D-04 Max=1.21D-02 NDo=     1
 LinEq1:  Iter=  2 NonCon=     1 RMS=4.76D-04 Max=1.32D-02 NDo=     1
 LinEq1:  Iter=  3 NonCon=     1 RMS=1.60D-04 Max=2.47D-03 NDo=     1
 LinEq1:  Iter=  4 NonCon=     1 RMS=3.99D-05 Max=5.26D-04 NDo=     1
 LinEq1:  Iter=  5 NonCon=     1 RMS=8.74D-06 Max=9.95D-05 NDo=     1
 LinEq1:  Iter=  6 NonCon=     1 RMS=1.55D-06 Max=2.20D-05 NDo=     1
 LinEq1:  Iter=  7 NonCon=     1 RMS=2.02D-07 Max=2.70D-06 NDo=     1
 LinEq1:  Iter=  8 NonCon=     1 RMS=2.34D-08 Max=2.27D-07 NDo=     1
 LinEq1:  Iter=  9 NonCon=     1 RMS=3.92D-09 Max=3.97D-08 NDo=     1
 LinEq1:  Iter= 10 NonCon=     1 RMS=7.23D-10 Max=1.17D-08 NDo=     1
 LinEq1:  Iter= 11 NonCon=     1 RMS=1.93D-10 Max=4.57D-09 NDo=     1
 LinEq1:  Iter= 12 NonCon=     0 RMS=5.57D-11 Max=6.05D-10 NDo=     1
 Linear equations converged to 1.000D-10 1.000D-09 after    12 iterations.
 End of Minotr F.D. properties file   721 does not exist.
 End of Minotr F.D. properties file   722 does not exist.
 End of Minotr F.D. properties file   788 does not exist.

 **********************************************************************

            Population analysis using the CC Density.

 **********************************************************************

 Alpha  occ. eigenvalues --  -91.95648 -11.32123  -8.95855  -6.63917  -6.63891
 Alpha  occ. eigenvalues --   -6.63693  -1.06422  -0.81465  -0.64493  -0.54133
 Alpha  occ. eigenvalues --   -0.41771  -0.35261
 Alpha virt. eigenvalues --    0.02840   0.03495   0.04269   0.06129   0.09229
 Alpha virt. eigenvalues --    0.10419   0.11645   0.13132   0.13507   0.14770
 Alpha virt. eigenvalues --    0.19860   0.21666   0.23063   0.24357   0.27037
 Alpha virt. eigenvalues --    0.29042   0.30908   0.31754   0.32522   0.34392
 Alpha virt. eigenvalues --    0.37571   0.38361   0.38577   0.40184   0.41299
 Alpha virt. eigenvalues --    0.43225   0.44724   0.45156   0.47147   0.48716
 Alpha virt. eigenvalues --    0.56395   0.62033   0.65215   0.66052   0.67765
 Alpha virt. eigenvalues --    0.74935   0.75459   0.76825   0.78906   0.80733
 Alpha virt. eigenvalues --    0.83262   0.84772   0.85098   0.87305   0.87811
 Alpha virt. eigenvalues --    0.89459   0.89816   0.96014   0.97164   0.97231
 Alpha virt. eigenvalues --    0.99518   0.99983   1.02053   1.08616   1.10740
 Alpha virt. eigenvalues --    1.10902   1.12567   1.13446   1.14024   1.16697
 Alpha virt. eigenvalues --    1.24532   1.30186   1.34175   1.42630   1.49897
 Alpha virt. eigenvalues --    1.52795   1.54991   1.58304   1.58507   1.58907
 Alpha virt. eigenvalues --    1.61746   1.65179   1.80248   1.87629   1.89177
 Alpha virt. eigenvalues --    2.02025   2.02633   2.02843   2.05451   2.08985
 Alpha virt. eigenvalues --    2.09771   2.13357   2.17730   2.34478   2.35664
 Alpha virt. eigenvalues --    2.39344   2.40521   2.42293   2.47514   2.50446
 Alpha virt. eigenvalues --    2.57244   2.69112   2.71709   2.89244   3.00840
 Alpha virt. eigenvalues --    3.04224   3.12193   3.19048   3.23533   3.46716
 Alpha virt. eigenvalues --    3.57844   3.59567   3.64427   3.67271   3.69175
 Alpha virt. eigenvalues --    3.80098   3.83559   3.85284   3.90265   3.92836
 Alpha virt. eigenvalues --    4.05385   4.10423   4.25199   4.40541   4.41784
 Alpha virt. eigenvalues --    4.45105   4.68654   4.73604   4.74384   5.07302
 Alpha virt. eigenvalues --    5.12398   5.24723   5.25062   5.29683   5.51136
 Alpha virt. eigenvalues --    5.84155   5.94606   6.48112   6.60309  15.23592
          Condensed to atoms (all electrons):
               1          2          3          4
     1  C    6.184727   0.274328   0.183419   0.183419
     2  S    0.274328  16.028200  -0.118560  -0.118560
     3  H    0.183419  -0.118560   0.649619  -0.160128
     4  H    0.183419  -0.118560  -0.160128   0.649619
 Mulliken charges:
               1
     1  C   -0.825893
     2  S   -0.065408
     3  H    0.445650
     4  H    0.445650
 Sum of Mulliken charges =  -0.00000
 Mulliken charges with hydrogens summed into heavy atoms:
               1
     1  C    0.065408
     2  S   -0.065408
 Electronic spatial extent (au):  <R**2>=            130.2883
 Charge=             -0.0000 electrons
 Dipole moment (field-independent basis, Debye):
    X=             -0.0082    Y=             -0.0000    Z=             -1.7522  Tot=              1.7522
 Quadrupole moment (field-independent basis, Debye-Ang):
   XX=            -19.9779   YY=            -20.5756   ZZ=            -18.9728
   XY=              0.0000   XZ=             -0.0051   YZ=             -0.0000
 Traceless Quadrupole moment (field-independent basis, Debye-Ang):
   XX=             -0.1358   YY=             -0.7335   ZZ=              0.8693
   XY=              0.0000   XZ=             -0.0051   YZ=             -0.0000
 Octapole moment (field-independent basis, Debye-Ang**2):
  XXX=             -0.1871  YYY=             -0.0000  ZZZ=            -27.6806  XYY=             -0.0675
  XXY=             -0.0000  XXZ=             -8.5631  XZZ=             -0.0857  YZZ=             -0.0000
  YYZ=            -13.1329  XYZ=              0.0000
 Hexadecapole moment (field-independent basis, Debye-Ang**3):
 XXXX=            -25.3207 YYYY=            -35.1175 ZZZZ=           -127.3631 XXXY=              0.0000
 XXXZ=              0.0691 YYYX=              0.0000 YYYZ=             -0.0000 ZZZX=              0.0709
 ZZZY=             -0.0000 XXYY=            -10.5023 XXZZ=            -25.3328 YYZZ=            -29.5538
 XXYZ=             -0.0000 YYXZ=              0.0407 ZZXY=              0.0000
 N-N= 4.470313220919D+01 E-N=-1.127361644487D+03  KE= 4.368672149469D+02
 There are a total of       91844 grid points.
 ElSum from          density=       24.0000001088
 ElSum from atomic densities=       24.0000001521

 Hirshfeld populations at iteration   1 (CX, CA, CB, DipXYZ):
               1          2          3          4          5          6
     1  C    0.000000   3.004471   3.004471   0.003336   0.000000  -0.150098
     2  S    0.000013   8.044540   8.044540  -0.002398  -0.000000   0.035448
     3  H    0.000004   0.475494   0.475494  -0.001999  -0.130000  -0.098236
     4  H    0.000004   0.475494   0.475494  -0.001999   0.130000  -0.098236
       Tot   0.000022  12.000000  12.000000  -0.003061  -0.000000  -0.311122

 Dip from Atomic Chgs             -0.000169  -0.000000  -0.378248
         Total Dipole             -0.003230  -0.000000  -0.689370

 Hirshfeld charges, spin densities, dipoles, and CM5 charges using IRadAn=      5:
              Q-H        S-H        Dx         Dy         Dz        Q-CM5   
     1  C   -0.008941   0.000000   0.003336   0.000000  -0.150098  -0.087081
     2  S   -0.089081   0.000000  -0.002398  -0.000000   0.035448  -0.117462
     3  H    0.049011   0.000000  -0.001999  -0.130000  -0.098236   0.102271
     4  H    0.049011   0.000000  -0.001999   0.130000  -0.098236   0.102271
       Tot  -0.000000   0.000000  -0.003061  -0.000000  -0.311122  -0.000000
 Hirshfeld charges with hydrogens summed into heavy atoms:
              Q-H       Q-CM5   
     1  C    0.089081   0.117462
     2  S   -0.089081  -0.117462
 
 EQQ= 0.000000000000E+00 EQD= 0.000000000000E+00 EDD= 0.297325602790E-02
 EQQ+QD+DD= 0.297325602790E-02
 
 Breneman (CHELPG) radii used.
 Generate Potential Derived Charges using the Breneman model, NDens= 1.
 Grid spacing= 0.300 Box extension= 2.800
 NStep X,Y,Z=   20     26     27   Total possible points=       14040
 Number of Points to Fit=    4706

 **********************************************************************

            Electrostatic Properties Using The CC Density.

 **********************************************************************

       Atomic Center    1 is at   0.010000  0.000000 -0.555291
       Atomic Center    2 is at   0.000000  0.000000  1.060374
       Atomic Center    3 is at   0.000000 -0.922280 -1.128992
       Atomic Center    4 is at   0.000000  0.922280 -1.128992
    4706 points will be used for fitting atomic charges
 Fitting point charges to electrostatic potential
 The dipole moment will be constrained to the correct value
 Charges from ESP fit, RMS=   0.00566 RRMS=   0.42549:
 ESP charges:
               1
     1  C   -0.170926
     2  S   -0.121834
     3  H    0.146380
     4  H    0.146380
 Sum of ESP charges =   0.00000
 ESP charges with hydrogens summed into heavy atoms:
               1
     1  C    0.121834
     2  S   -0.121834
 Charge=   0.00000 Dipole=    -0.0082    -0.0000    -1.7522 Tot=     1.7522
 -----------------------------------------------------------------

              Electrostatic Properties (Atomic Units)

 -----------------------------------------------------------------
    Center     Electric         -------- Electric Field --------
               Potential          X             Y             Z
 -----------------------------------------------------------------
    1 Atom    -14.689369
    2 Atom    -59.229716
    3 Atom     -1.071843
    4 Atom     -1.071843
 -----------------------------------------------------------------
 ******************************Gaussian NBO Version 3.1******************************
             N A T U R A L   A T O M I C   O R B I T A L   A N D
          N A T U R A L   B O N D   O R B I T A L   A N A L Y S I S
 ******************************Gaussian NBO Version 3.1******************************
       /RESON  / : Allow strongly delocalized NBO set

 Analyzing the QCI/CC density

 Job title: h2cs-wavefunction                                               

 Storage needed:     61222 in NPA (2147483536 available)
 GSVD:  LWork=        -636 too small for GESVD, short by       41336 words or       41336 for optimal perf.


 NATURAL POPULATIONS:  Natural atomic orbital occupancies 
                                                          
   NAO  Atom  No  lang   Type(AO)    Occupancy
 --------------------------------------------
     1    C    1  S      Cor( 1S)     1.99939
     2    C    1  S      Val( 2S)     1.18139
     3    C    1  S      Ryd( 3S)     0.00806
     4    C    1  S      Ryd( 4S)     0.00050
     5    C    1  S      Ryd( 5S)     0.00007
     6    C    1  px     Val( 2p)     0.88307
     7    C    1  px     Ryd( 3p)     0.00620
     8    C    1  px     Ryd( 5p)     0.00023
     9    C    1  px     Ryd( 4p)     0.00028
    10    C    1  py     Val( 2p)     1.17594
    11    C    1  py     Ryd( 3p)     0.00608
    12    C    1  py     Ryd( 4p)     0.00045
    13    C    1  py     Ryd( 5p)     0.00031
    14    C    1  pz     Val( 2p)     1.10010
    15    C    1  pz     Ryd( 3p)     0.00712
    16    C    1  pz     Ryd( 4p)     0.00028
    17    C    1  pz     Ryd( 5p)     0.00008
    18    C    1  dxy    Ryd( 3d)     0.00626
    19    C    1  dxy    Ryd( 4d)     0.00025
    20    C    1  dxy    Ryd( 5d)     0.00012
    21    C    1  dxz    Ryd( 3d)     0.00970
    22    C    1  dxz    Ryd( 4d)     0.00026
    23    C    1  dxz    Ryd( 5d)     0.00011
    24    C    1  dyz    Ryd( 3d)     0.01134
    25    C    1  dyz    Ryd( 4d)     0.00028
    26    C    1  dyz    Ryd( 5d)     0.00024
    27    C    1  dx2y2  Ryd( 3d)     0.00767
    28    C    1  dx2y2  Ryd( 4d)     0.00030
    29    C    1  dx2y2  Ryd( 5d)     0.00011
    30    C    1  dz2    Ryd( 3d)     0.01233
    31    C    1  dz2    Ryd( 4d)     0.00030
    32    C    1  dz2    Ryd( 5d)     0.00013
    33    C    1  f(0)   Ryd( 4f)     0.00060
    34    C    1  f(0)   Ryd( 5f)     0.00008
    35    C    1  f(C1)  Ryd( 4f)     0.00056
    36    C    1  f(C1)  Ryd( 5f)     0.00012
    37    C    1  f(S1)  Ryd( 4f)     0.00065
    38    C    1  f(S1)  Ryd( 5f)     0.00012
    39    C    1  f(C2)  Ryd( 4f)     0.00083
    40    C    1  f(C2)  Ryd( 5f)     0.00011
    41    C    1  f(S2)  Ryd( 4f)     0.00065
    42    C    1  f(S2)  Ryd( 5f)     0.00014
    43    C    1  f(C3)  Ryd( 4f)     0.00048
    44    C    1  f(C3)  Ryd( 5f)     0.00013
    45    C    1  f(S3)  Ryd( 4f)     0.00069
    46    C    1  f(S3)  Ryd( 5f)     0.00012

    47    S    2  S      Cor( 1S)     2.00000
    48    S    2  S      Cor( 2S)     1.99900
    49    S    2  S      Val( 3S)     1.72849
    50    S    2  S      Ryd( 4S)     0.01581
    51    S    2  S      Ryd( 5S)     0.00041
    52    S    2  S      Ryd( 6S)     0.00011
    53    S    2  px     Cor( 2p)     1.99986
    54    S    2  px     Val( 3p)     1.08400
    55    S    2  px     Ryd( 4p)     0.00431
    56    S    2  px     Ryd( 5p)     0.00031
    57    S    2  px     Ryd( 6p)     0.00002
    58    S    2  py     Cor( 2p)     2.00000
    59    S    2  py     Val( 3p)     1.87202
    60    S    2  py     Ryd( 4p)     0.01449
    61    S    2  py     Ryd( 5p)     0.00055
    62    S    2  py     Ryd( 6p)     0.00005
    63    S    2  pz     Cor( 2p)     1.99973
    64    S    2  pz     Val( 3p)     1.07834
    65    S    2  pz     Ryd( 4p)     0.00647
    66    S    2  pz     Ryd( 5p)     0.00041
    67    S    2  pz     Ryd( 6p)     0.00004
    68    S    2  dxy    Ryd( 3d)     0.01720
    69    S    2  dxy    Ryd( 4d)     0.00057
    70    S    2  dxy    Ryd( 5d)     0.00006
    71    S    2  dxz    Ryd( 3d)     0.01853
    72    S    2  dxz    Ryd( 4d)     0.00033
    73    S    2  dxz    Ryd( 5d)     0.00007
    74    S    2  dyz    Ryd( 3d)     0.01395
    75    S    2  dyz    Ryd( 4d)     0.00049
    76    S    2  dyz    Ryd( 5d)     0.00027
    77    S    2  dx2y2  Ryd( 3d)     0.01636
    78    S    2  dx2y2  Ryd( 4d)     0.00060
    79    S    2  dx2y2  Ryd( 5d)     0.00006
    80    S    2  dz2    Ryd( 3d)     0.02342
    81    S    2  dz2    Ryd( 4d)     0.00031
    82    S    2  dz2    Ryd( 5d)     0.00016
    83    S    2  f(0)   Ryd( 4f)     0.00133
    84    S    2  f(0)   Ryd( 5f)     0.00018
    85    S    2  f(C1)  Ryd( 4f)     0.00100
    86    S    2  f(C1)  Ryd( 5f)     0.00013
    87    S    2  f(S1)  Ryd( 4f)     0.00123
    88    S    2  f(S1)  Ryd( 5f)     0.00017
    89    S    2  f(C2)  Ryd( 4f)     0.00125
    90    S    2  f(C2)  Ryd( 5f)     0.00013
    91    S    2  f(S2)  Ryd( 4f)     0.00132
    92    S    2  f(S2)  Ryd( 5f)     0.00011
    93    S    2  f(C3)  Ryd( 4f)     0.00151
    94    S    2  f(C3)  Ryd( 5f)     0.00011
    95    S    2  f(S3)  Ryd( 4f)     0.00151
    96    S    2  f(S3)  Ryd( 5f)     0.00012

    97    H    3  S      Val( 1S)     0.82330
    98    H    3  S      Ryd( 2S)     0.00303
    99    H    3  S      Ryd( 3S)     0.00016
   100    H    3  S      Ryd( 4S)     0.00006
   101    H    3  px     Ryd( 2p)     0.00094
   102    H    3  px     Ryd( 3p)     0.00050
   103    H    3  px     Ryd( 4p)     0.00007
   104    H    3  py     Ryd( 2p)     0.00149
   105    H    3  py     Ryd( 3p)     0.00037
   106    H    3  py     Ryd( 4p)     0.00023
   107    H    3  pz     Ryd( 2p)     0.00283
   108    H    3  pz     Ryd( 3p)     0.00047
   109    H    3  pz     Ryd( 4p)     0.00017
   110    H    3  dxy    Ryd( 4d)     0.00007
   111    H    3  dxy    Ryd( 3d)     0.00007
   112    H    3  dxz    Ryd( 3d)     0.00010
   113    H    3  dxz    Ryd( 4d)     0.00005
   114    H    3  dyz    Ryd( 4d)     0.00009
   115    H    3  dyz    Ryd( 3d)     0.00010
   116    H    3  dx2y2  Ryd( 3d)     0.00011
   117    H    3  dx2y2  Ryd( 4d)     0.00009
   118    H    3  dz2    Ryd( 3d)     0.00009
   119    H    3  dz2    Ryd( 4d)     0.00006

   120    H    4  S      Val( 1S)     0.82330
   121    H    4  S      Ryd( 2S)     0.00303
   122    H    4  S      Ryd( 3S)     0.00016
   123    H    4  S      Ryd( 4S)     0.00006
   124    H    4  px     Ryd( 2p)     0.00094
   125    H    4  px     Ryd( 3p)     0.00050
   126    H    4  px     Ryd( 4p)     0.00007
   127    H    4  py     Ryd( 2p)     0.00149
   128    H    4  py     Ryd( 3p)     0.00037
   129    H    4  py     Ryd( 4p)     0.00023
   130    H    4  pz     Ryd( 2p)     0.00283
   131    H    4  pz     Ryd( 3p)     0.00047
   132    H    4  pz     Ryd( 4p)     0.00017
   133    H    4  dxy    Ryd( 4d)     0.00007
   134    H    4  dxy    Ryd( 3d)     0.00007
   135    H    4  dxz    Ryd( 3d)     0.00010
   136    H    4  dxz    Ryd( 4d)     0.00005
   137    H    4  dyz    Ryd( 4d)     0.00009
   138    H    4  dyz    Ryd( 3d)     0.00010
   139    H    4  dx2y2  Ryd( 3d)     0.00011
   140    H    4  dx2y2  Ryd( 4d)     0.00009
   141    H    4  dz2    Ryd( 3d)     0.00009
   142    H    4  dz2    Ryd( 4d)     0.00006

 WARNING:  1 low occupancy (<1.9990e) core orbital  found on  S    2


 Summary of Natural Population Analysis:                  
                                                          
                                       Natural Population 
                Natural  -----------------------------------------------
    Atom  No    Charge         Core      Valence    Rydberg      Total
 -----------------------------------------------------------------------
      C    1   -0.42425      1.99939     4.34050    0.08436     6.42425
      S    2    0.09311      9.99859     5.76285    0.14544    15.90689
      H    3    0.16557      0.00000     0.82330    0.01113     0.83443
      H    4    0.16557      0.00000     0.82330    0.01113     0.83443
 =======================================================================
   * Total *   -0.00000     11.99798    11.74996    0.25206    24.00000

                                 Natural Population      
 --------------------------------------------------------
   Core                      11.99798 ( 99.9831% of  12)
   Valence                   11.74996 ( 97.9164% of  12)
   Natural Minimal Basis     23.74794 ( 98.9498% of  24)
   Natural Rydberg Basis      0.25206 (  1.0502% of  24)
 --------------------------------------------------------

    Atom  No          Natural Electron Configuration
 ----------------------------------------------------------------------------
      C    1      [core]2S( 1.18)2p( 3.16)3S( 0.01)3p( 0.02)3d( 0.05)
      S    2      [core]3S( 1.73)3p( 4.03)4S( 0.02)3d( 0.09)4p( 0.03)4f( 0.01)
      H    3            1S( 0.82)2p( 0.01)
      H    4            1S( 0.82)2p( 0.01)


 NBO analysis skipped by request.
 Unable to Open any file for archive entry.
 1\1\GINC-TRAPISTA\SP\RQCISD-FC\Aug-CC-pVTZ\C1H2S1\WAGNER\02-Sep-2022\0
 \\# qcisd/aug-cc-pvtz nosymm density=current pop=(chelpg,hirshfeld,npa
 ,dipole)\\h2cs-wavefunction\\0,1\C,0,0.01,0.,-0.555291\S,0,0.,0.,1.060
 374\H,0,0.,-0.92228,-1.128992\H,0,0.,0.92228,-1.128992\\Version=EM64L-
 G16RevC.01\HF=-436.5575627\MP2=-436.8984394\MP3=-436.9212508\MP4D=-436
 .9312714\MP4DQ=-436.9196074\MP4SDQ=-436.9230905\QCISD=-436.9234952\RMS
 D=3.148e-09\Dipole=-0.00323,0.,-0.6893696\Quadrupole=-0.1009582,-0.545
 344,0.6463023,0.,-0.0037608,0.\PG=CS [SG(C1S1),X(H2)]\\@
 The archive entry for this job was punched.


 EDUCATION DOESN'T COST 
           ... IT PAYS!

 -- POSTMARK, UNIV. OF MISSISSIPPI, DEC 78
 Job cpu time:       0 days  1 hours 33 minutes 54.6 seconds.
 Elapsed time:       0 days  0 hours  5 minutes 57.2 seconds.
 File lengths (MBytes):  RWF=   7177 Int=      0 D2E=      0 Chk=      3 Scr=      1
 Normal termination of Gaussian 16 at Fri Sep  2 20:24:32 2022.
