 Entering Gaussian System, Link 0=/home/wagner/chemistry/gaussian/g16/g16
 Input=GAUSSIAN.com
 Output=GAUSSIAN.log
 Initial command:
 /home/wagner/chemistry/gaussian/g16/l1.exe "/home/wagner/chemistry/gaussian/work/Gau-72056.inp" -scrdir="/home/wagner/chemistry/gaussian/work/"
 Entering Link 1 = /home/wagner/chemistry/gaussian/g16/l1.exe PID=     72058.
  
 Copyright (c) 1988-2019, Gaussian, Inc.  All Rights Reserved.
  
 This is part of the Gaussian(R) 16 program.  It is based on
 the Gaussian(R) 09 system (copyright 2009, Gaussian, Inc.),
 the Gaussian(R) 03 system (copyright 2003, Gaussian, Inc.),
 the Gaussian(R) 98 system (copyright 1998, Gaussian, Inc.),
 the Gaussian(R) 94 system (copyright 1995, Gaussian, Inc.),
 the Gaussian 92(TM) system (copyright 1992, Gaussian, Inc.),
 the Gaussian 90(TM) system (copyright 1990, Gaussian, Inc.),
 the Gaussian 88(TM) system (copyright 1988, Gaussian, Inc.),
 the Gaussian 86(TM) system (copyright 1986, Carnegie Mellon
 University), and the Gaussian 82(TM) system (copyright 1983,
 Carnegie Mellon University). Gaussian is a federally registered
 trademark of Gaussian, Inc.
  
 This software contains proprietary and confidential information,
 including trade secrets, belonging to Gaussian, Inc.
  
 This software is provided under written license and may be
 used, copied, transmitted, or stored only in accord with that
 written license.
  
 The following legend is applicable only to US Government
 contracts under FAR:
  
                    RESTRICTED RIGHTS LEGEND
  
 Use, reproduction and disclosure by the US Government is
 subject to restrictions as set forth in subparagraphs (a)
 and (c) of the Commercial Computer Software - Restricted
 Rights clause in FAR 52.227-19.
  
 Gaussian, Inc.
 340 Quinnipiac St., Bldg. 40, Wallingford CT 06492
  
  
 ---------------------------------------------------------------
 Warning -- This program may not be used in any manner that
 competes with the business of Gaussian, Inc. or will provide
 assistance to any competitor of Gaussian, Inc.  The licensee
 of this program is prohibited from giving any competitor of
 Gaussian, Inc. access to this program.  By using this program,
 the user acknowledges that Gaussian, Inc. is engaged in the
 business of creating and licensing software in the field of
 computational chemistry and represents and warrants to the
 licensee that it is not a competitor of Gaussian, Inc. and that
 it will not use this program in any manner prohibited above.
 ---------------------------------------------------------------
  

 Cite this work as:
 Gaussian 16, Revision C.01,
 M. J. Frisch, G. W. Trucks, H. B. Schlegel, G. E. Scuseria, 
 M. A. Robb, J. R. Cheeseman, G. Scalmani, V. Barone, 
 G. A. Petersson, H. Nakatsuji, X. Li, M. Caricato, A. V. Marenich, 
 J. Bloino, B. G. Janesko, R. Gomperts, B. Mennucci, H. P. Hratchian, 
 J. V. Ortiz, A. F. Izmaylov, J. L. Sonnenberg, D. Williams-Young, 
 F. Ding, F. Lipparini, F. Egidi, J. Goings, B. Peng, A. Petrone, 
 T. Henderson, D. Ranasinghe, V. G. Zakrzewski, J. Gao, N. Rega, 
 G. Zheng, W. Liang, M. Hada, M. Ehara, K. Toyota, R. Fukuda, 
 J. Hasegawa, M. Ishida, T. Nakajima, Y. Honda, O. Kitao, H. Nakai, 
 T. Vreven, K. Throssell, J. A. Montgomery, Jr., J. E. Peralta, 
 F. Ogliaro, M. J. Bearpark, J. J. Heyd, E. N. Brothers, K. N. Kudin, 
 V. N. Staroverov, T. A. Keith, R. Kobayashi, J. Normand, 
 K. Raghavachari, A. P. Rendell, J. C. Burant, S. S. Iyengar, 
 J. Tomasi, M. Cossi, J. M. Millam, M. Klene, C. Adamo, R. Cammi, 
 J. W. Ochterski, R. L. Martin, K. Morokuma, O. Farkas, 
 J. B. Foresman, and D. J. Fox, Gaussian, Inc., Wallingford CT, 2019.
 
 ******************************************
 Gaussian 16:  EM64L-G16RevC.01  3-Jul-2019
                 2-Sep-2022 
 ******************************************
 %nproc=16
 Will use up to   16 processors via shared memory.
 %mem=16GB
 ----------------------------------------------------------------------
 # qcisd/aug-cc-pvtz nosymm density=current pop=(chelpg,hirshfeld,npa,d
 ipole)
 ----------------------------------------------------------------------
 1/30=1,38=1,172=1/1;
 2/12=2,15=1,17=6,18=5,40=1/2;
 3/5=16,6=1,7=10,11=9,25=1,30=1,71=1/1,2,3;
 4//1;
 5/5=2,38=5/2;
 8/6=4,9=120000,10=1/1,4;
 9/5=8,15=1/13;
 11/28=-7,31=1,32=3,42=3/11;
 10/5=6,13=10,31=1/2;
 6/7=2,8=2,9=2,10=2,15=24,20=3,22=-1,40=-1,79=1/1,2,7;
 99/5=1,9=1/99;
 -----------------
 h2cs-wavefunction
 -----------------
 Symbolic Z-matrix:
 Charge =  0 Multiplicity = 1
 C                     0.        0.       -0.56529 
 S                     0.        0.        1.06037 
 H                     0.       -0.92228  -1.12899 
 H                     0.        0.92228  -1.12899 
 
                          Input orientation:                          
 ---------------------------------------------------------------------
 Center     Atomic      Atomic             Coordinates (Angstroms)
 Number     Number       Type             X           Y           Z
 ---------------------------------------------------------------------
      1          6           0        0.000000    0.000000   -0.565291
      2         16           0        0.000000    0.000000    1.060374
      3          1           0        0.000000   -0.922280   -1.128992
      4          1           0        0.000000    0.922280   -1.128992
 ---------------------------------------------------------------------
                    Distance matrix (angstroms):
                    1          2          3          4
     1  C    0.000000
     2  S    1.625665   0.000000
     3  H    1.080907   2.375694   0.000000
     4  H    1.080907   2.375694   1.844560   0.000000
 Symmetry turned off by external request.
 Stoichiometry    CH2S
 Framework group  C2V[C2(CS),SGV(H2)]
 Deg. of freedom     3
 Full point group                 C2V     NOp   4
 Rotational constants (GHZ):         294.7653830          17.4675997          16.4903902
 Standard basis: Aug-CC-pVTZ (5D, 7F)
   142 basis functions,   240 primitive gaussians,   164 cartesian basis functions
    12 alpha electrons       12 beta electrons
       nuclear repulsion energy        44.5389559622 Hartrees.
 NAtoms=    4 NActive=    4 NUniq=    4 SFac= 1.00D+00 NAtFMM=   60 NAOKFM=F Big=F
 Integral buffers will be    131072 words long.
 Raffenetti 1 integral format.
 Two-electron integral symmetry is turned off.
 One-electron integrals computed using PRISM.
 NBasis=   142 RedAO= T EigKep=  8.88D-05  NBF=   142
 NBsUse=   142 1.00D-06 EigRej= -1.00D+00 NBFU=   142
 ExpMin= 2.53D-02 ExpMax= 3.74D+05 ExpMxC= 1.18D+03 IAcc=3 IRadAn=         5 AccDes= 0.00D+00
 Harris functional with IExCor=  205 and IRadAn=       5 diagonalized for initial guess.
 HarFok:  IExCor=  205 AccDes= 0.00D+00 IRadAn=         5 IDoV= 1 UseB2=F ITyADJ=14
 ICtDFT=  3500011 ScaDFX=  1.000000  1.000000  1.000000  1.000000
 FoFCou: FMM=F IPFlag=           0 FMFlag=      100000 FMFlg1=           0
         NFxFlg=           0 DoJE=T BraDBF=F KetDBF=T FulRan=T
         wScrn=  0.000000 ICntrl=       500 IOpCl=  0 I1Cent=   200000004 NGrid=           0
         NMat0=    1 NMatS0=      1 NMatT0=    0 NMatD0=    1 NMtDS0=    0 NMtDT0=    0
 Symmetry not used in FoFCou.
 Keep R1 ints in memory in canonical form, NReq=59473533.
 Requested convergence on RMS density matrix=1.00D-08 within 128 cycles.
 Requested convergence on MAX density matrix=1.00D-06.
 Requested convergence on             energy=1.00D-06.
 No special actions if energy rises.
 SCF Done:  E(RHF) =  -436.557223177     A.U. after   12 cycles
            NFock= 12  Conv=0.30D-08     -V/T= 2.0003
 ExpMin= 2.53D-02 ExpMax= 3.74D+05 ExpMxC= 1.18D+03 IAcc=3 IRadAn=         5 AccDes= 0.00D+00
 HarFok:  IExCor=  205 AccDes= 0.00D+00 IRadAn=         5 IDoV=-2 UseB2=F ITyADJ=14
 ICtDFT= 12500011 ScaDFX=  1.000000  1.000000  1.000000  1.000000
 Range of M.O.s used for correlation:     7   142
 NBasis=   142 NAE=    12 NBE=    12 NFC=     6 NFV=     0
 NROrb=    136 NOA=     6 NOB=     6 NVA=   130 NVB=   130

 **** Warning!!: The largest alpha MO coefficient is  0.44660586D+02

 Semi-Direct transformation.
 ModeAB=           2 MOrb=             6 LenV=    2146811055
 LASXX=      7286295 LTotXX=     7286295 LenRXX=     7286295
 LTotAB=     7445736 MaxLAS=    11040480 LenRXY=    11040480
 NonZer=    14572590 LenScr=    22628352 LnRSAI=           0
 LnScr1=           0 LExtra=           0 Total=     40955127
 MaxDsk=          -1 SrtSym=           F ITran=            4
 JobTyp=0 Pass  1:  I=   1 to   6.
 (rs|ai) integrals will be sorted in core.
 Spin components of T(2) and E(2):
     alpha-alpha T2 =       0.1690206594D-01 E2=     -0.3869427334D-01
     alpha-beta  T2 =       0.1056326215D+00 E2=     -0.2637230033D+00
     beta-beta   T2 =       0.1690206594D-01 E2=     -0.3869427334D-01
 ANorm=    0.1067444028D+01
 E2 =    -0.3411115500D+00 EUMP2 =    -0.43689833472672D+03
 Keep R2 and R3 ints in memory in canonical form, NReq=111025316.
 CIDS: In Core Option IDoMem=           1.
 Iterations=  50 Convergence= 0.100D-07
 Produce multiple copies of IABC intergrals
 Iteration Nr.   1
 **********************
 DD1Dir will call FoFMem   1 times, MxPair=        42
 NAB=    21 NAA=     0 NBB=     0.
 MP4(R+Q)=  0.11740888D-01
 E3=       -0.22757455D-01        EUMP3=      -0.43692109218D+03
 E4(DQ)=    0.16844432D-02        UMP4(DQ)=   -0.43691940774D+03
 E4(SDQ)=  -0.18766586D-02        UMP4(SDQ)=  -0.43692296884D+03
 DE(Corr)= -0.35212812     E(Corr)=     -436.90935129    
 NORM(A)=   0.10740681D+01
 Iteration Nr.   2
 **********************
 DD1Dir will call FoFMem   1 times, MxPair=        42
 NAB=    21 NAA=     0 NBB=     0.
 DE(Corr)= -0.36366985     E(CORR)=     -436.92089303     Delta=-1.15D-02
 NORM(A)=   0.10815429D+01
 Iteration Nr.   3
 **********************
 DD1Dir will call FoFMem   1 times, MxPair=        42
 NAB=    21 NAA=     0 NBB=     0.
 DE(Corr)= -0.36457277     E(CORR)=     -436.92179594     Delta=-9.03D-04
 NORM(A)=   0.10840721D+01
 Iteration Nr.   4
 **********************
 DD1Dir will call FoFMem   1 times, MxPair=        42
 NAB=    21 NAA=     0 NBB=     0.
 DE(Corr)= -0.36593752     E(CORR)=     -436.92316069     Delta=-1.36D-03
 NORM(A)=   0.10851241D+01
 Iteration Nr.   5
 **********************
 DD1Dir will call FoFMem   1 times, MxPair=        42
 NAB=    21 NAA=     0 NBB=     0.
 DE(Corr)= -0.36614473     E(CORR)=     -436.92336791     Delta=-2.07D-04
 NORM(A)=   0.10855115D+01
 Iteration Nr.   6
 **********************
 DD1Dir will call FoFMem   1 times, MxPair=        42
 NAB=    21 NAA=     0 NBB=     0.
 DE(Corr)= -0.36617853     E(CORR)=     -436.92340171     Delta=-3.38D-05
 NORM(A)=   0.10855282D+01
 Iteration Nr.   7
 **********************
 DD1Dir will call FoFMem   1 times, MxPair=        42
 NAB=    21 NAA=     0 NBB=     0.
 DE(Corr)= -0.36618009     E(CORR)=     -436.92340327     Delta=-1.56D-06
 NORM(A)=   0.10855406D+01
 Iteration Nr.   8
 **********************
 DD1Dir will call FoFMem   1 times, MxPair=        42
 NAB=    21 NAA=     0 NBB=     0.
 DE(Corr)= -0.36617701     E(CORR)=     -436.92340018     Delta= 3.08D-06
 NORM(A)=   0.10855396D+01
 Iteration Nr.   9
 **********************
 DD1Dir will call FoFMem   1 times, MxPair=        42
 NAB=    21 NAA=     0 NBB=     0.
 DE(Corr)= -0.36617960     E(CORR)=     -436.92340277     Delta=-2.59D-06
 NORM(A)=   0.10855409D+01
 Iteration Nr.  10
 **********************
 DD1Dir will call FoFMem   1 times, MxPair=        42
 NAB=    21 NAA=     0 NBB=     0.
 DE(Corr)= -0.36617923     E(CORR)=     -436.92340241     Delta= 3.63D-07
 NORM(A)=   0.10855418D+01
 Iteration Nr.  11
 **********************
 DD1Dir will call FoFMem   1 times, MxPair=        42
 NAB=    21 NAA=     0 NBB=     0.
 DE(Corr)= -0.36617978     E(CORR)=     -436.92340296     Delta=-5.51D-07
 NORM(A)=   0.10855423D+01
 Iteration Nr.  12
 **********************
 DD1Dir will call FoFMem   1 times, MxPair=        42
 NAB=    21 NAA=     0 NBB=     0.
 DE(Corr)= -0.36617989     E(CORR)=     -436.92340307     Delta=-1.10D-07
 NORM(A)=   0.10855427D+01
 Iteration Nr.  13
 **********************
 DD1Dir will call FoFMem   1 times, MxPair=        42
 NAB=    21 NAA=     0 NBB=     0.
 DE(Corr)= -0.36617999     E(CORR)=     -436.92340317     Delta=-9.36D-08
 NORM(A)=   0.10855429D+01
 Iteration Nr.  14
 **********************
 DD1Dir will call FoFMem   1 times, MxPair=        42
 NAB=    21 NAA=     0 NBB=     0.
 DE(Corr)= -0.36618002     E(CORR)=     -436.92340320     Delta=-3.16D-08
 NORM(A)=   0.10855430D+01
 Iteration Nr.  15
 **********************
 DD1Dir will call FoFMem   1 times, MxPair=        42
 NAB=    21 NAA=     0 NBB=     0.
 DE(Corr)= -0.36618003     E(CORR)=     -436.92340321     Delta=-9.49D-09
 NORM(A)=   0.10855430D+01
 Wavefunction amplitudes converged. E(Corr)=     -436.92340321    
 Dominant configurations:
 ***********************
 Spin Case        I    J    A    B          Value
   ABAB          11   11   14   14      -0.116817D+00
 Largest amplitude= 1.17D-01

 Z-amplitude iterations

 Iteration Nr.   1
 **********************
 DD1Dir will call FoFMem   1 times, MxPair=        42
 NAB=    21 NAA=     0 NBB=     0.
 DE(Z)= -0.35000771     E(Z)=     -436.90723088     Delta= 1.62D-02
 NORM(A)=   0.10855288D+01
 Iteration Nr.   2
 **********************
 DD1Dir will call FoFMem   1 times, MxPair=        42
 NAB=    21 NAA=     0 NBB=     0.
 DE(Z)= -0.35000710     E(Z)=     -436.90723028     Delta= 6.04D-07
 NORM(A)=   0.10855320D+01
 Iteration Nr.   3
 **********************
 DD1Dir will call FoFMem   1 times, MxPair=        42
 NAB=    21 NAA=     0 NBB=     0.
 DE(Z)= -0.35000722     E(Z)=     -436.90723040     Delta=-1.19D-07
 NORM(A)=   0.10855228D+01
 Iteration Nr.   4
 **********************
 DD1Dir will call FoFMem   1 times, MxPair=        42
 NAB=    21 NAA=     0 NBB=     0.
 DE(Z)= -0.35000682     E(Z)=     -436.90722999     Delta= 4.05D-07
 NORM(A)=   0.10855088D+01
 Iteration Nr.   5
 **********************
 DD1Dir will call FoFMem   1 times, MxPair=        42
 NAB=    21 NAA=     0 NBB=     0.
 DE(Z)= -0.35000616     E(Z)=     -436.90722934     Delta= 6.53D-07
 NORM(A)=   0.10771779D+01
 Iteration Nr.   6
 **********************
 DD1Dir will call FoFMem   1 times, MxPair=        42
 NAB=    21 NAA=     0 NBB=     0.
 DE(Z)= -0.34961920     E(Z)=     -436.90684238     Delta= 3.87D-04
 NORM(A)=   0.10771751D+01
 Iteration Nr.   7
 **********************
 DD1Dir will call FoFMem   1 times, MxPair=        42
 NAB=    21 NAA=     0 NBB=     0.
 DE(Z)= -0.34961840     E(Z)=     -436.90684157     Delta= 8.02D-07
 NORM(A)=   0.10771715D+01
 Iteration Nr.   8
 **********************
 DD1Dir will call FoFMem   1 times, MxPair=        42
 NAB=    21 NAA=     0 NBB=     0.
 DE(Z)= -0.34961819     E(Z)=     -436.90684136     Delta= 2.10D-07
 NORM(A)=   0.10771708D+01
 Iteration Nr.   9
 **********************
 DD1Dir will call FoFMem   1 times, MxPair=        42
 NAB=    21 NAA=     0 NBB=     0.
 DE(Z)= -0.34961794     E(Z)=     -436.90684112     Delta= 2.46D-07
 NORM(A)=   0.10771707D+01
 Iteration Nr.  10
 **********************
 DD1Dir will call FoFMem   1 times, MxPair=        42
 NAB=    21 NAA=     0 NBB=     0.
 DE(Z)= -0.34961794     E(Z)=     -436.90684112     Delta= 3.05D-09
 NORM(A)=   0.10771708D+01
 Z-amplitudes converged.
 Discarding MO integrals.
          Differentiating once with respect to electric field.
                with respect to dipole field.
          Electric field/nuclear overlap derivatives assumed to be zero.
 Keep R1 ints in memory in canonical form, NReq=59475039.
          There are     1 degrees of freedom in the 1st order CPHF.  IDoFFX=0 NUNeed=     1.
 LinEq1:  Iter=  0 NonCon=     1 RMS=2.98D-03 Max=4.41D-02 NDo=     1
 AX will form     1 AO Fock derivatives at one time.
 LinEq1:  Iter=  1 NonCon=     1 RMS=9.90D-04 Max=1.25D-02 NDo=     1
 LinEq1:  Iter=  2 NonCon=     1 RMS=4.87D-04 Max=1.37D-02 NDo=     1
 LinEq1:  Iter=  3 NonCon=     1 RMS=1.65D-04 Max=2.55D-03 NDo=     1
 LinEq1:  Iter=  4 NonCon=     1 RMS=4.08D-05 Max=5.26D-04 NDo=     1
 LinEq1:  Iter=  5 NonCon=     1 RMS=8.91D-06 Max=1.03D-04 NDo=     1
 LinEq1:  Iter=  6 NonCon=     1 RMS=1.56D-06 Max=2.21D-05 NDo=     1
 LinEq1:  Iter=  7 NonCon=     1 RMS=2.05D-07 Max=2.74D-06 NDo=     1
 LinEq1:  Iter=  8 NonCon=     1 RMS=2.39D-08 Max=2.31D-07 NDo=     1
 LinEq1:  Iter=  9 NonCon=     1 RMS=3.82D-09 Max=3.88D-08 NDo=     1
 LinEq1:  Iter= 10 NonCon=     1 RMS=5.28D-10 Max=5.87D-09 NDo=     1
 LinEq1:  Iter= 11 NonCon=     0 RMS=6.45D-11 Max=6.59D-10 NDo=     1
 Linear equations converged to 1.000D-10 1.000D-09 after    11 iterations.
 End of Minotr F.D. properties file   721 does not exist.
 End of Minotr F.D. properties file   722 does not exist.
 End of Minotr F.D. properties file   788 does not exist.

 **********************************************************************

            Population analysis using the CC Density.

 **********************************************************************

 Alpha  occ. eigenvalues --  -91.95703 -11.32196  -8.95871  -6.63928  -6.63908
 Alpha  occ. eigenvalues --   -6.63710  -1.06191  -0.81622  -0.64815  -0.53969
 Alpha  occ. eigenvalues --   -0.41559  -0.35301
 Alpha virt. eigenvalues --    0.02830   0.03370   0.04259   0.06132   0.09241
 Alpha virt. eigenvalues --    0.10419   0.11664   0.13110   0.13484   0.14758
 Alpha virt. eigenvalues --    0.19814   0.21631   0.23043   0.24402   0.26959
 Alpha virt. eigenvalues --    0.29087   0.30941   0.31763   0.32516   0.34327
 Alpha virt. eigenvalues --    0.37474   0.38442   0.38536   0.40147   0.41297
 Alpha virt. eigenvalues --    0.43154   0.44611   0.45251   0.47167   0.48489
 Alpha virt. eigenvalues --    0.56505   0.62067   0.65392   0.66113   0.67785
 Alpha virt. eigenvalues --    0.75009   0.75482   0.76729   0.79006   0.80586
 Alpha virt. eigenvalues --    0.83453   0.84638   0.84960   0.87193   0.87835
 Alpha virt. eigenvalues --    0.89474   0.89751   0.95993   0.97104   0.97175
 Alpha virt. eigenvalues --    0.99351   0.99797   1.01958   1.08476   1.10644
 Alpha virt. eigenvalues --    1.10821   1.12572   1.13350   1.14025   1.16702
 Alpha virt. eigenvalues --    1.24323   1.30320   1.34121   1.42589   1.49909
 Alpha virt. eigenvalues --    1.52638   1.55092   1.58132   1.58512   1.58829
 Alpha virt. eigenvalues --    1.61920   1.65084   1.80578   1.87567   1.88667
 Alpha virt. eigenvalues --    2.01890   2.02737   2.03008   2.05738   2.09033
 Alpha virt. eigenvalues --    2.09838   2.13005   2.18186   2.34356   2.35757
 Alpha virt. eigenvalues --    2.39384   2.40455   2.42149   2.47203   2.50382
 Alpha virt. eigenvalues --    2.57097   2.68983   2.71723   2.87756   3.00067
 Alpha virt. eigenvalues --    3.03254   3.11737   3.18546   3.23296   3.46919
 Alpha virt. eigenvalues --    3.57476   3.59402   3.64201   3.66621   3.69247
 Alpha virt. eigenvalues --    3.80555   3.84022   3.84698   3.89974   3.93154
 Alpha virt. eigenvalues --    4.06136   4.10613   4.25733   4.40648   4.41577
 Alpha virt. eigenvalues --    4.44780   4.69173   4.73964   4.74796   5.08912
 Alpha virt. eigenvalues --    5.12258   5.24949   5.26247   5.31794   5.52951
 Alpha virt. eigenvalues --    5.86134   5.95881   6.47150   6.57732  15.35889
          Condensed to atoms (all electrons):
               1          2          3          4
     1  C    6.190311   0.278137   0.182849   0.182849
     2  S    0.278137  16.022068  -0.116808  -0.116808
     3  H    0.182849  -0.116808   0.643946  -0.160356
     4  H    0.182849  -0.116808  -0.160356   0.643946
 Mulliken charges:
               1
     1  C   -0.834146
     2  S   -0.066591
     3  H    0.450368
     4  H    0.450368
 Sum of Mulliken charges =  -0.00000
 Mulliken charges with hydrogens summed into heavy atoms:
               1
     1  C    0.066591
     2  S   -0.066591
 Electronic spatial extent (au):  <R**2>=            130.5315
 Charge=             -0.0000 electrons
 Dipole moment (field-independent basis, Debye):
    X=              0.0000    Y=             -0.0000    Z=             -1.7741  Tot=              1.7741
 Quadrupole moment (field-independent basis, Debye-Ang):
   XX=            -20.0018   YY=            -20.5690   ZZ=            -18.9624
   XY=             -0.0000   XZ=             -0.0000   YZ=             -0.0000
 Traceless Quadrupole moment (field-independent basis, Debye-Ang):
   XX=             -0.1574   YY=             -0.7246   ZZ=              0.8820
   XY=             -0.0000   XZ=             -0.0000   YZ=             -0.0000
 Octapole moment (field-independent basis, Debye-Ang**2):
  XXX=              0.0000  YYY=             -0.0000  ZZZ=            -27.5634  XYY=              0.0000
  XXY=             -0.0000  XXZ=             -8.5398  XZZ=              0.0000  YZZ=             -0.0000
  YYZ=            -13.1335  XYZ=             -0.0000
 Hexadecapole moment (field-independent basis, Debye-Ang**3):
 XXXX=            -25.4170 YYYY=            -35.0776 ZZZZ=           -127.6599 XXXY=             -0.0000
 XXXZ=              0.0000 YYYX=              0.0000 YYYZ=             -0.0000 ZZZX=              0.0000
 ZZZY=             -0.0000 XXYY=            -10.5154 XXZZ=            -25.4061 YYZZ=            -29.5809
 XXYZ=             -0.0000 YYXZ=             -0.0000 ZZXY=             -0.0000
 N-N= 4.453895596221D+01 E-N=-1.127022231377D+03  KE= 4.368572111235D+02
 There are a total of       91844 grid points.
 ElSum from          density=       24.0000001683
 ElSum from atomic densities=       24.0000002097

 Hirshfeld populations at iteration   1 (CX, CA, CB, DipXYZ):
               1          2          3          4          5          6
     1  C    0.000000   3.003797   3.003797   0.000000  -0.000000  -0.151826
     2  S    0.000013   8.045678   8.045678   0.000000  -0.000000   0.035472
     3  H    0.000004   0.475263   0.475263   0.000000  -0.131619  -0.097791
     4  H    0.000004   0.475263   0.475263  -0.000000   0.131619  -0.097791
       Tot   0.000022  12.000000  12.000000   0.000000  -0.000000  -0.311937

 Dip from Atomic Chgs              0.000000  -0.000000  -0.386054
         Total Dipole              0.000000  -0.000000  -0.697991

 Hirshfeld charges, spin densities, dipoles, and CM5 charges using IRadAn=      5:
              Q-H        S-H        Dx         Dy         Dz        Q-CM5   
     1  C   -0.007595   0.000000   0.000000  -0.000000  -0.151826  -0.087452
     2  S   -0.091355   0.000000   0.000000  -0.000000   0.035472  -0.119290
     3  H    0.049475   0.000000   0.000000  -0.131619  -0.097791   0.103371
     4  H    0.049475   0.000000  -0.000000   0.131619  -0.097791   0.103371
       Tot  -0.000000   0.000000   0.000000  -0.000000  -0.311937  -0.000000
 Hirshfeld charges with hydrogens summed into heavy atoms:
              Q-H       Q-CM5   
     1  C    0.091355   0.119290
     2  S   -0.091355  -0.119290
 
 EQQ= 0.000000000000E+00 EQD= 0.000000000000E+00 EDD= 0.303864052433E-02
 EQQ+QD+DD= 0.303864052433E-02
 
 Breneman (CHELPG) radii used.
 Generate Potential Derived Charges using the Breneman model, NDens= 1.
 Grid spacing= 0.300 Box extension= 2.800
 NStep X,Y,Z=   20     26     27   Total possible points=       14040
 Number of Points to Fit=    4704

 **********************************************************************

            Electrostatic Properties Using The CC Density.

 **********************************************************************

       Atomic Center    1 is at   0.000000  0.000000 -0.565291
       Atomic Center    2 is at   0.000000  0.000000  1.060374
       Atomic Center    3 is at   0.000000 -0.922280 -1.128992
       Atomic Center    4 is at   0.000000  0.922280 -1.128992
    4704 points will be used for fitting atomic charges
 Fitting point charges to electrostatic potential
 The dipole moment will be constrained to the correct value
 Charges from ESP fit, RMS=   0.00539 RRMS=   0.39993:
 ESP charges:
               1
     1  C   -0.024987
     2  S   -0.162273
     3  H    0.093630
     4  H    0.093630
 Sum of ESP charges =   0.00000
 ESP charges with hydrogens summed into heavy atoms:
               1
     1  C    0.162273
     2  S   -0.162273
 Charge=   0.00000 Dipole=     0.0000    -0.0000    -1.7741 Tot=     1.7741
 -----------------------------------------------------------------

              Electrostatic Properties (Atomic Units)

 -----------------------------------------------------------------
    Center     Electric         -------- Electric Field --------
               Potential          X             Y             Z
 -----------------------------------------------------------------
    1 Atom    -14.689168
    2 Atom    -59.229157
    3 Atom     -1.071383
    4 Atom     -1.071383
 -----------------------------------------------------------------
 ******************************Gaussian NBO Version 3.1******************************
             N A T U R A L   A T O M I C   O R B I T A L   A N D
          N A T U R A L   B O N D   O R B I T A L   A N A L Y S I S
 ******************************Gaussian NBO Version 3.1******************************
       /RESON  / : Allow strongly delocalized NBO set

 Analyzing the QCI/CC density

 Job title: h2cs-wavefunction                                               

 Storage needed:     61222 in NPA (2147483536 available)
 GSVD:  LWork=        -636 too small for GESVD, short by       41336 words or       41336 for optimal perf.


 NATURAL POPULATIONS:  Natural atomic orbital occupancies 
                                                          
   NAO  Atom  No  lang   Type(AO)    Occupancy
 --------------------------------------------
     1    C    1  S      Cor( 1S)     1.99938
     2    C    1  S      Val( 2S)     1.18124
     3    C    1  S      Ryd( 3S)     0.00786
     4    C    1  S      Ryd( 4S)     0.00051
     5    C    1  S      Ryd( 5S)     0.00007
     6    C    1  px     Val( 2p)     0.88046
     7    C    1  px     Ryd( 3p)     0.00627
     8    C    1  px     Ryd( 5p)     0.00023
     9    C    1  px     Ryd( 4p)     0.00027
    10    C    1  py     Val( 2p)     1.17436
    11    C    1  py     Ryd( 3p)     0.00611
    12    C    1  py     Ryd( 4p)     0.00044
    13    C    1  py     Ryd( 5p)     0.00032
    14    C    1  pz     Val( 2p)     1.09733
    15    C    1  pz     Ryd( 3p)     0.00696
    16    C    1  pz     Ryd( 4p)     0.00028
    17    C    1  pz     Ryd( 5p)     0.00008
    18    C    1  dxy    Ryd( 3d)     0.00623
    19    C    1  dxy    Ryd( 4d)     0.00025
    20    C    1  dxy    Ryd( 5d)     0.00012
    21    C    1  dxz    Ryd( 3d)     0.00958
    22    C    1  dxz    Ryd( 4d)     0.00026
    23    C    1  dxz    Ryd( 5d)     0.00012
    24    C    1  dyz    Ryd( 3d)     0.01140
    25    C    1  dyz    Ryd( 4d)     0.00028
    26    C    1  dyz    Ryd( 5d)     0.00024
    27    C    1  dx2y2  Ryd( 3d)     0.00763
    28    C    1  dx2y2  Ryd( 4d)     0.00030
    29    C    1  dx2y2  Ryd( 5d)     0.00010
    30    C    1  dz2    Ryd( 3d)     0.01214
    31    C    1  dz2    Ryd( 4d)     0.00029
    32    C    1  dz2    Ryd( 5d)     0.00013
    33    C    1  f(0)   Ryd( 4f)     0.00060
    34    C    1  f(0)   Ryd( 5f)     0.00008
    35    C    1  f(C1)  Ryd( 4f)     0.00056
    36    C    1  f(C1)  Ryd( 5f)     0.00012
    37    C    1  f(S1)  Ryd( 4f)     0.00064
    38    C    1  f(S1)  Ryd( 5f)     0.00012
    39    C    1  f(C2)  Ryd( 4f)     0.00083
    40    C    1  f(C2)  Ryd( 5f)     0.00011
    41    C    1  f(S2)  Ryd( 4f)     0.00065
    42    C    1  f(S2)  Ryd( 5f)     0.00014
    43    C    1  f(C3)  Ryd( 4f)     0.00048
    44    C    1  f(C3)  Ryd( 5f)     0.00012
    45    C    1  f(S3)  Ryd( 4f)     0.00069
    46    C    1  f(S3)  Ryd( 5f)     0.00012

    47    S    2  S      Cor( 1S)     2.00000
    48    S    2  S      Cor( 2S)     1.99903
    49    S    2  S      Val( 3S)     1.73337
    50    S    2  S      Ryd( 4S)     0.01544
    51    S    2  S      Ryd( 5S)     0.00041
    52    S    2  S      Ryd( 6S)     0.00011
    53    S    2  px     Cor( 2p)     1.99986
    54    S    2  px     Val( 3p)     1.08681
    55    S    2  px     Ryd( 4p)     0.00433
    56    S    2  px     Ryd( 5p)     0.00031
    57    S    2  px     Ryd( 6p)     0.00002
    58    S    2  py     Cor( 2p)     2.00000
    59    S    2  py     Val( 3p)     1.87506
    60    S    2  py     Ryd( 4p)     0.01438
    61    S    2  py     Ryd( 5p)     0.00055
    62    S    2  py     Ryd( 6p)     0.00005
    63    S    2  pz     Cor( 2p)     1.99974
    64    S    2  pz     Val( 3p)     1.07536
    65    S    2  pz     Ryd( 4p)     0.00647
    66    S    2  pz     Ryd( 5p)     0.00041
    67    S    2  pz     Ryd( 6p)     0.00004
    68    S    2  dxy    Ryd( 3d)     0.01721
    69    S    2  dxy    Ryd( 4d)     0.00057
    70    S    2  dxy    Ryd( 5d)     0.00006
    71    S    2  dxz    Ryd( 3d)     0.01842
    72    S    2  dxz    Ryd( 4d)     0.00033
    73    S    2  dxz    Ryd( 5d)     0.00007
    74    S    2  dyz    Ryd( 3d)     0.01395
    75    S    2  dyz    Ryd( 4d)     0.00049
    76    S    2  dyz    Ryd( 5d)     0.00026
    77    S    2  dx2y2  Ryd( 3d)     0.01638
    78    S    2  dx2y2  Ryd( 4d)     0.00060
    79    S    2  dx2y2  Ryd( 5d)     0.00006
    80    S    2  dz2    Ryd( 3d)     0.02334
    81    S    2  dz2    Ryd( 4d)     0.00031
    82    S    2  dz2    Ryd( 5d)     0.00016
    83    S    2  f(0)   Ryd( 4f)     0.00132
    84    S    2  f(0)   Ryd( 5f)     0.00017
    85    S    2  f(C1)  Ryd( 4f)     0.00100
    86    S    2  f(C1)  Ryd( 5f)     0.00013
    87    S    2  f(S1)  Ryd( 4f)     0.00123
    88    S    2  f(S1)  Ryd( 5f)     0.00017
    89    S    2  f(C2)  Ryd( 4f)     0.00126
    90    S    2  f(C2)  Ryd( 5f)     0.00013
    91    S    2  f(S2)  Ryd( 4f)     0.00132
    92    S    2  f(S2)  Ryd( 5f)     0.00011
    93    S    2  f(C3)  Ryd( 4f)     0.00152
    94    S    2  f(C3)  Ryd( 5f)     0.00011
    95    S    2  f(S3)  Ryd( 4f)     0.00152
    96    S    2  f(S3)  Ryd( 5f)     0.00012

    97    H    3  S      Val( 1S)     0.82357
    98    H    3  S      Ryd( 2S)     0.00305
    99    H    3  S      Ryd( 3S)     0.00016
   100    H    3  S      Ryd( 4S)     0.00006
   101    H    3  px     Ryd( 2p)     0.00094
   102    H    3  px     Ryd( 3p)     0.00050
   103    H    3  px     Ryd( 4p)     0.00007
   104    H    3  py     Ryd( 2p)     0.00147
   105    H    3  py     Ryd( 3p)     0.00038
   106    H    3  py     Ryd( 4p)     0.00023
   107    H    3  pz     Ryd( 2p)     0.00284
   108    H    3  pz     Ryd( 3p)     0.00047
   109    H    3  pz     Ryd( 4p)     0.00017
   110    H    3  dxy    Ryd( 3d)     0.00007
   111    H    3  dxy    Ryd( 4d)     0.00007
   112    H    3  dxz    Ryd( 3d)     0.00010
   113    H    3  dxz    Ryd( 4d)     0.00005
   114    H    3  dyz    Ryd( 4d)     0.00008
   115    H    3  dyz    Ryd( 3d)     0.00009
   116    H    3  dx2y2  Ryd( 3d)     0.00011
   117    H    3  dx2y2  Ryd( 4d)     0.00009
   118    H    3  dz2    Ryd( 3d)     0.00009
   119    H    3  dz2    Ryd( 4d)     0.00006

   120    H    4  S      Val( 1S)     0.82357
   121    H    4  S      Ryd( 2S)     0.00305
   122    H    4  S      Ryd( 3S)     0.00016
   123    H    4  S      Ryd( 4S)     0.00006
   124    H    4  px     Ryd( 2p)     0.00094
   125    H    4  px     Ryd( 3p)     0.00050
   126    H    4  px     Ryd( 4p)     0.00007
   127    H    4  py     Ryd( 2p)     0.00147
   128    H    4  py     Ryd( 3p)     0.00038
   129    H    4  py     Ryd( 4p)     0.00023
   130    H    4  pz     Ryd( 2p)     0.00284
   131    H    4  pz     Ryd( 3p)     0.00047
   132    H    4  pz     Ryd( 4p)     0.00017
   133    H    4  dxy    Ryd( 3d)     0.00007
   134    H    4  dxy    Ryd( 4d)     0.00007
   135    H    4  dxz    Ryd( 3d)     0.00010
   136    H    4  dxz    Ryd( 4d)     0.00005
   137    H    4  dyz    Ryd( 4d)     0.00008
   138    H    4  dyz    Ryd( 3d)     0.00009
   139    H    4  dx2y2  Ryd( 3d)     0.00011
   140    H    4  dx2y2  Ryd( 4d)     0.00009
   141    H    4  dz2    Ryd( 3d)     0.00009
   142    H    4  dz2    Ryd( 4d)     0.00006


 Summary of Natural Population Analysis:                  
                                                          
                                       Natural Population 
                Natural  -----------------------------------------------
    Atom  No    Charge         Core      Valence    Rydberg      Total
 -----------------------------------------------------------------------
      C    1   -0.41649      1.99938     4.33339    0.08372     6.41649
      S    2    0.08594      9.99864     5.77060    0.14482    15.91406
      H    3    0.16527      0.00000     0.82357    0.01116     0.83473
      H    4    0.16527      0.00000     0.82357    0.01116     0.83473
 =======================================================================
   * Total *    0.00000     11.99802    11.75112    0.25086    24.00000

                                 Natural Population      
 --------------------------------------------------------
   Core                      11.99802 ( 99.9835% of  12)
   Valence                   11.75112 ( 97.9260% of  12)
   Natural Minimal Basis     23.74914 ( 98.9548% of  24)
   Natural Rydberg Basis      0.25086 (  1.0452% of  24)
 --------------------------------------------------------

    Atom  No          Natural Electron Configuration
 ----------------------------------------------------------------------------
      C    1      [core]2S( 1.18)2p( 3.15)3S( 0.01)3p( 0.02)3d( 0.05)
      S    2      [core]3S( 1.73)3p( 4.04)4S( 0.02)3d( 0.09)4p( 0.03)4f( 0.01)
      H    3            1S( 0.82)2p( 0.01)
      H    4            1S( 0.82)2p( 0.01)


 NBO analysis skipped by request.
 Unable to Open any file for archive entry.
 1\1\GINC-TRAPISTA\SP\RQCISD-FC\Aug-CC-pVTZ\C1H2S1\WAGNER\02-Sep-2022\0
 \\# qcisd/aug-cc-pvtz nosymm density=current pop=(chelpg,hirshfeld,npa
 ,dipole)\\h2cs-wavefunction\\0,1\C,0,0.,0.,-0.565291\S,0,0.,0.,1.06037
 4\H,0,0.,-0.92228,-1.128992\H,0,0.,0.92228,-1.128992\\Version=EM64L-G1
 6RevC.01\HF=-436.5572232\MP2=-436.8983347\MP3=-436.9210922\MP4D=-436.9
 311486\MP4DQ=-436.9194077\MP4SDQ=-436.9229688\QCISD=-436.9234032\RMSD=
 2.971e-09\Dipole=0.,0.,-0.6979904\Quadrupole=-0.1170336,-0.5387025,0.6
 557361,0.,0.,0.\PG=C02V [C2(C1S1),SGV(H2)]\\@
 The archive entry for this job was punched.


 ADAM SMITH SAID, "THE REAL PRICE OF ANYTHING IS THE TOIL AND TROUBLE
 OF ACQUIRING IT."  BUT IN ALL UNDERTAKINGS WITH NATURE WE SHOULD FIRST
 READ CAREFULLY THE SMALL PRINT IN THE CONTRACT. THIS MIGHT DISCLOSE
 THAT THE REAL PRICE IS TO BE PAID BY THOSE WHO INHERIT THE DEPLETION
 AND DESPOILATION THAT FOLLOWS.
                               -- E. R. HARRISON IN "COSMOLOGY" (1980)
 Job cpu time:       0 days  1 hours 32 minutes  2.0 seconds.
 Elapsed time:       0 days  0 hours  5 minutes 49.3 seconds.
 File lengths (MBytes):  RWF=   7177 Int=      0 D2E=      0 Chk=      3 Scr=      1
 Normal termination of Gaussian 16 at Fri Sep  2 20:54:49 2022.
