 h2co-wavefunction
GAUSSIAN            138 MOL ORBITALS    198 PRIMITIVES        4 NUCLEI
  O    1    (CENTRE  1)   0.00000000  0.00000000  1.28360026  CHARGE =  8.0
  C    2    (CENTRE  2)   0.00000000 -0.01889726 -0.99571749  CHARGE =  6.0
  H    3    (CENTRE  3)   0.00000000  1.76994395 -2.09120873  CHARGE =  1.0
  H    4    (CENTRE  4)   0.00000000 -1.76994395 -2.09120873  CHARGE =  1.0
CENTRE ASSIGNMENTS    1  1  1  1  1  1  1  1  1  1  1  1  1  1  1  1  1  1  1  1
CENTRE ASSIGNMENTS    1  1  1  1  1  1  1  1  1  1  1  1  1  1  1  1  1  1  1  1
CENTRE ASSIGNMENTS    1  1  1  1  1  1  1  1  1  1  1  1  1  1  1  1  1  1  1  1
CENTRE ASSIGNMENTS    1  1  1  1  1  1  1  1  1  1  1  1  2  2  2  2  2  2  2  2
CENTRE ASSIGNMENTS    2  2  2  2  2  2  2  2  2  2  2  2  2  2  2  2  2  2  2  2
CENTRE ASSIGNMENTS    2  2  2  2  2  2  2  2  2  2  2  2  2  2  2  2  2  2  2  2
CENTRE ASSIGNMENTS    2  2  2  2  2  2  2  2  2  2  2  2  2  2  2  2  2  2  2  2
CENTRE ASSIGNMENTS    2  2  2  2  3  3  3  3  3  3  3  3  3  3  3  3  3  3  3  3
CENTRE ASSIGNMENTS    3  3  3  3  3  3  3  3  3  3  3  4  4  4  4  4  4  4  4  4
CENTRE ASSIGNMENTS    4  4  4  4  4  4  4  4  4  4  4  4  4  4  4  4  4  4
TYPE ASSIGNMENTS      1  1  1  1  1  1  1  1  1  1  1  1  1  1  1  1  2  2  2  3
TYPE ASSIGNMENTS      3  3  4  4  4  2  3  4  2  3  4  2  3  4  5  6  7  8  9 10
TYPE ASSIGNMENTS      5  6  7  8  9 10  5  6  7  8  9 10 11 12 13 17 14 15 18 19
TYPE ASSIGNMENTS     16 20 11 12 13 17 14 15 18 19 16 20  1  1  1  1  1  1  1  1
TYPE ASSIGNMENTS      1  1  1  1  1  1  1  1  2  2  2  3  3  3  4  4  4  2  3  4
TYPE ASSIGNMENTS      2  3  4  2  3  4  5  6  7  8  9 10  5  6  7  8  9 10  5  6
TYPE ASSIGNMENTS      7  8  9 10 11 12 13 17 14 15 18 19 16 20 11 12 13 17 14 15
TYPE ASSIGNMENTS     18 19 16 20  1  1  1  1  1  1  2  3  4  2  3  4  2  3  4  5
TYPE ASSIGNMENTS      6  7  8  9 10  5  6  7  8  9 10  1  1  1  1  1  1  2  3  4
TYPE ASSIGNMENTS      2  3  4  2  3  4  5  6  7  8  9 10  5  6  7  8  9 10
EXPONENTS  0.1533000D+05 0.2299000D+04 0.5224000D+03 0.1473000D+03 0.4755000D+02
EXPONENTS  0.1676000D+02 0.6207000D+01 0.5224000D+03 0.1473000D+03 0.4755000D+02
EXPONENTS  0.1676000D+02 0.6207000D+01 0.6882000D+00 0.1752000D+01 0.2384000D+00
EXPONENTS  0.7376000D-01 0.3446000D+02 0.7749000D+01 0.2280000D+01 0.3446000D+02
EXPONENTS  0.7749000D+01 0.2280000D+01 0.3446000D+02 0.7749000D+01 0.2280000D+01
EXPONENTS  0.7156000D+00 0.7156000D+00 0.7156000D+00 0.2140000D+00 0.2140000D+00
EXPONENTS  0.2140000D+00 0.5974000D-01 0.5974000D-01 0.5974000D-01 0.2314000D+01
EXPONENTS  0.2314000D+01 0.2314000D+01 0.2314000D+01 0.2314000D+01 0.2314000D+01
EXPONENTS  0.6450000D+00 0.6450000D+00 0.6450000D+00 0.6450000D+00 0.6450000D+00
EXPONENTS  0.6450000D+00 0.2140000D+00 0.2140000D+00 0.2140000D+00 0.2140000D+00
EXPONENTS  0.2140000D+00 0.2140000D+00 0.1428000D+01 0.1428000D+01 0.1428000D+01
EXPONENTS  0.1428000D+01 0.1428000D+01 0.1428000D+01 0.1428000D+01 0.1428000D+01
EXPONENTS  0.1428000D+01 0.1428000D+01 0.5000000D+00 0.5000000D+00 0.5000000D+00
EXPONENTS  0.5000000D+00 0.5000000D+00 0.5000000D+00 0.5000000D+00 0.5000000D+00
EXPONENTS  0.5000000D+00 0.5000000D+00 0.8236000D+04 0.1235000D+04 0.2808000D+03
EXPONENTS  0.7927000D+02 0.2559000D+02 0.8997000D+01 0.3319000D+01 0.2808000D+03
EXPONENTS  0.7927000D+02 0.2559000D+02 0.8997000D+01 0.3319000D+01 0.3643000D+00
EXPONENTS  0.9059000D+00 0.1285000D+00 0.4402000D-01 0.1871000D+02 0.4133000D+01
EXPONENTS  0.1200000D+01 0.1871000D+02 0.4133000D+01 0.1200000D+01 0.1871000D+02
EXPONENTS  0.4133000D+01 0.1200000D+01 0.3827000D+00 0.3827000D+00 0.3827000D+00
EXPONENTS  0.1209000D+00 0.1209000D+00 0.1209000D+00 0.3569000D-01 0.3569000D-01
EXPONENTS  0.3569000D-01 0.1097000D+01 0.1097000D+01 0.1097000D+01 0.1097000D+01
EXPONENTS  0.1097000D+01 0.1097000D+01 0.3180000D+00 0.3180000D+00 0.3180000D+00
EXPONENTS  0.3180000D+00 0.3180000D+00 0.3180000D+00 0.1000000D+00 0.1000000D+00
EXPONENTS  0.1000000D+00 0.1000000D+00 0.1000000D+00 0.1000000D+00 0.7610000D+00
EXPONENTS  0.7610000D+00 0.7610000D+00 0.7610000D+00 0.7610000D+00 0.7610000D+00
EXPONENTS  0.7610000D+00 0.7610000D+00 0.7610000D+00 0.7610000D+00 0.2680000D+00
EXPONENTS  0.2680000D+00 0.2680000D+00 0.2680000D+00 0.2680000D+00 0.2680000D+00
EXPONENTS  0.2680000D+00 0.2680000D+00 0.2680000D+00 0.2680000D+00 0.3387000D+02
EXPONENTS  0.5095000D+01 0.1159000D+01 0.3258000D+00 0.1027000D+00 0.2526000D-01
EXPONENTS  0.1407000D+01 0.1407000D+01 0.1407000D+01 0.3880000D+00 0.3880000D+00
EXPONENTS  0.3880000D+00 0.1020000D+00 0.1020000D+00 0.1020000D+00 0.1057000D+01
EXPONENTS  0.1057000D+01 0.1057000D+01 0.1057000D+01 0.1057000D+01 0.1057000D+01
EXPONENTS  0.2470000D+00 0.2470000D+00 0.2470000D+00 0.2470000D+00 0.2470000D+00
EXPONENTS  0.2470000D+00 0.3387000D+02 0.5095000D+01 0.1159000D+01 0.3258000D+00
EXPONENTS  0.1027000D+00 0.2526000D-01 0.1407000D+01 0.1407000D+01 0.1407000D+01
EXPONENTS  0.3880000D+00 0.3880000D+00 0.3880000D+00 0.1020000D+00 0.1020000D+00
EXPONENTS  0.1020000D+00 0.1057000D+01 0.1057000D+01 0.1057000D+01 0.1057000D+01
EXPONENTS  0.1057000D+01 0.1057000D+01 0.2470000D+00 0.2470000D+00 0.2470000D+00
EXPONENTS  0.2470000D+00 0.2470000D+00 0.2470000D+00
MO    1     MO 0.0        OCC NO =    2.0000076  ORB. ENERGY =    0.000000
 -0.26729053D+00 -0.49818560D+00 -0.84474369D+00 -0.12784297D+01 -0.15947403D+01
 -0.13685245D+01 -0.52407217D+00 -0.36265624D-04 -0.38910635D-03 -0.14343193D-02
 -0.41938654D-02 -0.50538117D-02  0.60878518D-02 -0.23737428D-01  0.68545062D-03
  0.15522904D-04 -0.34141199D-13 -0.33105478D-13 -0.22332760D-13  0.15988668D-03
  0.15503630D-03  0.10458657D-03  0.14649989D-01  0.14205562D-01  0.95829879D-02
 -0.61765206D-14  0.12435855D-04  0.18793367D-02 -0.98326866D-14 -0.53968763D-05
  0.63419437D-03 -0.86383450D-15  0.11389030D-06  0.80007689D-05  0.92676886D-03
  0.11145221D-03 -0.10382211D-02  0.52134595D-14 -0.69616605D-14 -0.15732053D-04
  0.23028470D-03  0.11951904D-03 -0.34980373D-03 -0.58276112D-15  0.58988517D-14
 -0.21021604D-04  0.63015151D-04  0.10909236D-04 -0.73924387D-04 -0.32231000D-15
  0.42871177D-14  0.28454154D-06 -0.19417579D-14 -0.56173560D-05 -0.10805877D-03
 -0.42213637D-14  0.10598427D-04  0.45134930D-03  0.10046637D-13  0.62536408D-05
 -0.12717298D-03 -0.58754750D-14  0.12963503D-14 -0.22963448D-05  0.10472050D-03
  0.12855650D-14 -0.67576393D-05 -0.17044543D-03 -0.51746160D-14  0.13646674D-04
 -0.14371607D-03  0.17125942D-14  0.27695298D+00  0.51629615D+00  0.87261083D+00
  0.13116968D+01  0.16111846D+01  0.13597830D+01  0.51131391D+00  0.32327131D-04
  0.24162528D-03  0.90300884D-03  0.25192541D-02  0.33751059D-02 -0.39853707D-02
  0.22753240D-01  0.53607721D-03  0.12354244D-03 -0.11839693D-13 -0.11100465D-13
 -0.79041922D-14  0.97356866D-04  0.91278250D-04  0.64995552D-04  0.20491138D-02
  0.19211744D-02  0.13679906D-02  0.29076883D-14 -0.51779271D-04  0.25330433D-03
  0.30621058D-14  0.58587674D-05 -0.10199853D-03  0.11656021D-15 -0.15035182D-06
 -0.34783663D-05 -0.12229402D-02  0.23789697D-03  0.98504321D-03 -0.73025247D-15
 -0.34528625D-14  0.89117865D-04  0.14524136D-03  0.20106847D-04 -0.16534820D-03
  0.26192015D-15  0.75710069D-14  0.10762496D-05 -0.58589357D-05  0.19115851D-04
 -0.13256915D-04  0.14537292D-15  0.99303264D-15 -0.71240948D-06  0.50234878D-15
 -0.49982017D-05  0.55105901D-03 -0.15787476D-14  0.18356390D-04 -0.50493038D-04
  0.71701259D-16 -0.33617849D-05 -0.16026840D-02  0.11198224D-15 -0.43514425D-15
 -0.24953233D-05 -0.11435749D-03  0.66801716D-16  0.64162914D-06  0.43753677D-04
  0.12386310D-14  0.68443407D-05  0.29931878D-03  0.92438412D-15 -0.26365491D-03
 -0.47551248D-03 -0.70114288D-03 -0.17947700D-03 -0.44848156D-03 -0.11241236D-04
 -0.84082803D-15  0.75491007D-03 -0.50392387D-03  0.77006413D-15  0.19371487D-03
 -0.50377606D-04 -0.39079249D-16  0.40735278D-04 -0.54520667D-04  0.21986737D-03
 -0.36249260D-03  0.14262523D-03  0.90690083D-15  0.16188923D-14  0.85783372D-03
  0.44233572D-04 -0.11809408D-04 -0.32424165D-04 -0.65794782D-15 -0.43392153D-15
 -0.31238774D-04 -0.28482210D-03 -0.51368840D-03 -0.75743324D-03 -0.26186415D-03
 -0.45582220D-03 -0.12676171D-04  0.39045408D-15 -0.79261044D-03 -0.54425446D-03
 -0.37008499D-15 -0.24507767D-03 -0.11371917D-03  0.25028943D-15 -0.41777580D-04
 -0.58951458D-04  0.22048843D-03 -0.34038133D-03  0.11989291D-03  0.43038486D-15
 -0.12556589D-15 -0.89781040D-03  0.49831877D-04 -0.13875626D-04 -0.35956252D-04
  0.40313541D-15  0.40512997D-16  0.21412521D-04
MO    2     MO 0.0        OCC NO =    2.0000041  ORB. ENERGY =    0.000000
  0.42247546D+00  0.78742480D+00  0.13351894D+01  0.20206672D+01  0.25206230D+01
  0.21630696D+01  0.82834073D+00  0.49622274D-04  0.53241444D-03  0.19625799D-02
  0.57384684D-02  0.69151335D-02 -0.83300111D-02  0.38596747D-01 -0.65414986D-03
 -0.79983649D-04  0.27731219D-13  0.26889954D-13  0.18139804D-13 -0.16218570D-03
 -0.15726558D-03 -0.10609043D-03 -0.10981945D-01 -0.10648793D-01 -0.71836128D-02
  0.96388774D-14  0.59002345D-05  0.14473080D-02 -0.38373202D-14 -0.39604279D-05
  0.10539149D-03 -0.49625292D-15  0.25208367D-06  0.19448888D-05 -0.99463845D-03
 -0.60154040D-04  0.10547925D-02  0.28001008D-14 -0.73406901D-14  0.14697287D-04
  0.34847392D-03  0.53663715D-03 -0.88511107D-03 -0.12437606D-14  0.28253988D-15
 -0.33338824D-04  0.34083149D-04 -0.61365840D-06 -0.33469490D-04 -0.35101166D-15
  0.22702246D-14 -0.10992718D-05 -0.36596014D-14 -0.21771831D-05  0.11059967D-03
 -0.17390433D-14 -0.26454046D-06 -0.24045363D-03  0.12717847D-13  0.67960897D-05
 -0.91345398D-04 -0.27204512D-14  0.50780234D-15 -0.26928125D-05  0.12857892D-03
  0.68784019D-15 -0.34623163D-05 -0.16759097D-03 -0.22112472D-14  0.11540754D-04
 -0.21814579D-03  0.22824263D-14  0.17511550D+00  0.32645056D+00  0.55174593D+00
  0.82937704D+00  0.10187411D+01  0.85978158D+00  0.32330033D+00  0.17387350D-04
  0.12995967D-03  0.48568896D-03  0.13549966D-02  0.18153219D-02 -0.21435566D-02
  0.14450909D-01  0.50622664D-03  0.93109662D-04  0.94507678D-14  0.88606956D-14
  0.63093431D-14  0.55664476D-04  0.52188985D-04  0.37161666D-04  0.11520693D-02
  0.10801382D-02  0.76912273D-03  0.52387580D-14  0.10568418D-04  0.16066723D-02
  0.19405560D-14  0.43672565D-05 -0.11033237D-04  0.75157680D-16 -0.15748862D-06
  0.51908106D-06 -0.10270814D-02 -0.30910617D-03  0.13361876D-02  0.84617742D-15
 -0.61633601D-15  0.54832346D-04  0.16500109D-04 -0.25912979D-03  0.24262968D-03
 -0.39967466D-15  0.42107961D-14 -0.43260019D-05 -0.18533858D-05  0.42008990D-04
 -0.40155604D-04  0.13627280D-15  0.65386393D-15 -0.15451366D-05  0.39052715D-15
 -0.10622136D-05  0.34830235D-03 -0.12803314D-14  0.59314198D-05 -0.22800580D-03
  0.10874991D-15 -0.27447791D-05 -0.81690127D-03  0.99686610D-15 -0.19599474D-15
 -0.14635358D-05 -0.88900254D-05 -0.11329650D-15 -0.73570617D-06 -0.38665512D-04
  0.70128073D-15  0.51263135D-05  0.65335588D-04  0.11626657D-14 -0.14043190D-03
 -0.25327472D-03 -0.37345342D-03  0.11781797D-03 -0.35250631D-03 -0.69544757D-05
 -0.82221160D-15  0.33552534D-03 -0.21140922D-03  0.15760900D-14 -0.77276236D-04
  0.13869599D-03  0.10311839D-15 -0.83023621D-05 -0.81210068D-04  0.12515213D-03
 -0.13648350D-03  0.11331372D-04 -0.40073168D-15  0.19333103D-14  0.41094304D-03
  0.15377690D-05  0.28504283D-05 -0.43881973D-05 -0.74402812D-15 -0.30153519D-15
 -0.81279877D-05 -0.15361147D-03 -0.27704461D-03 -0.40850212D-03  0.11155267D-03
 -0.34511517D-03 -0.79456497D-05  0.10079840D-14 -0.35594894D-03 -0.22607029D-03
 -0.67628956D-15  0.71588202D-04  0.12291620D-03  0.38543401D-15  0.11675320D-04
 -0.85431802D-04  0.12126831D-03 -0.13229495D-03  0.11026637D-04 -0.14951375D-14
 -0.95765149D-15 -0.41571642D-03  0.30623041D-05  0.23631675D-05 -0.54254715D-05
  0.23794801D-15  0.19034421D-16  0.34371740D-05
MO    3     MO 0.0        OCC NO =    1.9805517  ORB. ENERGY =    0.000000
 -0.96677058D-01 -0.18019014D+00 -0.30553770D+00 -0.46239883D+00 -0.57680609D+00
 -0.49498544D+00 -0.18955313D+00 -0.16853277D-02 -0.18082460D-01 -0.66655353D-01
 -0.19489634D+00 -0.23485957D+00  0.28291324D+00  0.14940235D+00  0.75521325D-01
  0.44205463D-02  0.12247935D-12  0.11876377D-12  0.80117336D-13  0.16823727D-02
  0.16313356D-02  0.11004893D-02 -0.19102084D-02 -0.18522596D-02 -0.12495234D-02
  0.24091805D-13  0.36358012D-03 -0.80251942D-02 -0.22031577D-14  0.17015297D-03
  0.80783553D-02 -0.25363901D-15  0.27123287D-05  0.89610061D-04 -0.14821476D-01
 -0.15842371D-01  0.30663847D-01  0.25298200D-14 -0.26967820D-13  0.77872383D-03
 -0.42673150D-02 -0.51240494D-02  0.93913643D-02  0.13239969D-15  0.62252059D-14
  0.18092539D-03  0.46261681D-03  0.51012324D-03 -0.97274005D-03 -0.48807022D-15
  0.25037038D-14 -0.30076449D-04  0.87798800D-15  0.76900907D-04 -0.89150546D-02
 -0.56336793D-14  0.12448946D-03  0.14286972D-01  0.29997153D-14 -0.35519218D-03
  0.12458192D-01 -0.13973650D-13  0.53666864D-15  0.39440148D-05 -0.36011278D-03
  0.18685372D-14 -0.69496772D-05  0.23815602D-04 -0.34785431D-14 -0.48823672D-05
  0.10565227D-02  0.20475592D-14 -0.28163106D-01 -0.52501703D-01 -0.88735032D-01
 -0.13338530D+00 -0.16383995D+00 -0.13827514D+00 -0.51995064D-01 -0.59179662D-03
 -0.44233131D-02 -0.16530931D-01 -0.46118724D-01 -0.61786375D-01  0.72958188D-01
  0.30058226D-01  0.19111634D-01  0.40670091D-03  0.34725878D-13  0.32557718D-13
  0.23183035D-13 -0.44614120D-03 -0.41828573D-03 -0.29784436D-03  0.10583205D+00
  0.99224278D-01  0.70653597D-01  0.13286960D-13 -0.85499416D-03  0.65481739D-02
  0.25440749D-14 -0.23199105D-03 -0.40039997D-02  0.67246750D-16 -0.26015618D-05
 -0.55078479D-04 -0.18334388D-01 -0.79348443D-02  0.26269233D-01 -0.11373262D-14
  0.69724957D-14  0.13344189D-02 -0.31349836D-02  0.25215322D-02  0.61345145D-03
  0.32780547D-14  0.91922321D-14  0.37278838D-03  0.16188331D-04  0.49179997D-03
 -0.50798831D-03  0.50285884D-15  0.48028414D-15 -0.32390074D-06 -0.79318005D-15
 -0.10303204D-04  0.43533409D-02 -0.28984746D-14  0.22158609D-04 -0.94995885D-03
  0.52780147D-14  0.87510034D-05 -0.12110064D-01 -0.11042243D-14 -0.80889164D-16
  0.10630914D-04 -0.31968332D-04 -0.13349132D-14  0.17743734D-04  0.44145548D-03
  0.15775807D-14 -0.49636475D-04 -0.34555048D-03 -0.48741798D-16  0.63195492D-02
  0.11397567D-01  0.16805706D-01  0.36960154D-03 -0.55563566D-02 -0.72265720D-04
  0.13607321D-14 -0.27340935D-02  0.22284291D-02  0.13306894D-14  0.38842175D-02
 -0.39190638D-02 -0.77325292D-15  0.52182758D-03 -0.14285896D-02  0.51668846D-03
 -0.10504870D-02  0.53379858D-03 -0.24620195D-14  0.26240233D-14  0.19591172D-02
  0.33224426D-03 -0.68579410D-04 -0.26366485D-03  0.60743427D-15 -0.25524914D-15
  0.92259863D-03  0.66272177D-02  0.11952460D-01  0.17623895D-01 -0.40710904D-03
 -0.61735201D-02 -0.86909411D-04 -0.20905269D-14  0.28365275D-02  0.22794234D-02
  0.59200183D-14 -0.44901674D-02 -0.42494127D-02  0.11435075D-14 -0.59625731D-03
 -0.15330972D-02  0.54829770D-03 -0.11091127D-02  0.56081496D-03  0.35745436D-14
  0.33855485D-14 -0.21741549D-02  0.35979714D-03 -0.90183606D-04 -0.26961354D-03
  0.13286690D-14  0.15409044D-14 -0.97046577D-03
MO    4     MO 0.0        OCC NO =    1.9669036  ORB. ENERGY =    0.000000
  0.35983248D-01  0.67066857D-01  0.11372128D+00  0.17210507D+00  0.21468750D+00
  0.18423382D+00  0.70551765D-01  0.68835024D-03  0.73855463D-02  0.27224514D-01
  0.79602883D-01  0.95925345D-01 -0.11555224D+00 -0.65614185D-01 -0.53941148D-01
 -0.30786399D-02 -0.16173171D-12 -0.15682535D-12 -0.10579346D-12 -0.10470276D+00
 -0.10152646D+00 -0.68489148D-01 -0.67025332D+00 -0.64992026D+00 -0.43843237D+00
 -0.38876441D-13 -0.24678243D-01 -0.15035419D+00 -0.12754018D-13 -0.37592596D-02
 -0.15583608D-01 -0.48223626D-15 -0.11959244D-03 -0.10662734D-03 -0.19332885D-01
 -0.19025563D-01  0.38358448D-01  0.41478469D-15  0.14344270D-14  0.10012098D-01
 -0.35255284D-02 -0.39349488D-02  0.74604773D-02 -0.16877868D-15  0.11333274D-13
  0.27558825D-02 -0.55489533D-07 -0.13430431D-03  0.13435980D-03  0.76476001D-15
  0.33090013D-14  0.23495698D-03  0.99850107D-15  0.12121248D-02 -0.59130380D-02
 -0.45760174D-14  0.23293179D-03  0.58103946D-02  0.15805142D-14 -0.38693063D-02
  0.11928719D-01  0.40289903D-14  0.49975747D-15  0.91366835D-04 -0.13754030D-03
  0.25204276D-14 -0.47924975D-04 -0.20399527D-03 -0.40197000D-14 -0.22617553D-03
  0.61661617D-03 -0.85618785D-15 -0.49288700D-01 -0.91884067D-01 -0.15529659D+00
 -0.23343974D+00 -0.28673891D+00 -0.24199752D+00 -0.90997389D-01 -0.11974519D-02
 -0.89502112D-02 -0.33448983D-01 -0.93317454D-01 -0.12501966D+00  0.14762491D+00
  0.64099070D-01  0.45789654D-01  0.11167902D-02 -0.48233026D-13 -0.45221528D-13
 -0.32200422D-13 -0.47524745D-01 -0.44557470D-01 -0.31727573D-01 -0.11447923D+00
 -0.10733155D+00 -0.76426458D-01 -0.11313623D-13 -0.12456083D-01 -0.31884986D-01
 -0.14559524D-14 -0.12897216D-02 -0.56182103D-02 -0.36017484D-16  0.22398833D-04
 -0.49837439D-05 -0.17473142D-01  0.14262288D-01  0.32108542D-02 -0.24535042D-14
 -0.89691736D-14  0.58492464D-03 -0.45427482D-02  0.48872382D-02 -0.34448999D-03
  0.46102602D-14  0.78420652D-14  0.12901947D-02 -0.97049408D-04  0.15987346D-04
  0.81062062D-04  0.45333140D-16  0.81745015D-15  0.16534926D-03  0.20122563D-15
  0.28561604D-03  0.42378167D-02 -0.88076324D-15  0.47719345D-03  0.65009158D-03
  0.27708634D-15 -0.13340416D-02 -0.13363542D-01  0.47764233D-15  0.13430983D-15
  0.26392339D-04  0.28392887D-03 -0.17446711D-14  0.73855201D-04  0.64393481D-03
  0.13417416D-14 -0.15303222D-03 -0.14957214D-02 -0.24575254D-14  0.21538612D-01
  0.38845773D-01  0.57278070D-01  0.24144641D-01 -0.32280331D-02 -0.11599615D-03
 -0.88925306D-15 -0.15963338D-01  0.70755816D-02 -0.56046848D-15 -0.50950128D-03
 -0.19730349D-02  0.46877246D-15  0.11724323D-02 -0.50538998D-03 -0.14042222D-02
  0.20666863D-02 -0.66246413D-03 -0.23876250D-16 -0.37712695D-15 -0.20917659D-02
  0.24769750D-03 -0.74559992D-04 -0.17313751D-03  0.41909680D-15  0.58276277D-15
  0.46664685D-03  0.27068471D-01  0.48819102D-01  0.71983738D-01  0.29419646D-01
 -0.48741670D-02 -0.68928940D-04 -0.71853346D-14  0.19361641D-01  0.10540319D-01
  0.93636491D-14 -0.93365823D-03 -0.18968490D-02  0.14009952D-14 -0.15239382D-02
 -0.50938539D-03 -0.18463996D-02  0.19880708D-02 -0.14167122D-03  0.20422895D-14
  0.31373954D-14  0.37759003D-02  0.32034232D-03 -0.18479638D-03 -0.13554594D-03
  0.26877921D-14  0.14883399D-14 -0.64195862D-03
MO    5     MO 0.0        OCC NO =    1.9653243  ORB. ENERGY =    0.000000
  0.32961388D-02  0.61434607D-02  0.10417101D-01  0.15765175D-01  0.19665813D-01
  0.16876193D-01  0.64626853D-02  0.64934163D-04  0.69670096D-03  0.25681709D-02
  0.75091811D-02  0.90489283D-02 -0.10900393D-01 -0.63134497D-02 -0.58064902D-02
 -0.47342839D-03 -0.14982086D-13 -0.14527583D-13 -0.98002220D-14  0.13272843D+01
  0.12870193D+01  0.86821565D+00 -0.11461022D+00 -0.11113336D+00 -0.74969909D-01
  0.16907298D-14  0.31369464D+00 -0.26022130D-01  0.90126982D-14  0.50199467D-01
 -0.29783633D-02  0.35385966D-15  0.15656915D-02 -0.21412219D-04 -0.30554296D-02
 -0.39990419D-02  0.70544715D-02  0.15785326D-15  0.20484874D-13 -0.10060906D+00
 -0.58639864D-03 -0.94930849D-03  0.15357071D-02 -0.65922611D-15 -0.11675045D-13
 -0.28342962D-01  0.30892087D-05 -0.45841320D-04  0.42752112D-04 -0.96266138D-15
 -0.41531544D-14 -0.26189765D-02  0.29270571D-15 -0.12893421D-01 -0.13406308D-02
  0.61717687D-14  0.11858834D-03  0.10182050D-02 -0.70498859D-14  0.38561673D-01
  0.30036874D-02 -0.39564402D-14 -0.13399037D-14 -0.96545261D-03 -0.79728783D-04
 -0.18926426D-14  0.42344388D-03  0.12533388D-04  0.59123539D-14  0.24729139D-02
  0.22665296D-03  0.29886634D-14 -0.47423709D-02 -0.88407347D-02 -0.14942046D-01
 -0.22460682D-01 -0.27588925D-01 -0.23284080D-01 -0.87554220D-02 -0.11392725D-03
 -0.85153562D-03 -0.31823830D-02 -0.88783531D-02 -0.11894545D-01  0.14045240D-01
  0.60726828D-02  0.34715374D-02  0.47129995D-04 -0.36847373D-15 -0.34546755D-15
 -0.24599347D-15  0.40322602D+00  0.37805002D+00  0.26919414D+00  0.25789467D-02
  0.24179264D-02  0.17217076D-02 -0.69968485D-14  0.10434627D+00 -0.13348835D-04
 -0.37335314D-14  0.61727820D-02 -0.31648000D-03 -0.69323914D-16 -0.33113781D-03
  0.15324297D-05 -0.18865759D-02  0.98717501D-03  0.89940094D-03  0.76941680D-15
 -0.14864759D-14  0.29193398D-01 -0.35671726D-03  0.48533732D-03 -0.12862006D-03
 -0.90292952D-15 -0.10597156D-13 -0.36768324D-02  0.66308145D-05 -0.25721312D-04
  0.19090497D-04  0.37258303D-15 -0.42268449D-15 -0.87254880D-03  0.85787742D-15
 -0.38710066D-02  0.53459936D-03  0.30284328D-14 -0.54432496D-02 -0.17248156D-03
 -0.56020650D-14  0.17056269D-01 -0.14313165D-02  0.13431574D-15  0.39264054D-15
 -0.38025053D-03 -0.68496568D-05  0.87184134D-15 -0.30892381D-03  0.52673468D-04
 -0.20497630D-14  0.14496754D-02 -0.32124498D-04  0.18184482D-14  0.19866577D-01
  0.35830190D-01  0.52831595D-01  0.21407890D-01 -0.16935393D-02  0.33703897D-03
  0.62488470D-15 -0.12433142D-01  0.14064367D-01 -0.27657734D-15  0.54037700D-02
  0.16068019D-02 -0.35320357D-16  0.59370904D-03  0.59630435D-03 -0.19748031D-02
 -0.12682134D-02  0.32430164D-02 -0.27783452D-15 -0.46540710D-15 -0.83987131D-02
  0.36067589D-03 -0.47787897D-03  0.11720308D-03 -0.26602358D-15 -0.10960038D-14
  0.93374265D-03 -0.16410144D-01 -0.29596371D-01 -0.43639831D-01 -0.16901245D-01
  0.12458399D-02 -0.35227620D-03  0.21931285D-14 -0.99913239D-02 -0.13116262D-01
 -0.44108097D-14  0.55204379D-02 -0.20181139D-02  0.83233132D-15  0.31791618D-03
 -0.63343450D-03  0.17181330D-02  0.16032331D-02 -0.33213661D-02 -0.11613702D-14
 -0.30744409D-14 -0.81293821D-02 -0.25367516D-03  0.44667860D-03 -0.19300344D-03
 -0.74246946D-15 -0.19644932D-15  0.82706157D-03
MO    6     MO 0.0        OCC NO =    1.9601139  ORB. ENERGY =    0.000000
  0.19378651D-02  0.36118620D-02  0.61244195D-02  0.92686577D-02  0.11561920D-01
  0.99218474D-02  0.37995405D-02 -0.32274130D-04 -0.34628024D-03 -0.12764542D-02
 -0.37322771D-02 -0.44975753D-02  0.54178061D-02  0.77044527D-02  0.28701200D-01
  0.62892738D-02  0.15016997D-12  0.14561435D-12  0.98230583D-13  0.11182907D+00
  0.10843658D+00  0.73150675D-01  0.13795393D+01  0.13376890D+01  0.90239713D+00
  0.40102725D-13  0.26387070D-01  0.31908686D+00  0.18905239D-13  0.44172536D-02
  0.38062430D-01  0.10471404D-14  0.12565672D-03  0.15695194D-03  0.41938036D-01
  0.43667880D-01 -0.85605916D-01 -0.90687826D-15  0.15388289D-13 -0.62175218D-02
  0.10419592D-01  0.11760097D-01 -0.22179689D-01 -0.23951936D-15 -0.19036809D-13
 -0.15592644D-02  0.26521374D-03  0.50975068D-03 -0.77496441D-03  0.20687789D-15
 -0.66477342D-14 -0.14475759D-03  0.21464951D-14 -0.85780427D-03  0.15636673D-01
  0.55090459D-15  0.30047013D-03 -0.15969919D-01 -0.69903899D-14  0.22729427D-02
 -0.30940099D-01  0.38657082D-14 -0.22699065D-14 -0.65568378D-04  0.20125949D-02
 -0.23564136D-14 -0.16355394D-05 -0.24717116D-02  0.91661332D-14  0.19834067D-03
 -0.35660731D-02 -0.44092523D-15  0.52612143D-02  0.98079634D-02  0.16576794D-01
  0.24918014D-01  0.30607317D-01  0.25831496D-01  0.97133169D-02  0.90186178D-04
  0.67408581D-03  0.25192126D-02  0.70282108D-02  0.94158648D-02 -0.11118381D-01
 -0.63148711D-02  0.16204932D-01  0.97241226D-05  0.52682488D-13  0.49393181D-13
  0.35170888D-13 -0.11416003D-01 -0.10703229D-01 -0.76213363D-02 -0.52238279D+00
 -0.48976707D+00 -0.34874333D+00  0.12448748D-15 -0.22486505D-02 -0.10856686D+00
 -0.34771495D-14 -0.11946782D-02 -0.86215627D-02 -0.14940049D-15 -0.30461799D-04
 -0.40424254D-04  0.83588736D-02  0.28531517D-01 -0.36890390D-01 -0.88938941D-15
  0.76329387D-14  0.61486170D-02  0.20705066D-03  0.24813917D-02 -0.26884424D-02
  0.71773353D-15 -0.12989533D-13  0.14792626D-02 -0.15328221D-03  0.12611210D-03
  0.27170109D-04  0.75797987D-16 -0.11447054D-14  0.14787282D-03  0.89367053D-15
 -0.22632684D-03 -0.58730739D-02  0.33150796D-14 -0.91881220D-04  0.64456390D-02
 -0.59960912D-14  0.77086174D-03  0.11173583D-01  0.74513387D-15  0.54450653D-15
 -0.36554810D-04  0.76660994D-03  0.39416836D-15  0.41355229D-04 -0.19335509D-03
 -0.20276879D-14  0.68309201D-04 -0.21064747D-02 -0.82436639D-15  0.16593486D-01
  0.29927035D-01  0.44127396D-01  0.28177589D-01  0.14141150D-02  0.35448445D-04
  0.15477171D-14 -0.16491167D-01  0.31600740D-02 -0.16787473D-14 -0.55397586D-02
  0.74413632D-03 -0.92554056D-16  0.16108836D-03 -0.13519188D-03 -0.14718079D-02
  0.51050103D-02 -0.36332024D-02 -0.40653017D-15 -0.17974499D-14 -0.43628520D-02
 -0.52342219D-03  0.85180638D-05  0.51490412D-03  0.83412459D-15  0.19331904D-15
  0.10698635D-03  0.19760525D-01  0.35638920D-01  0.52549567D-01  0.33363208D-01
  0.64181769D-04 -0.12509360D-04  0.11251086D-14  0.18257748D-01  0.39897938D-02
  0.28185085D-15  0.59385898D-02  0.76884533D-03  0.32633345D-15 -0.51076744D-03
 -0.34743057D-03 -0.14744750D-02  0.53854634D-02 -0.39109883D-02  0.54680788D-15
 -0.10964468D-14  0.46923359D-02 -0.57240729D-03  0.13383466D-06  0.57227345D-03
 -0.34413401D-15  0.40096255D-15  0.15782106D-04
MO    7     MO 0.0        OCC NO =    1.9567072  ORB. ENERGY =    0.000000
 -0.83272201D-03 -0.15520569D-02 -0.26317306D-02 -0.39828444D-02 -0.49682845D-02
 -0.42635272D-02 -0.16327044D-02 -0.12722939D-04 -0.13650879D-03 -0.50319709D-03
 -0.14713188D-02 -0.17730106D-02  0.21357792D-02  0.10151427D-02 -0.32596403D-03
 -0.38103929D-03 -0.42049403D-13 -0.40773777D-13 -0.27505749D-13  0.11697626D+01
  0.11342763D+01  0.76517607D+00 -0.70346712D-01 -0.68212647D-01 -0.46015849D-01
 -0.40570176D-14  0.27623055D+00 -0.16410074D-01  0.55964374D-14  0.49931812D-01
 -0.22417719D-02  0.35765275D-15  0.16971586D-02 -0.24824752D-04 -0.16412351D-02
 -0.20838685D-02  0.37251036D-02 -0.32833374D-14  0.18955721D-13 -0.11362194D-01
 -0.44736799D-03 -0.58453828D-03  0.10319063D-02  0.12137576D-14 -0.82721644D-14
 -0.28393573D-02 -0.22803206D-04 -0.22332562D-04  0.45135768D-04 -0.13370787D-15
 -0.31747481D-14 -0.64294017D-03  0.17477524D-14 -0.41392685D-02 -0.71340992D-03
  0.82518238D-15  0.87995395D-02  0.54502146D-03 -0.60684397D-14  0.36182659D-02
  0.15952083D-02 -0.66398945D-15 -0.14032940D-14 -0.30461460D-03 -0.11195591D-03
 -0.87608873D-15 -0.35485110D-03  0.13997764D-03  0.50859707D-14  0.12686949D-02
  0.19589009D-03  0.78454090D-16  0.71080751D-03  0.13250884D-02  0.22395799D-02
  0.33665063D-02  0.41351501D-02  0.34899208D-02  0.13123013D-02  0.18536580D-04
  0.13854945D-03  0.51779093D-03  0.14445561D-02  0.19353069D-02 -0.22852366D-02
 -0.70710821D-03 -0.14931523D-02 -0.11466372D-04 -0.56439792D-14 -0.52915893D-14
 -0.37679268D-14 -0.36118105D+00 -0.33863020D+00 -0.24112487D+00  0.29790734D-01
  0.27930707D-01  0.19888327D-01 -0.12721553D-13 -0.99087650D-01  0.64368779D-02
 -0.55003261D-14 -0.25670383D-01  0.62843966D-03 -0.14761518D-15 -0.50560796D-03
  0.70017875D-05 -0.21573651D-03 -0.15554054D-02  0.17711420D-02 -0.74578823D-15
 -0.36769653D-14  0.11052589D+00  0.43878102D-04 -0.16824703D-03  0.12436893D-03
  0.18439252D-14 -0.57917325D-14  0.31792557D-01  0.95033580D-05 -0.23531291D-04
  0.14027933D-04  0.16058978D-15 -0.16061743D-16  0.34056935D-02  0.13319565D-14
 -0.36481525D-02  0.14289540D-03  0.11584919D-14  0.27496224D-02 -0.38503977D-03
 -0.51543615D-14  0.81948350D-02 -0.43646417D-04 -0.13509027D-14  0.59674682D-15
 -0.58634807D-03 -0.53509917D-04 -0.28931615D-15  0.80116706D-03 -0.28547836D-05
 -0.15009243D-14  0.95787714D-03  0.16338453D-03 -0.82126578D-15 -0.36093383D-01
 -0.65095903D-01 -0.95983871D-01 -0.55493417D-01  0.10124480D-01  0.42723667D-03
 -0.19204966D-14  0.16241632D-01 -0.10692175D-01  0.41806895D-15 -0.27454908D-02
  0.19212299D-02  0.98155869D-15 -0.35232952D-02  0.17029470D-02  0.89148351D-03
 -0.19903700D-02  0.10988865D-02  0.78730726D-16 -0.44681478D-15  0.35423491D-02
  0.24960813D-04  0.36336716D-03 -0.38832798D-03 -0.56342562D-15  0.21223737D-15
  0.16662092D-04  0.33036736D-01  0.59583113D-01  0.87855266D-01  0.49284317D-01
 -0.10880565D-01 -0.43700838D-03 -0.28621658D-14  0.13589080D-01  0.10462904D-01
  0.43824414D-14 -0.36974408D-02 -0.20649144D-02  0.16571136D-14 -0.34114609D-02
 -0.16176976D-02 -0.52324185D-03  0.10935335D-02 -0.57029162D-03  0.17886712D-14
  0.11876093D-14  0.27460623D-02  0.17766024D-04 -0.34300868D-03  0.32524266D-03
  0.15859547D-14  0.73248916D-15  0.67229194D-04
MO    8     MO 0.0        OCC NO =    1.9226234  ORB. ENERGY =    0.000000
 -0.22739985D-14 -0.42383594D-14 -0.71867340D-14 -0.10876358D-13 -0.13567399D-13
 -0.11642847D-13 -0.44585918D-14  0.16711988D-15  0.17930867D-14  0.66096551D-14
  0.19326244D-13  0.23289064D-13 -0.28054145D-13 -0.22673425D-13 -0.54696232D-13
 -0.20621389D-13  0.13795847D+01  0.13377331D+01  0.90242685D+00  0.13024271D-13
  0.12629161D-13  0.85195577D-14 -0.24077988D-12 -0.23347549D-12 -0.15750118D-12
  0.33248336D+00  0.46609005D-15 -0.45209202D-13  0.48483600D-01 -0.21427922D-13
  0.21467890D-13  0.88717367D-03 -0.19341341D-14  0.18561419D-14 -0.16775148D-13
 -0.71877703D-14  0.23962918D-13 -0.11267158D-02 -0.12442522D+00 -0.96547213D-14
  0.53767883D-14  0.26730832D-14 -0.80498716D-14 -0.35930143D-03 -0.37370480D-01
  0.89469960D-14  0.22167160D-14  0.23294710D-14 -0.45461870D-14 -0.15194629D-04
 -0.23614382D-02  0.87278889D-14 -0.61323415D-02 -0.27945680D-14 -0.19681588D-14
 -0.22202786D-01  0.16397393D-14  0.29896118D-14  0.40599810D-01  0.67439648D-14
  0.29148646D-14  0.11187985D-02 -0.36202484D-03  0.97609202D-15  0.24488507D-14
 -0.15474348D-02  0.60963642D-16 -0.45090098D-14  0.26335093D-02 -0.29892397D-14
 -0.28375424D-14  0.93675708D-04  0.60332234D-15  0.11247144D-14  0.19009206D-14
  0.28574381D-14  0.35098510D-14  0.29621904D-14  0.11138609D-14 -0.19602242D-15
 -0.14651462D-14 -0.54755858D-14 -0.15276032D-13 -0.20465671D-13  0.24166141D-13
  0.92482424D-14  0.72375152D-13  0.15572327D-13  0.41539364D+00  0.38945794D+00
  0.27731725D+00 -0.36657259D-14 -0.34368510D-14 -0.24472427D-14  0.32248532D-13
  0.30235049D-13  0.21529156D-13  0.10664532D+00 -0.29879125D-13  0.39371674D-13
  0.12612698D-01  0.18063830D-13 -0.71345160D-15  0.39121929D-04  0.12994993D-14