 Entering Gaussian System, Link 0=/home/bruns/programas/chemistry/gaussian/g09/g09
 Input=GAUSSIAN.com
 Output=GAUSSIAN.log
 Initial command:
 /home/bruns/programas/chemistry/gaussian/g09/l1.exe /home/bruns/programas/chemistry/gaussian/work/Gau-79409.inp -scrdir=/home/bruns/programas/chemistry/gaussian/work/
 Entering Link 1 = /home/bruns/programas/chemistry/gaussian/g09/l1.exe PID=     79411.
  
 Copyright (c) 1988,1990,1992,1993,1995,1998,2003,2009,2010,
            Gaussian, Inc.  All Rights Reserved.
  
 This is part of the Gaussian(R) 09 program.  It is based on
 the Gaussian(R) 03 system (copyright 2003, Gaussian, Inc.),
 the Gaussian(R) 98 system (copyright 1998, Gaussian, Inc.),
 the Gaussian(R) 94 system (copyright 1995, Gaussian, Inc.),
 the Gaussian 92(TM) system (copyright 1992, Gaussian, Inc.),
 the Gaussian 90(TM) system (copyright 1990, Gaussian, Inc.),
 the Gaussian 88(TM) system (copyright 1988, Gaussian, Inc.),
 the Gaussian 86(TM) system (copyright 1986, Carnegie Mellon
 University), and the Gaussian 82(TM) system (copyright 1983,
 Carnegie Mellon University). Gaussian is a federally registered
 trademark of Gaussian, Inc.
  
 This software contains proprietary and confidential information,
 including trade secrets, belonging to Gaussian, Inc.
  
 This software is provided under written license and may be
 used, copied, transmitted, or stored only in accord with that
 written license.
  
 The following legend is applicable only to US Government
 contracts under FAR:
  
                    RESTRICTED RIGHTS LEGEND
  
 Use, reproduction and disclosure by the US Government is
 subject to restrictions as set forth in subparagraphs (a)
 and (c) of the Commercial Computer Software - Restricted
 Rights clause in FAR 52.227-19.
  
 Gaussian, Inc.
 340 Quinnipiac St., Bldg. 40, Wallingford CT 06492
  
  
 ---------------------------------------------------------------
 Warning -- This program may not be used in any manner that
 competes with the business of Gaussian, Inc. or will provide
 assistance to any competitor of Gaussian, Inc.  The licensee
 of this program is prohibited from giving any competitor of
 Gaussian, Inc. access to this program.  By using this program,
 the user acknowledges that Gaussian, Inc. is engaged in the
 business of creating and licensing software in the field of
 computational chemistry and represents and warrants to the
 licensee that it is not a competitor of Gaussian, Inc. and that
 it will not use this program in any manner prohibited above.
 ---------------------------------------------------------------
  

 Cite this work as:
 Gaussian 09, Revision B.01,
 M. J. Frisch, G. W. Trucks, H. B. Schlegel, G. E. Scuseria, 
 M. A. Robb, J. R. Cheeseman, G. Scalmani, V. Barone, B. Mennucci, 
 G. A. Petersson, H. Nakatsuji, M. Caricato, X. Li, H. P. Hratchian, 
 A. F. Izmaylov, J. Bloino, G. Zheng, J. L. Sonnenberg, M. Hada, 
 M. Ehara, K. Toyota, R. Fukuda, J. Hasegawa, M. Ishida, T. Nakajima, 
 Y. Honda, O. Kitao, H. Nakai, T. Vreven, J. A. Montgomery, Jr., 
 J. E. Peralta, F. Ogliaro, M. Bearpark, J. J. Heyd, E. Brothers, 
 K. N. Kudin, V. N. Staroverov, T. Keith, R. Kobayashi, J. Normand, 
 K. Raghavachari, A. Rendell, J. C. Burant, S. S. Iyengar, J. Tomasi, 
 M. Cossi, N. Rega, J. M. Millam, M. Klene, J. E. Knox, J. B. Cross, 
 V. Bakken, C. Adamo, J. Jaramillo, R. Gomperts, R. E. Stratmann, 
 O. Yazyev, A. J. Austin, R. Cammi, C. Pomelli, J. W. Ochterski, 
 R. L. Martin, K. Morokuma, V. G. Zakrzewski, G. A. Voth, 
 P. Salvador, J. J. Dannenberg, S. Dapprich, A. D. Daniels, 
 O. Farkas, J. B. Foresman, J. V. Ortiz, J. Cioslowski, 
 and D. J. Fox, Gaussian, Inc., Wallingford CT, 2010.
 
 ******************************************
 Gaussian 09:  EM64L-G09RevB.01 12-Aug-2010
                20-Nov-2021 
 ******************************************
 %nproc=8
 Will use up to    8 processors via shared memory.
 %mem=8GB
 -----------------------------------------------------
 # qcisd/aug-cc-pvtz nosymm density=current output=wfn
 -----------------------------------------------------
 1/30=1,38=1/1;
 2/12=2,15=1,17=6,18=5,40=1/2;
 3/5=16,6=1,7=10,11=9,16=1,25=1,30=1,71=1/1,2,3;
 4//1;
 5/5=2,38=5/2;
 8/6=4,9=120000,10=1/1,4;
 9/5=8,15=1/13;
 11/28=-7,31=1,32=3,42=3/11;
 10/5=6,13=10,31=1/2;
 6/7=2,8=2,9=2,10=2,22=-1,31=1/1;
 99/5=1,6=1100,9=1/99;
 -----------------
 h2co-wavefunction
 -----------------
 Symbolic Z-matrix:
 Charge =  0 Multiplicity = 1
 O                     0.        0.        0.67925 
 C                     0.        0.       -0.52691 
 H                     0.        0.93661  -1.10662 
 H                     0.       -0.92661  -1.10662 
 
                          Input orientation:                          
 ---------------------------------------------------------------------
 Center     Atomic      Atomic             Coordinates (Angstroms)
 Number     Number       Type             X           Y           Z
 ---------------------------------------------------------------------
      1          8           0        0.000000    0.000000    0.679252
      2          6           0        0.000000    0.000000   -0.526911
      3          1           0        0.000000    0.936614   -1.106620
      4          1           0        0.000000   -0.926614   -1.106620
 ---------------------------------------------------------------------
                    Distance matrix (angstroms):
                    1          2          3          4
     1  O    0.000000
     2  C    1.206163   0.000000
     3  H    2.016577   1.101503   0.000000
     4  H    2.011952   1.093012   1.863228   0.000000
 Symmetry turned off by external request.
 Stoichiometry    CH2O
 Framework group  CS[SG(CH2O)]
 Deg. of freedom     5
 Full point group                 CS      NOp   2
 Rotational constants (GHZ):    288.8826866     38.8698444     34.2600713
 Standard basis: Aug-CC-pVTZ (5D, 7F)
 Integral buffers will be    131072 words long.
 Raffenetti 1 integral format.
 Two-electron integral symmetry is turned off.
   138 basis functions,   198 primitive gaussians,   160 cartesian basis functions
     8 alpha electrons        8 beta electrons
       nuclear repulsion energy        31.3337438702 Hartrees.
 NAtoms=    4 NActive=    4 NUniq=    4 SFac= 1.00D+00 NAtFMM=   50 NAOKFM=F Big=F
 One-electron integrals computed using PRISM.
 NBasis=   138 RedAO= T  NBF=   138
 NBsUse=   138 1.00D-06 NBFU=   138
 Harris functional with IExCor=  205 diagonalized for initial guess.
 ExpMin= 2.53D-02 ExpMax= 1.53D+04 ExpMxC= 5.22D+02 IAcc=3 IRadAn=         0 AccDes= 0.00D+00
 HarFok:  IExCor=  205 AccDes= 0.00D+00 IRadAn=         0 IDoV= 1
 ScaDFX=  1.000000  1.000000  1.000000  1.000000
 FoFCou: FMM=F IPFlag=           0 FMFlag=      100000 FMFlg1=           0
         NFxFlg=           0 DoJE=T BraDBF=F KetDBF=T FulRan=T
         Omega=  0.000000  0.000000  1.000000  0.000000  0.000000 ICntrl=     500 IOpCl=  0
         NMat0=    1 NMatS0=    1 NMatT0=    0 NMatD0=    1 NMtDS0=    0 NMtDT0=    0
         I1Cent=           4 NGrid=           0.
 Symmetry not used in FoFCou.
 Requested convergence on RMS density matrix=1.00D-08 within 128 cycles.
 Requested convergence on MAX density matrix=1.00D-06.
 Requested convergence on             energy=1.00D-06.
 No special actions if energy rises.
 Keep R1 ints in memory in canonical form, NReq=85137408.
 SCF Done:  E(RHF) =  -113.913897241     A.U. after   11 cycles
             Convg  =    0.2896D-08             -V/T =  2.0017
 ExpMin= 2.53D-02 ExpMax= 1.53D+04 ExpMxC= 5.22D+02 IAcc=3 IRadAn=         5 AccDes= 0.00D+00
 HarFok:  IExCor=  205 AccDes= 0.00D+00 IRadAn=         5 IDoV=-2
 ScaDFX=  1.000000  1.000000  1.000000  1.000000
 DSYEVD returned Info=          93 IAlg= 4 N=    46 NDim=    46 NE2=    23340785 trying DSYEV.
 DSYEVD returned Info=          93 IAlg= 4 N=    46 NDim=    46 NE2=    23340785 trying DSYEV.
 Range of M.O.s used for correlation:     3   138
 NBasis=   138 NAE=     8 NBE=     8 NFC=     2 NFV=     0
 NROrb=    136 NOA=     6 NOB=     6 NVA=   130 NVB=   130

 **** Warning!!: The largest alpha MO coefficient is  0.33997152D+02

 Semi-Direct transformation.
 ModeAB=           2 MOrb=             6 LenV=    1073118429
 LASXX=      7286295 LTotXX=     7286295 LenRXX=     7286295
 LTotAB=     7445736 MaxLAS=    10510080 LenRXY=    10510080
 NonZer=    14572590 LenScr=    22628352 LnRSAI=           0
 LnScr1=           0 LExtra=           0 Total=     40424727
 MaxDsk=          -1 SrtSym=           F ITran=            4
 JobTyp=0 Pass  1:  I=   1 to   6.
 (rs|ai) integrals will be sorted in core.
 Spin components of T(2) and E(2):
     alpha-alpha T2 =       0.1374665772D-01 E2=     -0.4802963278D-01
     alpha-beta  T2 =       0.8492569069D-01 E2=     -0.3063504494D+00
     beta-beta   T2 =       0.1374665772D-01 E2=     -0.4802963278D-01
 ANorm=    0.1054712760D+01
 E2 =    -0.4024097150D+00 EUMP2 =    -0.11431630695610D+03
 R2 and R3 integrals will be kept in memory, NReq=   167993840.
 Iterations=  50 Convergence= 0.100D-07
 Iteration Nr.   1
 **********************
 DD1Dir will call FoFMem   1 times, MxPair=        42
 NAB=    21 NAA=     0 NBB=     0.
 MP4(R+Q)=  0.88621691D-02
 E3=       -0.40375128D-02        EUMP3=      -0.11432034447D+03
 E4(DQ)=   -0.13368759D-02        UMP4(DQ)=   -0.11432168134D+03
 E4(SDQ)=  -0.65869090D-02        UMP4(SDQ)=  -0.11432693138D+03
 DE(Corr)= -0.39758506     E(Corr)=     -114.31148230    
 NORM(A)=   0.10553945D+01
 Iteration Nr.   2
 **********************
 DD1Dir will call FoFMem   1 times, MxPair=        42
 NAB=    21 NAA=     0 NBB=     0.
 DE(Corr)= -0.41149719     E(CORR)=     -114.32539443     Delta=-1.39D-02
 NORM(A)=   0.10614304D+01
 Iteration Nr.   3
 **********************
 DD1Dir will call FoFMem   1 times, MxPair=        42
 NAB=    21 NAA=     0 NBB=     0.
 DE(Corr)= -0.41142513     E(CORR)=     -114.32532237     Delta= 7.21D-05
 NORM(A)=   0.10633119D+01
 Iteration Nr.   4
 **********************
 DD1Dir will call FoFMem   1 times, MxPair=        42
 NAB=    21 NAA=     0 NBB=     0.
 DE(Corr)= -0.41282663     E(CORR)=     -114.32672387     Delta=-1.40D-03
 NORM(A)=   0.10639910D+01
 Iteration Nr.   5
 **********************
 DD1Dir will call FoFMem   1 times, MxPair=        42
 NAB=    21 NAA=     0 NBB=     0.
 DE(Corr)= -0.41301363     E(CORR)=     -114.32691088     Delta=-1.87D-04
 NORM(A)=   0.10642059D+01
 Iteration Nr.   6
 **********************
 DD1Dir will call FoFMem   1 times, MxPair=        42
 NAB=    21 NAA=     0 NBB=     0.
 DE(Corr)= -0.41303947     E(CORR)=     -114.32693672     Delta=-2.58D-05
 NORM(A)=   0.10642311D+01
 Iteration Nr.   7
 **********************
 DD1Dir will call FoFMem   1 times, MxPair=        42
 NAB=    21 NAA=     0 NBB=     0.
 DE(Corr)= -0.41304067     E(CORR)=     -114.32693791     Delta=-1.19D-06
 NORM(A)=   0.10642322D+01
 Iteration Nr.   8
 **********************
 DD1Dir will call FoFMem   1 times, MxPair=        42
 NAB=    21 NAA=     0 NBB=     0.
 DE(Corr)= -0.41303978     E(CORR)=     -114.32693703     Delta= 8.83D-07
 NORM(A)=   0.10642350D+01
 Iteration Nr.   9
 **********************
 DD1Dir will call FoFMem   1 times, MxPair=        42
 NAB=    21 NAA=     0 NBB=     0.
 DE(Corr)= -0.41303868     E(CORR)=     -114.32693592     Delta= 1.11D-06
 NORM(A)=   0.10642353D+01
 Iteration Nr.  10
 **********************
 DD1Dir will call FoFMem   1 times, MxPair=        42
 NAB=    21 NAA=     0 NBB=     0.
 DE(Corr)= -0.41303930     E(CORR)=     -114.32693654     Delta=-6.19D-07
 NORM(A)=   0.10642359D+01
 Iteration Nr.  11
 **********************
 DD1Dir will call FoFMem   1 times, MxPair=        42
 NAB=    21 NAA=     0 NBB=     0.
 DE(Corr)= -0.41303943     E(CORR)=     -114.32693667     Delta=-1.33D-07
 NORM(A)=   0.10642363D+01
 Iteration Nr.  12
 **********************
 DD1Dir will call FoFMem   1 times, MxPair=        42
 NAB=    21 NAA=     0 NBB=     0.
 DE(Corr)= -0.41303958     E(CORR)=     -114.32693682     Delta=-1.54D-07
 NORM(A)=   0.10642365D+01
 Iteration Nr.  13
 **********************
 DD1Dir will call FoFMem   1 times, MxPair=        42
 NAB=    21 NAA=     0 NBB=     0.
 DE(Corr)= -0.41303964     E(CORR)=     -114.32693689     Delta=-6.11D-08
 NORM(A)=   0.10642366D+01
 Iteration Nr.  14
 **********************
 DD1Dir will call FoFMem   1 times, MxPair=        42
 NAB=    21 NAA=     0 NBB=     0.
 DE(Corr)= -0.41303968     E(CORR)=     -114.32693692     Delta=-3.14D-08
 NORM(A)=   0.10642366D+01
 Iteration Nr.  15
 **********************
 DD1Dir will call FoFMem   1 times, MxPair=        42
 NAB=    21 NAA=     0 NBB=     0.
 DE(Corr)= -0.41303968     E(CORR)=     -114.32693692     Delta=-4.79D-09
 NORM(A)=   0.10642366D+01
 Iteration Nr.  16
 **********************
 DD1Dir will call FoFMem   1 times, MxPair=        42
 NAB=    21 NAA=     0 NBB=     0.
 DE(Corr)= -0.41303968     E(CORR)=     -114.32693692     Delta=-3.03D-09
 NORM(A)=   0.10642366D+01
 Largest amplitude= 6.44D-02

 Z-AMPLITUDE ITERATIONS

 Iteration Nr.   1
 **********************
 DD1Dir will call FoFMem   1 times, MxPair=        42
 NAB=    21 NAA=     0 NBB=     0.
 DE(Z)  -0.40102350D+00          E(Z)=    -0.11431492074D+03
 NORM(A)=   0.10642364D+01
 Iteration Nr.   2
 **********************
 DD1Dir will call FoFMem   1 times, MxPair=        42
 NAB=    21 NAA=     0 NBB=     0.
 DE(Z)  -0.40102349D+00          E(Z)=    -0.11431492073D+03
 NORM(A)=   0.10642370D+01
 Iteration Nr.   3
 **********************
 DD1Dir will call FoFMem   1 times, MxPair=        42
 NAB=    21 NAA=     0 NBB=     0.
 DE(Z)  -0.40102352D+00          E(Z)=    -0.11431492076D+03
 NORM(A)=   0.10642394D+01
 Iteration Nr.   4
 **********************
 DD1Dir will call FoFMem   1 times, MxPair=        42
 NAB=    21 NAA=     0 NBB=     0.
 DE(Z)  -0.40102364D+00          E(Z)=    -0.11431492088D+03
 NORM(A)=   0.10642369D+01
 Iteration Nr.   5
 **********************
 DD1Dir will call FoFMem   1 times, MxPair=        42
 NAB=    21 NAA=     0 NBB=     0.
 DE(Z)  -0.40102351D+00          E(Z)=    -0.11431492075D+03
 NORM(A)=   0.10601781D+01
 Iteration Nr.   6
 **********************
 DD1Dir will call FoFMem   1 times, MxPair=        42
 NAB=    21 NAA=     0 NBB=     0.
 DE(Z)  -0.40080786D+00          E(Z)=    -0.11431470510D+03
 NORM(A)=   0.10601690D+01
 Iteration Nr.   7
 **********************
 DD1Dir will call FoFMem   1 times, MxPair=        42
 NAB=    21 NAA=     0 NBB=     0.
 DE(Z)  -0.40081124D+00          E(Z)=    -0.11431470848D+03
 NORM(A)=   0.10601675D+01
 Iteration Nr.   8
 **********************
 DD1Dir will call FoFMem   1 times, MxPair=        42
 NAB=    21 NAA=     0 NBB=     0.
 DE(Z)  -0.40081029D+00          E(Z)=    -0.11431470754D+03
 NORM(A)=   0.10601648D+01
 Iteration Nr.   9
 **********************
 DD1Dir will call FoFMem   1 times, MxPair=        42
 NAB=    21 NAA=     0 NBB=     0.
 DE(Z)  -0.40081009D+00          E(Z)=    -0.11431470733D+03
 NORM(A)=   0.10601642D+01
 Iteration Nr.  10
 **********************
 DD1Dir will call FoFMem   1 times, MxPair=        42
 NAB=    21 NAA=     0 NBB=     0.
 DE(Z)  -0.40081017D+00          E(Z)=    -0.11431470742D+03
 NORM(A)=   0.10601642D+01
 Iteration Nr.  11
 **********************
 DD1Dir will call FoFMem   1 times, MxPair=        42
 NAB=    21 NAA=     0 NBB=     0.
 DE(Z)  -0.40081007D+00          E(Z)=    -0.11431470731D+03
 NORM(A)=   0.10601642D+01
 Iteration Nr.  12
 **********************
 DD1Dir will call FoFMem   1 times, MxPair=        42
 NAB=    21 NAA=     0 NBB=     0.
 DE(Z)  -0.40081009D+00          E(Z)=    -0.11431470733D+03
 NORM(A)=   0.10601642D+01
 Iteration Nr.  13
 **********************
 DD1Dir will call FoFMem   1 times, MxPair=        42
 NAB=    21 NAA=     0 NBB=     0.
 DE(Z)  -0.40081009D+00          E(Z)=    -0.11431470733D+03
 NORM(A)=   0.10601642D+01
 Iteration Nr.  14
 **********************
 DD1Dir will call FoFMem   1 times, MxPair=        42
 NAB=    21 NAA=     0 NBB=     0.
 DE(Z)  -0.40081009D+00          E(Z)=    -0.11431470733D+03
 NORM(A)=   0.10601642D+01
 Discarding MO integrals.
          Differentiating once with respect to electric field.
                with respect to dipole field.
          Electric field/nuclear overlap derivatives assumed to be zero.
          Keep R1 ints in memory in canonical form, NReq=84894547.
          There are     1 degrees of freedom in the 1st order CPHF.  IDoFFX=0.
 LinEq1:  Iter=  0 NonCon=     1 RMS=3.55D-03 Max=5.57D-02
 AX will form     1 AO Fock derivatives at one time.
 LinEq1:  Iter=  1 NonCon=     1 RMS=8.93D-04 Max=8.49D-03
 LinEq1:  Iter=  2 NonCon=     1 RMS=2.34D-04 Max=3.42D-03
 LinEq1:  Iter=  3 NonCon=     1 RMS=1.15D-04 Max=1.21D-03
 LinEq1:  Iter=  4 NonCon=     1 RMS=4.45D-05 Max=5.35D-04
 LinEq1:  Iter=  5 NonCon=     1 RMS=9.20D-06 Max=8.72D-05
 LinEq1:  Iter=  6 NonCon=     1 RMS=1.50D-06 Max=1.73D-05
 LinEq1:  Iter=  7 NonCon=     1 RMS=2.27D-07 Max=1.65D-06
 LinEq1:  Iter=  8 NonCon=     1 RMS=2.60D-08 Max=2.05D-07
 LinEq1:  Iter=  9 NonCon=     1 RMS=3.13D-09 Max=2.52D-08
 LinEq1:  Iter= 10 NonCon=     1 RMS=2.94D-10 Max=2.32D-09
 LinEq1:  Iter= 11 NonCon=     0 RMS=2.67D-11 Max=2.39D-10
 Linear equations converged to 1.000D-10 1.000D-09 after    11 iterations.
 End of Minotr Frequency-dependent properties file   721 does not exist.
 End of Minotr Frequency-dependent properties file   722 does not exist.

 **********************************************************************

            Population analysis using the QCI/CC density.

 **********************************************************************

     Natural Orbital Coefficients:
                           1         2         3         4         5
     Eigenvalues --     2.00001   2.00000   1.98056   1.96701   1.96542
   1 1   O  1S         -0.52262   0.82841  -0.18930   0.07107   0.00359
   2        2S          0.01052  -0.01442   0.48914  -0.20122  -0.01043
   3        3S         -0.02182   0.03559   0.13755  -0.06079  -0.00320
   4        4S          0.00286  -0.00267   0.31072  -0.22181  -0.01290
   5        5S          0.00020  -0.00075   0.04436  -0.03026  -0.00216
   6        6PX         0.00000   0.00000   0.00000   0.00000   0.00000
   7        6PY         0.00000   0.00000  -0.00002  -0.01192   0.26953
   8        6PZ         0.00299  -0.00225  -0.00038  -0.13480  -0.01020
   9        7PX         0.00000   0.00000   0.00000   0.00000   0.00000
  10        7PY         0.00000   0.00000  -0.00001  -0.01471   0.33259
  11        7PZ         0.00200   0.00154  -0.00861  -0.15782  -0.01201
  12        8PX         0.00000   0.00000   0.00000   0.00000   0.00000
  13        8PY        -0.00002  -0.00001  -0.00001  -0.01030   0.24013
  14        8PZ         0.00304   0.00050   0.03872  -0.07400  -0.00574
  15        9PX         0.00000   0.00000   0.00000   0.00000   0.00000
  16        9PY         0.00000   0.00000  -0.00004  -0.00164   0.03699
  17        9PZ         0.00018   0.00004   0.00199  -0.00254  -0.00015
  18       10D 0       -0.00014   0.00015   0.00429   0.00528   0.00042
  19       10D+1        0.00000   0.00000   0.00000   0.00000   0.00000
  20       10D-1        0.00000   0.00000   0.00001   0.00042  -0.00816
  21       10D+2        0.00007  -0.00008   0.00008  -0.00002   0.00000
  22       10D-2        0.00000   0.00000   0.00000   0.00000   0.00000
  23       11D 0       -0.00046  -0.00116   0.01232   0.00955   0.00080
  24       11D+1        0.00000   0.00000   0.00000   0.00000   0.00000
  25       11D-1        0.00000   0.00000   0.00000   0.00111  -0.02145
  26       11D+2        0.00008  -0.00014   0.00065   0.00033   0.00004
  27       11D-2        0.00000   0.00000   0.00000   0.00000   0.00000
  28       12D 0       -0.00066  -0.00030  -0.00871   0.00121   0.00008
  29       12D+1        0.00000   0.00000   0.00000   0.00000   0.00000
  30       12D-1        0.00001   0.00000   0.00003   0.00066  -0.01356
  31       12D+2        0.00027   0.00018  -0.00025   0.00068   0.00006
  32       12D-2        0.00000   0.00000   0.00000   0.00000   0.00000
  33       13F 0       -0.00003   0.00003  -0.00272  -0.00177  -0.00015
  34       13F+1        0.00000   0.00000   0.00000   0.00000   0.00000
  35       13F-1        0.00000   0.00000   0.00000  -0.00025   0.00481
  36       13F+2        0.00005  -0.00001   0.00014  -0.00048  -0.00004
  37       13F-2        0.00000   0.00000   0.00000   0.00000   0.00000
  38       13F+3        0.00000   0.00000   0.00000   0.00000   0.00000
  39       13F-3        0.00000   0.00000   0.00000  -0.00005   0.00125
  40       14F 0        0.00034   0.00042  -0.00118  -0.00040  -0.00008
  41       14F+1        0.00000   0.00000   0.00000   0.00000   0.00000
  42       14F-1        0.00000   0.00000   0.00001  -0.00016   0.00325
  43       14F+2       -0.00002   0.00004  -0.00086  -0.00069  -0.00005
  44       14F-2        0.00000   0.00000   0.00000   0.00000   0.00000
  45       14F+3        0.00000   0.00000   0.00000   0.00000   0.00000
  46       14F-3        0.00000   0.00000   0.00000  -0.00008   0.00142
  47 2   C  1S          0.83001   0.52331  -0.08459  -0.14778  -0.00816
  48        2S         -0.01111  -0.00596   0.20434   0.41232   0.02260
  49        3S          0.03443   0.02181   0.04566   0.09700   0.00525
  50        4S          0.00354   0.00333   0.12612   0.30096   0.01530
  51        5S          0.00179   0.00134   0.00577   0.01639   0.00077
  52        6PX         0.00000   0.00000   0.00000   0.00000   0.00000
  53        6PY         0.00002   0.00001  -0.00045  -0.01199   0.18688
  54        6PZ         0.00095   0.00053   0.04803  -0.05509  -0.00026
  55        7PX         0.00000   0.00000   0.00000   0.00000   0.00000
  56        7PY        -0.00007  -0.00002  -0.00125  -0.01591   0.24663
  57        7PZ         0.00057   0.00375   0.01449  -0.07732  -0.00106
  58        8PX         0.00000   0.00000   0.00000   0.00000   0.00000
  59        8PY        -0.00001   0.00001  -0.00091  -0.00660   0.06478
  60        8PZ        -0.00103  -0.00011  -0.03979  -0.05625  -0.00223
  61        9PX         0.00000   0.00000   0.00000   0.00000   0.00000
  62        9PY         0.00000   0.00000   0.00000   0.00059  -0.01477
  63        9PZ        -0.00016   0.00002  -0.00248  -0.00023   0.00000
  64       10D 0        0.00051   0.00069   0.01356   0.00148   0.00027
  65       10D+1        0.00000   0.00000   0.00000   0.00000   0.00000
  66       10D-1        0.00001   0.00000   0.00009   0.00000   0.00832
  67       10D+2       -0.00044  -0.00022  -0.00314  -0.00957  -0.00046
  68       10D-2        0.00000   0.00000   0.00000   0.00000   0.00000
  69       11D 0       -0.00076   0.00108   0.00274  -0.00162  -0.00016
  70       11D+1        0.00000   0.00000   0.00000   0.00000   0.00000
  71       11D-1        0.00002   0.00000   0.00043   0.00169  -0.01074
  72       11D+2        0.00032   0.00071  -0.01482  -0.02470  -0.00128
  73       11D-2        0.00000   0.00000   0.00000   0.00000   0.00000
  74       12D 0       -0.00047  -0.00140  -0.01748   0.00307   0.00008
  75       12D+1        0.00000   0.00000   0.00000   0.00000   0.00000
  76       12D-1        0.00000  -0.00001   0.00014   0.00171  -0.01818
  77       12D+2       -0.00050  -0.00087  -0.00944  -0.00209   0.00001
  78       12D-2        0.00000   0.00000   0.00000   0.00000   0.00000
  79       13F 0        0.00070   0.00044   0.00545   0.00522   0.00042
  80       13F+1        0.00000   0.00000   0.00000   0.00000   0.00000
  81       13F-1       -0.00001   0.00000  -0.00005  -0.00044   0.00878
  82       13F+2        0.00051   0.00019   0.00362   0.00450   0.00030
  83       13F-2        0.00000   0.00000   0.00000   0.00000   0.00000
  84       13F+3        0.00000   0.00000   0.00000   0.00000   0.00000
  85       13F-3        0.00000   0.00000   0.00000   0.00003  -0.00061
  86       14F 0       -0.00151  -0.00012  -0.00043   0.00383   0.00011
  87       14F+1        0.00000   0.00000   0.00000   0.00000   0.00000
  88       14F-1        0.00001   0.00001  -0.00006  -0.00048   0.00799
  89       14F+2       -0.00087  -0.00035   0.00270   0.00737   0.00031
  90       14F-2        0.00000   0.00000   0.00000   0.00000   0.00000
  91       14F+3        0.00000   0.00000   0.00000   0.00000   0.00000
  92       14F-3        0.00001   0.00000   0.00002   0.00008   0.00024
  93 3   H  1S         -0.00107  -0.00057   0.02536   0.09076   0.07731
  94        2S         -0.00066   0.00040   0.00038   0.08341   0.06784
  95        3S         -0.00348  -0.00272  -0.04484  -0.02839  -0.01543
  96        4S         -0.00026  -0.00016  -0.00172  -0.00236   0.00747
  97        5PX         0.00000   0.00000   0.00000   0.00000   0.00000
  98        5PY         0.00035   0.00016  -0.00129  -0.00783  -0.00558
  99        5PZ        -0.00024  -0.00010   0.00103   0.00366   0.00649
 100        6PX         0.00000   0.00000   0.00000   0.00000   0.00000
 101        6PY         0.00048  -0.00018   0.00936  -0.00045   0.01281
 102        6PZ        -0.00017   0.00031  -0.00926  -0.00459   0.00386
 103        7PX         0.00000   0.00000   0.00000   0.00000   0.00000
 104        7PY         0.00049  -0.00012   0.00662   0.01557   0.00714
 105        7PZ        -0.00070  -0.00103  -0.01801  -0.00613   0.00683
 106        8D 0        0.00007   0.00001   0.00029  -0.00034   0.00182
 107        8D+1        0.00000   0.00000   0.00000   0.00000   0.00000
 108        8D-1        0.00028   0.00013   0.00064  -0.00081  -0.00268
 109        8D+2        0.00018   0.00008   0.00050  -0.00117  -0.00019
 110        8D-2        0.00000   0.00000   0.00000   0.00000   0.00000
 111        9D 0       -0.00024  -0.00003  -0.00190  -0.00113   0.00102
 112        9D+1        0.00000   0.00000   0.00000   0.00000   0.00000
 113        9D-1       -0.00011  -0.00002   0.00379   0.00208   0.00371
 114        9D+2        0.00024   0.00000   0.00169   0.00150   0.00322
 115        9D-2        0.00000   0.00000   0.00000   0.00000   0.00000
 116 4   H  1S         -0.00111  -0.00059   0.02604   0.10242  -0.06877
 117        2S         -0.00083   0.00035  -0.00077   0.09267  -0.05913
 118        3S         -0.00360  -0.00273  -0.04710  -0.03480   0.01218
 119        4S         -0.00027  -0.00017  -0.00178  -0.00175  -0.00773
 120        5PX         0.00000   0.00000   0.00000   0.00000   0.00000
 121        5PY        -0.00036  -0.00016   0.00132   0.00867  -0.00488
 122        5PZ        -0.00025  -0.00010   0.00107   0.00454  -0.00624
 123        6PX         0.00000   0.00000   0.00000   0.00000   0.00000
 124        6PY        -0.00056   0.00015  -0.00998  -0.00135   0.01293
 125        6PZ        -0.00023   0.00028  -0.00969  -0.00442  -0.00436
 126        7PX         0.00000   0.00000   0.00000   0.00000   0.00000
 127        7PY        -0.00052   0.00013  -0.00703  -0.01771   0.00531
 128        7PZ        -0.00073  -0.00105  -0.01851  -0.00608  -0.00758
 129        8D 0        0.00007   0.00000   0.00031  -0.00015  -0.00186
 130        8D+1        0.00000   0.00000   0.00000   0.00000   0.00000
 131        8D-1       -0.00028  -0.00013  -0.00065   0.00113  -0.00262
 132        8D+2        0.00018   0.00008   0.00051  -0.00122   0.00007
 133        8D-2        0.00000   0.00000   0.00000   0.00000   0.00000
 134        9D 0       -0.00025  -0.00004  -0.00192  -0.00098  -0.00121
 135        9D+1        0.00000   0.00000   0.00000   0.00000   0.00000
 136        9D-1        0.00009   0.00001  -0.00390  -0.00246   0.00345
 137        9D+2        0.00026   0.00000   0.00178   0.00189  -0.00296
 138        9D-2        0.00000   0.00000   0.00000   0.00000   0.00000
                           6         7         8         9        10
     Eigenvalues --     1.96017   1.95690   1.92263   0.06606   0.02809
   1 1   O  1S          0.00319  -0.00067   0.00000   0.00000   0.00288
   2        2S          0.01120   0.00143   0.00000   0.00000  -0.01104
   3        3S          0.00767   0.00033   0.00000   0.00000  -0.00416
   4        4S          0.12005  -0.00112   0.00000   0.00000  -0.02076
   5        5S          0.06239  -0.00144   0.00000   0.00000  -0.01233
   6        6PX         0.00000   0.00000   0.28157  -0.36419   0.00000
   7        6PY         0.00924   0.24202   0.00000   0.00000  -0.40311
   8        6PZ         0.28363  -0.00612   0.00000   0.00000   0.01793
   9        7PX         0.00000   0.00000   0.35434  -0.43382   0.00000
  10        7PY         0.01137   0.29843   0.00000   0.00000  -0.30539
  11        7PZ         0.34254  -0.00745   0.00000   0.00000   0.02115
  12        8PX         0.00000   0.00000   0.23366  -0.08026   0.00000
  13        8PY         0.00895   0.24369   0.00000   0.00000   0.17749
  14        8PZ         0.18492  -0.00418   0.00000   0.00000   0.00185
  15        9PX         0.00000   0.00000   0.02110   0.00306   0.00000
  16        9PY         0.00143   0.04067   0.00000   0.00000   0.10011
  17        9PZ         0.00390  -0.00013   0.00000   0.00000   0.00107
  18       10D 0       -0.01206   0.00026   0.00000   0.00000   0.00101
  19       10D+1        0.00000   0.00000  -0.01006  -0.01301   0.00000
  20       10D-1       -0.00012  -0.00101   0.00000   0.00000  -0.03087
  21       10D+2       -0.00015   0.00001   0.00000   0.00000   0.00050
  22       10D-2        0.00000   0.00000   0.00000   0.00000   0.00000
  23       11D 0       -0.02922   0.00067   0.00000   0.00000   0.00001
  24       11D+1        0.00000   0.00000  -0.02824  -0.01206   0.00000
  25       11D-1       -0.00027  -0.00238   0.00000   0.00000  -0.03967
  26       11D+2       -0.00102   0.00004   0.00000   0.00000   0.00111
  27       11D-2        0.00000   0.00000  -0.00001  -0.00001   0.00000
  28       12D 0       -0.00712   0.00017   0.00000   0.00000   0.00055
  29       12D+1        0.00000   0.00000  -0.01231   0.01570   0.00000
  30       12D-1       -0.00026  -0.00355   0.00000   0.00000   0.01642
  31       12D+2       -0.00130   0.00002   0.00000   0.00000   0.00047
  32       12D-2        0.00000   0.00000   0.00000  -0.00004   0.00000
  33       13F 0        0.00480  -0.00011   0.00000   0.00000   0.00010
  34       13F+1        0.00000   0.00000   0.00505   0.00442   0.00000
  35       13F-1        0.00006   0.00050   0.00000   0.00000   0.00692
  36       13F+2        0.00119  -0.00003   0.00000   0.00000   0.00001
  37       13F-2        0.00000   0.00000   0.00000   0.00000   0.00000
  38       13F+3        0.00000   0.00000   0.00155  -0.00359   0.00000
  39       13F-3        0.00005   0.00126   0.00000   0.00000  -0.00164
  40       14F 0        0.00654  -0.00017   0.00000   0.00000  -0.00011
  41       14F+1        0.00000   0.00000   0.00348  -0.00355   0.00000
  42       14F-1        0.00006   0.00171   0.00000   0.00000  -0.00199
  43       14F+2        0.00092  -0.00002   0.00000   0.00000  -0.00016
  44       14F-2        0.00000   0.00000   0.00000   0.00002   0.00000
  45       14F+3        0.00000   0.00000   0.00121  -0.00308   0.00000
  46       14F-3        0.00002  -0.00003   0.00000   0.00000  -0.00281
  47 2   C  1S          0.01739   0.00092   0.00000   0.00000  -0.01056
  48        2S         -0.03570  -0.00277   0.00000   0.00000   0.03900
  49        3S         -0.01061  -0.00045   0.00000   0.00000   0.01645
  50        4S          0.10283  -0.00361   0.00000   0.00000   0.00989
  51        5S          0.00008  -0.00006   0.00000   0.00000   0.00346
  52        6PX         0.00000   0.00000   0.18994   0.31070   0.00000
  53        6PY        -0.00257  -0.16426   0.00000   0.00000   0.33333
  54        6PZ        -0.23875   0.00631   0.00000   0.00000   0.00217
  55        7PX         0.00000   0.00000   0.24860   0.48064   0.00000
  56        7PY        -0.00306  -0.22962   0.00000   0.00000   0.63834
  57        7PZ        -0.25241   0.00681   0.00000   0.00000   0.01234
  58        8PX         0.00000   0.00000   0.12447   0.19023   0.00000
  59        8PY        -0.00579  -0.25407   0.00000   0.00000   0.34596
  60        8PZ        -0.08418   0.00233   0.00000   0.00000   0.01037
  61        9PX         0.00000   0.00000   0.00180   0.00337   0.00000
  62        9PY        -0.00072  -0.02310   0.00000   0.00000  -0.03758
  63        9PZ        -0.00185   0.00007   0.00000   0.00000   0.00044
  64       10D 0       -0.01905   0.00054   0.00000   0.00000  -0.00049
  65       10D+1        0.00000   0.00000   0.01983  -0.00034   0.00000
  66       10D-1        0.00101   0.03321   0.00000   0.00000   0.03852
  67       10D+2       -0.00591   0.00025   0.00000   0.00000   0.00033
  68       10D-2        0.00000   0.00000  -0.00002  -0.00006   0.00000
  69       11D 0       -0.01199   0.00052   0.00000   0.00000   0.00162
  70       11D+1        0.00000   0.00000   0.02951   0.03792   0.00000
  71       11D-1        0.00206   0.08311   0.00000   0.00000   0.03096
  72       11D+2       -0.00561   0.00037   0.00000   0.00000   0.00168
  73       11D-2        0.00000   0.00000  -0.00008  -0.00002   0.00000
  74       12D 0        0.00096   0.00016   0.00000   0.00000   0.00267
  75       12D+1        0.00000   0.00000  -0.00423   0.00908   0.00000
  76       12D-1        0.00153   0.06733   0.00000   0.00000   0.03280
  77       12D+2       -0.00540   0.00029   0.00000   0.00000   0.00058
  78       12D-2        0.00000   0.00000  -0.00015  -0.00010   0.00000
  79       13F 0       -0.00747   0.00013   0.00000   0.00000   0.00043
  80       13F+1        0.00000   0.00000   0.00684   0.00923   0.00000
  81       13F-1        0.00026   0.00429   0.00000   0.00000   0.02444
  82       13F+2       -0.00162  -0.00002   0.00000   0.00000   0.00042
  83       13F-2        0.00000   0.00000   0.00000   0.00002   0.00000
  84       13F+3        0.00000   0.00000   0.00024  -0.00110   0.00000
  85       13F-3        0.00005   0.00251   0.00000   0.00000  -0.00353
  86       14F 0        0.01011  -0.00027   0.00000   0.00000   0.00044
  87       14F+1        0.00000   0.00000   0.00471   0.01672   0.00000
  88       14F-1        0.00019   0.00514   0.00000   0.00000   0.10611
  89       14F+2        0.00644  -0.00021   0.00000   0.00000  -0.00040
  90       14F-2        0.00000   0.00000   0.00002   0.00005   0.00000
  91       14F+3        0.00000   0.00000   0.00232   0.00622   0.00000
  92       14F-3        0.00015   0.00582   0.00000   0.00000   0.00645
  93 3   H  1S          0.06740  -0.13809   0.00000   0.00000  -0.16178
  94        2S          0.09517  -0.17394   0.00000   0.00000  -0.57063
  95        3S          0.00832   0.08304   0.00000   0.00000  -0.48006
  96        4S          0.00057   0.00980   0.00000   0.00000   0.00562
  97        5PX         0.00000   0.00000   0.00342   0.01209   0.00000
  98        5PY        -0.00774   0.00710   0.00000   0.00000  -0.00521
  99        5PZ         0.00153  -0.00488   0.00000   0.00000   0.01822
 100        6PX         0.00000   0.00000   0.01016   0.02425   0.00000
 101        6PY        -0.01308  -0.00688   0.00000   0.00000   0.13145
 102        6PZ         0.00188   0.00463   0.00000   0.00000   0.02655
 103        7PX         0.00000   0.00000  -0.00408  -0.00700   0.00000
 104        7PY         0.00295  -0.04283   0.00000   0.00000   0.08760
 105        7PZ        -0.00222   0.02075   0.00000   0.00000  -0.02836
 106        8D 0       -0.00204   0.00054   0.00000   0.00000   0.00988
 107        8D+1        0.00000   0.00000   0.00118   0.00379   0.00000
 108        8D-1       -0.00144   0.00102   0.00000   0.00000  -0.00842
 109        8D+2       -0.00210   0.00079   0.00000   0.00000   0.00421
 110        8D-2        0.00000   0.00000  -0.00127  -0.00596   0.00000
 111        9D 0        0.00382  -0.00257   0.00000   0.00000   0.00948
 112        9D+1        0.00000   0.00000   0.00140   0.00161   0.00000
 113        9D-1        0.00026   0.00019   0.00000   0.00000   0.01694
 114        9D+2       -0.00222  -0.00134   0.00000   0.00000   0.01763
 115        9D-2        0.00000   0.00000   0.00102   0.00373   0.00000
 116 4   H  1S          0.07382   0.13244   0.00000   0.00000   0.14095
 117        2S          0.10343   0.16411   0.00000   0.00000   0.53859
 118        3S          0.00340  -0.08677   0.00000   0.00000   0.48079
 119        4S         -0.00005  -0.00992   0.00000   0.00000  -0.00630
 120        5PX         0.00000   0.00000   0.00351   0.01237   0.00000
 121        5PY         0.00815   0.00653   0.00000   0.00000  -0.00449
 122        5PZ         0.00171   0.00481   0.00000   0.00000  -0.01779
 123        6PX         0.00000   0.00000   0.01013   0.02402   0.00000
 124        6PY         0.01328  -0.00794   0.00000   0.00000   0.13214
 125        6PZ         0.00169  -0.00482   0.00000   0.00000  -0.02408
 126        7PX         0.00000   0.00000  -0.00448  -0.00748   0.00000
 127        7PY        -0.00503  -0.04226   0.00000   0.00000   0.08795
 128        7PZ        -0.00342  -0.02063   0.00000   0.00000   0.03292
 129        8D 0       -0.00215  -0.00041   0.00000   0.00000  -0.01020
 130        8D+1        0.00000   0.00000   0.00121   0.00387   0.00000
 131        8D-1        0.00144   0.00090   0.00000   0.00000  -0.00781
 132        8D+2       -0.00213  -0.00060   0.00000   0.00000  -0.00452
 133        8D-2        0.00000   0.00000   0.00128   0.00598   0.00000
 134        9D 0        0.00400   0.00240   0.00000   0.00000  -0.00874
 135        9D+1        0.00000   0.00000   0.00133   0.00154   0.00000
 136        9D-1       -0.00012   0.00026   0.00000   0.00000   0.01825
 137        9D+2       -0.00227   0.00138   0.00000   0.00000  -0.01689
 138        9D-2        0.00000   0.00000  -0.00114  -0.00402   0.00000
                          11        12        13        14        15
     Eigenvalues --     0.02647   0.01990   0.01201   0.01188   0.00761
   1 1   O  1S         -0.07263  -0.02567   0.01771  -0.23595   0.00028
   2        2S          0.28353   0.11160  -0.05599   0.74153  -0.00068
   3        3S          0.10916   0.04911  -0.04726   0.63131  -0.00074
   4        4S          0.61873   0.38249   0.09886  -1.37175   0.00237
   5        5S          0.37414   0.27087   0.04211  -0.59001   0.00172
   6        6PX         0.00000   0.00000   0.00000   0.00000   0.00000
   7        6PY        -0.02027   0.01490   0.43974   0.03301   0.13799
   8        6PZ        -0.43958  -0.11220  -0.01940   0.26189   0.00011
   9        7PX         0.00000   0.00000   0.00000   0.00000   0.00000
  10        7PY        -0.01496   0.00952   0.19437   0.01443   0.02975
  11        7PZ        -0.52761  -0.17001  -0.00455   0.06820   0.00001
  12        8PX         0.00000   0.00000   0.00000   0.00000   0.00000
  13        8PY         0.00872  -0.00839  -0.41338  -0.03022  -0.19108
  14        8PZ        -0.11746  -0.18566   0.01082  -0.11714  -0.00073
  15        9PX         0.00000   0.00000   0.00000   0.00000   0.00000
  16        9PY         0.00455  -0.00311  -0.06124  -0.00438  -0.04570
  17        9PZ        -0.04175  -0.05284  -0.00254   0.04197  -0.00041
  18       10D 0       -0.03083  -0.02155  -0.00020   0.00609  -0.00153
  19       10D+1        0.00000   0.00000   0.00000   0.00000   0.00000
  20       10D-1       -0.00157   0.00110  -0.01015  -0.00084  -0.20787
  21       10D+2       -0.01024   0.00288   0.00161  -0.02474  -0.00067
  22       10D-2        0.00000   0.00000   0.00000   0.00000   0.00000
  23       11D 0       -0.01671  -0.03317   0.00285  -0.03104  -0.00360
  24       11D+1        0.00000   0.00000   0.00000   0.00000   0.00000
  25       11D-1       -0.00208   0.00124  -0.07583  -0.00587  -0.51147
  26       11D+2       -0.02060   0.01055  -0.00064   0.00053  -0.00153
  27       11D-2        0.00000   0.00000   0.00000   0.00000   0.00000
  28       12D 0        0.00058   0.02844   0.00206  -0.02972  -0.00081
  29       12D+1        0.00000   0.00000   0.00000   0.00000   0.00000
  30       12D-1        0.00114  -0.00112  -0.01412  -0.00131  -0.12350
  31       12D+2       -0.00908   0.00222  -0.00086   0.00841  -0.00037
  32       12D-2        0.00000   0.00000   0.00000   0.00000   0.00000
  33       13F 0       -0.00013   0.00449   0.00013  -0.00247   0.00031
  34       13F+1        0.00000   0.00000   0.00000   0.00000   0.00000
  35       13F-1        0.00035  -0.00018   0.01298   0.00099   0.03473
  36       13F+2       -0.00079  -0.00163   0.00003   0.00028   0.00009
  37       13F-2        0.00000   0.00000   0.00000   0.00000   0.00000
  38       13F+3        0.00000   0.00000   0.00000   0.00000   0.00000
  39       13F-3       -0.00007   0.00002  -0.00271  -0.00021  -0.00035
  40       14F 0        0.00816   0.01035  -0.00154   0.01837   0.00067
  41       14F+1        0.00000   0.00000   0.00000   0.00000   0.00000
  42       14F-1       -0.00002  -0.00006   0.00748   0.00052   0.07578
  43       14F+2        0.00034  -0.00571  -0.00041   0.00734   0.00016
  44       14F-2        0.00000   0.00000   0.00000   0.00000   0.00000
  45       14F+3        0.00000   0.00000   0.00000   0.00000   0.00000
  46       14F-3       -0.00018   0.00027   0.01743   0.00132   0.00217
  47 2   C  1S          0.16426  -0.11628   0.00237  -0.00066  -0.00061
  48        2S         -0.61126   0.45781  -0.01448   0.06771   0.00289
  49        3S         -0.25336   0.26434  -0.01237   0.06609   0.00266
  50        4S         -0.20763   0.06722   0.00715  -0.12298   0.00898
  51        5S         -0.11192  -0.09405  -0.00773   0.11662   0.00074
  52        6PX         0.00000   0.00000   0.00000   0.00000   0.00000
  53        6PY         0.01510  -0.00498   0.41633   0.03161  -0.12649
  54        6PZ        -0.24164  -0.40463   0.00672  -0.01428  -0.00393
  55        7PX         0.00000   0.00000   0.00000   0.00000   0.00000
  56        7PY         0.02455  -0.00476   0.78621   0.06164  -0.16871
  57        7PZ        -0.57838  -0.70586  -0.00232   0.13026   0.00089
  58        8PX         0.00000   0.00000   0.00000   0.00000   0.00000
  59        8PY         0.01348  -0.00081   0.57688   0.04188   0.06302
  60        8PZ        -0.31006  -0.22418  -0.01749   0.27642  -0.00157
  61        9PX         0.00000   0.00000   0.00000   0.00000   0.00000
  62        9PY        -0.00162   0.00159   0.04851   0.00335  -0.00085
  63        9PZ        -0.01370  -0.00754  -0.00139   0.01994  -0.00018
  64       10D 0        0.01826   0.01401  -0.00103   0.01230  -0.00161
  65       10D+1        0.00000   0.00000   0.00000   0.00000   0.00000
  66       10D-1        0.00256  -0.00288  -0.09969  -0.00752   0.24556
  67       10D+2       -0.00527   0.01506   0.00169  -0.02748  -0.00144
  68       10D-2        0.00000   0.00000   0.00000   0.00000   0.00000
  69       11D 0       -0.09377  -0.06622   0.00071  -0.01451  -0.00245
  70       11D+1        0.00000   0.00000   0.00000   0.00000   0.00000
  71       11D-1        0.00488  -0.00926  -0.57115  -0.04389   0.09379
  72       11D+2       -0.07618  -0.03115   0.00042  -0.02150  -0.00329
  73       11D-2        0.00000   0.00000   0.00000   0.00000   0.00000
  74       12D 0       -0.06600  -0.03602  -0.00830   0.10597  -0.00179
  75       12D+1        0.00000   0.00000   0.00000   0.00000   0.00000
  76       12D-1        0.00265  -0.00357  -0.19615  -0.01458  -0.15459
  77       12D+2       -0.02139  -0.02505  -0.00459   0.05731  -0.00119
  78       12D-2        0.00000   0.00000   0.00000   0.00000   0.00000
  79       13F 0       -0.00895  -0.01578   0.00037  -0.00006  -0.00010
  80       13F+1        0.00000   0.00000   0.00000   0.00000   0.00000
  81       13F-1        0.00109  -0.00063  -0.00808  -0.00052   0.00767
  82       13F+2        0.00009   0.01031   0.00021  -0.00086   0.00016
  83       13F-2        0.00000   0.00000   0.00000   0.00000   0.00000
  84       13F+3        0.00000   0.00000   0.00000   0.00000   0.00000
  85       13F-3        0.00001  -0.00038  -0.02455  -0.00190   0.01786
  86       14F 0       -0.00097  -0.00342   0.00262  -0.03159   0.00064
  87       14F+1        0.00000   0.00000   0.00000   0.00000   0.00000
  88       14F-1        0.00557  -0.00451  -0.12421  -0.00979  -0.09021
  89       14F+2        0.01775   0.01193   0.00118  -0.01384   0.00095
  90       14F-2        0.00000   0.00000   0.00000   0.00000   0.00000
  91       14F+3        0.00000   0.00000   0.00000   0.00000   0.00000
  92       14F-3        0.00061  -0.00121  -0.08721  -0.00662   0.01134
  93 3   H  1S          0.09277  -0.23864  -0.09720   0.05418  -0.12331
  94        2S          0.02477  -0.62180  -0.88272   0.07465   0.07377
  95        3S         -0.11481  -0.18730  -0.75736   0.13628   0.07116
  96        4S          0.00705   0.00678  -0.03562  -0.00866   0.01500
  97        5PX         0.00000   0.00000   0.00000   0.00000   0.00000
  98        5PY        -0.00295  -0.02441  -0.03177  -0.01565   0.06432
  99        5PZ        -0.01176  -0.00817   0.01694   0.00918  -0.01172
 100        6PX         0.00000   0.00000   0.00000   0.00000   0.00000
 101        6PY         0.03075   0.05100   0.13301  -0.03407   0.07759
 102        6PZ        -0.06554  -0.07909  -0.17655   0.01479  -0.01667
 103        7PX         0.00000   0.00000   0.00000   0.00000   0.00000
 104        7PY         0.02099   0.01974   0.15424   0.00030   0.05660
 105        7PZ        -0.05447  -0.03593  -0.10306   0.09095   0.02925
 106        8D 0       -0.00302  -0.01151  -0.00578  -0.00305   0.01833
 107        8D+1        0.00000   0.00000   0.00000   0.00000   0.00000
 108        8D-1        0.00778  -0.00277  -0.00603  -0.00608   0.00568
 109        8D+2       -0.00031  -0.01020  -0.01128  -0.00770   0.01599
 110        8D-2        0.00000   0.00000   0.00000   0.00000   0.00000
 111        9D 0       -0.00521  -0.00067   0.00838  -0.00628   0.02259
 112        9D+1        0.00000   0.00000   0.00000   0.00000   0.00000
 113        9D-1        0.02070   0.01450   0.01719  -0.01849   0.00938
 114        9D+2        0.00049   0.00860   0.00742  -0.00254   0.01808
 115        9D-2        0.00000   0.00000   0.00000   0.00000   0.00000
 116 4   H  1S          0.10757  -0.24543   0.09264   0.06884   0.12656
 117        2S          0.06576  -0.63055   0.87998   0.21054  -0.08824
 118        3S         -0.07906  -0.19206   0.73532   0.24778  -0.07977
 119        4S          0.00666   0.00848   0.03643  -0.00365  -0.01511
 120        5PX         0.00000   0.00000   0.00000   0.00000   0.00000
 121        5PY         0.00269   0.02508  -0.03518   0.01063   0.06458
 122        5PZ        -0.01368  -0.00719  -0.01897   0.00654   0.01353
 123        6PX         0.00000   0.00000   0.00000   0.00000   0.00000
 124        6PY        -0.02111  -0.05202   0.12468   0.05439   0.07484
 125        6PZ        -0.07137  -0.07250   0.17320   0.04299   0.01734
 126        7PX         0.00000   0.00000   0.00000   0.00000   0.00000
 127        7PY        -0.01474  -0.01871   0.15098   0.02138   0.05541
 128        7PZ        -0.05315  -0.03484   0.08804   0.10644  -0.03233
 129        8D 0       -0.00412  -0.01096   0.00636  -0.00205  -0.01780
 130        8D+1        0.00000   0.00000   0.00000   0.00000   0.00000
 131        8D-1       -0.00878   0.00395  -0.00790   0.00511   0.00633
 132        8D+2       -0.00069  -0.01020   0.01298  -0.00584  -0.01567
 133        8D-2        0.00000   0.00000   0.00000   0.00000   0.00000
 134        9D 0       -0.00606  -0.00060  -0.00742  -0.00737  -0.02281
 135        9D+1        0.00000   0.00000   0.00000   0.00000   0.00000
 136        9D-1       -0.01973  -0.01417   0.01303   0.02144   0.00928
 137        9D+2       -0.00075   0.00863  -0.00663  -0.00368  -0.01877
 138        9D-2        0.00000   0.00000   0.00000   0.00000   0.00000
                          16        17        18        19        20
     Eigenvalues --     0.00747   0.00719   0.00707   0.00701   0.00600
   1 1   O  1S         -0.01308   0.00000   0.00000  -0.02437   0.00000
   2        2S          0.02377   0.00000   0.00000   0.05456   0.00000
   3        3S          0.03602   0.00000   0.00000   0.07472   0.00000
   4        4S         -0.07734   0.00000   0.00000  -0.19593   0.00000
   5        5S          0.11732   0.00000   0.00000  -0.12155   0.00000
   6        6PX         0.00000   0.21043   0.00577   0.00000  -0.45110
   7        6PY         0.00078   0.00000   0.00000  -0.00031   0.00000
   8        6PZ        -0.05965   0.00000   0.00000   0.14204   0.00000
   9        7PX         0.00000   0.09795   0.00266   0.00000  -0.16264
  10        7PY         0.00003   0.00000   0.00000  -0.00021   0.00000
  11        7PZ         0.01296   0.00000   0.00000   0.01990   0.00000
  12        8PX         0.00000  -0.38719  -0.00982   0.00000   0.54047
  13        8PY        -0.00281   0.00000   0.00000   0.00018   0.00000
  14        8PZ         0.20143   0.00000   0.00000  -0.25873   0.00000
  15        9PX         0.00000  -0.08167  -0.00202   0.00000   0.08391
  16        9PY        -0.00072   0.00000   0.00000   0.00066   0.00000
  17        9PZ        -0.00035   0.00000   0.00000  -0.00972   0.00000
  18       10D 0        0.20629   0.00000   0.00000  -0.06837   0.00000
  19       10D+1        0.00000  -0.19807  -0.00591   0.00000  -0.09672
  20       10D-1       -0.00189   0.00000   0.00000  -0.00097   0.00000
  21       10D+2        0.04507   0.00000   0.00000   0.16660   0.00000
  22       10D-2        0.00000  -0.00512   0.19710   0.00000  -0.00090
  23       11D 0        0.45315   0.00000   0.00000  -0.15502   0.00000
  24       11D+1        0.00000  -0.46997  -0.01399   0.00000  -0.18911
  25       11D-1       -0.00459   0.00000   0.00000  -0.00215   0.00000
  26       11D+2        0.09016   0.00000   0.00000   0.39378   0.00000
  27       11D-2        0.00000  -0.01137   0.43394   0.00000  -0.00187
  28       12D 0        0.05896   0.00000   0.00000   0.04633   0.00000
  29       12D+1        0.00000  -0.00550  -0.00074   0.00000  -0.07185
  30       12D-1       -0.00069   0.00000   0.00000  -0.00083   0.00000
  31       12D+2        0.01604   0.00000   0.00000   0.10245   0.00000
  32       12D-2        0.00000  -0.00210   0.07584   0.00000  -0.00029
  33       13F 0       -0.03840   0.00000   0.00000   0.01591   0.00000
  34       13F+1        0.00000   0.04897   0.00138   0.00000  -0.00705
  35       13F-1        0.00028   0.00000   0.00000   0.00007   0.00000
  36       13F+2       -0.00584   0.00000   0.00000  -0.02063   0.00000
  37       13F-2        0.00000   0.00068  -0.02457   0.00000   0.00005
  38       13F+3        0.00000  -0.00640  -0.00017   0.00000   0.01598
  39       13F-3        0.00001   0.00000   0.00000   0.00003   0.00000
  40       14F 0       -0.07157   0.00000   0.00000   0.01110   0.00000
  41       14F+1        0.00000   0.05437   0.00167   0.00000   0.02555
  42       14F-1        0.00078   0.00000   0.00000   0.00038   0.00000
  43       14F+2       -0.00688   0.00000   0.00000  -0.05036   0.00000
  44       14F-2        0.00000   0.00129  -0.04608   0.00000   0.00015
  45       14F+3        0.00000   0.00816   0.00032   0.00000  -0.01040
  46       14F-3       -0.00007   0.00000   0.00000  -0.00011   0.00000
  47 2   C  1S         -0.05998   0.00000   0.00000   0.09164   0.00000
  48        2S          0.15973   0.00000   0.00000  -0.28564   0.00000
  49        3S          0.11151   0.00000   0.00000  -0.25584   0.00000
  50        4S          0.11386   0.00000   0.00000  -0.61983   0.00000
  51        5S         -0.01765   0.00000   0.00000  -0.07804   0.00000
  52        6PX         0.00000   0.25555   0.00631   0.00000  -0.19815
  53        6PY        -0.00167   0.00000   0.00000  -0.00059   0.00000
  54        6PZ         0.24625   0.00000   0.00000   0.05373   0.00000
  55        7PX         0.00000   0.14356   0.00474   0.00000  -0.33468
  56        7PY        -0.00843   0.00000   0.00000   0.00409   0.00000
  57        7PZ        -0.26207   0.00000   0.00000   0.21376   0.00000
  58        8PX         0.00000  -0.13713  -0.00295   0.00000   0.09931
  59        8PY         0.00080   0.00000   0.00000   0.00863   0.00000
  60        8PZ        -0.08621   0.00000   0.00000   0.29935   0.00000
  61        9PX         0.00000   0.02428   0.00062   0.00000  -0.01892
  62        9PY         0.00024   0.00000   0.00000  -0.00026   0.00000
  63        9PZ         0.00598   0.00000   0.00000   0.02311   0.00000
  64       10D 0        0.21990   0.00000   0.00000  -0.02746   0.00000
  65       10D+1        0.00000   0.18810   0.00579   0.00000   0.20969
  66       10D-1        0.00269   0.00000   0.00000   0.00066   0.00000
  67       10D+2        0.05790   0.00000   0.00000   0.22334   0.00000
  68       10D-2        0.00000  -0.00714   0.24597   0.00000   0.00062
  69       11D 0        0.14975   0.00000   0.00000   0.04042   0.00000
  70       11D+1        0.00000   0.03166  -0.00032   0.00000   0.30852
  71       11D-1        0.00307   0.00000   0.00000  -0.00239   0.00000
  72       11D+2        0.02131   0.00000   0.00000   0.42283   0.00000
  73       11D-2        0.00000  -0.01062   0.30931   0.00000  -0.00033
  74       12D 0       -0.03385   0.00000   0.00000   0.08311   0.00000
  75       12D+1        0.00000   0.00632  -0.00047   0.00000  -0.05011
  76       12D-1       -0.00109   0.00000   0.00000  -0.00241   0.00000
  77       12D+2       -0.01760   0.00000   0.00000   0.07387   0.00000
  78       12D-2        0.00000  -0.00024   0.00958   0.00000  -0.00087
  79       13F 0        0.05530   0.00000   0.00000  -0.05234   0.00000
  80       13F+1        0.00000   0.04195   0.00117   0.00000  -0.00571
  81       13F-1        0.00007   0.00000   0.00000   0.00047   0.00000
  82       13F+2        0.01759   0.00000   0.00000   0.00079   0.00000
  83       13F-2        0.00000   0.00013   0.00849   0.00000  -0.00042
  84       13F+3        0.00000  -0.00101  -0.00037   0.00000   0.04756
  85       13F-3        0.00038   0.00000   0.00000   0.00008   0.00000
  86       14F 0       -0.04496   0.00000   0.00000  -0.08963   0.00000
  87       14F+1        0.00000  -0.06523  -0.00205   0.00000   0.03665
  88       14F-1        0.00064   0.00000   0.00000   0.00106   0.00000
  89       14F+2       -0.02449   0.00000   0.00000  -0.11011   0.00000
  90       14F-2        0.00000   0.00084  -0.00871   0.00000   0.00029
  91       14F+3        0.00000  -0.05956  -0.00197   0.00000   0.03750
  92       14F-3        0.00069   0.00000   0.00000   0.00051   0.00000
  93 3   H  1S         -0.03592   0.00000   0.00000  -0.09651   0.00000
  94        2S         -0.08459   0.00000   0.00000   0.46965   0.00000
  95        3S         -0.06382   0.00000   0.00000   0.41639   0.00000
  96        4S          0.00053   0.00000   0.00000   0.01429   0.00000
  97        5PX         0.00000  -0.02090   0.06949   0.00000  -0.06415
  98        5PY         0.00097   0.00000   0.00000   0.03286   0.00000
  99        5PZ        -0.05643   0.00000   0.00000  -0.04922   0.00000
 100        6PX         0.00000  -0.15120   0.11410   0.00000  -0.04226
 101        6PY         0.05636   0.00000   0.00000  -0.07042   0.00000
 102        6PZ        -0.14679   0.00000   0.00000   0.00614   0.00000
 103        7PX         0.00000  -0.05064   0.00272   0.00000  -0.00120
 104        7PY         0.01921   0.00000   0.00000  -0.04951   0.00000
 105        7PZ        -0.07266   0.00000   0.00000   0.06596   0.00000
 106        8D 0       -0.01320   0.00000   0.00000  -0.01553   0.00000
 107        8D+1        0.00000  -0.00437   0.02579   0.00000  -0.01140
 108        8D-1        0.02828   0.00000   0.00000   0.01465   0.00000
 109        8D+2       -0.00067   0.00000   0.00000   0.01068   0.00000
 110        8D-2        0.00000   0.01771  -0.03781   0.00000   0.03290
 111        9D 0       -0.02193   0.00000   0.00000  -0.01270   0.00000
 112        9D+1        0.00000  -0.05662   0.00054   0.00000   0.03489
 113        9D-1        0.02761   0.00000   0.00000  -0.00871   0.00000
 114        9D+2        0.02200   0.00000   0.00000   0.01991   0.00000
 115        9D-2        0.00000   0.02875  -0.00568   0.00000  -0.01358
 116 4   H  1S         -0.03379   0.00000   0.00000  -0.09642   0.00000
 117        2S         -0.09843   0.00000   0.00000   0.48601   0.00000
 118        3S         -0.06916   0.00000   0.00000   0.43959   0.00000
 119        4S          0.00044   0.00000   0.00000   0.01446   0.00000
 120        5PX         0.00000  -0.01685  -0.07152   0.00000  -0.06579
 121        5PY         0.00097   0.00000   0.00000  -0.03182   0.00000
 122        5PZ        -0.05667   0.00000   0.00000  -0.04953   0.00000
 123        6PX         0.00000  -0.14620  -0.12245   0.00000  -0.04263
 124        6PY        -0.05863   0.00000   0.00000   0.07561   0.00000
 125        6PZ        -0.15069   0.00000   0.00000   0.00927   0.00000
 126        7PX         0.00000  -0.05071  -0.00630   0.00000  -0.00258
 127        7PY        -0.01860   0.00000   0.00000   0.05536   0.00000
 128        7PZ        -0.07436   0.00000   0.00000   0.06923   0.00000
 129        8D 0       -0.01377   0.00000   0.00000  -0.01611   0.00000
 130        8D+1        0.00000  -0.00280  -0.02637   0.00000  -0.01174
 131        8D-1       -0.02823   0.00000   0.00000  -0.01397   0.00000
 132        8D+2       -0.00112   0.00000   0.00000   0.01025   0.00000
 133        8D-2        0.00000  -0.01550  -0.03869   0.00000  -0.03337
 134        9D 0       -0.02292   0.00000   0.00000  -0.01338   0.00000
 135        9D+1        0.00000  -0.05747  -0.00389   0.00000   0.03509
 136        9D-1       -0.02818   0.00000   0.00000   0.00987   0.00000
 137        9D+2        0.02214   0.00000   0.00000   0.01890   0.00000
 138        9D-2        0.00000  -0.02844  -0.00778   0.00000   0.01337
                          21        22        23        24        25
     Eigenvalues --     0.00519   0.00484   0.00337   0.00284   0.00251
   1 1   O  1S         -0.00862   0.00000   0.00032   0.11735   0.00000
   2        2S          0.02011   0.00000  -0.00102  -0.33084   0.00000
   3        3S          0.00595   0.00000  -0.00083  -0.37412   0.00000
   4        4S          0.38576   0.00000  -0.00222  -0.28624   0.00000
   5        5S          0.12888   0.00000  -0.00160  -0.50757   0.00000
   6        6PX         0.00000  -0.00241   0.00000   0.00000  -0.14850
   7        6PY         0.00118   0.00000   0.18998  -0.00039   0.00000
   8        6PZ        -0.20163   0.00000   0.00211   0.36644   0.00000
   9        7PX         0.00000  -0.00067   0.00000   0.00000   0.03701
  10        7PY         0.00037   0.00000  -0.04222   0.00013   0.00000
  11        7PZ        -0.04816   0.00000   0.00018   0.08617   0.00000
  12        8PX         0.00000   0.00150   0.00000   0.00000  -0.41094
  13        8PY         0.00121   0.00000  -0.71047   0.00208   0.00000
  14        8PZ         0.01448   0.00000  -0.00221  -0.24739   0.00000
  15        9PX         0.00000   0.00000   0.00000   0.00000  -0.06551
  16        9PY        -0.00036   0.00000  -0.04483  -0.00059   0.00000
  17        9PZ        -0.01835   0.00000   0.00039   0.06488   0.00000
  18       10D 0        0.05981   0.00000  -0.00020  -0.17012   0.00000
  19       10D+1        0.00000   0.00057   0.00000   0.00000   0.33071
  20       10D-1        0.00051   0.00000   0.30152  -0.00105   0.00000
  21       10D+2        0.26046   0.00000   0.00037   0.08070   0.00000
  22       10D-2        0.00000   0.27388   0.00000   0.00000  -0.00084
  23       11D 0        0.13335   0.00000  -0.00077  -0.34697   0.00000
  24       11D+1        0.00000   0.00152   0.00000   0.00000   0.55302
  25       11D-1        0.00062   0.00000   0.46190  -0.00140   0.00000
  26       11D+2        0.50869   0.00000   0.00044   0.06118   0.00000
  27       11D-2        0.00000   0.51399   0.00000   0.00000  -0.00114
  28       12D 0        0.02230   0.00000   0.00086   0.03906   0.00000
  29       12D+1        0.00000   0.00061   0.00000   0.00000   0.18813
  30       12D-1       -0.00038   0.00000   0.17704  -0.00007   0.00000
  31       12D+2        0.07493   0.00000   0.00018  -0.07650   0.00000
  32       12D-2        0.00000   0.09842   0.00000   0.00000  -0.00037
  33       13F 0       -0.01202   0.00000   0.00014   0.00791   0.00000
  34       13F+1        0.00000  -0.00015   0.00000   0.00000   0.03220
  35       13F-1        0.00010   0.00000   0.00467   0.00004   0.00000
  36       13F+2       -0.01255   0.00000  -0.00001  -0.00058   0.00000
  37       13F-2        0.00000  -0.00015   0.00000   0.00000  -0.00019
  38       13F+3        0.00000   0.00007   0.00000   0.00000  -0.01057
  39       13F-3       -0.00005   0.00000  -0.00141  -0.00004   0.00000
  40       14F 0       -0.01123   0.00000   0.00002   0.02261   0.00000
  41       14F+1        0.00000  -0.00025   0.00000   0.00000  -0.02247
  42       14F-1       -0.00011   0.00000  -0.01978  -0.00005   0.00000
  43       14F+2       -0.03485   0.00000   0.00006   0.03864   0.00000
  44       14F-2        0.00000  -0.02468   0.00000   0.00000  -0.00006
  45       14F+3        0.00000  -0.00012   0.00000   0.00000  -0.01597
  46       14F-3        0.00013   0.00000  -0.00228   0.00007   0.00000
  47 2   C  1S         -0.03625   0.00000  -0.00006  -0.04201   0.00000
  48        2S          0.12235   0.00000  -0.00071   0.16416   0.00000
  49        3S          0.11573   0.00000  -0.00050   0.15562   0.00000
  50        4S         -0.22925   0.00000  -0.00038  -0.20758   0.00000
  51        5S         -0.07689   0.00000   0.00207   0.05502   0.00000
  52        6PX         0.00000   0.00027   0.00000   0.00000   0.51149
  53        6PY         0.00135   0.00000   0.12416   0.00024   0.00000
  54        6PZ        -0.14996   0.00000   0.00104   0.23789   0.00000
  55        7PX         0.00000  -0.00123   0.00000   0.00000   0.41141
  56        7PY         0.00116   0.00000   0.30610  -0.00376   0.00000
  57        7PZ        -0.26281   0.00000  -0.00072   0.16631   0.00000
  58        8PX         0.00000  -0.00037   0.00000   0.00000   0.14388
  59        8PY        -0.00929   0.00000   1.47361  -0.01315   0.00000
  60        8PZ        -0.10092   0.00000   0.00351   0.71126   0.00000
  61        9PX         0.00000   0.00007   0.00000   0.00000   0.01427
  62        9PY         0.00025   0.00000   0.02624   0.00027   0.00000
  63        9PZ        -0.00363   0.00000  -0.00022   0.03432   0.00000
  64       10D 0       -0.08373   0.00000   0.00223   0.28400   0.00000
  65       10D+1        0.00000  -0.00024   0.00000   0.00000   0.18219
  66       10D-1       -0.00020   0.00000   0.09414   0.00006   0.00000
  67       10D+2       -0.11517   0.00000   0.00042  -0.05237   0.00000
  68       10D-2        0.00000  -0.20672   0.00000   0.00000   0.00193
  69       11D 0       -0.21608   0.00000   0.00119   0.52286   0.00000
  70       11D+1        0.00000   0.00283   0.00000   0.00000   0.37413
  71       11D-1       -0.00013   0.00000   0.29068  -0.00013   0.00000
  72       11D+2       -0.24441   0.00000  -0.00229  -0.10837   0.00000
  73       11D-2        0.00000  -0.25755   0.00000   0.00000   0.00011
  74       12D 0       -0.00803   0.00000  -0.00068   0.24437   0.00000
  75       12D+1        0.00000   0.00070   0.00000   0.00000   0.03716
  76       12D-1        0.00210   0.00000  -0.15579   0.00351   0.00000
  77       12D+2        0.03556   0.00000  -0.00189   0.15637   0.00000
  78       12D-2        0.00000   0.04376   0.00000   0.00000  -0.00033
  79       13F 0        0.06637   0.00000  -0.00079  -0.03689   0.00000
  80       13F+1        0.00000   0.00016   0.00000   0.00000  -0.00673
  81       13F-1       -0.00078   0.00000  -0.22666   0.00085   0.00000
  82       13F+2        0.09275   0.00000   0.00016   0.07297   0.00000
  83       13F-2        0.00000   0.10267   0.00000   0.00000   0.00017
  84       13F+3        0.00000   0.00059   0.00000   0.00000   0.03720
  85       13F-3       -0.00040   0.00000  -0.00287   0.00013   0.00000
  86       14F 0        0.05324   0.00000   0.00062   0.18267   0.00000
  87       14F+1        0.00000   0.00059   0.00000   0.00000   0.09170
  88       14F-1       -0.00256   0.00000   0.01371   0.00013   0.00000
  89       14F+2        0.07696   0.00000   0.00043   0.10944   0.00000
  90       14F-2        0.00000   0.00676   0.00000   0.00000   0.00107
  91       14F+3        0.00000   0.00062   0.00000   0.00000   0.00318
  92       14F-3       -0.00090   0.00000   0.00380  -0.00019   0.00000
  93 3   H  1S          0.16314   0.00000  -0.29521   0.24348   0.00000
  94        2S         -0.23840   0.00000  -0.13534  -0.08709   0.00000
  95        3S         -0.09701   0.00000  -1.09654   0.31077   0.00000
  96        4S          0.00625   0.00000  -0.01542   0.00136   0.00000
  97        5PX         0.00000  -0.09272   0.00000   0.00000  -0.08990
  98        5PY        -0.01605   0.00000   0.10340  -0.10319   0.00000
  99        5PZ         0.06602   0.00000   0.01652  -0.04041   0.00000
 100        6PX         0.00000  -0.20387   0.00000   0.00000  -0.23494
 101        6PY         0.06975   0.00000   0.15087  -0.07450   0.00000
 102        6PZ         0.03376   0.00000   0.06549  -0.12256   0.00000
 103        7PX         0.00000  -0.06568   0.00000   0.00000  -0.07138
 104        7PY         0.03583   0.00000   0.32820   0.01383   0.00000
 105        7PZ         0.00422   0.00000  -0.17405   0.10740   0.00000
 106        8D 0        0.02096   0.00000   0.00650  -0.03411   0.00000
 107        8D+1        0.00000  -0.02975   0.00000   0.00000  -0.02016
 108        8D-1       -0.02283   0.00000   0.01853   0.00829   0.00000
 109        8D+2       -0.00301   0.00000   0.02615  -0.04765   0.00000
 110        8D-2        0.00000   0.04214   0.00000   0.00000   0.04469
 111        9D 0        0.00110   0.00000   0.01394   0.02212   0.00000
 112        9D+1        0.00000   0.00121   0.00000   0.00000  -0.01709
 113        9D-1        0.00486   0.00000   0.00340   0.02324   0.00000
 114        9D+2       -0.01331   0.00000   0.03136  -0.01436   0.00000
 115        9D-2        0.00000   0.02256   0.00000   0.00000   0.03763
 116 4   H  1S          0.16245   0.00000   0.30033   0.24351   0.00000
 117        2S         -0.24429   0.00000   0.12294  -0.10075   0.00000
 118        3S         -0.11454   0.00000   1.10380   0.28584   0.00000
 119        4S          0.00677   0.00000   0.01499   0.00155   0.00000
 120        5PX         0.00000   0.09307   0.00000   0.00000  -0.09175
 121        5PY         0.01474   0.00000   0.10386   0.10375   0.00000
 122        5PZ         0.06629   0.00000  -0.01609  -0.04079   0.00000
 123        6PX         0.00000   0.20248   0.00000   0.00000  -0.23728
 124        6PY        -0.07193   0.00000   0.14667   0.07066   0.00000
 125        6PZ         0.03456   0.00000  -0.06618  -0.12436   0.00000
 126        7PX         0.00000   0.06615   0.00000   0.00000  -0.07213
 127        7PY        -0.04148   0.00000   0.32678  -0.02417   0.00000
 128        7PZ         0.00272   0.00000   0.17504   0.10610   0.00000
 129        8D 0        0.02153   0.00000  -0.00602  -0.03444   0.00000
 130        8D+1        0.00000   0.02998   0.00000   0.00000  -0.02073
 131        8D-1        0.02260   0.00000   0.01879  -0.00831   0.00000
 132        8D+2       -0.00288   0.00000  -0.02581  -0.04756   0.00000
 133        8D-2        0.00000   0.04151   0.00000   0.00000  -0.04512
 134        9D 0        0.00195   0.00000  -0.01378   0.02291   0.00000
 135        9D+1        0.00000  -0.00087   0.00000   0.00000  -0.01732
 136        9D-1       -0.00478   0.00000   0.00385  -0.02461   0.00000
 137        9D+2       -0.01300   0.00000  -0.03126  -0.01353   0.00000
 138        9D-2        0.00000   0.02252   0.00000   0.00000  -0.03808
                          26        27        28        29        30
     Eigenvalues --     0.00210   0.00163   0.00139   0.00132   0.00107
   1 1   O  1S         -0.00030   0.00981   0.04915  -0.00092   0.00000
   2        2S          0.00068  -0.03172  -0.28040   0.00789   0.00000
   3        3S          0.00091  -0.02943  -0.27300   0.00691   0.00000
   4        4S         -0.00500  -0.03784   0.18341  -0.00296   0.00000
   5        5S          0.00161   0.15931  -0.48713   0.01637   0.00000
   6        6PX         0.00000   0.00000   0.00000   0.00000  -0.03348
   7        6PY        -0.29580   0.00239  -0.01448  -0.45657   0.00000
   8        6PZ        -0.00039   0.23374   0.13912  -0.00098   0.00000
   9        7PX         0.00000   0.00000   0.00000   0.00000   0.02752
  10        7PY         0.14173  -0.00218   0.01437   0.48311   0.00000
  11        7PZ        -0.00019  -0.16890   0.13082  -0.00547   0.00000
  12        8PX         0.00000   0.00000   0.00000   0.00000   0.01442
  13        8PY        -0.23093   0.00216  -0.00031  -0.09595   0.00000
  14        8PZ         0.00509  -0.26472  -1.01764   0.02883   0.00000
  15        9PX         0.00000   0.00000   0.00000   0.00000  -0.00441
  16        9PY        -0.04841   0.00099  -0.00539  -0.19269   0.00000
  17        9PZ        -0.00013  -0.01837   0.05658  -0.00179   0.00000
  18       10D 0       -0.00178   0.19094   0.39831  -0.00963   0.00000
  19       10D+1        0.00000   0.00000   0.00000   0.00000  -0.01011
  20       10D-1        0.05518  -0.00226   0.00424   0.16375   0.00000
  21       10D+2        0.00123   0.25948  -0.08935   0.00539   0.00000
  22       10D-2        0.00000   0.00000   0.00000   0.00000  -0.34459
  23       11D 0       -0.00196   0.17924   0.35209  -0.00960   0.00000
  24       11D+1        0.00000   0.00000   0.00000   0.00000  -0.00527
  25       11D-1        0.21558  -0.00297   0.00632   0.18874   0.00000
  26       11D+2        0.00162   0.24635  -0.16146   0.00686   0.00000
  27       11D-2        0.00000   0.00000   0.00000   0.00000  -0.21602
  28       12D 0       -0.00067   0.04478   0.22497  -0.00759   0.00000
  29       12D+1        0.00000   0.00000   0.00000   0.00000   0.00619
  30       12D-1        0.14247  -0.00153   0.00266   0.09771   0.00000
  31       12D+2        0.00037  -0.02958  -0.06589   0.00142   0.00000
  32       12D-2        0.00000   0.00000   0.00000   0.00000   0.08903
  33       13F 0       -0.00031   0.07552   0.13945  -0.00307   0.00000
  34       13F+1        0.00000   0.00000   0.00000   0.00000  -0.00270
  35       13F-1       -0.00362  -0.00138   0.00408   0.15641   0.00000
  36       13F+2        0.00034   0.06425  -0.05163   0.00256   0.00000
  37       13F-2        0.00000   0.00000   0.00000   0.00000  -0.21157
  38       13F+3        0.00000   0.00000   0.00000   0.00000   0.00071
  39       13F-3        0.01249   0.00020  -0.00018  -0.01156   0.00000
  40       14F 0       -0.00032   0.01723   0.05981  -0.00097   0.00000
  41       14F+1        0.00000   0.00000   0.00000   0.00000  -0.00443
  42       14F-1       -0.05196  -0.00023   0.00064   0.04724   0.00000
  43       14F+2        0.00033   0.04742  -0.01383   0.00090   0.00000
  44       14F-2        0.00000   0.00000   0.00000   0.00000  -0.13889
  45       14F+3        0.00000   0.00000   0.00000   0.00000  -0.00069
  46       14F-3       -0.01704   0.00009  -0.00035  -0.01272   0.00000
  47 2   C  1S         -0.00069   0.07171   0.15286  -0.00638   0.00000
  48        2S          0.00085  -0.27624  -0.50497   0.02153   0.00000
  49        3S          0.00160  -0.35985  -0.68570   0.02703   0.00000
  50        4S          0.01325   1.28960  -1.29738   0.04304   0.00000
  51        5S          0.00222   0.05801  -0.07576   0.00049   0.00000
  52        6PX         0.00000   0.00000   0.00000   0.00000   0.00729
  53        6PY         0.30636  -0.00462   0.00787   0.14563   0.00000
  54        6PZ         0.00241  -0.25542  -0.49527   0.00449   0.00000
  55        7PX         0.00000   0.00000   0.00000   0.00000   0.00584
  56        7PY         0.32684  -0.00729   0.02296   0.39693   0.00000
  57        7PZ         0.00082  -0.07872   0.13196  -0.00029   0.00000
  58        8PX         0.00000   0.00000   0.00000   0.00000  -0.02147
  59        8PY         1.40285   0.00500  -0.02932  -1.23013   0.00000
  60        8PZ        -0.00186  -0.31405   0.87149  -0.02787   0.00000
  61        9PX         0.00000   0.00000   0.00000   0.00000   0.00278
  62        9PY         0.04669  -0.00052   0.00112   0.03429   0.00000
  63        9PZ         0.00008  -0.01844  -0.00703   0.00031   0.00000
  64       10D 0       -0.00287   0.11503   0.12106   0.00053   0.00000
  65       10D+1        0.00000   0.00000   0.00000   0.00000  -0.01328
  66       10D-1       -0.02835  -0.00542   0.01348   0.53929   0.00000
  67       10D+2       -0.00397  -0.30246   0.22751  -0.00735   0.00000
  68       10D-2        0.00000   0.00000   0.00000   0.00000   0.26040
  69       11D 0        0.00086   0.16540   0.25208  -0.00935   0.00000
  70       11D+1        0.00000   0.00000   0.00000   0.00000  -0.01048
  71       11D-1        0.08756   0.00038  -0.00543  -0.03644   0.00000
  72       11D+2       -0.00425  -0.48125   0.26456  -0.01308   0.00000
  73       11D-2        0.00000   0.00000   0.00000   0.00000   0.35971
  74       12D 0       -0.00381   0.04776   0.49148  -0.01406   0.00000
  75       12D+1        0.00000   0.00000   0.00000   0.00000  -0.00164
  76       12D-1       -0.41391  -0.00156   0.00138   0.10023   0.00000
  77       12D+2       -0.00378  -0.04630   0.31149  -0.00749   0.00000
  78       12D-2        0.00000   0.00000   0.00000   0.00000   0.00750
  79       13F 0        0.00095  -0.12547   0.02086  -0.00222   0.00000
  80       13F+1        0.00000   0.00000   0.00000   0.00000   0.01062
  81       13F-1        0.24952  -0.00061   0.00418   0.07186   0.00000
  82       13F+2        0.00055  -0.19086   0.09750  -0.00611   0.00000
  83       13F-2        0.00000   0.00000   0.00000   0.00000   0.38978
  84       13F+3        0.00000   0.00000   0.00000   0.00000  -0.00557
  85       13F-3        0.13650   0.00066  -0.00197  -0.10682   0.00000
  86       14F 0       -0.00002  -0.07415   0.10901  -0.00364   0.00000
  87       14F+1        0.00000   0.00000   0.00000   0.00000   0.00647
  88       14F-1        0.14668  -0.00078   0.00152   0.06232   0.00000
  89       14F+2        0.00011  -0.07484   0.06607  -0.00316   0.00000
  90       14F-2        0.00000   0.00000   0.00000   0.00000   0.14858
  91       14F+3        0.00000   0.00000   0.00000   0.00000   0.00011
  92       14F-3        0.02453   0.00015  -0.00099  -0.04286   0.00000
  93 3   H  1S         -0.38194  -0.26880   0.22865   0.29516   0.00000
  94        2S         -0.25030  -0.27212   0.27030  -0.14280   0.00000
  95        3S         -1.12138  -0.30143   0.81550   0.82672   0.00000
  96        4S         -0.02029  -0.00998   0.00961  -0.00556   0.00000
  97        5PX         0.00000   0.00000   0.00000   0.00000  -0.10905
  98        5PY         0.02191   0.02014  -0.05219   0.03516   0.00000
  99        5PZ        -0.15968   0.02031  -0.00712   0.03109   0.00000
 100        6PX         0.00000   0.00000   0.00000   0.00000  -0.28423
 101        6PY        -0.02806   0.05354  -0.09016   0.30961   0.00000
 102        6PZ        -0.31203   0.00523   0.09479  -0.07767   0.00000
 103        7PX         0.00000   0.00000   0.00000   0.00000  -0.05758
 104        7PY         0.29279   0.09705   0.01312  -0.12370   0.00000
 105        7PZ        -0.19920  -0.03878   0.37173   0.05661   0.00000
 106        8D 0       -0.03294   0.01868  -0.02168   0.03629   0.00000
 107        8D+1        0.00000   0.00000   0.00000   0.00000  -0.00425
 108        8D-1        0.05162   0.01090  -0.01532  -0.02268   0.00000
 109        8D+2        0.00653   0.00153  -0.03110   0.01468   0.00000
 110        8D-2        0.00000   0.00000   0.00000   0.00000   0.02482
 111        9D 0       -0.03157  -0.01456   0.02432   0.01309   0.00000
 112        9D+1        0.00000   0.00000   0.00000   0.00000  -0.02251
 113        9D-1        0.03634  -0.01401  -0.03502   0.02945   0.00000
 114        9D+2       -0.00152  -0.00405   0.01090   0.04838   0.00000
 115        9D-2        0.00000   0.00000   0.00000   0.00000   0.04939
 116 4   H  1S          0.38267  -0.26538   0.21800  -0.31540   0.00000
 117        2S          0.23589  -0.27739   0.29520   0.12957   0.00000
 118        3S          1.11703  -0.30818   0.78270  -0.88025   0.00000
 119        4S          0.02015  -0.01114   0.01061   0.00548   0.00000
 120        5PX         0.00000   0.00000   0.00000   0.00000   0.11851
 121        5PY         0.02056  -0.02091   0.05510   0.02878   0.00000
 122        5PZ         0.16143   0.01944  -0.00604  -0.03278   0.00000
 123        6PX         0.00000   0.00000   0.00000   0.00000   0.28133
 124        6PY        -0.03299  -0.05930   0.11240   0.29381   0.00000
 125        6PZ         0.30723   0.00007   0.11078   0.06649   0.00000
 126        7PX         0.00000   0.00000   0.00000   0.00000   0.04939
 127        7PY         0.28976  -0.09857  -0.02168  -0.12670   0.00000
 128        7PZ         0.19270  -0.04115   0.37562  -0.08208   0.00000
 129        8D 0        0.03367   0.01915  -0.02332  -0.03485   0.00000
 130        8D+1        0.00000   0.00000   0.00000   0.00000   0.00555
 131        8D-1        0.05107  -0.01191   0.01615  -0.02573   0.00000
 132        8D+2       -0.00589   0.00205  -0.03273  -0.01124   0.00000
 133        8D-2        0.00000   0.00000   0.00000   0.00000   0.02933
 134        9D 0        0.03090  -0.01496   0.02476  -0.01423   0.00000
 135        9D+1        0.00000   0.00000   0.00000   0.00000   0.02163
 136        9D-1        0.03581   0.01383   0.03853   0.02514   0.00000
 137        9D+2        0.00125  -0.00318   0.00738  -0.04699   0.00000
 138        9D-2        0.00000   0.00000   0.00000   0.00000   0.04099
                          31        32        33        34        35
     Eigenvalues --     0.00105   0.00087   0.00085   0.00080   0.00065
   1 1   O  1S          0.00000   0.00000   0.04781   0.00120   0.26237
   2        2S          0.00000   0.00000  -0.00005  -0.00078   0.21117
   3        3S          0.00000   0.00000  -0.11828  -0.00354  -0.70077
   4        4S          0.00000   0.00000   0.11710  -0.00017  -0.13675
   5        5S          0.00000   0.00000   0.14685   0.00325  -0.63348
   6        6PX         0.72921  -0.00121   0.00000   0.00000   0.00000
   7        6PY         0.00000   0.00000  -0.00612   0.70215   0.00679
   8        6PZ         0.00000   0.00000   0.24400   0.00720  -0.73221
   9        7PX        -0.63381  -0.04865   0.00000   0.00000   0.00000
  10        7PY         0.00000   0.00000   0.01115  -1.10932  -0.01029
  11        7PZ         0.00000   0.00000  -0.22108  -0.00623   1.21625
  12        8PX        -0.17285   0.43757   0.00000   0.00000   0.00000
  13        8PY         0.00000   0.00000   0.01864  -0.44037   0.00932
  14        8PZ         0.00000   0.00000   0.18585   0.00584  -0.62518
  15        9PX         0.10834   0.03714   0.00000   0.00000   0.00000
  16        9PY         0.00000   0.00000  -0.00097   0.17074   0.00303
  17        9PZ         0.00000   0.00000   0.02648   0.00053  -0.13035
  18       10D 0        0.00000   0.00000  -0.04752  -0.00035  -0.10854
  19       10D+1        0.13834  -0.24501   0.00000   0.00000   0.00000
  20       10D-1        0.00000   0.00000  -0.01092   0.21669  -0.00767
  21       10D+2        0.00000   0.00000   0.00756   0.00116   0.15789
  22       10D-2       -0.01581   0.00584   0.00000   0.00000   0.00000
  23       11D 0        0.00000   0.00000  -0.07185  -0.00087  -0.06098
[...]
   6        6PX         0.01428   0.00000   0.00000   0.00000   0.00000
   7        6PY         0.00000  -0.00030   0.00279   0.00392   0.00026
   8        6PZ         0.00000   0.02328   0.00136   0.00015  -0.01664
   9        7PX        -0.06061   0.00000   0.00000   0.00000   0.00000
  10        7PY         0.00000  -0.00072   0.01999   0.04219  -0.00093
  11        7PZ         0.00000  -0.13363  -0.00463  -0.00079   0.03466
  12        8PX         0.42947   0.00000   0.00000   0.00000   0.00000
  13        8PY         0.00000  -0.18575   3.16547   2.35949   0.09773
  14        8PZ         0.00000   3.70840   0.21403   0.05144   0.84020
  15        9PX        -0.69688   0.00000   0.00000   0.00000   0.00000
  16        9PY         0.00000   0.03771  -0.92193   0.08048   0.00434
  17        9PZ         0.00000   5.53189   0.29225   0.04072  -0.36634
  18       10D 0        0.00000  -0.02852  -0.00160  -0.00023   0.00935
  19       10D+1        0.00562   0.00000   0.00000   0.00000   0.00000
  20       10D-1        0.00000  -0.00052   0.01040   0.00788   0.00006
  21       10D+2        0.00000   0.03474   0.00164   0.00035   0.00761
  22       10D-2        0.00036   0.00000   0.00000   0.00000   0.00000
  23       11D 0        0.00000   0.04761   0.00291  -0.00060  -0.05266
  24       11D+1       -0.06186   0.00000   0.00000   0.00000   0.00000
  25       11D-1        0.00000   0.00428  -0.06816  -0.10251  -0.00159
  26       11D+2        0.00000  -0.13138  -0.00627  -0.00134  -0.02793
  27       11D-2       -0.00109   0.00000   0.00000   0.00000   0.00000
  28       12D 0        0.00000  -1.75950  -0.08566  -0.02932  -0.44816
  29       12D+1       -0.08514   0.00000   0.00000   0.00000   0.00000
  30       12D-1        0.00000   0.08749  -1.48478  -1.03970  -0.04225
  31       12D+2        0.00000   0.29072   0.01674   0.00550  -0.02202
  32       12D-2        0.00602   0.00000   0.00000   0.00000   0.00000
  33       13F 0        0.00000  -0.00619   0.00013  -0.00052  -0.00757
  34       13F+1       -0.00701   0.00000   0.00000   0.00000   0.00000
  35       13F-1        0.00000   0.00219  -0.04129  -0.02307  -0.00058
  36       13F+2        0.00000   0.00433   0.00025   0.00014  -0.00367
  37       13F-2        0.00004   0.00000   0.00000   0.00000   0.00000
  38       13F+3        0.01930   0.00000   0.00000   0.00000   0.00000
  39       13F-3        0.00000  -0.00090   0.01295   0.01143   0.00001
  40       14F 0        0.00000   0.13501   0.00422   0.00329   0.07918
  41       14F+1        0.07972   0.00000   0.00000   0.00000   0.00000
  42       14F-1        0.00000  -0.00967   0.16161   0.12246   0.00356
  43       14F+2        0.00000  -0.01541  -0.00067  -0.00060   0.00332
  44       14F-2       -0.00092   0.00000   0.00000   0.00000   0.00000
  45       14F+3       -0.03008   0.00000   0.00000   0.00000   0.00000
  46       14F-3        0.00000   0.00204  -0.02960  -0.01335  -0.00024
  47 2   C  1S          0.00000   0.07635   0.00283  -0.00245   0.20667
  48        2S          0.00000   0.42390   0.01466  -0.01463   1.24699
  49        3S          0.00000  -0.07507  -0.00415  -0.00126   0.00051
  50        4S          0.00000   5.77890   0.34801   0.00267  25.51613
  51        5S          0.00000   8.15517   0.28967   0.05756  10.46025
  52        6PX         0.00515   0.00000   0.00000   0.00000   0.00000
  53        6PY         0.00000  -0.00230   0.02913  -0.00628   0.00087
  54        6PZ         0.00000   0.00328  -0.00089  -0.00005   0.03679
  55        7PX         0.00671   0.00000   0.00000   0.00000   0.00000
  56        7PY         0.00000   0.10929  -1.86785   1.45239  -0.09858
  57        7PZ         0.00000   0.71498   0.03392   0.03229  -1.08824
  58        8PX         3.89389   0.00000   0.00000   0.00000   0.00000
  59        8PY         0.00000   0.77379 -16.74117   8.56221  -0.64459
  60        8PZ         0.00000  -2.66923   0.01798  -0.07098  -9.51533
  61        9PX         2.27547   0.00000   0.00000   0.00000   0.00000
  62        9PY         0.00000  -0.13754   1.64186   5.35245  -0.03042
  63        9PZ         0.00000  -2.28382  -0.07233  -0.04036  -2.06627
  64       10D 0        0.00000  -0.05607  -0.00410  -0.00026   0.02146
  65       10D+1        0.01527   0.00000   0.00000   0.00000   0.00000
  66       10D-1        0.00000  -0.00188   0.01679  -0.02181   0.00311
  67       10D+2        0.00000   0.02284   0.00197   0.00058  -0.05450
  68       10D-2        0.00085   0.00000   0.00000   0.00000   0.00000
  69       11D 0        0.00000   0.72486   0.06064   0.01311   0.15538
  70       11D+1       -0.36375   0.00000   0.00000   0.00000   0.00000
  71       11D-1        0.00000  -0.07181   1.45037  -1.26824   0.05620
  72       11D+2        0.00000  -0.26603  -0.00600   0.01399  -0.93232
  73       11D-2       -0.00476   0.00000   0.00000   0.00000   0.00000
  74       12D 0        0.00000   1.37740  -0.00123  -0.04818   1.83099
  75       12D+1       -1.37138   0.00000   0.00000   0.00000   0.00000
  76       12D-1        0.00000  -0.09625   2.53230  -2.38910   0.05543
  77       12D+2        0.00000   0.26892  -0.00973  -0.02913  -0.23472
  78       12D-2       -0.03030   0.00000   0.00000   0.00000   0.00000
  79       13F 0        0.00000   0.01754   0.00066   0.00044   0.02560
  80       13F+1       -0.03800   0.00000   0.00000   0.00000   0.00000
  81       13F-1        0.00000  -0.00261   0.04973   0.01903   0.00057
  82       13F+2        0.00000   0.00884   0.00057  -0.00073   0.04635
  83       13F-2       -0.00088   0.00000   0.00000   0.00000   0.00000
  84       13F+3        0.10457   0.00000   0.00000   0.00000   0.00000
  85       13F-3        0.00000  -0.00483   0.07575  -0.01684   0.00177
  86       14F 0        0.00000  -0.06384   0.00162  -0.01104   0.17672
  87       14F+1        0.04508   0.00000   0.00000   0.00000   0.00000
  88       14F-1        0.00000   0.11356  -1.98952  -1.13417  -0.05097
  89       14F+2        0.00000   0.41644   0.01513  -0.00276   0.45155
  90       14F-2       -0.00120   0.00000   0.00000   0.00000   0.00000
  91       14F+3       -0.31714   0.00000   0.00000   0.00000   0.00000
  92       14F-3        0.00000   0.01534  -0.22546  -0.33411   0.00108
  93 3   H  1S          0.00000   0.02197  -0.06839  -0.00934   0.04633
  94        2S          0.00000  -1.57497   3.04809  -1.67525  -2.76375
  95        3S          0.00000   0.37124  26.52904 -14.53478 -13.80293
  96        4S          0.00000  -1.02585  -1.77653  -4.70819  -1.63052
  97        5PX        -0.08376   0.00000   0.00000   0.00000   0.00000
  98        5PY         0.00000   0.01428   0.11758  -0.07357  -0.09179
  99        5PZ         0.00000  -0.02194   0.03179   0.10434   0.03183
 100        6PX        -0.01101   0.00000   0.00000   0.00000   0.00000
 101        6PY         0.00000   0.25504  -2.16931   0.75114   1.45089
 102        6PZ         0.00000   0.33896  -0.43395  -1.44533  -0.61309
 103        7PX        -2.97692   0.00000   0.00000   0.00000   0.00000
 104        7PY         0.00000   0.37137  -9.43373   1.93831   4.50367
 105        7PZ         0.00000   4.07459   1.70575  -2.97002   0.13626
 106        8D 0        0.00000  -0.06085   0.05078   0.02699  -0.02395
 107        8D+1        0.02545   0.00000   0.00000   0.00000   0.00000
 108        8D-1        0.00000   0.05545  -0.10871   0.00915   0.06271
 109        8D+2        0.00000   0.03760   0.05252   0.04377   0.04519
 110        8D-2       -0.06319   0.00000   0.00000   0.00000   0.00000
 111        9D 0        0.00000   0.66421  -1.18146  -0.48201   0.39838
 112        9D+1       -0.22924   0.00000   0.00000   0.00000   0.00000
 113        9D-1        0.00000  -0.83791   0.26355   0.75794   0.14515
 114        9D+2        0.00000  -0.09087  -1.20265  -0.12455   0.40618
 115        9D-2        0.48643   0.00000   0.00000   0.00000   0.00000
 116 4   H  1S          0.00000   0.01238   0.06856   0.00809   0.05134
 117        2S          0.00000  -1.24387  -3.24309   1.75635  -3.07812
 118        3S          0.00000   2.75183 -26.23207  14.45575 -15.83203
 119        4S          0.00000  -1.32681   1.69831   4.68372  -1.70747
 120        5PX        -0.08225   0.00000   0.00000   0.00000   0.00000
 121        5PY         0.00000  -0.02589   0.10921  -0.07068   0.09512
 122        5PZ         0.00000  -0.01791  -0.03740  -0.10477   0.03015
 123        6PX        -0.01820   0.00000   0.00000   0.00000   0.00000
 124        6PY         0.00000  -0.01542  -2.14941   0.75352  -1.59378
 125        6PZ         0.00000   0.28924   0.48211   1.48614  -0.63465
 126        7PX        -3.06897   0.00000   0.00000   0.00000   0.00000
 127        7PY         0.00000   0.52265  -9.23569   1.89277  -5.09444
 128        7PZ         0.00000   4.22239  -1.43027   2.99228  -0.08524
 129        8D 0        0.00000  -0.05544  -0.05579  -0.02899  -0.02487
 130        8D+1        0.02805   0.00000   0.00000   0.00000   0.00000
 131        8D-1        0.00000  -0.04042  -0.11161   0.01216  -0.07120
 132        8D+2        0.00000   0.04011  -0.04892  -0.04522   0.04679
 133        8D-2        0.06505   0.00000   0.00000   0.00000   0.00000
 134        9D 0        0.00000   0.53616   1.22493   0.50630   0.43837
 135        9D+1       -0.24264   0.00000   0.00000   0.00000   0.00000
 136        9D-1        0.00000   0.80113   0.33878   0.76208  -0.14584
 137        9D+2        0.00000  -0.21305   1.15245   0.13337   0.45894
 138        9D-2       -0.49426   0.00000   0.00000   0.00000   0.00000
                         136       137       138
     Eigenvalues --     0.00000   0.00000   0.00000
   1 1   O  1S         -0.06053   0.00046   0.00940
   2        2S         -0.29244   0.00236   0.05132
   3        3S          0.03821  -0.00018   0.00108
   4        4S          4.43146  -0.03874  -1.08849
   5        5S         13.16186  -0.16002  -6.80496
   6        6PX         0.00000   0.00000   0.00000
   7        6PY        -0.00012  -0.00508  -0.00001
   8        6PZ        -0.00472   0.00007   0.00546
   9        7PX         0.00000   0.00000   0.00000
  10        7PY         0.00030   0.01349  -0.00007
  11        7PZ        -0.07845  -0.00029  -0.03094
  12        8PX         0.00000   0.00000   0.00000
  13        8PY        -0.01656  -1.47082  -0.00373
  14        8PZ        -1.38177   0.01896   0.89287
  15        9PX         0.00000   0.00000   0.00000
  16        9PY         0.00899  -1.55061   0.01046
  17        9PZ        -1.07193   0.02167   1.43170
  18       10D 0       -0.01624   0.00017   0.00147
  19       10D+1        0.00000   0.00000   0.00000
  20       10D-1        0.00001   0.00227  -0.00003
  21       10D+2        0.00386   0.00002  -0.00163
  22       10D-2        0.00000   0.00000   0.00000
  23       11D 0        0.10841  -0.00075  -0.00570
  24       11D+1        0.00000   0.00000   0.00000
  25       11D-1        0.00026   0.01587   0.00028
  26       11D+2       -0.01316  -0.00016   0.00408
  27       11D-2        0.00000   0.00000   0.00000
  28       12D 0       -0.09315  -0.00270  -0.20014
  29       12D+1        0.00000   0.00000   0.00000
  30       12D-1        0.00526   0.58187   0.00128
  31       12D+2        0.32208  -0.00146  -0.04067
  32       12D-2        0.00000   0.00000   0.00000
  33       13F 0       -0.00821  -0.00011  -0.00392
  34       13F+1        0.00000   0.00000   0.00000
  35       13F-1        0.00007   0.00493   0.00006
  36       13F+2        0.01304  -0.00010  -0.00223
  37       13F-2        0.00000   0.00000   0.00000
  38       13F+3        0.00000   0.00000   0.00000
  39       13F-3       -0.00008   0.00501  -0.00002
  40       14F 0        0.01672   0.00067   0.01719
  41       14F+1        0.00000   0.00000   0.00000
  42       14F-1       -0.00014  -0.02926  -0.00023
  43       14F+2       -0.06191   0.00040   0.01085
  44       14F-2        0.00000   0.00000   0.00000
  45       14F+3        0.00000   0.00000   0.00000
  46       14F-3        0.00012  -0.01449  -0.00001
  47 2   C  1S         -0.03756   0.00051   0.00565
  48        2S         -0.21334   0.00381   0.03840
  49        3S          0.11771   0.00028   0.02758
  50        4S         -5.30688   0.14988  10.06490
  51        5S         -4.22254   0.22898  13.51237
  52        6PX         0.00000   0.00000   0.00000
  53        6PY         0.00002   0.01366   0.00005
  54        6PZ        -0.02380   0.00000   0.00237
  55        7PX         0.00000   0.00000   0.00000
  56        7PY         0.00798  -0.02030  -0.00450
  57        7PZ         0.24781  -0.00343   0.00464
  58        8PX         0.00000   0.00000   0.00000
  59        8PY         0.03354   7.55831  -0.04874
  60        8PZ        -1.46075  -0.01436  -0.04390
  61        9PX         0.00000   0.00000   0.00000
  62        9PY        -0.03882   5.57065  -0.07891
  63        9PZ        -2.33469   0.00262  -0.22421
  64       10D 0        0.01396   0.00000  -0.00399
  65       10D+1        0.00000   0.00000   0.00000
  66       10D-1       -0.00057   0.01442   0.00008
  67       10D+2       -0.00562  -0.00039  -0.00784
  68       10D-2        0.00000   0.00000   0.00000
  69       11D 0       -0.78946   0.00249   0.13186
  70       11D+1        0.00000   0.00000   0.00000
  71       11D-1       -0.00441   0.18857   0.00406
  72       11D+2        0.21171  -0.00585  -0.05149
  73       11D-2        0.00000   0.00000   0.00000
  74       12D 0       -6.09117   0.04357   0.72436
  75       12D+1        0.00000   0.00000   0.00000
  76       12D-1        0.00449   0.73138   0.00624
  77       12D+2       -2.83481  -0.00476  -0.29497
  78       12D-2        0.00000   0.00000   0.00000
  79       13F 0       -0.03711  -0.00023  -0.00915
  80       13F+1        0.00000   0.00000   0.00000
  81       13F-1       -0.00032  -0.01956  -0.00007
  82       13F+2       -0.01676  -0.00002  -0.00128
  83       13F-2        0.00000   0.00000   0.00000
  84       13F+3        0.00000   0.00000   0.00000
  85       13F-3       -0.00029   0.01770   0.00005
  86       14F 0       -0.17994   0.00475   0.06829
  87       14F+1        0.00000   0.00000   0.00000
  88       14F-1        0.00869   0.52781   0.00143
  89       14F+2       -0.34708   0.00464   0.05534
  90       14F-2        0.00000   0.00000   0.00000
  91       14F+3        0.00000   0.00000   0.00000
  92       14F-3        0.00060   0.03320   0.00077
  93 3   H  1S         -0.01614  -0.00844  -0.00283
  94        2S          1.02753   0.08430  -0.19557
  95        3S         -3.68716 -11.52644  -5.19364
  96        4S         -0.27948  -8.46895  -2.94032
  97        5PX         0.00000   0.00000   0.00000
  98        5PY         0.00293  -0.03084  -0.01279
  99        5PZ         0.04059  -0.00148   0.00567
 100        6PX         0.00000   0.00000   0.00000
 101        6PY        -0.42715   0.26717   0.19065
 102        6PZ        -0.17797   0.17882  -0.08680
 103        7PX         0.00000   0.00000   0.00000
 104        7PY        -2.09979   3.67944   1.52909
 105        7PZ        -3.88540  -2.53376  -0.60751
 106        8D 0        0.01088   0.00713   0.00194
 107        8D+1        0.00000   0.00000   0.00000
 108        8D-1       -0.04685  -0.02451  -0.00795
 109        8D+2        0.01142  -0.04142  -0.00382
 110        8D-2        0.00000   0.00000   0.00000
 111        9D 0       -0.30334   0.07438   0.04339
 112        9D+1        0.00000   0.00000   0.00000
 113        9D-1        0.28411   0.08609   0.11099
 114        9D+2       -0.28546   0.34497   0.11179
 115        9D-2        0.00000   0.00000   0.00000
 116 4   H  1S         -0.01607   0.00830  -0.00261
 117        2S          1.06085  -0.11445  -0.21264
 118        3S         -3.44751  11.39586  -5.43985
 119        4S         -0.32988   8.38398  -3.22320
 120        5PX         0.00000   0.00000   0.00000
 121        5PY        -0.00208  -0.02998   0.01280
 122        5PZ         0.04147   0.00156   0.00580
 123        6PX         0.00000   0.00000   0.00000
 124        6PY         0.43986   0.25121  -0.19633
 125        6PZ        -0.18379  -0.18713  -0.09307
 126        7PX         0.00000   0.00000   0.00000
 127        7PY         2.27499   3.58712  -1.58098
 128        7PZ        -3.90901   2.57972  -0.65112
 129        8D 0        0.01126  -0.00751   0.00209
 130        8D+1        0.00000   0.00000   0.00000
 131        8D-1        0.04685  -0.02471   0.00768
 132        8D+2        0.01250   0.04107  -0.00375
 133        8D-2        0.00000   0.00000   0.00000
 134        9D 0       -0.31352  -0.06636   0.04186
 135        9D+1        0.00000   0.00000   0.00000
 136        9D-1       -0.28293   0.08571  -0.11448
 137        9D+2       -0.30093  -0.33586   0.11326
 138        9D-2        0.00000   0.00000   0.00000
          Condensed to atoms (all electrons):
              1          2          3          4
     1  O    8.196980   0.349117  -0.062821  -0.064120
     2  C    0.349117   5.729882   0.209182   0.202733
     3  H   -0.062821   0.209182   0.435122  -0.031103
     4  H   -0.064120   0.202733  -0.031103   0.432040
 Mulliken atomic charges:
              1
     1  O   -0.419156
     2  C   -0.490914
     3  H    0.449620
     4  H    0.460450
 Sum of Mulliken atomic charges =   0.00000
 Mulliken charges with hydrogens summed into heavy atoms:
              1
     1  O   -0.419156
     2  C    0.419156
 Sum of Mulliken charges with hydrogens summed into heavy atoms =   0.00000
 Electronic spatial extent (au):  <R**2>=             60.5499
 Charge=              0.0000 electrons
 Dipole moment (field-independent basis, Debye):
    X=              0.0000    Y=             -0.0074    Z=             -2.4485  Tot=              2.4485
 Quadrupole moment (field-independent basis, Debye-Ang):
   XX=            -11.7276   YY=            -11.6282   ZZ=            -12.2539
   XY=              0.0000   XZ=              0.0000   YZ=              0.0127
 Traceless Quadrupole moment (field-independent basis, Debye-Ang):
   XX=              0.1423   YY=              0.2417   ZZ=             -0.3840
   XY=              0.0000   XZ=              0.0000   YZ=              0.0127
 Octapole moment (field-independent basis, Debye-Ang**2):
  XXX=              0.0000  YYY=             -0.0388  ZZZ=              0.2647  XYY=              0.0000
  XXY=             -0.0196  XXZ=              0.5691  XZZ=              0.0000  YZZ=             -0.0307
  YYZ=             -0.6983  XYZ=              0.0000
 Hexadecapole moment (field-independent basis, Debye-Ang**3):
 XXXX=            -10.5036 YYYY=            -18.1638 ZZZZ=            -46.1403 XXXY=              0.0000
 XXXZ=              0.0000 YYYX=              0.0000 YYYZ=              0.0526 ZZZX=              0.0000
 ZZZY=              0.0822 XXYY=             -5.1302 XXZZ=             -9.3762 YYZZ=            -10.4392
 XXYZ=              0.0244 YYXZ=              0.0000 ZZXY=              0.0000
 N-N= 3.133374387023D+01 E-N=-3.314276227400D+02  KE= 1.142432797518D+02
 1\1\GINC-TRAPISTA\SP\RQCISD-FC\Aug-CC-pVTZ\C1H2O1\BRUNS\20-Nov-2021\0\
 \# qcisd/aug-cc-pvtz nosymm density=current output=wfn\\h2co-wavefunct
 ion\\0,1\O,0,0.,0.,0.679252\C,0,0.,0.,-0.526911\H,0,0.,0.936614,-1.106
 62\H,0,0.,-0.926614,-1.10662\\Version=EM64L-G09RevB.01\HF=-113.9138972
 \MP2=-114.316307\MP3=-114.3203445\MP4D=-114.3305435\MP4DQ=-114.3216813
 \MP4SDQ=-114.3269314\QCISD=-114.3269369\RMSD=2.896e-09\Dipole=0.,-0.00
 29265,-0.9633175\Quadrupole=0.1058139,0.1797116,-0.2855254,0.,0.,0.009
 4476\PG=CS [SG(C1H2O1)]\\@

 Writing a WFN file to GAUSSIAN.wfn.


 IT TAKES GREATER CHARACTER TO CARRY OFF GOOD FORTUNE THAN BAD.
                     FRENCH PROVERB.
 Job cpu time:  0 days  0 hours 23 minutes 10.0 seconds.
 File lengths (MBytes):  RWF=   5787 Int=      0 D2E=      0 Chk=      2 Scr=      1
 Normal termination of Gaussian 09 at Sat Nov 20 18:48:47 2021.
