 h2co-wavefunction
GAUSSIAN            138 MOL ORBITALS    198 PRIMITIVES        4 NUCLEI
  O    1    (CENTRE  1)   0.00000000  0.00000000  1.28360026  CHARGE =  8.0
  C    2    (CENTRE  2)   0.00000000  0.00000000 -0.99571749  CHARGE =  6.0
  H    3    (CENTRE  3)  -0.01889726  1.76994395 -2.09120873  CHARGE =  1.0
  H    4    (CENTRE  4)   0.00000000 -1.76994395 -2.09120873  CHARGE =  1.0
CENTRE ASSIGNMENTS    1  1  1  1  1  1  1  1  1  1  1  1  1  1  1  1  1  1  1  1
CENTRE ASSIGNMENTS    1  1  1  1  1  1  1  1  1  1  1  1  1  1  1  1  1  1  1  1
CENTRE ASSIGNMENTS    1  1  1  1  1  1  1  1  1  1  1  1  1  1  1  1  1  1  1  1
CENTRE ASSIGNMENTS    1  1  1  1  1  1  1  1  1  1  1  1  2  2  2  2  2  2  2  2
CENTRE ASSIGNMENTS    2  2  2  2  2  2  2  2  2  2  2  2  2  2  2  2  2  2  2  2
CENTRE ASSIGNMENTS    2  2  2  2  2  2  2  2  2  2  2  2  2  2  2  2  2  2  2  2
CENTRE ASSIGNMENTS    2  2  2  2  2  2  2  2  2  2  2  2  2  2  2  2  2  2  2  2
CENTRE ASSIGNMENTS    2  2  2  2  3  3  3  3  3  3  3  3  3  3  3  3  3  3  3  3
CENTRE ASSIGNMENTS    3  3  3  3  3  3  3  3  3  3  3  4  4  4  4  4  4  4  4  4
CENTRE ASSIGNMENTS    4  4  4  4  4  4  4  4  4  4  4  4  4  4  4  4  4  4
TYPE ASSIGNMENTS      1  1  1  1  1  1  1  1  1  1  1  1  1  1  1  1  2  2  2  3
TYPE ASSIGNMENTS      3  3  4  4  4  2  3  4  2  3  4  2  3  4  5  6  7  8  9 10
TYPE ASSIGNMENTS      5  6  7  8  9 10  5  6  7  8  9 10 11 12 13 17 14 15 18 19
TYPE ASSIGNMENTS     16 20 11 12 13 17 14 15 18 19 16 20  1  1  1  1  1  1  1  1
TYPE ASSIGNMENTS      1  1  1  1  1  1  1  1  2  2  2  3  3  3  4  4  4  2  3  4
TYPE ASSIGNMENTS      2  3  4  2  3  4  5  6  7  8  9 10  5  6  7  8  9 10  5  6
TYPE ASSIGNMENTS      7  8  9 10 11 12 13 17 14 15 18 19 16 20 11 12 13 17 14 15
TYPE ASSIGNMENTS     18 19 16 20  1  1  1  1  1  1  2  3  4  2  3  4  2  3  4  5
TYPE ASSIGNMENTS      6  7  8  9 10  5  6  7  8  9 10  1  1  1  1  1  1  2  3  4
TYPE ASSIGNMENTS      2  3  4  2  3  4  5  6  7  8  9 10  5  6  7  8  9 10
EXPONENTS  0.1533000D+05 0.2299000D+04 0.5224000D+03 0.1473000D+03 0.4755000D+02
EXPONENTS  0.1676000D+02 0.6207000D+01 0.5224000D+03 0.1473000D+03 0.4755000D+02
EXPONENTS  0.1676000D+02 0.6207000D+01 0.6882000D+00 0.1752000D+01 0.2384000D+00
EXPONENTS  0.7376000D-01 0.3446000D+02 0.7749000D+01 0.2280000D+01 0.3446000D+02
EXPONENTS  0.7749000D+01 0.2280000D+01 0.3446000D+02 0.7749000D+01 0.2280000D+01
EXPONENTS  0.7156000D+00 0.7156000D+00 0.7156000D+00 0.2140000D+00 0.2140000D+00
EXPONENTS  0.2140000D+00 0.5974000D-01 0.5974000D-01 0.5974000D-01 0.2314000D+01
EXPONENTS  0.2314000D+01 0.2314000D+01 0.2314000D+01 0.2314000D+01 0.2314000D+01
EXPONENTS  0.6450000D+00 0.6450000D+00 0.6450000D+00 0.6450000D+00 0.6450000D+00
EXPONENTS  0.6450000D+00 0.2140000D+00 0.2140000D+00 0.2140000D+00 0.2140000D+00
EXPONENTS  0.2140000D+00 0.2140000D+00 0.1428000D+01 0.1428000D+01 0.1428000D+01
EXPONENTS  0.1428000D+01 0.1428000D+01 0.1428000D+01 0.1428000D+01 0.1428000D+01
EXPONENTS  0.1428000D+01 0.1428000D+01 0.5000000D+00 0.5000000D+00 0.5000000D+00
EXPONENTS  0.5000000D+00 0.5000000D+00 0.5000000D+00 0.5000000D+00 0.5000000D+00
EXPONENTS  0.5000000D+00 0.5000000D+00 0.8236000D+04 0.1235000D+04 0.2808000D+03
EXPONENTS  0.7927000D+02 0.2559000D+02 0.8997000D+01 0.3319000D+01 0.2808000D+03
EXPONENTS  0.7927000D+02 0.2559000D+02 0.8997000D+01 0.3319000D+01 0.3643000D+00
EXPONENTS  0.9059000D+00 0.1285000D+00 0.4402000D-01 0.1871000D+02 0.4133000D+01
EXPONENTS  0.1200000D+01 0.1871000D+02 0.4133000D+01 0.1200000D+01 0.1871000D+02
EXPONENTS  0.4133000D+01 0.1200000D+01 0.3827000D+00 0.3827000D+00 0.3827000D+00
EXPONENTS  0.1209000D+00 0.1209000D+00 0.1209000D+00 0.3569000D-01 0.3569000D-01
EXPONENTS  0.3569000D-01 0.1097000D+01 0.1097000D+01 0.1097000D+01 0.1097000D+01
EXPONENTS  0.1097000D+01 0.1097000D+01 0.3180000D+00 0.3180000D+00 0.3180000D+00
EXPONENTS  0.3180000D+00 0.3180000D+00 0.3180000D+00 0.1000000D+00 0.1000000D+00
EXPONENTS  0.1000000D+00 0.1000000D+00 0.1000000D+00 0.1000000D+00 0.7610000D+00
EXPONENTS  0.7610000D+00 0.7610000D+00 0.7610000D+00 0.7610000D+00 0.7610000D+00
EXPONENTS  0.7610000D+00 0.7610000D+00 0.7610000D+00 0.7610000D+00 0.2680000D+00
EXPONENTS  0.2680000D+00 0.2680000D+00 0.2680000D+00 0.2680000D+00 0.2680000D+00
EXPONENTS  0.2680000D+00 0.2680000D+00 0.2680000D+00 0.2680000D+00 0.3387000D+02
EXPONENTS  0.5095000D+01 0.1159000D+01 0.3258000D+00 0.1027000D+00 0.2526000D-01
EXPONENTS  0.1407000D+01 0.1407000D+01 0.1407000D+01 0.3880000D+00 0.3880000D+00
EXPONENTS  0.3880000D+00 0.1020000D+00 0.1020000D+00 0.1020000D+00 0.1057000D+01
EXPONENTS  0.1057000D+01 0.1057000D+01 0.1057000D+01 0.1057000D+01 0.1057000D+01
EXPONENTS  0.2470000D+00 0.2470000D+00 0.2470000D+00 0.2470000D+00 0.2470000D+00
EXPONENTS  0.2470000D+00 0.3387000D+02 0.5095000D+01 0.1159000D+01 0.3258000D+00
EXPONENTS  0.1027000D+00 0.2526000D-01 0.1407000D+01 0.1407000D+01 0.1407000D+01
EXPONENTS  0.3880000D+00 0.3880000D+00 0.3880000D+00 0.1020000D+00 0.1020000D+00
EXPONENTS  0.1020000D+00 0.1057000D+01 0.1057000D+01 0.1057000D+01 0.1057000D+01
EXPONENTS  0.1057000D+01 0.1057000D+01 0.2470000D+00 0.2470000D+00 0.2470000D+00
EXPONENTS  0.2470000D+00 0.2470000D+00 0.2470000D+00
MO    1     MO 0.0        OCC NO =    2.0000076  ORB. ENERGY =    0.000000
 -0.26737128D+00 -0.49833611D+00 -0.84499890D+00 -0.12788160D+01 -0.15952221D+01
 -0.13689379D+01 -0.52423050D+00 -0.36273825D-04 -0.38919434D-03 -0.14346436D-02
 -0.41948137D-02 -0.50549545D-02  0.60892284D-02 -0.23745051D-01  0.68488068D-03
  0.15382189D-04 -0.11628315D-04 -0.11275554D-04 -0.76064222D-05 -0.79463589D-07
 -0.77052951D-07 -0.51979466D-07  0.14654251D-01  0.14209694D-01  0.95857753D-02
  0.48796774D-06 -0.12230899D-07  0.18801695D-02  0.23455543D-05 -0.83371049D-08
  0.63459436D-03  0.86562670D-07 -0.30731320D-09  0.80124144D-05  0.92701859D-03
  0.11195533D-03 -0.10389739D-02  0.87023467D-05  0.34434840D-05  0.31492764D-08
  0.23037997D-03  0.11955875D-03 -0.34993872D-03  0.11832387D-05 -0.39568409D-05
 -0.39810193D-07  0.63072041D-04  0.10875280D-04 -0.73947321D-04  0.55735348D-06
 -0.95279837D-06  0.32755456D-09  0.20953683D-06 -0.10029681D-08 -0.10818778D-03
  0.12424165D-05  0.12103820D-08  0.45197003D-03 -0.18710270D-05  0.17985222D-08
 -0.12740669D-03  0.61858009D-05 -0.30605452D-06 -0.22657586D-08  0.10473958D-03
 -0.32873526D-06 -0.93611148D-08 -0.17047685D-03  0.12468988D-05  0.16158390D-07
 -0.14374190D-03 -0.28556074D-06  0.27691935D+00  0.51623345D+00  0.87250486D+00
  0.13115375D+01  0.16109890D+01  0.13596178D+01  0.51125181D+00  0.32323238D-04
  0.24159618D-03  0.90290008D-03  0.25189506D-02  0.33746994D-02 -0.39848907D-02
  0.22749307D-01  0.53778772D-03  0.12371565D-03  0.19104544D-04  0.17911724D-04
  0.12754215D-04  0.36180280D-06  0.33921312D-06  0.24153995D-06  0.20481223D-02
  0.19202449D-02  0.13673288D-02 -0.68393970D-05 -0.19144809D-06  0.25320280D-03
 -0.13396729D-05 -0.14222724D-07 -0.10224339D-03 -0.42175555D-07 -0.18842281D-09
 -0.34831571D-05 -0.12228775D-02  0.23796605D-03  0.98491143D-03 -0.15595743D-04
  0.77654288D-05  0.21467504D-06  0.14491737D-03  0.20256037D-04 -0.16517341D-03
  0.13317570D-05 -0.17797511D-05  0.39855669D-07 -0.58752368D-05  0.19126609D-04
 -0.13251372D-04 -0.26697404D-06 -0.26311618D-06 -0.13909784D-08  0.33375721D-05
 -0.35038547D-07  0.55126569D-03 -0.76437364D-05  0.18246431D-06 -0.50466826D-04
 -0.23689800D-05 -0.77348665D-07 -0.16033302D-02  0.16578109D-04  0.24901618D-06
 -0.45851888D-08 -0.11434218D-03  0.25922138D-06  0.48187449D-08  0.43760487D-04
 -0.10062699D-05  0.89368214D-08  0.29926604D-03 -0.27281822D-05 -0.27397909D-03
 -0.49413256D-03 -0.72859818D-03 -0.22084682D-03 -0.45261182D-03 -0.11970687D-04
 -0.96593067D-05  0.77431995D-03 -0.52410656D-03  0.14051257D-05  0.21964403D-03
 -0.81674530D-04 -0.74614433D-06  0.41301179D-04 -0.56724572D-04  0.22052410D-03
 -0.35212725D-03  0.13160315D-03  0.10716287D-04 -0.75736919D-05  0.87895218D-03
  0.46999563D-04 -0.12866093D-04 -0.34133471D-04  0.55475747D-06  0.12233553D-06
 -0.26372383D-04 -0.27403489D-03 -0.49423321D-03 -0.72874658D-03 -0.22112602D-03
 -0.45269487D-03 -0.11973217D-04 -0.13922490D-05 -0.77447947D-03 -0.52420118D-03
  0.37506656D-05 -0.21979250D-03 -0.81815428D-04 -0.30522670D-06 -0.41320530D-04
 -0.56738921D-04  0.22056065D-03 -0.35214479D-03  0.13158415D-03  0.15128524D-05
  0.18107032D-05 -0.87903747D-03  0.47012620D-04 -0.12874879D-04 -0.34137741D-04
  0.72372589D-06 -0.15932536D-06  0.26349114D-04
MO    2     MO 0.0        OCC NO =    2.0000041  ORB. ENERGY =    0.000000
  0.42242419D+00  0.78732924D+00  0.13350274D+01  0.20204220D+01  0.25203171D+01
  0.21628071D+01  0.82824021D+00  0.49614265D-04  0.53232850D-03  0.19622631D-02
  0.57375421D-02  0.69140173D-02 -0.83286665D-02  0.38592390D-01 -0.65416869D-03
 -0.80075759D-04 -0.55074841D-05 -0.53404070D-05 -0.36026070D-05 -0.14080913D-06
 -0.13653749D-06 -0.92107386D-07 -0.10979097D-01 -0.10646031D-01 -0.71817498D-02
 -0.14690730D-05 -0.31398551D-07  0.14480419D-02  0.31163214D-05  0.71287767D-09
  0.10563833D-03  0.11297566D-06  0.71095079D-09  0.19496123D-05 -0.99450737D-03
 -0.60229311D-04  0.10547367D-02 -0.99751224D-05  0.68757144D-05  0.33779917D-07
  0.34853358D-03  0.53679618D-03 -0.88532975D-03 -0.20100812D-05 -0.21427250D-05
 -0.19591110D-07  0.34119819D-04 -0.62100328D-06 -0.33498816D-04  0.37095628D-06
 -0.12228524D-05 -0.33576788D-08 -0.71701578D-07  0.13929031D-07  0.11039279D-03
  0.28906457D-05 -0.25671908D-07 -0.23993200D-03 -0.26755409D-05 -0.16115185D-07
 -0.91246355D-04 -0.15875083D-05 -0.16799302D-07 -0.49898135D-08  0.12863695D-03
 -0.86007272D-06  0.48446963D-08 -0.16764447D-03  0.91047062D-06  0.10124744D-07
 -0.21826639D-03  0.54042715D-06  0.17516843D+00  0.32654925D+00  0.55191271D+00
  0.82962775D+00  0.10190491D+01  0.86004148D+00  0.32339806D+00  0.17391800D-04
  0.12999293D-03  0.48581325D-03  0.13553433D-02  0.18157864D-02 -0.21441052D-02
  0.14455143D-01  0.50691114D-03  0.93228776D-04  0.10993100D-04  0.10306730D-04
  0.73390055D-05  0.21561883D-06  0.20215636D-06  0.14394737D-06  0.11518667D-02
  0.10799482D-02  0.76898747D-03 -0.12558731D-05 -0.59743984D-07  0.16066310D-02
 -0.11338717D-05  0.19568927D-09 -0.11212302D-04 -0.34599994D-07 -0.46343636D-09
  0.51701876D-06 -0.10272222D-02 -0.30902515D-03  0.13362473D-02 -0.76673105D-05
  0.36646684D-05  0.10111938D-06  0.16431007D-04 -0.25916313D-03  0.24273212D-03
  0.29427462D-05 -0.31536402D-05 -0.81850209D-08 -0.18657246D-05  0.42012629D-04
 -0.40146904D-04 -0.46850942D-06 -0.40681717D-06 -0.39957759D-08  0.11452873D-05
 -0.19519445D-07  0.34839869D-03 -0.34176540D-05  0.83943535D-07 -0.22804796D-03
 -0.18208052D-07 -0.25385201D-07 -0.81714810D-03  0.62889978D-05 -0.10111068D-07
  0.31294780D-08 -0.89098631D-05  0.12900876D-05 -0.13600768D-07 -0.38656192D-04
 -0.12597544D-05  0.42123336D-08  0.65385781D-04 -0.11109004D-05 -0.14693712D-03
 -0.26500716D-03 -0.39075290D-03  0.11449372D-03 -0.34909222D-03 -0.74569377D-05
 -0.38526900D-05  0.34594641D-03 -0.21883293D-03  0.14662529D-05 -0.74376397D-04
  0.13097987D-03 -0.43921874D-06 -0.99687675D-05 -0.83293847D-04  0.12338390D-03
 -0.13457257D-03  0.11188679D-04  0.55689504D-05 -0.36428278D-05  0.41387918D-03
  0.22915146D-05  0.25999778D-05 -0.48914923D-05 -0.66825003D-06 -0.53357566D-06
 -0.58172177D-05 -0.14696709D-03 -0.26506120D-03 -0.39083259D-03  0.11440332D-03
 -0.34909792D-03 -0.74593810D-05 -0.15933929D-06 -0.34602259D-03 -0.21887573D-03
  0.67246129D-06  0.74320999D-04  0.13090796D-03 -0.54568648D-06  0.99671094D-05
 -0.83305050D-04  0.12341390D-03 -0.13458757D-03  0.11173666D-04 -0.60099618D-07
  0.77596937D-06 -0.41393042D-03  0.22911152D-05  0.26035132D-05 -0.48946284D-05
  0.66167050D-06 -0.59573183D-06  0.57929852D-05
MO    3     MO 0.0        OCC NO =    1.9805522  ORB. ENERGY =    0.000000
 -0.96678081D-01 -0.18019205D+00 -0.30554094D+00 -0.46240372D+00 -0.57681219D+00
 -0.49499068D+00 -0.18955513D+00 -0.16853232D-02 -0.18082412D-01 -0.66655174D-01
 -0.19489582D+00 -0.23485894D+00  0.28291248D+00  0.14940128D+00  0.75511288D-01
  0.44172020D-02 -0.28117108D-03 -0.27264137D-03 -0.18392226D-03 -0.20191357D-05
 -0.19578824D-05 -0.13207759D-05 -0.19671176D-02 -0.19074424D-02 -0.12867494D-02
 -0.78402985D-04 -0.47301918D-06 -0.80315549D-02 -0.77050535D-05 -0.56619350D-07
  0.80817363D-02  0.35133500D-06 -0.74804239D-08  0.89939080D-04 -0.14825248D-01
 -0.15849568D-01  0.30674816D-01  0.10936131D-04  0.60743812D-04  0.80359654D-06
 -0.42669497D-02 -0.51235665D-02  0.93905162D-02  0.91465296D-05  0.69668353D-05
  0.34607401D-07  0.46278775D-03  0.51063682D-03 -0.97342457D-03 -0.51062775D-06
  0.25430894D-05  0.46280737D-07  0.65915580D-05 -0.35193115D-08 -0.89173168D-02
  0.75453968D-07  0.11753700D-06  0.14289579D-01 -0.19850128D-04 -0.10697907D-06
  0.12462372D-01  0.19509205D-04 -0.30925048D-05  0.18145203D-07 -0.35958396D-03
  0.43002949D-05 -0.10754781D-06  0.23436627D-04  0.49772196D-05  0.53112203D-07
  0.10553152D-02 -0.11017745D-04 -0.28163150D-01 -0.52501785D-01 -0.88735169D-01
 -0.13338551D+00 -0.16384021D+00 -0.13827536D+00 -0.51995145D-01 -0.59174427D-03
 -0.44229218D-02 -0.16529469D-01 -0.46114644D-01 -0.61780909D-01  0.72951734D-01
  0.30047694D-01  0.19105288D-01  0.40775272D-03 -0.29426378D-03 -0.27589100D-03
 -0.19645083D-03 -0.67428738D-05 -0.63218728D-05 -0.45015501D-05  0.10589051D+00
  0.99279084D-01  0.70692622D-01 -0.14020047D-03 -0.35902880D-05  0.65691214D-02
 -0.20744291D-04 -0.60256974D-06 -0.40016015D-02 -0.91494558D-07 -0.15237650D-09
 -0.55086856D-04 -0.18335863D-01 -0.79391514D-02  0.26275014D-01 -0.11099244D-03
  0.66649583D-04  0.19224035D-05 -0.31355191D-02  0.25236650D-02  0.61185403D-03
 -0.60415427D-04  0.30290138D-04  0.10357013D-05  0.16105536D-04  0.49167828D-03
 -0.50778382D-03 -0.50774074D-05 -0.23279982D-05  0.26362014D-07  0.24222747D-04
 -0.17222362D-06  0.43567437D-02 -0.54762999D-04  0.10809928D-05 -0.95100975D-03
 -0.17905241D-04 -0.56432198D-06 -0.12119221D-01  0.11923662D-03  0.21964633D-05
 -0.51589609D-07 -0.31722707D-04 -0.10902283D-04  0.18983659D-06  0.44137367D-03
  0.43128928D-05 -0.35067766D-07 -0.34620555D-03  0.84067383D-05  0.64710965D-02
  0.11670889D-01  0.17208719D-01 -0.11960996D-04 -0.58598294D-02 -0.79644370D-04
  0.25355216D-04 -0.27825197D-02  0.22522244D-02 -0.49568556D-04  0.41855162D-02
 -0.40829425D-02 -0.12323186D-04  0.55903165D-03 -0.14797453D-02  0.53289049D-03
 -0.10804941D-02  0.54760358D-03  0.37946966D-04 -0.16605475D-04  0.20688106D-02
  0.34598572D-03 -0.79565549D-04 -0.26642017D-03  0.12436065D-04 -0.10512814D-04
  0.94648004D-03  0.64720183D-02  0.11672552D-01  0.17211170D-01 -0.13825038D-04
 -0.58613755D-02 -0.79660667D-04 -0.43535854D-05  0.27830096D-02  0.22527042D-02
 -0.48782819D-05 -0.41872615D-02 -0.40839209D-02 -0.63544071D-05 -0.55931254D-03
 -0.14799640D-02  0.53308446D-03 -0.10808701D-02  0.54778562D-03 -0.34917592D-05
  0.54841998D-05 -0.20690390D-02  0.34614284D-03 -0.79703854D-04 -0.26643899D-03
 -0.33467978D-05 -0.40715396D-06 -0.94668711D-03
MO    4     MO 0.0        OCC NO =    1.9668845  ORB. ENERGY =    0.000000
  0.36138712D-01  0.67356618D-01  0.11421261D+00  0.17284864D+00  0.21561506D+00
  0.18502980D+00  0.70856582D-01  0.69153479D-03  0.74197145D-02  0.27350465D-01
  0.79971155D-01  0.96369130D-01 -0.11608683D+00 -0.65931815D-01 -0.54266825D-01
 -0.31083865D-02 -0.23013890D-02 -0.22315732D-02 -0.15054061D-02 -0.33425687D-03
 -0.32411673D-03 -0.21864723D-03 -0.67831096D+00 -0.65773346D+00 -0.44370311D+00
 -0.56040710D-03 -0.79057269D-04 -0.15219144D+00 -0.89268825D-04 -0.12294841D-04
 -0.15796492D-01 -0.21443806D-05 -0.39095537D-06 -0.10786837D-03 -0.19553515D-01
 -0.19332350D-01  0.38885865D-01 -0.23633742D-05  0.26323104D-03  0.29988059D-04
 -0.35697508D-02 -0.40098665D-02  0.75796174D-02  0.47028245D-05  0.79319102D-04
  0.84267978D-05  0.23144252D-06 -0.13822949D-03  0.13799805D-03  0.14822479D-05
  0.85935932D-05  0.74721563D-06  0.21290502D-04  0.36228070D-05 -0.60199501D-02
  0.21212284D-04  0.56933332D-06  0.58924784D-02 -0.85083791D-04 -0.11437754D-04
  0.12167372D-01 -0.66982027D-04 -0.36138702D-05  0.32647109D-06 -0.14471242D-03
  0.11172782D-04 -0.31672223D-06 -0.20126589D-03 -0.33117113D-06 -0.66269105D-06
  0.63540316D-03 -0.89391058D-05 -0.49526440D-01 -0.92327261D-01 -0.15604565D+00
 -0.23456572D+00 -0.28812197D+00 -0.24316478D+00 -0.91436306D-01 -0.12030800D-02
 -0.89922777D-02 -0.33606195D-01 -0.93756051D-01 -0.12560726D+00  0.14831875D+00
  0.64388487D-01  0.45907163D-01  0.11155435D-02 -0.14692206D-02 -0.13774877D-02
 -0.98085329D-03 -0.14915122D-03 -0.13983875D-03 -0.99573521D-04 -0.11359695D+00
 -0.10650436D+00 -0.75837447D-01 -0.38995885D-03 -0.38891916D-04 -0.31727906D-01
 -0.46806724D-04 -0.37798957D-05 -0.56227182D-02 -0.18509484D-07  0.72843543D-07
 -0.49161404D-05 -0.17576690D-01  0.14286464D-01  0.32902269D-02 -0.34010578D-03
  0.84211998D-04  0.30980215D-07 -0.45564154D-02  0.49124124D-02 -0.35599693D-03
 -0.10106253D-03  0.40808633D-04  0.36185425D-05 -0.96004998D-04  0.14019401D-04
  0.81985597D-04 -0.11756508D-05  0.38766879D-05  0.47836675D-06  0.36270141D-04
  0.73669458D-06  0.42746531D-02 -0.64382433D-04  0.27644635D-05  0.63377400D-03
 -0.44427989D-04 -0.49745473D-05 -0.13457733D-01  0.15042636D-03  0.32309642D-05
  0.61316449D-08  0.28225750D-03 -0.16675882D-04  0.42057579D-06  0.64609629D-03
  0.69829896D-05 -0.43897073D-06 -0.14928688D-02  0.22821837D-04  0.24350441D-01
  0.43917024D-01  0.64755626D-01  0.26890989D-01 -0.40414703D-02 -0.92728441D-04
  0.16115622D-03 -0.17689855D-01  0.88005960D-02 -0.15568148D-04  0.20256210D-03
 -0.19447829D-02 -0.11973532D-04  0.13552454D-02 -0.50720082D-03 -0.16302661D-02
  0.20344654D-02 -0.40419925D-03 -0.60743304D-04  0.22195602D-04 -0.29307595D-02
  0.28787547D-03 -0.13065214D-03 -0.15722333D-03  0.13225925D-04 -0.15254144D-05
  0.55700448D-03  0.24366311D-01  0.43945646D-01  0.64797830D-01  0.26906316D-01
 -0.40457275D-02 -0.92576294D-04 -0.27699012D-04  0.17700352D-01  0.88109327D-02
 -0.13375827D-04 -0.20692728D-03 -0.19443551D-02  0.24913193D-05 -0.13562196D-02
 -0.50716300D-03 -0.16318580D-02  0.20342000D-02 -0.40234205D-03 -0.17502473D-04
 -0.90789881D-05  0.29362404D-02  0.28818114D-03 -0.13107766D-03 -0.15710348D-03
 -0.42852852D-05  0.44219706D-05 -0.55750375D-03
MO    5     MO 0.0        OCC NO =    1.9653380  ORB. ENERGY =    0.000000
  0.99050912D-05  0.18461461D-04  0.31304002D-04  0.47375278D-04  0.59096925D-04
  0.50713954D-04  0.19420750D-04  0.19431929D-06  0.20849185D-05  0.76854020D-05
  0.22471665D-04  0.27079449D-04 -0.32620066D-04 -0.18819247D-04 -0.17095300D-04
 -0.12022562D-05 -0.71110524D-02 -0.68953288D-02 -0.46515481D-02  0.13319445D+01
  0.12915381D+01  0.87126397D+00 -0.27585192D-03 -0.26748357D-03 -0.18044283D-03
 -0.16806124D-02  0.31478809D+00 -0.62247126D-04 -0.26883819D-03  0.50354682D-01
 -0.65820075D-05 -0.83838411D-05  0.15703636D-02 -0.34741806D-07 -0.82253065D-05
 -0.82267673D-05  0.16452074D-04  0.16526241D-04  0.54054850D-03 -0.10124451D+00
 -0.15246023D-05 -0.18895727D-05  0.34141751D-05 -0.94069528D-05  0.15220824D-03
 -0.28507902D-01  0.78046507D-07 -0.12682703D-06  0.48780524D-07 -0.12740152D-04
  0.14057574D-04 -0.26328087D-02 -0.46913763D-06 -0.12965577D-01 -0.26533018D-05
  0.20860289D-03  0.88289812D-04  0.30023077D-05 -0.20719547D-03  0.38808442D-01
  0.49575978D-05 -0.55387751D-04 -0.22807905D-05 -0.97103335D-03 -0.13332222D-06
  0.20114248D-04  0.42694864D-03 -0.82399369D-07 -0.13271876D-04  0.24861514D-02
  0.48236604D-06  0.20988739D-04 -0.14813348D-04 -0.27615065D-04 -0.46673222D-04
 -0.70158558D-04 -0.86177223D-04 -0.72730536D-04 -0.27348581D-04 -0.35707575D-06
 -0.26689200D-05 -0.99743635D-05 -0.27826921D-04 -0.37280402D-04  0.44021204D-04
  0.18894810D-04  0.12649555D-04  0.28591337D-06 -0.21678563D-02 -0.20325031D-02
 -0.14472633D-02  0.40602603D+00  0.38067521D+00  0.27106343D+00 -0.11983994D-05
 -0.11235756D-05 -0.80005278D-06 -0.56127874D-03  0.10512291D+00 -0.20684333D-05
 -0.33483027D-04  0.62696549D-02 -0.12033012D-05  0.17722104D-05 -0.33198435D-03
 -0.39689340D-09 -0.45334955D-05  0.15540826D-05  0.29794129D-05 -0.19553430D-03
 -0.15475987D-03  0.28992656D-01 -0.81804610D-06  0.99615909D-06 -0.17811300D-06
 -0.77654541D-04  0.20277587D-04 -0.37970999D-02 -0.41609041D-07  0.30003372D-07
  0.11605669D-07  0.69773882D-05  0.47282880D-05 -0.88550164D-03  0.29219890D-04
 -0.38801592D-02  0.18209832D-05  0.36982157D-05 -0.54712602D-02 -0.71315561D-06
 -0.91357886D-04  0.17111738D-01 -0.47497939D-05  0.87254010D-04  0.16803276D-05
 -0.38114035D-03  0.42881371D-07  0.27393763D-05 -0.31462496D-03 -0.44212353D-07
 -0.77803589D-05  0.14580460D-02 -0.84431759D-07  0.41046335D-04  0.18329736D-01
  0.33058435D-01  0.48744642D-01  0.19330660D-01 -0.15390207D-02  0.34572997D-03
  0.14482242D-03 -0.11325121D-01  0.13691897D-01 -0.11218268D-04  0.55209786D-02
  0.18026767D-02 -0.13880973D-04  0.47273782D-03  0.61273008D-03 -0.18585234D-02
 -0.14347222D-02  0.32932456D-02 -0.33869981D-04  0.11753976D-03 -0.83046830D-02
  0.31019466D-03 -0.46642944D-03  0.15623478D-03  0.14885925D-04 -0.83072778D-05
  0.88661009D-03 -0.18318100D-01 -0.33037447D-01 -0.48713697D-01 -0.19316344D-01
  0.15367269D-02 -0.34579297D-03 -0.23926340D-04 -0.11317910D-01 -0.13688921D-01
 -0.47733213D-04  0.55210490D-02 -0.18038321D-02  0.88360650D-05  0.47205376D-03
 -0.61306578D-03  0.18580120D-02  0.14355404D-02 -0.32935524D-02 -0.24825369D-04
 -0.28876996D-04 -0.83044909D-02 -0.31001512D-03  0.46639723D-03 -0.15638211D-03
 -0.17008755D-05 -0.11553438D-05  0.88630542D-03
MO    6     MO 0.0        OCC NO =    1.9601105  ORB. ENERGY =    0.000000
  0.19856314D-02  0.37008905D-02  0.62753800D-02  0.94971203D-02  0.11846909D-01
  0.10166410D-01  0.38931951D-02 -0.31450053D-04 -0.33743843D-03 -0.12438616D-02
 -0.36369783D-02 -0.43827357D-02  0.52794696D-02  0.76292036D-02  0.28687947D-01
  0.63073249D-02  0.31238937D-03  0.30291261D-03  0.20434305D-03  0.24325291D-03
  0.23587350D-03  0.15911887D-03  0.13821582D+01  0.13402285D+01  0.90411025D+00
  0.64498982D-04  0.57304738D-04  0.31968776D+00  0.29028791D-04  0.10074775D-04
  0.38147205D-01  0.79232657D-06  0.32482137D-06  0.15786063D-03  0.41980143D-01
  0.43770369D-01 -0.85750512D-01 -0.19104820D-04  0.88256470D-04 -0.74067405D-05
  0.10428418D-01  0.11786009D-01 -0.22214427D-01 -0.14493209D-04  0.23199560D-04
 -0.18168280D-05  0.26526735D-03  0.51080534D-03 -0.77607269D-03 -0.26227008D-05
 -0.73977255D-05 -0.31058748D-06  0.19057657D-04 -0.11947006D-05  0.15668745D-01
  0.13356350D-04  0.14520778D-05 -0.15979771D-01 -0.70529323D-04  0.21320239D-05
 -0.31026463D-01  0.16064018D-03 -0.30426548D-06 -0.87257619D-07  0.20166229D-02
 -0.20929448D-06 -0.70535165D-08 -0.24750525D-02  0.11220909D-05  0.26882637D-06
 -0.35748162D-02  0.11744561D-04  0.52038992D-02  0.97011166D-02  0.16396209D-01
  0.24646560D-01  0.30273884D-01  0.25550090D-01  0.96075011D-02  0.88717658D-04
  0.66310953D-03  0.24781917D-02  0.69137690D-02  0.92625443D-02 -0.10937338D-01
 -0.62435419D-02  0.16289375D-01  0.10831185D-04 -0.93698317D-03 -0.87848128D-03
 -0.62553100D-03 -0.35080707D-04 -0.32890392D-04 -0.23419919D-04 -0.52341558D+00
 -0.49073537D+00 -0.34943282D+00 -0.17355894D-03 -0.79589423D-05 -0.10881589D+00
 -0.33171649D-04 -0.33213423D-05 -0.86475002D-02 -0.90108893D-07 -0.85287639D-07
 -0.40772689D-04  0.83615565D-02  0.28583913D-01 -0.36945469D-01 -0.21585382D-03
  0.95978315D-04  0.18599448D-04  0.20227668D-03  0.24875387D-02 -0.26898154D-02
 -0.24384577D-04  0.11498261D-04  0.42823109D-05 -0.15403678D-03  0.12822881D-03
  0.25807966D-04 -0.30109906D-05  0.37886636D-05  0.43382959D-06 -0.51579912D-05
 -0.76755106D-06 -0.58760919D-02  0.14425271D-04 -0.35843155D-06  0.64645690D-02
  0.10487026D-05  0.26610847D-05  0.11163707D-01 -0.50171372D-04 -0.90864042D-06
 -0.73570124D-07  0.76947204D-03  0.39616175D-05  0.42453167D-07 -0.19280681D-03
 -0.12356963D-05  0.17825720D-06 -0.21156093D-02  0.20527526D-04  0.18239869D-01
  0.32896354D-01  0.48505655D-01  0.30882860D-01  0.75385352D-03  0.11770421D-04
  0.17184264D-03 -0.17427601D-01  0.35824096D-02  0.38314485D-04 -0.57517443D-02
  0.75595265D-03 -0.88107617D-06  0.33750668D-03 -0.24432521D-03 -0.14820521D-02
  0.52629326D-02 -0.37808804D-02 -0.12900958D-03  0.37180907D-04 -0.45467253D-02
 -0.54888303D-03  0.43120223D-05  0.54457101D-03 -0.12634444D-04 -0.87396388D-06
  0.47478276D-04  0.18248645D-01  0.32912183D-01  0.48528995D-01  0.30896510D-01
  0.75052865D-03  0.11623836D-04 -0.14223744D-04  0.17433176D-01  0.35844755D-02
 -0.23097604D-04  0.57522962D-02  0.75554068D-03  0.27236538D-05 -0.33840569D-03
 -0.24484811D-03 -0.14824348D-02  0.52643953D-02 -0.37819605D-02 -0.15031523D-04
 -0.11370757D-04  0.45469048D-02 -0.54905051D-03  0.43463469D-05  0.54470417D-03
  0.82161810D-06 -0.36761304D-06 -0.47306652D-04
MO    7     MO 0.0        OCC NO =    1.9567304  ORB. ENERGY =    0.000000
 -0.18635988D-05 -0.34734417D-05 -0.58897085D-05 -0.89134476D-05 -0.11118823D-04
 -0.95416046D-05 -0.36539276D-05 -0.27239334D-07 -0.29226018D-06 -0.10773260D-05
 -0.31500382D-05 -0.37959492D-05  0.45726230D-05  0.20359594D-05 -0.13472097D-05
 -0.77459797D-06 -0.62696338D-02 -0.60794358D-02 -0.41011515D-02  0.11744894D+01
  0.11388596D+01  0.76826798D+00 -0.15776267D-03 -0.15297672D-03 -0.10319719D-03
 -0.14805245D-02  0.27734685D+00 -0.36756095D-04 -0.26752711D-03  0.50115135D-01
 -0.45663877D-05 -0.90827558D-05  0.17014388D-02 -0.27244698D-07 -0.49073416D-05
 -0.48202136D-05  0.97275552D-05  0.49537494D-04  0.62342981D-04 -0.11683903D-01
 -0.13252364D-05 -0.13621638D-05  0.26874001D-05  0.23065336D-04  0.15594586D-04
 -0.29226577D-02 -0.33330351D-07 -0.67583296D-07  0.10091365D-06 -0.17645835D-05
  0.34746159D-05 -0.65071399D-03 -0.47021681D-04 -0.41810981D-02 -0.18352223D-05
  0.16099610D-03  0.88068827D-02  0.21272288D-05 -0.19931057D-04  0.37364117D-02
  0.33784383D-05 -0.65364307D-04  0.18958702D-05 -0.30790801D-03 -0.27839451D-06
  0.11395998D-05 -0.35506295D-03  0.34515166D-06 -0.68272103D-05  0.12787870D-02
  0.49003186D-06  0.29132491D-08  0.17399037D-05  0.32435310D-05  0.54820093D-05
  0.82404824D-05  0.10121957D-04  0.85425744D-05  0.32122311D-05  0.45609409D-07
  0.34090208D-06  0.12740289D-05  0.35543422D-05  0.47618387D-05 -0.56228436D-05
 -0.17280309D-05 -0.30354591D-05 -0.22682389D-07  0.19289468D-02  0.18085102D-02
  0.12877670D-02 -0.36130870D+00 -0.33874987D+00 -0.24121009D+00  0.73497444D-04
  0.68908525D-04  0.49066975D-04  0.52894978D-03 -0.99079290D-01  0.15566478D-04
  0.13725404D-03 -0.25710170D-01  0.12738289D-05  0.27036852D-05 -0.50646347D-03
  0.80813843D-08 -0.30638977D-05 -0.24656059D-05  0.55295036D-05  0.47863359D-03
 -0.59123754D-03  0.11075299D+00 -0.74150732D-06  0.13291681D-06  0.60859051D-06
  0.15425806D-03 -0.16997725D-03  0.31841472D-01 -0.61921127D-07  0.36027019D-07
  0.25894108D-07  0.16678235D-04 -0.18204348D-04  0.34100519D-02 -0.14625503D-04
 -0.36571195D-02  0.52116536D-06  0.87820983D-04  0.27389706D-02 -0.49608387D-06
 -0.43944474D-04  0.82323878D-02 -0.10674122D-05 -0.95395320D-04 -0.42886550D-05
 -0.58784979D-03 -0.10823479D-06  0.17992534D-04  0.80331572D-03  0.18933115D-06
 -0.51265687D-05  0.96023364D-03  0.13537322D-06 -0.35411731D-04 -0.34616240D-01
 -0.62431815D-01 -0.92055674D-01 -0.52468661D-01  0.10540768D-01  0.43275920D-03
 -0.18921405D-03  0.14959029D-01 -0.10589067D-01  0.15071680D-04 -0.32077528D-02
  0.19916744D-02  0.37196529D-04 -0.34748923D-02  0.16652402D-02  0.70842498D-03
 -0.15518013D-02  0.84337637D-03  0.71116273D-04 -0.30071485D-04  0.31502079D-02
  0.48894226D-05  0.35306749D-03 -0.35795691D-03 -0.31470463D-05  0.96306699D-06
  0.45157160D-04  0.34608520D-01  0.62417891D-01  0.92035144D-01  0.52452442D-01
 -0.10543333D-01 -0.43278908D-03  0.29510850D-04  0.14953567D-01  0.10588221D-01
  0.19187105D-04 -0.32102227D-02 -0.19921243D-02 -0.96747234D-07 -0.34748422D-02
 -0.16651826D-02 -0.70796666D-03  0.15500532D-02 -0.84208654D-03  0.22853190D-04
 -0.35587571D-05  0.31482829D-02 -0.48050962D-05 -0.35302722D-03  0.35783231D-03
  0.42882790D-05 -0.14456265D-05  0.45242676D-04
MO    8     MO 0.0        OCC NO =    1.9226299  ORB. ENERGY =    0.000000
  0.59229985D-04  0.11039495D-03  0.18719016D-03  0.28329240D-03  0.35338494D-03
  0.30325685D-03  0.11613126D-03  0.11769595D-05  0.12628003D-04  0.46549196D-04
  0.13610712D-03  0.16401569D-03 -0.19757429D-03 -0.11207158D-03 -0.79519453D-04
  0.77877909D-04  0.13795584D+01  0.13377076D+01  0.90240964D+00  0.73644993D-02
  0.71410870D-02  0.48173351D-02 -0.34819895D-03 -0.33763585D-03 -0.22776715D-03
  0.33247752D+00  0.17748650D-02 -0.83928167D-04  0.48482190D-01  0.25881196D-03
  0.45603987D-04  0.88704706D-03  0.47354625D-05 -0.60882141D-05 -0.82135731D-05
 -0.37908950D-04  0.46122523D-04  0.20572131D-06 -0.12443776D+00 -0.66428905D-03
 -0.51760392D-05  0.68395050D-05 -0.16634658D-05 -0.20320515D-06 -0.37373687D-01
 -0.19951095D-03  0.73257363D-05  0.77961858D-06 -0.81053549D-05  0.72463905D-07
 -0.23613880D-02 -0.12605830D-04 -0.61336314D-02 -0.11855167D-03  0.18271571D-05
 -0.22206920D-01  0.13887932D-03 -0.20072065D-04  0.40607814D-01  0.21677569D-03
  0.14590594D-04 -0.35895299D-06 -0.36202404D-03 -0.82627292D-05  0.49040113D-05
 -0.15477596D-02  0.10728416D-04 -0.10992376D-04  0.26338317D-02  0.14059772D-04
 -0.37196584D-05 -0.47623104D-07 -0.16644025D-03 -0.31027816D-03 -0.52441237D-03
 -0.78828960D-03 -0.96827258D-03 -0.81718790D-03 -0.30728399D-03 -0.41257568D-05
 -0.30837476D-04 -0.11524669D-03 -0.32152032D-03 -0.43074858D-03  0.50863376D-03
  0.22107133D-03  0.40523575D-03 -0.33726213D-05  0.41538779D+00  0.38945246D+00
  0.27731335D+00  0.22174807D-02  0.20790291D-02  0.14803926D-02 -0.87727513D-03
 -0.82250119D-03 -0.58566985D-03  0.10663988D+00  0.56928249D-03 -0.18222796D-03
  0.12609952D-01  0.67315690D-04 -0.64445593D-04  0.39106015D-04  0.20865704D-06