 Entering Gaussian System, Link 0=/home/bruns/programas/chemistry/gaussian/g09/g09
 Input=GAUSSIAN.com
 Output=GAUSSIAN.log
 Initial command:
 /home/bruns/programas/chemistry/gaussian/g09/l1.exe /home/bruns/programas/chemistry/gaussian/work/Gau-75801.inp -scrdir=/home/bruns/programas/chemistry/gaussian/work/
 Entering Link 1 = /home/bruns/programas/chemistry/gaussian/g09/l1.exe PID=     75803.
  
 Copyright (c) 1988,1990,1992,1993,1995,1998,2003,2009,2010,
            Gaussian, Inc.  All Rights Reserved.
  
 This is part of the Gaussian(R) 09 program.  It is based on
 the Gaussian(R) 03 system (copyright 2003, Gaussian, Inc.),
 the Gaussian(R) 98 system (copyright 1998, Gaussian, Inc.),
 the Gaussian(R) 94 system (copyright 1995, Gaussian, Inc.),
 the Gaussian 92(TM) system (copyright 1992, Gaussian, Inc.),
 the Gaussian 90(TM) system (copyright 1990, Gaussian, Inc.),
 the Gaussian 88(TM) system (copyright 1988, Gaussian, Inc.),
 the Gaussian 86(TM) system (copyright 1986, Carnegie Mellon
 University), and the Gaussian 82(TM) system (copyright 1983,
 Carnegie Mellon University). Gaussian is a federally registered
 trademark of Gaussian, Inc.
  
 This software contains proprietary and confidential information,
 including trade secrets, belonging to Gaussian, Inc.
  
 This software is provided under written license and may be
 used, copied, transmitted, or stored only in accord with that
 written license.
  
 The following legend is applicable only to US Government
 contracts under FAR:
  
                    RESTRICTED RIGHTS LEGEND
  
 Use, reproduction and disclosure by the US Government is
 subject to restrictions as set forth in subparagraphs (a)
 and (c) of the Commercial Computer Software - Restricted
 Rights clause in FAR 52.227-19.
  
 Gaussian, Inc.
 340 Quinnipiac St., Bldg. 40, Wallingford CT 06492
  
  
 ---------------------------------------------------------------
 Warning -- This program may not be used in any manner that
 competes with the business of Gaussian, Inc. or will provide
 assistance to any competitor of Gaussian, Inc.  The licensee
 of this program is prohibited from giving any competitor of
 Gaussian, Inc. access to this program.  By using this program,
 the user acknowledges that Gaussian, Inc. is engaged in the
 business of creating and licensing software in the field of
 computational chemistry and represents and warrants to the
 licensee that it is not a competitor of Gaussian, Inc. and that
 it will not use this program in any manner prohibited above.
 ---------------------------------------------------------------
  

 Cite this work as:
 Gaussian 09, Revision B.01,
 M. J. Frisch, G. W. Trucks, H. B. Schlegel, G. E. Scuseria, 
 M. A. Robb, J. R. Cheeseman, G. Scalmani, V. Barone, B. Mennucci, 
 G. A. Petersson, H. Nakatsuji, M. Caricato, X. Li, H. P. Hratchian, 
 A. F. Izmaylov, J. Bloino, G. Zheng, J. L. Sonnenberg, M. Hada, 
 M. Ehara, K. Toyota, R. Fukuda, J. Hasegawa, M. Ishida, T. Nakajima, 
 Y. Honda, O. Kitao, H. Nakai, T. Vreven, J. A. Montgomery, Jr., 
 J. E. Peralta, F. Ogliaro, M. Bearpark, J. J. Heyd, E. Brothers, 
 K. N. Kudin, V. N. Staroverov, T. Keith, R. Kobayashi, J. Normand, 
 K. Raghavachari, A. Rendell, J. C. Burant, S. S. Iyengar, J. Tomasi, 
 M. Cossi, N. Rega, J. M. Millam, M. Klene, J. E. Knox, J. B. Cross, 
 V. Bakken, C. Adamo, J. Jaramillo, R. Gomperts, R. E. Stratmann, 
 O. Yazyev, A. J. Austin, R. Cammi, C. Pomelli, J. W. Ochterski, 
 R. L. Martin, K. Morokuma, V. G. Zakrzewski, G. A. Voth, 
 P. Salvador, J. J. Dannenberg, S. Dapprich, A. D. Daniels, 
 O. Farkas, J. B. Foresman, J. V. Ortiz, J. Cioslowski, 
 and D. J. Fox, Gaussian, Inc., Wallingford CT, 2010.
 
 ******************************************
 Gaussian 09:  EM64L-G09RevB.01 12-Aug-2010
                20-Nov-2021 
 ******************************************
 %nproc=8
 Will use up to    8 processors via shared memory.
 %mem=8GB
 -----------------------------------------------------
 # qcisd/aug-cc-pvtz nosymm density=current output=wfn
 -----------------------------------------------------
 1/30=1,38=1/1;
 2/12=2,15=1,17=6,18=5,40=1/2;
 3/5=16,6=1,7=10,11=9,16=1,25=1,30=1,71=1/1,2,3;
 4//1;
 5/5=2,38=5/2;
 8/6=4,9=120000,10=1/1,4;
 9/5=8,15=1/13;
 11/28=-7,31=1,32=3,42=3/11;
 10/5=6,13=10,31=1/2;
 6/7=2,8=2,9=2,10=2,22=-1,31=1/1;
 99/5=1,6=1100,9=1/99;
 -----------------
 h2co-wavefunction
 -----------------
 Symbolic Z-matrix:
 Charge =  0 Multiplicity = 1
 O                     0.        0.        0.67925 
 C                     0.        0.       -0.51691 
 H                     0.        0.93661  -1.10662 
 H                     0.       -0.93661  -1.10662 
 
                          Input orientation:                          
 ---------------------------------------------------------------------
 Center     Atomic      Atomic             Coordinates (Angstroms)
 Number     Number       Type             X           Y           Z
 ---------------------------------------------------------------------
      1          8           0        0.000000    0.000000    0.679252
      2          6           0        0.000000    0.000000   -0.516911
      3          1           0        0.000000    0.936614   -1.106620
      4          1           0        0.000000   -0.936614   -1.106620
 ---------------------------------------------------------------------
                    Distance matrix (angstroms):
                    1          2          3          4
     1  O    0.000000
     2  C    1.196163   0.000000
     3  H    2.016577   1.106798   0.000000
     4  H    2.016577   1.106798   1.873228   0.000000
 Symmetry turned off by external request.
 Stoichiometry    CH2O
 Framework group  C2V[C2(CO),SGV(H2)]
 Deg. of freedom     3
 Full point group                 C2V     NOp   4
 Rotational constants (GHZ):    285.8122027     39.3058767     34.5539049
 Standard basis: Aug-CC-pVTZ (5D, 7F)
 Integral buffers will be    131072 words long.
 Raffenetti 1 integral format.
 Two-electron integral symmetry is turned off.
   138 basis functions,   198 primitive gaussians,   160 cartesian basis functions
     8 alpha electrons        8 beta electrons
       nuclear repulsion energy        31.4534821908 Hartrees.
 NAtoms=    4 NActive=    4 NUniq=    4 SFac= 1.00D+00 NAtFMM=   50 NAOKFM=F Big=F
 One-electron integrals computed using PRISM.
 NBasis=   138 RedAO= T  NBF=   138
 NBsUse=   138 1.00D-06 NBFU=   138
 Harris functional with IExCor=  205 diagonalized for initial guess.
 ExpMin= 2.53D-02 ExpMax= 1.53D+04 ExpMxC= 5.22D+02 IAcc=3 IRadAn=         0 AccDes= 0.00D+00
 HarFok:  IExCor=  205 AccDes= 0.00D+00 IRadAn=         0 IDoV= 1
 ScaDFX=  1.000000  1.000000  1.000000  1.000000
 FoFCou: FMM=F IPFlag=           0 FMFlag=      100000 FMFlg1=           0
         NFxFlg=           0 DoJE=T BraDBF=F KetDBF=T FulRan=T
         Omega=  0.000000  0.000000  1.000000  0.000000  0.000000 ICntrl=     500 IOpCl=  0
         NMat0=    1 NMatS0=    1 NMatT0=    0 NMatD0=    1 NMtDS0=    0 NMtDT0=    0
         I1Cent=           4 NGrid=           0.
 Symmetry not used in FoFCou.
 Requested convergence on RMS density matrix=1.00D-08 within 128 cycles.
 Requested convergence on MAX density matrix=1.00D-06.
 Requested convergence on             energy=1.00D-06.
 No special actions if energy rises.
 Keep R1 ints in memory in canonical form, NReq=85137408.
 SCF Done:  E(RHF) =  -113.914437173     A.U. after   11 cycles
             Convg  =    0.2702D-08             -V/T =  2.0016
 ExpMin= 2.53D-02 ExpMax= 1.53D+04 ExpMxC= 5.22D+02 IAcc=3 IRadAn=         5 AccDes= 0.00D+00
 HarFok:  IExCor=  205 AccDes= 0.00D+00 IRadAn=         5 IDoV=-2
 ScaDFX=  1.000000  1.000000  1.000000  1.000000
 DSYEVD returned Info=          93 IAlg= 4 N=    46 NDim=    46 NE2=    23340785 trying DSYEV.
 DSYEVD returned Info=          93 IAlg= 4 N=    46 NDim=    46 NE2=    23340785 trying DSYEV.
 Range of M.O.s used for correlation:     3   138
 NBasis=   138 NAE=     8 NBE=     8 NFC=     2 NFV=     0
 NROrb=    136 NOA=     6 NOB=     6 NVA=   130 NVB=   130

 **** Warning!!: The largest alpha MO coefficient is  0.33303832D+02

 Semi-Direct transformation.
 ModeAB=           2 MOrb=             6 LenV=    1073118443
 LASXX=      7286295 LTotXX=     7286295 LenRXX=     7286295
 LTotAB=     7445736 MaxLAS=    10510080 LenRXY=    10510080
 NonZer=    14572590 LenScr=    22628352 LnRSAI=           0
 LnScr1=           0 LExtra=           0 Total=     40424727
 MaxDsk=          -1 SrtSym=           F ITran=            4
 JobTyp=0 Pass  1:  I=   1 to   6.
 (rs|ai) integrals will be sorted in core.
 Spin components of T(2) and E(2):
     alpha-alpha T2 =       0.1364128334D-01 E2=     -0.4791197739D-01
     alpha-beta  T2 =       0.8442051203D-01 E2=     -0.3057125256D+00
     beta-beta   T2 =       0.1364128334D-01 E2=     -0.4791197739D-01
 ANorm=    0.1054373311D+01
 E2 =    -0.4015364804D+00 EUMP2 =    -0.11431597365321D+03
 R2 and R3 integrals will be kept in memory, NReq=   167993840.
 Iterations=  50 Convergence= 0.100D-07
 Iteration Nr.   1
 **********************
 DD1Dir will call FoFMem   1 times, MxPair=        42
 NAB=    21 NAA=     0 NBB=     0.
 MP4(R+Q)=  0.87890090D-02
 E3=       -0.43837181D-02        EUMP3=      -0.11432035737D+03
 E4(DQ)=   -0.12848406D-02        UMP4(DQ)=   -0.11432164221D+03
 E4(SDQ)=  -0.64264397D-02        UMP4(SDQ)=  -0.11432678381D+03
 DE(Corr)= -0.39713119     E(Corr)=     -114.31156836    
 NORM(A)=   0.10551952D+01
 Iteration Nr.   2
 **********************
 DD1Dir will call FoFMem   1 times, MxPair=        42
 NAB=    21 NAA=     0 NBB=     0.
 DE(Corr)= -0.41082160     E(CORR)=     -114.32525877     Delta=-1.37D-02
 NORM(A)=   0.10611348D+01
 Iteration Nr.   3
 **********************
 DD1Dir will call FoFMem   1 times, MxPair=        42
 NAB=    21 NAA=     0 NBB=     0.
 DE(Corr)= -0.41079324     E(CORR)=     -114.32523042     Delta= 2.84D-05
 NORM(A)=   0.10629473D+01
 Iteration Nr.   4
 **********************
 DD1Dir will call FoFMem   1 times, MxPair=        42
 NAB=    21 NAA=     0 NBB=     0.
 DE(Corr)= -0.41216134     E(CORR)=     -114.32659851     Delta=-1.37D-03
 NORM(A)=   0.10635893D+01
 Iteration Nr.   5
 **********************
 DD1Dir will call FoFMem   1 times, MxPair=        42
 NAB=    21 NAA=     0 NBB=     0.
 DE(Corr)= -0.41234002     E(CORR)=     -114.32677719     Delta=-1.79D-04
 NORM(A)=   0.10637886D+01
 Iteration Nr.   6
 **********************
 DD1Dir will call FoFMem   1 times, MxPair=        42
 NAB=    21 NAA=     0 NBB=     0.
 DE(Corr)= -0.41236448     E(CORR)=     -114.32680165     Delta=-2.45D-05
 NORM(A)=   0.10638121D+01
 Iteration Nr.   7
 **********************
 DD1Dir will call FoFMem   1 times, MxPair=        42
 NAB=    21 NAA=     0 NBB=     0.
 DE(Corr)= -0.41236563     E(CORR)=     -114.32680280     Delta=-1.15D-06
 NORM(A)=   0.10638131D+01
 Iteration Nr.   8
 **********************
 DD1Dir will call FoFMem   1 times, MxPair=        42
 NAB=    21 NAA=     0 NBB=     0.
 DE(Corr)= -0.41236481     E(CORR)=     -114.32680198     Delta= 8.22D-07
 NORM(A)=   0.10638156D+01
 Iteration Nr.   9
 **********************
 DD1Dir will call FoFMem   1 times, MxPair=        42
 NAB=    21 NAA=     0 NBB=     0.
 DE(Corr)= -0.41236378     E(CORR)=     -114.32680095     Delta= 1.03D-06
 NORM(A)=   0.10638160D+01
 Iteration Nr.  10
 **********************
 DD1Dir will call FoFMem   1 times, MxPair=        42
 NAB=    21 NAA=     0 NBB=     0.
 DE(Corr)= -0.41236436     E(CORR)=     -114.32680153     Delta=-5.81D-07
 NORM(A)=   0.10638165D+01
 Iteration Nr.  11
 **********************
 DD1Dir will call FoFMem   1 times, MxPair=        42
 NAB=    21 NAA=     0 NBB=     0.
 DE(Corr)= -0.41236448     E(CORR)=     -114.32680166     Delta=-1.25D-07
 NORM(A)=   0.10638168D+01
 Iteration Nr.  12
 **********************
 DD1Dir will call FoFMem   1 times, MxPair=        42
 NAB=    21 NAA=     0 NBB=     0.
 DE(Corr)= -0.41236463     E(CORR)=     -114.32680180     Delta=-1.45D-07
 NORM(A)=   0.10638170D+01
 Iteration Nr.  13
 **********************
 DD1Dir will call FoFMem   1 times, MxPair=        42
 NAB=    21 NAA=     0 NBB=     0.
 DE(Corr)= -0.41236469     E(CORR)=     -114.32680186     Delta=-5.58D-08
 NORM(A)=   0.10638171D+01
 Iteration Nr.  14
 **********************
 DD1Dir will call FoFMem   1 times, MxPair=        42
 NAB=    21 NAA=     0 NBB=     0.
 DE(Corr)= -0.41236471     E(CORR)=     -114.32680189     Delta=-2.90D-08
 NORM(A)=   0.10638171D+01
 Iteration Nr.  15
 **********************
 DD1Dir will call FoFMem   1 times, MxPair=        42
 NAB=    21 NAA=     0 NBB=     0.
 DE(Corr)= -0.41236472     E(CORR)=     -114.32680189     Delta=-4.53D-09
 NORM(A)=   0.10638172D+01
 Largest amplitude= 6.36D-02

 Z-AMPLITUDE ITERATIONS

 Iteration Nr.   1
 **********************
 DD1Dir will call FoFMem   1 times, MxPair=        42
 NAB=    21 NAA=     0 NBB=     0.
 DE(Z)  -0.40049084D+00          E(Z)=    -0.11431492801D+03
 NORM(A)=   0.10638166D+01
 Iteration Nr.   2
 **********************
 DD1Dir will call FoFMem   1 times, MxPair=        42
 NAB=    21 NAA=     0 NBB=     0.
 DE(Z)  -0.40049080D+00          E(Z)=    -0.11431492798D+03
 NORM(A)=   0.10638165D+01
 Iteration Nr.   3
 **********************
 DD1Dir will call FoFMem   1 times, MxPair=        42
 NAB=    21 NAA=     0 NBB=     0.
 DE(Z)  -0.40049080D+00          E(Z)=    -0.11431492797D+03
 NORM(A)=   0.10638167D+01
 Iteration Nr.   4
 **********************
 DD1Dir will call FoFMem   1 times, MxPair=        42
 NAB=    21 NAA=     0 NBB=     0.
 DE(Z)  -0.40049081D+00          E(Z)=    -0.11431492799D+03
 NORM(A)=   0.10638179D+01
 Iteration Nr.   5
 **********************
 DD1Dir will call FoFMem   1 times, MxPair=        42
 NAB=    21 NAA=     0 NBB=     0.
 DE(Z)  -0.40049087D+00          E(Z)=    -0.11431492805D+03
 NORM(A)=   0.10598069D+01
 Iteration Nr.   6
 **********************
 DD1Dir will call FoFMem   1 times, MxPair=        42
 NAB=    21 NAA=     0 NBB=     0.
 DE(Z)  -0.40026693D+00          E(Z)=    -0.11431470410D+03
 NORM(A)=   0.10598259D+01
 Iteration Nr.   7
 **********************
 DD1Dir will call FoFMem   1 times, MxPair=        42
 NAB=    21 NAA=     0 NBB=     0.
 DE(Z)  -0.40026059D+00          E(Z)=    -0.11431469776D+03
 NORM(A)=   0.10598232D+01
 Iteration Nr.   8
 **********************
 DD1Dir will call FoFMem   1 times, MxPair=        42
 NAB=    21 NAA=     0 NBB=     0.
 DE(Z)  -0.40026408D+00          E(Z)=    -0.11431470125D+03
 NORM(A)=   0.10598227D+01
 Iteration Nr.   9
 **********************
 DD1Dir will call FoFMem   1 times, MxPair=        42
 NAB=    21 NAA=     0 NBB=     0.
 DE(Z)  -0.40026381D+00          E(Z)=    -0.11431470098D+03
 NORM(A)=   0.10598227D+01
 Iteration Nr.  10
 **********************
 DD1Dir will call FoFMem   1 times, MxPair=        42
 NAB=    21 NAA=     0 NBB=     0.
 DE(Z)  -0.40026364D+00          E(Z)=    -0.11431470081D+03
 NORM(A)=   0.10598226D+01
 Iteration Nr.  11
 **********************
 DD1Dir will call FoFMem   1 times, MxPair=        42
 NAB=    21 NAA=     0 NBB=     0.
 DE(Z)  -0.40026368D+00          E(Z)=    -0.11431470085D+03
 NORM(A)=   0.10598226D+01
 Iteration Nr.  12
 **********************
 DD1Dir will call FoFMem   1 times, MxPair=        42
 NAB=    21 NAA=     0 NBB=     0.
 DE(Z)  -0.40026368D+00          E(Z)=    -0.11431470085D+03
 NORM(A)=   0.10598226D+01
 Discarding MO integrals.
          Differentiating once with respect to electric field.
                with respect to dipole field.
          Electric field/nuclear overlap derivatives assumed to be zero.
          Keep R1 ints in memory in canonical form, NReq=84894547.
          There are     1 degrees of freedom in the 1st order CPHF.  IDoFFX=0.
 LinEq1:  Iter=  0 NonCon=     1 RMS=3.51D-03 Max=5.48D-02
 AX will form     1 AO Fock derivatives at one time.
 LinEq1:  Iter=  1 NonCon=     1 RMS=8.87D-04 Max=8.56D-03
 LinEq1:  Iter=  2 NonCon=     1 RMS=2.30D-04 Max=3.28D-03
 LinEq1:  Iter=  3 NonCon=     1 RMS=1.12D-04 Max=1.17D-03
 LinEq1:  Iter=  4 NonCon=     1 RMS=4.15D-05 Max=5.03D-04
 LinEq1:  Iter=  5 NonCon=     1 RMS=8.65D-06 Max=8.08D-05
 LinEq1:  Iter=  6 NonCon=     1 RMS=1.44D-06 Max=1.68D-05
 LinEq1:  Iter=  7 NonCon=     1 RMS=2.16D-07 Max=1.59D-06
 LinEq1:  Iter=  8 NonCon=     1 RMS=2.47D-08 Max=1.94D-07
 LinEq1:  Iter=  9 NonCon=     1 RMS=2.97D-09 Max=2.38D-08
 LinEq1:  Iter= 10 NonCon=     1 RMS=2.77D-10 Max=2.21D-09
 LinEq1:  Iter= 11 NonCon=     0 RMS=2.52D-11 Max=2.29D-10
 Linear equations converged to 1.000D-10 1.000D-09 after    11 iterations.
 End of Minotr Frequency-dependent properties file   721 does not exist.
 End of Minotr Frequency-dependent properties file   722 does not exist.

 **********************************************************************

            Population analysis using the QCI/CC density.

 **********************************************************************

     Natural Orbital Coefficients:
                           1         2         3         4         5
     Eigenvalues --     2.00001   2.00000   1.98066   1.96685   1.96531
   1 1   O  1S         -0.51979   0.83014  -0.18956   0.07052   0.00000
   2        2S          0.01040  -0.01441   0.48917  -0.20098   0.00000
   3        3S         -0.02174   0.03570   0.13739  -0.06089   0.00000
   4        4S          0.00266  -0.00260   0.30884  -0.22884   0.00000
   5        5S          0.00011  -0.00072   0.04417  -0.03402   0.00000
   6        6PX         0.00000   0.00000   0.00000   0.00000   0.00000
   7        6PY         0.00000   0.00000   0.00000   0.00000   0.27460
   8        6PZ         0.00303  -0.00224  -0.00273  -0.14917   0.00000
   9        7PX         0.00000   0.00000   0.00000   0.00000   0.00000
  10        7PY         0.00000   0.00000   0.00000   0.00000   0.33886
  11        7PZ         0.00212   0.00155  -0.01116  -0.17475   0.00000
  12        8PX         0.00000   0.00000   0.00000   0.00000   0.00000
  13        8PY         0.00000   0.00000   0.00000   0.00000   0.24446
  14        8PZ         0.00322   0.00055   0.03929  -0.08239   0.00000
  15        9PX         0.00000   0.00000   0.00000   0.00000   0.00000
  16        9PY         0.00000   0.00000   0.00000   0.00000   0.03750
  17        9PZ         0.00021   0.00005   0.00219  -0.00256   0.00000
  18       10D 0       -0.00015   0.00016   0.00449   0.00591   0.00000
  19       10D+1        0.00000   0.00000   0.00000   0.00000   0.00000
  20       10D-1        0.00000   0.00000   0.00000   0.00000  -0.00840
  21       10D+2        0.00007  -0.00008   0.00008  -0.00001   0.00000
  22       10D-2        0.00000   0.00000   0.00000   0.00000   0.00000
  23       11D 0       -0.00049  -0.00116   0.01251   0.01086   0.00000
  24       11D+1        0.00000   0.00000   0.00000   0.00000   0.00000
  25       11D-1        0.00000   0.00000   0.00000   0.00000  -0.02198
  26       11D+2        0.00008  -0.00014   0.00064   0.00034   0.00000
  27       11D-2        0.00000   0.00000   0.00000   0.00000   0.00000
  28       12D 0       -0.00070  -0.00033  -0.00924   0.00141   0.00000
  29       12D+1        0.00000   0.00000   0.00000   0.00000   0.00000
  30       12D-1        0.00000   0.00000   0.00000   0.00000  -0.01380
  31       12D+2        0.00028   0.00019  -0.00012   0.00074   0.00000
  32       12D-2        0.00000   0.00000   0.00000   0.00000   0.00000
  33       13F 0       -0.00005   0.00002  -0.00277  -0.00199   0.00000
  34       13F+1        0.00000   0.00000   0.00000   0.00000   0.00000
  35       13F-1        0.00000   0.00000   0.00000   0.00000   0.00492
  36       13F+2        0.00005  -0.00001   0.00015  -0.00052   0.00000
  37       13F-2        0.00000   0.00000   0.00000   0.00000   0.00000
  38       13F+3        0.00000   0.00000   0.00000   0.00000   0.00000
  39       13F-3        0.00000   0.00000   0.00000   0.00000   0.00126
  40       14F 0        0.00034   0.00043  -0.00112  -0.00068   0.00000
  41       14F+1        0.00000   0.00000   0.00000   0.00000   0.00000
  42       14F-1        0.00000   0.00000   0.00000   0.00000   0.00334
  43       14F+2       -0.00002   0.00004  -0.00087  -0.00070   0.00000
  44       14F-2        0.00000   0.00000   0.00000   0.00000   0.00000
  45       14F+3        0.00000   0.00000   0.00000   0.00000   0.00000
  46       14F-3        0.00000   0.00000   0.00000   0.00000   0.00143
  47 2   C  1S          0.83176   0.52048  -0.08534  -0.14839   0.00000
  48        2S         -0.01113  -0.00591   0.20526   0.41363   0.00000
  49        3S          0.03450   0.02175   0.04573   0.09717   0.00000
  50        4S          0.00372   0.00316   0.12404   0.29380   0.00000
  51        5S          0.00185   0.00129   0.00564   0.01663   0.00000
  52        6PX         0.00000   0.00000   0.00000   0.00000   0.00000
  53        6PY         0.00000   0.00000   0.00000   0.00000   0.18460
  54        6PZ         0.00091   0.00052   0.05129  -0.04421   0.00000
  55        7PX         0.00000   0.00000   0.00000   0.00000   0.00000
  56        7PY         0.00000   0.00000   0.00000   0.00000   0.24262
  57        7PZ         0.00071   0.00377   0.01698  -0.06621   0.00000
  58        8PX         0.00000   0.00000   0.00000   0.00000   0.00000
  59        8PY         0.00000   0.00000   0.00000   0.00000   0.06016
  60        8PZ        -0.00104  -0.00019  -0.04037  -0.05275   0.00000
  61        9PX         0.00000   0.00000   0.00000   0.00000   0.00000
  62        9PY         0.00000   0.00000   0.00000   0.00000  -0.01522
  63        9PZ        -0.00016   0.00002  -0.00255  -0.00014   0.00000
  64       10D 0        0.00055   0.00070   0.01402   0.00265   0.00000
  65       10D+1        0.00000   0.00000   0.00000   0.00000   0.00000
  66       10D-1        0.00000   0.00000   0.00000   0.00000   0.00950
  67       10D+2       -0.00042  -0.00020  -0.00303  -0.00916   0.00000
  68       10D-2        0.00000   0.00000   0.00000   0.00000   0.00000
  69       11D 0       -0.00071   0.00104   0.00273  -0.00089   0.00000
  70       11D+1        0.00000   0.00000   0.00000   0.00000   0.00000
  71       11D-1        0.00000   0.00000   0.00000   0.00000  -0.00938
  72       11D+2        0.00034   0.00073  -0.01460  -0.02401   0.00000
  73       11D-2        0.00000   0.00000   0.00000   0.00000   0.00000
  74       12D 0       -0.00051  -0.00142  -0.01818   0.00329   0.00000
  75       12D+1        0.00000   0.00000   0.00000   0.00000   0.00000
  76       12D-1        0.00000   0.00000   0.00000   0.00000  -0.01749
  77       12D+2       -0.00054  -0.00087  -0.00962  -0.00179   0.00000
  78       12D-2        0.00000   0.00000   0.00000   0.00000   0.00000
  79       13F 0        0.00072   0.00041   0.00564   0.00572   0.00000
  80       13F+1        0.00000   0.00000   0.00000   0.00000   0.00000
  81       13F-1        0.00000   0.00000   0.00000   0.00000   0.00890
  82       13F+2        0.00050   0.00018   0.00373   0.00468   0.00000
  83       13F-2        0.00000   0.00000   0.00000   0.00000   0.00000
  84       13F+3        0.00000   0.00000   0.00000   0.00000   0.00000
  85       13F-3        0.00000   0.00000   0.00000   0.00000  -0.00060
  86       14F 0       -0.00150  -0.00012  -0.00081   0.00307   0.00000
  87       14F+1        0.00000   0.00000   0.00000   0.00000   0.00000
  88       14F-1        0.00000   0.00000   0.00000   0.00000   0.00811
  89       14F+2       -0.00086  -0.00037   0.00256   0.00694   0.00000
  90       14F-2        0.00000   0.00000   0.00000   0.00000   0.00000
  91       14F+3        0.00000   0.00000   0.00000   0.00000   0.00000
  92       14F-3        0.00000   0.00000   0.00000   0.00000   0.00038
  93 3   H  1S         -0.00106  -0.00055   0.02474   0.09257   0.06944
  94        2S         -0.00067   0.00044  -0.00054   0.08497   0.06023
  95        3S         -0.00356  -0.00266  -0.04601  -0.02986  -0.01294
  96        4S         -0.00027  -0.00016  -0.00176  -0.00207   0.00766
  97        5PX         0.00000   0.00000   0.00000   0.00000   0.00000
  98        5PY         0.00035   0.00015  -0.00117  -0.00773  -0.00497
  99        5PZ        -0.00025  -0.00010   0.00097   0.00396   0.00616
 100        6PX         0.00000   0.00000   0.00000   0.00000   0.00000
 101        6PY         0.00047  -0.00020   0.00975   0.00076   0.01255
 102        6PZ        -0.00015   0.00031  -0.00945  -0.00440   0.00425
 103        7PX         0.00000   0.00000   0.00000   0.00000   0.00000
 104        7PY         0.00048  -0.00014   0.00673   0.01616   0.00567
 105        7PZ        -0.00073  -0.00103  -0.01851  -0.00574   0.00742
 106        8D 0        0.00007   0.00000   0.00029  -0.00016   0.00187
 107        8D+1        0.00000   0.00000   0.00000   0.00000   0.00000
 108        8D-1        0.00029   0.00013   0.00073  -0.00087  -0.00263
 109        8D+2        0.00018   0.00008   0.00055  -0.00108  -0.00013
 110        8D-2        0.00000   0.00000   0.00000   0.00000   0.00000
 111        9D 0       -0.00024  -0.00003  -0.00197  -0.00131   0.00114
 112        9D+1        0.00000   0.00000   0.00000   0.00000   0.00000
 113        9D-1       -0.00012  -0.00003   0.00384   0.00218   0.00361
 114        9D+2        0.00023  -0.00001   0.00179   0.00181   0.00306
 115        9D-2        0.00000   0.00000   0.00000   0.00000   0.00000
 116 4   H  1S         -0.00106  -0.00055   0.02474   0.09257  -0.06944
 117        2S         -0.00067   0.00044  -0.00054   0.08497  -0.06023
 118        3S         -0.00356  -0.00266  -0.04601  -0.02986   0.01294
 119        4S         -0.00027  -0.00016  -0.00176  -0.00207  -0.00766
 120        5PX         0.00000   0.00000   0.00000   0.00000   0.00000
 121        5PY        -0.00035  -0.00015   0.00117   0.00773  -0.00497
 122        5PZ        -0.00025  -0.00010   0.00097   0.00396  -0.00616
 123        6PX         0.00000   0.00000   0.00000   0.00000   0.00000
 124        6PY        -0.00047   0.00020  -0.00975  -0.00076   0.01255
 125        6PZ        -0.00015   0.00031  -0.00945  -0.00440  -0.00425
 126        7PX         0.00000   0.00000   0.00000   0.00000   0.00000
 127        7PY        -0.00048   0.00014  -0.00673  -0.01616   0.00567
 128        7PZ        -0.00073  -0.00103  -0.01851  -0.00574  -0.00742
 129        8D 0        0.00007   0.00000   0.00029  -0.00016  -0.00187
 130        8D+1        0.00000   0.00000   0.00000   0.00000   0.00000
 131        8D-1       -0.00029  -0.00013  -0.00073   0.00087  -0.00263
 132        8D+2        0.00018   0.00008   0.00055  -0.00108   0.00013
 133        8D-2        0.00000   0.00000   0.00000   0.00000   0.00000
 134        9D 0       -0.00024  -0.00003  -0.00197  -0.00131  -0.00114
 135        9D+1        0.00000   0.00000   0.00000   0.00000   0.00000
 136        9D-1        0.00012   0.00003  -0.00384  -0.00218   0.00361
 137        9D+2        0.00023  -0.00001   0.00179   0.00181  -0.00306
 138        9D-2        0.00000   0.00000   0.00000   0.00000   0.00000
                           6         7         8         9        10
     Eigenvalues --     1.96057   1.95646   1.92411   0.06461   0.02850
   1 1   O  1S          0.00530   0.00000   0.00000   0.00000   0.00000
   2        2S          0.00518   0.00000   0.00000   0.00000   0.00000
   3        3S          0.00561   0.00000   0.00000   0.00000   0.00000
   4        4S          0.11462   0.00000   0.00000   0.00000   0.00000
   5        5S          0.06176   0.00000   0.00000   0.00000   0.00000
   6        6PX         0.00000   0.00000   0.28192  -0.36596   0.00000
   7        6PY         0.00000   0.23608   0.00000   0.00000  -0.39894
   8        6PZ         0.27805   0.00000   0.00000   0.00000   0.00000
   9        7PX         0.00000   0.00000   0.35466  -0.43558   0.00000
  10        7PY         0.00000   0.29123   0.00000   0.00000  -0.30642
  11        7PZ         0.33500   0.00000   0.00000   0.00000   0.00000
  12        8PX         0.00000   0.00000   0.23283  -0.08103   0.00000
  13        8PY         0.00000   0.23780   0.00000   0.00000   0.16214
  14        8PZ         0.17844   0.00000   0.00000   0.00000   0.00000
  15        9PX         0.00000   0.00000   0.02073   0.00249   0.00000
  16        9PY         0.00000   0.03980   0.00000   0.00000   0.09712
  17        9PZ         0.00345   0.00000   0.00000   0.00000   0.00000
  18       10D 0       -0.01192   0.00000   0.00000   0.00000   0.00000
  19       10D+1        0.00000   0.00000  -0.01027  -0.01349   0.00000
  20       10D-1        0.00000  -0.00086   0.00000   0.00000  -0.03101
  21       10D+2       -0.00014   0.00000   0.00000   0.00000   0.00000
  22       10D-2        0.00000   0.00000   0.00000   0.00000   0.00000
  23       11D 0       -0.02852   0.00000   0.00000   0.00000   0.00000
  24       11D+1        0.00000   0.00000  -0.02857  -0.01210   0.00000
  25       11D-1        0.00000  -0.00196   0.00000   0.00000  -0.03935
  26       11D+2       -0.00101   0.00000   0.00000   0.00000   0.00000
  27       11D-2        0.00000   0.00000   0.00000   0.00000   0.00000
  28       12D 0       -0.00622   0.00000   0.00000   0.00000   0.00000
  29       12D+1        0.00000   0.00000  -0.01223   0.01689   0.00000
  30       12D-1        0.00000  -0.00295   0.00000   0.00000   0.01831
  31       12D+2       -0.00142   0.00000   0.00000   0.00000   0.00000
  32       12D-2        0.00000   0.00000   0.00000   0.00000   0.00000
  33       13F 0        0.00467   0.00000   0.00000   0.00000   0.00000
  34       13F+1        0.00000   0.00000   0.00515   0.00442   0.00000
  35       13F-1        0.00000   0.00040   0.00000   0.00000   0.00695
  36       13F+2        0.00114   0.00000   0.00000   0.00000   0.00000
  37       13F-2        0.00000   0.00000   0.00000   0.00000   0.00000
  38       13F+3        0.00000   0.00000   0.00153  -0.00353   0.00000
  39       13F-3        0.00000   0.00122   0.00000   0.00000  -0.00162
  40       14F 0        0.00638   0.00000   0.00000   0.00000   0.00000
  41       14F+1        0.00000   0.00000   0.00348  -0.00374   0.00000
  42       14F-1        0.00000   0.00162   0.00000   0.00000  -0.00205
  43       14F+2        0.00091   0.00000   0.00000   0.00000   0.00000
  44       14F-2        0.00000   0.00000   0.00000   0.00000   0.00000
  45       14F+3        0.00000   0.00000   0.00121  -0.00298   0.00000
  46       14F-3        0.00000  -0.00007   0.00000   0.00000  -0.00251
  47 2   C  1S          0.01066   0.00000   0.00000   0.00000   0.00000
  48        2S         -0.01698   0.00000   0.00000   0.00000   0.00000
  49        3S         -0.00615   0.00000   0.00000   0.00000   0.00000
  50        4S          0.11599   0.00000   0.00000   0.00000   0.00000
  51        5S         -0.00020   0.00000   0.00000   0.00000   0.00000
  52        6PX         0.00000   0.00000   0.19054   0.31155   0.00000
  53        6PY         0.00000  -0.16508   0.00000   0.00000   0.33874
  54        6PZ        -0.24144   0.00000   0.00000   0.00000   0.00000
  55        7PX         0.00000   0.00000   0.24829   0.48363   0.00000
  56        7PY         0.00000  -0.23118   0.00000   0.00000   0.64727
  57        7PZ        -0.25555   0.00000   0.00000   0.00000   0.00000
  58        8PX         0.00000   0.00000   0.12236   0.18942   0.00000
  59        8PY         0.00000  -0.25058   0.00000   0.00000   0.36781
  60        8PZ        -0.08512   0.00000   0.00000   0.00000   0.00000
  61        9PX         0.00000   0.00000   0.00167   0.00333   0.00000
  62        9PY         0.00000  -0.02276   0.00000   0.00000  -0.03594
  63        9PZ        -0.00175   0.00000   0.00000   0.00000   0.00000
  64       10D 0       -0.01934   0.00000   0.00000   0.00000   0.00000
  65       10D+1        0.00000   0.00000   0.02027  -0.00007   0.00000
  66       10D-1        0.00000   0.03335   0.00000   0.00000   0.03653
  67       10D+2       -0.00627   0.00000   0.00000   0.00000   0.00000
  68       10D-2        0.00000   0.00000   0.00000   0.00000   0.00000
  69       11D 0       -0.01154   0.00000   0.00000   0.00000   0.00000
  70       11D+1        0.00000   0.00000   0.02958   0.03983   0.00000
  71       11D-1        0.00000   0.08345   0.00000   0.00000   0.02542
  72       11D+2       -0.00642   0.00000   0.00000   0.00000   0.00000
  73       11D-2        0.00000   0.00000   0.00000   0.00000   0.00000
  74       12D 0        0.00195   0.00000   0.00000   0.00000   0.00000
  75       12D+1        0.00000   0.00000  -0.00448   0.00960   0.00000
  76       12D-1        0.00000   0.06774   0.00000   0.00000   0.02699
  77       12D+2       -0.00497   0.00000   0.00000   0.00000   0.00000
  78       12D-2        0.00000   0.00000   0.00000   0.00000   0.00000
  79       13F 0       -0.00752   0.00000   0.00000   0.00000   0.00000
  80       13F+1        0.00000   0.00000   0.00690   0.00968   0.00000
  81       13F-1        0.00000   0.00412   0.00000   0.00000   0.02435
  82       13F+2       -0.00141   0.00000   0.00000   0.00000   0.00000
  83       13F-2        0.00000   0.00000   0.00000   0.00000   0.00000
  84       13F+3        0.00000   0.00000   0.00023  -0.00124   0.00000
  85       13F-3        0.00000   0.00254   0.00000   0.00000  -0.00396
  86       14F 0        0.01085   0.00000   0.00000   0.00000   0.00000
  87       14F+1        0.00000   0.00000   0.00465   0.01763   0.00000
  88       14F-1        0.00000   0.00509   0.00000   0.00000   0.10653
  89       14F+2        0.00687   0.00000   0.00000   0.00000   0.00000
  90       14F-2        0.00000   0.00000   0.00000   0.00000   0.00000
  91       14F+3        0.00000   0.00000   0.00225   0.00626   0.00000
  92       14F-3        0.00000   0.00565   0.00000   0.00000   0.00555
  93 3   H  1S          0.07475  -0.13657   0.00000   0.00000  -0.15169
  94        2S          0.10410  -0.17424   0.00000   0.00000  -0.55890
  95        3S          0.00637   0.07456   0.00000   0.00000  -0.50332
  96        4S          0.00030   0.00909   0.00000   0.00000   0.00408
  97        5PX         0.00000   0.00000   0.00335   0.01208   0.00000
  98        5PY        -0.00824   0.00677   0.00000   0.00000  -0.00500
  99        5PZ         0.00197  -0.00495   0.00000   0.00000   0.01749
 100        6PX         0.00000   0.00000   0.00989   0.02449   0.00000
 101        6PY        -0.01334  -0.00721   0.00000   0.00000   0.13141
 102        6PZ         0.00189   0.00450   0.00000   0.00000   0.02387
 103        7PX         0.00000   0.00000  -0.00431  -0.00698   0.00000
 104        7PY         0.00484  -0.04141   0.00000   0.00000   0.09257
 105        7PZ        -0.00273   0.02027   0.00000   0.00000  -0.03325
 106        8D 0       -0.00201   0.00045   0.00000   0.00000   0.00997
 107        8D+1        0.00000   0.00000   0.00117   0.00387   0.00000
 108        8D-1       -0.00163   0.00104   0.00000   0.00000  -0.00768
 109        8D+2       -0.00219   0.00072   0.00000   0.00000   0.00440
 110        8D-2        0.00000   0.00000  -0.00123  -0.00592   0.00000
 111        9D 0        0.00386  -0.00244   0.00000   0.00000   0.00993
 112        9D+1        0.00000   0.00000   0.00136   0.00182   0.00000
 113        9D-1        0.00033   0.00004   0.00000   0.00000   0.01750
 114        9D+2       -0.00220  -0.00144   0.00000   0.00000   0.01727
 115        9D-2        0.00000   0.00000   0.00108   0.00378   0.00000
 116 4   H  1S          0.07475   0.13657   0.00000   0.00000   0.15169
 117        2S          0.10410   0.17424   0.00000   0.00000   0.55890
 118        3S          0.00637  -0.07456   0.00000   0.00000   0.50332
 119        4S          0.00030  -0.00909   0.00000   0.00000  -0.00408
 120        5PX         0.00000   0.00000   0.00335   0.01208   0.00000
 121        5PY         0.00824   0.00677   0.00000   0.00000  -0.00500
 122        5PZ         0.00197   0.00495   0.00000   0.00000  -0.01749
 123        6PX         0.00000   0.00000   0.00989   0.02449   0.00000
 124        6PY         0.01334  -0.00721   0.00000   0.00000   0.13141
 125        6PZ         0.00189  -0.00450   0.00000   0.00000  -0.02387
 126        7PX         0.00000   0.00000  -0.00431  -0.00698   0.00000
 127        7PY        -0.00484  -0.04141   0.00000   0.00000   0.09257
 128        7PZ        -0.00273  -0.02027   0.00000   0.00000   0.03325
 129        8D 0       -0.00201  -0.00045   0.00000   0.00000  -0.00997
 130        8D+1        0.00000   0.00000   0.00117   0.00387   0.00000
 131        8D-1        0.00163   0.00104   0.00000   0.00000  -0.00768
 132        8D+2       -0.00219  -0.00072   0.00000   0.00000  -0.00440
 133        8D-2        0.00000   0.00000   0.00123   0.00592   0.00000
 134        9D 0        0.00386   0.00244   0.00000   0.00000  -0.00993
 135        9D+1        0.00000   0.00000   0.00136   0.00182   0.00000
 136        9D-1       -0.00033   0.00004   0.00000   0.00000   0.01750
 137        9D+2       -0.00220   0.00144   0.00000   0.00000  -0.01727
 138        9D-2        0.00000   0.00000  -0.00108  -0.00378   0.00000
                          11        12        13        14        15
     Eigenvalues --     0.02604   0.02026   0.01190   0.01189   0.00761
   1 1   O  1S         -0.07122  -0.03034   0.00000  -0.23629   0.00000
   2        2S          0.27924   0.13193   0.00000   0.74481   0.00000
   3        3S          0.10818   0.05644   0.00000   0.63256   0.00000
   4        4S          0.59420   0.43552   0.00000  -1.36887   0.00000
   5        5S          0.35446   0.30227   0.00000  -0.58957   0.00000
   6        6PX         0.00000   0.00000   0.00000   0.00000   0.00000
   7        6PY         0.00000   0.00000   0.44858   0.00000   0.13382
   8        6PZ        -0.43274  -0.14738   0.00000   0.26414   0.00000
   9        7PX         0.00000   0.00000   0.00000   0.00000   0.00000
  10        7PY         0.00000   0.00000   0.19920   0.00000   0.03041
  11        7PZ        -0.51376  -0.20971   0.00000   0.06759   0.00000
  12        8PX         0.00000   0.00000   0.00000   0.00000   0.00000
  13        8PY         0.00000   0.00000  -0.40443   0.00000  -0.17627
  14        8PZ        -0.09867  -0.19269   0.00000  -0.12245   0.00000
  15        9PX         0.00000   0.00000   0.00000   0.00000   0.00000
  16        9PY         0.00000   0.00000  -0.06085   0.00000  -0.04276
  17        9PZ        -0.03700  -0.05673   0.00000   0.04096   0.00000
  18       10D 0       -0.02978  -0.02444   0.00000   0.00660   0.00000
  19       10D+1        0.00000   0.00000   0.00000   0.00000   0.00000
  20       10D-1        0.00000   0.00000  -0.01060   0.00000  -0.20856
  21       10D+2       -0.01047   0.00175   0.00000  -0.02469   0.00000
  22       10D-2        0.00000   0.00000   0.00000   0.00000   0.00000
  23       11D 0       -0.01613  -0.03565   0.00000  -0.03085   0.00000
  24       11D+1        0.00000   0.00000   0.00000   0.00000   0.00000
  25       11D-1        0.00000   0.00000  -0.07885   0.00000  -0.51203
  26       11D+2       -0.02161   0.00765   0.00000   0.00005   0.00000
  27       11D-2        0.00000   0.00000   0.00000   0.00000   0.00000
  28       12D 0       -0.00278   0.02887   0.00000  -0.02932   0.00000
  29       12D+1        0.00000   0.00000   0.00000   0.00000   0.00000
  30       12D-1        0.00000   0.00000  -0.02057   0.00000  -0.12649
  31       12D+2       -0.00948   0.00045   0.00000   0.00817   0.00000
  32       12D-2        0.00000   0.00000   0.00000   0.00000   0.00000
  33       13F 0       -0.00050   0.00470   0.00000  -0.00251   0.00000
  34       13F+1        0.00000   0.00000   0.00000   0.00000   0.00000
  35       13F-1        0.00000   0.00000   0.01363   0.00000   0.03522
  36       13F+2       -0.00059  -0.00160   0.00000   0.00028   0.00000
  37       13F-2        0.00000   0.00000   0.00000   0.00000   0.00000
  38       13F+3        0.00000   0.00000   0.00000   0.00000   0.00000
  39       13F-3        0.00000   0.00000  -0.00286   0.00000  -0.00028
  40       14F 0        0.00802   0.01108   0.00000   0.01808   0.00000
  41       14F+1        0.00000   0.00000   0.00000   0.00000   0.00000
  42       14F-1        0.00000   0.00000   0.00771   0.00000   0.07571
  43       14F+2        0.00102  -0.00528   0.00000   0.00732   0.00000
  44       14F-2        0.00000   0.00000   0.00000   0.00000   0.00000
  45       14F+3        0.00000   0.00000   0.00000   0.00000   0.00000
  46       14F-3        0.00000   0.00000   0.01785   0.00000   0.00195
  47 2   C  1S          0.17270  -0.10196   0.00000  -0.00082   0.00000
  48        2S         -0.64803   0.40269   0.00000   0.07133   0.00000
  49        3S         -0.27432   0.23496   0.00000   0.07047   0.00000
  50        4S         -0.21711   0.08122   0.00000  -0.13520   0.00000
  51        5S         -0.10592  -0.09806   0.00000   0.11530   0.00000
  52        6PX         0.00000   0.00000   0.00000   0.00000   0.00000
  53        6PY         0.00000   0.00000   0.40846   0.00000  -0.12304
  54        6PZ        -0.21256  -0.42233   0.00000  -0.01581   0.00000
  55        7PX         0.00000   0.00000   0.00000   0.00000   0.00000
  56        7PY         0.00000   0.00000   0.77115   0.00000  -0.17380
  57        7PZ        -0.52770  -0.75550   0.00000   0.12306   0.00000
  58        8PX         0.00000   0.00000   0.00000   0.00000   0.00000
  59        8PY         0.00000   0.00000   0.53069   0.00000   0.04675
  60        8PZ        -0.29136  -0.25582   0.00000   0.27832   0.00000
  61        9PX         0.00000   0.00000   0.00000   0.00000   0.00000
  62        9PY         0.00000   0.00000   0.04730   0.00000  -0.00209
  63        9PZ        -0.01289  -0.00846   0.00000   0.01989   0.00000
  64       10D 0        0.01837   0.01456   0.00000   0.01364   0.00000
  65       10D+1        0.00000   0.00000   0.00000   0.00000   0.00000
  66       10D-1        0.00000   0.00000  -0.10241   0.00000   0.24702
  67       10D+2       -0.00576   0.01309   0.00000  -0.02653   0.00000
  68       10D-2        0.00000   0.00000   0.00000   0.00000   0.00000
  69       11D 0       -0.08533  -0.07173   0.00000  -0.01667   0.00000
  70       11D+1        0.00000   0.00000   0.00000   0.00000   0.00000
  71       11D-1        0.00000   0.00000  -0.58674   0.00000   0.09047
  72       11D+2       -0.07127  -0.04185   0.00000  -0.01877   0.00000
  73       11D-2        0.00000   0.00000   0.00000   0.00000   0.00000
  74       12D 0       -0.06499  -0.03895   0.00000   0.10521   0.00000
  75       12D+1        0.00000   0.00000   0.00000   0.00000   0.00000
  76       12D-1        0.00000   0.00000  -0.19462   0.00000  -0.15588
  77       12D+2       -0.01985  -0.02693   0.00000   0.05732   0.00000
  78       12D-2        0.00000   0.00000   0.00000   0.00000   0.00000
  79       13F 0       -0.00703  -0.01570   0.00000  -0.00088   0.00000
  80       13F+1        0.00000   0.00000   0.00000   0.00000   0.00000
  81       13F-1        0.00000   0.00000  -0.00733   0.00000   0.00691
  82       13F+2       -0.00037   0.01108   0.00000  -0.00105   0.00000
  83       13F-2        0.00000   0.00000   0.00000   0.00000   0.00000
  84       13F+3        0.00000   0.00000   0.00000   0.00000   0.00000
  85       13F-3        0.00000   0.00000  -0.02491   0.00000   0.01768
  86       14F 0       -0.00045  -0.00120   0.00000  -0.03310   0.00000
  87       14F+1        0.00000   0.00000   0.00000   0.00000   0.00000
  88       14F-1        0.00000   0.00000  -0.13086   0.00000  -0.09424
  89       14F+2        0.01748   0.01543   0.00000  -0.01435   0.00000
  90       14F-2        0.00000   0.00000   0.00000   0.00000   0.00000
  91       14F+3        0.00000   0.00000   0.00000   0.00000   0.00000
  92       14F-3        0.00000   0.00000  -0.08772   0.00000   0.01075
  93 3   H  1S          0.11758  -0.23252  -0.09256   0.05953  -0.12429
  94        2S          0.09335  -0.62872  -0.86546   0.14299   0.07567
  95        3S         -0.08126  -0.20952  -0.69177   0.19460   0.09372
  96        4S          0.00636   0.00748  -0.03415  -0.00591   0.01651
  97        5PX         0.00000   0.00000   0.00000   0.00000   0.00000
  98        5PY        -0.00120  -0.02389  -0.03287  -0.01325   0.06454
  99        5PZ        -0.01227  -0.00849   0.01767   0.00758  -0.01382
 100        6PX         0.00000   0.00000   0.00000   0.00000   0.00000
 101        6PY         0.02227   0.05527   0.12695  -0.04479   0.07785
 102        6PZ        -0.06263  -0.08306  -0.18029   0.02856  -0.02172
 103        7PX         0.00000   0.00000   0.00000   0.00000   0.00000
 104        7PY         0.01605   0.02389   0.14194  -0.01227   0.05342
 105        7PZ        -0.05209  -0.04127  -0.09258   0.09872   0.03083
 106        8D 0       -0.00295  -0.01105  -0.00621  -0.00270   0.01764
 107        8D+1        0.00000   0.00000   0.00000   0.00000   0.00000
 108        8D-1        0.00860  -0.00229  -0.00637  -0.00575   0.00673
 109        8D+2        0.00014  -0.00961  -0.01188  -0.00690   0.01594
 110        8D-2        0.00000   0.00000   0.00000   0.00000   0.00000
 111        9D 0       -0.00549  -0.00125   0.00618  -0.00694   0.02136
 112        9D+1        0.00000   0.00000   0.00000   0.00000   0.00000
 113        9D-1        0.01918   0.01678   0.01689  -0.01976   0.01059
 114        9D+2       -0.00049   0.00857   0.00684  -0.00296   0.01847
 115        9D-2        0.00000   0.00000   0.00000   0.00000   0.00000
 116 4   H  1S          0.11758  -0.23252   0.09256   0.05953   0.12429
 117        2S          0.09335  -0.62872   0.86546   0.14299  -0.07567
 118        3S         -0.08126  -0.20952   0.69177   0.19460  -0.09372
 119        4S          0.00636   0.00748   0.03415  -0.00591  -0.01651
 120        5PX         0.00000   0.00000   0.00000   0.00000   0.00000
 121        5PY         0.00120   0.02389  -0.03287   0.01325   0.06454
 122        5PZ        -0.01227  -0.00849  -0.01767   0.00758   0.01382
 123        6PX         0.00000   0.00000   0.00000   0.00000   0.00000
 124        6PY        -0.02227  -0.05527   0.12695   0.04479   0.07785
 125        6PZ        -0.06263  -0.08306   0.18029   0.02856   0.02172
 126        7PX         0.00000   0.00000   0.00000   0.00000   0.00000
 127        7PY        -0.01605  -0.02389   0.14194   0.01227   0.05342
 128        7PZ        -0.05209  -0.04127   0.09258   0.09872  -0.03083
 129        8D 0       -0.00295  -0.01105   0.00621  -0.00270  -0.01764
 130        8D+1        0.00000   0.00000   0.00000   0.00000   0.00000
 131        8D-1       -0.00860   0.00229  -0.00637   0.00575   0.00673
 132        8D+2        0.00014  -0.00961   0.01188  -0.00690  -0.01594
 133        8D-2        0.00000   0.00000   0.00000   0.00000   0.00000
 134        9D 0       -0.00549  -0.00125  -0.00618  -0.00694  -0.02136
 135        9D+1        0.00000   0.00000   0.00000   0.00000   0.00000
 136        9D-1       -0.01918  -0.01678   0.01689   0.01976   0.01059
 137        9D+2       -0.00049   0.00857  -0.00684  -0.00296  -0.01847
 138        9D-2        0.00000   0.00000   0.00000   0.00000   0.00000
                          16        17        18        19        20
     Eigenvalues --     0.00748   0.00721   0.00708   0.00701   0.00593
   1 1   O  1S         -0.01221   0.00000   0.00000  -0.02345   0.00000
   2        2S          0.01892   0.00000   0.00000   0.05347   0.00000
   3        3S          0.03330   0.00000   0.00000   0.07208   0.00000
   4        4S         -0.07738   0.00000   0.00000  -0.18172   0.00000
   5        5S          0.11321   0.00000   0.00000  -0.11113   0.00000
   6        6PX         0.00000   0.20645   0.00000   0.00000  -0.45431
   7        6PY         0.00000   0.00000   0.00000   0.00000   0.00000
   8        6PZ        -0.06303   0.00000   0.00000   0.14057   0.00000
   9        7PX         0.00000   0.09589   0.00000   0.00000  -0.16183
  10        7PY         0.00000   0.00000   0.00000   0.00000   0.00000
  11        7PZ         0.01768   0.00000   0.00000   0.01626   0.00000
  12        8PX         0.00000  -0.38137   0.00000   0.00000   0.54185
  13        8PY         0.00000   0.00000   0.00000   0.00000   0.00000
  14        8PZ         0.21147   0.00000   0.00000  -0.26536   0.00000
  15        9PX         0.00000  -0.08009   0.00000   0.00000   0.08447
  16        9PY         0.00000   0.00000   0.00000   0.00000   0.00000
  17        9PZ         0.00122   0.00000   0.00000  -0.01271   0.00000
  18       10D 0        0.20786   0.00000   0.00000  -0.06676   0.00000
  19       10D+1        0.00000  -0.19980   0.00000   0.00000  -0.09416
  20       10D-1        0.00000   0.00000   0.00000   0.00000   0.00000
  21       10D+2        0.04464   0.00000   0.00000   0.16921   0.00000
  22       10D-2        0.00000   0.00000   0.19779   0.00000   0.00000
  23       11D 0        0.45241   0.00000   0.00000  -0.14828   0.00000
  24       11D+1        0.00000  -0.47135   0.00000   0.00000  -0.18171
  25       11D-1        0.00000   0.00000   0.00000   0.00000   0.00000
  26       11D+2        0.08817   0.00000   0.00000   0.39872   0.00000
  27       11D-2        0.00000   0.00000   0.43528   0.00000   0.00000
  28       12D 0        0.05625   0.00000   0.00000   0.05036   0.00000
  29       12D+1        0.00000  -0.00515   0.00000   0.00000  -0.07079
  30       12D-1        0.00000   0.00000   0.00000   0.00000   0.00000
  31       12D+2        0.01543   0.00000   0.00000   0.10294   0.00000
  32       12D-2        0.00000   0.00000   0.07559   0.00000   0.00000
  33       13F 0       -0.03910   0.00000   0.00000   0.01573   0.00000
  34       13F+1        0.00000   0.04986   0.00000   0.00000  -0.00824
  35       13F-1        0.00000   0.00000   0.00000   0.00000   0.00000
  36       13F+2       -0.00567   0.00000   0.00000  -0.02145   0.00000
  37       13F-2        0.00000   0.00000  -0.02525   0.00000   0.00000
  38       13F+3        0.00000  -0.00623   0.00000   0.00000   0.01594
  39       13F-3        0.00000   0.00000   0.00000   0.00000   0.00000
  40       14F 0       -0.07055   0.00000   0.00000   0.00921   0.00000
  41       14F+1        0.00000   0.05441   0.00000   0.00000   0.02447
  42       14F-1        0.00000   0.00000   0.00000   0.00000   0.00000
  43       14F+2       -0.00662   0.00000   0.00000  -0.05095   0.00000
  44       14F-2        0.00000   0.00000  -0.04649   0.00000   0.00000
  45       14F+3        0.00000   0.00807   0.00000   0.00000  -0.01090
  46       14F-3        0.00000   0.00000   0.00000   0.00000   0.00000
  47 2   C  1S         -0.06397   0.00000   0.00000   0.08987   0.00000
  48        2S          0.16663   0.00000   0.00000  -0.27824   0.00000
  49        3S          0.11659   0.00000   0.00000  -0.24922   0.00000
  50        4S          0.12949   0.00000   0.00000  -0.59083   0.00000
  51        5S         -0.01312   0.00000   0.00000  -0.07725   0.00000
  52        6PX         0.00000   0.25586   0.00000   0.00000  -0.19719
  53        6PY         0.00000   0.00000   0.00000   0.00000   0.00000
  54        6PZ         0.24672   0.00000   0.00000   0.05444   0.00000
  55        7PX         0.00000   0.13118   0.00000   0.00000  -0.33476
  56        7PY         0.00000   0.00000   0.00000   0.00000   0.00000
  57        7PZ        -0.26679   0.00000   0.00000   0.19866   0.00000
  58        8PX         0.00000  -0.13603   0.00000   0.00000   0.10119
  59        8PY         0.00000   0.00000   0.00000   0.00000   0.00000
  60        8PZ        -0.08798   0.00000   0.00000   0.29267   0.00000
  61        9PX         0.00000   0.02444   0.00000   0.00000  -0.01949
  62        9PY         0.00000   0.00000   0.00000   0.00000   0.00000
  63        9PZ         0.00564   0.00000   0.00000   0.02336   0.00000
  64       10D 0        0.22090   0.00000   0.00000  -0.02743   0.00000
  65       10D+1        0.00000   0.19046   0.00000   0.00000   0.20955
  66       10D-1        0.00000   0.00000   0.00000   0.00000   0.00000
  67       10D+2        0.05538   0.00000   0.00000   0.22315   0.00000
  68       10D-2        0.00000   0.00000   0.24542   0.00000   0.00000
  69       11D 0        0.15059   0.00000   0.00000   0.03755   0.00000
  70       11D+1        0.00000   0.02933   0.00000   0.00000   0.31314
  71       11D-1        0.00000   0.00000   0.00000   0.00000   0.00000
  72       11D+2        0.01846   0.00000   0.00000   0.41544   0.00000
  73       11D-2        0.00000   0.00000   0.31151   0.00000   0.00000
  74       12D 0       -0.03467   0.00000   0.00000   0.08083   0.00000
  75       12D+1        0.00000   0.00586   0.00000   0.00000  -0.05199
  76       12D-1        0.00000   0.00000   0.00000   0.00000   0.00000
  77       12D+2       -0.01784   0.00000   0.00000   0.07115   0.00000
  78       12D-2        0.00000   0.00000   0.01031   0.00000   0.00000
  79       13F 0        0.05711   0.00000   0.00000  -0.05253   0.00000
  80       13F+1        0.00000   0.04155   0.00000   0.00000  -0.00689
  81       13F-1        0.00000   0.00000   0.00000   0.00000   0.00000
  82       13F+2        0.01861   0.00000   0.00000   0.00225   0.00000
  83       13F-2        0.00000   0.00000   0.00828   0.00000   0.00000
  84       13F+3        0.00000  -0.00007   0.00000   0.00000   0.04809
  85       13F-3        0.00000   0.00000   0.00000   0.00000   0.00000
  86       14F 0       -0.04505   0.00000   0.00000  -0.08808   0.00000
  87       14F+1        0.00000  -0.06506   0.00000   0.00000   0.03820
  88       14F-1        0.00000   0.00000   0.00000   0.00000   0.00000
  89       14F+2       -0.02332   0.00000   0.00000  -0.11077   0.00000
  90       14F-2        0.00000   0.00000  -0.01204   0.00000   0.00000
  91       14F+3        0.00000  -0.05836   0.00000   0.00000   0.03853
  92       14F-3        0.00000   0.00000   0.00000   0.00000   0.00000
  93 3   H  1S         -0.03216   0.00000   0.00000  -0.09454   0.00000
  94        2S         -0.09840   0.00000   0.00000   0.45502   0.00000
  95        3S         -0.07284   0.00000   0.00000   0.41159   0.00000
  96        4S         -0.00014   0.00000   0.00000   0.01414   0.00000
  97        5PX         0.00000  -0.01943   0.06921   0.00000  -0.06482
  98        5PY        -0.00094   0.00000   0.00000   0.03165   0.00000
  99        5PZ        -0.05532   0.00000   0.00000  -0.04930   0.00000
 100        6PX         0.00000  -0.14794   0.11610   0.00000  -0.04465
 101        6PY         0.05797   0.00000   0.00000  -0.06868   0.00000
 102        6PZ        -0.14801   0.00000   0.00000   0.00321   0.00000
 103        7PX         0.00000  -0.05025   0.00344   0.00000  -0.00280
 104        7PY         0.02024   0.00000   0.00000  -0.05036   0.00000
 105        7PZ        -0.07369   0.00000   0.00000   0.06349   0.00000
 106        8D 0       -0.01392   0.00000   0.00000  -0.01582   0.00000
 107        8D+1        0.00000  -0.00403   0.02608   0.00000  -0.01215
 108        8D-1        0.02822   0.00000   0.00000   0.01463   0.00000
 109        8D+2       -0.00102   0.00000   0.00000   0.01035   0.00000
 110        8D-2        0.00000   0.01691  -0.03774   0.00000   0.03317
 111        9D 0       -0.02192   0.00000   0.00000  -0.01323   0.00000
 112        9D+1        0.00000  -0.05631   0.00200   0.00000   0.03568
 113        9D-1        0.02801   0.00000   0.00000  -0.00777   0.00000
 114        9D+2        0.02231   0.00000   0.00000   0.01923   0.00000
 115        9D-2        0.00000   0.02865  -0.00551   0.00000  -0.01317
 116 4   H  1S         -0.03216   0.00000   0.00000  -0.09454   0.00000
 117        2S         -0.09840   0.00000   0.00000   0.45502   0.00000
 118        3S         -0.07284   0.00000   0.00000   0.41159   0.00000
 119        4S         -0.00014   0.00000   0.00000   0.01414   0.00000
 120        5PX         0.00000  -0.01943  -0.06921   0.00000  -0.06482
 121        5PY         0.00094   0.00000   0.00000  -0.03165   0.00000
 122        5PZ        -0.05532   0.00000   0.00000  -0.04930   0.00000
 123        6PX         0.00000  -0.14794  -0.11610   0.00000  -0.04465
 124        6PY        -0.05797   0.00000   0.00000   0.06868   0.00000
 125        6PZ        -0.14801   0.00000   0.00000   0.00321   0.00000
 126        7PX         0.00000  -0.05025  -0.00344   0.00000  -0.00280
 127        7PY        -0.02024   0.00000   0.00000   0.05036   0.00000
 128        7PZ        -0.07369   0.00000   0.00000   0.06349   0.00000
 129        8D 0       -0.01392   0.00000   0.00000  -0.01582   0.00000
 130        8D+1        0.00000  -0.00403  -0.02608   0.00000  -0.01215
 131        8D-1       -0.02822   0.00000   0.00000  -0.01463   0.00000
 132        8D+2       -0.00102   0.00000   0.00000   0.01035   0.00000
 133        8D-2        0.00000  -0.01691  -0.03774   0.00000  -0.03317
 134        9D 0       -0.02192   0.00000   0.00000  -0.01323   0.00000
 135        9D+1        0.00000  -0.05631  -0.00200   0.00000   0.03568
 136        9D-1       -0.02801   0.00000   0.00000   0.00777   0.00000
 137        9D+2        0.02231   0.00000   0.00000   0.01923   0.00000
 138        9D-2        0.00000  -0.02865  -0.00551   0.00000   0.01317
                          21        22        23        24        25
     Eigenvalues --     0.00518   0.00483   0.00338   0.00283   0.00251
   1 1   O  1S         -0.00978   0.00000   0.00000   0.11854   0.00000
   2        2S          0.02294   0.00000   0.00000  -0.33609   0.00000
   3        3S          0.00909   0.00000   0.00000  -0.37980   0.00000
   4        4S          0.38547   0.00000   0.00000  -0.28802   0.00000
   5        5S          0.12785   0.00000   0.00000  -0.52313   0.00000
   6        6PX         0.00000   0.00000   0.00000   0.00000  -0.14603
   7        6PY         0.00000   0.00000   0.18809   0.00000   0.00000
   8        6PZ        -0.20277   0.00000   0.00000   0.36391   0.00000
   9        7PX         0.00000   0.00000   0.00000   0.00000   0.03465
  10        7PY         0.00000   0.00000  -0.03766   0.00000   0.00000
  11        7PZ        -0.04748   0.00000   0.00000   0.08691   0.00000
  12        8PX         0.00000   0.00000   0.00000   0.00000  -0.42018
  13        8PY         0.00000   0.00000  -0.69761   0.00000   0.00000
  14        8PZ         0.01464   0.00000   0.00000  -0.24638   0.00000
  15        9PX         0.00000   0.00000   0.00000   0.00000  -0.06672
  16        9PY         0.00000   0.00000  -0.04122   0.00000   0.00000
  17        9PZ        -0.01770   0.00000   0.00000   0.06752   0.00000
  18       10D 0        0.05960   0.00000   0.00000  -0.17219   0.00000
  19       10D+1        0.00000   0.00000   0.00000   0.00000   0.33202
  20       10D-1        0.00000   0.00000   0.30082   0.00000   0.00000
  21       10D+2        0.25883   0.00000   0.00000   0.07920   0.00000
  22       10D-2        0.00000   0.27342   0.00000   0.00000   0.00000
  23       11D 0        0.13134   0.00000   0.00000  -0.34754   0.00000
  24       11D+1        0.00000   0.00000   0.00000   0.00000   0.55439
  25       11D-1        0.00000   0.00000   0.45690   0.00000   0.00000
  26       11D+2        0.50464   0.00000   0.00000   0.05767   0.00000
  27       11D-2        0.00000   0.51227   0.00000   0.00000   0.00000
  28       12D 0        0.02115   0.00000   0.00000   0.03847   0.00000
  29       12D+1        0.00000   0.00000   0.00000   0.00000   0.18859
  30       12D-1        0.00000   0.00000   0.17094   0.00000   0.00000
  31       12D+2        0.07326   0.00000   0.00000  -0.07892   0.00000
  32       12D-2        0.00000   0.09792   0.00000   0.00000   0.00000
  33       13F 0       -0.01201   0.00000   0.00000   0.00805   0.00000
  34       13F+1        0.00000   0.00000   0.00000   0.00000   0.03216
  35       13F-1        0.00000   0.00000   0.00364   0.00000   0.00000
  36       13F+2       -0.01273   0.00000   0.00000  -0.00038   0.00000
  37       13F-2        0.00000  -0.00047   0.00000   0.00000   0.00000
  38       13F+3        0.00000   0.00000   0.00000   0.00000  -0.01092
  39       13F-3        0.00000   0.00000  -0.00124   0.00000   0.00000
  40       14F 0       -0.01020   0.00000   0.00000   0.02330   0.00000
  41       14F+1        0.00000   0.00000   0.00000   0.00000  -0.02144
  42       14F-1        0.00000   0.00000  -0.01896   0.00000   0.00000
  43       14F+2       -0.03421   0.00000   0.00000   0.03932   0.00000
  44       14F-2        0.00000  -0.02432   0.00000   0.00000   0.00000
  45       14F+3        0.00000   0.00000   0.00000   0.00000  -0.01628
  46       14F-3        0.00000   0.00000  -0.00230   0.00000   0.00000
  47 2   C  1S         -0.03613   0.00000   0.00000  -0.04347   0.00000
  48        2S          0.12303   0.00000   0.00000   0.17225   0.00000
  49        3S          0.11396   0.00000   0.00000   0.16458   0.00000
  50        4S         -0.25079   0.00000   0.00000  -0.25209   0.00000
  51        5S         -0.07919   0.00000   0.00000   0.05434   0.00000
  52        6PX         0.00000   0.00000   0.00000   0.00000   0.51508
  53        6PY         0.00000   0.00000   0.12610   0.00000   0.00000
  54        6PZ        -0.15419   0.00000   0.00000   0.24207   0.00000
  55        7PX         0.00000   0.00000   0.00000   0.00000   0.41312
  56        7PY         0.00000   0.00000   0.30766   0.00000   0.00000
  57        7PZ        -0.26321   0.00000   0.00000   0.17127   0.00000
  58        8PX         0.00000   0.00000   0.00000   0.00000   0.14683
  59        8PY         0.00000   0.00000   1.46547   0.00000   0.00000
  60        8PZ        -0.09250   0.00000   0.00000   0.73310   0.00000
  61        9PX         0.00000   0.00000   0.00000   0.00000   0.01466
  62        9PY         0.00000   0.00000   0.02370   0.00000   0.00000
  63        9PZ        -0.00347   0.00000   0.00000   0.03465   0.00000
  64       10D 0       -0.08246   0.00000   0.00000   0.27971   0.00000
  65       10D+1        0.00000   0.00000   0.00000   0.00000   0.17644
  66       10D-1        0.00000   0.00000   0.08266   0.00000   0.00000
  67       10D+2       -0.11482   0.00000   0.00000  -0.05084   0.00000
  68       10D-2        0.00000  -0.20378   0.00000   0.00000   0.00000
  69       11D 0       -0.21755   0.00000   0.00000   0.52675   0.00000
  70       11D+1        0.00000   0.00000   0.00000   0.00000   0.37193
  71       11D-1        0.00000   0.00000   0.28084   0.00000   0.00000
  72       11D+2       -0.24741   0.00000   0.00000  -0.09827   0.00000
  73       11D-2        0.00000  -0.26148   0.00000   0.00000   0.00000
  74       12D 0       -0.00898   0.00000   0.00000   0.24734   0.00000
  75       12D+1        0.00000   0.00000   0.00000   0.00000   0.03871
  76       12D-1        0.00000   0.00000  -0.17248   0.00000   0.00000
  77       12D+2        0.03548   0.00000   0.00000   0.16123   0.00000
  78       12D-2        0.00000   0.04211   0.00000   0.00000   0.00000
  79       13F 0        0.06789   0.00000   0.00000  -0.03872   0.00000
  80       13F+1        0.00000   0.00000   0.00000   0.00000  -0.00838
  81       13F-1        0.00000   0.00000  -0.22733   0.00000   0.00000
  82       13F+2        0.09405   0.00000   0.00000   0.07398   0.00000
  83       13F-2        0.00000   0.10477   0.00000   0.00000   0.00000
  84       13F+3        0.00000   0.00000   0.00000   0.00000   0.03833
  85       13F-3        0.00000   0.00000  -0.00193   0.00000   0.00000
  86       14F 0        0.05476   0.00000   0.00000   0.18368   0.00000
  87       14F+1        0.00000   0.00000   0.00000   0.00000   0.09290
  88       14F-1        0.00000   0.00000   0.00444   0.00000   0.00000
  89       14F+2        0.07769   0.00000   0.00000   0.11032   0.00000
  90       14F-2        0.00000   0.00868   0.00000   0.00000   0.00000
  91       14F+3        0.00000   0.00000   0.00000   0.00000   0.00392
  92       14F-3        0.00000   0.00000   0.00278   0.00000   0.00000
  93 3   H  1S          0.16245   0.00000  -0.30082   0.24518   0.00000
  94        2S         -0.23366   0.00000  -0.14161  -0.08011   0.00000
  95        3S         -0.10024   0.00000  -1.07725   0.31643   0.00000
  96        4S          0.00679   0.00000  -0.01214   0.00186   0.00000
  97        5PX         0.00000  -0.09206   0.00000   0.00000  -0.08989
  98        5PY        -0.01476   0.00000   0.10249  -0.10373   0.00000
  99        5PZ         0.06641   0.00000   0.01509  -0.03848   0.00000
 100        6PX         0.00000  -0.20426   0.00000   0.00000  -0.23708
 101        6PY         0.07093   0.00000   0.14922  -0.07707   0.00000
 102        6PZ         0.03545   0.00000   0.06037  -0.12213   0.00000
 103        7PX         0.00000  -0.06542   0.00000   0.00000  -0.07122
 104        7PY         0.03667   0.00000   0.32606   0.01437   0.00000
 105        7PZ         0.00396   0.00000  -0.17080   0.11255   0.00000
 106        8D 0        0.02155   0.00000   0.00565  -0.03454   0.00000
 107        8D+1        0.00000  -0.02993   0.00000   0.00000  -0.02115
 108        8D-1       -0.02255   0.00000   0.01936   0.00699   0.00000
 109        8D+2       -0.00267   0.00000   0.02587  -0.04749   0.00000
 110        8D-2        0.00000   0.04158   0.00000   0.00000   0.04449
 111        9D 0        0.00143   0.00000   0.01422   0.02330   0.00000
 112        9D+1        0.00000   0.00086   0.00000   0.00000  -0.01724
 113        9D-1        0.00486   0.00000   0.00469   0.02378   0.00000
 114        9D+2       -0.01342   0.00000   0.03120  -0.01378   0.00000
 115        9D-2        0.00000   0.02196   0.00000   0.00000   0.03766
 116 4   H  1S          0.16245   0.00000   0.30082   0.24518   0.00000
 117        2S         -0.23366   0.00000   0.14161  -0.08011   0.00000
 118        3S         -0.10024   0.00000   1.07725   0.31643   0.00000
 119        4S          0.00679   0.00000   0.01214   0.00186   0.00000
 120        5PX         0.00000   0.09206   0.00000   0.00000  -0.08989
 121        5PY         0.01476   0.00000   0.10249   0.10373   0.00000
 122        5PZ         0.06641   0.00000  -0.01509  -0.03848   0.00000
 123        6PX         0.00000   0.20426   0.00000   0.00000  -0.23708
 124        6PY        -0.07093   0.00000   0.14922   0.07707   0.00000
 125        6PZ         0.03545   0.00000  -0.06037  -0.12213   0.00000
 126        7PX         0.00000   0.06542   0.00000   0.00000  -0.07122
 127        7PY        -0.03667   0.00000   0.32606  -0.01437   0.00000
 128        7PZ         0.00396   0.00000   0.17080   0.11255   0.00000
 129        8D 0        0.02155   0.00000  -0.00565  -0.03454   0.00000
 130        8D+1        0.00000   0.02993   0.00000   0.00000  -0.02115
 131        8D-1        0.02255   0.00000   0.01936  -0.00699   0.00000
 132        8D+2       -0.00267   0.00000  -0.02587  -0.04749   0.00000
 133        8D-2        0.00000   0.04158   0.00000   0.00000  -0.04449
 134        9D 0        0.00143   0.00000  -0.01422   0.02330   0.00000
 135        9D+1        0.00000  -0.00086   0.00000   0.00000  -0.01724
 136        9D-1       -0.00486   0.00000   0.00469  -0.02378   0.00000
 137        9D+2       -0.01342   0.00000  -0.03120  -0.01378   0.00000
 138        9D-2        0.00000   0.02196   0.00000   0.00000  -0.03766
                          26        27        28        29        30
     Eigenvalues --     0.00211   0.00162   0.00137   0.00132   0.00108
   1 1   O  1S          0.00000   0.00823   0.04947   0.00000   0.00000
   2        2S          0.00000  -0.01915  -0.28212   0.00000   0.00000
   3        3S          0.00000  -0.01849  -0.27669   0.00000   0.00000
   4        4S          0.00000  -0.06127   0.16999   0.00000   0.00000
   5        5S          0.00000   0.16815  -0.50419   0.00000   0.00000
   6        6PX         0.00000   0.00000   0.00000   0.00000   0.00000
   7        6PY        -0.29892   0.00000   0.00000  -0.43796   0.00000
   8        6PZ         0.00000   0.22684   0.14387   0.00000   0.00000
   9        7PX         0.00000   0.00000   0.00000   0.00000   0.00000
  10        7PY         0.13836   0.00000   0.00000   0.46035   0.00000
  11        7PZ         0.00000  -0.17313   0.12475   0.00000   0.00000
  12        8PX         0.00000   0.00000   0.00000   0.00000   0.00000
  13        8PY        -0.22587   0.00000   0.00000  -0.11317   0.00000
  14        8PZ         0.00000  -0.21280  -1.03711   0.00000   0.00000
  15        9PX         0.00000   0.00000   0.00000   0.00000   0.00000
  16        9PY        -0.04172   0.00000   0.00000  -0.18808   0.00000
  17        9PZ         0.00000  -0.01913   0.05717   0.00000   0.00000
  18       10D 0        0.00000   0.17340   0.40937   0.00000   0.00000
  19       10D+1        0.00000   0.00000   0.00000   0.00000   0.00000
  20       10D-1        0.05506   0.00000   0.00000   0.16955   0.00000
  21       10D+2        0.00000   0.26596  -0.07760   0.00000   0.00000
  22       10D-2        0.00000   0.00000   0.00000   0.00000  -0.34402
  23       11D 0        0.00000   0.15933   0.35878   0.00000   0.00000
  24       11D+1        0.00000   0.00000   0.00000   0.00000   0.00000
  25       11D-1        0.21798   0.00000   0.00000   0.19754   0.00000
  26       11D+2        0.00000   0.25702  -0.15143   0.00000   0.00000
  27       11D-2        0.00000   0.00000   0.00000   0.00000  -0.22107
  28       12D 0        0.00000   0.03460   0.22910   0.00000   0.00000
  29       12D+1        0.00000   0.00000   0.00000   0.00000   0.00000
  30       12D-1        0.14128   0.00000   0.00000   0.10179   0.00000
  31       12D+2        0.00000  -0.02525  -0.06926   0.00000   0.00000
  32       12D-2        0.00000   0.00000   0.00000   0.00000   0.08361
  33       13F 0        0.00000   0.07129   0.14847   0.00000   0.00000
  34       13F+1        0.00000   0.00000   0.00000   0.00000   0.00000
  35       13F-1       -0.00406   0.00000   0.00000   0.15858   0.00000
  36       13F+2        0.00000   0.06776  -0.04881   0.00000   0.00000
  37       13F-2        0.00000   0.00000   0.00000   0.00000  -0.21153
  38       13F+3        0.00000   0.00000   0.00000   0.00000   0.00000
  39       13F-3        0.01206   0.00000   0.00000  -0.01281   0.00000
  40       14F 0        0.00000   0.01479   0.06159   0.00000   0.00000
  41       14F+1        0.00000   0.00000   0.00000   0.00000   0.00000
  42       14F-1       -0.05214   0.00000   0.00000   0.04676   0.00000
  43       14F+2        0.00000   0.04768  -0.01112   0.00000   0.00000
  44       14F-2        0.00000   0.00000   0.00000   0.00000  -0.13550
  45       14F+3        0.00000   0.00000   0.00000   0.00000   0.00000
  46       14F-3       -0.01733   0.00000   0.00000  -0.01239   0.00000
  47 2   C  1S          0.00000   0.06752   0.15796   0.00000   0.00000
  48        2S          0.00000  -0.26140  -0.50396   0.00000   0.00000
  49        3S          0.00000  -0.34208  -0.70612   0.00000   0.00000
  50        4S          0.00000   1.33902  -1.25831   0.00000   0.00000
  51        5S          0.00000   0.06436  -0.06578   0.00000   0.00000
  52        6PX         0.00000   0.00000   0.00000   0.00000   0.00000
  53        6PY         0.30527   0.00000   0.00000   0.16417   0.00000
  54        6PZ         0.00000  -0.22165  -0.50720   0.00000   0.00000
  55        7PX         0.00000   0.00000   0.00000   0.00000   0.00000
  56        7PY         0.34628   0.00000   0.00000   0.38552   0.00000
  57        7PZ         0.00000  -0.07070   0.14237   0.00000   0.00000
  58        8PX         0.00000   0.00000   0.00000   0.00000   0.00000
  59        8PY         1.38188   0.00000   0.00000  -1.20905   0.00000
  60        8PZ         0.00000  -0.34395   0.89503   0.00000   0.00000
  61        9PX         0.00000   0.00000   0.00000   0.00000   0.00000
  62        9PY         0.04321   0.00000   0.00000   0.03731   0.00000
  63        9PZ         0.00000  -0.01711  -0.00628   0.00000   0.00000
  64       10D 0        0.00000   0.11282   0.12940   0.00000   0.00000
  65       10D+1        0.00000   0.00000   0.00000   0.00000   0.00000
  66       10D-1       -0.02424   0.00000   0.00000   0.54465   0.00000
  67       10D+2        0.00000  -0.31578   0.21450   0.00000   0.00000
  68       10D-2        0.00000   0.00000   0.00000   0.00000   0.27161
  69       11D 0        0.00000   0.15870   0.26815   0.00000   0.00000
  70       11D+1        0.00000   0.00000   0.00000   0.00000   0.00000
  71       11D-1        0.08078   0.00000   0.00000  -0.02360   0.00000
  72       11D+2        0.00000  -0.49244   0.24713   0.00000   0.00000
  73       11D-2        0.00000   0.00000   0.00000   0.00000   0.36074
  74       12D 0        0.00000   0.02862   0.49993   0.00000   0.00000
  75       12D+1        0.00000   0.00000   0.00000   0.00000   0.00000
  76       12D-1       -0.41423   0.00000   0.00000   0.12541   0.00000
  77       12D+2        0.00000  -0.05896   0.31164   0.00000   0.00000
  78       12D-2        0.00000   0.00000   0.00000   0.00000   0.00838
  79       13F 0        0.00000  -0.12481   0.01058   0.00000   0.00000
  80       13F+1        0.00000   0.00000   0.00000   0.00000   0.00000
  81       13F-1        0.25089   0.00000   0.00000   0.06610   0.00000
  82       13F+2        0.00000  -0.19332   0.08694   0.00000   0.00000
  83       13F-2        0.00000   0.00000   0.00000   0.00000   0.38706
  84       13F+3        0.00000   0.00000   0.00000   0.00000   0.00000
  85       13F-3        0.13323   0.00000   0.00000  -0.10638   0.00000
  86       14F 0        0.00000  -0.07927   0.10481   0.00000   0.00000
  87       14F+1        0.00000   0.00000   0.00000   0.00000   0.00000
  88       14F-1        0.14471   0.00000   0.00000   0.06073   0.00000
  89       14F+2        0.00000  -0.07658   0.05995   0.00000   0.00000
  90       14F-2        0.00000   0.00000   0.00000   0.00000   0.14843
  91       14F+3        0.00000   0.00000   0.00000   0.00000   0.00000
  92       14F-3        0.02233   0.00000   0.00000  -0.04307   0.00000
  93 3   H  1S         -0.37130  -0.27237   0.20986   0.30652   0.00000
  94        2S         -0.26417  -0.28308   0.27575  -0.11578   0.00000
  95        3S         -1.08937  -0.32808   0.79946   0.82972   0.00000
  96        4S         -0.01721  -0.01089   0.00943  -0.00985   0.00000
  97        5PX         0.00000   0.00000   0.00000   0.00000  -0.11258
  98        5PY         0.01925   0.01942  -0.05213   0.03403   0.00000
  99        5PZ        -0.15992   0.01880  -0.00488   0.03009   0.00000
 100        6PX         0.00000   0.00000   0.00000   0.00000  -0.28594
 101        6PY        -0.02586   0.05309  -0.09880   0.29850   0.00000
 102        6PZ        -0.32199  -0.00186   0.10123  -0.07370   0.00000
 103        7PX         0.00000   0.00000   0.00000   0.00000  -0.05696
 104        7PY         0.28656   0.09370   0.01607  -0.12387   0.00000
 105        7PZ        -0.20011  -0.05459   0.37616   0.06187   0.00000
 106        8D 0       -0.03464   0.01894  -0.02145   0.03535   0.00000
 107        8D+1        0.00000   0.00000   0.00000   0.00000  -0.00488
 108        8D-1        0.05140   0.01125  -0.01507  -0.02213   0.00000
 109        8D+2        0.00546   0.00145  -0.03127   0.01352   0.00000
 110        8D-2        0.00000   0.00000   0.00000   0.00000   0.02664
 111        9D 0       -0.03218  -0.01591   0.02415   0.01260   0.00000
 112        9D+1        0.00000   0.00000   0.00000   0.00000  -0.02294
 113        9D-1        0.03838  -0.01238  -0.03686   0.02751   0.00000
 114        9D+2       -0.00093  -0.00490   0.00933   0.04697   0.00000
 115        9D-2        0.00000   0.00000   0.00000   0.00000   0.04568
 116 4   H  1S          0.37130  -0.27237   0.20986  -0.30652   0.00000
 117        2S          0.26417  -0.28308   0.27575   0.11578   0.00000
 118        3S          1.08937  -0.32808   0.79946  -0.82972   0.00000
 119        4S          0.01721  -0.01089   0.00943   0.00985   0.00000
 120        5PX         0.00000   0.00000   0.00000   0.00000   0.11258
 121        5PY         0.01925  -0.01942   0.05213   0.03403   0.00000
 122        5PZ         0.15992   0.01880  -0.00488  -0.03009   0.00000
 123        6PX         0.00000   0.00000   0.00000   0.00000   0.28594
 124        6PY        -0.02586  -0.05309   0.09880   0.29850   0.00000
 125        6PZ         0.32199  -0.00186   0.10123   0.07370   0.00000
 126        7PX         0.00000   0.00000   0.00000   0.00000   0.05696
 127        7PY         0.28656  -0.09370  -0.01607  -0.12387   0.00000
 128        7PZ         0.20011  -0.05459   0.37616  -0.06187   0.00000
 129        8D 0        0.03464   0.01894  -0.02145  -0.03535   0.00000
 130        8D+1        0.00000   0.00000   0.00000   0.00000   0.00488
 131        8D-1        0.05140  -0.01125   0.01507  -0.02213   0.00000
 132        8D+2       -0.00546   0.00145  -0.03127  -0.01352   0.00000
 133        8D-2        0.00000   0.00000   0.00000   0.00000   0.02664
 134        9D 0        0.03218  -0.01591   0.02415  -0.01260   0.00000
 135        9D+1        0.00000   0.00000   0.00000   0.00000   0.02294
 136        9D-1        0.03838   0.01238   0.03686   0.02751   0.00000
 137        9D+2        0.00093  -0.00490   0.00933  -0.04697   0.00000
 138        9D-2        0.00000   0.00000   0.00000   0.00000   0.04568
                          31        32        33        34        35
     Eigenvalues --     0.00104   0.00087   0.00087   0.00080   0.00065
   1 1   O  1S          0.00000   0.04859   0.00000   0.00000  -0.25519
   2        2S          0.00000  -0.00307   0.00000   0.00000  -0.19649
   3        3S          0.00000  -0.12123   0.00000   0.00000   0.68602
   4        4S          0.00000   0.09683   0.00000   0.00000   0.23330
   5        5S          0.00000   0.12849   0.00000   0.00000   0.69314
   6        6PX         0.73767   0.00000  -0.01807   0.00000   0.00000
   7        6PY         0.00000   0.00000   0.00000   0.71562   0.00000
   8        6PZ         0.00000   0.23917   0.00000   0.00000   0.73178
   9        7PX        -0.65029   0.00000  -0.03218   0.00000   0.00000
  10        7PY         0.00000   0.00000   0.00000  -1.13591   0.00000
  11        7PZ         0.00000  -0.20836   0.00000   0.00000  -1.21949
  12        8PX        -0.14356   0.00000   0.44164   0.00000   0.00000
  13        8PY         0.00000   0.00000   0.00000  -0.44141   0.00000
  14        8PZ         0.00000   0.18541   0.00000   0.00000   0.59262
  15        9PX         0.11191   0.00000   0.03443   0.00000   0.00000
  16        9PY         0.00000   0.00000   0.00000   0.16799   0.00000
  17        9PZ         0.00000   0.03075   0.00000   0.00000   0.11646
  18       10D 0        0.00000  -0.04520   0.00000   0.00000   0.11532
  19       10D+1        0.13317   0.00000  -0.25104   0.00000   0.00000
  20       10D-1        0.00000   0.00000   0.00000   0.21061   0.00000
  21       10D+2        0.00000   0.01006   0.00000   0.00000  -0.14832
  22       10D-2        0.00000   0.00000   0.00000   0.00000   0.00000
  23       11D 0        0.00000  -0.07180   0.00000   0.00000   0.05427
  24       11D+1        0.04992   0.00000  -0.15110   0.00000   0.00000
  25       11D-1        0.00000   0.00000   0.00000   0.32724   0.00000
  26       11D+2        0.00000   0.00479   0.00000   0.00000   0.02064
  27       11D-2        0.00000   0.00000   0.00000   0.00000   0.00000
  28       12D 0        0.00000  -0.06290   0.00000   0.00000  -0.36399
  29       12D+1       -0.17329   0.00000  -0.09789   0.00000   0.00000
  30       12D-1        0.00000   0.00000   0.00000   0.14631   0.00000
  31       12D+2        0.00000   0.01909   0.00000   0.00000   0.08701
  32       12D-2        0.00000   0.00000   0.00000   0.00000   0.00000
[...]
   6        6PX         0.01424   0.00000   0.00000   0.00000   0.00000
   7        6PY         0.00000   0.00000   0.00202  -0.00375   0.00000
   8        6PZ         0.00000   0.02237   0.00000   0.00000  -0.01671
   9        7PX        -0.05954   0.00000   0.00000   0.00000   0.00000
  10        7PY         0.00000   0.00000   0.02402  -0.04733   0.00000
  11        7PZ         0.00000  -0.12945   0.00000   0.00000   0.03718
  12        8PX         0.42002   0.00000   0.00000   0.00000   0.00000
  13        8PY         0.00000   0.00000   2.92044  -2.60979   0.00000
  14        8PZ         0.00000   3.70413   0.00000   0.00000   0.80647
  15        9PX        -0.58966   0.00000   0.00000   0.00000   0.00000
  16        9PY         0.00000   0.00000  -1.14824  -0.08637   0.00000
  17        9PZ         0.00000   5.53569   0.00000   0.00000  -0.43645
  18       10D 0        0.00000  -0.02845   0.00000   0.00000   0.00889
  19       10D+1        0.00586   0.00000   0.00000   0.00000   0.00000
  20       10D-1        0.00000   0.00000   0.01075  -0.00866   0.00000
  21       10D+2        0.00000   0.03455   0.00000   0.00000   0.00749
  22       10D-2        0.00000   0.00000   0.00000   0.00000   0.00000
  23       11D 0        0.00000   0.04856   0.00000   0.00000  -0.05153
  24       11D+1       -0.06487   0.00000   0.00000   0.00000   0.00000
  25       11D-1        0.00000   0.00000  -0.06209   0.11077   0.00000
  26       11D+2        0.00000  -0.13231   0.00000   0.00000  -0.02823
  27       11D-2        0.00000   0.00000   0.00000   0.00000   0.00000
  28       12D 0        0.00000  -1.75911   0.00000   0.00000  -0.43747
  29       12D+1       -0.08045   0.00000   0.00000   0.00000   0.00000
  30       12D-1        0.00000   0.00000  -1.35660   1.13762   0.00000
  31       12D+2        0.00000   0.27341   0.00000   0.00000  -0.02798
  32       12D-2        0.00000   0.00000   0.00000   0.00000   0.00000
  33       13F 0        0.00000  -0.00576   0.00000   0.00000  -0.00783
  34       13F+1       -0.00668   0.00000   0.00000   0.00000   0.00000
  35       13F-1        0.00000   0.00000  -0.03926   0.02447   0.00000
  36       13F+2        0.00000   0.00375   0.00000   0.00000  -0.00387
  37       13F-2        0.00000   0.00000   0.00000   0.00000   0.00000
  38       13F+3        0.01963   0.00000   0.00000   0.00000   0.00000
  39       13F-3        0.00000   0.00000   0.01312  -0.01141   0.00000
  40       14F 0        0.00000   0.13455   0.00000   0.00000   0.07763
  41       14F+1        0.08079   0.00000   0.00000   0.00000   0.00000
  42       14F-1        0.00000   0.00000   0.14739  -0.13150   0.00000
  43       14F+2        0.00000  -0.01110   0.00000   0.00000   0.00459
  44       14F-2        0.00000   0.00000   0.00000   0.00000   0.00000
  45       14F+3       -0.02910   0.00000   0.00000   0.00000   0.00000
  46       14F-3        0.00000   0.00000  -0.03011   0.01335   0.00000
  47 2   C  1S          0.00000   0.09083   0.00000   0.00000   0.19111
  48        2S          0.00000   0.50435   0.00000   0.00000   1.15510
  49        3S          0.00000  -0.08086   0.00000   0.00000  -0.00364
  50        4S          0.00000   6.36298   0.00000   0.00000  24.95135
  51        5S          0.00000   8.22111   0.00000   0.00000  10.38459
  52        6PX         0.00251   0.00000   0.00000   0.00000   0.00000
  53        6PY         0.00000   0.00000   0.02886   0.00369   0.00000
  54        6PZ         0.00000   0.00573   0.00000   0.00000   0.03775
  55        7PX         0.05097   0.00000   0.00000   0.00000   0.00000
  56        7PY         0.00000   0.00000  -1.82758  -1.27560   0.00000
  57        7PZ         0.00000   0.66652   0.00000   0.00000  -1.04925
  58        8PX         4.24251   0.00000   0.00000   0.00000   0.00000
  59        8PY         0.00000   0.00000 -16.43122  -7.38310   0.00000
  60        8PZ         0.00000  -2.79741   0.00000   0.00000  -9.49790
  61        9PX         2.21158   0.00000   0.00000   0.00000   0.00000
  62        9PY         0.00000   0.00000   1.73068  -5.33445   0.00000
  63        9PZ         0.00000  -2.32522   0.00000   0.00000  -2.05650
  64       10D 0        0.00000  -0.05558   0.00000   0.00000   0.02122
  65       10D+1        0.01517   0.00000   0.00000   0.00000   0.00000
  66       10D-1        0.00000   0.00000   0.01447   0.01875   0.00000
  67       10D+2        0.00000   0.02071   0.00000   0.00000  -0.05101
  68       10D-2        0.00000   0.00000   0.00000   0.00000   0.00000
  69       11D 0        0.00000   0.69750   0.00000   0.00000   0.16679
  70       11D+1       -0.40328   0.00000   0.00000   0.00000   0.00000
  71       11D-1        0.00000   0.00000   1.46073   1.23762   0.00000
  72       11D+2        0.00000  -0.32387   0.00000   0.00000  -0.89397
  73       11D-2        0.00000   0.00000   0.00000   0.00000   0.00000
  74       12D 0        0.00000   1.43773   0.00000   0.00000   1.83789
  75       12D+1       -1.54248   0.00000   0.00000   0.00000   0.00000
  76       12D-1        0.00000   0.00000   2.75562   2.33390   0.00000
  77       12D+2        0.00000   0.28835   0.00000   0.00000  -0.25530
  78       12D-2        0.00000   0.00000   0.00000   0.00000   0.00000
  79       13F 0        0.00000   0.01936   0.00000   0.00000   0.02457
  80       13F+1       -0.04059   0.00000   0.00000   0.00000   0.00000
  81       13F-1        0.00000   0.00000   0.04824  -0.02021   0.00000
  82       13F+2        0.00000   0.01526   0.00000   0.00000   0.04390
  83       13F-2        0.00000   0.00000   0.00000   0.00000   0.00000
  84       13F+3        0.10874   0.00000   0.00000   0.00000   0.00000
  85       13F-3        0.00000   0.00000   0.07804   0.01350   0.00000
  86       14F 0        0.00000  -0.03826   0.00000   0.00000   0.16883
  87       14F+1        0.06458   0.00000   0.00000   0.00000   0.00000
  88       14F-1        0.00000   0.00000  -1.88599   1.23050   0.00000
  89       14F+2        0.00000   0.45308   0.00000   0.00000   0.45011
  90       14F-2        0.00000   0.00000   0.00000   0.00000   0.00000
  91       14F+3       -0.35098   0.00000   0.00000   0.00000   0.00000
  92       14F-3        0.00000   0.00000  -0.22433   0.33717   0.00000
  93 3   H  1S          0.00000   0.01978  -0.06656   0.01324   0.04696
  94        2S          0.00000  -1.57462   3.04917   1.47995  -2.78636
  95        3S          0.00000   1.35375  26.18818  12.88983 -14.67416
  96        4S          0.00000  -1.18720  -1.79903   4.64979  -1.65251
  97        5PX        -0.07964   0.00000   0.00000   0.00000   0.00000
  98        5PY         0.00000   0.02135   0.11477   0.06916  -0.09795
  99        5PZ         0.00000  -0.01898   0.02567  -0.10620   0.03416
 100        6PX        -0.06779   0.00000   0.00000   0.00000   0.00000
 101        6PY         0.00000   0.18470  -2.12157  -0.64179   1.49479
 102        6PZ         0.00000   0.26207  -0.36587   1.46205  -0.61679
 103        7PX        -3.22222   0.00000   0.00000   0.00000   0.00000
 104        7PY         0.00000   0.01238  -9.28390  -1.44752   4.74737
 105        7PZ         0.00000   4.12305   1.62069   2.81615  -0.02823
 106        8D 0        0.00000  -0.05746   0.05282  -0.02856  -0.02573
 107        8D+1        0.02990   0.00000   0.00000   0.00000   0.00000
 108        8D-1        0.00000   0.05352  -0.10697  -0.00376   0.06304
 109        8D+2        0.00000   0.04336   0.05428  -0.04393   0.04192
 110        8D-2       -0.07357   0.00000   0.00000   0.00000   0.00000
 111        9D 0        0.00000   0.60400  -1.18707   0.54509   0.41529
 112        9D+1       -0.26956   0.00000   0.00000   0.00000   0.00000
 113        9D-1        0.00000  -0.80533   0.24006  -0.76700   0.15518
 114        9D+2        0.00000  -0.15526  -1.17285   0.17654   0.43682
 115        9D-2        0.56641   0.00000   0.00000   0.00000   0.00000
 116 4   H  1S          0.00000   0.01978   0.06656  -0.01324   0.04696
 117        2S          0.00000  -1.57462  -3.04917  -1.47995  -2.78636
 118        3S          0.00000   1.35375 -26.18818 -12.88983 -14.67416
 119        4S          0.00000  -1.18720   1.79903  -4.64979  -1.65251
 120        5PX        -0.07964   0.00000   0.00000   0.00000   0.00000
 121        5PY         0.00000  -0.02135   0.11477   0.06916   0.09795
 122        5PZ         0.00000  -0.01898  -0.02567   0.10620   0.03416
 123        6PX        -0.06779   0.00000   0.00000   0.00000   0.00000
 124        6PY         0.00000  -0.18470  -2.12157  -0.64179  -1.49479
 125        6PZ         0.00000   0.26207   0.36587  -1.46205  -0.61679
 126        7PX        -3.22222   0.00000   0.00000   0.00000   0.00000
 127        7PY         0.00000  -0.01238  -9.28390  -1.44752  -4.74737
 128        7PZ         0.00000   4.12305  -1.62069  -2.81615  -0.02823
 129        8D 0        0.00000  -0.05746  -0.05282   0.02856  -0.02573
 130        8D+1        0.02990   0.00000   0.00000   0.00000   0.00000
 131        8D-1        0.00000  -0.05352  -0.10697  -0.00376  -0.06304
 132        8D+2        0.00000   0.04336  -0.05428   0.04393   0.04192
 133        8D-2        0.07357   0.00000   0.00000   0.00000   0.00000
 134        9D 0        0.00000   0.60400   1.18707  -0.54509   0.41529
 135        9D+1       -0.26956   0.00000   0.00000   0.00000   0.00000
 136        9D-1        0.00000   0.80533   0.24006  -0.76700  -0.15518
 137        9D+2        0.00000  -0.15526   1.17285  -0.17654   0.43682
 138        9D-2       -0.56641   0.00000   0.00000   0.00000   0.00000
                         136       137       138
     Eigenvalues --     0.00000   0.00000   0.00000
   1 1   O  1S         -0.06099   0.00000   0.00987
   2        2S         -0.29430   0.00000   0.05368
   3        3S          0.03962   0.00000   0.00079
   4        4S          4.57545   0.00000  -1.09452
   5        5S         13.30813   0.00000  -6.82119
   6        6PX         0.00000   0.00000   0.00000
   7        6PY         0.00000   0.00531   0.00000
   8        6PZ        -0.00470   0.00000   0.00531
   9        7PX         0.00000   0.00000   0.00000
  10        7PY         0.00000  -0.01293   0.00000
  11        7PZ        -0.08367   0.00000  -0.03059
  12        8PX         0.00000   0.00000   0.00000
  13        8PY         0.00000   1.58489   0.00000
  14        8PZ        -1.41129   0.00000   0.88584
  15        9PX         0.00000   0.00000   0.00000
  16        9PY         0.00000   1.59698   0.00000
  17        9PZ        -1.02738   0.00000   1.42600
  18       10D 0       -0.01645   0.00000   0.00159
  19       10D+1        0.00000   0.00000   0.00000
  20       10D-1        0.00000  -0.00219   0.00000
  21       10D+2        0.00358   0.00000  -0.00159
  22       10D-2        0.00000   0.00000   0.00000
  23       11D 0        0.10959   0.00000  -0.00626
  24       11D+1        0.00000   0.00000   0.00000
  25       11D-1        0.00000  -0.01771   0.00000
  26       11D+2       -0.01133   0.00000   0.00399
  27       11D-2        0.00000   0.00000   0.00000
  28       12D 0       -0.09555   0.00000  -0.19731
  29       12D+1        0.00000   0.00000   0.00000
  30       12D-1        0.00000  -0.62443   0.00000
  31       12D+2        0.32676   0.00000  -0.04006
  32       12D-2        0.00000   0.00000   0.00000
  33       13F 0       -0.00781   0.00000  -0.00388
  34       13F+1        0.00000   0.00000   0.00000
  35       13F-1        0.00000  -0.00550   0.00000
  36       13F+2        0.01303   0.00000  -0.00220
  37       13F-2        0.00000   0.00000   0.00000
  38       13F+3        0.00000   0.00000   0.00000
  39       13F-3        0.00000  -0.00520   0.00000
  40       14F 0        0.01691   0.00000   0.01723
  41       14F+1        0.00000   0.00000   0.00000
  42       14F-1        0.00000   0.03175   0.00000
  43       14F+2       -0.06328   0.00000   0.01073
  44       14F-2        0.00000   0.00000   0.00000
  45       14F+3        0.00000   0.00000   0.00000
  46       14F-3        0.00000   0.01497   0.00000
  47 2   C  1S         -0.03222   0.00000   0.00456
  48        2S         -0.18252   0.00000   0.03229
  49        3S          0.11838   0.00000   0.02862
  50        4S         -5.45828   0.00000   9.90488
  51        5S         -4.43004   0.00000  13.48145
  52        6PX         0.00000   0.00000   0.00000
  53        6PY         0.00000  -0.01412   0.00000
  54        6PZ        -0.02346   0.00000   0.00202
  55        7PX         0.00000   0.00000   0.00000
  56        7PY         0.00000   0.00442   0.00000
  57        7PZ         0.20637   0.00000   0.01532
  58        8PX         0.00000   0.00000   0.00000
  59        8PY         0.00000  -7.92155   0.00000
  60        8PZ        -1.69631   0.00000  -0.03947
  61        9PX         0.00000   0.00000   0.00000
  62        9PY         0.00000  -5.58389   0.00000
  63        9PZ        -2.35833   0.00000  -0.25380
  64       10D 0        0.01511   0.00000  -0.00392
  65       10D+1        0.00000   0.00000   0.00000
  66       10D-1        0.00000  -0.01371   0.00000
  67       10D+2       -0.00610   0.00000  -0.00769
  68       10D-2        0.00000   0.00000   0.00000
  69       11D 0       -0.81568   0.00000   0.12867
  70       11D+1        0.00000   0.00000   0.00000
  71       11D-1        0.00000  -0.20666   0.00000
  72       11D+2        0.19464   0.00000  -0.04412
  73       11D-2        0.00000   0.00000   0.00000
  74       12D 0       -6.03619   0.00000   0.72082
  75       12D+1        0.00000   0.00000   0.00000
  76       12D-1        0.00000  -0.70388   0.00000
  77       12D+2       -2.75042   0.00000  -0.29625
  78       12D-2        0.00000   0.00000   0.00000
  79       13F 0       -0.03592   0.00000  -0.00917
  80       13F+1        0.00000   0.00000   0.00000
  81       13F-1        0.00000   0.02111   0.00000
  82       13F+2       -0.01487   0.00000  -0.00156
  83       13F-2        0.00000   0.00000   0.00000
  84       13F+3        0.00000   0.00000   0.00000
  85       13F-3        0.00000  -0.01814   0.00000
  86       14F 0       -0.18241   0.00000   0.06316
  87       14F+1        0.00000   0.00000   0.00000
  88       14F-1        0.00000  -0.56087   0.00000
  89       14F+2       -0.35366   0.00000   0.05161
  90       14F-2        0.00000   0.00000   0.00000
  91       14F+3        0.00000   0.00000   0.00000
  92       14F-3        0.00000  -0.03413   0.00000
  93 3   H  1S         -0.01684   0.00880  -0.00326
  94        2S          1.02810  -0.08410  -0.17554
  95        3S         -3.48915  11.78978  -5.23701
  96        4S         -0.28737   8.36765  -3.07614
  97        5PX         0.00000   0.00000   0.00000
  98        5PY         0.00525   0.03100  -0.01252
  99        5PZ         0.04009   0.00187   0.00582
 100        6PX         0.00000   0.00000   0.00000
 101        6PY        -0.43133  -0.27055   0.18447
 102        6PZ        -0.18035  -0.18982  -0.08786
 103        7PX         0.00000   0.00000   0.00000
 104        7PY        -2.08597  -3.74929   1.53819
 105        7PZ        -3.82080   2.61961  -0.63305
 106        8D 0        0.01143  -0.00769   0.00195
 107        8D+1        0.00000   0.00000   0.00000
 108        8D-1       -0.04567   0.02534  -0.00840
 109        8D+2        0.01212   0.04261  -0.00417
 110        8D-2        0.00000   0.00000   0.00000
 111        9D 0       -0.31246  -0.08009   0.04018
 112        9D+1        0.00000   0.00000   0.00000
 113        9D-1        0.28240  -0.08638   0.11426
 114        9D+2       -0.28871  -0.35214   0.11180
 115        9D-2        0.00000   0.00000   0.00000
 116 4   H  1S         -0.01684  -0.00880  -0.00326
 117        2S          1.02810   0.08410  -0.17554
 118        3S         -3.48915 -11.78978  -5.23701
 119        4S         -0.28737  -8.36765  -3.07614
 120        5PX         0.00000   0.00000   0.00000
 121        5PY        -0.00525   0.03100   0.01252
 122        5PZ         0.04009  -0.00187   0.00582
 123        6PX         0.00000   0.00000   0.00000
 124        6PY         0.43133  -0.27055  -0.18447
 125        6PZ        -0.18035   0.18982  -0.08786
 126        7PX         0.00000   0.00000   0.00000
 127        7PY         2.08597  -3.74929  -1.53819
 128        7PZ        -3.82080  -2.61961  -0.63305
 129        8D 0        0.01143   0.00769   0.00195
 130        8D+1        0.00000   0.00000   0.00000
 131        8D-1        0.04567   0.02534   0.00840
 132        8D+2        0.01212  -0.04261  -0.00417
 133        8D-2        0.00000   0.00000   0.00000
 134        9D 0       -0.31246   0.08009   0.04018
 135        9D+1        0.00000   0.00000   0.00000
 136        9D-1       -0.28240  -0.08638  -0.11426
 137        9D+2       -0.28871   0.35214   0.11180
 138        9D-2        0.00000   0.00000   0.00000
          Condensed to atoms (all electrons):
              1          2          3          4
     1  O    8.188889   0.356422  -0.065581  -0.065581
     2  C    0.356422   5.696995   0.210247   0.210247
     3  H   -0.065581   0.210247   0.439258  -0.027954
     4  H   -0.065581   0.210247  -0.027954   0.439258
 Mulliken atomic charges:
              1
     1  O   -0.414149
     2  C   -0.473912
     3  H    0.444030
     4  H    0.444030
 Sum of Mulliken atomic charges =   0.00000
 Mulliken charges with hydrogens summed into heavy atoms:
              1
     1  O   -0.414149
     2  C    0.414149
 Sum of Mulliken charges with hydrogens summed into heavy atoms =   0.00000
 Electronic spatial extent (au):  <R**2>=             60.4414
 Charge=              0.0000 electrons
 Dipole moment (field-independent basis, Debye):
    X=              0.0000    Y=              0.0000    Z=             -2.3948  Tot=              2.3948
 Quadrupole moment (field-independent basis, Debye-Ang):
   XX=            -11.7180   YY=            -11.6521   ZZ=            -12.3050
   XY=              0.0000   XZ=              0.0000   YZ=              0.0000
 Traceless Quadrupole moment (field-independent basis, Debye-Ang):
   XX=              0.1737   YY=              0.2396   ZZ=             -0.4133
   XY=              0.0000   XZ=              0.0000   YZ=              0.0000
 Octapole moment (field-independent basis, Debye-Ang**2):
  XXX=              0.0000  YYY=              0.0000  ZZZ=              0.2516  XYY=              0.0000
  XXY=              0.0000  XXZ=              0.5619  XZZ=              0.0000  YZZ=              0.0000
  YYZ=             -0.6615  XYZ=              0.0000
 Hexadecapole moment (field-independent basis, Debye-Ang**3):
 XXXX=            -10.4638 YYYY=            -18.4145 ZZZZ=            -46.0385 XXXY=              0.0000
 XXXZ=              0.0000 YYYX=              0.0000 YYYZ=              0.0000 ZZZX=              0.0000
 ZZZY=              0.0000 XXYY=             -5.1654 XXZZ=             -9.3553 YYZZ=            -10.4801
 XXYZ=              0.0000 YYXZ=              0.0000 ZZXY=              0.0000
 N-N= 3.145348219083D+01 E-N=-3.316646973149D+02  KE= 1.142557351000D+02
 1\1\GINC-TRAPISTA\SP\RQCISD-FC\Aug-CC-pVTZ\C1H2O1\BRUNS\20-Nov-2021\0\
 \# qcisd/aug-cc-pvtz nosymm density=current output=wfn\\h2co-wavefunct
 ion\\0,1\O,0,0.,0.,0.679252\C,0,0.,0.,-0.516911\H,0,0.,0.936614,-1.106
 62\H,0,0.,-0.936614,-1.10662\\Version=EM64L-G09RevB.01\HF=-113.9144372
 \MP2=-114.3159737\MP3=-114.3203574\MP4D=-114.3304312\MP4DQ=-114.321642
 2\MP4SDQ=-114.3267838\QCISD=-114.3268019\RMSD=2.702e-09\Dipole=0.,0.,-
 0.9422004\Quadrupole=0.1291674,0.1781344,-0.3073018,0.,0.,0.\PG=C02V [
 C2(C1O1),SGV(H2)]\\@

 Writing a WFN file to GAUSSIAN.wfn.


 MICRO CREDO - NEVER TRUST A COMPUTER BIGGER
               BIGGER THAN YOU CAN LIFT.
 Job cpu time:  0 days  0 hours 23 minutes 40.6 seconds.
 File lengths (MBytes):  RWF=   5787 Int=      0 D2E=      0 Chk=      2 Scr=      1
 Normal termination of Gaussian 09 at Sat Nov 20 18:05:21 2021.
