 h2co-wavefunction
GAUSSIAN            138 MOL ORBITALS    198 PRIMITIVES        4 NUCLEI
  O    1    (CENTRE  1)   0.00000000  0.00000000  1.28360026  CHARGE =  8.0
  C    2    (CENTRE  2)   0.00000000  0.00000000 -0.99571749  CHARGE =  6.0
  H    3    (CENTRE  3)   0.00000000  1.76994395 -2.09120873  CHARGE =  1.0
  H    4    (CENTRE  4)   0.00000000 -1.75104669 -2.09120873  CHARGE =  1.0
CENTRE ASSIGNMENTS    1  1  1  1  1  1  1  1  1  1  1  1  1  1  1  1  1  1  1  1
CENTRE ASSIGNMENTS    1  1  1  1  1  1  1  1  1  1  1  1  1  1  1  1  1  1  1  1
CENTRE ASSIGNMENTS    1  1  1  1  1  1  1  1  1  1  1  1  1  1  1  1  1  1  1  1
CENTRE ASSIGNMENTS    1  1  1  1  1  1  1  1  1  1  1  1  2  2  2  2  2  2  2  2
CENTRE ASSIGNMENTS    2  2  2  2  2  2  2  2  2  2  2  2  2  2  2  2  2  2  2  2
CENTRE ASSIGNMENTS    2  2  2  2  2  2  2  2  2  2  2  2  2  2  2  2  2  2  2  2
CENTRE ASSIGNMENTS    2  2  2  2  2  2  2  2  2  2  2  2  2  2  2  2  2  2  2  2
CENTRE ASSIGNMENTS    2  2  2  2  3  3  3  3  3  3  3  3  3  3  3  3  3  3  3  3
CENTRE ASSIGNMENTS    3  3  3  3  3  3  3  3  3  3  3  4  4  4  4  4  4  4  4  4
CENTRE ASSIGNMENTS    4  4  4  4  4  4  4  4  4  4  4  4  4  4  4  4  4  4
TYPE ASSIGNMENTS      1  1  1  1  1  1  1  1  1  1  1  1  1  1  1  1  2  2  2  3
TYPE ASSIGNMENTS      3  3  4  4  4  2  3  4  2  3  4  2  3  4  5  6  7  8  9 10
TYPE ASSIGNMENTS      5  6  7  8  9 10  5  6  7  8  9 10 11 12 13 17 14 15 18 19
TYPE ASSIGNMENTS     16 20 11 12 13 17 14 15 18 19 16 20  1  1  1  1  1  1  1  1
TYPE ASSIGNMENTS      1  1  1  1  1  1  1  1  2  2  2  3  3  3  4  4  4  2  3  4
TYPE ASSIGNMENTS      2  3  4  2  3  4  5  6  7  8  9 10  5  6  7  8  9 10  5  6
TYPE ASSIGNMENTS      7  8  9 10 11 12 13 17 14 15 18 19 16 20 11 12 13 17 14 15
TYPE ASSIGNMENTS     18 19 16 20  1  1  1  1  1  1  2  3  4  2  3  4  2  3  4  5
TYPE ASSIGNMENTS      6  7  8  9 10  5  6  7  8  9 10  1  1  1  1  1  1  2  3  4
TYPE ASSIGNMENTS      2  3  4  2  3  4  5  6  7  8  9 10  5  6  7  8  9 10
EXPONENTS  0.1533000D+05 0.2299000D+04 0.5224000D+03 0.1473000D+03 0.4755000D+02
EXPONENTS  0.1676000D+02 0.6207000D+01 0.5224000D+03 0.1473000D+03 0.4755000D+02
EXPONENTS  0.1676000D+02 0.6207000D+01 0.6882000D+00 0.1752000D+01 0.2384000D+00
EXPONENTS  0.7376000D-01 0.3446000D+02 0.7749000D+01 0.2280000D+01 0.3446000D+02
EXPONENTS  0.7749000D+01 0.2280000D+01 0.3446000D+02 0.7749000D+01 0.2280000D+01
EXPONENTS  0.7156000D+00 0.7156000D+00 0.7156000D+00 0.2140000D+00 0.2140000D+00
EXPONENTS  0.2140000D+00 0.5974000D-01 0.5974000D-01 0.5974000D-01 0.2314000D+01
EXPONENTS  0.2314000D+01 0.2314000D+01 0.2314000D+01 0.2314000D+01 0.2314000D+01
EXPONENTS  0.6450000D+00 0.6450000D+00 0.6450000D+00 0.6450000D+00 0.6450000D+00
EXPONENTS  0.6450000D+00 0.2140000D+00 0.2140000D+00 0.2140000D+00 0.2140000D+00
EXPONENTS  0.2140000D+00 0.2140000D+00 0.1428000D+01 0.1428000D+01 0.1428000D+01
EXPONENTS  0.1428000D+01 0.1428000D+01 0.1428000D+01 0.1428000D+01 0.1428000D+01
EXPONENTS  0.1428000D+01 0.1428000D+01 0.5000000D+00 0.5000000D+00 0.5000000D+00
EXPONENTS  0.5000000D+00 0.5000000D+00 0.5000000D+00 0.5000000D+00 0.5000000D+00
EXPONENTS  0.5000000D+00 0.5000000D+00 0.8236000D+04 0.1235000D+04 0.2808000D+03
EXPONENTS  0.7927000D+02 0.2559000D+02 0.8997000D+01 0.3319000D+01 0.2808000D+03
EXPONENTS  0.7927000D+02 0.2559000D+02 0.8997000D+01 0.3319000D+01 0.3643000D+00
EXPONENTS  0.9059000D+00 0.1285000D+00 0.4402000D-01 0.1871000D+02 0.4133000D+01
EXPONENTS  0.1200000D+01 0.1871000D+02 0.4133000D+01 0.1200000D+01 0.1871000D+02
EXPONENTS  0.4133000D+01 0.1200000D+01 0.3827000D+00 0.3827000D+00 0.3827000D+00
EXPONENTS  0.1209000D+00 0.1209000D+00 0.1209000D+00 0.3569000D-01 0.3569000D-01
EXPONENTS  0.3569000D-01 0.1097000D+01 0.1097000D+01 0.1097000D+01 0.1097000D+01
EXPONENTS  0.1097000D+01 0.1097000D+01 0.3180000D+00 0.3180000D+00 0.3180000D+00
EXPONENTS  0.3180000D+00 0.3180000D+00 0.3180000D+00 0.1000000D+00 0.1000000D+00
EXPONENTS  0.1000000D+00 0.1000000D+00 0.1000000D+00 0.1000000D+00 0.7610000D+00
EXPONENTS  0.7610000D+00 0.7610000D+00 0.7610000D+00 0.7610000D+00 0.7610000D+00
EXPONENTS  0.7610000D+00 0.7610000D+00 0.7610000D+00 0.7610000D+00 0.2680000D+00
EXPONENTS  0.2680000D+00 0.2680000D+00 0.2680000D+00 0.2680000D+00 0.2680000D+00
EXPONENTS  0.2680000D+00 0.2680000D+00 0.2680000D+00 0.2680000D+00 0.3387000D+02
EXPONENTS  0.5095000D+01 0.1159000D+01 0.3258000D+00 0.1027000D+00 0.2526000D-01
EXPONENTS  0.1407000D+01 0.1407000D+01 0.1407000D+01 0.3880000D+00 0.3880000D+00
EXPONENTS  0.3880000D+00 0.1020000D+00 0.1020000D+00 0.1020000D+00 0.1057000D+01
EXPONENTS  0.1057000D+01 0.1057000D+01 0.1057000D+01 0.1057000D+01 0.1057000D+01
EXPONENTS  0.2470000D+00 0.2470000D+00 0.2470000D+00 0.2470000D+00 0.2470000D+00
EXPONENTS  0.2470000D+00 0.3387000D+02 0.5095000D+01 0.1159000D+01 0.3258000D+00
EXPONENTS  0.1027000D+00 0.2526000D-01 0.1407000D+01 0.1407000D+01 0.1407000D+01
EXPONENTS  0.3880000D+00 0.3880000D+00 0.3880000D+00 0.1020000D+00 0.1020000D+00
EXPONENTS  0.1020000D+00 0.1057000D+01 0.1057000D+01 0.1057000D+01 0.1057000D+01
EXPONENTS  0.1057000D+01 0.1057000D+01 0.2470000D+00 0.2470000D+00 0.2470000D+00
EXPONENTS  0.2470000D+00 0.2470000D+00 0.2470000D+00
MO    1     MO 0.0        OCC NO =    2.0000076  ORB. ENERGY =    0.000000
 -0.26674413D+00 -0.49716721D+00 -0.84301686D+00 -0.12758164D+01 -0.15914804D+01
 -0.13657269D+01 -0.52300086D+00 -0.36210379D-04 -0.38851360D-03 -0.14321343D-02
 -0.41874767D-02 -0.50461130D-02  0.60785779D-02 -0.23687170D-01  0.69609151D-03
  0.20311823D-04  0.78849787D-13  0.76457770D-13  0.51577960D-13 -0.31345985D-05
 -0.30395061D-05 -0.20504329D-05  0.14627609D-01  0.14183861D-01  0.95683487D-02
  0.13838124D-13 -0.27709515D-05  0.18744857D-02 -0.67953350D-14 -0.39780104D-05
  0.63031447D-03 -0.33163129D-15 -0.14471730D-06  0.75399160D-05  0.92541532D-03
  0.11041566D-03 -0.10358310D-02 -0.49545066D-14 -0.27716305D-13 -0.29842273D-05
  0.23086584D-03  0.12048479D-03 -0.35135063D-03 -0.15082400D-16  0.68284966D-14
 -0.34590767D-05  0.62984345D-04  0.10610145D-04 -0.73594490D-04  0.34383351D-15
  0.47106716D-14  0.10365435D-05 -0.27888715D-14 -0.14429594D-05 -0.10500616D-03
 -0.76215550D-14  0.20885297D-05  0.44912488D-03  0.15988169D-13  0.22403483D-05
 -0.13410640D-03 -0.58329051D-14  0.16973705D-14 -0.91485201D-07  0.10518540D-03
  0.15489707D-14 -0.14851528D-05 -0.17104167D-03 -0.66410822D-14  0.17596084D-05
 -0.14451451D-03 -0.25480317D-15  0.27717910D+00  0.51671768D+00  0.87332328D+00
  0.13127678D+01  0.16125001D+01  0.13608932D+01  0.51173137D+00  0.32312139D-04
  0.24151322D-03  0.90259005D-03  0.25180857D-02  0.33735406D-02 -0.39835224D-02
  0.22786215D-01  0.54124825D-03  0.12264455D-03  0.19189343D-13  0.17991228D-13
  0.12810826D-13  0.48889341D-04  0.45836864D-04  0.32638578D-04  0.20732283D-02
  0.19437833D-02  0.13840895D-02  0.12412710D-13 -0.28750285D-04  0.24528890D-03
  0.36154784D-14 -0.11247398D-05 -0.10449541D-03  0.21931267D-16  0.97336704D-08
 -0.34524132D-05 -0.12351185D-02  0.24522243D-03  0.98989610D-03  0.22041967D-14
  0.36786937D-14  0.32389367D-04  0.14524942D-03  0.23411718D-04 -0.16866114D-03
 -0.11180186D-14  0.12159260D-13  0.91202294D-05 -0.57499209D-05  0.19528894D-04
 -0.13778973D-04 -0.83826637D-15  0.48655756D-15 -0.83394897D-08 -0.42294518D-15
  0.11544163D-05  0.55404150D-03 -0.34233494D-14  0.86980783D-05 -0.46623085D-04
  0.46921849D-14 -0.12161327D-04 -0.16155014D-02 -0.22875787D-14 -0.27358600D-15
 -0.11250597D-05 -0.11490723D-03 -0.11000336D-14  0.65924772D-06  0.44290331D-04
  0.19207916D-14  0.27159313D-05  0.30043136D-03 -0.99855959D-16 -0.27293043D-03
 -0.49224128D-03 -0.72580947D-03 -0.20133956D-03 -0.45025074D-03 -0.11706363D-04
 -0.74712520D-15  0.77378973D-03 -0.52453009D-03  0.37849205D-14  0.20966038D-03
 -0.72921458D-04  0.15132341D-14  0.40082151D-04 -0.57325168D-04  0.21797804D-03
 -0.34844349D-03  0.13046545D-03 -0.22047398D-14 -0.78542239D-15  0.87500315D-03
  0.46482849D-04 -0.12086257D-04 -0.34396593D-04 -0.13892022D-14  0.17530091D-14
 -0.27263975D-04 -0.28357523D-03 -0.51143960D-03 -0.75411739D-03 -0.25358145D-03
 -0.46535701D-03 -0.12169768D-04 -0.47582749D-15 -0.79192647D-03 -0.54209641D-03
  0.23319184D-14 -0.24235558D-03 -0.99486341D-04 -0.15109211D-14 -0.42559962D-04
 -0.60009312D-04  0.21516182D-03 -0.34191460D-03  0.12675278D-03  0.36773789D-14
  0.33130693D-14 -0.88404596D-03  0.49101576D-04 -0.13860232D-04 -0.35241344D-04
 -0.14233590D-15 -0.13107319D-15  0.22928879D-04
MO    2     MO 0.0        OCC NO =    2.0000041  ORB. ENERGY =    0.000000
  0.42282006D+00  0.78806706D+00  0.13362785D+01  0.20223153D+01  0.25226790D+01
  0.21648339D+01  0.82901637D+00  0.49657048D-04  0.53278754D-03  0.19639552D-02
  0.57424898D-02  0.69199794D-02 -0.83358485D-02  0.38629151D-01 -0.64877419D-03
 -0.75911451D-04  0.64289139D-14  0.62338839D-14  0.42053413D-14 -0.20887927D-04
 -0.20254263D-04 -0.13663406D-04 -0.11014082D-01 -0.10679955D-01 -0.72046343D-02
 -0.13867124D-14 -0.43761658D-05  0.14416029D-02 -0.79363905D-14 -0.30165937D-05
  0.10445616D-03 -0.46205138D-15  0.19777462D-07  0.16836167D-05 -0.99832055D-03
 -0.60542359D-04  0.10588629D-02 -0.59911517D-15 -0.74275667D-14 -0.64290025D-06
  0.34898069D-03  0.53729621D-03 -0.88627691D-03  0.11403691D-14  0.69963412D-14
 -0.15364805D-05  0.34291834D-04 -0.59067272D-06 -0.33701162D-04  0.79818644D-15
  0.42668362D-14  0.60555896D-06 -0.30515319D-14 -0.30130182D-06  0.11181631D-03
 -0.47676275D-14  0.11783085D-05 -0.24095671D-03  0.13922223D-13 -0.27440301D-06
 -0.94492217D-04  0.44407478D-14  0.13359617D-14 -0.73069059D-07  0.12911100D-03
  0.17064670D-14 -0.75790493D-06 -0.16862327D-03 -0.57143521D-14  0.97711211D-06
 -0.21870973D-03 -0.22552404D-14  0.17475700D+00  0.32578225D+00  0.55061638D+00
  0.82767912D+00  0.10166556D+01  0.85802142D+00  0.32263846D+00  0.17330487D-04
  0.12953465D-03  0.48410057D-03  0.13505652D-02  0.18093850D-02 -0.21365463D-02
  0.14430383D-01  0.50983844D-03  0.91675976D-04 -0.22843232D-14 -0.21416982D-14
 -0.15250167D-14  0.29471343D-04  0.27631257D-04  0.19675101D-04  0.11644501D-02
  0.10917460D-02  0.77738820D-03  0.61428674D-14 -0.98065084D-05  0.16073589D-02
  0.26192410D-14  0.12847699D-05 -0.11277822D-04  0.66462232D-16 -0.50350717D-07
  0.53935654D-06 -0.10323925D-02 -0.30532233D-03  0.13377149D-02  0.23542701D-16
 -0.20012707D-14  0.15254783D-04  0.17040318D-04 -0.25688338D-03  0.23984306D-03
 -0.30942715D-15  0.90805830D-14  0.15646033D-05 -0.16255294D-05  0.42577450D-04
 -0.40951920D-04 -0.52950116D-15  0.55304052D-15 -0.34769415D-06 -0.24838228D-15
 -0.18274262D-06  0.34895913D-03 -0.11955186D-14  0.53741046D-05 -0.22563519D-03
  0.19406655D-14 -0.48258768D-05 -0.82124219D-03  0.25937391D-15 -0.24301959D-15
 -0.70433122D-06 -0.88999782D-05 -0.73920531D-15  0.55473932D-07 -0.38840033D-04
  0.14682641D-14  0.20575197D-05  0.65539967D-04 -0.12270208D-14 -0.14559223D-03
 -0.26258159D-03 -0.38717640D-03  0.12348643D-03 -0.35212728D-03 -0.71583843D-05
  0.36469481D-16  0.34401927D-03 -0.21810119D-03  0.65569383D-15 -0.78656615D-04
  0.13512799D-03  0.91418846D-15 -0.10071131D-04 -0.84435231D-04  0.12150417D-03
 -0.13206379D-03  0.10559617D-04  0.18931172D-14 -0.17889772D-15  0.41122408D-03
  0.19360669D-05  0.28358522D-05 -0.47719191D-05 -0.62675208D-15  0.11295082D-14
 -0.61204243D-05 -0.15129190D-03 -0.27286117D-03 -0.40233364D-03  0.10666317D-03
 -0.35282086D-03 -0.76094660D-05 -0.15629156D-14 -0.35397193D-03 -0.22599988D-03
  0.30298058D-14  0.66252562D-04  0.12158386D-03 -0.81899903D-15  0.10825081D-04
 -0.86543250D-04  0.12129287D-03 -0.12904723D-03  0.77543592D-05  0.17966194D-14
  0.10178294D-14 -0.41730830D-03  0.31897010D-05  0.21906851D-05 -0.53803861D-05
  0.24762251D-15 -0.19872834D-15  0.26956963D-05
MO    3     MO 0.0        OCC NO =    1.9805555  ORB. ENERGY =    0.000000
 -0.96616280D-01 -0.18007686D+00 -0.30534562D+00 -0.46210813D+00 -0.57644347D+00
 -0.49467426D+00 -0.18943396D+00 -0.16841592D-02 -0.18069923D-01 -0.66609139D-01
 -0.19476122D+00 -0.23469673D+00  0.28271709D+00  0.14928941D+00  0.75553335D-01
  0.44748796D-02 -0.95531915D-13 -0.92633822D-13 -0.62490229D-13 -0.99827202D-04
 -0.96798806D-04 -0.65299903D-04 -0.18805015D-02 -0.18234539D-02 -0.12300912D-02
 -0.20681380D-13 -0.10636630D-04 -0.80769985D-02 -0.53617730D-14 -0.26289978D-05
  0.80333144D-02 -0.29504444D-15 -0.17577166D-05  0.83916126D-04 -0.14810811D-01
 -0.15838935D-01  0.30649747D-01 -0.10120882D-13  0.12501364D-13  0.90303670D-04
 -0.42774626D-02 -0.51375978D-02  0.94150604D-02  0.24406009D-14  0.19560813D-14
 -0.43897028D-06  0.45857645D-03  0.50682230D-03 -0.96539876D-03  0.74160153D-16
  0.15589724D-14  0.59629905D-05 -0.30587301D-15 -0.61938909D-06 -0.89168387D-02
  0.54407801D-15  0.23269155D-05  0.14283852D-01  0.37354102D-15 -0.46874824D-06
  0.12466664D-01  0.14983867D-14  0.40904006D-15 -0.92471322D-06 -0.36397548D-03
  0.46676641D-15 -0.21764020D-05  0.28942730D-04 -0.16938866D-14  0.49505416D-05
  0.10629837D-02 -0.20108418D-14 -0.28249327D-01 -0.52662436D-01 -0.89006691D-01
 -0.13379366D+00 -0.16434154D+00 -0.13869847D+00 -0.52154245D-01 -0.59431945D-03
 -0.44421697D-02 -0.16601402D-01 -0.46315328D-01 -0.62049770D-01  0.73269209D-01
  0.30218301D-01  0.19292031D-01  0.39502430D-03 -0.30235657D-13 -0.28347850D-13
 -0.20185358D-13 -0.98059778D-03 -0.91937275D-03 -0.65464817D-03  0.10503209D+00
  0.98474262D-01  0.70119541D-01 -0.61196661D-14 -0.53445418D-03  0.62182616D-02
  0.44401882D-16 -0.92615477D-04 -0.40435860D-02  0.44515959D-16  0.68622126D-07
 -0.54843428D-04 -0.18376955D-01 -0.78631860D-02  0.26240141D-01  0.57765912D-16
 -0.55049399D-14  0.29501504D-03 -0.31475467D-02  0.25401557D-02  0.60739100D-03
  0.13118459D-14  0.65492678D-15  0.16367250D-03  0.16442429D-04  0.49504275D-03
 -0.51148518D-03  0.27532701D-15  0.17582380D-15  0.73068189D-05  0.20816992D-15
  0.23181403D-04  0.43375442D-02  0.15514636D-14  0.18747007D-04 -0.92668519D-03
 -0.21759734D-14 -0.88291217D-04 -0.12085947D-01 -0.12030923D-14 -0.70192469D-16
  0.13145932D-05 -0.32616126D-04  0.50370308D-16  0.71381163D-05  0.44669971D-03
  0.16020710D-15 -0.11081896D-04 -0.34885134D-03 -0.13591636D-14  0.64685519D-02
  0.11666300D-01  0.17201952D-01  0.11710043D-03 -0.57975126D-02 -0.77571144D-04
  0.50334935D-15 -0.28128965D-02  0.22536549D-02 -0.28593094D-14  0.40845937D-02
 -0.40435788D-02 -0.55350345D-15  0.54382217D-03 -0.14797745D-02  0.51992481D-03
 -0.10502216D-02  0.53029682D-03  0.17667579D-14 -0.13285840D-14  0.20120374D-02
  0.34316376D-03 -0.72925892D-04 -0.27023787D-03  0.44085853D-15 -0.58311142D-16
  0.93495052D-03  0.66432580D-02  0.11981389D-01  0.17666552D-01 -0.23621113D-03
 -0.60902702D-02 -0.80586788D-04 -0.26291342D-14  0.28861617D-02  0.23463418D-02
  0.23254253D-14 -0.43572937D-02 -0.42283393D-02  0.32950255D-15 -0.57766988D-03
 -0.15211982D-02  0.51441502D-03 -0.10790543D-02  0.56463931D-03  0.14908483D-14
 -0.19870462D-14 -0.20425620D-02  0.35680508D-03 -0.82898908D-04 -0.27390617D-03
  0.46134507D-15  0.20593978D-15 -0.96276060D-03
MO    4     MO 0.0        OCC NO =    1.9670093  ORB. ENERGY =    0.000000
  0.36271708D-01  0.67604499D-01  0.11463293D+00  0.17348475D+00  0.21640855D+00
  0.18571073D+00  0.71117344D-01  0.69282983D-03  0.74336094D-02  0.27401684D-01
  0.80120916D-01  0.96549600D-01 -0.11630422D+00 -0.65979349D-01 -0.53934952D-01
 -0.30520527D-02  0.14440118D-12  0.14002057D-12  0.94457050D-13 -0.58419035D-01
 -0.56646813D-01 -0.38213605D-01 -0.66035536D+00 -0.64032257D+00 -0.43195782D+00
  0.28579171D-13 -0.13800143D-01 -0.14806416D+00 -0.11110735D-14 -0.21375754D-02
 -0.15352958D-01  0.56474122D-16 -0.68930438D-04 -0.10687950D-03 -0.18975642D-01
 -0.18730072D-01  0.37705714D-01 -0.16304276D-14 -0.21987033D-13  0.52392906D-02
 -0.34309247D-02 -0.38627171D-02  0.72936418D-02 -0.48447324D-15  0.47697883D-14
  0.14664878D-02 -0.18318167D-05 -0.13241268D-03  0.13424450D-03  0.92658012D-15
  0.27376132D-14  0.12726700D-03  0.15899864D-14  0.64217239D-03 -0.58072819D-02
 -0.15289500D-13  0.87420860D-04  0.56443676D-02  0.10519541D-13 -0.20139380D-02
  0.11777478D-01  0.27598261D-14  0.74769330D-15  0.48820852D-04 -0.12282223D-03
  0.18757659D-14 -0.25374669D-04 -0.22756808D-03 -0.41188458D-14 -0.12108789D-03
  0.59603476D-03 -0.12199984D-14 -0.49349748D-01 -0.91997873D-01 -0.15548894D+00
 -0.23372888D+00 -0.28709406D+00 -0.24229726D+00 -0.91110097D-01 -0.11992236D-02
 -0.89634535D-02 -0.33498472D-01 -0.93455522D-01 -0.12520463D+00  0.14784333D+00
  0.64196022D-01  0.46035938D-01  0.11223553D-02  0.40507554D-13  0.37978406D-13
  0.27042888D-13 -0.26225509D-01 -0.24588081D-01 -0.17508179D-01 -0.12047701D+00
 -0.11295485D+00 -0.80430586D-01  0.15749372D-13 -0.68241691D-02 -0.33172961D-01
  0.42665096D-14 -0.67061915D-03 -0.57164967D-02  0.50283590D-16  0.13080993D-04
 -0.50774932D-05 -0.17483131D-01  0.14611063D-01  0.28720676D-02  0.24572040D-14
  0.51157205D-14  0.91940260D-05 -0.45615895D-02  0.49197421D-02 -0.35815264D-03
 -0.65579446D-15  0.92699315D-14  0.64935140D-03 -0.97872759D-04  0.79291888D-05
  0.89943570D-04 -0.87339888D-15 -0.12892911D-15  0.86632465D-04 -0.78207733D-15
  0.19915635D-03  0.41536179D-02 -0.23389454D-14  0.26961043D-03  0.70431265D-03
  0.46851774D-14 -0.86707948D-03 -0.13165166D-01 -0.19049456D-14 -0.23055977D-15
  0.17804794D-04  0.29121271D-03 -0.99198284D-15  0.36078116D-04  0.64822768D-03
  0.16836622D-14 -0.89492499D-04 -0.15218658D-02 -0.66414339D-15  0.23153781D-01
  0.41758798D-01  0.61573323D-01  0.25635375D-01 -0.36708630D-02 -0.10672080D-03
  0.17587219D-14 -0.17102231D-01  0.79866978D-02  0.19776766D-14 -0.19509563D-03
 -0.20019861D-02  0.78019360D-15  0.12792237D-02 -0.50327352D-03 -0.15287082D-02
  0.21443792D-02 -0.61567097D-03 -0.21017011D-14  0.24360348D-15 -0.25438513D-02
  0.26506522D-03 -0.10384122D-03 -0.16122400D-03 -0.23051024D-16  0.15433788D-14
  0.51226364D-03  0.26127626D-01  0.47122250D-01  0.69481730D-01  0.28481524D-01
 -0.44997139D-02 -0.79208222D-04 -0.10576755D-14  0.18931297D-01  0.99258755D-02
  0.33870654D-14 -0.59070988D-03 -0.19271631D-02 -0.21178014D-14 -0.14555245D-02
 -0.49985910D-03 -0.17804599D-02  0.20513912D-02 -0.27093131D-03  0.46256449D-14
  0.39370785D-14  0.35413199D-02  0.30316735D-03 -0.16428650D-03 -0.13888085D-03
 -0.47907974D-15 -0.12302667D-15 -0.60653749D-03
MO    5     MO 0.0        OCC NO =    1.9654191  ORB. ENERGY =    0.000000
  0.18327965D-02  0.34160314D-02  0.57923613D-02  0.87661229D-02  0.10935047D-01
  0.93838974D-02  0.35935342D-02  0.35897144D-04  0.38515280D-03  0.14197457D-02
  0.41512533D-02  0.50024621D-02 -0.60259957D-02 -0.34727829D-02 -0.31356571D-02
 -0.21829653D-03  0.29578318D-13  0.28681018D-13  0.19348046D-13  0.13204015D+01
  0.12803453D+01  0.86371337D+00 -0.49956443D-01 -0.48440945D-01 -0.32677975D-01
  0.69109846D-14  0.31202212D+00 -0.11268395D-01 -0.89981401D-14  0.49819699D-01
 -0.11913145D-02 -0.51170455D-15  0.15573882D-02 -0.63577924D-05 -0.14717220D-02
 -0.15036851D-02  0.29754072D-02 -0.55818287D-14 -0.74282562D-14 -0.10098152D+00
 -0.28346613D-03 -0.33148437D-03  0.61495050D-03 -0.58744504D-16  0.69531020D-14
 -0.28384401D-01  0.16866786D-05 -0.10534836D-04  0.88481570D-05 -0.10085641D-15
  0.45605518D-14 -0.26021636D-02  0.12735107D-15 -0.12904776D-01 -0.47869882D-03
 -0.91302971D-14  0.52294836D-04  0.48703546D-03  0.87482438D-14  0.38662033D-01
  0.94906099D-03 -0.99423057D-15  0.10109989D-14 -0.96486466D-03 -0.23308252D-04
  0.19774475D-14  0.42799992D-03  0.40162349D-05 -0.50104443D-14  0.24665941D-02
  0.65908521D-04  0.71179105D-15 -0.27259760D-02 -0.50817683D-02 -0.85888808D-02
 -0.12910690D-01 -0.15858470D-01 -0.13383989D-01 -0.50327295D-02 -0.65734421D-04
 -0.49132407D-03 -0.18361902D-02 -0.51226849D-02 -0.68629854D-02  0.81039061D-02
  0.34757625D-02  0.23396901D-02  0.52635117D-04  0.69531061D-14  0.65189790D-14
  0.46419014D-14  0.40867260D+00  0.38315654D+00  0.27283028D+00 -0.57164559D-03
 -0.53595407D-03 -0.38163123D-03  0.75667906D-14  0.10581965D+00 -0.45516785D-03
  0.25074351D-14  0.65826499D-02 -0.22672424D-03  0.61616731D-16 -0.32662669D-03
 -0.72875823D-07 -0.10254343D-02  0.50185706D-03  0.52357721D-03  0.37599454D-16
 -0.55734653D-15  0.27879049D-01 -0.22772518D-03  0.26324082D-03 -0.35515643D-04
 -0.43871053D-15  0.11485138D-13 -0.41245084D-02 -0.87701803D-06 -0.16029994D-05
  0.24800174D-05  0.49180817D-16  0.88471686D-15 -0.92179615D-03  0.55421400D-16
 -0.38977002D-02  0.33142858D-03 -0.20648913D-14 -0.54301225D-02 -0.41349718D-04
  0.18986271D-14  0.17123223D-01 -0.95293603D-03  0.22542598D-14 -0.15484806D-15
 -0.38644307D-03  0.86042983D-05 -0.16142225D-14 -0.32931576D-03  0.32409071D-04
  0.20787667D-14  0.14886450D-02 -0.58221966D-04  0.52945839D-15  0.19722093D-01
  0.35569607D-01  0.52447364D-01  0.20851413D-01 -0.19954216D-02  0.33737863D-03
 -0.79559652D-15 -0.12194364D-01  0.14183866D-01  0.46896319D-14  0.55915186D-02
  0.16865992D-02  0.37918008D-15  0.58655317D-03  0.56124670D-03 -0.19486718D-02
 -0.13582710D-02  0.33069428D-02 -0.21060012D-14  0.33699916D-14 -0.84136297D-02
  0.32443951D-03 -0.47012219D-03  0.14568269D-03 -0.83838121D-15  0.81289257D-15
  0.91504467D-03 -0.17544746D-01 -0.31642672D-01 -0.46657102D-01 -0.18172406D-01
  0.15747627D-02 -0.34894627D-03 -0.14935647D-14 -0.10661472D-01 -0.13628253D-01
  0.33916777D-14  0.56452991D-02 -0.19031460D-02  0.48567023D-15  0.43608929D-03
 -0.62276392D-03  0.17920100D-02  0.15780608D-02 -0.33700707D-02  0.12025405D-14
  0.22794393D-14 -0.82191615D-02 -0.27844409D-03  0.45078074D-03 -0.17233664D-03
  0.50728323D-15  0.97404833D-15  0.85110405D-03
MO    6     MO 0.0        OCC NO =    1.9601723  ORB. ENERGY =    0.000000
  0.16267075D-02  0.30319153D-02  0.51410385D-02  0.77804150D-02  0.97054545D-02
  0.83287239D-02  0.31894588D-02 -0.38563796D-04 -0.41376423D-03 -0.15252129D-02
 -0.44596329D-02 -0.53740745D-02  0.64736422D-02  0.83211739D-02  0.29190814D-01
  0.62936503D-02 -0.12221000D-12 -0.11850259D-12 -0.79941150D-13  0.45245437D-01
  0.43872854D-01  0.29596368D-01  0.13894646D+01  0.13473133D+01  0.90888958D+00
 -0.27978357D-13  0.10666700D-01  0.32135706D+00 -0.32792560D-14  0.18568561D-02
  0.38364809D-01  0.28690932D-15  0.60016678D-04  0.16409950D-03  0.42197385D-01
  0.43998961D-01 -0.86196346D-01  0.53016458D-14  0.48377816D-14 -0.14795573D-02
  0.10490234D-01  0.11837634D-01 -0.22327868D-01 -0.65196882D-15  0.44885449D-14
 -0.36227572D-03  0.27037043D-03  0.51897962D-03 -0.78935005D-03  0.61622241D-15
 -0.57085801D-15 -0.50506679D-04  0.23471061D-14 -0.23688541D-03  0.15736548D-01
 -0.45986669D-14  0.24190296D-03 -0.16044211D-01 -0.24426515D-14  0.46875327D-03
 -0.31165434D-01  0.31400646D-14 -0.24431535D-15 -0.16037935D-04  0.20238356D-02
  0.76131342D-15 -0.54652821D-06 -0.24867106D-02 -0.28367376D-16  0.48660332D-04
 -0.35847961D-02 -0.99374183D-15  0.58065858D-02  0.10824646D-01  0.18295126D-01
  0.27500987D-01  0.33780037D-01  0.28509159D-01  0.10720188D-01  0.10382650D-03
  0.77603875D-03  0.29002340D-02  0.80912013D-02  0.10839979D-01 -0.12799994D-01
 -0.70204747D-02  0.15728871D-01  0.53766625D-05 -0.36708073D-13 -0.34416152D-13
 -0.24506350D-13 -0.56194274D-02 -0.52685704D-02 -0.37515360D-02 -0.52211931D+00
 -0.48952004D+00 -0.34856743D+00 -0.95716209D-14 -0.13123528D-02 -0.10829698D+00
 -0.71027783D-15 -0.58880572D-03 -0.85539310D-02 -0.84061153D-16 -0.15894657D-04
 -0.40948352D-04  0.85316905D-02  0.28341297D-01 -0.36872987D-01 -0.13492694D-14
 -0.48041514D-14  0.33850236D-02  0.25154666D-03  0.24066408D-02 -0.26581875D-02
  0.18553404D-14 -0.21062568D-14  0.78984503D-03 -0.15104743D-03  0.12284028D-03
  0.28207151D-04 -0.31505942D-15 -0.41795897D-15  0.77329839D-04  0.27074827D-15
 -0.15978664D-03 -0.59473578D-02  0.27635077D-15 -0.22816568D-04  0.64290370D-02
 -0.10885956D-14  0.50217649D-03  0.11413037D-01  0.21570931D-16  0.98307069D-16
 -0.17830570D-04  0.76930793D-03 -0.10276461D-15  0.18530468D-04 -0.20584908D-03
 -0.19215660D-15  0.34961240D-04 -0.21020747D-02 -0.12653138D-14  0.17193525D-01
  0.31009230D-01  0.45723092D-01  0.29248575D-01  0.10757771D-02  0.25672592D-04
  0.12722366D-14 -0.16917064D-01  0.33437585D-02 -0.34706675D-14 -0.57082840D-02
  0.81938104D-03 -0.28235170D-15  0.24258131D-03 -0.18222057D-03 -0.14482792D-02
  0.51406224D-02 -0.36923432D-02  0.90543609D-15 -0.36740051D-15 -0.45092102D-02
 -0.54669465D-03  0.22057735D-05  0.54448888D-03  0.11054726D-14 -0.84491313D-16
  0.63050693D-04  0.18832644D-01  0.33965448D-01  0.50082033D-01  0.31788318D-01
  0.44002113D-03 -0.22286244D-05 -0.29456245D-14  0.17798308D-01  0.37289740D-02
  0.20850741D-14  0.57955138D-02  0.73974257D-03 -0.98306054D-15 -0.41304115D-03
 -0.28105533D-03 -0.14023247D-02  0.52985047D-02 -0.38961799D-02  0.18617851D-14
  0.18649082D-14  0.45104498D-02 -0.56457206D-03 -0.48754734D-05  0.56944754D-03
 -0.13234819D-15 -0.23986111D-15 -0.29943487D-04
MO    7     MO 0.0        OCC NO =    1.9569042  ORB. ENERGY =    0.000000
 -0.34035566D-03 -0.63436699D-03 -0.10756584D-02 -0.16278946D-02 -0.20306702D-02
 -0.17426171D-02 -0.66732978D-03 -0.49131278D-05 -0.52714637D-04 -0.19431608D-03
 -0.56816881D-03 -0.68467104D-03  0.82475883D-03  0.36216290D-03 -0.27146602D-03
 -0.14563946D-03 -0.38120452D-13 -0.36964015D-13 -0.24935706D-13  0.11856338D+01
  0.11496659D+01  0.77555784D+00 -0.30002630D-01 -0.29092459D-01 -0.19625601D-01
 -0.11022398D-13  0.27997347D+00 -0.69873271D-02 -0.10948441D-14  0.50558488D-01
 -0.86731640D-03 -0.46843712D-16  0.17121624D-02 -0.53165638D-05 -0.88287351D-03
 -0.96689487D-03  0.18497684D-02 -0.96307118D-14  0.62052715D-14 -0.12511441D-01
 -0.22849140D-03 -0.28153188D-03  0.51002328D-03  0.15163947D-14  0.24687804D-14
 -0.31441456D-02 -0.80606340D-05 -0.11216773D-04  0.19277407D-04 -0.62702148D-15
 -0.13574360D-15 -0.68192453D-03 -0.49163813D-15 -0.42809497D-02 -0.34816877D-03
  0.46917685D-14  0.88239318D-02  0.33754077D-03 -0.32168541D-14  0.40189175D-02
  0.70696553D-03 -0.44530032D-14  0.25616094D-15 -0.31591090D-03 -0.52681823D-04
 -0.45844272D-15 -0.34604138D-03  0.65404103D-04 -0.31004009D-15  0.12937741D-02
  0.92641366D-04  0.11154937D-14  0.30618806D-03  0.57079622D-03  0.96472338D-03
  0.14501592D-02  0.17812608D-02  0.15033213D-02  0.56528806D-03  0.80562338D-05
  0.60215356D-04  0.22503854D-03  0.62782247D-03  0.84110903D-03 -0.99319293D-03
 -0.29662036D-03 -0.55219977D-03 -0.39413579D-05 -0.13210478D-13 -0.12385663D-13
 -0.88193298D-14 -0.35921131D+00 -0.33678343D+00 -0.23980987D+00  0.13809788D-01
  0.12947554D-01  0.92194296D-02 -0.12782943D-14 -0.98517728D-01  0.29201257D-02
 -0.66454343D-15 -0.25818526D-01  0.23686158D-03  0.27207554D-17 -0.51083356D-03
  0.15185636D-05 -0.10080498D-03 -0.94074492D-03  0.10415499D-02  0.15687632D-14
 -0.14052204D-14  0.11131621D+00  0.14696103D-04 -0.12885012D-03  0.11415402D-03
 -0.20653858D-14 -0.59016539D-15  0.31905838D-01  0.50714539D-05 -0.98135316D-05
  0.47420777D-05 -0.20865306D-16  0.51848777D-16  0.34132170D-02 -0.31350652D-15
 -0.36744077D-02  0.10150297D-03  0.91076696D-16  0.26506658D-02 -0.18932771D-03
  0.84944287D-15  0.83725574D-02 -0.11518121D-03  0.21510620D-15 -0.61152792D-16
 -0.58923788D-03 -0.20608777D-04  0.38421007D-15  0.81069816D-03  0.30812516D-06
 -0.20075170D-15  0.95701549D-03  0.61518205D-04  0.13345208D-14 -0.35227159D-01
 -0.63533632D-01 -0.93680303D-01 -0.53459885D-01  0.10737038D-01  0.44250388D-03
 -0.17874547D-14  0.15506008D-01 -0.10665816D-01  0.13962540D-14 -0.30028992D-02
  0.20218138D-02  0.36054681D-15 -0.35192417D-02  0.17047867D-02  0.75648125D-03
 -0.17371385D-02  0.98065722D-03  0.12593433D-14  0.20605415D-16  0.32063207D-02
  0.17853086D-04  0.34873625D-03 -0.36658934D-03 -0.75140281D-15 -0.79474299D-16
  0.45978741D-04  0.33787296D-01  0.60936779D-01  0.89851245D-01  0.50438469D-01
 -0.11218826D-01 -0.44811607D-03  0.18146973D-14  0.14255052D-01  0.10504749D-01
 -0.35986793D-14 -0.34668786D-02 -0.21060323D-02 -0.72876839D-16 -0.34721018D-02
 -0.16950335D-02 -0.57897329D-03  0.13167901D-02 -0.73781681D-03 -0.31756353D-14
 -0.16388013D-14  0.28179551D-02 -0.33515631D-06 -0.34198690D-03  0.34232206D-03
 -0.51814700D-15 -0.54730750D-15  0.64972991D-04
MO    8     MO 0.0        OCC NO =    1.9226270  ORB. ENERGY =    0.000000
  0.43852146D-14  0.81733190D-14  0.13859011D-13  0.20974139D-13  0.26163586D-13
  0.22452249D-13  0.85980186D-14 -0.21881014D-15 -0.23476892D-14 -0.86540244D-14
 -0.25303860D-13 -0.30492381D-13  0.36731305D-13  0.12695814D-13  0.12775903D-12
  0.48579428D-13  0.13793621D+01  0.13375173D+01  0.90228125D+00  0.17875229D-13
  0.17332960D-13  0.11692712D-13  0.24978552D-12  0.24220793D-12  0.16339204D-12
  0.33242423D+00 -0.22600950D-14 -0.29355879D-13  0.48476804D-01  0.94957822D-14
 -0.24991122D-13  0.88817333D-03 -0.15369446D-15 -0.30641756D-14  0.12993785D-13
  0.93716329D-14 -0.22365418D-13 -0.20875966D-04 -0.12445115D+00 -0.82008258D-14
 -0.12867108D-13 -0.11658923D-13  0.24526032D-13 -0.14039922D-04 -0.37378393D-01
  0.71706755D-14  0.11723199D-14 -0.80093286D-15 -0.37138707D-15  0.47513124D-06
 -0.23624858D-02 -0.48421472D-14 -0.61248707D-02  0.11674892D-15 -0.14852235D-13
 -0.22222433D-01  0.14693852D-14  0.29105287D-13  0.40597045D-01 -0.18196320D-14
  0.15451418D-13  0.22203310D-05 -0.36250013D-03  0.44315756D-15  0.70480556D-15
 -0.15501120D-02 -0.18539655D-14 -0.32667279D-14  0.26376123D-02  0.52449281D-15
  0.11523112D-14  0.56618451D-05 -0.13371718D-13 -0.24927576D-13 -0.42130999D-13
 -0.63330750D-13 -0.77790483D-13 -0.65652423D-13 -0.24687026D-13  0.17217121D-15
  0.12868732D-14  0.48093388D-14  0.13417306D-13  0.17975492D-13 -0.21225704D-13
  0.50698595D-14 -0.19651278D-13 -0.12238556D-13  0.41537382D+00  0.38943936D+00
  0.27730403D+00  0.81912319D-14  0.76798005D-14  0.54684755D-14 -0.50428745D-14
 -0.47280154D-14 -0.33666286D-14  0.10666396D+00 -0.10399153D-12 -0.78228331D-13
  0.12648965D-01 -0.99844415D-13 -0.33547763D-13  0.39860204D-04 -0.36597844D-14