 h2co-wavefunction
GAUSSIAN            138 MOL ORBITALS    198 PRIMITIVES        4 NUCLEI
  O    1    (CENTRE  1)   0.00000000  0.00000000  1.30249752  CHARGE =  8.0
  C    2    (CENTRE  2)   0.00000000  0.00000000 -0.99571749  CHARGE =  6.0
  H    3    (CENTRE  3)   0.00000000  1.76994395 -2.09120873  CHARGE =  1.0
  H    4    (CENTRE  4)   0.00000000 -1.76994395 -2.09120873  CHARGE =  1.0
CENTRE ASSIGNMENTS    1  1  1  1  1  1  1  1  1  1  1  1  1  1  1  1  1  1  1  1
CENTRE ASSIGNMENTS    1  1  1  1  1  1  1  1  1  1  1  1  1  1  1  1  1  1  1  1
CENTRE ASSIGNMENTS    1  1  1  1  1  1  1  1  1  1  1  1  1  1  1  1  1  1  1  1
CENTRE ASSIGNMENTS    1  1  1  1  1  1  1  1  1  1  1  1  2  2  2  2  2  2  2  2
CENTRE ASSIGNMENTS    2  2  2  2  2  2  2  2  2  2  2  2  2  2  2  2  2  2  2  2
CENTRE ASSIGNMENTS    2  2  2  2  2  2  2  2  2  2  2  2  2  2  2  2  2  2  2  2
CENTRE ASSIGNMENTS    2  2  2  2  2  2  2  2  2  2  2  2  2  2  2  2  2  2  2  2
CENTRE ASSIGNMENTS    2  2  2  2  3  3  3  3  3  3  3  3  3  3  3  3  3  3  3  3
CENTRE ASSIGNMENTS    3  3  3  3  3  3  3  3  3  3  3  4  4  4  4  4  4  4  4  4
CENTRE ASSIGNMENTS    4  4  4  4  4  4  4  4  4  4  4  4  4  4  4  4  4  4
TYPE ASSIGNMENTS      1  1  1  1  1  1  1  1  1  1  1  1  1  1  1  1  2  2  2  3
TYPE ASSIGNMENTS      3  3  4  4  4  2  3  4  2  3  4  2  3  4  5  6  7  8  9 10
TYPE ASSIGNMENTS      5  6  7  8  9 10  5  6  7  8  9 10 11 12 13 17 14 15 18 19
TYPE ASSIGNMENTS     16 20 11 12 13 17 14 15 18 19 16 20  1  1  1  1  1  1  1  1
TYPE ASSIGNMENTS      1  1  1  1  1  1  1  1  2  2  2  3  3  3  4  4  4  2  3  4
TYPE ASSIGNMENTS      2  3  4  2  3  4  5  6  7  8  9 10  5  6  7  8  9 10  5  6
TYPE ASSIGNMENTS      7  8  9 10 11 12 13 17 14 15 18 19 16 20 11 12 13 17 14 15
TYPE ASSIGNMENTS     18 19 16 20  1  1  1  1  1  1  2  3  4  2  3  4  2  3  4  5
TYPE ASSIGNMENTS      6  7  8  9 10  5  6  7  8  9 10  1  1  1  1  1  1  2  3  4
TYPE ASSIGNMENTS      2  3  4  2  3  4  5  6  7  8  9 10  5  6  7  8  9 10
EXPONENTS  0.1533000D+05 0.2299000D+04 0.5224000D+03 0.1473000D+03 0.4755000D+02
EXPONENTS  0.1676000D+02 0.6207000D+01 0.5224000D+03 0.1473000D+03 0.4755000D+02
EXPONENTS  0.1676000D+02 0.6207000D+01 0.6882000D+00 0.1752000D+01 0.2384000D+00
EXPONENTS  0.7376000D-01 0.3446000D+02 0.7749000D+01 0.2280000D+01 0.3446000D+02
EXPONENTS  0.7749000D+01 0.2280000D+01 0.3446000D+02 0.7749000D+01 0.2280000D+01
EXPONENTS  0.7156000D+00 0.7156000D+00 0.7156000D+00 0.2140000D+00 0.2140000D+00
EXPONENTS  0.2140000D+00 0.5974000D-01 0.5974000D-01 0.5974000D-01 0.2314000D+01
EXPONENTS  0.2314000D+01 0.2314000D+01 0.2314000D+01 0.2314000D+01 0.2314000D+01
EXPONENTS  0.6450000D+00 0.6450000D+00 0.6450000D+00 0.6450000D+00 0.6450000D+00
EXPONENTS  0.6450000D+00 0.2140000D+00 0.2140000D+00 0.2140000D+00 0.2140000D+00
EXPONENTS  0.2140000D+00 0.2140000D+00 0.1428000D+01 0.1428000D+01 0.1428000D+01
EXPONENTS  0.1428000D+01 0.1428000D+01 0.1428000D+01 0.1428000D+01 0.1428000D+01
EXPONENTS  0.1428000D+01 0.1428000D+01 0.5000000D+00 0.5000000D+00 0.5000000D+00
EXPONENTS  0.5000000D+00 0.5000000D+00 0.5000000D+00 0.5000000D+00 0.5000000D+00
EXPONENTS  0.5000000D+00 0.5000000D+00 0.8236000D+04 0.1235000D+04 0.2808000D+03
EXPONENTS  0.7927000D+02 0.2559000D+02 0.8997000D+01 0.3319000D+01 0.2808000D+03
EXPONENTS  0.7927000D+02 0.2559000D+02 0.8997000D+01 0.3319000D+01 0.3643000D+00
EXPONENTS  0.9059000D+00 0.1285000D+00 0.4402000D-01 0.1871000D+02 0.4133000D+01
EXPONENTS  0.1200000D+01 0.1871000D+02 0.4133000D+01 0.1200000D+01 0.1871000D+02
EXPONENTS  0.4133000D+01 0.1200000D+01 0.3827000D+00 0.3827000D+00 0.3827000D+00
EXPONENTS  0.1209000D+00 0.1209000D+00 0.1209000D+00 0.3569000D-01 0.3569000D-01
EXPONENTS  0.3569000D-01 0.1097000D+01 0.1097000D+01 0.1097000D+01 0.1097000D+01
EXPONENTS  0.1097000D+01 0.1097000D+01 0.3180000D+00 0.3180000D+00 0.3180000D+00
EXPONENTS  0.3180000D+00 0.3180000D+00 0.3180000D+00 0.1000000D+00 0.1000000D+00
EXPONENTS  0.1000000D+00 0.1000000D+00 0.1000000D+00 0.1000000D+00 0.7610000D+00
EXPONENTS  0.7610000D+00 0.7610000D+00 0.7610000D+00 0.7610000D+00 0.7610000D+00
EXPONENTS  0.7610000D+00 0.7610000D+00 0.7610000D+00 0.7610000D+00 0.2680000D+00
EXPONENTS  0.2680000D+00 0.2680000D+00 0.2680000D+00 0.2680000D+00 0.2680000D+00
EXPONENTS  0.2680000D+00 0.2680000D+00 0.2680000D+00 0.2680000D+00 0.3387000D+02
EXPONENTS  0.5095000D+01 0.1159000D+01 0.3258000D+00 0.1027000D+00 0.2526000D-01
EXPONENTS  0.1407000D+01 0.1407000D+01 0.1407000D+01 0.3880000D+00 0.3880000D+00
EXPONENTS  0.3880000D+00 0.1020000D+00 0.1020000D+00 0.1020000D+00 0.1057000D+01
EXPONENTS  0.1057000D+01 0.1057000D+01 0.1057000D+01 0.1057000D+01 0.1057000D+01
EXPONENTS  0.2470000D+00 0.2470000D+00 0.2470000D+00 0.2470000D+00 0.2470000D+00
EXPONENTS  0.2470000D+00 0.3387000D+02 0.5095000D+01 0.1159000D+01 0.3258000D+00
EXPONENTS  0.1027000D+00 0.2526000D-01 0.1407000D+01 0.1407000D+01 0.1407000D+01
EXPONENTS  0.3880000D+00 0.3880000D+00 0.3880000D+00 0.1020000D+00 0.1020000D+00
EXPONENTS  0.1020000D+00 0.1057000D+01 0.1057000D+01 0.1057000D+01 0.1057000D+01
EXPONENTS  0.1057000D+01 0.1057000D+01 0.2470000D+00 0.2470000D+00 0.2470000D+00
EXPONENTS  0.2470000D+00 0.2470000D+00 0.2470000D+00
MO    1     MO 0.0        OCC NO =    2.0000076  ORB. ENERGY =    0.000000
 -0.27091271D+00 -0.50493675D+00 -0.85619121D+00 -0.12957544D+01 -0.16163514D+01
 -0.13870700D+01 -0.53117412D+00 -0.36922693D-04 -0.39615627D-03 -0.14603066D-02
 -0.42698508D-02 -0.51453779D-02  0.61981529D-02 -0.24032810D-01  0.72910892D-03
  0.22973463D-04 -0.64850690D-13 -0.62883355D-13 -0.42420739D-13  0.88073595D-13
  0.85401760D-13  0.57611523D-13  0.14543477D-01  0.14102280D-01  0.95133149D-02
 -0.13757833D-13  0.23739377D-13  0.17685078D-02 -0.77721827D-14 -0.51139809D-15
  0.60736810D-03 -0.66384105D-15  0.76894608D-15  0.72712679D-05  0.91200173D-03
  0.99700535D-04 -0.10117023D-02 -0.11284200D-13  0.25282403D-13  0.17892552D-13
  0.22293866D-03  0.10246542D-03 -0.32540408D-03  0.20818683D-14  0.51720700D-14
 -0.14261101D-13  0.61538982D-04  0.96869735D-05 -0.71225955D-04 -0.55964227D-15
  0.35107919D-14  0.19472901D-14 -0.15199180D-14 -0.17491102D-14 -0.68983536D-04
  0.12351299D-14 -0.34656195D-14  0.39311652D-03  0.33246242D-14  0.87129500D-14
 -0.18616591D-03 -0.74562038D-14  0.14045390D-14 -0.95041500D-15  0.10204434D-03
  0.49763967D-15 -0.23756404D-14 -0.17183192D-03 -0.47112565D-14  0.52268854D-14
 -0.13430111D-03  0.14995478D-14  0.27544624D+00  0.51348728D+00  0.86786347D+00
  0.13045607D+01  0.16024191D+01  0.13523852D+01  0.50853215D+00  0.32224523D-04
  0.24085835D-03  0.90014264D-03  0.25112578D-02  0.33643931D-02 -0.39727209D-02
  0.22602630D-01  0.51472466D-03  0.11983811D-03 -0.25165417D-13 -0.23594178D-13
 -0.16800460D-13  0.27539855D-14  0.25820364D-14  0.18385638D-14  0.20728964D-02
  0.19434721D-02  0.13838679D-02  0.49375847D-14 -0.64852259D-13  0.19920568D-03
  0.58689345D-14  0.12533928D-13 -0.10508966D-03  0.22177397D-15 -0.27800327D-15
 -0.34638742D-05 -0.11904090D-02  0.26893166D-03  0.92147735D-03 -0.49342986D-14
 -0.64050678D-15  0.28647679D-13  0.14508520D-03  0.34518981D-04 -0.17960418D-03
  0.47776741D-14  0.16189800D-14  0.13747151D-13 -0.56467757D-05  0.18294562D-04
 -0.12647786D-04  0.48031916D-15  0.90225146D-17 -0.22996759D-14 -0.65471275D-15
  0.96775024D-15  0.52632686D-03 -0.46933595D-15  0.11572855D-13 -0.22742103D-04
  0.24334742D-14 -0.14476105D-13 -0.15562385D-02 -0.25053402D-14 -0.66249472D-15
 -0.10865792D-14 -0.11427414D-03  0.13453685D-14 -0.31235772D-16  0.43622946D-04
  0.64211565D-15  0.32909732D-14  0.29919948D-03 -0.83600839D-15 -0.27253341D-03
 -0.49152524D-03 -0.72475367D-03 -0.23968497D-03 -0.44825845D-03 -0.11717803D-04
  0.46201301D-14  0.76638762D-03 -0.51545218D-03 -0.87191812D-14  0.22913083D-03
 -0.97696630D-04 -0.28160122D-14  0.42166675D-04 -0.56083587D-04  0.22400606D-03
 -0.34925214D-03  0.12524608D-03  0.37319432D-14 -0.29385194D-14  0.87619620D-03
  0.47566827D-04 -0.12912359D-04 -0.34654468D-04  0.29799311D-14 -0.20767138D-14
 -0.23752870D-04 -0.27253341D-03 -0.49152524D-03 -0.72475367D-03 -0.23968497D-03
 -0.44825845D-03 -0.11717803D-04  0.10176991D-14 -0.76638762D-03 -0.51545218D-03
 -0.11234461D-14 -0.22913083D-03 -0.97696630D-04 -0.74300014D-15 -0.42166675D-04
 -0.56083587D-04  0.22400606D-03 -0.34925214D-03  0.12524608D-03  0.41266568D-15
  0.15853343D-15 -0.87619620D-03  0.47566827D-04 -0.12912359D-04 -0.34654468D-04
 -0.24253371D-15 -0.40359943D-15  0.23752870D-04
MO    2     MO 0.0        OCC NO =    2.0000041  ORB. ENERGY =    0.000000
  0.42018950D+00  0.78316414D+00  0.13279648D+01  0.20097336D+01  0.25069842D+01
  0.21513655D+01  0.82385868D+00  0.49506711D-04  0.53117452D-03  0.19580093D-02
  0.57251043D-02  0.68990291D-02 -0.83106116D-02  0.38349625D-01 -0.66740741D-03
 -0.83799769D-04  0.27345701D-13  0.26516131D-13  0.17887625D-13  0.35219919D-13
  0.34151474D-13  0.23038383D-13 -0.10935510D-01 -0.10603766D-01 -0.71532382D-02
  0.40406474D-14  0.10949066D-13  0.14463645D-02 -0.16306614D-14  0.17548729D-14
  0.10382152D-03 -0.16524992D-15  0.42533103D-15  0.19017800D-05 -0.95710142D-03
 -0.29273595D-04  0.98637501D-03 -0.12112741D-13 -0.16416989D-13  0.99327550D-14
  0.35111054D-03  0.53966323D-03 -0.89077377D-03  0.14848524D-14  0.26659132D-14
 -0.97923605D-14  0.33162592D-04 -0.11258055D-05 -0.32036787D-04 -0.41371957D-15
  0.14526102D-14 -0.74334218D-15 -0.16043096D-14 -0.18195455D-14  0.15839550D-03
  0.21228329D-14  0.42212671D-14 -0.31074740D-03  0.26900959D-14  0.12373695D-14
 -0.16443911D-03 -0.60869919D-14  0.63297677D-15 -0.10853623D-14  0.12678975D-03
  0.10393082D-15 -0.20044888D-14 -0.16438964D-03 -0.20028611D-14  0.52605756D-14
 -0.21597962D-03  0.58341773D-15  0.17748896D+00  0.33087518D+00  0.55922413D+00
  0.84061817D+00  0.10325489D+01  0.87143481D+00  0.32768225D+00  0.17721415D-04
  0.13245660D-03  0.49502055D-03  0.13810303D-02  0.18501998D-02 -0.21847410D-02
  0.14587837D-01  0.53340819D-03  0.95913244D-04  0.47800556D-14  0.44816059D-14
  0.31911704D-14  0.56158048D-14  0.52651740D-14  0.37491175D-14  0.11505594D-02
  0.10787225D-02  0.76811471D-03  0.71428541D-14 -0.31411283D-13  0.16029443D-02
  0.40987954D-14  0.83899062D-14 -0.10469588D-04  0.12469873D-15 -0.39268711D-18
  0.55687816D-06 -0.10333831D-02 -0.29971335D-03  0.13330965D-02 -0.20144342D-14
  0.32613690D-14  0.11844292D-13  0.10507742D-04 -0.25998011D-03  0.24947236D-03
  0.31538639D-14  0.10052924D-14  0.59546967D-15 -0.21605508D-05  0.41909427D-04
 -0.39748877D-04  0.40167013D-15 -0.25894329D-15 -0.15759832D-14 -0.64744398D-15
  0.78759625D-15  0.36831729D-03 -0.92194293D-15  0.46378801D-14 -0.24690396D-03
  0.28642749D-14 -0.70006688D-14 -0.85804791D-03 -0.25345428D-14 -0.41165605D-15
 -0.41243722D-15 -0.92223888D-05  0.64691362D-15  0.67213961D-16 -0.37139670D-04
  0.58805452D-15  0.11700977D-14  0.64806836D-04 -0.73733606D-15 -0.15214803D-03
 -0.27440525D-03 -0.40461037D-03  0.93836939D-04 -0.35647284D-03 -0.76388666D-05
  0.25469210D-14  0.35925170D-03 -0.22860013D-03 -0.54714828D-14 -0.65310753D-04
  0.13150631D-03 -0.21046044D-14 -0.88211913D-05 -0.83364046D-04  0.12239138D-03
 -0.13868886D-03  0.16297480D-04  0.16731567D-14 -0.19480680D-14  0.42258197D-03
  0.27213542D-05  0.19908892D-05 -0.47122434D-05  0.20232172D-14 -0.10604965D-14
 -0.70505311D-05 -0.15214803D-03 -0.27440525D-03 -0.40461037D-03  0.93836939D-04
 -0.35647284D-03 -0.76388666D-05  0.42907312D-15 -0.35925170D-03 -0.22860013D-03
  0.12126195D-15  0.65310753D-04  0.13150631D-03 -0.53037470D-15  0.88211913D-05
 -0.83364046D-04  0.12239138D-03 -0.13868886D-03  0.16297480D-04  0.29610943D-14
  0.10889389D-14 -0.42258197D-03  0.27213542D-05  0.19908892D-05 -0.47122434D-05
 -0.20740228D-15  0.76120391D-16  0.70505311D-05
MO    3     MO 0.0        OCC NO =    1.9804345  ORB. ENERGY =    0.000000
 -0.96731015D-01 -0.18029071D+00 -0.30570823D+00 -0.46265690D+00 -0.57712801D+00
 -0.49526170D+00 -0.18965892D+00 -0.16888356D-02 -0.18120098D-01 -0.66794092D-01
 -0.19530201D+00 -0.23534842D+00  0.28350211D+00  0.14994714D+00  0.75979823D-01
  0.43494180D-02  0.10094016D-12  0.97878004D-13  0.66027923D-13  0.87817839D-12
  0.85153763D-12  0.57444226D-12  0.10045989D-01  0.97412296D-02  0.65713760D-02
  0.24731644D-13  0.23323638D-12 -0.53670726D-02  0.45882919D-14  0.48875042D-12
  0.81355922D-02  0.20704437D-15 -0.44362852D-14  0.93257012D-04 -0.14104618D-01
 -0.15148449D-01  0.29253067D-01  0.40239928D-14 -0.25274203D-14 -0.76711466D-13
 -0.41665781D-02 -0.50056120D-02  0.91721901D-02 -0.10519600D-14 -0.62420435D-14
 -0.12822976D-12  0.43784324D-03  0.50328848D-03 -0.94113172D-03 -0.49463319D-15
 -0.95980194D-15 -0.19726764D-12  0.71951035D-15 -0.15656692D-13 -0.87109627D-02
 -0.15374468D-14  0.42588211D-13  0.13991474D-01 -0.62108427D-15  0.43818633D-14
  0.12141414D-01 -0.13225019D-13 -0.64867082D-15 -0.93328374D-14 -0.36342674D-03
 -0.65826336D-15 -0.34862674D-13  0.42464325D-04  0.26042758D-14  0.62861186D-13
  0.10478159D-02  0.20167977D-14 -0.27680099D-01 -0.51601280D-01 -0.87213193D-01
 -0.13109770D+00 -0.16103004D+00 -0.13590367D+00 -0.51103330D-01 -0.58267791D-03
 -0.43551564D-02 -0.16276214D-01 -0.45408102D-01 -0.60834338D-01  0.71834010D-01
  0.29607474D-01  0.18901862D-01  0.40769170D-03  0.33456852D-13  0.31367925D-13
  0.22335832D-13  0.11196382D-11  0.10497320D-11  0.74747169D-12  0.10047895D+00
  0.94205403D-01  0.67079859D-01  0.53280310D-14 -0.11161124D-12  0.61231610D-02
  0.88149307D-15 -0.14876842D-11 -0.38976203D-02 -0.40502142D-16 -0.36699343D-13
 -0.53218801D-04 -0.17999978D-01 -0.76156532D-02  0.25615631D-01  0.30052307D-14
  0.21063523D-14 -0.41212108D-13 -0.31222785D-02  0.24039768D-02  0.71830171D-03
 -0.34142270D-14 -0.54971440D-15  0.24169756D-12  0.14331459D-04  0.47618080D-03
 -0.49051225D-03 -0.42717848D-16 -0.11438582D-15  0.10382750D-12  0.30292507D-15
  0.14216712D-13  0.42451685D-02  0.14610917D-14 -0.15672967D-13 -0.90992377D-03
 -0.23698669D-14 -0.26977169D-13 -0.11825582D-01  0.14877767D-14  0.36090477D-16
  0.38095746D-13 -0.10710507D-04 -0.52830521D-15  0.92925395D-13  0.41633995D-03
  0.42003378D-15 -0.20721263D-12 -0.38420842D-03  0.20940296D-14  0.65112909D-02
  0.11743381D-01  0.17315609D-01  0.28501532D-03 -0.56715072D-02 -0.77877261D-04
 -0.20277400D-14 -0.28878470D-02  0.22699190D-02  0.49515723D-14  0.40354029D-02
 -0.39695203D-02  0.19270949D-15  0.54691490D-03 -0.14447920D-02  0.51343958D-03
 -0.10144000D-02  0.50096044D-03 -0.28377321D-14  0.72858841D-15  0.19939466D-02
  0.33261318D-03 -0.78654721D-04 -0.25395846D-03 -0.72098333D-15  0.68738094D-15
  0.92919745D-03  0.65112909D-02  0.11743381D-01  0.17315609D-01  0.28501532D-03
 -0.56715072D-02 -0.77877262D-04  0.25586746D-14  0.28878470D-02  0.22699190D-02
 -0.30977722D-14 -0.40354029D-02 -0.39695203D-02 -0.28799361D-15 -0.54691490D-03
 -0.14447920D-02  0.51343958D-03 -0.10144000D-02  0.50096044D-03 -0.18584086D-14
  0.99943582D-16 -0.19939466D-02  0.33261318D-03 -0.78654721D-04 -0.25395846D-03
 -0.11160064D-14  0.14152030D-15 -0.92919745D-03
MO    4     MO 0.0        OCC NO =    1.9668007  ORB. ENERGY =    0.000000
  0.35919816D-01  0.66948632D-01  0.11352081D+00  0.17180168D+00  0.21430905D+00
  0.18390905D+00  0.70427396D-01  0.68572213D-03  0.73573484D-02  0.27120572D-01
  0.79298960D-01  0.95559103D-01 -0.11511107D+00 -0.65349642D-01 -0.53005806D-01
 -0.29045057D-02 -0.15233363D-12 -0.14771238D-12 -0.99645899D-13 -0.32758381D-11
 -0.31764610D-11 -0.21428219D-11 -0.64101138D+00 -0.62156541D+00 -0.41930436D+00
 -0.31505514D-13 -0.77953849D-12 -0.14389767D+00 -0.41327480D-15  0.68613626D-12
 -0.14884443D-01  0.53347713D-15 -0.31394819D-13 -0.10567683D-03 -0.18390693D-01
 -0.18176756D-01  0.36567449D-01  0.71412921D-14  0.17204394D-13  0.57269362D-13
 -0.33553206D-02 -0.37605869D-02  0.71159075D-02 -0.25080169D-14  0.30480676D-15
 -0.18212431D-12 -0.68271550D-06 -0.13059589D-03  0.13127861D-03  0.51808916D-15
 -0.29757107D-14 -0.33556874D-12  0.28776584D-14 -0.27618715D-14 -0.56747290D-02
  0.46110709D-14  0.51473374D-13  0.55214002D-02 -0.13244046D-13 -0.43187760D-13
  0.11502787D-01 -0.43820213D-14 -0.10519566D-14 -0.12768844D-13 -0.10221341D-03
 -0.12698839D-14 -0.62482573D-13 -0.24945006D-03  0.44257535D-14  0.10078910D-12
  0.55609030D-03  0.71075010D-15 -0.49566141D-01 -0.92401271D-01 -0.15617074D+00
 -0.23475375D+00 -0.28835293D+00 -0.24335970D+00 -0.91509603D-01 -0.12043222D-02
 -0.90015624D-02 -0.33640894D-01 -0.93852856D-01 -0.12573695D+00  0.14847190D+00
  0.64515294D-01  0.46488866D-01  0.11098971D-02 -0.38657097D-13 -0.36243485D-13
 -0.25807521D-13  0.21925022D-11  0.20556101D-11  0.14637169D-11 -0.12448799D+00
 -0.11671540D+00 -0.83108317D-01 -0.20692003D-13 -0.34681485D-12 -0.34001749D-01
 -0.52719694D-14 -0.27738679D-11 -0.57894946D-02 -0.21684039D-15 -0.46498090D-13
 -0.60363255D-05 -0.17345665D-01  0.15047206D-01  0.22984589D-02 -0.11809694D-14
 -0.96123311D-14 -0.31173445D-12 -0.45888296D-02  0.49745483D-02 -0.38571866D-03
 -0.16750928D-14 -0.40483868D-14  0.44404062D-12 -0.99455819D-04  0.19877753D-04
  0.79578066D-04 -0.75303687D-15 -0.21980093D-15  0.18412065D-12  0.18265090D-14
  0.24907903D-13  0.40895010D-02 -0.17476755D-14  0.17794953D-13  0.87705650D-03
 -0.37318514D-14 -0.92518662D-13 -0.13145559D-01  0.99139427D-15  0.36400438D-15
  0.62711104D-13  0.31661608D-03  0.14047907D-15  0.17178738D-12  0.62857006D-03
 -0.12324922D-14 -0.35992070D-12 -0.15784183D-02  0.88467305D-15  0.24787435D-01
  0.44705160D-01  0.65917732D-01  0.27487476D-01 -0.40968872D-02 -0.92521807D-04
 -0.47711928D-14 -0.18105454D-01  0.89189081D-02  0.39692742D-14  0.98508312D-04
 -0.19465730D-02  0.19472555D-14  0.13668867D-02 -0.52610664D-03 -0.16512259D-02
  0.21471543D-02 -0.49592844D-03 -0.28097477D-14  0.94467594D-15 -0.30122489D-02
  0.27109822D-03 -0.13044114D-03 -0.14065708D-03 -0.17741033D-14  0.83831184D-15
  0.57368739D-03  0.24787435D-01  0.44705160D-01  0.65917732D-01  0.27487476D-01
 -0.40968872D-02 -0.92521807D-04  0.76174690D-15  0.18105454D-01  0.89189081D-02
 -0.85392258D-15 -0.98508313D-04 -0.19465730D-02 -0.35427464D-15 -0.13668867D-02
 -0.52610664D-03 -0.16512259D-02  0.21471543D-02 -0.49592844D-03  0.81913255D-15
  0.16854884D-14  0.30122489D-02  0.27109822D-03 -0.13044114D-03 -0.14065708D-03
  0.56739090D-15 -0.47593039D-15 -0.57368739D-03
MO    5     MO 0.0        OCC NO =    1.9652123  ORB. ENERGY =    0.000000
  0.12249322D-12  0.22830723D-12  0.38712699D-12  0.58587553D-12  0.73083354D-12
  0.62716391D-12  0.24017046D-12  0.16670648D-14  0.17886511D-13  0.65933047D-13
  0.19278436D-12  0.23231453D-12 -0.27984747D-12 -0.15096507D-12  0.35647302D-12
  0.99677748D-13  0.25169709D-14  0.24406151D-14  0.16464246D-14  0.13295345D+01
  0.12892012D+01  0.86968752D+00  0.47057121D-11  0.45629578D-11  0.30781444D-11
  0.26800279D-14  0.31426917D+00  0.10409235D-11  0.43606584D-14  0.50366570D-01
 -0.10593910D-12  0.99202040D-16  0.15742971D-02 -0.52298515D-14  0.14635051D-12
  0.19107843D-12 -0.33742894D-12 -0.19390393D-14  0.98054826D-14 -0.98888946D-01
  0.34847289D-13  0.18212973D-13 -0.53060262D-13  0.17747489D-14 -0.53806973D-14
 -0.28070474D-01 -0.10161571D-13 -0.20408447D-13  0.30570017D-13  0.45938354D-15
 -0.15315349D-14 -0.26174221D-02  0.11954407D-14 -0.12822576D-01  0.68276003D-13
 -0.38986775D-14  0.27225786D-03 -0.51857146D-13  0.31235551D-15  0.38195469D-01
 -0.15297086D-12  0.65361812D-14 -0.44425603D-15 -0.96723219D-03 -0.50518927D-14
 -0.76814443D-15  0.43060199D-03 -0.63955361D-14  0.21009125D-14  0.24710946D-02
  0.21551214D-13 -0.25039805D-14  0.10639472D-12  0.19834120D-12  0.33522364D-12
  0.50390366D-12  0.61895539D-12  0.52237651D-12  0.19642721D-12  0.29476378D-14
  0.22031766D-13  0.82337740D-13  0.22970947D-12  0.30774737D-12 -0.36339226D-12
 -0.81747732D-13 -0.12874381D-11 -0.14976393D-12  0.45488027D-14  0.42647916D-14
  0.30367857D-14  0.40523944D+00  0.37993773D+00  0.27053830D+00 -0.14677708D-11
 -0.13761284D-11 -0.97988540D-12 -0.45828245D-14  0.10541110D+00 -0.32234645D-12
 -0.18143501D-14  0.64612444D-02  0.91972501D-13  0.23433891D-16 -0.32569362D-03
  0.12169207D-14  0.30447521D-13  0.91006313D-13 -0.12145383D-12 -0.64106635D-14
 -0.24308801D-14  0.27164390D-01  0.12912383D-12 -0.47765116D-13 -0.81358713D-13
  0.67622056D-14 -0.31700381D-14 -0.38289412D-02  0.94787796D-14 -0.20500618D-13
  0.11021838D-13  0.77120429D-15 -0.20558652D-15 -0.87469659D-03  0.82793877D-15
 -0.38034343D-02 -0.50306938D-13 -0.33106611D-15 -0.55196549D-02  0.12693180D-13
 -0.21527502D-14  0.16929958D-01  0.13822763D-12 -0.95012650D-15  0.33413726D-15
 -0.38101207D-03 -0.18691549D-13  0.56128446D-16 -0.31067129D-03 -0.17118923D-13
 -0.10585402D-14  0.14537075D-02  0.73193569D-13 -0.37697929D-14  0.18482498D-01
  0.33333946D-01  0.49150884D-01  0.19621702D-01 -0.15820267D-02  0.33657537D-03
  0.45472011D-14 -0.11328236D-01  0.13653724D-01 -0.68456222D-14  0.55479594D-02
  0.17385381D-02 -0.14302232D-14  0.49135517D-03  0.59015280D-03 -0.17904156D-02
 -0.14373366D-02  0.32277522D-02  0.11404619D-14 -0.16904196D-14 -0.81380094D-02
  0.31396357D-03 -0.46678245D-03  0.15281889D-03  0.19371365D-14 -0.10439871D-14
  0.90761957D-03 -0.18482498D-01 -0.33333946D-01 -0.49150884D-01 -0.19621702D-01
  0.15820267D-02 -0.33657537D-03 -0.49790306D-14 -0.11328236D-01 -0.13653724D-01
  0.82014076D-14  0.55479594D-02 -0.17385381D-02  0.19002338D-14  0.49135517D-03
 -0.59015280D-03  0.17904156D-02  0.14373366D-02 -0.32277522D-02  0.24627708D-14
  0.18338826D-15 -0.81380094D-02 -0.31396357D-03  0.46678245D-03 -0.15281889D-03
  0.25122141D-14  0.11133057D-14  0.90761957D-03
MO    6     MO 0.0        OCC NO =    1.9595796  ORB. ENERGY =    0.000000
  0.15307333D-02  0.28530352D-02  0.48377221D-02  0.73213780D-02  0.91328419D-02
  0.78373371D-02  0.30012838D-02 -0.39704323D-04 -0.42600133D-03 -0.15703211D-02
 -0.45915268D-02 -0.55330131D-02  0.66651006D-02  0.86382050D-02  0.29046005D-01
  0.62814983D-02  0.13713240D-12  0.13297230D-12  0.89702329D-13  0.32732546D-11
  0.31739559D-11  0.21411319D-11  0.13926151D+01  0.13503682D+01  0.91095042D+00
  0.33232673D-13  0.75275196D-12  0.32286617D+00  0.84680066D-14  0.12597973D-12
  0.38896941D-01  0.17492900D-15  0.84822553D-14  0.16903299D-03  0.42012562D-01
  0.43747366D-01 -0.85759928D-01  0.89773132D-14 -0.18430814D-14  0.20758031D-12
  0.10545262D-01  0.11922059D-01 -0.22467321D-01 -0.16673842D-14 -0.72895059D-14
  0.71372118D-13  0.30377631D-03  0.53848099D-03 -0.84225731D-03  0.60861718D-15
 -0.21746633D-14  0.16764862D-13  0.99239029D-15  0.17214459D-13  0.15920471D-01
  0.21895419D-15  0.44668199D-13 -0.16199828D-01 -0.31961251D-14 -0.96311577D-13
 -0.31561586D-01  0.49032805D-14 -0.81363144D-15  0.33051158D-15  0.20511641D-02
 -0.89845743D-15 -0.39185901D-16 -0.25028600D-02  0.33393517D-14 -0.95234884D-15
 -0.36506322D-02 -0.19811427D-14  0.63853432D-02  0.11903566D-01  0.20118648D-01
  0.30242081D-01  0.37146980D-01  0.31350740D-01  0.11788697D-01  0.11692293D-03
  0.87392643D-03  0.32660626D-02  0.91118061D-02  0.12207308D-01 -0.14414555D-01
 -0.78364128D-02  0.14950039D-01  0.27672796D-04  0.40394704D-13  0.37872602D-13
  0.26967549D-13 -0.33803067D-11 -0.31692524D-11 -0.22566965D-11 -0.51931738D+00
 -0.48689306D+00 -0.34669686D+00  0.85221561D-14 -0.69791258D-12 -0.10825974D+00
  0.94016790D-15 -0.79378528D-13 -0.86568423D-02  0.37733898D-16 -0.32623921D-14
 -0.41222124D-04  0.83413565D-02  0.27865504D-01 -0.36206861D-01  0.21401724D-14
  0.49406492D-14  0.53391962D-12  0.32051193D-03  0.24382300D-02 -0.27587420D-02
 -0.20165483D-14 -0.32384867D-14  0.77853846D-13 -0.15264312D-03  0.13495412D-03
  0.17689006D-04 -0.19033144D-15 -0.19185685D-15  0.56923712D-14  0.28661960D-15
 -0.79425668D-14 -0.57367286D-02 -0.31629843D-15 -0.33774598D-14  0.61736518D-02
 -0.54356038D-15  0.27205160D-13  0.11036534D-01  0.88592230D-15 -0.96873783D-17
 -0.10750152D-13  0.71294668D-03  0.63266820D-15 -0.48711259D-14 -0.15475706D-03
 -0.60360606D-15  0.37121582D-13 -0.19840830D-02 -0.30031551D-15  0.17638071D-01
  0.31810987D-01  0.46905282D-01  0.30234997D-01  0.82210695D-03  0.10998378D-04
  0.91534817D-15 -0.16928317D-01  0.32633343D-02  0.12493071D-15 -0.57037069D-02
  0.73891444D-03  0.11263324D-15  0.30084986D-03 -0.23457329D-03 -0.14606889D-02
  0.51834329D-02 -0.37227440D-02 -0.54827254D-16  0.16697942D-14 -0.44406740D-02
 -0.53999427D-03  0.52950296D-05  0.53469924D-03 -0.30867590D-17 -0.35902626D-15
  0.18006808D-04  0.17638071D-01  0.31810987D-01  0.46905282D-01  0.30234997D-01
  0.82210695D-03  0.10998378D-04  0.30697606D-14  0.16928317D-01  0.32633343D-02
 -0.21414275D-14  0.57037069D-02  0.73891444D-03 -0.60287256D-15 -0.30084986D-03
 -0.23457329D-03 -0.14606889D-02  0.51834329D-02 -0.37227440D-02  0.57870323D-15
  0.93986590D-15  0.44406740D-02 -0.53999427D-03  0.52950297D-05  0.53469924D-03
 -0.91999426D-15 -0.11064642D-14 -0.18006808D-04
MO    7     MO 0.0        OCC NO =    1.9567245  ORB. ENERGY =    0.000000
  0.38411187D-13  0.71592137D-13  0.12139453D-12  0.18371771D-12  0.22917336D-12
  0.19666484D-12  0.75312186D-13  0.15318194D-14  0.16435417D-13  0.60584041D-13
  0.17714418D-12  0.21346735D-12 -0.25714405D-12 -0.17172992D-12 -0.51171152D-12
  0.66725433D-13 -0.34192710D-13 -0.33155427D-13 -0.22366455D-13  0.11785042D+01
  0.11427527D+01  0.77089419D+00 -0.10881497D-10 -0.10551392D-10 -0.71179066D-11
 -0.82012002D-14  0.27821378D+00 -0.25142181D-11  0.24582593D-14  0.50250137D-01
 -0.15223707D-12  0.15601300D-15  0.17058560D-02 -0.99190738D-14 -0.30902851D-12
 -0.37526413D-12  0.68429264D-12  0.25621344D-14  0.16432317D-13 -0.12037595D-01
 -0.11171267D-12 -0.83337155D-13  0.19504983D-12 -0.12817049D-14 -0.61437594D-14
 -0.29716285D-02 -0.37417002D-15  0.25031723D-13 -0.24657553D-13  0.17582194D-14
 -0.14534720D-14 -0.67543045D-03  0.82170524D-15 -0.42599350D-02 -0.15450695D-12
  0.75958690D-15  0.88408285D-02  0.11965445D-12 -0.32247026D-14  0.39389765D-02
  0.34386639D-12  0.18976559D-13 -0.72322131D-15 -0.31312947D-03 -0.41568080D-14
 -0.60230128D-15 -0.34183076D-03  0.30798813D-13  0.27719652D-14  0.12812192D-02
 -0.18328389D-13 -0.48431563D-14 -0.27966841D-12 -0.52135826D-12 -0.88116649D-12
 -0.13245576D-11 -0.16269817D-11 -0.13731152D-11 -0.51632717D-12 -0.69622859D-14
 -0.52038773D-13 -0.19448078D-12 -0.54257109D-12 -0.72689567D-12  0.85832825D-12
  0.25419125D-12  0.22736985D-11  0.17985091D-12 -0.67789972D-14 -0.63557408D-14
 -0.45256660D-14 -0.36299532D+00 -0.34033119D+00 -0.24233608D+00  0.27753332D-11
  0.26020513D-11  0.18528156D-11 -0.81077601D-14 -0.99123781D-01  0.23797911D-12
 -0.22079101D-14 -0.25632069D-01 -0.36268622D-12 -0.74484579D-16 -0.50084463D-03
 -0.10092279D-13 -0.76469082D-13 -0.10529319D-12  0.18176227D-12  0.21839945D-14
 -0.28648811D-14  0.10956674D+00 -0.21889052D-12  0.15883299D-12  0.60057528D-13
 -0.26602781D-14 -0.33899047D-14  0.31610649D-01 -0.12652162D-13  0.24681009D-13
 -0.12028847D-13 -0.96364489D-15 -0.14886717D-15  0.33835568D-02  0.11857222D-14
 -0.36041907D-02  0.69996011D-13  0.38090781D-16  0.27007529D-02  0.25044299D-13
 -0.35952574D-14  0.81118193D-02 -0.23503233D-12  0.51029880D-15  0.20971063D-15
 -0.57916549D-03  0.29769064D-13  0.64367891D-16  0.80886442D-03  0.42436191D-13
 -0.69349978D-15  0.92863207D-03 -0.13174338D-12 -0.17643265D-14 -0.34479833D-01
 -0.62185798D-01 -0.91692923D-01 -0.52209501D-01  0.10642619D-01  0.43254240D-03
 -0.14190925D-14  0.14984114D-01 -0.10636449D-01  0.12682232D-14 -0.31475583D-02
  0.19070181D-02  0.18427354D-14 -0.34543253D-02  0.16589881D-02  0.75108907D-03
 -0.15454673D-02  0.79437818D-03 -0.11192833D-16  0.71970433D-15  0.32635026D-02
  0.92954459D-05  0.34931695D-03 -0.35861239D-03 -0.92578371D-15  0.15006900D-14
  0.63980906D-04  0.34479833D-01  0.62185798D-01  0.91692923D-01  0.52209501D-01
 -0.10642619D-01 -0.43254240D-03  0.78723538D-15  0.14984114D-01  0.10636449D-01
  0.43521374D-15 -0.31475583D-02 -0.19070181D-02 -0.11025603D-14 -0.34543253D-02
 -0.16589881D-02 -0.75108907D-03  0.15454673D-02 -0.79437818D-03  0.28957126D-14
  0.23699264D-14  0.32635026D-02 -0.92954459D-05 -0.34931695D-03  0.35861239D-03
 -0.25445171D-15 -0.90060951D-15  0.63980906D-04
MO    8     MO 0.0        OCC NO =    1.9211343  ORB. ENERGY =    0.000000
 -0.67451778D-14 -0.12571902D-13 -0.21317427D-13 -0.32261659D-13 -0.40243877D-13
 -0.34535234D-13 -0.13225160D-13  0.13467319D-15  0.14449549D-14  0.53263758D-14
  0.15574010D-13  0.18767440D-13 -0.22607370D-13 -0.23411489D-13 -0.17993115D-13
 -0.20564390D-13  0.13793576D+01  0.13375129D+01  0.90227828D+00  0.22419013D-13
  0.21738902D-13  0.14664935D-13 -0.21789579D-12 -0.21128562D-12 -0.14253203D-12
  0.33249251D+00  0.65180036D-14 -0.40911141D-13  0.48676849D-01 -0.19750432D-13
 -0.82729305D-14  0.90406044D-03 -0.27663382D-15  0.17709589D-14 -0.13074348D-13
 -0.13065180D-14  0.14380866D-13  0.33314091D-14 -0.12185636D+00 -0.15985604D-13
  0.22658717D-14 -0.15828780D-14 -0.68299367D-15  0.16058360D-14 -0.36923769D-01
  0.49408046D-14 -0.22648664D-15  0.33593700D-15 -0.10945036D-15  0.50763721D-14
 -0.23661493D-02  0.96730656D-14 -0.59234585D-02 -0.48911748D-14 -0.44163353D-14
 -0.22104207D-01 -0.52499562D-14  0.10655139D-14  0.39874583D-01  0.19923481D-13
  0.12183492D-13  0.23275724D-14 -0.35964678D-03  0.14263537D-14  0.55445230D-15
 -0.15513203D-02  0.24750198D-14 -0.20548966D-15  0.26302606D-02 -0.67540810D-14
 -0.14578672D-14 -0.80213456D-14  0.28930749D-14  0.53932744D-14  0.91153685D-14
  0.13702099D-13  0.16830574D-13  0.14204411D-13  0.53412295D-14  0.33125771D-16
  0.24759461D-15  0.92531761D-15  0.25814920D-14  0.34584876D-14 -0.40838290D-14
  0.22267509D-13 -0.13495600D-12 -0.25759836D-14  0.41397627D+00  0.38812907D+00
  0.27637102D+00 -0.87490427D-14 -0.82027836D-14 -0.58408706D-14  0.20189843D-13
  0.18929261D-13  0.13478762D-13  0.10667016D+00 -0.42806639D-14  0.43201773D-13
  0.12754630D-01  0.41845168D-13  0.19743166D-13  0.40925650D-04  0.95414105D-15