 h2co-wavefunction
GAUSSIAN            138 MOL ORBITALS    198 PRIMITIVES        4 NUCLEI
  O    1    (CENTRE  1)   0.00000000  0.00000000  1.28360026  CHARGE =  8.0
  C    2    (CENTRE  2)   0.00000000  0.01889726 -0.99571749  CHARGE =  6.0
  H    3    (CENTRE  3)   0.00000000  1.76994395 -2.09120873  CHARGE =  1.0
  H    4    (CENTRE  4)   0.00000000 -1.76994395 -2.09120873  CHARGE =  1.0
CENTRE ASSIGNMENTS    1  1  1  1  1  1  1  1  1  1  1  1  1  1  1  1  1  1  1  1
CENTRE ASSIGNMENTS    1  1  1  1  1  1  1  1  1  1  1  1  1  1  1  1  1  1  1  1
CENTRE ASSIGNMENTS    1  1  1  1  1  1  1  1  1  1  1  1  1  1  1  1  1  1  1  1
CENTRE ASSIGNMENTS    1  1  1  1  1  1  1  1  1  1  1  1  2  2  2  2  2  2  2  2
CENTRE ASSIGNMENTS    2  2  2  2  2  2  2  2  2  2  2  2  2  2  2  2  2  2  2  2
CENTRE ASSIGNMENTS    2  2  2  2  2  2  2  2  2  2  2  2  2  2  2  2  2  2  2  2
CENTRE ASSIGNMENTS    2  2  2  2  2  2  2  2  2  2  2  2  2  2  2  2  2  2  2  2
CENTRE ASSIGNMENTS    2  2  2  2  3  3  3  3  3  3  3  3  3  3  3  3  3  3  3  3
CENTRE ASSIGNMENTS    3  3  3  3  3  3  3  3  3  3  3  4  4  4  4  4  4  4  4  4
CENTRE ASSIGNMENTS    4  4  4  4  4  4  4  4  4  4  4  4  4  4  4  4  4  4
TYPE ASSIGNMENTS      1  1  1  1  1  1  1  1  1  1  1  1  1  1  1  1  2  2  2  3
TYPE ASSIGNMENTS      3  3  4  4  4  2  3  4  2  3  4  2  3  4  5  6  7  8  9 10
TYPE ASSIGNMENTS      5  6  7  8  9 10  5  6  7  8  9 10 11 12 13 17 14 15 18 19
TYPE ASSIGNMENTS     16 20 11 12 13 17 14 15 18 19 16 20  1  1  1  1  1  1  1  1
TYPE ASSIGNMENTS      1  1  1  1  1  1  1  1  2  2  2  3  3  3  4  4  4  2  3  4
TYPE ASSIGNMENTS      2  3  4  2  3  4  5  6  7  8  9 10  5  6  7  8  9 10  5  6
TYPE ASSIGNMENTS      7  8  9 10 11 12 13 17 14 15 18 19 16 20 11 12 13 17 14 15
TYPE ASSIGNMENTS     18 19 16 20  1  1  1  1  1  1  2  3  4  2  3  4  2  3  4  5
TYPE ASSIGNMENTS      6  7  8  9 10  5  6  7  8  9 10  1  1  1  1  1  1  2  3  4
TYPE ASSIGNMENTS      2  3  4  2  3  4  5  6  7  8  9 10  5  6  7  8  9 10
EXPONENTS  0.1533000D+05 0.2299000D+04 0.5224000D+03 0.1473000D+03 0.4755000D+02
EXPONENTS  0.1676000D+02 0.6207000D+01 0.5224000D+03 0.1473000D+03 0.4755000D+02
EXPONENTS  0.1676000D+02 0.6207000D+01 0.6882000D+00 0.1752000D+01 0.2384000D+00
EXPONENTS  0.7376000D-01 0.3446000D+02 0.7749000D+01 0.2280000D+01 0.3446000D+02
EXPONENTS  0.7749000D+01 0.2280000D+01 0.3446000D+02 0.7749000D+01 0.2280000D+01
EXPONENTS  0.7156000D+00 0.7156000D+00 0.7156000D+00 0.2140000D+00 0.2140000D+00
EXPONENTS  0.2140000D+00 0.5974000D-01 0.5974000D-01 0.5974000D-01 0.2314000D+01
EXPONENTS  0.2314000D+01 0.2314000D+01 0.2314000D+01 0.2314000D+01 0.2314000D+01
EXPONENTS  0.6450000D+00 0.6450000D+00 0.6450000D+00 0.6450000D+00 0.6450000D+00
EXPONENTS  0.6450000D+00 0.2140000D+00 0.2140000D+00 0.2140000D+00 0.2140000D+00
EXPONENTS  0.2140000D+00 0.2140000D+00 0.1428000D+01 0.1428000D+01 0.1428000D+01
EXPONENTS  0.1428000D+01 0.1428000D+01 0.1428000D+01 0.1428000D+01 0.1428000D+01
EXPONENTS  0.1428000D+01 0.1428000D+01 0.5000000D+00 0.5000000D+00 0.5000000D+00
EXPONENTS  0.5000000D+00 0.5000000D+00 0.5000000D+00 0.5000000D+00 0.5000000D+00
EXPONENTS  0.5000000D+00 0.5000000D+00 0.8236000D+04 0.1235000D+04 0.2808000D+03
EXPONENTS  0.7927000D+02 0.2559000D+02 0.8997000D+01 0.3319000D+01 0.2808000D+03
EXPONENTS  0.7927000D+02 0.2559000D+02 0.8997000D+01 0.3319000D+01 0.3643000D+00
EXPONENTS  0.9059000D+00 0.1285000D+00 0.4402000D-01 0.1871000D+02 0.4133000D+01
EXPONENTS  0.1200000D+01 0.1871000D+02 0.4133000D+01 0.1200000D+01 0.1871000D+02
EXPONENTS  0.4133000D+01 0.1200000D+01 0.3827000D+00 0.3827000D+00 0.3827000D+00
EXPONENTS  0.1209000D+00 0.1209000D+00 0.1209000D+00 0.3569000D-01 0.3569000D-01
EXPONENTS  0.3569000D-01 0.1097000D+01 0.1097000D+01 0.1097000D+01 0.1097000D+01
EXPONENTS  0.1097000D+01 0.1097000D+01 0.3180000D+00 0.3180000D+00 0.3180000D+00
EXPONENTS  0.3180000D+00 0.3180000D+00 0.3180000D+00 0.1000000D+00 0.1000000D+00
EXPONENTS  0.1000000D+00 0.1000000D+00 0.1000000D+00 0.1000000D+00 0.7610000D+00
EXPONENTS  0.7610000D+00 0.7610000D+00 0.7610000D+00 0.7610000D+00 0.7610000D+00
EXPONENTS  0.7610000D+00 0.7610000D+00 0.7610000D+00 0.7610000D+00 0.2680000D+00
EXPONENTS  0.2680000D+00 0.2680000D+00 0.2680000D+00 0.2680000D+00 0.2680000D+00
EXPONENTS  0.2680000D+00 0.2680000D+00 0.2680000D+00 0.2680000D+00 0.3387000D+02
EXPONENTS  0.5095000D+01 0.1159000D+01 0.3258000D+00 0.1027000D+00 0.2526000D-01
EXPONENTS  0.1407000D+01 0.1407000D+01 0.1407000D+01 0.3880000D+00 0.3880000D+00
EXPONENTS  0.3880000D+00 0.1020000D+00 0.1020000D+00 0.1020000D+00 0.1057000D+01
EXPONENTS  0.1057000D+01 0.1057000D+01 0.1057000D+01 0.1057000D+01 0.1057000D+01
EXPONENTS  0.2470000D+00 0.2470000D+00 0.2470000D+00 0.2470000D+00 0.2470000D+00
EXPONENTS  0.2470000D+00 0.3387000D+02 0.5095000D+01 0.1159000D+01 0.3258000D+00
EXPONENTS  0.1027000D+00 0.2526000D-01 0.1407000D+01 0.1407000D+01 0.1407000D+01
EXPONENTS  0.3880000D+00 0.3880000D+00 0.3880000D+00 0.1020000D+00 0.1020000D+00
EXPONENTS  0.1020000D+00 0.1057000D+01 0.1057000D+01 0.1057000D+01 0.1057000D+01
EXPONENTS  0.1057000D+01 0.1057000D+01 0.2470000D+00 0.2470000D+00 0.2470000D+00
EXPONENTS  0.2470000D+00 0.2470000D+00 0.2470000D+00
MO    1     MO 0.0        OCC NO =    2.0000076  ORB. ENERGY =    0.000000
 -0.26729049D+00 -0.49818552D+00 -0.84474356D+00 -0.12784295D+01 -0.15947401D+01
 -0.13685243D+01 -0.52407209D+00 -0.36265618D-04 -0.38910629D-03 -0.14343190D-02
 -0.41938647D-02 -0.50538109D-02  0.60878508D-02 -0.23737425D-01  0.68545053D-03
  0.15522897D-04  0.67404722D-13  0.65359907D-13  0.44091407D-13 -0.15988670D-03
 -0.15503632D-03 -0.10458658D-03  0.14649988D-01  0.14205561D-01  0.95829874D-02
  0.78956218D-14 -0.12435866D-04  0.18793369D-02 -0.11682381D-13  0.53968750D-05
  0.63419438D-03 -0.62873910D-15 -0.11389038D-06  0.80007685D-05  0.92676879D-03
  0.11145222D-03 -0.10382210D-02  0.96611078D-14 -0.35452562D-13  0.15732053D-04
  0.23028474D-03  0.11951910D-03 -0.34980383D-03 -0.44919971D-14  0.13414984D-13
  0.21021608D-04  0.63015154D-04  0.10909236D-04 -0.73924390D-04  0.15618920D-14
  0.64114064D-14 -0.28454132D-06 -0.11516009D-14  0.56173567D-05 -0.10805875D-03
 -0.85069042D-14 -0.10598427D-04  0.45134926D-03  0.11961707D-13 -0.62536429D-05
 -0.12717301D-03  0.11515115D-13  0.21640564D-14  0.22963451D-05  0.10472051D-03
  0.24370860D-14  0.67576396D-05 -0.17044545D-03 -0.89292552D-14 -0.13646675D-04
 -0.14371609D-03 -0.24439745D-14  0.27695300D+00  0.51629618D+00  0.87261089D+00
  0.13116969D+01  0.16111847D+01  0.13597831D+01  0.51131394D+00  0.32327134D-04
  0.24162530D-03  0.90300890D-03  0.25192542D-02  0.33751061D-02 -0.39853710D-02
  0.22753241D-01  0.53607723D-03  0.12354245D-03  0.11527879D-13  0.10808120D-13
  0.76960250D-14 -0.97356863D-04 -0.91278247D-04 -0.64995550D-04  0.20491138D-02
  0.19211745D-02  0.13679907D-02  0.16077479D-13  0.51779272D-04  0.25330447D-03
  0.58221051D-14 -0.58587671D-05 -0.10199853D-03  0.13460385D-15  0.15035186D-06
 -0.34783661D-05 -0.12229403D-02  0.23789694D-03  0.98504333D-03  0.10581490D-14
  0.38353319D-14 -0.89117873D-04  0.14524136D-03  0.20106820D-04 -0.16534818D-03
 -0.35210086D-14  0.15690328D-13 -0.10762494D-05 -0.58589359D-05  0.19115855D-04
 -0.13256919D-04 -0.12409785D-14  0.69789992D-15  0.71240953D-06 -0.10572963D-14
  0.49982018D-05  0.55105904D-03 -0.36103523D-14 -0.18356391D-04 -0.50493055D-04
  0.67822413D-14  0.33617851D-05 -0.16026841D-02  0.27286560D-14 -0.60855018D-15
  0.24953233D-05 -0.11435749D-03 -0.13087358D-14 -0.64162909D-06  0.43753673D-04
  0.31343863D-14 -0.68443410D-05  0.29931879D-03 -0.31519789D-15 -0.28482213D-03
 -0.51368843D-03 -0.75743329D-03 -0.26186414D-03 -0.45582222D-03 -0.12676172D-04
 -0.18720909D-14  0.79261048D-03 -0.54425449D-03  0.48514757D-14  0.24507766D-03
 -0.11371916D-03  0.15535747D-14  0.41777579D-04 -0.58951464D-04  0.22048844D-03
 -0.34038135D-03  0.11989291D-03 -0.26161869D-14  0.14408222D-14  0.89781044D-03
  0.49831878D-04 -0.13875626D-04 -0.35956252D-04 -0.93301576D-15  0.21121984D-14
 -0.21412522D-04 -0.26365493D-03 -0.47551252D-03 -0.70114293D-03 -0.17947699D-03
 -0.44848159D-03 -0.11241236D-04  0.40221070D-15 -0.75491011D-03 -0.50392389D-03
  0.17119085D-15 -0.19371486D-03 -0.50377590D-04 -0.24072522D-14 -0.40735277D-04
 -0.54520673D-04  0.21986738D-03 -0.36249261D-03  0.14262523D-03  0.95121344D-15
  0.28004625D-14 -0.85783375D-03  0.44233572D-04 -0.11809408D-04 -0.32424165D-04
 -0.88074616D-15 -0.63115594D-15  0.31238775D-04
MO    2     MO 0.0        OCC NO =    2.0000041  ORB. ENERGY =    0.000000
  0.42247549D+00  0.78742485D+00  0.13351895D+01  0.20206673D+01  0.25206232D+01
  0.21630697D+01  0.82834078D+00  0.49622277D-04  0.53241447D-03  0.19625800D-02
  0.57384688D-02  0.69151339D-02 -0.83300116D-02  0.38596749D-01 -0.65414988D-03
 -0.79983648D-04  0.58362552D-14  0.56592043D-14  0.38176658D-14  0.16218548D-03
  0.15726536D-03  0.10609028D-03 -0.10981946D-01 -0.10648794D-01 -0.71836135D-02
 -0.50770001D-14 -0.59002863D-05  0.14473079D-02 -0.78236745D-14  0.39604182D-05
  0.10539144D-03 -0.38793226D-15 -0.25208396D-06  0.19448883D-05 -0.99463854D-03
 -0.60154031D-04  0.10547926D-02  0.44688332D-14 -0.23306503D-13 -0.14697275D-04
  0.34847390D-03  0.53663714D-03 -0.88511103D-03 -0.26045260D-14  0.10502876D-13
  0.33338824D-04  0.34083143D-04 -0.61365939D-06 -0.33469483D-04  0.72841351D-15
  0.35599971D-14  0.10992721D-05  0.69554858D-15  0.21771840D-05  0.11059969D-03
 -0.25519285D-14  0.26454056D-06 -0.24045368D-03  0.46528273D-15 -0.67960926D-05
 -0.91345391D-04  0.32683351D-14  0.11146636D-14  0.26928123D-05  0.12857891D-03
  0.14634878D-14  0.34623157D-05 -0.16759095D-03 -0.48074787D-14 -0.11540753D-04
 -0.21814578D-03 -0.49968907D-15  0.17511547D+00  0.32645051D+00  0.55174584D+00
  0.82937691D+00  0.10187410D+01  0.85978145D+00  0.32330028D+00  0.17387348D-04
  0.12995965D-03  0.48568889D-03  0.13549964D-02  0.18153216D-02 -0.21435563D-02
  0.14450907D-01  0.50622658D-03  0.93109650D-04 -0.30100791D-14 -0.28221405D-14
 -0.20095322D-14 -0.55664471D-04 -0.52188980D-04 -0.37161663D-04  0.11520691D-02
  0.10801380D-02  0.76912261D-03  0.58091334D-14 -0.10568424D-04  0.16066723D-02
  0.33013067D-14 -0.43672541D-05 -0.11033227D-04  0.74321881D-16  0.15748869D-06
  0.51908125D-06 -0.10270813D-02 -0.30910619D-03  0.13361875D-02  0.25806766D-14
 -0.79473627D-15 -0.54832350D-04  0.16500097D-04 -0.25912979D-03  0.24262970D-03
 -0.23606338D-14  0.83210873D-14  0.43259992D-05 -0.18533853D-05  0.42008989D-04
 -0.40155604D-04 -0.67091669D-15  0.35218287D-15  0.15451364D-05 -0.70620213D-15
  0.10622141D-05  0.34830230D-03 -0.17582700D-14 -0.59314177D-05 -0.22800579D-03
  0.38768763D-14  0.27447756D-05 -0.81690111D-03  0.19934122D-14 -0.34801878D-15
  0.14635357D-05 -0.88900141D-05 -0.64149584D-15  0.73570619D-06 -0.38665516D-04
  0.16855522D-14 -0.51263133D-05  0.65335559D-04  0.13535734D-15 -0.15361145D-03
 -0.27704457D-03 -0.40850206D-03  0.11155268D-03 -0.34511513D-03 -0.79456486D-05
 -0.11098228D-14  0.35594887D-03 -0.22607024D-03  0.28246852D-14 -0.71588225D-04
  0.12291621D-03  0.75445449D-15 -0.11675324D-04 -0.85431798D-04  0.12126829D-03
 -0.13229491D-03  0.11026625D-04 -0.44829940D-15  0.19152286D-14  0.41571633D-03
  0.30622990D-05  0.23631689D-05 -0.54254679D-05 -0.65031214D-15  0.99959024D-15
 -0.34371716D-05 -0.14043188D-03 -0.25327469D-03 -0.37345338D-03  0.11781797D-03
 -0.35250627D-03 -0.69544746D-05 -0.18827193D-15 -0.33552527D-03 -0.21140918D-03
 -0.74097459D-15  0.77276253D-04  0.13869600D-03 -0.15556659D-14  0.83023670D-05
 -0.81210064D-04  0.12515211D-03 -0.13648347D-03  0.11331359D-04  0.19242801D-15
  0.18358789D-14 -0.41094296D-03  0.15377646D-05  0.28504296D-05 -0.43881941D-05
 -0.79065992D-15 -0.51013425D-15  0.81279842D-05
MO    3     MO 0.0        OCC NO =    1.9805517  ORB. ENERGY =    0.000000
 -0.96677058D-01 -0.18019014D+00 -0.30553771D+00 -0.46239883D+00 -0.57680609D+00
 -0.49498544D+00 -0.18955313D+00 -0.16853277D-02 -0.18082460D-01 -0.66655353D-01
 -0.19489634D+00 -0.23485957D+00  0.28291324D+00  0.14940235D+00  0.75521325D-01
  0.44205463D-02 -0.12899417D-12 -0.12508095D-12 -0.84378872D-13 -0.16823670D-02
 -0.16313301D-02 -0.11004856D-02 -0.19102052D-02 -0.18522565D-02 -0.12495213D-02
 -0.26095698D-13 -0.36357877D-03 -0.80251935D-02 -0.90886743D-15 -0.17015274D-03
  0.80783554D-02  0.19486307D-15 -0.27123217D-05  0.89610045D-04 -0.14821477D-01
 -0.15842370D-01  0.30663847D-01  0.12549437D-14  0.16653215D-13 -0.77872416D-03
 -0.42673151D-02 -0.51240493D-02  0.93913644D-02  0.57301081D-15 -0.29258652D-14
 -0.18092547D-03  0.46261681D-03  0.51012324D-03 -0.97274005D-03 -0.56117191D-15
 -0.14001334D-14  0.30076441D-04  0.14560338D-14 -0.76900949D-04 -0.89150545D-02
  0.36628130D-14 -0.12448944D-03  0.14286972D-01 -0.80309145D-14  0.35519229D-03
  0.12458191D-01  0.43593366D-16 -0.37560422D-15 -0.39440180D-05 -0.36011277D-03
 -0.11499244D-14  0.69496786D-05  0.23815578D-04  0.22767371D-14  0.48823753D-05
  0.10565227D-02  0.66013451D-15 -0.28163106D-01 -0.52501703D-01 -0.88735031D-01
 -0.13338530D+00 -0.16383995D+00 -0.13827514D+00 -0.51995064D-01 -0.59179662D-03
 -0.44233131D-02 -0.16530931D-01 -0.46118724D-01 -0.61786375D-01  0.72958188D-01
  0.30058226D-01  0.19111634D-01  0.40670088D-03 -0.39414205D-13 -0.36953323D-13
 -0.26312967D-13  0.44614183D-03  0.41828632D-03  0.29784478D-03  0.10583205D+00
  0.99224277D-01  0.70653596D-01 -0.10655371D-13  0.85499431D-03  0.65481737D-02
  0.69563916D-15  0.23199103D-03 -0.40039998D-02  0.13424429D-16  0.26015600D-05
 -0.55078469D-04 -0.18334388D-01 -0.79348443D-02  0.26269233D-01 -0.19593359D-15
 -0.48316450D-14 -0.13344187D-02 -0.31349836D-02  0.25215322D-02  0.61345146D-03
  0.26428503D-14 -0.79951563D-14 -0.37278833D-03  0.16188332D-04  0.49179996D-03
 -0.50798829D-03  0.51377276D-15 -0.64001278D-15  0.32390212D-06  0.59475499D-15
  0.10303185D-04  0.43533409D-02  0.15265250D-14 -0.22158620D-04 -0.94995882D-03
 -0.33107900D-14 -0.87509355D-05 -0.12110064D-01 -0.14006624D-14 -0.20974215D-15
 -0.10630916D-04 -0.31968346D-04  0.15823407D-14 -0.17743734D-04  0.44145550D-03
 -0.95311427D-15  0.49636483D-04 -0.34555046D-03 -0.68762847D-16  0.66272177D-02
  0.11952460D-01  0.17623895D-01 -0.40710892D-03 -0.61735200D-02 -0.86909403D-04
  0.26271597D-14 -0.28365275D-02  0.22794234D-02 -0.71858796D-14  0.44901674D-02
 -0.42494126D-02 -0.23618703D-14  0.59625733D-03 -0.15330972D-02  0.54829770D-03
 -0.11091127D-02  0.56081496D-03  0.24755149D-14 -0.10306980D-14  0.21741549D-02
  0.35979715D-03 -0.90183613D-04 -0.26961354D-03  0.23718110D-14 -0.22162287D-14
  0.97046575D-03  0.63195492D-02  0.11397567D-01  0.16805706D-01  0.36960172D-03
 -0.55563566D-02 -0.72265715D-04  0.76587977D-15  0.27340935D-02  0.22284290D-02
 -0.32148667D-14 -0.38842175D-02 -0.39190637D-02 -0.36440725D-15 -0.52182760D-03
 -0.14285895D-02  0.51668847D-03 -0.10504870D-02  0.53379856D-03  0.33804556D-15
 -0.10565527D-14 -0.19591172D-02  0.33224427D-03 -0.68579416D-04 -0.26366485D-03
 -0.73660861D-15 -0.50966604D-15 -0.92259861D-03
MO    4     MO 0.0        OCC NO =    1.9669036  ORB. ENERGY =    0.000000
  0.35983248D-01  0.67066858D-01  0.11372128D+00  0.17210507D+00  0.21468751D+00
  0.18423382D+00  0.70551766D-01  0.68835024D-03  0.73855464D-02  0.27224515D-01
  0.79602884D-01  0.95925345D-01 -0.11555224D+00 -0.65614185D-01 -0.53941146D-01
 -0.30786394D-02  0.90618040D-14  0.87869017D-14  0.59275920D-14  0.10470259D+00
  0.10152629D+00  0.68489035D-01 -0.67025318D+00 -0.64992012D+00 -0.43843227D+00
  0.49850417D-14  0.24678202D-01 -0.15035416D+00 -0.21220459D-14  0.37592530D-02
 -0.15583604D-01 -0.26641526D-16  0.11959223D-03 -0.10662730D-03 -0.19332880D-01
 -0.19025558D-01  0.38358438D-01 -0.35823130D-15 -0.19041329D-15 -0.10012086D-01
 -0.35255272D-02 -0.39349476D-02  0.74604748D-02  0.23817497D-15  0.12168192D-14
 -0.27558793D-02 -0.55449999D-07 -0.13430427D-03  0.13435972D-03 -0.23286327D-15
  0.10593886D-14 -0.23495668D-03 -0.77809227D-15 -0.12121233D-02 -0.59130364D-02
 -0.10324858D-14 -0.23293198D-03  0.58103928D-02  0.33667626D-14  0.38693019D-02
  0.11928716D-01 -0.33714423D-14  0.54538820D-15 -0.91366721D-04 -0.13754008D-03
  0.46706942D-15  0.47924937D-04 -0.20399556D-03 -0.21032340D-14  0.22617523D-03
  0.61661580D-03  0.15721064D-14 -0.49288700D-01 -0.91884066D-01 -0.15529659D+00
 -0.23343974D+00 -0.28673891D+00 -0.24199752D+00 -0.90997389D-01 -0.11974519D-02
 -0.89502112D-02 -0.33448983D-01 -0.93317454D-01 -0.12501966D+00  0.14762491D+00
  0.64099070D-01  0.45789657D-01  0.11167903D-02  0.23694619D-14  0.22215211D-14
  0.15818554D-14  0.47524710D-01  0.44557436D-01  0.31727549D-01 -0.11447929D+00
 -0.10733161D+00 -0.76426498D-01  0.70135306D-14  0.12456074D-01 -0.31884999D-01
  0.54682619D-15  0.12897215D-02 -0.56182113D-02  0.22865316D-16 -0.22398779D-04
 -0.49837562D-05 -0.17473141D-01  0.14262291D-01  0.32108499D-02 -0.34117913D-14
 -0.12696639D-14 -0.58493025D-03 -0.45427482D-02  0.48872386D-02 -0.34449037D-03
  0.30126678D-14  0.13248154D-15 -0.12901950D-02 -0.97049426D-04  0.15987366D-04
  0.81062059D-04 -0.32892077D-16  0.46407537D-16 -0.16534923D-03 -0.28377644D-15
 -0.28561554D-03  0.42378161D-02  0.11875522D-14 -0.47719291D-03  0.65009229D-03
 -0.33622285D-15  0.13340395D-02 -0.13363541D-01 -0.11190223D-14 -0.13113912D-15
 -0.26392283D-04  0.28392898D-03  0.31437366D-15 -0.73855184D-04  0.64393479D-03
  0.79043692D-16  0.15303203D-03 -0.14957217D-02 -0.14772703D-15  0.27068472D-01
  0.48819104D-01  0.71983741D-01  0.29419649D-01 -0.48741671D-02 -0.68928996D-04
  0.10888233D-14 -0.19361642D-01  0.10540318D-01 -0.27332202D-14  0.93365698D-03
 -0.18968492D-02 -0.41153127D-15  0.15239382D-02 -0.50938558D-03 -0.18463995D-02
  0.19880716D-02 -0.14167204D-03  0.13177712D-14 -0.31697812D-14 -0.37759000D-02
  0.32034222D-03 -0.18479633D-03 -0.13554589D-03  0.11704649D-14 -0.59547033D-15
  0.64195854D-03  0.21538615D-01  0.38845779D-01  0.57278079D-01  0.24144646D-01
 -0.32280332D-02 -0.11599612D-03  0.33380591D-15  0.15963341D-01  0.70755832D-02
  0.80346770D-15  0.50950143D-03 -0.19730346D-02  0.17156025D-15 -0.11724323D-02
 -0.50538994D-03 -0.14042225D-02  0.20666867D-02 -0.66246419D-03 -0.26902625D-14
  0.52248847D-16  0.20917673D-02  0.24769747D-03 -0.74560029D-04 -0.17313744D-03
  0.54435436D-15  0.93777130D-16 -0.46664698D-03
MO    5     MO 0.0        OCC NO =    1.9653243  ORB. ENERGY =    0.000000
 -0.32961347D-02 -0.61434532D-02 -0.10417088D-01 -0.15765155D-01 -0.19665789D-01
 -0.16876172D-01 -0.64626775D-02 -0.64934087D-04 -0.69670014D-03 -0.25681679D-02
 -0.75091723D-02 -0.90489177D-02  0.10900380D-01  0.63134424D-02  0.58064843D-02
  0.47342807D-03  0.56245353D-13  0.54539073D-13  0.36791736D-13  0.13272842D+01
  0.12870192D+01  0.86821557D+00  0.11461014D+00  0.11113328D+00  0.74969856D-01
  0.71124754D-14  0.31369461D+00  0.26022112D-01 -0.99922539D-14  0.50199462D-01
  0.29783613D-02 -0.43142493D-15  0.15656913D-02  0.21412204D-04  0.30554273D-02
  0.39990396D-02 -0.70544669D-02 -0.73286860D-14 -0.22860920D-13 -0.10060906D+00
  0.58639820D-03  0.94930801D-03 -0.15357062D-02  0.36539696D-14  0.14377286D-13
 -0.28342962D-01 -0.30892127D-05  0.45841300D-04 -0.42752087D-04 -0.17743513D-15
  0.60683159D-14 -0.26189765D-02 -0.42367225D-14 -0.12893420D-01  0.13406301D-02
 -0.31443596D-14  0.11858733D-03 -0.10182043D-02  0.15854527D-13  0.38561673D-01
 -0.30036860D-02 -0.50407543D-15  0.24590682D-14 -0.96545258D-03  0.79728754D-04
  0.28640430D-14  0.42344391D-03 -0.12533391D-04 -0.10241248D-13  0.24729138D-02
 -0.22665287D-03 -0.10557689D-14  0.47423658D-02  0.88407252D-02  0.14942030D-01
  0.22460658D-01  0.27588896D-01  0.23284055D-01  0.87554126D-02  0.11392713D-03
  0.85153469D-03  0.31823796D-02  0.88783435D-02  0.11894532D-01 -0.14045225D-01
 -0.60726761D-02 -0.34715329D-02 -0.47129962D-04  0.88262171D-14  0.82751396D-14
  0.58923924D-14  0.40322606D+00  0.37805006D+00  0.26919417D+00 -0.25789554D-02
 -0.24179346D-02 -0.17217135D-02  0.16208105D-13  0.10434629D+00  0.13346237D-04
  0.29821877D-14  0.61727846D-02  0.31647947D-03  0.48624849D-16 -0.33113765D-03
 -0.15324325D-05  0.18865741D-02 -0.98717375D-03 -0.89940038D-03 -0.49270605D-15
  0.44818212D-14  0.29193387D-01  0.35671681D-03 -0.48533687D-03  0.12862006D-03
  0.22192962D-14  0.15362703D-13 -0.36768357D-02 -0.66308195D-05  0.25721306D-04
 -0.19090486D-04  0.17964767D-15  0.77650575D-15 -0.87254900D-03 -0.25856107D-14
 -0.38710062D-02 -0.53459891D-03 -0.21543921D-14 -0.54432499D-02  0.17248157D-03
  0.99112242D-14  0.17056269D-01  0.14313152D-02 -0.21491575D-14 -0.19501650D-15
 -0.38025045D-03  0.68496761D-05 -0.12333206D-14 -0.30892388D-03 -0.52673403D-04
  0.18183701D-14  0.14496752D-02  0.32124375D-04 -0.49827694D-15  0.16410150D-01
  0.29596382D-01  0.43639848D-01  0.16901254D-01 -0.12458408D-02  0.35227614D-03
 -0.22724485D-14 -0.99913272D-02  0.13116264D-01  0.24283303D-14  0.55204383D-02
  0.20181135D-02 -0.16290427D-15  0.31791666D-03  0.63343412D-03 -0.17181333D-02
 -0.16032327D-02  0.33213660D-02  0.50432419D-15  0.32443973D-15 -0.81293827D-02
  0.25367520D-03 -0.44667864D-03  0.19300345D-03 -0.42953899D-15  0.22173610D-15
  0.82706165D-03 -0.19866579D-01 -0.35830193D-01 -0.52831599D-01 -0.21407893D-01
  0.16935394D-02 -0.33703896D-03 -0.28583849D-14 -0.12433142D-01 -0.14064367D-01
  0.46840805D-14  0.54037704D-02 -0.16068018D-02  0.78877845D-15  0.59370929D-03
 -0.59630406D-03  0.19748030D-02  0.12682134D-02 -0.32430164D-02  0.12466502D-14
 -0.12392099D-14 -0.83987132D-02 -0.36067587D-03  0.47787899D-03 -0.11720312D-03
  0.11139628D-14  0.82372411D-15  0.93374264D-03
MO    6     MO 0.0        OCC NO =    1.9601139  ORB. ENERGY =    0.000000
  0.19378612D-02  0.36118546D-02  0.61244070D-02  0.92686388D-02  0.11561896D-01
  0.99218272D-02  0.37995327D-02 -0.32274206D-04 -0.34628105D-03 -0.12764571D-02
 -0.37322858D-02 -0.44975859D-02  0.54178188D-02  0.77044599D-02  0.28701206D-01
  0.62892744D-02 -0.11623025D-12 -0.11270425D-12 -0.76029621D-13 -0.11182906D+00
 -0.10843657D+00 -0.73150669D-01  0.13795394D+01  0.13376891D+01  0.90239718D+00
 -0.24274949D-13 -0.26387068D-01  0.31908688D+00  0.11933683D-13 -0.44172531D-02
  0.38062432D-01  0.70325187D-15 -0.12565670D-03  0.15695192D-03  0.41938038D-01
  0.43667882D-01 -0.85605920D-01  0.40965291D-14  0.37838211D-13  0.62175225D-02
  0.10419592D-01  0.11760098D-01 -0.22179690D-01 -0.12051698D-15 -0.14267830D-13
  0.15592646D-02  0.26521373D-03  0.50975070D-03 -0.77496443D-03  0.87979194D-16
 -0.74233421D-14  0.14475761D-03  0.23777488D-14  0.85780431D-03  0.15636673D-01
  0.72000556D-14 -0.30046994D-03 -0.15969920D-01 -0.14333302D-13 -0.22729430D-02
 -0.30940100D-01 -0.23095990D-14 -0.23110821D-14  0.65568382D-04  0.20125949D-02
 -0.31331959D-14  0.16355316D-05 -0.24717116D-02  0.10066442D-13 -0.19834068D-03
 -0.35660732D-02  0.85662179D-16  0.52612200D-02  0.98079740D-02  0.16576812D-01
  0.24918041D-01  0.30607350D-01  0.25831523D-01  0.97133274D-02  0.90186317D-04
  0.67408684D-03  0.25192164D-02  0.70282216D-02  0.94158793D-02 -0.11118398D-01
 -0.63148786D-02  0.16204926D-01  0.97238512D-05 -0.24203099D-13 -0.22691944D-13
 -0.16158016D-13  0.11415993D-01  0.10703219D-01  0.76213294D-02 -0.52238277D+00
 -0.48976705D+00 -0.34874332D+00 -0.19583837D-13  0.22486477D-02 -0.10856686D+00
 -0.64694018D-14  0.11946777D-02 -0.86215622D-02 -0.81605462D-16  0.30461781D-04
 -0.40424243D-04  0.83588755D-02  0.28531515D-01 -0.36890390D-01 -0.66370928D-15
 -0.20381793D-14 -0.61486151D-02  0.20705115D-03  0.24813911D-02 -0.26884422D-02
  0.19472570D-14 -0.20196000D-13 -0.14792620D-02 -0.15328219D-03  0.12611207D-03
  0.27170118D-04 -0.24317113D-15 -0.10028325D-14 -0.14787276D-03  0.22619703D-14
  0.22632680D-03 -0.58730744D-02  0.53991824D-14  0.91881303D-04  0.64456390D-02
 -0.12185093D-13 -0.77086171D-03  0.11173584D-01 -0.29109453D-15  0.46023832D-15
  0.36554801D-04  0.76660989D-03  0.11754798D-14 -0.41355210D-04 -0.19335515D-03
 -0.25561948D-14 -0.68309193D-04 -0.21064745D-02 -0.33200926D-15  0.19760521D-01
  0.35638914D-01  0.52549558D-01  0.33363204D-01  0.64182466D-04 -0.12509341D-04
  0.20238804D-14 -0.18257746D-01  0.39897924D-02 -0.50110326D-14 -0.59385900D-02
  0.76884565D-03  0.34098644D-15  0.51076726D-03 -0.34743038D-03 -0.14744748D-02
  0.53854631D-02 -0.39109883D-02  0.18051610D-14 -0.33920286D-14 -0.46923355D-02
 -0.57240731D-03  0.13384803D-06  0.57227347D-03  0.11970618D-14 -0.35849824D-15
 -0.15782207D-04  0.16593484D-01  0.29927031D-01  0.44127390D-01  0.28177587D-01
  0.14141153D-02  0.35448459D-04 -0.80726951D-15  0.16491166D-01  0.31600733D-02
 -0.20839833D-14  0.55397586D-02  0.74413655D-03 -0.42221305D-15 -0.16108832D-03
 -0.13519178D-03 -0.14718078D-02  0.51050101D-02 -0.36332023D-02 -0.50211073D-15
 -0.22418742D-14  0.43628518D-02 -0.52342221D-03  0.85180569D-05  0.51490415D-03
 -0.47481277D-15 -0.48737437D-15 -0.10698627D-03
MO    7     MO 0.0        OCC NO =    1.9567072  ORB. ENERGY =    0.000000
  0.83272241D-03  0.15520576D-02  0.26317318D-02  0.39828463D-02  0.49682868D-02
  0.42635293D-02  0.16327052D-02  0.12722947D-04  0.13650887D-03  0.50319739D-03
  0.14713196D-02  0.17730117D-02 -0.21357805D-02 -0.10151435D-02  0.32596328D-03
  0.38103927D-03  0.61987106D-13  0.60106642D-13  0.40547585D-13  0.11697628D+01
  0.11342764D+01  0.76517616D+00  0.70346690D-01  0.68212626D-01  0.46015835D-01
  0.14072598D-13  0.27623059D+00  0.16410069D-01  0.28032518D-14  0.49931817D-01
  0.22417713D-02  0.24712557D-15  0.16971587D-02  0.24824753D-04  0.16412345D-02
  0.20838679D-02 -0.37251023D-02 -0.35193895D-14 -0.25397296D-15 -0.11362204D-01
  0.44736783D-03  0.58453812D-03 -0.10319060D-02  0.30089354D-14 -0.20272372D-14
 -0.28393601D-02  0.22803202D-04  0.22332552D-04 -0.45135754D-04  0.56812030D-16
 -0.56642210D-15 -0.64294045D-03 -0.99599379D-15 -0.41392698D-02  0.71340972D-03
  0.25548306D-14  0.87995394D-02 -0.54502125D-03  0.43315075D-15  0.36182699D-02
 -0.15952079D-02 -0.33934634D-14 -0.10010430D-16 -0.30461469D-03  0.11195588D-03
 -0.70640208D-15 -0.35485107D-03 -0.13997760D-03  0.73643337D-15  0.12686951D-02
 -0.19589005D-03  0.25741479D-15 -0.71080790D-03 -0.13250891D-02 -0.22395811D-02
 -0.33665082D-02 -0.41351523D-02 -0.34899227D-02 -0.13123021D-02 -0.18536590D-04
 -0.13854952D-03 -0.51779120D-03 -0.14445568D-02 -0.19353079D-02  0.22852378D-02
  0.70710883D-03  0.14931524D-02  0.11466284D-04  0.18272471D-13  0.17131603D-13
  0.12198722D-13 -0.36118101D+00 -0.33863016D+00 -0.24112485D+00 -0.29790729D-01
 -0.27930702D-01 -0.19888323D-01  0.34025069D-14 -0.99087640D-01 -0.64368768D-02
  0.14222613D-14 -0.25670382D-01 -0.62843961D-03 -0.32310611D-16 -0.50560782D-03
 -0.70017927D-05  0.21573635D-03  0.15554050D-02 -0.17711414D-02 -0.23372118D-14
  0.37275504D-14  0.11052590D+00 -0.43878109D-04  0.16824698D-03 -0.12436887D-03
  0.81418919D-15 -0.10182623D-14  0.31792556D-01 -0.95033526D-05  0.23531287D-04
 -0.14027935D-04 -0.10207475D-15 -0.26323862D-15  0.34056937D-02 -0.11942970D-15
 -0.36481529D-02 -0.14289530D-03 -0.57358453D-15  0.27496219D-02  0.38503969D-03
  0.93187362D-15  0.81948367D-02  0.43646216D-04  0.22300819D-14 -0.13309755D-15
 -0.58634809D-03  0.53509908D-04  0.52353017D-15  0.80116706D-03  0.28547880D-05
 -0.12423753D-15  0.95787721D-03 -0.16338451D-03 -0.81283134D-15 -0.33036734D-01
 -0.59583110D-01 -0.87855261D-01 -0.49284316D-01  0.10880566D-01  0.43700843D-03
  0.33306240D-14  0.13589079D-01 -0.10462903D-01 -0.35936134D-14 -0.36974402D-02
  0.20649145D-02 -0.16321765D-15 -0.34114609D-02  0.16176975D-02  0.52324165D-03
 -0.10935336D-02  0.57029200D-03 -0.83372968D-15  0.16581057D-15  0.27460615D-02
 -0.17765975D-04  0.34300865D-03 -0.32524267D-03  0.59801080D-15 -0.39247077D-15
  0.67229323D-04  0.36093381D-01  0.65095899D-01  0.95983866D-01  0.55493415D-01
 -0.10124481D-01 -0.42723676D-03  0.78888424D-15  0.16241631D-01  0.10692173D-01
  0.95970798D-15 -0.27454902D-02 -0.19212300D-02 -0.75874125D-15 -0.35232951D-02
 -0.17029468D-02 -0.89148329D-03  0.19903701D-02 -0.10988868D-02  0.86147693D-15
 -0.24383795D-16  0.35423482D-02 -0.24960848D-04 -0.36336713D-03  0.38832798D-03
  0.19668599D-15 -0.44437046D-16  0.16662224D-04
MO    8     MO 0.0        OCC NO =    1.9226235  ORB. ENERGY =    0.000000
  0.76131323D-14  0.14189627D-13  0.24060506D-13  0.36413018D-13  0.45422370D-13
  0.38979151D-13  0.14926944D-13 -0.35144060D-15 -0.37707271D-14 -0.13899610D-13
 -0.40641644D-13 -0.48975157D-13  0.58995767D-13  0.24430469D-13  0.53874366D-12
  0.63182866D-13  0.13795847D+01  0.13377331D+01  0.90242684D+00 -0.11196677D-12
 -0.10857011D-12 -0.73240752D-13  0.14374461D-12  0.13938392D-12  0.94027566D-13
  0.33248336D+00 -0.17887398D-13 -0.47252048D-13  0.48483600D-01  0.50348610D-14
 -0.29806597D-12  0.88717367D-03  0.11389436D-14  0.67445121D-15 -0.14639184D-13
  0.16818956D-13 -0.21797727D-14  0.11267157D-02 -0.12442522D+00  0.18582227D-13
  0.13302409D-14 -0.31393300D-13  0.30063059D-13  0.35930144D-03 -0.37370481D-01
 -0.90910954D-14 -0.50716381D-14 -0.27439485D-13  0.32511123D-13  0.15194629D-04
 -0.23614382D-02 -0.25966297D-14 -0.61323418D-02  0.34846492D-15  0.31255407D-14
 -0.22202786D-01 -0.26560931D-14  0.17526400D-13  0.40599811D-01  0.16106983D-14
 -0.26903022D-13 -0.11187986D-02 -0.36202487D-03 -0.57466420D-15 -0.81949201D-14
 -0.15474348D-02  0.23285208D-14 -0.66304808D-14  0.26335094D-02 -0.60452822D-15
  0.31215241D-13 -0.93675712D-04 -0.35652224D-14 -0.66462929D-14 -0.11233140D-13
 -0.16885505D-13 -0.20740819D-13 -0.17504519D-13 -0.65821564D-14 -0.60483072D-15
 -0.45207349D-14 -0.16895019D-13 -0.47134471D-13 -0.63147196D-13  0.74565065D-13
  0.14166191D-12 -0.28430715D-11 -0.28370231D-12  0.41539364D+00  0.38945794D+00
  0.27731726D+00  0.23128791D-13  0.21684712D-13  0.15440807D-13 -0.20279848D-13
 -0.19013646D-13 -0.13538849D-13  0.10664532D+00 -0.43366335D-13  0.60574819D-13
  0.12612699D-01  0.21936003D-13  0.28131417D-12  0.39121935D-04  0.89851042D-15