 h2co-wavefunction
GAUSSIAN            138 MOL ORBITALS    198 PRIMITIVES        4 NUCLEI
  O    1    (CENTRE  1)   0.00000000  0.00000000  1.28360026  CHARGE =  8.0
  C    2    (CENTRE  2)  -0.01889726  0.00000000 -0.99571749  CHARGE =  6.0
  H    3    (CENTRE  3)   0.00000000  1.76994395 -2.09120873  CHARGE =  1.0
  H    4    (CENTRE  4)   0.00000000 -1.76994395 -2.09120873  CHARGE =  1.0
CENTRE ASSIGNMENTS    1  1  1  1  1  1  1  1  1  1  1  1  1  1  1  1  1  1  1  1
CENTRE ASSIGNMENTS    1  1  1  1  1  1  1  1  1  1  1  1  1  1  1  1  1  1  1  1
CENTRE ASSIGNMENTS    1  1  1  1  1  1  1  1  1  1  1  1  1  1  1  1  1  1  1  1
CENTRE ASSIGNMENTS    1  1  1  1  1  1  1  1  1  1  1  1  2  2  2  2  2  2  2  2
CENTRE ASSIGNMENTS    2  2  2  2  2  2  2  2  2  2  2  2  2  2  2  2  2  2  2  2
CENTRE ASSIGNMENTS    2  2  2  2  2  2  2  2  2  2  2  2  2  2  2  2  2  2  2  2
CENTRE ASSIGNMENTS    2  2  2  2  2  2  2  2  2  2  2  2  2  2  2  2  2  2  2  2
CENTRE ASSIGNMENTS    2  2  2  2  3  3  3  3  3  3  3  3  3  3  3  3  3  3  3  3
CENTRE ASSIGNMENTS    3  3  3  3  3  3  3  3  3  3  3  4  4  4  4  4  4  4  4  4
CENTRE ASSIGNMENTS    4  4  4  4  4  4  4  4  4  4  4  4  4  4  4  4  4  4
TYPE ASSIGNMENTS      1  1  1  1  1  1  1  1  1  1  1  1  1  1  1  1  2  2  2  3
TYPE ASSIGNMENTS      3  3  4  4  4  2  3  4  2  3  4  2  3  4  5  6  7  8  9 10
TYPE ASSIGNMENTS      5  6  7  8  9 10  5  6  7  8  9 10 11 12 13 17 14 15 18 19
TYPE ASSIGNMENTS     16 20 11 12 13 17 14 15 18 19 16 20  1  1  1  1  1  1  1  1
TYPE ASSIGNMENTS      1  1  1  1  1  1  1  1  2  2  2  3  3  3  4  4  4  2  3  4
TYPE ASSIGNMENTS      2  3  4  2  3  4  5  6  7  8  9 10  5  6  7  8  9 10  5  6
TYPE ASSIGNMENTS      7  8  9 10 11 12 13 17 14 15 18 19 16 20 11 12 13 17 14 15
TYPE ASSIGNMENTS     18 19 16 20  1  1  1  1  1  1  2  3  4  2  3  4  2  3  4  5
TYPE ASSIGNMENTS      6  7  8  9 10  5  6  7  8  9 10  1  1  1  1  1  1  2  3  4
TYPE ASSIGNMENTS      2  3  4  2  3  4  5  6  7  8  9 10  5  6  7  8  9 10
EXPONENTS  0.1533000D+05 0.2299000D+04 0.5224000D+03 0.1473000D+03 0.4755000D+02
EXPONENTS  0.1676000D+02 0.6207000D+01 0.5224000D+03 0.1473000D+03 0.4755000D+02
EXPONENTS  0.1676000D+02 0.6207000D+01 0.6882000D+00 0.1752000D+01 0.2384000D+00
EXPONENTS  0.7376000D-01 0.3446000D+02 0.7749000D+01 0.2280000D+01 0.3446000D+02
EXPONENTS  0.7749000D+01 0.2280000D+01 0.3446000D+02 0.7749000D+01 0.2280000D+01
EXPONENTS  0.7156000D+00 0.7156000D+00 0.7156000D+00 0.2140000D+00 0.2140000D+00
EXPONENTS  0.2140000D+00 0.5974000D-01 0.5974000D-01 0.5974000D-01 0.2314000D+01
EXPONENTS  0.2314000D+01 0.2314000D+01 0.2314000D+01 0.2314000D+01 0.2314000D+01
EXPONENTS  0.6450000D+00 0.6450000D+00 0.6450000D+00 0.6450000D+00 0.6450000D+00
EXPONENTS  0.6450000D+00 0.2140000D+00 0.2140000D+00 0.2140000D+00 0.2140000D+00
EXPONENTS  0.2140000D+00 0.2140000D+00 0.1428000D+01 0.1428000D+01 0.1428000D+01
EXPONENTS  0.1428000D+01 0.1428000D+01 0.1428000D+01 0.1428000D+01 0.1428000D+01
EXPONENTS  0.1428000D+01 0.1428000D+01 0.5000000D+00 0.5000000D+00 0.5000000D+00
EXPONENTS  0.5000000D+00 0.5000000D+00 0.5000000D+00 0.5000000D+00 0.5000000D+00
EXPONENTS  0.5000000D+00 0.5000000D+00 0.8236000D+04 0.1235000D+04 0.2808000D+03
EXPONENTS  0.7927000D+02 0.2559000D+02 0.8997000D+01 0.3319000D+01 0.2808000D+03
EXPONENTS  0.7927000D+02 0.2559000D+02 0.8997000D+01 0.3319000D+01 0.3643000D+00
EXPONENTS  0.9059000D+00 0.1285000D+00 0.4402000D-01 0.1871000D+02 0.4133000D+01
EXPONENTS  0.1200000D+01 0.1871000D+02 0.4133000D+01 0.1200000D+01 0.1871000D+02
EXPONENTS  0.4133000D+01 0.1200000D+01 0.3827000D+00 0.3827000D+00 0.3827000D+00
EXPONENTS  0.1209000D+00 0.1209000D+00 0.1209000D+00 0.3569000D-01 0.3569000D-01
EXPONENTS  0.3569000D-01 0.1097000D+01 0.1097000D+01 0.1097000D+01 0.1097000D+01
EXPONENTS  0.1097000D+01 0.1097000D+01 0.3180000D+00 0.3180000D+00 0.3180000D+00
EXPONENTS  0.3180000D+00 0.3180000D+00 0.3180000D+00 0.1000000D+00 0.1000000D+00
EXPONENTS  0.1000000D+00 0.1000000D+00 0.1000000D+00 0.1000000D+00 0.7610000D+00
EXPONENTS  0.7610000D+00 0.7610000D+00 0.7610000D+00 0.7610000D+00 0.7610000D+00
EXPONENTS  0.7610000D+00 0.7610000D+00 0.7610000D+00 0.7610000D+00 0.2680000D+00
EXPONENTS  0.2680000D+00 0.2680000D+00 0.2680000D+00 0.2680000D+00 0.2680000D+00
EXPONENTS  0.2680000D+00 0.2680000D+00 0.2680000D+00 0.2680000D+00 0.3387000D+02
EXPONENTS  0.5095000D+01 0.1159000D+01 0.3258000D+00 0.1027000D+00 0.2526000D-01
EXPONENTS  0.1407000D+01 0.1407000D+01 0.1407000D+01 0.3880000D+00 0.3880000D+00
EXPONENTS  0.3880000D+00 0.1020000D+00 0.1020000D+00 0.1020000D+00 0.1057000D+01
EXPONENTS  0.1057000D+01 0.1057000D+01 0.1057000D+01 0.1057000D+01 0.1057000D+01
EXPONENTS  0.2470000D+00 0.2470000D+00 0.2470000D+00 0.2470000D+00 0.2470000D+00
EXPONENTS  0.2470000D+00 0.3387000D+02 0.5095000D+01 0.1159000D+01 0.3258000D+00
EXPONENTS  0.1027000D+00 0.2526000D-01 0.1407000D+01 0.1407000D+01 0.1407000D+01
EXPONENTS  0.3880000D+00 0.3880000D+00 0.3880000D+00 0.1020000D+00 0.1020000D+00
EXPONENTS  0.1020000D+00 0.1057000D+01 0.1057000D+01 0.1057000D+01 0.1057000D+01
EXPONENTS  0.1057000D+01 0.1057000D+01 0.2470000D+00 0.2470000D+00 0.2470000D+00
EXPONENTS  0.2470000D+00 0.2470000D+00 0.2470000D+00
MO    1     MO 0.0        OCC NO =    2.0000076  ORB. ENERGY =    0.000000
 -0.26740045D+00 -0.49839047D+00 -0.84509108D+00 -0.12789555D+01 -0.15953962D+01
 -0.13690873D+01 -0.52428769D+00 -0.36277833D-04 -0.38923734D-03 -0.14348021D-02
 -0.41952772D-02 -0.50555131D-02  0.60899012D-02 -0.23747565D-01  0.68497039D-03
  0.15512433D-04  0.15591070D-03  0.15118093D-03  0.10198576D-03 -0.85842740D-13
 -0.83238582D-13 -0.56152256D-13  0.14653121D-01  0.14208598D-01  0.95850362D-02
  0.14141727D-04 -0.50932324D-13  0.18794429D-02 -0.16830890D-05 -0.41144911D-13
  0.63448983D-03 -0.18973845D-06  0.47212185D-16  0.79989905D-05  0.92679498D-03
  0.11188834D-03 -0.10386833D-02 -0.21405679D-14 -0.42789204D-04 -0.43185596D-13
  0.23037954D-03  0.11939225D-03 -0.34977179D-03  0.24874854D-14  0.20942433D-05
  0.42081007D-13  0.63081444D-04  0.10863179D-04 -0.73944624D-04  0.59173143D-15
  0.54875340D-06  0.99525743D-14  0.31262010D-05  0.85162970D-14 -0.10815613D-03
 -0.47379829D-05  0.68225289D-14  0.45186229D-03 -0.46406200D-05 -0.32371420D-13
 -0.12739391D-03 -0.52691962D-14 -0.50796274D-06  0.15163946D-14  0.10473080D-03
 -0.21665459D-06  0.22308167D-14 -0.17055461D-03  0.17405428D-05 -0.67800007D-14
 -0.14363778D-03 -0.22145695D-14  0.27690727D+00  0.51621093D+00  0.87246681D+00
  0.13114803D+01  0.16109187D+01  0.13595585D+01  0.51122952D+00  0.32321990D-04
  0.24158685D-03  0.90286521D-03  0.25188534D-02  0.33745691D-02 -0.39847368D-02
  0.22748058D-01  0.53887997D-03  0.12370081D-03 -0.39590029D-04 -0.37118169D-04
 -0.26430347D-04 -0.58241030D-13 -0.54604667D-13 -0.38881776D-13  0.20484323D-02
  0.19205355D-02  0.13675357D-02  0.22349212D-04  0.10623894D-12  0.25258195D-03
  0.31207699D-05  0.59473732D-13 -0.10234936D-03  0.95916846D-07 -0.33610561D-15
 -0.34810823D-05 -0.12222552D-02  0.23788521D-03  0.98436995D-03  0.40079193D-14
  0.13602086D-04 -0.40000984D-13  0.14484018D-03  0.20495063D-04 -0.16533524D-03
 -0.11073494D-14  0.12406001D-06 -0.43184345D-13 -0.58796769D-05  0.19148264D-04
 -0.13268587D-04  0.13791208D-16  0.65660953D-06 -0.16980936D-14 -0.10298045D-04
 -0.66919962D-14  0.55098402D-03  0.93451689D-05 -0.19383505D-13 -0.50196705D-04
  0.21548967D-04  0.39459494D-13 -0.16027553D-02 -0.18049652D-14 -0.37447175D-06
 -0.69612567D-14 -0.11429460D-03  0.17135229D-05 -0.52009083D-14  0.43752107D-04
 -0.59010763D-06  0.26084678D-13  0.29913168D-03 -0.10106041D-14 -0.27397335D-03
 -0.49412222D-03 -0.72858293D-03 -0.22167890D-03 -0.45299592D-03 -0.11971417D-04
  0.12014444D-04  0.77425038D-03 -0.52394955D-03 -0.83002993D-05  0.21989975D-03
 -0.82040159D-04  0.10872805D-05  0.41347239D-04 -0.56814056D-04  0.22060487D-03
 -0.35212559D-03  0.13152072D-03 -0.63453332D-05  0.70591231D-05  0.87877693D-03
  0.47009056D-04 -0.12868547D-04 -0.34140509D-04  0.30950600D-07 -0.12882298D-05
 -0.26291784D-04 -0.27397335D-03 -0.49412222D-03 -0.72858293D-03 -0.22167890D-03
 -0.45299592D-03 -0.11971417D-04  0.12014444D-04 -0.77425038D-03 -0.52394955D-03
 -0.83002993D-05 -0.21989975D-03 -0.82040159D-04  0.10872805D-05 -0.41347239D-04
 -0.56814056D-04  0.22060487D-03 -0.35212559D-03  0.13152072D-03  0.63453332D-05
  0.70591231D-05 -0.87877693D-03  0.47009056D-04 -0.12868547D-04 -0.34140509D-04
 -0.30950600D-07 -0.12882298D-05  0.26291784D-04
MO    2     MO 0.0        OCC NO =    2.0000041  ORB. ENERGY =    0.000000
  0.42240586D+00  0.78729507D+00  0.13349694D+01  0.20203343D+01  0.25202078D+01
  0.21627132D+01  0.82820426D+00  0.49613507D-04  0.53232037D-03  0.19622331D-02
  0.57374545D-02  0.69139117D-02 -0.83285393D-02  0.38590503D-01 -0.65459242D-03
 -0.80357062D-04 -0.74698922D-04 -0.72432827D-04 -0.48862757D-04  0.65400664D-13
  0.63416644D-13  0.42780494D-13 -0.10978100D-01 -0.10645064D-01 -0.71810974D-02
  0.16356404D-04  0.72504212D-15  0.14481293D-02 -0.83429390D-05 -0.52835427D-14
  0.10551066D-03 -0.31764988D-06  0.47540628D-16  0.19644775D-05 -0.99439844D-03
 -0.59874267D-04  0.10542727D-02 -0.11950082D-13  0.13621240D-04 -0.38578525D-14
  0.34846672D-03  0.53671973D-03 -0.88518646D-03  0.13475162D-14 -0.14117455D-04
  0.14577968D-13  0.34105933D-04 -0.63455138D-06 -0.33471382D-04  0.70856812D-15
  0.24986058D-05 -0.61067809D-15 -0.17784108D-05  0.48928011D-14  0.11041453D-03
 -0.93118416D-05  0.48543941D-15 -0.23990804D-03  0.14647074D-04 -0.15163843D-13
 -0.91335556D-04  0.49468613D-14 -0.13394320D-05 -0.29232592D-15  0.12860029D-03
  0.73596668D-06  0.12834118D-15 -0.16757228D-03  0.32823292D-05  0.74863657D-15
 -0.21822860D-03 -0.10626465D-14  0.17518751D+00  0.32658481D+00  0.55197282D+00
  0.82971810D+00  0.10191601D+01  0.86013515D+00  0.32343328D+00  0.17394617D-04
  0.13001399D-03  0.48589196D-03  0.13555629D-02  0.18160806D-02 -0.21444525D-02
  0.14456369D-01  0.50695222D-03  0.93281459D-04 -0.23006287D-04 -0.21569857D-04
 -0.15359023D-04 -0.51093763D-14 -0.47903651D-14 -0.34110253D-14  0.11518869D-02
  0.10799672D-02  0.76900097D-03  0.17038339D-04  0.33994865D-13  0.16061679D-02
  0.32645770D-05 -0.11877457D-13 -0.11122460D-04  0.10676587D-06 -0.11037459D-14
  0.51806551D-06 -0.10270482D-02 -0.30886565D-03  0.13359138D-02  0.12474078D-14
  0.28330608D-04 -0.10324722D-13  0.16442253D-04 -0.25928278D-03  0.24284053D-03
 -0.78245693D-16  0.13083969D-04 -0.14648424D-13 -0.18660372D-05  0.41936334D-04
 -0.40070297D-04 -0.64935385D-16  0.56886770D-06  0.22621413D-14 -0.52839376D-05
 -0.33203856D-14  0.34841009D-03  0.33465208D-05 -0.78031713D-14 -0.22795089D-03
  0.12505292D-04  0.17764328D-13 -0.81727939D-03  0.11461730D-15 -0.29042991D-06
 -0.37464690D-14 -0.89164213D-05 -0.32764986D-05 -0.76216637D-16 -0.38630410D-04
  0.41477883D-05  0.11315624D-13  0.65379674D-04 -0.11690837D-14 -0.14695787D-03
 -0.26504458D-03 -0.39080807D-03  0.11435618D-03 -0.34887458D-03 -0.74611864D-05
  0.41297590D-05  0.34594210D-03 -0.21888858D-03 -0.20839360D-05 -0.74100613D-04
  0.13102951D-03  0.76622463D-06 -0.98895015D-05 -0.83166295D-04  0.12344567D-03
 -0.13468892D-03  0.11243257D-04 -0.49023492D-05  0.23839824D-05  0.41390984D-03
  0.23124655D-05  0.25646598D-05 -0.48771252D-05  0.19195898D-05  0.15502033D-05
 -0.58237703D-05 -0.14695787D-03 -0.26504458D-03 -0.39080807D-03  0.11435618D-03
 -0.34887458D-03 -0.74611864D-05  0.41297590D-05 -0.34594210D-03 -0.21888858D-03
 -0.20839360D-05  0.74100613D-04  0.13102951D-03  0.76622463D-06  0.98895015D-05
 -0.83166295D-04  0.12344567D-03 -0.13468892D-03  0.11243256D-04  0.49023492D-05
  0.23839824D-05 -0.41390984D-03  0.23124655D-05  0.25646598D-05 -0.48771252D-05
 -0.19195898D-05  0.15502033D-05  0.58237703D-05
MO    3     MO 0.0        OCC NO =    1.9805517  ORB. ENERGY =    0.000000
 -0.96677881D-01 -0.18019167D+00 -0.30554030D+00 -0.46240276D+00 -0.57681100D+00
 -0.49498965D+00 -0.18955474D+00 -0.16853385D-02 -0.18082576D-01 -0.66655780D-01
 -0.19489759D+00 -0.23486107D+00  0.28291505D+00  0.14940325D+00  0.75511568D-01
  0.44144018D-02  0.81629052D-03  0.79152722D-03  0.53395958D-03 -0.27006377D-11
 -0.26187102D-11 -0.17665664D-11 -0.19470699D-02 -0.18880029D-02 -0.12736356D-02
  0.16551789D-03 -0.67231161D-12 -0.80265265D-02  0.89846972D-04 -0.67323614D-12
  0.80785793D-02 -0.28537765D-06  0.74933796D-14  0.90060751D-04 -0.14821300D-01
 -0.15846812D-01  0.30668112D-01 -0.26548342D-14  0.57447756D-03  0.70221919D-13
 -0.42656667D-02 -0.51237913D-02  0.93894580D-02  0.57722994D-14  0.20579126D-03
  0.18982364D-12  0.46217811D-03  0.51038356D-03 -0.97256167D-03  0.34143099D-14
 -0.31340177D-04  0.22939316D-12  0.98932613D-04  0.32208220D-13 -0.89148730D-02
  0.10307235D-03 -0.65095322D-13  0.14283696D-01 -0.39987019D-03 -0.31529337D-13
  0.12460923D-01  0.21597191D-13  0.93443049D-05  0.94504651D-14 -0.35983921D-03
 -0.39738090D-05  0.39125946D-13  0.23433746D-04 -0.24059106D-04 -0.67477341D-13
  0.10560839D-02 -0.96468632D-14 -0.28161188D-01 -0.52498128D-01 -0.88728988D-01
 -0.13337622D+00 -0.16382879D+00 -0.13826572D+00 -0.51991523D-01 -0.59170076D-03
 -0.44225966D-02 -0.16528253D-01 -0.46111253D-01 -0.61776366D-01  0.72946369D-01
  0.30045139D-01  0.19096672D-01  0.40771657D-03  0.17491679D-02  0.16399561D-02
  0.11677464D-02 -0.89396373D-12 -0.83814782D-12 -0.59681118D-12  0.10586779D+00
  0.99257778D-01  0.70677451D-01  0.46958377D-03  0.31686503D-12  0.65659430D-02
  0.28237814D-04  0.17391648D-11 -0.39994742D-02 -0.18639661D-06  0.30069868D-13
 -0.55046926D-04 -0.18330716D-01 -0.79387991D-02  0.26269515D-01 -0.59005220D-14
  0.54219569D-03 -0.12942068D-12 -0.31346680D-02  0.25228922D-02  0.61177581D-03
  0.10248896D-13 -0.27567341D-04 -0.31573918D-12  0.16107562D-04  0.49091146D-03
 -0.50701902D-03  0.34027049D-14 -0.18034671D-05 -0.11835960D-12 -0.79596408D-04
 -0.54646289D-14  0.43557488D-02  0.61704109D-04 -0.77948091D-14 -0.94981152D-03
  0.17708511D-03  0.24188696D-13 -0.12117435D-01 -0.78878623D-14 -0.28447803D-05
 -0.48008970D-13 -0.31677271D-04  0.29401439D-04 -0.10843793D-12  0.44098804D-03
 -0.20867098D-04  0.25246484D-12 -0.34595623D-03 -0.41925988D-14  0.64716826D-02
  0.11671946D-01  0.17210278D-01 -0.94791976D-05 -0.58554091D-02 -0.79626197D-04
 -0.12427533D-04 -0.27835252D-02  0.22533524D-02  0.46769928D-04  0.41854360D-02
 -0.40835264D-02  0.15369101D-04  0.55949910D-03 -0.14783520D-02  0.53278295D-03
 -0.10801283D-02  0.54734539D-03 -0.44206139D-04  0.16729276D-04  0.20681569D-02
  0.34620447D-03 -0.79757039D-04 -0.26644744D-03 -0.15520983D-04  0.60187497D-05
  0.94668010D-03  0.64716826D-02  0.11671946D-01  0.17210278D-01 -0.94791958D-05
 -0.58554091D-02 -0.79626197D-04 -0.12427533D-04  0.27835252D-02  0.22533524D-02
  0.46769928D-04 -0.41854360D-02 -0.40835264D-02  0.15369101D-04 -0.55949910D-03
 -0.14783520D-02  0.53278295D-03 -0.10801283D-02  0.54734539D-03  0.44206139D-04
  0.16729276D-04 -0.20681569D-02  0.34620447D-03 -0.79757039D-04 -0.26644744D-03
  0.15520983D-04  0.60187497D-05 -0.94668010D-03
MO    4     MO 0.0        OCC NO =    1.9668836  ORB. ENERGY =    0.000000
  0.36138280D-01  0.67355812D-01  0.11421124D+00  0.17284657D+00  0.21561248D+00
  0.18502758D+00  0.70855734D-01  0.69152402D-03  0.74195990D-02  0.27350039D-01
  0.79969909D-01  0.96367629D-01 -0.11608502D+00 -0.65931629D-01 -0.54264098D-01
 -0.31073170D-02  0.11945233D-02  0.11582858D-02  0.78137275D-03 -0.13926591D-10
 -0.13504109D-10 -0.91097921D-11 -0.67843282D+00 -0.65785163D+00 -0.44378282D+00
  0.39843797D-03 -0.33403454D-11 -0.15222244D+00  0.13347111D-03 -0.11512351D-11
 -0.15801587D-01  0.54592367D-05 -0.17811670D-13 -0.10802801D-03 -0.19558925D-01
 -0.19334850D-01  0.38893775D-01 -0.16572849D-14  0.18940074D-03  0.13639960D-11
 -0.35715789D-02 -0.40111446D-02  0.75827235D-02  0.94691700D-14 -0.50005668D-04
  0.58512417D-12  0.37924228D-07 -0.13847297D-03  0.13843505D-03  0.25191132D-14
 -0.23163627D-04  0.30363901D-12 -0.14156698D-04  0.17844567D-12 -0.60218877D-02
  0.37924387D-04 -0.13556528D-13  0.58954130D-02  0.45457073D-05 -0.52178047D-12
  0.12170250D-01 -0.24515635D-14  0.90308323D-05  0.26860467D-13 -0.14512380D-03
 -0.27815753D-04  0.37234124D-13 -0.20116394D-03  0.72325600D-06 -0.11781552D-12
  0.63653534D-03 -0.70185721D-14 -0.49525448D-01 -0.92325413D-01 -0.15604253D+00
 -0.23456102D+00 -0.28811620D+00 -0.24315991D+00 -0.91434476D-01 -0.12030500D-02
 -0.89920537D-02 -0.33605358D-01 -0.93753716D-01 -0.12560413D+00  0.14831506D+00
  0.64387153D-01  0.45901199D-01  0.11150548D-02  0.34109197D-02  0.31979540D-02
  0.22771338D-02 -0.85495045D-11 -0.80157039D-11 -0.57076587D-11 -0.11356083D+00
 -0.10647049D+00 -0.75813334D-01  0.89224795D-03 -0.17420344D-11 -0.31720996D-01
  0.92029798D-04  0.16939486D-11 -0.56219327D-02  0.12367817D-07  0.63031328D-13
 -0.49098945D-05 -0.17571826D-01  0.14282972D-01  0.32888535D-02 -0.16797835D-13
  0.96583971D-04  0.15217515D-12 -0.45553987D-02  0.49122770D-02 -0.35687830D-03
  0.63369035D-15 -0.51231150D-04 -0.55971658D-13 -0.95990989D-04  0.14225418D-04
  0.81765570D-04  0.41246065D-14 -0.85302522D-05 -0.96827848D-13 -0.10215831D-03
  0.11434315D-13  0.42738458D-02  0.79098598D-04  0.99753918D-13  0.63567852D-03
  0.22737634D-03 -0.13405686D-12 -0.13457216D-01 -0.47843357D-14 -0.42159296D-05
 -0.54960481D-13  0.28208748D-03  0.36997780D-04 -0.10634112D-12  0.64590723D-03
 -0.24349991D-04  0.27122256D-12 -0.14921697D-02  0.11127913D-14  0.24356760D-01
  0.43928420D-01  0.64772430D-01  0.26897843D-01 -0.40434582D-02 -0.92621258D-04
 -0.12466799D-03 -0.17693420D-01  0.88059803D-02  0.26777456D-04  0.20442720D-03
 -0.19453799D-02  0.98480898D-05  0.13553462D-02 -0.50754800D-03 -0.16308309D-02
  0.20339267D-02 -0.40309581D-03  0.39696331D-04  0.90169214D-06 -0.29340533D-02
  0.28811269D-03 -0.13078275D-03 -0.15732994D-03 -0.21313636D-04 -0.11647898D-04
  0.55741896D-03  0.24356760D-01  0.43928420D-01  0.64772430D-01  0.26897843D-01
 -0.40434582D-02 -0.92621258D-04 -0.12466799D-03  0.17693420D-01  0.88059803D-02
  0.26777456D-04 -0.20442720D-03 -0.19453799D-02  0.98480898D-05 -0.13553462D-02
 -0.50754800D-03 -0.16308309D-02  0.20339267D-02 -0.40309581D-03 -0.39696331D-04
  0.90169214D-06  0.29340533D-02  0.28811269D-03 -0.13078275D-03 -0.15732994D-03
  0.21313636D-04 -0.11647898D-04 -0.55741896D-03
MO    5     MO 0.0        OCC NO =    1.9653369  ORB. ENERGY =    0.000000
  0.34594087D-12  0.64477690D-12  0.10933098D-11  0.16546082D-11  0.20639933D-11
  0.17712133D-11  0.67828060D-12  0.76013996D-14  0.81558029D-13  0.30063825D-12
  0.87904861D-12  0.10592963D-11 -0.12760347D-11 -0.74442207D-12 -0.51847343D-12
 -0.25936716D-12 -0.96256425D-12 -0.93336354D-12 -0.62964153D-12  0.13321294D+01
  0.12917174D+01  0.87138492D+00 -0.12248054D-10 -0.11876492D-10 -0.80118116D-11
 -0.22887798D-12  0.31483442D+00 -0.28284141D-11 -0.32733501D-13  0.50368237D-01
 -0.35574003D-12 -0.58534144D-15  0.15710938D-02  0.10804835D-13 -0.39493907D-12
 -0.38710266D-12  0.78204172D-12 -0.88815596D-03  0.96778538D-13 -0.10123178D+00
 -0.80137983D-13 -0.93254869D-13  0.17339285D-12 -0.20856436D-03  0.23556880D-13
 -0.28509773D-01 -0.50813691D-15 -0.86621759D-14  0.91703128D-14  0.15831518D-04
  0.12883669D-14 -0.26345656D-02  0.63142990D-14 -0.12967360D-01 -0.12836310D-12
  0.13745741D-13  0.97071185D-04  0.14253200D-12 -0.32688638D-13  0.38805009D-01
  0.24255729D-12  0.80566921D-03 -0.15231478D-15 -0.97106896D-03 -0.56673412D-14
  0.12113428D-14  0.42615427D-03 -0.55164241D-14 -0.75439842D-15  0.24870526D-02
  0.22518448D-13 -0.27855050D-04 -0.82181771D-12 -0.15320338D-11 -0.25893458D-11
 -0.38922697D-11 -0.47809562D-11 -0.40349583D-11 -0.15172497D-11 -0.20176523D-13
 -0.15080701D-12 -0.56360023D-12 -0.15723569D-11 -0.21065247D-11  0.24874129D-11
  0.11283351D-11  0.59779911D-12  0.38618286D-12 -0.21942473D-12 -0.20572463D-12
 -0.14648819D-12  0.40596987D+00  0.38062256D+00  0.27102594D+00 -0.92009206D-12
 -0.86264479D-12 -0.61425448D-12 -0.59432594D-13  0.10510961D+00 -0.40668068D-12
 -0.89499349D-14  0.62618923D-02 -0.10446642D-12  0.25223180D-15 -0.33243730D-03
  0.68984887D-14 -0.33620931D-12  0.16847712D-12  0.16773219D-12  0.81907853D-03
 -0.41587690D-13  0.29003099D-01 -0.28867916D-13  0.88823605D-13 -0.59955689D-13
  0.19837084D-03 -0.99873015D-14 -0.37933728D-02 -0.59460515D-14 -0.54125349D-14
  0.11358586D-13 -0.28005309D-04  0.50389460D-15 -0.88532446D-03  0.84130187D-15
 -0.38795596D-02  0.66685153D-13  0.57114576D-14 -0.54692127D-02  0.37112369D-14
 -0.82353632D-14  0.17107891D-01 -0.20376670D-12  0.11629871D-03  0.16124568D-15
 -0.38060057D-03 -0.91480082D-14  0.85014083D-15 -0.31410167D-03  0.13220418D-13
 -0.13338779D-14  0.14559034D-02  0.14223607D-13 -0.92046331D-04  0.18319074D-01
  0.33039204D-01  0.48716287D-01  0.19318838D-01 -0.15318826D-02  0.34638690D-03
 -0.13626837D-03 -0.11319239D-01  0.13688284D-01 -0.39051047D-04  0.55194677D-02
  0.18002573D-02  0.38685380D-04  0.47185708D-03  0.61348183D-03 -0.18579989D-02
 -0.14338768D-02  0.32918756D-02  0.18014812D-04 -0.13128487D-03 -0.83018142D-02
  0.31030227D-03 -0.46636296D-03  0.15606069D-03 -0.12173684D-04  0.80299638D-05
  0.88723925D-03 -0.18319074D-01 -0.33039204D-01 -0.48716287D-01 -0.19318838D-01
  0.15318826D-02 -0.34638690D-03  0.13626837D-03 -0.11319239D-01 -0.13688284D-01
  0.39051047D-04  0.55194677D-02 -0.18002573D-02 -0.38685380D-04  0.47185708D-03
 -0.61348183D-03  0.18579989D-02  0.14338768D-02 -0.32918756D-02  0.18014812D-04
  0.13128487D-03 -0.83018142D-02 -0.31030227D-03  0.46636296D-03 -0.15606069D-03
 -0.12173684D-04 -0.80299638D-05  0.88723925D-03
MO    6     MO 0.0        OCC NO =    1.9601075  ORB. ENERGY =    0.000000
  0.19895357D-02  0.37081675D-02  0.62877190D-02  0.95157941D-02  0.11870203D-01
  0.10186400D-01  0.39008501D-02 -0.31369982D-04 -0.33657932D-03 -0.12406947D-02
 -0.36277186D-02 -0.43715774D-02  0.52660282D-02  0.76222214D-02  0.28679002D-01
  0.63044071D-02  0.10530558D-01  0.10211099D-01  0.68883469D-02  0.13356106D-10
  0.12950930D-10  0.87366210D-11  0.13820560D+01  0.13401294D+01  0.90404337D+00
  0.24586786D-02  0.31316101D-11  0.31966891D+00  0.23023216D-03 -0.11002209D-12
  0.38146961D-01 -0.10387993D-05  0.40993777D-13  0.15813121D-03  0.41965729D-01
  0.43766743D-01 -0.85732472D-01 -0.15163006D-13 -0.23789174D-02 -0.41275492D-12
  0.10425505D-01  0.11785652D-01 -0.22211157D-01  0.44504362D-14 -0.60991769D-03
  0.10800712D-12  0.26539857D-03  0.51081530D-03 -0.77621386D-03  0.32033522D-14
  0.46266133D-05  0.25603144D-12 -0.18889501D-03 -0.56719516D-13  0.15664216D-01
 -0.29665940D-03  0.20688764D-13 -0.15966424D-01  0.86334442D-03  0.14946978D-12
 -0.31026224D-01  0.11220965D-13 -0.19607423D-04  0.12201838D-13  0.20161891D-02
 -0.29031666D-04  0.53296329D-13 -0.24737598D-02  0.87853936D-04 -0.89901842D-13
 -0.35748074D-02 -0.73009160D-14  0.51996131D-02  0.96931262D-02  0.16382704D-01
  0.24626260D-01  0.30248949D-01  0.25529046D-01  0.95995879D-02  0.88605753D-04
  0.66227311D-03  0.24750658D-02  0.69050482D-02  0.92508609D-02 -0.10923542D-01
 -0.62380885D-02  0.16286971D-01  0.11793543D-04 -0.15638109D-02 -0.14661721D-02
 -0.10440019D-02 -0.32452625D-11 -0.30426399D-11 -0.21665409D-11 -0.52341261D+00
 -0.49073260D+00 -0.34943084D+00 -0.38793684D-03 -0.52425916D-13 -0.10881926D+00
  0.26583995D-04  0.20064131D-11 -0.86485147D-02 -0.68855441D-07  0.22149123D-13
 -0.40824918D-04  0.83554432D-02  0.28584495D-01 -0.36939938D-01 -0.60070437D-14
 -0.10356032D-02  0.10326430D-11  0.20206217D-03  0.24874051D-02 -0.26894673D-02
  0.83233660D-14 -0.82113583D-04 -0.13619482D-12 -0.15399702D-03  0.12771534D-03
  0.26281674D-04  0.35690403D-14 -0.82492655D-05 -0.12245192D-12  0.68821687D-04
 -0.59182135D-13 -0.58732805D-02  0.49889253D-04 -0.30724605D-13  0.64612066D-02
 -0.25635432D-03  0.20827101D-12  0.11158635D-01 -0.18153482D-14  0.10891207D-05
 -0.54817742D-13  0.76900773D-03 -0.29233101D-04 -0.12679327D-12 -0.19248237D-03
  0.25965739D-04  0.29124649D-12 -0.21145408D-02 -0.16279408D-14  0.18245473D-01
  0.32906462D-01  0.48520559D-01  0.30893949D-01  0.75512984D-03  0.11629903D-04
 -0.20367522D-03 -0.17429474D-01  0.35816365D-02 -0.16338980D-04 -0.57512102D-02
  0.75668166D-03 -0.47574611D-05  0.33824263D-03 -0.24322698D-03 -0.14820689D-02
  0.52631576D-02 -0.37810886D-02  0.13111935D-03 -0.76332012D-04 -0.45444060D-02
 -0.54880126D-03  0.41915584D-05  0.54460970D-03  0.20305295D-04  0.19935054D-04
  0.46764264D-04  0.18245473D-01  0.32906462D-01  0.48520559D-01  0.30893949D-01
  0.75512984D-03  0.11629904D-04 -0.20367522D-03  0.17429474D-01  0.35816365D-02
 -0.16338980D-04  0.57512102D-02  0.75668166D-03 -0.47574611D-05 -0.33824263D-03
 -0.24322698D-03 -0.14820689D-02  0.52631576D-02 -0.37810886D-02 -0.13111935D-03
 -0.76332012D-04  0.45444060D-02 -0.54880126D-03  0.41915584D-05  0.54460970D-03
 -0.20305295D-04  0.19935054D-04 -0.46764264D-04
MO    7     MO 0.0        OCC NO =    1.9567280  ORB. ENERGY =    0.000000
 -0.25141250D-12 -0.46859157D-12 -0.79456285D-12 -0.12024864D-11 -0.15000070D-11
 -0.12872292D-11 -0.49294038D-12 -0.40626853D-14 -0.43589947D-13 -0.16068075D-12
 -0.46982110D-12 -0.56615727D-12  0.68199642D-12  0.30161578D-12  0.68947630D-12
 -0.38022777D-12  0.75320405D-12  0.73035456D-12  0.49269287D-12  0.11743356D+01
  0.11387105D+01  0.76816739D+00 -0.95063710D-11 -0.92179821D-11 -0.62183963D-11
  0.17486867D-12  0.27731119D+00 -0.25147966D-11  0.25727959D-13  0.50111397D-01
 -0.70674674D-12  0.88719150D-15  0.17016766D-02  0.23502375D-13 -0.30944147D-12
 -0.25858576D-12  0.56802723D-12 -0.24336941D-03 -0.61032527D-13 -0.11663915D-01
 -0.12496439D-12 -0.19056812D-12  0.31553252D-12 -0.92494725D-04 -0.13987593D-13
 -0.29186790D-02 -0.31167174D-13 -0.39089202D-13  0.70256375D-13 -0.16580867D-06
 -0.71387603D-15 -0.65058550D-03  0.84882512D-15 -0.41799864D-02 -0.13275464D-12
 -0.10329354D-13  0.88085585D-02  0.17350843D-12  0.77828790D-14  0.37314006D-02
  0.22475549D-12  0.10931567D-03 -0.32570544D-15 -0.30805656D-03 -0.48566305D-13
  0.47739462D-15 -0.35411714D-03  0.50336346D-13  0.49972169D-15  0.12782868D-02
  0.95362569D-13  0.27065550D-04  0.22367419D-12  0.41697375D-12  0.70474244D-12
  0.10593593D-11  0.13012332D-11  0.10981949D-11  0.41294997D-12  0.60041843D-14
  0.44877558D-13  0.16771768D-12  0.46790621D-12  0.62686532D-12 -0.74021106D-12
 -0.25282574D-12 -0.22557532D-11  0.25853064D-12  0.29623785D-12  0.27774182D-12
  0.19776872D-12 -0.36137733D+00 -0.33881422D+00 -0.24125591D+00  0.58573661D-11
  0.54916531D-11  0.39103841D-11  0.67540788D-13 -0.99096388D-01  0.80496392D-12
  0.19951601D-14 -0.25710353D-01  0.27913872D-12  0.27429182D-15 -0.50657935D-03
  0.15341704D-13 -0.26130379D-13 -0.24516492D-12  0.27129530D-12 -0.49915755D-03
  0.45690751D-13  0.11073871D+00  0.17414930D-12 -0.56936637D-13 -0.11721266D-12
 -0.19279806D-03  0.10315961D-13  0.31840077D-01  0.10401600D-13 -0.64371435D-13
  0.53969836D-13 -0.21124550D-04  0.35235883D-15  0.34095002D-02 -0.15436179D-14
 -0.36553795D-02 -0.14315979D-13 -0.45932128D-14  0.27387430D-02  0.58936681D-14
  0.92240665D-14  0.82273954D-02  0.37054268D-13  0.37352630D-03  0.47671029D-15
 -0.58729451D-03 -0.38871181D-13 -0.85026215D-15  0.80314366D-03 -0.19433174D-13
 -0.57986873D-15  0.95873989D-03  0.13604672D-12  0.10743517D-03 -0.34613834D-01
 -0.62427474D-01 -0.92049274D-01 -0.52464458D-01  0.10538838D-01  0.43302303D-03
  0.23602616D-03  0.14956512D-01 -0.10589753D-01  0.22561899D-04 -0.32111311D-02
  0.19889226D-02 -0.41394157D-04 -0.34746543D-02  0.16651973D-02  0.70842912D-03
 -0.15496212D-02  0.84119206D-03 -0.11294780D-03  0.41520327D-04  0.31518033D-02
  0.47188641D-05  0.35335214D-03 -0.35807100D-03 -0.12958502D-05 -0.95629096D-05
  0.45108451D-04  0.34613834D-01  0.62427474D-01  0.92049274D-01  0.52464458D-01
 -0.10538838D-01 -0.43302303D-03 -0.23602616D-03  0.14956512D-01  0.10589753D-01
 -0.22561899D-04 -0.32111311D-02 -0.19889226D-02  0.41394157D-04 -0.34746543D-02
 -0.16651973D-02 -0.70842912D-03  0.15496212D-02 -0.84119206D-03 -0.11294780D-03
 -0.41520327D-04  0.31518033D-02 -0.47188640D-05 -0.35335214D-03  0.35807100D-03
 -0.12958501D-05  0.95629096D-05  0.45108451D-04
MO    8     MO 0.0        OCC NO =    1.9226160  ORB. ENERGY =    0.000000
 -0.17538068D-03 -0.32688074D-03 -0.55427223D-03 -0.83883209D-03 -0.10463769D-02
 -0.89794706D-03 -0.34386602D-03 -0.34847526D-05 -0.37389108D-04 -0.13782329D-03
 -0.40298722D-03 -0.48561920D-03  0.58497979D-03  0.33184030D-03  0.23572407D-03
 -0.23024435D-03  0.13795010D+01  0.13376520D+01  0.90237211D+00  0.14769578D-12
  0.14321523D-12  0.96612147D-13 -0.10407239D-01 -0.10091521D-01 -0.68076806D-02
  0.33246246D+00  0.31839359D-13 -0.25082271D-02  0.48483199D-01 -0.15657715D-12
 -0.53683897D-03  0.88749331D-03  0.43770251D-15  0.10651273D-04 -0.10072157D-02
  0.11216178D-03  0.89505389D-03  0.67041482D-14 -0.12440905D+00 -0.85570400D-13
 -0.29448912D-03 -0.20223064D-04  0.31471218D-03 -0.10014569D-14 -0.37366793D-01
  0.10457905D-13 -0.41236086D-04 -0.22969191D-05  0.43533005D-04 -0.19744010D-15
 -0.23612363D-02  0.65059095D-13 -0.61273967D-02 -0.10495248D-13 -0.34201744D-03
 -0.22207851D-01 -0.15703355D-13  0.88512261D-03  0.40590041D-01  0.47189099D-13
  0.14092971D-03 -0.86403166D-14 -0.36161400D-03  0.38085983D-14 -0.36331479D-04
 -0.15478063D-02  0.10889745D-13  0.85170422D-04  0.26326483D-02 -0.22315540D-13
  0.23824014D-04 -0.11620248D-15  0.49283426D-03  0.91874234D-03  0.15527997D-02
  0.23341476D-02  0.28670823D-02  0.24197163D-02  0.90987652D-03  0.12216143D-04
  0.91308103D-04  0.34123923D-03  0.95200432D-03  0.12754233D-02 -0.15060371D-02
 -0.65456504D-03 -0.11993343D-02  0.99591643D-05  0.41538066D+00  0.38944577D+00
  0.27730859D+00  0.50934399D-12  0.47754237D-12  0.34003862D-12 -0.84581127D-03
 -0.79300183D-03 -0.56466454D-03  0.10663758D+00  0.19103532D-12 -0.34426270D-03
  0.12608591D-01  0.47292266D-12  0.86123653D-04  0.39136576D-04  0.86886251D-14