 h2co-wavefunction
GAUSSIAN            138 MOL ORBITALS    198 PRIMITIVES        4 NUCLEI
  O    1    (CENTRE  1)  -0.01889726  0.00000000  1.28360026  CHARGE =  8.0
  C    2    (CENTRE  2)   0.00000000  0.00000000 -0.99571749  CHARGE =  6.0
  H    3    (CENTRE  3)   0.00000000  1.76994395 -2.09120873  CHARGE =  1.0
  H    4    (CENTRE  4)   0.00000000 -1.76994395 -2.09120873  CHARGE =  1.0
CENTRE ASSIGNMENTS    1  1  1  1  1  1  1  1  1  1  1  1  1  1  1  1  1  1  1  1
CENTRE ASSIGNMENTS    1  1  1  1  1  1  1  1  1  1  1  1  1  1  1  1  1  1  1  1
CENTRE ASSIGNMENTS    1  1  1  1  1  1  1  1  1  1  1  1  1  1  1  1  1  1  1  1
CENTRE ASSIGNMENTS    1  1  1  1  1  1  1  1  1  1  1  1  2  2  2  2  2  2  2  2
CENTRE ASSIGNMENTS    2  2  2  2  2  2  2  2  2  2  2  2  2  2  2  2  2  2  2  2
CENTRE ASSIGNMENTS    2  2  2  2  2  2  2  2  2  2  2  2  2  2  2  2  2  2  2  2
CENTRE ASSIGNMENTS    2  2  2  2  2  2  2  2  2  2  2  2  2  2  2  2  2  2  2  2
CENTRE ASSIGNMENTS    2  2  2  2  3  3  3  3  3  3  3  3  3  3  3  3  3  3  3  3
CENTRE ASSIGNMENTS    3  3  3  3  3  3  3  3  3  3  3  4  4  4  4  4  4  4  4  4
CENTRE ASSIGNMENTS    4  4  4  4  4  4  4  4  4  4  4  4  4  4  4  4  4  4
TYPE ASSIGNMENTS      1  1  1  1  1  1  1  1  1  1  1  1  1  1  1  1  2  2  2  3
TYPE ASSIGNMENTS      3  3  4  4  4  2  3  4  2  3  4  2  3  4  5  6  7  8  9 10
TYPE ASSIGNMENTS      5  6  7  8  9 10  5  6  7  8  9 10 11 12 13 17 14 15 18 19
TYPE ASSIGNMENTS     16 20 11 12 13 17 14 15 18 19 16 20  1  1  1  1  1  1  1  1
TYPE ASSIGNMENTS      1  1  1  1  1  1  1  1  2  2  2  3  3  3  4  4  4  2  3  4
TYPE ASSIGNMENTS      2  3  4  2  3  4  5  6  7  8  9 10  5  6  7  8  9 10  5  6
TYPE ASSIGNMENTS      7  8  9 10 11 12 13 17 14 15 18 19 16 20 11 12 13 17 14 15
TYPE ASSIGNMENTS     18 19 16 20  1  1  1  1  1  1  2  3  4  2  3  4  2  3  4  5
TYPE ASSIGNMENTS      6  7  8  9 10  5  6  7  8  9 10  1  1  1  1  1  1  2  3  4
TYPE ASSIGNMENTS      2  3  4  2  3  4  5  6  7  8  9 10  5  6  7  8  9 10
EXPONENTS  0.1533000D+05 0.2299000D+04 0.5224000D+03 0.1473000D+03 0.4755000D+02
EXPONENTS  0.1676000D+02 0.6207000D+01 0.5224000D+03 0.1473000D+03 0.4755000D+02
EXPONENTS  0.1676000D+02 0.6207000D+01 0.6882000D+00 0.1752000D+01 0.2384000D+00
EXPONENTS  0.7376000D-01 0.3446000D+02 0.7749000D+01 0.2280000D+01 0.3446000D+02
EXPONENTS  0.7749000D+01 0.2280000D+01 0.3446000D+02 0.7749000D+01 0.2280000D+01
EXPONENTS  0.7156000D+00 0.7156000D+00 0.7156000D+00 0.2140000D+00 0.2140000D+00
EXPONENTS  0.2140000D+00 0.5974000D-01 0.5974000D-01 0.5974000D-01 0.2314000D+01
EXPONENTS  0.2314000D+01 0.2314000D+01 0.2314000D+01 0.2314000D+01 0.2314000D+01
EXPONENTS  0.6450000D+00 0.6450000D+00 0.6450000D+00 0.6450000D+00 0.6450000D+00
EXPONENTS  0.6450000D+00 0.2140000D+00 0.2140000D+00 0.2140000D+00 0.2140000D+00
EXPONENTS  0.2140000D+00 0.2140000D+00 0.1428000D+01 0.1428000D+01 0.1428000D+01
EXPONENTS  0.1428000D+01 0.1428000D+01 0.1428000D+01 0.1428000D+01 0.1428000D+01
EXPONENTS  0.1428000D+01 0.1428000D+01 0.5000000D+00 0.5000000D+00 0.5000000D+00
EXPONENTS  0.5000000D+00 0.5000000D+00 0.5000000D+00 0.5000000D+00 0.5000000D+00
EXPONENTS  0.5000000D+00 0.5000000D+00 0.8236000D+04 0.1235000D+04 0.2808000D+03
EXPONENTS  0.7927000D+02 0.2559000D+02 0.8997000D+01 0.3319000D+01 0.2808000D+03
EXPONENTS  0.7927000D+02 0.2559000D+02 0.8997000D+01 0.3319000D+01 0.3643000D+00
EXPONENTS  0.9059000D+00 0.1285000D+00 0.4402000D-01 0.1871000D+02 0.4133000D+01
EXPONENTS  0.1200000D+01 0.1871000D+02 0.4133000D+01 0.1200000D+01 0.1871000D+02
EXPONENTS  0.4133000D+01 0.1200000D+01 0.3827000D+00 0.3827000D+00 0.3827000D+00
EXPONENTS  0.1209000D+00 0.1209000D+00 0.1209000D+00 0.3569000D-01 0.3569000D-01
EXPONENTS  0.3569000D-01 0.1097000D+01 0.1097000D+01 0.1097000D+01 0.1097000D+01
EXPONENTS  0.1097000D+01 0.1097000D+01 0.3180000D+00 0.3180000D+00 0.3180000D+00
EXPONENTS  0.3180000D+00 0.3180000D+00 0.3180000D+00 0.1000000D+00 0.1000000D+00
EXPONENTS  0.1000000D+00 0.1000000D+00 0.1000000D+00 0.1000000D+00 0.7610000D+00
EXPONENTS  0.7610000D+00 0.7610000D+00 0.7610000D+00 0.7610000D+00 0.7610000D+00
EXPONENTS  0.7610000D+00 0.7610000D+00 0.7610000D+00 0.7610000D+00 0.2680000D+00
EXPONENTS  0.2680000D+00 0.2680000D+00 0.2680000D+00 0.2680000D+00 0.2680000D+00
EXPONENTS  0.2680000D+00 0.2680000D+00 0.2680000D+00 0.2680000D+00 0.3387000D+02
EXPONENTS  0.5095000D+01 0.1159000D+01 0.3258000D+00 0.1027000D+00 0.2526000D-01
EXPONENTS  0.1407000D+01 0.1407000D+01 0.1407000D+01 0.3880000D+00 0.3880000D+00
EXPONENTS  0.3880000D+00 0.1020000D+00 0.1020000D+00 0.1020000D+00 0.1057000D+01
EXPONENTS  0.1057000D+01 0.1057000D+01 0.1057000D+01 0.1057000D+01 0.1057000D+01
EXPONENTS  0.2470000D+00 0.2470000D+00 0.2470000D+00 0.2470000D+00 0.2470000D+00
EXPONENTS  0.2470000D+00 0.3387000D+02 0.5095000D+01 0.1159000D+01 0.3258000D+00
EXPONENTS  0.1027000D+00 0.2526000D-01 0.1407000D+01 0.1407000D+01 0.1407000D+01
EXPONENTS  0.3880000D+00 0.3880000D+00 0.3880000D+00 0.1020000D+00 0.1020000D+00
EXPONENTS  0.1020000D+00 0.1057000D+01 0.1057000D+01 0.1057000D+01 0.1057000D+01
EXPONENTS  0.1057000D+01 0.1057000D+01 0.2470000D+00 0.2470000D+00 0.2470000D+00
EXPONENTS  0.2470000D+00 0.2470000D+00 0.2470000D+00
MO    1     MO 0.0        OCC NO =    2.0000076  ORB. ENERGY =    0.000000
 -0.26738095D+00 -0.49835412D+00 -0.84502945D+00 -0.12788622D+01 -0.15952798D+01
 -0.13689874D+01 -0.52424945D+00 -0.36275914D-04 -0.38921676D-03 -0.14347262D-02
 -0.41950554D-02 -0.50552457D-02  0.60895792D-02 -0.23745784D-01  0.68508034D-03
  0.15418092D-04 -0.13265991D-03 -0.12863549D-03 -0.86776739D-04  0.81656714D-13
  0.79179545D-13  0.53414053D-13  0.14652910D-01  0.14208394D-01  0.95848987D-02
 -0.15114613D-04  0.12132889D-13  0.18796314D-02 -0.30060080D-05 -0.51065383D-13
  0.63445502D-03  0.16787373D-07  0.87394559D-15  0.80087168D-05  0.92681876D-03
  0.11187549D-03 -0.10386942D-02  0.58107546D-14  0.35903182D-04 -0.53587380D-13
  0.23034717D-03  0.11949154D-03 -0.34983870D-03 -0.15896020D-14  0.58171634D-05
  0.22768397D-13  0.63062910D-04  0.10869082D-04 -0.73931992D-04  0.72186641D-15
  0.13559253D-05  0.19857788D-13 -0.35432656D-05  0.24462311D-14 -0.10798460D-03
  0.22521520D-05  0.14140012D-14  0.45162430D-03  0.83776447D-05 -0.87526946D-14
 -0.12767050D-03  0.52117566D-14  0.11190349D-05  0.13754701D-14  0.10471847D-03
  0.87563580D-06  0.44735172D-14 -0.17044494D-03 -0.42327406D-05 -0.85999276D-14
 -0.14371048D-03 -0.17024567D-14  0.27691538D+00  0.51622605D+00  0.87249235D+00
  0.13115187D+01  0.16109659D+01  0.13595983D+01  0.51124448D+00  0.32322938D-04
  0.24159394D-03  0.90289171D-03  0.25189273D-02  0.33746681D-02 -0.39848538D-02
  0.22748948D-01  0.53767260D-03  0.12369893D-03  0.13844951D-05  0.12980522D-05
  0.92429050D-06  0.11592682D-13  0.10868876D-13  0.77392871D-14  0.20484289D-02
  0.19205323D-02  0.13675334D-02 -0.86727141D-05  0.13837055D-12  0.25290462D-03
 -0.43989078D-06  0.16886750D-12 -0.10225591D-03 -0.11660759D-07  0.23449534D-14
 -0.34830843D-05 -0.12227671D-02  0.23821158D-03  0.98455549D-03 -0.20619774D-15
 -0.29135850D-04 -0.32693333D-13  0.14491859D-03  0.20300369D-04 -0.16521896D-03
 -0.17098990D-16  0.34328339D-05 -0.69061861D-13 -0.58728678D-05  0.19122126D-04
 -0.13249258D-04 -0.42227951D-17 -0.13059714D-06 -0.11897523D-13  0.36251079D-05
 -0.42366726D-14  0.55110478D-03  0.59423660D-05 -0.14286112D-13 -0.50047110D-04
 -0.16817690D-04  0.26996130D-13 -0.16032672D-02  0.16747205D-14 -0.12333379D-06
 -0.48673708D-14 -0.11433780D-03 -0.22323649D-05 -0.13228679D-13  0.43741071D-04
  0.26023662D-05  0.27830792D-13  0.29927234D-03 -0.18202902D-14 -0.27402560D-03
 -0.49421646D-03 -0.72872188D-03 -0.22106932D-03 -0.45263877D-03 -0.11970999D-04
 -0.96659427D-06  0.77444739D-03 -0.52416418D-03  0.31559557D-05  0.21978642D-03
 -0.81800035D-04 -0.34989924D-07  0.41317745D-04 -0.56730557D-04  0.22056872D-03
 -0.35214994D-03  0.13158123D-03 -0.28641508D-05 -0.12941207D-05  0.87897367D-03
  0.47009419D-04 -0.12875453D-04 -0.34133965D-04  0.13743982D-06  0.13277394D-05
 -0.26347005D-04 -0.27402560D-03 -0.49421646D-03 -0.72872188D-03 -0.22106932D-03
 -0.45263877D-03 -0.11970999D-04 -0.96659427D-06 -0.77444739D-03 -0.52416418D-03
  0.31559557D-05 -0.21978642D-03 -0.81800035D-04 -0.34989924D-07 -0.41317745D-04
 -0.56730557D-04  0.22056872D-03 -0.35214994D-03  0.13158123D-03  0.28641508D-05
 -0.12941207D-05 -0.87897367D-03  0.47009419D-04 -0.12875453D-04 -0.34133965D-04
 -0.13743982D-06  0.13277394D-05  0.26347005D-04
MO    2     MO 0.0        OCC NO =    2.0000041  ORB. ENERGY =    0.000000
  0.42241818D+00  0.78731804D+00  0.13350084D+01  0.20203932D+01  0.25202813D+01
  0.21627763D+01  0.82822842D+00  0.49614182D-04  0.53232761D-03  0.19622598D-02
  0.57375326D-02  0.69140057D-02 -0.83286526D-02  0.38591686D-01 -0.65422615D-03
 -0.80086224D-04  0.85727340D-04  0.83126682D-04  0.56076769D-04 -0.44351833D-13
 -0.43006359D-13 -0.29011836D-13 -0.10978820D-01 -0.10645762D-01 -0.71815681D-02
 -0.13417134D-04 -0.19207431D-13  0.14479452D-02  0.21196086D-05 -0.57707646D-13
  0.10563491D-03  0.92435640D-07 -0.45555063D-15  0.19490729D-05 -0.99430428D-03
 -0.60061097D-04  0.10543654D-02  0.21074083D-14 -0.27362096D-04 -0.30637349D-13
  0.34846816D-03  0.53681429D-03 -0.88528245D-03 -0.14154393D-15  0.18398824D-04
  0.28074743D-13  0.34119643D-04 -0.62419699D-06 -0.33495446D-04  0.44465428D-15
 -0.54370428D-07  0.20962737D-13  0.19224788D-05 -0.76479409D-15  0.11055203D-03
  0.35375187D-05 -0.11748748D-14 -0.24012717D-03 -0.93049550D-05  0.34692571D-14
 -0.91528921D-04  0.12345521D-13  0.13733844D-05  0.23419056D-14  0.12861080D-03
  0.98276260D-06  0.42621246D-14 -0.16757324D-03 -0.51029158D-05 -0.11287842D-13
 -0.21825915D-03 -0.16356531D-14  0.17517476D+00  0.32656105D+00  0.55193266D+00
  0.82965774D+00  0.10190859D+01  0.86007257D+00  0.32340975D+00  0.17392712D-04
  0.12999975D-03  0.48583874D-03  0.13554144D-02  0.18158816D-02 -0.21442176D-02
  0.14455458D-01  0.50702091D-03  0.93239844D-04  0.10191238D-05  0.95549336D-06
  0.68036819D-06 -0.37895392D-13 -0.35529339D-13 -0.25299006D-13  0.11519556D-02
  0.10800316D-02  0.76904682D-03 -0.14527227D-04  0.89370829D-13  0.16065434D-02
 -0.99699365D-06  0.13825903D-12 -0.11204338D-04 -0.37548964D-07  0.23627726D-14
  0.51715113D-06 -0.10271663D-02 -0.30892482D-03  0.13360911D-02  0.83550445D-15
 -0.35664997D-04 -0.25082077D-13  0.16454448D-04 -0.25917481D-03  0.24272036D-03
 -0.53347005D-15 -0.67834781D-05 -0.39390085D-13 -0.18674827D-05  0.42013692D-04
 -0.40146209D-04 -0.61510098D-16  0.24363681D-06 -0.75379727D-14  0.29920727D-05
 -0.58308573D-14  0.34843646D-03  0.34897572D-05 -0.50566589D-14 -0.22794538D-03
 -0.12465975D-04  0.22549231D-13 -0.81736401D-03  0.35539325D-15  0.31061379D-06
 -0.49106724D-14 -0.89222551D-05  0.69803106D-06 -0.11027765D-13 -0.38625517D-04
 -0.16298724D-05  0.25759783D-13  0.65392282D-04 -0.16208033D-14 -0.14697956D-03
 -0.26508370D-03 -0.39086576D-03  0.11436337D-03 -0.34913057D-03 -0.74589468D-05
 -0.11402078D-06  0.34607340D-03 -0.21890739D-03 -0.57959735D-07 -0.74300963D-04
  0.13093189D-03  0.21721933D-06 -0.99646197D-05 -0.83304307D-04  0.12340113D-03
 -0.13460166D-03  0.11200534D-04 -0.72622208D-06  0.48234602D-06  0.41395138D-03
  0.22995985D-05  0.25985436D-05 -0.48981421D-05 -0.59099597D-06 -0.42355955D-06
 -0.58084345D-05 -0.14697956D-03 -0.26508370D-03 -0.39086576D-03  0.11436337D-03
 -0.34913057D-03 -0.74589468D-05 -0.11402077D-06 -0.34607340D-03 -0.21890739D-03
 -0.57959733D-07  0.74300963D-04  0.13093189D-03  0.21721933D-06  0.99646197D-05
 -0.83304307D-04  0.12340113D-03 -0.13460166D-03  0.11200534D-04  0.72622208D-06
  0.48234602D-06 -0.41395138D-03  0.22995985D-05  0.25985436D-05 -0.48981421D-05
  0.59099597D-06 -0.42355955D-06  0.58084345D-05
MO    3     MO 0.0        OCC NO =    1.9805518  ORB. ENERGY =    0.000000
 -0.96677876D-01 -0.18019166D+00 -0.30554029D+00 -0.46240274D+00 -0.57681096D+00
 -0.49498962D+00 -0.18955473D+00 -0.16853295D-02 -0.18082479D-01 -0.66655423D-01
 -0.19489655D+00 -0.23485982D+00  0.28291354D+00  0.14940272D+00  0.75513233D-01
  0.44171581D-02 -0.25433672D-03 -0.24662107D-03 -0.16636912D-03 -0.67172322D-12
 -0.65134557D-12 -0.43939387D-12 -0.19203565D-02 -0.18620999D-02 -0.12561616D-02
 -0.88576750D-05 -0.19387514D-12 -0.80214112D-02 -0.74406826D-04 -0.34295726D-12
  0.80812714D-02 -0.40793351D-06 -0.26327442D-14  0.89924212D-04 -0.14819602D-01
 -0.15846632D-01  0.30666233D-01  0.40895759D-14 -0.69588107D-03  0.43063338D-13
 -0.42656717D-02 -0.51232145D-02  0.93888863D-02 -0.86499994D-15 -0.21972708D-03
  0.98777017D-13  0.46253159D-03  0.51058769D-03 -0.97311928D-03 -0.80267426D-15
  0.26252211D-04  0.13493097D-12 -0.11210970D-03  0.41814334D-14 -0.89147664D-02
 -0.10323651D-03 -0.18066628D-13  0.14283601D-01  0.43956561D-03  0.55223274D-14
  0.12460698D-01  0.11236777D-13 -0.31662678D-05  0.83614922D-14 -0.35954657D-03
 -0.46157389D-05  0.14066796D-13  0.23267981D-04  0.14114542D-04 -0.39151273D-13
  0.10553717D-02 -0.62331495D-15 -0.28161688D-01 -0.52499060D-01 -0.88730564D-01
 -0.13337859D+00 -0.16383171D+00 -0.13826818D+00 -0.51992446D-01 -0.59172173D-03
 -0.44227533D-02 -0.16528839D-01 -0.46112887D-01 -0.61778556D-01  0.72948955D-01
  0.30046805D-01  0.19105726D-01  0.40776531D-03 -0.11605772D-02 -0.10881149D-02
 -0.77480260D-03 -0.71277195D-12 -0.66826901D-12 -0.47584734D-12  0.10585793D+00
  0.99248536D-01  0.70670870D-01 -0.18921508D-03 -0.21570353D-12  0.65644349D-02
  0.13230034D-04  0.81532636D-12 -0.40013399D-02  0.36871224D-06  0.21856361D-13
 -0.55078698D-04 -0.18332417D-01 -0.79368303D-02  0.26269247D-01 -0.84035476D-15
 -0.67552299D-03  0.11111263D-12 -0.31357449D-02  0.25236767D-02  0.61206815D-03
  0.45713903D-15 -0.33023877D-04  0.13636711D-14  0.16059165D-04  0.49163819D-03
 -0.50769736D-03  0.46692556D-15  0.64478048D-05 -0.53414948D-13  0.31157424D-04
 -0.18632874D-13  0.43555206D-02  0.47823972D-04  0.53505251D-13 -0.94845082D-03
 -0.14129625D-03  0.23933716D-14 -0.12118111D-01  0.74348710D-15 -0.15464558D-05
 -0.29543085D-13 -0.31550218D-04 -0.76082490D-05 -0.50135185D-13  0.44117209D-03
  0.12247616D-04  0.13876444D-12 -0.34652144D-03 -0.39633619D-14  0.64722032D-02
  0.11672885D-01  0.17211662D-01 -0.12095201D-04 -0.58602922D-02 -0.79647864D-04
 -0.85791162D-05 -0.27836670D-02  0.22529018D-02  0.76811594D-05  0.41860880D-02
 -0.40833254D-02  0.32915418D-05  0.55916920D-03 -0.14797899D-02  0.53285174D-03
 -0.10804323D-02  0.54758053D-03  0.27662510D-05 -0.55870970D-05  0.20683050D-02
  0.34602829D-03 -0.79636753D-04 -0.26639154D-03 -0.26176160D-06  0.49064163D-05
  0.94659357D-03  0.64722032D-02  0.11672885D-01  0.17211662D-01 -0.12095201D-04
 -0.58602922D-02 -0.79647864D-04 -0.85791162D-05  0.27836670D-02  0.22529018D-02
  0.76811594D-05 -0.41860880D-02 -0.40833254D-02  0.32915418D-05 -0.55916920D-03
 -0.14797899D-02  0.53285174D-03 -0.10804323D-02  0.54758053D-03 -0.27662510D-05
 -0.55870970D-05 -0.20683050D-02  0.34602829D-03 -0.79636753D-04 -0.26639154D-03
  0.26176160D-06  0.49064163D-05 -0.94659357D-03
MO    4     MO 0.0        OCC NO =    1.9668847  ORB. ENERGY =    0.000000
  0.36139040D-01  0.67357228D-01  0.11421365D+00  0.17285021D+00  0.21561701D+00
  0.18503147D+00  0.70857225D-01  0.69152803D-03  0.74196419D-02  0.27350197D-01
  0.79970372D-01  0.96368187D-01 -0.11608569D+00 -0.65930687D-01 -0.54260770D-01
 -0.31071694D-02  0.34079606D-02  0.33045754D-02  0.22292470D-02  0.15011902D-11
  0.14556495D-11  0.98197255D-12 -0.67807720D+00 -0.65750679D+00 -0.44355019D+00
  0.72227704D-03  0.31159018D-12 -0.15213925D+00  0.45051459D-04 -0.71640390D-13
 -0.15791004D-01 -0.11688921D-05  0.59229078D-14 -0.10787454D-03 -0.19544442D-01
 -0.19324969D-01  0.38869410D-01  0.14152407D-13 -0.71546307D-03 -0.27318949D-12
 -0.35680924D-02 -0.40082394D-02  0.75763318D-02 -0.22035957D-14 -0.10850727D-03
 -0.97065119D-15  0.18568336D-06 -0.13817908D-03  0.13799340D-03 -0.68511408D-15
  0.59792803D-05  0.33406446D-13 -0.28362000D-04 -0.21453523D-13 -0.60173267D-02
 -0.80401074D-04 -0.61474880D-14  0.58889568D-02  0.16548708D-03  0.70508057D-13
  0.12163023D-01 -0.40475250D-14 -0.18024407D-05  0.21289141D-14 -0.14443264D-03
  0.54816581D-05 -0.10297635D-14 -0.20172015D-03 -0.74335970D-07 -0.53569787D-14
  0.63501806D-03  0.24470730D-14 -0.49526206D-01 -0.92326826D-01 -0.15604491D+00
 -0.23456461D+00 -0.28812061D+00 -0.24316363D+00 -0.91435875D-01 -0.12030774D-02
 -0.89922586D-02 -0.33606123D-01 -0.93755852D-01 -0.12560699D+00  0.14831844D+00
  0.64388666D-01  0.45910944D-01  0.11155115D-02 -0.47070922D-03 -0.44131981D-03
 -0.31424600D-03  0.12978074D-11  0.12167770D-11  0.86641768D-12 -0.11368017D+00
 -0.10658238D+00 -0.75893007D-01 -0.11188633D-03  0.36001747D-12 -0.31745304D-01
  0.16076771D-05  0.23160391D-12 -0.56240561D-02  0.23365535D-07 -0.61286129D-14
 -0.49229948D-05 -0.17575559D-01  0.14292964D-01  0.32825950D-02 -0.36480834D-14
 -0.26489075D-03 -0.66361640D-13 -0.45569341D-02  0.49132890D-02 -0.35635493D-03
  0.21773046D-14 -0.30402735D-04 -0.61813994D-13 -0.96044901D-04  0.14054404D-04
  0.81990497D-04  0.11043749D-14  0.77746372D-06 -0.12457135D-13  0.29596665D-04
 -0.17964103D-13  0.42726439D-02  0.49663868D-04 -0.88454320D-14  0.63770592D-03
 -0.13845386D-03  0.62737742D-13 -0.13455638D-01  0.74007490D-15 -0.22487048D-05
 -0.21979834D-13  0.28252699D-03 -0.36497753D-05 -0.12272117D-13  0.64594504D-03
  0.10395890D-04  0.78211621D-13 -0.14935260D-02 -0.95990819D-15  0.24361607D-01
  0.43937162D-01  0.64785319D-01  0.26901947D-01 -0.40442361D-02 -0.92652242D-04
 -0.88307614D-05 -0.17698801D-01  0.88069187D-02  0.21979699D-05  0.20426229D-03
 -0.19447346D-02 -0.35429577D-06  0.13558724D-02 -0.50730523D-03 -0.16313968D-02
  0.20352608D-02 -0.40386400D-03  0.35317376D-05 -0.14034486D-04 -0.29344301D-02
  0.28789523D-03 -0.13088737D-03 -0.15700786D-03  0.37979308D-05  0.87684025D-05
  0.55739425D-03  0.24361607D-01  0.43937162D-01  0.64785319D-01  0.26901947D-01
 -0.40442361D-02 -0.92652242D-04 -0.88307614D-05  0.17698801D-01  0.88069187D-02
  0.21979699D-05 -0.20426229D-03 -0.19447346D-02 -0.35429577D-06 -0.13558724D-02
 -0.50730523D-03 -0.16313968D-02  0.20352608D-02 -0.40386400D-03 -0.35317376D-05
 -0.14034486D-04  0.29344301D-02  0.28789523D-03 -0.13088737D-03 -0.15700786D-03
 -0.37979308D-05  0.87684025D-05 -0.55739425D-03
MO    5     MO 0.0        OCC NO =    1.9653381  ORB. ENERGY =    0.000000
 -0.15214443D-12 -0.28357220D-12 -0.48083652D-12 -0.72769494D-12 -0.90774208D-12
 -0.77897775D-12 -0.29830709D-12 -0.33531697D-14 -0.35977310D-13 -0.13261914D-12
 -0.38777059D-12 -0.46728241D-12  0.56289119D-12  0.33487802D-12  0.11684138D-12
 -0.41615286D-13  0.22364678D-13  0.21686215D-13  0.14629392D-13  0.13319007D+01
  0.12914956D+01  0.87123532D+00  0.22273956D-11  0.21598245D-11  0.14570048D-11
  0.24727886D-14  0.31477775D+00  0.51236513D-12  0.11254933D-13  0.50353183D-01
  0.16900867D-12  0.76347932D-15  0.15703386D-02  0.25167551D-14  0.37352977D-13
  0.38381244D-13 -0.75734221D-13  0.85516502D-03 -0.80164059D-15 -0.10123162D+00
  0.19532619D-13  0.24054943D-13 -0.43587562D-13  0.22728295D-03 -0.57329299D-14
 -0.28505014D-01  0.81835973D-14  0.94376028D-14 -0.17621200D-13  0.95802848D-05
 -0.51287631D-14 -0.26327009D-02  0.34479204D-14 -0.12965283D-01  0.17213645D-13
 -0.12881268D-14  0.93121126D-04 -0.22957831D-13 -0.90556344D-14  0.38802729D-01
 -0.28683103D-13 -0.69513170D-03 -0.19622219D-14 -0.97104178D-03  0.74618347D-14
 -0.37609628D-15  0.42708783D-03 -0.56771775D-14  0.62627620D-14  0.24860375D-02
 -0.16708327D-13 -0.13962800D-04  0.56919643D-13  0.10610968D-12  0.17933982D-12
  0.26958120D-12  0.33113222D-12  0.27946391D-12  0.10508573D-12  0.16314207D-14
  0.12193859D-13  0.45571234D-13  0.12713665D-12  0.17032806D-12 -0.20112568D-12
 -0.10993944D-12  0.40281612D-12  0.13343870D-12  0.17821205D-13  0.16708512D-13
  0.11897456D-13  0.40604534D+00  0.38069332D+00  0.27107632D+00  0.29517898D-13
  0.27674906D-13  0.19706181D-13 -0.97961167D-14  0.10512987D+00  0.68934310D-13
 -0.50170839D-14  0.62714872D-02 -0.35387744D-13 -0.16387112D-15 -0.33194846D-03
  0.30767504D-14  0.33535313D-13 -0.30248478D-13 -0.32868350D-14 -0.42817696D-03
  0.28580588D-14  0.28977436D-01 -0.22874907D-13 -0.98451964D-15  0.23859427D-13
 -0.43139266D-04 -0.83932115D-14 -0.37991521D-02 -0.33552941D-14  0.13504532D-13
 -0.10149238D-13  0.14048033D-04 -0.78439003D-15 -0.88551295D-03  0.94081297D-15
 -0.38798982D-02 -0.16821986D-14 -0.63179409D-15 -0.54706487D-02  0.49087792D-15
 -0.21906448D-14  0.17110343D-01  0.45557180D-14 -0.29061338D-03  0.62671957D-15
 -0.38112544D-03  0.52035384D-14 -0.15126397D-15 -0.31489346D-03  0.28955874D-14
 -0.17288947D-14  0.14582698D-02 -0.18506203D-13  0.10053704D-04  0.18326568D-01
  0.33052721D-01  0.48736217D-01  0.19326518D-01 -0.15384814D-02  0.34572952D-03
 -0.32416736D-04 -0.11323072D-01  0.13691706D-01  0.25997732D-05  0.55215690D-02
  0.18030884D-02 -0.15997296D-04  0.47258217D-03  0.61267700D-03 -0.18583227D-02
 -0.14351118D-02  0.32934345D-02  0.40648716D-04 -0.15051156D-04 -0.83044945D-02
  0.31015866D-03 -0.46644016D-03  0.15628151D-03 -0.10138386D-05 -0.88535766D-06
  0.88651785D-03 -0.18326568D-01 -0.33052721D-01 -0.48736217D-01 -0.19326518D-01
  0.15384814D-02 -0.34572952D-03  0.32416736D-04 -0.11323072D-01 -0.13691706D-01
 -0.25997732D-05  0.55215690D-02 -0.18030884D-02  0.15997296D-04  0.47258217D-03
 -0.61267700D-03  0.18583227D-02  0.14351118D-02 -0.32934345D-02  0.40648716D-04
  0.15051156D-04 -0.83044945D-02 -0.31015866D-03  0.46644016D-03 -0.15628151D-03
 -0.10138386D-05  0.88535766D-06  0.88651785D-03
MO    6     MO 0.0        OCC NO =    1.9601086  ORB. ENERGY =    0.000000
  0.19822797D-02  0.36946435D-02  0.62647872D-02  0.94810893D-02  0.11826912D-01
  0.10149250D-01  0.38866235D-02 -0.31513665D-04 -0.33812095D-03 -0.12463775D-02
 -0.36443346D-02 -0.43916004D-02  0.52901481D-02  0.76362686D-02  0.28691684D-01
  0.63074086D-02 -0.11157377D-01 -0.10818902D-01 -0.72983676D-02 -0.84652110D-11
 -0.82084071D-11 -0.55373430D-11  0.13821957D+01  0.13402649D+01  0.90413479D+00
 -0.25881288D-02 -0.20135850D-11  0.31969951D+00 -0.28832235D-03 -0.36565528D-12
  0.38150597D-01 -0.54532571D-06 -0.12887838D-13  0.15792544D-03  0.41971825D-01
  0.43771562D-01 -0.85743387D-01  0.15204721D-14  0.22026057D-02  0.13092922D-12
  0.10426773D-01  0.11786939D-01 -0.22213712D-01 -0.62715894D-15  0.56354224D-03
  0.37081898D-13  0.26546007D-03  0.51095401D-03 -0.77641408D-03 -0.11156646D-15
  0.10162554D-04  0.17889732D-13  0.15078398D-03  0.35357950D-13  0.15666899D-01
  0.27005203D-03 -0.60346400D-13 -0.15971844D-01 -0.72240396D-03 -0.45727449D-13
 -0.31028853D-01  0.10337254D-14  0.20226006D-04  0.43241331D-14  0.20164320D-02
  0.29436242D-04  0.51031661D-14 -0.24742446D-02 -0.90114260D-04 -0.18075566D-13
 -0.35750514D-02 -0.64364939D-16  0.52113142D-02  0.97149395D-02  0.16419571D-01
  0.24681678D-01  0.30317021D-01  0.25586496D-01  0.96211907D-02  0.88896731D-04
  0.66444799D-03  0.24831938D-02  0.69277242D-02  0.92812404D-02 -0.10959414D-01
 -0.62533602D-02  0.16282162D-01  0.10900317D-04  0.34385860D-02  0.32238930D-02
  0.22956039D-02  0.21452804D-11  0.20113368D-11  0.14321916D-11 -0.52338412D+00
 -0.49070588D+00 -0.34941182D+00  0.73528875D-03  0.64673548D-12 -0.10880941D+00
  0.39795447D-04  0.23208495D-12 -0.86472425D-02  0.25095887D-06  0.64890230D-14
 -0.40777222D-04  0.83577746D-02  0.28581045D-01 -0.36938820D-01  0.27806613D-14
  0.84350083D-03 -0.75411445D-12  0.20260997D-03  0.24872473D-02 -0.26898572D-02
  0.18574111D-14  0.59038766D-04 -0.25579164D-12 -0.15405269D-03  0.12830471D-03
  0.25747974D-04  0.85315367D-15  0.66177855D-06 -0.37600173D-13 -0.58537873D-04
  0.22275039D-13 -0.58747088D-02 -0.78693591D-04 -0.27798843D-13  0.64601277D-02
  0.25430721D-03 -0.39026273D-13  0.11163999D-01  0.16518488D-14  0.72328114D-06
  0.16995069D-14  0.76913776D-03  0.21341795D-04 -0.94976648D-14 -0.19243421D-03
 -0.23511638D-04  0.43991442D-14 -0.21149791D-02 -0.86722450D-15  0.18240711D-01
  0.32897873D-01  0.48507894D-01  0.30885103D-01  0.75219722D-03  0.11692580D-04
  0.46066123D-04 -0.17428269D-01  0.35817139D-02  0.10524637D-05 -0.57518725D-02
  0.75564887D-03  0.29105503D-05  0.33773144D-03 -0.24456829D-03 -0.14822400D-02
  0.52635878D-02 -0.37813478D-02 -0.17096873D-04  0.50525885D-04 -0.45457007D-02
 -0.54890802D-03  0.43503210D-05  0.54455770D-03 -0.68598777D-05 -0.18728146D-04
  0.47208532D-04  0.18240711D-01  0.32897873D-01  0.48507894D-01  0.30885103D-01
  0.75219722D-03  0.11692580D-04  0.46066123D-04  0.17428269D-01  0.35817139D-02
  0.10524637D-05  0.57518725D-02  0.75564887D-03  0.29105503D-05 -0.33773144D-03
 -0.24456829D-03 -0.14822400D-02  0.52635878D-02 -0.37813478D-02  0.17096873D-04
  0.50525885D-04  0.45457007D-02 -0.54890802D-03  0.43503211D-05  0.54455770D-03
  0.68598777D-05 -0.18728146D-04 -0.47208532D-04
MO    7     MO 0.0        OCC NO =    1.9567314  ORB. ENERGY =    0.000000
  0.12325765D-12  0.22973199D-12  0.38954288D-12  0.58953172D-12  0.73539436D-12
  0.63107777D-12  0.24166926D-12  0.15968168D-14  0.17132797D-13  0.63154715D-13
  0.18466068D-12  0.22252510D-12 -0.26805507D-12 -0.13775185D-12  0.33946223D-13
 -0.24936509D-12  0.20687374D-13  0.20059794D-13  0.13532218D-13  0.11745867D+01
  0.11389540D+01  0.76833161D+00  0.84169699D-11  0.81616295D-11  0.55057871D-11
  0.77069904D-14  0.27736940D+00  0.20025141D-11  0.12281542D-13  0.50119119D-01
  0.15866946D-12  0.77177390D-15  0.17015575D-02  0.24135188D-13  0.24545138D-12
  0.29272112D-12 -0.53817250D-12  0.14451721D-03  0.94281875D-14 -0.11688621D-01
  0.80122397D-13  0.76239331D-13 -0.15636173D-12  0.46409531D-04 -0.58216984D-14
 -0.29238795D-02 -0.83454742D-14 -0.82423756D-14  0.16587850D-13  0.37008575D-05
 -0.55115312D-14 -0.65103439D-03  0.20047941D-14 -0.41824376D-02  0.11568112D-12
  0.23058976D-14  0.88086616D-02 -0.11046390D-12 -0.83202799D-14  0.37386511D-02
 -0.23657947D-12  0.21252526D-04 -0.10587467D-14 -0.30797970D-03  0.66012363D-14
 -0.17309415D-14 -0.35490871D-03 -0.13925728D-13  0.49071816D-14  0.12788478D-02
 -0.58779811D-14 -0.27088479D-04 -0.78233152D-14 -0.14584236D-13 -0.24649345D-13
 -0.37052563D-13 -0.45512437D-13 -0.38410891D-13 -0.14443498D-13  0.23418835D-17
  0.17504128D-16  0.65416923D-16  0.18250303D-15  0.24450374D-15 -0.28871333D-15
  0.56350683D-13 -0.96819849D-12  0.66500808D-13  0.56861924D-13  0.53311668D-13
  0.37961084D-13 -0.36131159D+00 -0.33875258D+00 -0.24121202D+00 -0.37555866D-11
 -0.35211012D-11 -0.25072338D-11  0.37726883D-14 -0.99078832D-01 -0.64212459D-12
 -0.42136832D-14 -0.25711198D-01  0.16074063D-12 -0.24890526D-15 -0.50647737D-03
  0.84713923D-14  0.17491484D-13  0.22103634D-12 -0.23852782D-12 -0.45814199D-03
  0.11257212D-13  0.11075174D+00  0.91295059D-13 -0.83233619D-13 -0.80614398D-14
 -0.11570443D-03 -0.79148310D-14  0.31841410D-01  0.39580136D-14 -0.40571322D-13
  0.36613308D-13 -0.12238445D-04 -0.12599899D-14  0.34100280D-02  0.15577504D-15
 -0.36574198D-02 -0.45726881D-13  0.65299122D-15  0.27403075D-02  0.75565891D-14
 -0.11203163D-14  0.82319518D-02  0.12962405D-12 -0.18276799D-03  0.68759757D-15
 -0.58791243D-03 -0.85467785D-14  0.45700093D-15  0.80382634D-03 -0.18477231D-13
 -0.25197937D-14  0.95991096D-03  0.44117567D-13 -0.36631693D-04 -0.34611348D-01
 -0.62422992D-01 -0.92042666D-01 -0.52456372D-01  0.10545356D-01  0.43285289D-03
 -0.17324250D-04  0.14956726D-01 -0.10588806D-01 -0.18485053D-04 -0.32090699D-02
  0.19919066D-02  0.41170472D-05 -0.34750867D-02  0.16653869D-02  0.70831577D-03
 -0.15509428D-02  0.84262701D-03  0.19040885D-04 -0.14964240D-04  0.31491817D-02
  0.48433756D-05  0.35303014D-03 -0.35787352D-03  0.17313492D-06  0.71721547D-05
  0.45349079D-04  0.34611348D-01  0.62422992D-01  0.92042666D-01  0.52456372D-01
 -0.10545356D-01 -0.43285289D-03  0.17324250D-04  0.14956726D-01  0.10588806D-01
  0.18485053D-04 -0.32090699D-02 -0.19919066D-02 -0.41170472D-05 -0.34750867D-02
 -0.16653869D-02 -0.70831577D-03  0.15509428D-02 -0.84262701D-03  0.19040885D-04
  0.14964240D-04  0.31491817D-02 -0.48433755D-05 -0.35303014D-03  0.35787352D-03
  0.17313492D-06 -0.71721547D-05  0.45349079D-04
MO    8     MO 0.0        OCC NO =    1.9226238  ORB. ENERGY =    0.000000
  0.56932794D-04  0.10611337D-03  0.17993013D-03  0.27230511D-03  0.33967916D-03
  0.29149526D-03  0.11162720D-03  0.11313160D-05  0.12138278D-04  0.44743978D-04
  0.13082877D-03  0.15765502D-03 -0.18991218D-03 -0.10772467D-03 -0.76444487D-04
  0.74857059D-04  0.13795296D+01  0.13376797D+01  0.90239079D+00 -0.12291799D-12
 -0.11918911D-12 -0.80404267D-13  0.11102608D-01  0.10765795D-01  0.72625419D-02
  0.33247094D+00 -0.17723085D-13  0.26757546D-02  0.48481580D-01 -0.12579885D-14
  0.44579221D-03  0.88714351D-03 -0.61211169D-15  0.15026544D-05  0.10236431D-02
 -0.36442785D-04 -0.98720028D-03  0.11915287D-14 -0.12441246D+00  0.30023451D-14
  0.30484691D-03  0.65750464D-05 -0.31142196D-03 -0.18003372D-14 -0.37367324D-01
 -0.31296312D-14  0.26618300D-04  0.74997307D-06 -0.27368273D-04 -0.67409466D-15
 -0.23608826D-02 -0.13840537D-14 -0.61287280D-02  0.17326762D-14  0.33836371D-03
 -0.22207676D-01 -0.40415353D-14 -0.84500454D-03  0.40593860D-01 -0.11564933D-14
 -0.17008659D-03 -0.15731083D-13 -0.36168415D-03 -0.13686995D-15  0.26547527D-04
 -0.15478133D-02  0.37607325D-15 -0.63233236D-04  0.26328658D-02  0.34536588D-16
 -0.16409344D-04  0.33399056D-14 -0.15999100D-03 -0.29825545D-03 -0.50409235D-03
 -0.75774482D-03 -0.93075379D-03 -0.78552336D-03 -0.29537730D-03 -0.39658592D-05
 -0.29642341D-04 -0.11078019D-03 -0.30905949D-03 -0.41405452D-03  0.48892118D-03
  0.21250080D-03  0.38957205D-03 -0.32368340D-05  0.41538090D+00  0.38944600D+00
  0.27730875D+00  0.73331415D-14  0.68752863D-14  0.48956134D-14  0.26005791D-02
  0.24382082D-02  0.17361495D-02  0.10663959D+00  0.23049206D-13  0.70896892D-03
  0.12611010D-01 -0.10809862D-13  0.42606686D-04  0.39113765D-04 -0.11593983D-15