 h2co-wavefunction
GAUSSIAN            138 MOL ORBITALS    198 PRIMITIVES        4 NUCLEI
  O    1    (CENTRE  1)   0.00000000  0.00000000  1.28360026  CHARGE =  8.0
  C    2    (CENTRE  2)   0.00000000  0.00000000 -0.99571749  CHARGE =  6.0
  H    3    (CENTRE  3)   0.00000000  1.76994395 -2.09120873  CHARGE =  1.0
  H    4    (CENTRE  4)   0.00000000 -1.76994395 -2.07231147  CHARGE =  1.0
CENTRE ASSIGNMENTS    1  1  1  1  1  1  1  1  1  1  1  1  1  1  1  1  1  1  1  1
CENTRE ASSIGNMENTS    1  1  1  1  1  1  1  1  1  1  1  1  1  1  1  1  1  1  1  1
CENTRE ASSIGNMENTS    1  1  1  1  1  1  1  1  1  1  1  1  1  1  1  1  1  1  1  1
CENTRE ASSIGNMENTS    1  1  1  1  1  1  1  1  1  1  1  1  2  2  2  2  2  2  2  2
CENTRE ASSIGNMENTS    2  2  2  2  2  2  2  2  2  2  2  2  2  2  2  2  2  2  2  2
CENTRE ASSIGNMENTS    2  2  2  2  2  2  2  2  2  2  2  2  2  2  2  2  2  2  2  2
CENTRE ASSIGNMENTS    2  2  2  2  2  2  2  2  2  2  2  2  2  2  2  2  2  2  2  2
CENTRE ASSIGNMENTS    2  2  2  2  3  3  3  3  3  3  3  3  3  3  3  3  3  3  3  3
CENTRE ASSIGNMENTS    3  3  3  3  3  3  3  3  3  3  3  4  4  4  4  4  4  4  4  4
CENTRE ASSIGNMENTS    4  4  4  4  4  4  4  4  4  4  4  4  4  4  4  4  4  4
TYPE ASSIGNMENTS      1  1  1  1  1  1  1  1  1  1  1  1  1  1  1  1  2  2  2  3
TYPE ASSIGNMENTS      3  3  4  4  4  2  3  4  2  3  4  2  3  4  5  6  7  8  9 10
TYPE ASSIGNMENTS      5  6  7  8  9 10  5  6  7  8  9 10 11 12 13 17 14 15 18 19
TYPE ASSIGNMENTS     16 20 11 12 13 17 14 15 18 19 16 20  1  1  1  1  1  1  1  1
TYPE ASSIGNMENTS      1  1  1  1  1  1  1  1  2  2  2  3  3  3  4  4  4  2  3  4
TYPE ASSIGNMENTS      2  3  4  2  3  4  5  6  7  8  9 10  5  6  7  8  9 10  5  6
TYPE ASSIGNMENTS      7  8  9 10 11 12 13 17 14 15 18 19 16 20 11 12 13 17 14 15
TYPE ASSIGNMENTS     18 19 16 20  1  1  1  1  1  1  2  3  4  2  3  4  2  3  4  5
TYPE ASSIGNMENTS      6  7  8  9 10  5  6  7  8  9 10  1  1  1  1  1  1  2  3  4
TYPE ASSIGNMENTS      2  3  4  2  3  4  5  6  7  8  9 10  5  6  7  8  9 10
EXPONENTS  0.1533000D+05 0.2299000D+04 0.5224000D+03 0.1473000D+03 0.4755000D+02
EXPONENTS  0.1676000D+02 0.6207000D+01 0.5224000D+03 0.1473000D+03 0.4755000D+02
EXPONENTS  0.1676000D+02 0.6207000D+01 0.6882000D+00 0.1752000D+01 0.2384000D+00
EXPONENTS  0.7376000D-01 0.3446000D+02 0.7749000D+01 0.2280000D+01 0.3446000D+02
EXPONENTS  0.7749000D+01 0.2280000D+01 0.3446000D+02 0.7749000D+01 0.2280000D+01
EXPONENTS  0.7156000D+00 0.7156000D+00 0.7156000D+00 0.2140000D+00 0.2140000D+00
EXPONENTS  0.2140000D+00 0.5974000D-01 0.5974000D-01 0.5974000D-01 0.2314000D+01
EXPONENTS  0.2314000D+01 0.2314000D+01 0.2314000D+01 0.2314000D+01 0.2314000D+01
EXPONENTS  0.6450000D+00 0.6450000D+00 0.6450000D+00 0.6450000D+00 0.6450000D+00
EXPONENTS  0.6450000D+00 0.2140000D+00 0.2140000D+00 0.2140000D+00 0.2140000D+00
EXPONENTS  0.2140000D+00 0.2140000D+00 0.1428000D+01 0.1428000D+01 0.1428000D+01
EXPONENTS  0.1428000D+01 0.1428000D+01 0.1428000D+01 0.1428000D+01 0.1428000D+01
EXPONENTS  0.1428000D+01 0.1428000D+01 0.5000000D+00 0.5000000D+00 0.5000000D+00
EXPONENTS  0.5000000D+00 0.5000000D+00 0.5000000D+00 0.5000000D+00 0.5000000D+00
EXPONENTS  0.5000000D+00 0.5000000D+00 0.8236000D+04 0.1235000D+04 0.2808000D+03
EXPONENTS  0.7927000D+02 0.2559000D+02 0.8997000D+01 0.3319000D+01 0.2808000D+03
EXPONENTS  0.7927000D+02 0.2559000D+02 0.8997000D+01 0.3319000D+01 0.3643000D+00
EXPONENTS  0.9059000D+00 0.1285000D+00 0.4402000D-01 0.1871000D+02 0.4133000D+01
EXPONENTS  0.1200000D+01 0.1871000D+02 0.4133000D+01 0.1200000D+01 0.1871000D+02
EXPONENTS  0.4133000D+01 0.1200000D+01 0.3827000D+00 0.3827000D+00 0.3827000D+00
EXPONENTS  0.1209000D+00 0.1209000D+00 0.1209000D+00 0.3569000D-01 0.3569000D-01
EXPONENTS  0.3569000D-01 0.1097000D+01 0.1097000D+01 0.1097000D+01 0.1097000D+01
EXPONENTS  0.1097000D+01 0.1097000D+01 0.3180000D+00 0.3180000D+00 0.3180000D+00
EXPONENTS  0.3180000D+00 0.3180000D+00 0.3180000D+00 0.1000000D+00 0.1000000D+00
EXPONENTS  0.1000000D+00 0.1000000D+00 0.1000000D+00 0.1000000D+00 0.7610000D+00
EXPONENTS  0.7610000D+00 0.7610000D+00 0.7610000D+00 0.7610000D+00 0.7610000D+00
EXPONENTS  0.7610000D+00 0.7610000D+00 0.7610000D+00 0.7610000D+00 0.2680000D+00
EXPONENTS  0.2680000D+00 0.2680000D+00 0.2680000D+00 0.2680000D+00 0.2680000D+00
EXPONENTS  0.2680000D+00 0.2680000D+00 0.2680000D+00 0.2680000D+00 0.3387000D+02
EXPONENTS  0.5095000D+01 0.1159000D+01 0.3258000D+00 0.1027000D+00 0.2526000D-01
EXPONENTS  0.1407000D+01 0.1407000D+01 0.1407000D+01 0.3880000D+00 0.3880000D+00
EXPONENTS  0.3880000D+00 0.1020000D+00 0.1020000D+00 0.1020000D+00 0.1057000D+01
EXPONENTS  0.1057000D+01 0.1057000D+01 0.1057000D+01 0.1057000D+01 0.1057000D+01
EXPONENTS  0.2470000D+00 0.2470000D+00 0.2470000D+00 0.2470000D+00 0.2470000D+00
EXPONENTS  0.2470000D+00 0.3387000D+02 0.5095000D+01 0.1159000D+01 0.3258000D+00
EXPONENTS  0.1027000D+00 0.2526000D-01 0.1407000D+01 0.1407000D+01 0.1407000D+01
EXPONENTS  0.3880000D+00 0.3880000D+00 0.3880000D+00 0.1020000D+00 0.1020000D+00
EXPONENTS  0.1020000D+00 0.1057000D+01 0.1057000D+01 0.1057000D+01 0.1057000D+01
EXPONENTS  0.1057000D+01 0.1057000D+01 0.2470000D+00 0.2470000D+00 0.2470000D+00
EXPONENTS  0.2470000D+00 0.2470000D+00 0.2470000D+00
MO    1     MO 0.0        OCC NO =    2.0000076  ORB. ENERGY =    0.000000
 -0.26658704D+00 -0.49687442D+00 -0.84252040D+00 -0.12750650D+01 -0.15905431D+01
 -0.13649226D+01 -0.52269286D+00 -0.36166760D-04 -0.38804560D-03 -0.14304092D-02
 -0.41824325D-02 -0.50400345D-02  0.60712557D-02 -0.23674120D-01  0.68093099D-03
  0.13358899D-04 -0.41928517D-13 -0.40656557D-13 -0.27426673D-13 -0.31020741D-04
 -0.30079684D-04 -0.20291577D-04  0.14605283D-01  0.14162211D-01  0.95537441D-02
 -0.12080554D-13 -0.33479193D-05  0.18809800D-02 -0.17572576D-15 -0.66327940D-06
  0.63165941D-03  0.11842067D-15 -0.30841509D-06  0.80549536D-05  0.92727655D-03
  0.11003355D-03 -0.10373101D-02  0.65586256D-14  0.20438950D-14 -0.78293866D-05
  0.23046313D-03  0.12035588D-03 -0.35081901D-03 -0.13452073D-14  0.19690056D-14
  0.20340213D-05  0.62509559D-04  0.11092554D-04 -0.73602113D-04 -0.25436798D-15
 -0.42102270D-15  0.86238346D-06 -0.96877306D-15  0.22437488D-06 -0.10911989D-03
  0.31388438D-14 -0.40630675D-06  0.45157722D-03 -0.23252464D-15 -0.26681791D-06
 -0.12421756D-03 -0.61589057D-14  0.60194664D-17  0.53713357D-06  0.10508521D-03
  0.10062124D-15  0.60948812D-06 -0.16944014D-03 -0.11867964D-15 -0.22208888D-05
 -0.14581550D-03  0.25698215D-14  0.27724410D+00  0.51683886D+00  0.87352809D+00
  0.13130756D+01  0.16128782D+01  0.13612123D+01  0.51185139D+00  0.32354571D-04
  0.24183037D-03  0.90377532D-03  0.25213924D-02  0.33779707D-02 -0.39887535D-02
  0.22784824D-01  0.53222666D-03  0.12416381D-03 -0.11750786D-13 -0.11017109D-13
 -0.78448376D-14  0.40992122D-04  0.38432720D-04  0.27366386D-04  0.20611754D-02
  0.19324830D-02  0.13760430D-02 -0.40603798D-14 -0.20289147D-04  0.25618227D-03
 -0.96888409D-15 -0.67098109D-05 -0.99128318D-04 -0.48696578D-16  0.95895595D-07
 -0.34465099D-05 -0.12317062D-02  0.25008775D-03  0.98161848D-03 -0.81820129D-15
 -0.19024011D-15  0.12062797D-04  0.14579193D-03  0.15422460D-04 -0.16121439D-03
  0.56381744D-15 -0.10438658D-14  0.15002311D-04 -0.58325264D-05  0.18455609D-04
 -0.12623082D-04  0.12438642D-15 -0.20030711D-15  0.12136667D-06  0.17503981D-15
 -0.32786778D-05  0.55448551D-03 -0.48553595D-15  0.46597306D-05 -0.49590311D-04
 -0.39583482D-16  0.51763028D-05 -0.16138662D-02 -0.13733556D-14  0.83155285D-16
  0.10839436D-05 -0.11450484D-03  0.13822773D-15  0.10949359D-05  0.43432051D-04
 -0.38769359D-15 -0.43467667D-05  0.30008248D-03  0.65679192D-15 -0.27403141D-03
 -0.49422693D-03 -0.72873732D-03 -0.19499118D-03 -0.43811759D-03 -0.12031436D-04
 -0.41061135D-15  0.77653981D-03 -0.52260591D-03  0.36481315D-15  0.20640817D-03
 -0.78611816D-04 -0.29843745D-15  0.39609089D-04 -0.54490586D-04  0.22023021D-03
 -0.35244223D-03  0.13221203D-03  0.75227650D-15 -0.20609469D-14  0.87891620D-03
  0.46962986D-04 -0.12617285D-04 -0.34345701D-04  0.15167581D-15 -0.18254956D-15
 -0.27503038D-04 -0.28035479D-03 -0.50563141D-03 -0.74555322D-03 -0.24134633D-03
 -0.46275791D-03 -0.11992396D-04  0.56391749D-15 -0.79336210D-03 -0.52154940D-03
 -0.58887571D-15 -0.23703609D-03 -0.85309071D-04  0.10259905D-15 -0.44427129D-04
 -0.56249399D-04  0.21511736D-03 -0.36462704D-03  0.14950968D-03 -0.20182618D-14
 -0.19487000D-14 -0.86115737D-03  0.48340437D-04 -0.14488821D-04 -0.33851616D-04
 -0.10516330D-15  0.11295212D-15  0.25214658D-04
MO    2     MO 0.0        OCC NO =    2.0000041  ORB. ENERGY =    0.000000
  0.42291846D+00  0.78825047D+00  0.13365894D+01  0.20227860D+01  0.25232661D+01
  0.21653377D+01  0.82920930D+00  0.49663833D-04  0.53286034D-03  0.19642235D-02
  0.57432744D-02  0.69209249D-02 -0.83369875D-02  0.38638444D-01 -0.65614687D-03
 -0.81412111D-04 -0.79625316D-14 -0.77209772D-14 -0.52085256D-14  0.62341928D-05
  0.60450699D-05  0.40779685D-05 -0.11008621D-01 -0.10674659D-01 -0.72010618D-02
 -0.10570311D-14 -0.44852980D-05  0.14428189D-02  0.30693732D-14 -0.26522852D-05
  0.10105291D-03  0.30170148D-15 -0.12044574D-06  0.18253368D-05 -0.99713144D-03
 -0.58538588D-04  0.10556700D-02 -0.75918069D-15 -0.12635994D-13  0.13776389D-05
  0.34701304D-03  0.53591490D-03 -0.88292793D-03 -0.11411213D-14 -0.27737188D-15
  0.34834888D-05  0.33372546D-04 -0.70939404D-06 -0.32663152D-04 -0.34053525D-15
 -0.14846419D-14  0.15093041D-05  0.12964947D-14  0.40304795D-06  0.11011351D-03
  0.10024688D-14  0.11942270D-05 -0.24156439D-03 -0.48919529D-14 -0.24033709D-05
 -0.88776154D-04 -0.81264816D-14 -0.26669022D-15  0.43498249D-06  0.12807559D-03
 -0.43767892D-15 -0.11734161D-06 -0.16599466D-03  0.12377496D-14 -0.11876058D-05
 -0.21823209D-03  0.11295483D-14  0.17465388D+00  0.32559001D+00  0.55029147D+00
  0.82719072D+00  0.10160556D+01  0.85751512D+00  0.32244808D+00  0.17334463D-04
  0.12956437D-03  0.48421164D-03  0.13508751D-02  0.18098002D-02 -0.21370366D-02
  0.14416542D-01  0.50367014D-03  0.94065976D-04  0.77619054D-17  0.72772797D-17
  0.51818567D-17  0.26206754D-04  0.24570498D-04  0.17495658D-04  0.11545193D-02
  0.10824353D-02  0.77075840D-03 -0.21258906D-14 -0.17200010D-04  0.16004928D-02
 -0.10151261D-14 -0.54314859D-06 -0.82093405D-05 -0.60116653D-16  0.97787797D-08
  0.56367994D-06 -0.10297907D-02 -0.29991178D-03  0.13297025D-02 -0.49500668D-15
  0.82019745D-15  0.11158515D-04  0.16054243D-04 -0.26036057D-03  0.24430633D-03
 -0.64804978D-15 -0.27430335D-14  0.11191764D-04 -0.19921145D-05  0.41554157D-04
 -0.39562043D-04  0.33825712D-16 -0.39678575D-15 -0.52257472D-06  0.11437768D-15
 -0.42410129D-05  0.34881567D-03  0.26140789D-15  0.53153267D-05 -0.22634150D-03
 -0.60454094D-15  0.74077120D-05 -0.82010552D-03  0.21645417D-14  0.17295013D-15
 -0.62322535D-07 -0.87021783D-05  0.18006653D-15  0.38943035D-06 -0.38609974D-04
 -0.69891692D-15 -0.20246275D-06  0.64716509D-04  0.12052088D-14 -0.14626365D-03
 -0.26379252D-03 -0.38896191D-03  0.12781198D-03 -0.34436606D-03 -0.73996503D-05
 -0.91118003D-15  0.34622903D-03 -0.21643576D-03  0.10362032D-14 -0.81592175D-04
  0.13610184D-03 -0.10805650D-15 -0.10660693D-04 -0.81800584D-04  0.12235678D-03
 -0.13579612D-03  0.13439335D-04  0.14127057D-14 -0.10497607D-14  0.40903105D-03
  0.20336028D-05  0.28806080D-05 -0.49142108D-05  0.40173495D-16 -0.14160301D-15
 -0.67416209D-05 -0.14849397D-03 -0.26781498D-03 -0.39489303D-03  0.99577955D-04
 -0.35094753D-03 -0.76162478D-05  0.15221077D-14 -0.35481983D-03 -0.21850387D-03
 -0.16371812D-14  0.62820058D-04  0.11977084D-03 -0.12448969D-15  0.89058663D-05
 -0.83150264D-04  0.12474423D-03 -0.13728267D-03  0.12538431D-04 -0.10030983D-14
 -0.15969967D-14 -0.41545724D-03  0.34496508D-05  0.19690055D-05 -0.54186563D-05
 -0.42837669D-15  0.39861372D-16  0.31172448D-05
MO    3     MO 0.0        OCC NO =    1.9805574  ORB. ENERGY =    0.000000
 -0.96612916D-01 -0.18007059D+00 -0.30533499D+00 -0.46209204D+00 -0.57642340D+00
 -0.49465703D+00 -0.18942736D+00 -0.16840196D-02 -0.18068425D-01 -0.66603616D-01
 -0.19474507D+00 -0.23467727D+00  0.28269365D+00  0.14926751D+00  0.75463997D-01
  0.44315478D-02  0.82989991D-13  0.80472375D-13  0.54286189D-13 -0.12924982D-02
 -0.12532885D-02 -0.84546102D-03 -0.25855718D-02 -0.25071349D-02 -0.16912984D-02
  0.22935090D-13 -0.29853481D-03 -0.81941823D-02  0.11113400D-13 -0.71366026D-04
  0.80267359D-02  0.82963357D-15 -0.46225153D-05  0.87354705D-04 -0.14850497D-01
 -0.15854136D-01  0.30704632D-01  0.44107693D-14  0.11303043D-14  0.16770874D-03
 -0.42694522D-02 -0.51412789D-02  0.94107311D-02 -0.81105667D-15 -0.10218627D-13
  0.37012956D-04  0.45794485D-03  0.50834922D-03 -0.96629406D-03  0.58395446D-15
 -0.43697371D-14  0.14737986D-04  0.11996806D-14  0.15552005D-04 -0.89284223D-02
  0.23269136D-14  0.18923869D-06  0.14292300D-01 -0.59259553D-14 -0.46845254D-04
  0.12492967D-01  0.13574205D-14 -0.13212894D-14  0.13258641D-05 -0.36275953D-03
 -0.17656229D-14  0.45834516D-06  0.23543677D-04  0.57294911D-14 -0.44359375D-05
  0.10647349D-02 -0.92881652D-15 -0.28245196D-01 -0.52654735D-01 -0.88993676D-01
 -0.13377409D+00 -0.16431751D+00 -0.13867818D+00 -0.52146619D-01 -0.59386009D-03
 -0.44387363D-02 -0.16588571D-01 -0.46279530D-01 -0.62001811D-01  0.73212578D-01
  0.30169750D-01  0.19278296D-01  0.41906993D-03  0.31120737D-13  0.29177670D-13
  0.20776239D-13 -0.10032156D-02 -0.94057842D-03 -0.66974786D-03  0.10553797D+00
  0.98948559D-01  0.70457269D-01 -0.73609610D-15 -0.42843178D-03  0.64509861D-02
 -0.29473665D-14 -0.48551715D-04 -0.40066875D-02 -0.19441853D-15  0.15106614D-05
 -0.55402341D-04 -0.18357206D-01 -0.78358671D-02  0.26193074D-01  0.35567941D-17
  0.21608138D-14  0.61498468D-04 -0.31566453D-02  0.25956034D-02  0.56104196D-03
  0.44041293D-15 -0.68487344D-14  0.48508790D-04  0.13992274D-04  0.49087862D-03
 -0.50487089D-03 -0.28555390D-15 -0.64118903D-15  0.34514223D-05  0.71317606D-15
 -0.14333756D-04  0.43484635D-02  0.52933632D-16  0.18061821D-04 -0.95939701D-03
 -0.21924618D-14  0.24939448D-04 -0.12085994D-01  0.14228941D-14  0.30521345D-15
 -0.62131076D-05 -0.28225745D-04  0.57728167D-15  0.46036043D-05  0.44060253D-03
 -0.14929220D-14  0.14035718D-04 -0.35592529D-03 -0.61258435D-15  0.64670165D-02
  0.11663531D-01  0.17197869D-01 -0.25385336D-05 -0.58360845D-02 -0.82493494D-04
  0.14501425D-14 -0.27963283D-02  0.22549245D-02 -0.13412986D-14  0.41417871D-02
 -0.40735786D-02  0.79128110D-15  0.55207743D-03 -0.14750531D-02  0.52183533D-03
 -0.10656381D-02  0.54380282D-03 -0.61527586D-15 -0.97952349D-15  0.20456171D-02
  0.34139034D-03 -0.71857723D-04 -0.26953261D-03 -0.34483528D-16  0.13629879D-15
  0.94090686D-03  0.65992766D-02  0.11902067D-01  0.17549591D-01 -0.16578141D-03
 -0.59932353D-02 -0.78823122D-04  0.11095112D-14  0.28930407D-02  0.23662807D-02
  0.60336040D-15 -0.43135985D-02 -0.41612228D-02  0.71538078D-16 -0.58499834D-03
 -0.14795462D-02  0.49077787D-03 -0.11048495D-02  0.61407161D-03  0.44442762D-15
  0.96541148D-15 -0.19275403D-02  0.34948183D-03 -0.87520294D-04 -0.26196153D-03
  0.38861928D-15 -0.27813058D-16 -0.96653108D-03
MO    4     MO 0.0        OCC NO =    1.9669533  ORB. ENERGY =    0.000000
  0.36296511D-01  0.67650729D-01  0.11471132D+00  0.17360338D+00  0.21655653D+00
  0.18583772D+00  0.71165975D-01  0.69387872D-03  0.74448633D-02  0.27443168D-01
  0.80242213D-01  0.96695768D-01 -0.11648030D+00 -0.66112969D-01 -0.54224965D-01
 -0.30574822D-02 -0.15654645D-12 -0.15179740D-12 -0.10240163D-12 -0.49709966D-01
 -0.48201946D-01 -0.32516748D-01 -0.67226833D+00 -0.65187415D+00 -0.43975045D+00
 -0.30343893D-13 -0.11736377D-01 -0.15079094D+00  0.35418131D-14 -0.18285366D-02
 -0.15633722D-01  0.44762744D-15 -0.57315207D-04 -0.10880041D-03 -0.19374412D-01
 -0.19110342D-01  0.38484754D-01  0.19548215D-14  0.24055833D-13  0.42663724D-02
 -0.35099302D-02 -0.39611313D-02  0.74710616D-02  0.27370268D-16 -0.46585086D-14
  0.11723893D-02  0.53820911D-05 -0.13667267D-03  0.13129058D-03 -0.15949537D-15
 -0.40792939D-14  0.98776110D-04  0.31165895D-14  0.52250218D-03 -0.59504347D-02
  0.28326762D-14  0.41819933D-04  0.58006435D-02 -0.12182445D-13 -0.16093265D-02
  0.12050660D-01  0.65342194D-15 -0.12768088D-14  0.38592958D-04 -0.13546268D-03
 -0.14853043D-14 -0.19416889D-04 -0.22166065D-03  0.53157308D-14 -0.96361985D-04
  0.62804870D-03  0.24438677D-15 -0.49430175D-01 -0.92147803D-01 -0.15574234D+00
 -0.23410979D+00 -0.28756194D+00 -0.24269214D+00 -0.91258581D-01 -0.12009256D-02
 -0.89761749D-02 -0.33546015D-01 -0.93588159D-01 -0.12538233D+00  0.14805315D+00
  0.64285934D-01  0.46001429D-01  0.11062429D-02 -0.41968494D-13 -0.39348131D-13
 -0.28018213D-13 -0.20070413D-01 -0.18817288D-01 -0.13399030D-01 -0.11553081D+00
 -0.10831748D+00 -0.77128499D-01 -0.19005420D-13 -0.51823084D-02 -0.32024467D-01
 -0.45078790D-14 -0.45014555D-03 -0.56500887D-02 -0.89087165D-16  0.11295621D-04
 -0.53104310D-05 -0.17528512D-01  0.14588758D-01  0.29397548D-02  0.11686056D-14
 -0.70893161D-14 -0.62101423D-03 -0.45565258D-02  0.49788026D-02 -0.42227674D-03
  0.20810127D-15 -0.10681593D-13  0.31773075D-03 -0.95138525D-04  0.19907375D-04
  0.75231150D-04  0.66012498D-16 -0.60756213D-15  0.56197039D-04  0.11489875D-14
  0.12750339D-03  0.42341962D-02  0.14420847D-14  0.22198443D-03  0.61526338D-03
 -0.48890472D-14 -0.60449461D-03 -0.13317852D-01 -0.11553733D-14  0.33408109D-15
  0.83903702D-05  0.28622342D-03  0.12819240D-14  0.23674658D-04  0.64287525D-03
 -0.22841673D-14 -0.48845768D-04 -0.15015455D-02  0.81615681D-16  0.23416459D-01
  0.42232548D-01  0.62271867D-01  0.25879299D-01 -0.38823991D-02 -0.10405966D-03
 -0.46601718D-15 -0.17159772D-01  0.81771630D-02 -0.22075564D-14 -0.83022279D-04
 -0.20080443D-02 -0.12630927D-15  0.13081079D-02 -0.52975787D-03 -0.15543319D-02
  0.21131195D-02 -0.55878759D-03  0.11813645D-14 -0.16420693D-14 -0.25811160D-02
  0.26903661D-03 -0.10509448D-03 -0.16394213D-03  0.57000440D-16 -0.78734382D-15
  0.52260130D-03  0.25492305D-01  0.45976422D-01  0.67792207D-01  0.27922531D-01
 -0.43315175D-02 -0.80483143D-04 -0.66484353D-16  0.18552653D-01  0.94255539D-02
 -0.23780431D-14 -0.49762816D-03 -0.19003876D-02  0.12851779D-15 -0.14144930D-02
 -0.49874764D-03 -0.17517328D-02  0.20223172D-02 -0.27058440D-03  0.90782427D-16
 -0.11602425D-14  0.33678414D-02  0.29748030D-03 -0.15781679D-03 -0.13966350D-03
 -0.16263940D-15 -0.67927107D-15 -0.59037197D-03
MO    5     MO 0.0        OCC NO =    1.9654145  ORB. ENERGY =    0.000000
  0.13855833D-02  0.25824994D-02  0.43789907D-02  0.66271368D-02  0.82668307D-02
  0.70941707D-02  0.27166905D-02  0.26982885D-04  0.28950864D-03  0.10671834D-02
  0.31203816D-02  0.37602115D-02 -0.45295733D-02 -0.25958826D-02 -0.23063545D-02
 -0.11846489D-03  0.98257829D-14  0.95277042D-14  0.64273329D-14  0.13253561D+01
  0.12851496D+01  0.86695435D+00 -0.30644082D-01 -0.29714452D-01 -0.20045193D-01
  0.37822482D-14  0.31320787D+00 -0.68871523D-02 -0.68401189D-14  0.50116321D-01
 -0.67259069D-03 -0.90940145D-15  0.15627950D-02 -0.69449509D-05 -0.90406459D-03
 -0.89619622D-03  0.18002608D-02 -0.29074684D-14 -0.22769636D-16 -0.10102915D+00
 -0.17724468D-03 -0.18928108D-03  0.36652577D-03  0.31516977D-15  0.11640952D-14
 -0.28408050D-01  0.16555620D-05 -0.50867429D-05  0.34311809D-05 -0.12894206D-15
  0.43291801D-14 -0.26283842D-02 -0.41445174D-14 -0.12926039D-01 -0.27920395D-03
  0.39806461D-15  0.88461598D-04  0.29782137D-03  0.12035488D-13  0.38689655D-01
  0.53979048D-03 -0.11042954D-14  0.14584173D-14 -0.96638478D-03 -0.85989784D-05
  0.50249858D-15  0.42973560D-03 -0.73194983D-06 -0.48777506D-14  0.24694187D-02
  0.26528885D-04  0.17345403D-15 -0.21846899D-02 -0.40727022D-02 -0.68834215D-02
 -0.10347066D-01 -0.12709518D-01 -0.10726385D-01 -0.40334007D-02 -0.52917914D-04
 -0.39552862D-03 -0.14781808D-02 -0.41238942D-02 -0.55248813D-02  0.65238546D-02
  0.27717691D-02  0.22470560D-02  0.70591080D-04 -0.23787118D-14 -0.22301935D-14
 -0.15880307D-14  0.40723541D+00  0.38180908D+00  0.27187081D+00 -0.43274012D-02
 -0.40572137D-02 -0.28889779D-02  0.93319062D-14  0.10538026D+00 -0.12959195D-02
  0.53956456D-14  0.62471744D-02 -0.25560262D-03  0.25586556D-15 -0.33251456D-03
  0.65362176D-06 -0.75684800D-03  0.44831659D-03  0.30853141D-03  0.11256033D-14
 -0.12091565D-14  0.28484536D-01 -0.20624464D-03  0.16873840D-03  0.37506236D-04
 -0.13523352D-14  0.51994865D-14 -0.38720896D-02 -0.57792863D-05  0.94917665D-05
 -0.37124802D-05 -0.71905253D-16  0.57065590D-15 -0.88970939D-03  0.55724163D-16
 -0.38764615D-02  0.20744970D-03 -0.14159925D-15 -0.54374993D-02  0.52005466D-04
 -0.25573239D-16  0.17066884D-01 -0.67435457D-03  0.20589215D-16 -0.57939479D-15
 -0.37154571D-03  0.12178640D-04  0.83509421D-15 -0.32014295D-03  0.29512882D-04
  0.90309015D-15  0.14347801D-02 -0.66048800D-04  0.68537402D-15  0.19477362D-01
  0.35128224D-01  0.51796546D-01  0.20639922D-01 -0.17158184D-02  0.34351425D-03
  0.33156521D-15 -0.12119774D-01  0.14092248D-01 -0.88411835D-15  0.55216431D-02
  0.17096280D-02 -0.73139447D-15  0.52281476D-03  0.57478772D-03 -0.19306133D-02
 -0.13569245D-02  0.32875378D-02  0.62639220D-15 -0.65825208D-15 -0.84406759D-02
  0.32376777D-03 -0.47276574D-03  0.14899796D-03  0.10696334D-15 -0.78029107D-15
  0.90521629D-03 -0.17579751D-01 -0.31705806D-01 -0.46750192D-01 -0.18474874D-01
  0.11858370D-02 -0.35598845D-03  0.22595853D-14 -0.10958388D-01 -0.13528494D-01
 -0.37569487D-14  0.55229776D-02 -0.19124004D-02 -0.11062212D-14  0.40851491D-03
 -0.67555000D-03  0.18004400D-02  0.14551279D-02 -0.32555679D-02 -0.21316874D-14
 -0.21193443D-14 -0.83613694D-02 -0.30473028D-03  0.46594776D-03 -0.16121747D-03
 -0.78840412D-15 -0.10696512D-14  0.83867016D-03
MO    6     MO 0.0        OCC NO =    1.9601351  ORB. ENERGY =    0.000000
  0.19079321D-02  0.35560718D-02  0.60298194D-02  0.91254905D-02  0.11383330D-01
  0.97685908D-02  0.37408513D-02 -0.33059757D-04 -0.35470949D-03 -0.13075260D-02
 -0.38231293D-02 -0.46070567D-02  0.55496880D-02  0.77832932D-02  0.28816189D-01
  0.63496538D-02  0.12155785D-12  0.11787023D-12  0.79514560D-13  0.21444344D-01
  0.20793800D-01  0.14027375D-01  0.13848940D+01  0.13428813D+01  0.90589982D+00
  0.35728386D-13  0.50095166D-02  0.32031652D+00  0.10930760D-13  0.89441976D-03
  0.38272956D-01  0.51363991D-15  0.34252802D-04  0.15796740D-03  0.42028176D-01
  0.43851622D-01 -0.85879797D-01 -0.18334665D-14  0.37285415D-14 -0.17814491D-03
  0.10453137D-01  0.11810118D-01 -0.22263254D-01  0.91996393D-15 -0.12613481D-13
 -0.49541368D-04  0.27327581D-03  0.51029574D-03 -0.78357155D-03  0.72506192D-17
 -0.34170824D-14 -0.17011822D-04  0.10381566D-15 -0.63724331D-04  0.15697626D-01
 -0.13875246D-14  0.18134751D-03 -0.15974881D-01  0.10760776D-14  0.98254834D-05
 -0.31117998D-01 -0.12843796D-14 -0.12845972D-14 -0.74736487D-05  0.20162001D-02
 -0.13013403D-14 -0.13795703D-04 -0.24853803D-02  0.51551319D-14  0.36216649D-04
 -0.35632199D-02 -0.57034062D-16  0.53481052D-02  0.99699455D-02  0.16850566D-01
  0.25329544D-01  0.31112808D-01  0.26258112D-01  0.98737359D-02  0.92232424D-04
  0.68938023D-03  0.25763713D-02  0.71876748D-02  0.96295026D-02 -0.11370647D-01
 -0.64264022D-02  0.16300530D-01  0.17039993D-04  0.43601636D-13  0.40879305D-13
  0.29108500D-13 -0.61773834D-02 -0.57916896D-02 -0.41240280D-02 -0.52310547D+00
 -0.49044463D+00 -0.34922579D+00  0.37313826D-14 -0.16505734D-02 -0.10869988D+00
 -0.12670390D-14 -0.40061960D-03 -0.86462894D-02 -0.41962866D-16 -0.10898145D-04
 -0.41482241D-04  0.84139444D-02  0.28643491D-01 -0.37057435D-01 -0.25179644D-14
  0.36840685D-14  0.17842584D-02  0.20973280D-03  0.25108898D-02 -0.27206226D-02
  0.24182491D-14 -0.59498336D-14  0.49620199D-03 -0.15480493D-03  0.13987733D-03
  0.14927602D-04  0.24086628D-15 -0.46387755D-15  0.51038394D-04  0.10102543D-14
 -0.97916191D-04 -0.58802688D-02  0.14074613D-14  0.52536061D-04  0.64411242D-02
 -0.44382243D-14  0.24121251D-03  0.11199682D-01  0.17488877D-14  0.28064952D-15
 -0.21849678D-04  0.76969293D-03  0.18668762D-15  0.78473947D-05 -0.19413109D-03
 -0.10286362D-14  0.57701639D-04 -0.21149477D-02 -0.51104231D-15  0.17619587D-01
  0.31777651D-01  0.46856128D-01  0.29924806D-01  0.83819522D-03  0.21867408D-04
  0.15308160D-14 -0.17120140D-01  0.33893576D-02 -0.21367871D-14 -0.57742172D-02
  0.83379065D-03 -0.46284728D-15  0.27768084D-03 -0.23655490D-03 -0.14693296D-02
  0.52158361D-02 -0.37465065D-02 -0.38656373D-15 -0.79358042D-15 -0.45066603D-02
 -0.55261112D-03  0.11958803D-04  0.54065232D-03  0.76418657D-15 -0.33170257D-15
  0.43925632D-04  0.18706517D-01  0.33737973D-01  0.49746621D-01  0.31433964D-01
  0.51059615D-03  0.98481718D-07  0.12377973D-15  0.17702502D-01  0.33938415D-02
  0.26243644D-14  0.56886423D-02  0.60271876D-03  0.59986695D-15 -0.38043809D-03
 -0.28297507D-03 -0.13848614D-02  0.53866117D-02 -0.40017503D-02  0.22868360D-14
  0.44029916D-15  0.41020123D-02 -0.55498112D-03  0.34946838D-05  0.55148643D-03
  0.55838352D-15  0.41500216D-15 -0.48848877D-04
MO    7     MO 0.0        OCC NO =    1.9568637  ORB. ENERGY =    0.000000
 -0.12498046D-03 -0.23294303D-03 -0.39498764D-03 -0.59777180D-03 -0.74567320D-03
 -0.63989854D-03 -0.24504715D-03 -0.14512376D-05 -0.15570827D-04 -0.57397000D-04
 -0.16782546D-03 -0.20223784D-03  0.24361691D-03  0.65490331D-04 -0.27723574D-03
 -0.31401978D-04 -0.37606737D-14 -0.36465884D-14 -0.24599670D-14  0.11814304D+01
  0.11455900D+01  0.77280827D+00 -0.17283336D-01 -0.16759022D-01 -0.11305537D-01
 -0.29350191D-14  0.27897115D+00 -0.40327806D-02 -0.12290256D-14  0.50434044D-01
 -0.45445827D-03 -0.73650594D-15  0.17122747D-02 -0.28368435D-05 -0.60105274D-03
 -0.53447124D-03  0.11355240D-02  0.66175369D-14  0.10687310D-14 -0.12005134D-01
 -0.14149958D-03 -0.16945593D-03  0.31095551D-03 -0.38782701D-15  0.23164711D-16
 -0.30637237D-02 -0.82186295D-06 -0.99447841D-05  0.10766647D-04  0.11558493D-15
  0.72883628D-15 -0.67984227D-03  0.21380073D-15 -0.42487436D-02 -0.21541998D-03
 -0.65897787D-15  0.88463769D-02  0.23653691D-03  0.17575681D-16  0.38998539D-02
  0.40972302D-03 -0.19204222D-14 -0.41359725D-16 -0.31357826D-03 -0.34147278D-04
 -0.16312215D-17 -0.35945279D-03  0.35465512D-04  0.12571040D-15  0.13001876D-02
  0.66976321D-04  0.52548411D-15  0.15549252D-03  0.28986937D-03  0.48991873D-03
  0.73643923D-03  0.90458369D-03  0.76343673D-03  0.28707215D-03  0.41503811D-05
  0.31021527D-04  0.11593453D-03  0.32343929D-03  0.43331947D-03 -0.51166950D-03
 -0.15071861D-03 -0.11591880D-03 -0.50371612D-06 -0.24435869D-14 -0.22910180D-14
 -0.16313413D-14 -0.36045104D+00 -0.33794576D+00 -0.24063751D+00  0.89378935D-02
  0.83798433D-02  0.59669476D-02 -0.39504674D-16 -0.98961345D-01  0.19289009D-02
  0.16761747D-14 -0.25866461D-01  0.18814373D-03  0.23680519D-15 -0.51091774D-03
  0.11135498D-05 -0.43930342D-04 -0.19802893D-03  0.24195928D-03 -0.11684075D-14
  0.58374714D-16  0.11079622D+00  0.94567145D-06  0.31566457D-04 -0.32512128D-04
  0.29825121D-14 -0.23063009D-15  0.31852518D-01  0.35359985D-05  0.14345444D-04
 -0.17881442D-04  0.25123699D-15  0.38361167D-15  0.34101058D-02 -0.42011462D-16
 -0.37096546D-02  0.49727893D-04  0.74532396D-15  0.27362965D-02 -0.12436790D-03
 -0.61928957D-15  0.83926674D-02 -0.24815777D-04 -0.11163378D-15 -0.10077693D-15
 -0.59780543D-03 -0.92799907D-05 -0.12718611D-15  0.81123999D-03 -0.24406219D-05
  0.42951689D-15  0.98217629D-03  0.30280594D-04 -0.98302350D-15 -0.34943702D-01
 -0.63022406D-01 -0.92926501D-01 -0.52913914D-01  0.10725057D-01  0.44182462D-03
  0.12033005D-14  0.15287171D-01 -0.10607935D-01 -0.29463531D-14 -0.31196887D-02
  0.20305083D-02 -0.92178991D-15 -0.35201826D-02  0.16692584D-02  0.72869531D-03
 -0.16512374D-02  0.92254211D-03  0.18878230D-14 -0.18160916D-15  0.31707439D-02
  0.93366340D-05  0.35545965D-03 -0.36479629D-03  0.11916580D-14 -0.81619986D-15
  0.45040703D-04  0.34165595D-01  0.61619057D-01  0.90857264D-01  0.51142664D-01
 -0.11150413D-01 -0.44616038D-03 -0.24293590D-14  0.14745953D-01  0.10297964D-01
  0.26974124D-14 -0.34151479D-02 -0.20612980D-02  0.26258991D-15 -0.35211900D-02
 -0.16657617D-02 -0.62574479D-03  0.14592560D-02 -0.83351120D-03  0.10024945D-14
  0.99483335D-15  0.29048151D-02 -0.44205722D-05 -0.35599135D-03  0.36041192D-03
  0.47888180D-15  0.34388134D-15  0.62462118D-04
MO    8     MO 0.0        OCC NO =    1.9226238  ORB. ENERGY =    0.000000
  0.11632388D-15  0.21680859D-15  0.36762943D-15  0.55636805D-15  0.69402528D-15
  0.59557695D-15  0.22807433D-15  0.25865017D-15  0.27751466D-14  0.10229713D-13
  0.29911080D-13  0.36044306D-13 -0.43419186D-13 -0.12917994D-13 -0.51446805D-13
 -0.15295228D-13  0.13789906D+01  0.13371571D+01  0.90203825D+00 -0.16037092D-13
 -0.15550584D-13 -0.10490332D-13 -0.23280213D-12 -0.22573976D-12 -0.15228271D-12
  0.33236244D+00 -0.52406121D-14 -0.15725271D-13  0.48473741D-01 -0.56756013D-13
  0.24310853D-14  0.88581907D-03 -0.39982089D-14  0.10563657D-14 -0.38447079D-14
  0.52957115D-16  0.37917508D-14  0.21355137D-04 -0.12441761D+00 -0.25734399D-13
  0.32959002D-14  0.31480523D-14 -0.64439525D-14  0.51671209D-05 -0.37382955D-01
  0.21421389D-13 -0.66361077D-15 -0.95617810D-15  0.16197889D-14 -0.19309496D-05
 -0.23659025D-02  0.20333502D-13 -0.61173481D-02 -0.89793909D-14  0.88921217D-14
 -0.22234096D-01 -0.18182629D-14 -0.13904455D-13  0.40586141D-01  0.28756436D-13
 -0.12771910D-13 -0.45690463D-04 -0.36302077D-03  0.31754064D-14 -0.15609251D-14
 -0.15463236D-02 -0.47484317D-16  0.27113618D-14  0.26353859D-02 -0.94787349D-14
  0.19714134D-14 -0.49650315D-05  0.57063101D-14  0.10637712D-13  0.17979182D-13
  0.27026064D-13  0.33196678D-13  0.28016825D-13  0.10535058D-13 -0.67183442D-16
 -0.50215461D-15 -0.18766664D-14 -0.52356071D-14 -0.70142700D-14  0.82825450D-14
 -0.41007396D-14 -0.10535400D-13 -0.15887259D-14  0.41548225D+00  0.38954102D+00
  0.27737641D+00  0.12993825D-13  0.12182537D-13  0.86746918D-14  0.20712525D-13
  0.19419308D-13  0.13827704D-13  0.10667871D+00 -0.93564380D-13  0.36763738D-13
  0.12624502D-01  0.15587332D-13  0.22206578D-13  0.39317974D-04  0.13311655D-14