 h2co-wavefunction
GAUSSIAN            138 MOL ORBITALS    198 PRIMITIVES        4 NUCLEI
  O    1    (CENTRE  1)   0.00000000  0.00000000  1.28360026  CHARGE =  8.0
  C    2    (CENTRE  2)   0.00000000  0.00000000 -0.99571749  CHARGE =  6.0
  H    3    (CENTRE  3)   0.00000000  1.76994395 -2.09120873  CHARGE =  1.0
  H    4    (CENTRE  4)  -0.01889726 -1.76994395 -2.09120873  CHARGE =  1.0
CENTRE ASSIGNMENTS    1  1  1  1  1  1  1  1  1  1  1  1  1  1  1  1  1  1  1  1
CENTRE ASSIGNMENTS    1  1  1  1  1  1  1  1  1  1  1  1  1  1  1  1  1  1  1  1
CENTRE ASSIGNMENTS    1  1  1  1  1  1  1  1  1  1  1  1  1  1  1  1  1  1  1  1
CENTRE ASSIGNMENTS    1  1  1  1  1  1  1  1  1  1  1  1  2  2  2  2  2  2  2  2
CENTRE ASSIGNMENTS    2  2  2  2  2  2  2  2  2  2  2  2  2  2  2  2  2  2  2  2
CENTRE ASSIGNMENTS    2  2  2  2  2  2  2  2  2  2  2  2  2  2  2  2  2  2  2  2
CENTRE ASSIGNMENTS    2  2  2  2  2  2  2  2  2  2  2  2  2  2  2  2  2  2  2  2
CENTRE ASSIGNMENTS    2  2  2  2  3  3  3  3  3  3  3  3  3  3  3  3  3  3  3  3
CENTRE ASSIGNMENTS    3  3  3  3  3  3  3  3  3  3  3  4  4  4  4  4  4  4  4  4
CENTRE ASSIGNMENTS    4  4  4  4  4  4  4  4  4  4  4  4  4  4  4  4  4  4
TYPE ASSIGNMENTS      1  1  1  1  1  1  1  1  1  1  1  1  1  1  1  1  2  2  2  3
TYPE ASSIGNMENTS      3  3  4  4  4  2  3  4  2  3  4  2  3  4  5  6  7  8  9 10
TYPE ASSIGNMENTS      5  6  7  8  9 10  5  6  7  8  9 10 11 12 13 17 14 15 18 19
TYPE ASSIGNMENTS     16 20 11 12 13 17 14 15 18 19 16 20  1  1  1  1  1  1  1  1
TYPE ASSIGNMENTS      1  1  1  1  1  1  1  1  2  2  2  3  3  3  4  4  4  2  3  4
TYPE ASSIGNMENTS      2  3  4  2  3  4  5  6  7  8  9 10  5  6  7  8  9 10  5  6
TYPE ASSIGNMENTS      7  8  9 10 11 12 13 17 14 15 18 19 16 20 11 12 13 17 14 15
TYPE ASSIGNMENTS     18 19 16 20  1  1  1  1  1  1  2  3  4  2  3  4  2  3  4  5
TYPE ASSIGNMENTS      6  7  8  9 10  5  6  7  8  9 10  1  1  1  1  1  1  2  3  4
TYPE ASSIGNMENTS      2  3  4  2  3  4  5  6  7  8  9 10  5  6  7  8  9 10
EXPONENTS  0.1533000D+05 0.2299000D+04 0.5224000D+03 0.1473000D+03 0.4755000D+02
EXPONENTS  0.1676000D+02 0.6207000D+01 0.5224000D+03 0.1473000D+03 0.4755000D+02
EXPONENTS  0.1676000D+02 0.6207000D+01 0.6882000D+00 0.1752000D+01 0.2384000D+00
EXPONENTS  0.7376000D-01 0.3446000D+02 0.7749000D+01 0.2280000D+01 0.3446000D+02
EXPONENTS  0.7749000D+01 0.2280000D+01 0.3446000D+02 0.7749000D+01 0.2280000D+01
EXPONENTS  0.7156000D+00 0.7156000D+00 0.7156000D+00 0.2140000D+00 0.2140000D+00
EXPONENTS  0.2140000D+00 0.5974000D-01 0.5974000D-01 0.5974000D-01 0.2314000D+01
EXPONENTS  0.2314000D+01 0.2314000D+01 0.2314000D+01 0.2314000D+01 0.2314000D+01
EXPONENTS  0.6450000D+00 0.6450000D+00 0.6450000D+00 0.6450000D+00 0.6450000D+00
EXPONENTS  0.6450000D+00 0.2140000D+00 0.2140000D+00 0.2140000D+00 0.2140000D+00
EXPONENTS  0.2140000D+00 0.2140000D+00 0.1428000D+01 0.1428000D+01 0.1428000D+01
EXPONENTS  0.1428000D+01 0.1428000D+01 0.1428000D+01 0.1428000D+01 0.1428000D+01
EXPONENTS  0.1428000D+01 0.1428000D+01 0.5000000D+00 0.5000000D+00 0.5000000D+00
EXPONENTS  0.5000000D+00 0.5000000D+00 0.5000000D+00 0.5000000D+00 0.5000000D+00
EXPONENTS  0.5000000D+00 0.5000000D+00 0.8236000D+04 0.1235000D+04 0.2808000D+03
EXPONENTS  0.7927000D+02 0.2559000D+02 0.8997000D+01 0.3319000D+01 0.2808000D+03
EXPONENTS  0.7927000D+02 0.2559000D+02 0.8997000D+01 0.3319000D+01 0.3643000D+00
EXPONENTS  0.9059000D+00 0.1285000D+00 0.4402000D-01 0.1871000D+02 0.4133000D+01
EXPONENTS  0.1200000D+01 0.1871000D+02 0.4133000D+01 0.1200000D+01 0.1871000D+02
EXPONENTS  0.4133000D+01 0.1200000D+01 0.3827000D+00 0.3827000D+00 0.3827000D+00
EXPONENTS  0.1209000D+00 0.1209000D+00 0.1209000D+00 0.3569000D-01 0.3569000D-01
EXPONENTS  0.3569000D-01 0.1097000D+01 0.1097000D+01 0.1097000D+01 0.1097000D+01
EXPONENTS  0.1097000D+01 0.1097000D+01 0.3180000D+00 0.3180000D+00 0.3180000D+00
EXPONENTS  0.3180000D+00 0.3180000D+00 0.3180000D+00 0.1000000D+00 0.1000000D+00
EXPONENTS  0.1000000D+00 0.1000000D+00 0.1000000D+00 0.1000000D+00 0.7610000D+00
EXPONENTS  0.7610000D+00 0.7610000D+00 0.7610000D+00 0.7610000D+00 0.7610000D+00
EXPONENTS  0.7610000D+00 0.7610000D+00 0.7610000D+00 0.7610000D+00 0.2680000D+00
EXPONENTS  0.2680000D+00 0.2680000D+00 0.2680000D+00 0.2680000D+00 0.2680000D+00
EXPONENTS  0.2680000D+00 0.2680000D+00 0.2680000D+00 0.2680000D+00 0.3387000D+02
EXPONENTS  0.5095000D+01 0.1159000D+01 0.3258000D+00 0.1027000D+00 0.2526000D-01
EXPONENTS  0.1407000D+01 0.1407000D+01 0.1407000D+01 0.3880000D+00 0.3880000D+00
EXPONENTS  0.3880000D+00 0.1020000D+00 0.1020000D+00 0.1020000D+00 0.1057000D+01
EXPONENTS  0.1057000D+01 0.1057000D+01 0.1057000D+01 0.1057000D+01 0.1057000D+01
EXPONENTS  0.2470000D+00 0.2470000D+00 0.2470000D+00 0.2470000D+00 0.2470000D+00
EXPONENTS  0.2470000D+00 0.3387000D+02 0.5095000D+01 0.1159000D+01 0.3258000D+00
EXPONENTS  0.1027000D+00 0.2526000D-01 0.1407000D+01 0.1407000D+01 0.1407000D+01
EXPONENTS  0.3880000D+00 0.3880000D+00 0.3880000D+00 0.1020000D+00 0.1020000D+00
EXPONENTS  0.1020000D+00 0.1057000D+01 0.1057000D+01 0.1057000D+01 0.1057000D+01
EXPONENTS  0.1057000D+01 0.1057000D+01 0.2470000D+00 0.2470000D+00 0.2470000D+00
EXPONENTS  0.2470000D+00 0.2470000D+00 0.2470000D+00
MO    1     MO 0.0        OCC NO =    2.0000076  ORB. ENERGY =    0.000000
 -0.26737128D+00 -0.49833611D+00 -0.84499890D+00 -0.12788160D+01 -0.15952221D+01
 -0.13689379D+01 -0.52423050D+00 -0.36273825D-04 -0.38919433D-03 -0.14346436D-02
 -0.41948137D-02 -0.50549545D-02  0.60892284D-02 -0.23745051D-01  0.68488065D-03
  0.15382186D-04 -0.11628293D-04 -0.11275533D-04 -0.76064078D-05  0.79463658D-07
  0.77053018D-07  0.51979511D-07  0.14654250D-01  0.14209693D-01  0.95857750D-02
  0.48797211D-06  0.12230947D-07  0.18801694D-02  0.23455551D-05  0.83371400D-08
  0.63459435D-03  0.86562694D-07  0.30731664D-09  0.80124149D-05  0.92701857D-03
  0.11195532D-03 -0.10389739D-02 -0.87023466D-05  0.34434815D-05 -0.31492766D-08
  0.23037996D-03  0.11955875D-03 -0.34993871D-03 -0.11832387D-05 -0.39568415D-05
  0.39810187D-07  0.63072041D-04  0.10875280D-04 -0.73947321D-04 -0.55735348D-06
 -0.95279841D-06 -0.32756586D-09  0.20953680D-06  0.10029762D-08 -0.10818779D-03
  0.12424162D-05 -0.12103854D-08  0.45197004D-03 -0.18710266D-05 -0.17985431D-08
 -0.12740668D-03 -0.61858008D-05 -0.30605453D-06  0.22657580D-08  0.10473958D-03
 -0.32873526D-06  0.93611209D-08 -0.17047685D-03  0.12468988D-05 -0.16158395D-07
 -0.14374190D-03  0.28556075D-06  0.27691934D+00  0.51623345D+00  0.87250486D+00
  0.13115375D+01  0.16109889D+01  0.13596178D+01  0.51125181D+00  0.32323238D-04
  0.24159617D-03  0.90290007D-03  0.25189506D-02  0.33746993D-02 -0.39848907D-02
  0.22749307D-01  0.53778774D-03  0.12371565D-03  0.19104549D-04  0.17911729D-04
  0.12754218D-04 -0.36180291D-06 -0.33921323D-06 -0.24154003D-06  0.20481224D-02
  0.19202449D-02  0.13673288D-02 -0.68393959D-05  0.19144827D-06  0.25320282D-03
 -0.13396728D-05  0.14222752D-07 -0.10224339D-03 -0.42175559D-07  0.18842155D-09
 -0.34831570D-05 -0.12228775D-02  0.23796605D-03  0.98491144D-03  0.15595743D-04
  0.77654302D-05 -0.21467510D-06  0.14491737D-03  0.20256036D-04 -0.16517341D-03
 -0.13317570D-05 -0.17797509D-05 -0.39855757D-07 -0.58752369D-05  0.19126609D-04
 -0.13251372D-04  0.26697405D-06 -0.26311618D-06  0.13909727D-08  0.33375721D-05
  0.35038557D-07  0.55126569D-03 -0.76437365D-05 -0.18246435D-06 -0.50466830D-04
 -0.23689797D-05  0.77348677D-07 -0.16033302D-02 -0.16578109D-04  0.24901618D-06
  0.45851966D-08 -0.11434218D-03  0.25922134D-06 -0.48187496D-08  0.43760487D-04
 -0.10062699D-05 -0.89368401D-08  0.29926604D-03  0.27281822D-05 -0.27403489D-03
 -0.49423320D-03 -0.72874657D-03 -0.22112603D-03 -0.45269488D-03 -0.11973218D-04
 -0.13922490D-05  0.77447947D-03 -0.52420118D-03  0.37506658D-05  0.21979250D-03
 -0.81815428D-04 -0.30522671D-06  0.41320530D-04 -0.56738922D-04  0.22056064D-03
 -0.35214479D-03  0.13158415D-03 -0.15128525D-05  0.18107033D-05  0.87903747D-03
  0.47012620D-04 -0.12874879D-04 -0.34137741D-04 -0.72372590D-06 -0.15932533D-06
 -0.26349114D-04 -0.27397908D-03 -0.49413256D-03 -0.72859817D-03 -0.22084682D-03
 -0.45261183D-03 -0.11970687D-04 -0.96593067D-05 -0.77431994D-03 -0.52410656D-03
  0.14051258D-05 -0.21964403D-03 -0.81674530D-04 -0.74614433D-06 -0.41301179D-04
 -0.56724573D-04  0.22052409D-03 -0.35212725D-03  0.13160315D-03 -0.10716287D-04
 -0.75736918D-05 -0.87895218D-03  0.46999563D-04 -0.12866092D-04 -0.34133471D-04
 -0.55475746D-06  0.12233555D-06  0.26372382D-04
MO    2     MO 0.0        OCC NO =    2.0000041  ORB. ENERGY =    0.000000
  0.42242419D+00  0.78732924D+00  0.13350274D+01  0.20204220D+01  0.25203171D+01
  0.21628071D+01  0.82824021D+00  0.49614264D-04  0.53232849D-03  0.19622630D-02
  0.57375420D-02  0.69140172D-02 -0.83286663D-02  0.38592390D-01 -0.65416864D-03
 -0.80075758D-04 -0.55075044D-05 -0.53404266D-05 -0.36026202D-05  0.14080968D-06
  0.13653803D-06  0.92107747D-07 -0.10979097D-01 -0.10646031D-01 -0.71817496D-02
 -0.14690764D-05  0.31398689D-07  0.14480419D-02  0.31163208D-05 -0.71279091D-09
  0.10563834D-03  0.11297564D-06 -0.71094861D-09  0.19496122D-05 -0.99450736D-03
 -0.60229314D-04  0.10547367D-02  0.99751222D-05  0.68757167D-05 -0.33779918D-07
  0.34853358D-03  0.53679617D-03 -0.88532975D-03  0.20100812D-05 -0.21427247D-05
  0.19591080D-07  0.34119820D-04 -0.62100300D-06 -0.33498817D-04 -0.37095628D-06
 -0.12228524D-05  0.33576536D-08 -0.71701527D-07 -0.13929034D-07  0.11039278D-03
  0.28906459D-05  0.25671921D-07 -0.23993199D-03 -0.26755413D-05  0.16115182D-07
 -0.91246353D-04  0.15875082D-05 -0.16799315D-07  0.49898116D-08  0.12863695D-03
 -0.86007272D-06 -0.48446960D-08 -0.16764447D-03  0.91047066D-06 -0.10124739D-07
 -0.21826638D-03 -0.54042715D-06  0.17516843D+00  0.32654925D+00  0.55191272D+00
  0.82962775D+00  0.10190491D+01  0.86004149D+00  0.32339806D+00  0.17391800D-04
  0.12999293D-03  0.48581325D-03  0.13553433D-02  0.18157864D-02 -0.21441051D-02
  0.14455143D-01  0.50691115D-03  0.93228775D-04  0.10993096D-04  0.10306727D-04
  0.73390034D-05 -0.21561883D-06 -0.20215636D-06 -0.14394737D-06  0.11518666D-02
  0.10799482D-02  0.76898742D-03 -0.12558742D-05  0.59744033D-07  0.16066310D-02
 -0.11338718D-05 -0.19580760D-09 -0.11212306D-04 -0.34599993D-07  0.46343309D-09
  0.51701863D-06 -0.10272222D-02 -0.30902514D-03  0.13362473D-02  0.76673107D-05
  0.36646676D-05 -0.10111937D-06  0.16431006D-04 -0.25916313D-03  0.24273212D-03
 -0.29427462D-05 -0.31536405D-05  0.81850053D-08 -0.18657245D-05  0.42012629D-04
 -0.40146904D-04  0.46850942D-06 -0.40681717D-06  0.39957812D-08  0.11452874D-05
  0.19519451D-07  0.34839869D-03 -0.34176539D-05 -0.83943558D-07 -0.22804796D-03
 -0.18208424D-07  0.25385204D-07 -0.81714811D-03 -0.62889978D-05 -0.10111060D-07
 -0.31294702D-08 -0.89098632D-05  0.12900877D-05  0.13600774D-07 -0.38656191D-04
 -0.12597545D-05 -0.42123638D-08  0.65385781D-04  0.11109004D-05 -0.14696709D-03
 -0.26506119D-03 -0.39083257D-03  0.11440333D-03 -0.34909792D-03 -0.74593806D-05
 -0.15933936D-06  0.34602259D-03 -0.21887573D-03  0.67246126D-06 -0.74320998D-04
  0.13090796D-03 -0.54568647D-06 -0.99671086D-05 -0.83305051D-04  0.12341390D-03
 -0.13458757D-03  0.11173666D-04  0.60099629D-07  0.77596933D-06  0.41393042D-03
  0.22911155D-05  0.26035131D-05 -0.48946285D-05 -0.66167051D-06 -0.59573184D-06
 -0.57929851D-05 -0.14693712D-03 -0.26500714D-03 -0.39075288D-03  0.11449373D-03
 -0.34909222D-03 -0.74569373D-05 -0.38526901D-05 -0.34594640D-03 -0.21883293D-03
  0.14662528D-05  0.74376396D-04  0.13097987D-03 -0.43921874D-06  0.99687667D-05
 -0.83293847D-04  0.12338390D-03 -0.13457257D-03  0.11188679D-04 -0.55689504D-05
 -0.36428279D-05 -0.41387918D-03  0.22915148D-05  0.25999776D-05 -0.48914925D-05
  0.66825003D-06 -0.53357568D-06  0.58172176D-05
MO    3     MO 0.0        OCC NO =    1.9805522  ORB. ENERGY =    0.000000
 -0.96678081D-01 -0.18019205D+00 -0.30554094D+00 -0.46240372D+00 -0.57681219D+00
 -0.49499067D+00 -0.18955513D+00 -0.16853231D-02 -0.18082411D-01 -0.66655173D-01
 -0.19489582D+00 -0.23485894D+00  0.28291248D+00  0.14940128D+00  0.75511287D-01
  0.44172021D-02 -0.28116955D-03 -0.27263988D-03 -0.18392126D-03  0.20191213D-05
  0.19578684D-05  0.13207665D-05 -0.19671437D-02 -0.19074677D-02 -0.12867664D-02
 -0.78402621D-04  0.47301577D-06 -0.80315608D-02 -0.77049959D-05  0.56618822D-07
  0.80817356D-02  0.35133644D-06  0.74804213D-08  0.89939091D-04 -0.14825248D-01
 -0.15849569D-01  0.30674817D-01 -0.10936133D-04  0.60743669D-04 -0.80359537D-06
 -0.42669498D-02 -0.51235667D-02  0.93905165D-02 -0.91465299D-05  0.69667933D-05
 -0.34607106D-07  0.46278776D-03  0.51063682D-03 -0.97342457D-03  0.51062753D-06
  0.25430871D-05 -0.46280736D-07  0.65915517D-05  0.35194926D-08 -0.89173171D-02
  0.75431180D-07 -0.11753719D-06  0.14289579D-01 -0.19850086D-04  0.10697871D-06
  0.12462372D-01 -0.19509202D-04 -0.30925052D-05 -0.18145197D-07 -0.35958398D-03
  0.43002934D-05  0.10754782D-06  0.23436646D-04  0.49772223D-05 -0.53112227D-07
  0.10553153D-02  0.11017745D-04 -0.28163151D-01 -0.52501786D-01 -0.88735171D-01
 -0.13338551D+00 -0.16384021D+00 -0.13827536D+00 -0.51995146D-01 -0.59174429D-03
 -0.44229219D-02 -0.16529469D-01 -0.46114645D-01 -0.61780911D-01  0.72951736D-01
  0.30047695D-01  0.19105289D-01  0.40775278D-03 -0.29426341D-03 -0.27589065D-03
 -0.19645058D-03  0.67428713D-05  0.63218705D-05  0.45015484D-05  0.10589052D+00
  0.99279090D-01  0.70692626D-01 -0.14020038D-03  0.35902880D-05  0.65691226D-02
 -0.20744281D-04  0.60256998D-06 -0.40016014D-02 -0.91494668D-07  0.15237540D-09
 -0.55086853D-04 -0.18335863D-01 -0.79391517D-02  0.26275015D-01  0.11099244D-03
  0.66649657D-04 -0.19224044D-05 -0.31355191D-02  0.25236650D-02  0.61185405D-03
  0.60415428D-04  0.30290152D-04 -0.10357018D-05  0.16105535D-04  0.49167829D-03
 -0.50778383D-03  0.50774076D-05 -0.23279983D-05 -0.26362050D-07  0.24222743D-04
  0.17222368D-06  0.43567438D-02 -0.54763004D-04 -0.10809929D-05 -0.95100980D-03
 -0.17905226D-04  0.56432186D-06 -0.12119222D-01 -0.11923662D-03  0.21964631D-05
  0.51589624D-07 -0.31722707D-04 -0.10902284D-04 -0.18983663D-06  0.44137367D-03
  0.43128941D-05  0.35067759D-07 -0.34620555D-03 -0.84067384D-05  0.64720183D-02
  0.11672551D-01  0.17211170D-01 -0.13825318D-04 -0.58613757D-02 -0.79660690D-04
 -0.43535788D-05 -0.27830096D-02  0.22527042D-02 -0.48782779D-05  0.41872616D-02
 -0.40839209D-02 -0.63544076D-05  0.55931253D-03 -0.14799641D-02  0.53308446D-03
 -0.10808701D-02  0.54778566D-03  0.34917557D-05  0.54842036D-05  0.20690390D-02
  0.34614285D-03 -0.79703849D-04 -0.26643900D-03  0.33467981D-05 -0.40715364D-06
  0.94668713D-03  0.64710965D-02  0.11670889D-01  0.17208719D-01 -0.11961276D-04
 -0.58598295D-02 -0.79644393D-04  0.25355222D-04  0.27825197D-02  0.22522245D-02
 -0.49568553D-04 -0.41855163D-02 -0.40829426D-02 -0.12323186D-04 -0.55903164D-03
 -0.14797454D-02  0.53289049D-03 -0.10804941D-02  0.54760362D-03 -0.37946963D-04
 -0.16605472D-04 -0.20688106D-02  0.34598572D-03 -0.79565543D-04 -0.26642018D-03
 -0.12436065D-04 -0.10512814D-04 -0.94648007D-03
MO    4     MO 0.0        OCC NO =    1.9668845  ORB. ENERGY =    0.000000
  0.36138713D-01  0.67356620D-01  0.11421261D+00  0.17284865D+00  0.21561506D+00
  0.18502980D+00  0.70856584D-01  0.69153481D-03  0.74197147D-02  0.27350465D-01
  0.79971157D-01  0.96369132D-01 -0.11608683D+00 -0.65931817D-01 -0.54266826D-01
 -0.31083867D-02 -0.23013910D-02 -0.22315751D-02 -0.15054074D-02  0.33425697D-03
  0.32411682D-03  0.21864729D-03 -0.67831100D+00 -0.65773350D+00 -0.44370313D+00
 -0.56040758D-03  0.79057292D-04 -0.15219145D+00 -0.89268902D-04  0.12294845D-04
 -0.15796493D-01 -0.21443825D-05  0.39095546D-06 -0.10786839D-03 -0.19553516D-01
 -0.19332351D-01  0.38885867D-01  0.23633748D-05  0.26323123D-03 -0.29988065D-04
 -0.35697510D-02 -0.40098668D-02  0.75796178D-02 -0.47028248D-05  0.79319164D-04
 -0.84267999D-05  0.23141922D-06 -0.13822951D-03  0.13799809D-03 -0.14822479D-05
  0.85935973D-05 -0.74721626D-06  0.21290510D-04 -0.36228079D-05 -0.60199504D-02
  0.21212313D-04 -0.56933301D-06  0.58924787D-02 -0.85083842D-04  0.11437757D-04
  0.12167372D-01  0.66982028D-04 -0.36138697D-05 -0.32647118D-06 -0.14471247D-03
  0.11172784D-04  0.31672220D-06 -0.20126581D-03 -0.33117511D-06  0.66269134D-06
  0.63540323D-03  0.89391057D-05 -0.49526440D-01 -0.92327261D-01 -0.15604565D+00
 -0.23456572D+00 -0.28812197D+00 -0.24316478D+00 -0.91436306D-01 -0.12030800D-02
 -0.89922776D-02 -0.33606195D-01 -0.93756050D-01 -0.12560726D+00  0.14831875D+00
  0.64388487D-01  0.45907162D-01  0.11155434D-02 -0.14692211D-02 -0.13774882D-02
 -0.98085363D-03  0.14915124D-03  0.13983877D-03  0.99573535D-04 -0.11359693D+00
 -0.10650435D+00 -0.75837439D-01 -0.38995898D-03  0.38891921D-04 -0.31727903D-01
 -0.46806738D-04  0.37798929D-05 -0.56227179D-02 -0.18509377D-07 -0.72843603D-07
 -0.49161454D-05 -0.17576691D-01  0.14286463D-01  0.32902277D-02  0.34010577D-03
  0.84211894D-04 -0.30976844D-07 -0.45564155D-02  0.49124123D-02 -0.35599684D-03
  0.10106253D-03  0.40808613D-04 -0.36185421D-05 -0.96004993D-04  0.14019378D-04
  0.81985614D-04  0.11756505D-05  0.38766880D-05 -0.47836655D-06  0.36270145D-04
 -0.73669483D-06  0.42746532D-02 -0.64382428D-04 -0.27644639D-05  0.63377385D-03
 -0.44428009D-04  0.49745484D-05 -0.13457734D-01 -0.15042636D-03  0.32309643D-05
 -0.61315778D-08  0.28225747D-03 -0.16675881D-04 -0.42057562D-06  0.64609629D-03
  0.69829882D-05  0.43897035D-06 -0.14928687D-02 -0.22821836D-04  0.24366311D-01
  0.43945645D-01  0.64797828D-01  0.26906315D-01 -0.40457271D-02 -0.92576257D-04
 -0.27699020D-04 -0.17700352D-01  0.88109326D-02 -0.13375831D-04  0.20692745D-03
 -0.19443550D-02  0.24913200D-05  0.13562196D-02 -0.50716293D-03 -0.16318580D-02
  0.20341999D-02 -0.40234197D-03  0.17502477D-04 -0.90789930D-05 -0.29362403D-02
  0.28818116D-03 -0.13107767D-03 -0.15710349D-03  0.42852849D-05  0.44219702D-05
  0.55750371D-03  0.24350441D-01  0.43917023D-01  0.64755624D-01  0.26890989D-01
 -0.40414700D-02 -0.92728404D-04  0.16115621D-03  0.17689855D-01  0.88005959D-02
 -0.15568153D-04 -0.20256228D-03 -0.19447829D-02 -0.11973531D-04 -0.13552454D-02
 -0.50720075D-03 -0.16302661D-02  0.20344652D-02 -0.40419916D-03  0.60743298D-04
  0.22195596D-04  0.29307595D-02  0.28787549D-03 -0.13065215D-03 -0.15722334D-03
 -0.13225925D-04 -0.15254143D-05 -0.55700444D-03
MO    5     MO 0.0        OCC NO =    1.9653380  ORB. ENERGY =    0.000000
 -0.99050939D-05 -0.18461466D-04 -0.31304011D-04 -0.47375291D-04 -0.59096942D-04
 -0.50713968D-04 -0.19420756D-04 -0.19431934D-06 -0.20849190D-05 -0.76854041D-05
 -0.22471671D-04 -0.27079456D-04  0.32620074D-04  0.18819252D-04  0.17095304D-04
  0.12022567D-05  0.71110516D-02  0.68953281D-02  0.46515476D-02  0.13319443D+01
  0.12915380D+01  0.87126388D+00  0.27585198D-03  0.26748363D-03  0.18044288D-03
  0.16806123D-02  0.31478806D+00  0.62247141D-04  0.26883816D-03  0.50354676D-01
  0.65820092D-05  0.83838396D-05  0.15703633D-02  0.34741800D-07  0.82253082D-05
  0.82267694D-05 -0.16452078D-04  0.16526206D-04 -0.54054849D-03 -0.10124451D+00
  0.15246027D-05  0.18895732D-05 -0.34141758D-05 -0.94069632D-05 -0.15220824D-03
 -0.28507901D-01 -0.78046493D-07  0.12682706D-06 -0.48780563D-07 -0.12740152D-04
 -0.14057574D-04 -0.26328086D-02  0.46913089D-06 -0.12965577D-01  0.26533024D-05
 -0.20860287D-03  0.88288551D-04 -0.30023083D-05  0.20719547D-03  0.38808442D-01
 -0.49575989D-05 -0.55387756D-04  0.22807908D-05 -0.97103330D-03  0.13332227D-06
 -0.20114247D-04  0.42694868D-03  0.82399313D-07  0.13271875D-04  0.24861512D-02
 -0.48236613D-06  0.20988738D-04  0.14813351D-04  0.27615071D-04  0.46673232D-04
  0.70158572D-04  0.86177240D-04  0.72730550D-04  0.27348586D-04  0.35707582D-06
  0.26689205D-05  0.99743654D-05  0.27826927D-04  0.37280410D-04 -0.44021212D-04
 -0.18894814D-04 -0.12649557D-04 -0.28591331D-06  0.21678566D-02  0.20325033D-02
  0.14472635D-02  0.40602608D+00  0.38067526D+00  0.27106346D+00  0.11983968D-05
  0.11235732D-05  0.80005105D-06  0.56127881D-03  0.10512292D+00  0.20684330D-05
  0.33483050D-04  0.62696593D-02  0.12033013D-05 -0.17722093D-05 -0.33198414D-03
  0.39689335D-09  0.45334963D-05 -0.15540826D-05 -0.29794137D-05 -0.19553435D-03
  0.15475980D-03  0.28992643D-01  0.81804619D-06 -0.99615908D-06  0.17811288D-06
 -0.77654561D-04 -0.20277608D-04 -0.37971038D-02  0.41609020D-07 -0.30003324D-07
 -0.11605696D-07  0.69773851D-05 -0.47282903D-05 -0.88550206D-03 -0.29219892D-04
 -0.38801588D-02 -0.18209835D-05 -0.36982066D-05 -0.54712604D-02  0.71315581D-06
  0.91357881D-04  0.17111737D-01  0.47497948D-05  0.87254021D-04 -0.16803282D-05
 -0.38114026D-03 -0.42881368D-07 -0.27393736D-05 -0.31462509D-03  0.44212352D-07
  0.77803583D-05  0.14580459D-02  0.84431751D-07  0.41046340D-04  0.18318104D-01
  0.33037455D-01  0.48713708D-01  0.19316350D-01 -0.15367306D-02  0.34579234D-03
  0.23926345D-04 -0.11317912D-01  0.13688922D-01  0.47733215D-04  0.55210495D-02
  0.18038318D-02 -0.88360642D-05  0.47205449D-03  0.61306521D-03 -0.18580121D-02
 -0.14355402D-02  0.32935523D-02 -0.24825372D-04  0.28876995D-04 -0.83044913D-02
  0.31001513D-03 -0.46639725D-03  0.15638212D-03 -0.17008759D-05  0.11553438D-05
  0.88630547D-03 -0.18329741D-01 -0.33058442D-01 -0.48744653D-01 -0.19330665D-01
  0.15390243D-02 -0.34572934D-03 -0.14482245D-03 -0.11325123D-01 -0.13691898D-01
  0.11218271D-04  0.55209791D-02 -0.18026764D-02  0.13880980D-04  0.47273856D-03
 -0.61272951D-03  0.18585235D-02  0.14347220D-02 -0.32932455D-02 -0.33869990D-04
 -0.11753977D-03 -0.83046834D-02 -0.31019467D-03  0.46642947D-03 -0.15623479D-03
  0.14885926D-04  0.83072783D-05  0.88661013D-03
MO    6     MO 0.0        OCC NO =    1.9601105  ORB. ENERGY =    0.000000
  0.19856309D-02  0.37008895D-02  0.62753782D-02  0.94971176D-02  0.11846906D-01
  0.10166408D-01  0.38931940D-02 -0.31450059D-04 -0.33743849D-03 -0.12438618D-02
 -0.36369790D-02 -0.43827365D-02  0.52794706D-02  0.76292039D-02  0.28687946D-01
  0.63073250D-02  0.31239336D-03  0.30291648D-03  0.20434567D-03 -0.24325297D-03
 -0.23587355D-03 -0.15911891D-03  0.13821582D+01  0.13402285D+01  0.90411024D+00
  0.64499939D-04 -0.57304751D-04  0.31968776D+00  0.29028937D-04 -0.10074777D-04
  0.38147205D-01  0.79233007D-06 -0.32482142D-06  0.15786066D-03  0.41980142D-01
  0.43770368D-01 -0.85750510D-01  0.19104821D-04  0.88256095D-04  0.74067457D-05
  0.10428418D-01  0.11786009D-01 -0.22214427D-01  0.14493209D-04  0.23199447D-04
  0.18168293D-05  0.26526737D-03  0.51080534D-03 -0.77607271D-03  0.26227006D-05
 -0.73977325D-05  0.31058740D-06  0.19057643D-04  0.11947012D-05  0.15668744D-01
  0.13356292D-04 -0.14520781D-05 -0.15979771D-01 -0.70529223D-04 -0.21320256D-05
 -0.31026462D-01 -0.16064017D-03 -0.30426651D-06  0.87257658D-07  0.20166229D-02
 -0.20929836D-06  0.70534366D-08 -0.24750525D-02  0.11220979D-05 -0.26882641D-06
 -0.35748161D-02 -0.11744561D-04  0.52038976D-02  0.97011136D-02  0.16396204D-01
  0.24646552D-01  0.30273875D-01  0.25550082D-01  0.96074982D-02  0.88717619D-04
  0.66310924D-03  0.24781906D-02  0.69137660D-02  0.92625403D-02 -0.10937333D-01
 -0.62435398D-02  0.16289377D-01  0.10831477D-04 -0.93698215D-03 -0.87848032D-03
 -0.62553032D-03  0.35080687D-04  0.32890374D-04  0.23419905D-04 -0.52341558D+00
 -0.49073537D+00 -0.34943282D+00 -0.17355868D-03  0.79589364D-05 -0.10881589D+00
 -0.33171621D-04  0.33213398D-05 -0.86475004D-02 -0.90109077D-07  0.85287580D-07
 -0.40772674D-04  0.83615559D-02  0.28583913D-01 -0.36945469D-01  0.21585383D-03
  0.95978517D-04 -0.18599450D-04  0.20227650D-03  0.24875389D-02 -0.26898154D-02
  0.24384581D-04  0.11498299D-04 -0.42823105D-05 -0.15403679D-03  0.12822886D-03
  0.25807933D-04  0.30109912D-05  0.37886635D-05 -0.43382943D-06 -0.51580005D-05
  0.76755123D-06 -0.58760917D-02  0.14425257D-04  0.35843181D-06  0.64645689D-02
  0.10487443D-05 -0.26610855D-05  0.11163706D-01  0.50171368D-04 -0.90864064D-06
  0.73570172D-07  0.76947207D-03  0.39616149D-05 -0.42453078D-07 -0.19280680D-03
 -0.12356930D-05 -0.17825744D-06 -0.21156094D-02 -0.20527527D-04  0.18248646D-01
  0.32912184D-01  0.48528997D-01  0.30896511D-01  0.75052815D-03  0.11623773D-04
 -0.14223726D-04 -0.17433176D-01  0.35844758D-02 -0.23097593D-04 -0.57522961D-02
  0.75554050D-03  0.27236524D-05  0.33840568D-03 -0.24484824D-03 -0.14824348D-02
  0.52643953D-02 -0.37819605D-02  0.15031513D-04 -0.11370747D-04 -0.45469049D-02
 -0.54905052D-03  0.43463577D-05  0.54470416D-03 -0.82161732D-06 -0.36761222D-06
  0.47306725D-04  0.18239869D-01  0.32896355D-01  0.48505657D-01  0.30882860D-01
  0.75385301D-03  0.11770357D-04  0.17184267D-03  0.17427602D-01  0.35824099D-02
  0.38314494D-04  0.57517442D-02  0.75595247D-03 -0.88107752D-06 -0.33750667D-03
 -0.24432535D-03 -0.14820522D-02  0.52629326D-02 -0.37808804D-02  0.12900959D-03
  0.37180918D-04  0.45467254D-02 -0.54888304D-03  0.43120330D-05  0.54457100D-03
  0.12634443D-04 -0.87396383D-06 -0.47478349D-04
MO    7     MO 0.0        OCC NO =    1.9567304  ORB. ENERGY =    0.000000
  0.18635969D-05  0.34734381D-05  0.58897025D-05  0.89134384D-05  0.11118812D-04
  0.95415948D-05  0.36539239D-05  0.27239299D-07  0.29225981D-06  0.10773247D-05
  0.31500342D-05  0.37959443D-05 -0.45726172D-05 -0.20359561D-05  0.13472118D-05
  0.77459799D-06  0.62696347D-02  0.60794366D-02  0.41011520D-02  0.11744895D+01
  0.11388598D+01  0.76826808D+00  0.15776270D-03  0.15297675D-03  0.10319721D-03
  0.14805247D-02  0.27734689D+00  0.36756101D-04  0.26752714D-03  0.50115141D-01
  0.45663885D-05  0.90827564D-05  0.17014389D-02  0.27244700D-07  0.49073423D-05
  0.48202146D-05 -0.97275569D-05  0.49537470D-04 -0.62343048D-04 -0.11683915D-01
  0.13252365D-05  0.13621640D-05 -0.26874005D-05  0.23065328D-04 -0.15594605D-04
 -0.29226612D-02  0.33330334D-07  0.67583324D-07 -0.10091366D-06 -0.17645852D-05
 -0.34746175D-05 -0.65071429D-03  0.47021680D-04 -0.41810997D-02  0.18352226D-05
 -0.16099612D-03  0.88068825D-02 -0.21272291D-05  0.19931082D-04  0.37364165D-02
 -0.33784386D-05 -0.65364327D-04 -0.18958699D-05 -0.30790812D-03  0.27839451D-06
 -0.11396022D-05 -0.35506289D-03 -0.34515164D-06  0.68272118D-05  0.12787873D-02
 -0.49003189D-06  0.29142682D-08 -0.17399015D-05 -0.32435269D-05 -0.54820024D-05
 -0.82404720D-05 -0.10121944D-04 -0.85425636D-05 -0.32122270D-05 -0.45609354D-07
 -0.34090167D-06 -0.12740274D-05 -0.35543380D-05 -0.47618330D-05  0.56228368D-05
  0.17280277D-05  0.30354585D-05  0.22682595D-07 -0.19289465D-02 -0.18085099D-02
 -0.12877668D-02 -0.36130865D+00 -0.33874982D+00 -0.24121005D+00 -0.73497437D-04
 -0.68908519D-04 -0.49066971D-04 -0.52894970D-03 -0.99079276D-01 -0.15566477D-04
 -0.13725403D-03 -0.25710168D-01 -0.12738287D-05 -0.27036846D-05 -0.50646335D-03
 -0.80813835D-08  0.30638982D-05  0.24656056D-05 -0.55295038D-05  0.47863357D-03
  0.59123756D-03  0.11075299D+00  0.74150717D-06 -0.13291665D-06 -0.60859052D-06
  0.15425805D-03  0.16997724D-03  0.31841472D-01  0.61921107D-07 -0.36026991D-07
 -0.25894116D-07  0.16678235D-04  0.18204348D-04  0.34100518D-02  0.14625499D-04
 -0.36571199D-02 -0.52116553D-06 -0.87820983D-04  0.27389699D-02  0.49608398D-06
  0.43944485D-04  0.82323899D-02  0.10674126D-05 -0.95395308D-04  0.42886546D-05
 -0.58784981D-03  0.10823482D-06 -0.17992533D-04  0.80331565D-03 -0.18933113D-06
  0.51265694D-05  0.96023378D-03 -0.13537334D-06 -0.35411725D-04 -0.34608518D-01
 -0.62417887D-01 -0.92035138D-01 -0.52452441D-01  0.10543331D-01  0.43278839D-03
 -0.29510848D-04  0.14953566D-01 -0.10588219D-01 -0.19187100D-04 -0.32102219D-02
  0.19921244D-02  0.96747144D-07 -0.34748418D-02  0.16651822D-02  0.70796645D-03
 -0.15500534D-02  0.84208697D-03  0.22853188D-04  0.35587605D-05  0.31482819D-02
  0.48051442D-05  0.35302718D-03 -0.35783232D-03  0.42882788D-05  0.14456270D-05
  0.45242847D-04  0.34616238D-01  0.62431811D-01  0.92055668D-01  0.52468659D-01
 -0.10540765D-01 -0.43275851D-03  0.18921403D-03  0.14959027D-01  0.10589065D-01
 -0.15071677D-04 -0.32077521D-02 -0.19916746D-02 -0.37196525D-04 -0.34748919D-02
 -0.16652398D-02 -0.70842478D-03  0.15518016D-02 -0.84337679D-03  0.71116271D-04
  0.30071471D-04  0.31502069D-02 -0.48894707D-05 -0.35306746D-03  0.35795693D-03
 -0.31470447D-05 -0.96306566D-06  0.45157331D-04
MO    8     MO 0.0        OCC NO =    1.9226299  ORB. ENERGY =    0.000000
  0.59230143D-04  0.11039525D-03  0.18719066D-03  0.28329315D-03  0.35338588D-03
  0.30325766D-03  0.11613157D-03  0.11769623D-05  0.12628034D-04  0.46549310D-04
  0.13610745D-03  0.16401610D-03 -0.19757477D-03 -0.11207185D-03 -0.79519688D-04
  0.77877880D-04  0.13795584D+01  0.13377076D+01  0.90240964D+00 -0.73644993D-02
 -0.71410870D-02 -0.48173351D-02 -0.34820389D-03 -0.33764065D-03 -0.22777038D-03
  0.33247752D+00 -0.17748651D-02 -0.83929297D-04  0.48482190D-01 -0.25881196D-03
  0.45603848D-04  0.88704704D-03 -0.47354624D-05 -0.60882142D-05 -0.82137336D-05
 -0.37909069D-04  0.46122802D-04 -0.20572077D-06 -0.12443776D+00  0.66428905D-03
 -0.51760765D-05  0.68394755D-05 -0.16633990D-05  0.20320521D-06 -0.37373687D-01
  0.19951095D-03  0.73257346D-05  0.77961676D-06 -0.81053513D-05 -0.72463907D-07
 -0.23613880D-02  0.12605830D-04 -0.61336316D-02  0.11855167D-03  0.18271179D-05
 -0.22206919D-01 -0.13887931D-03 -0.20072043D-04  0.40607814D-01 -0.21677569D-03
  0.14590690D-04  0.35895387D-06 -0.36202404D-03  0.82627291D-05  0.49040061D-05
 -0.15477596D-02 -0.10728416D-04 -0.10992370D-04  0.26338317D-02 -0.14059772D-04
 -0.37196483D-05  0.47623161D-07 -0.16644031D-03 -0.31027827D-03 -0.52441254D-03
 -0.78828986D-03 -0.96827290D-03 -0.81718817D-03 -0.30728409D-03 -0.41257581D-05
 -0.30837486D-04 -0.11524672D-03 -0.32152042D-03 -0.43074872D-03  0.50863392D-03
  0.22107141D-03  0.40523574D-03 -0.33726174D-05  0.41538779D+00  0.38945245D+00
  0.27731335D+00 -0.22174807D-02 -0.20790291D-02 -0.14803926D-02 -0.87727393D-03
 -0.82250007D-03 -0.58566905D-03  0.10663988D+00 -0.56928249D-03 -0.18222771D-03
  0.12609952D-01 -0.67315689D-04 -0.64445573D-04  0.39106028D-04 -0.20865711D-06