 Entering Gaussian System, Link 0=/home/bruns/programas/chemistry/gaussian/g09/g09
 Input=GAUSSIAN.com
 Output=GAUSSIAN.log
 Initial command:
 /home/bruns/programas/chemistry/gaussian/g09/l1.exe /home/bruns/programas/chemistry/gaussian/work/Gau-74016.inp -scrdir=/home/bruns/programas/chemistry/gaussian/work/
 Entering Link 1 = /home/bruns/programas/chemistry/gaussian/g09/l1.exe PID=     74018.
  
 Copyright (c) 1988,1990,1992,1993,1995,1998,2003,2009,2010,
            Gaussian, Inc.  All Rights Reserved.
  
 This is part of the Gaussian(R) 09 program.  It is based on
 the Gaussian(R) 03 system (copyright 2003, Gaussian, Inc.),
 the Gaussian(R) 98 system (copyright 1998, Gaussian, Inc.),
 the Gaussian(R) 94 system (copyright 1995, Gaussian, Inc.),
 the Gaussian 92(TM) system (copyright 1992, Gaussian, Inc.),
 the Gaussian 90(TM) system (copyright 1990, Gaussian, Inc.),
 the Gaussian 88(TM) system (copyright 1988, Gaussian, Inc.),
 the Gaussian 86(TM) system (copyright 1986, Carnegie Mellon
 University), and the Gaussian 82(TM) system (copyright 1983,
 Carnegie Mellon University). Gaussian is a federally registered
 trademark of Gaussian, Inc.
  
 This software contains proprietary and confidential information,
 including trade secrets, belonging to Gaussian, Inc.
  
 This software is provided under written license and may be
 used, copied, transmitted, or stored only in accord with that
 written license.
  
 The following legend is applicable only to US Government
 contracts under FAR:
  
                    RESTRICTED RIGHTS LEGEND
  
 Use, reproduction and disclosure by the US Government is
 subject to restrictions as set forth in subparagraphs (a)
 and (c) of the Commercial Computer Software - Restricted
 Rights clause in FAR 52.227-19.
  
 Gaussian, Inc.
 340 Quinnipiac St., Bldg. 40, Wallingford CT 06492
  
  
 ---------------------------------------------------------------
 Warning -- This program may not be used in any manner that
 competes with the business of Gaussian, Inc. or will provide
 assistance to any competitor of Gaussian, Inc.  The licensee
 of this program is prohibited from giving any competitor of
 Gaussian, Inc. access to this program.  By using this program,
 the user acknowledges that Gaussian, Inc. is engaged in the
 business of creating and licensing software in the field of
 computational chemistry and represents and warrants to the
 licensee that it is not a competitor of Gaussian, Inc. and that
 it will not use this program in any manner prohibited above.
 ---------------------------------------------------------------
  

 Cite this work as:
 Gaussian 09, Revision B.01,
 M. J. Frisch, G. W. Trucks, H. B. Schlegel, G. E. Scuseria, 
 M. A. Robb, J. R. Cheeseman, G. Scalmani, V. Barone, B. Mennucci, 
 G. A. Petersson, H. Nakatsuji, M. Caricato, X. Li, H. P. Hratchian, 
 A. F. Izmaylov, J. Bloino, G. Zheng, J. L. Sonnenberg, M. Hada, 
 M. Ehara, K. Toyota, R. Fukuda, J. Hasegawa, M. Ishida, T. Nakajima, 
 Y. Honda, O. Kitao, H. Nakai, T. Vreven, J. A. Montgomery, Jr., 
 J. E. Peralta, F. Ogliaro, M. Bearpark, J. J. Heyd, E. Brothers, 
 K. N. Kudin, V. N. Staroverov, T. Keith, R. Kobayashi, J. Normand, 
 K. Raghavachari, A. Rendell, J. C. Burant, S. S. Iyengar, J. Tomasi, 
 M. Cossi, N. Rega, J. M. Millam, M. Klene, J. E. Knox, J. B. Cross, 
 V. Bakken, C. Adamo, J. Jaramillo, R. Gomperts, R. E. Stratmann, 
 O. Yazyev, A. J. Austin, R. Cammi, C. Pomelli, J. W. Ochterski, 
 R. L. Martin, K. Morokuma, V. G. Zakrzewski, G. A. Voth, 
 P. Salvador, J. J. Dannenberg, S. Dapprich, A. D. Daniels, 
 O. Farkas, J. B. Foresman, J. V. Ortiz, J. Cioslowski, 
 and D. J. Fox, Gaussian, Inc., Wallingford CT, 2010.
 
 ******************************************
 Gaussian 09:  EM64L-G09RevB.01 12-Aug-2010
                20-Nov-2021 
 ******************************************
 %nproc=8
 Will use up to    8 processors via shared memory.
 %mem=8GB
 -----------------------------------------------------
 # qcisd/aug-cc-pvtz nosymm density=current output=wfn
 -----------------------------------------------------
 1/30=1,38=1/1;
 2/12=2,15=1,17=6,18=5,40=1/2;
 3/5=16,6=1,7=10,11=9,16=1,25=1,30=1,71=1/1,2,3;
 4//1;
 5/5=2,38=5/2;
 8/6=4,9=120000,10=1/1,4;
 9/5=8,15=1/13;
 11/28=-7,31=1,32=3,42=3/11;
 10/5=6,13=10,31=1/2;
 6/7=2,8=2,9=2,10=2,22=-1,31=1/1;
 99/5=1,6=1100,9=1/99;
 -----------------
 h2co-wavefunction
 -----------------
 Symbolic Z-matrix:
 Charge =  0 Multiplicity = 1
 O                     0.        0.        0.66925 
 C                     0.        0.       -0.52691 
 H                     0.        0.93661  -1.10662 
 H                     0.       -0.93661  -1.10662 
 
                          Input orientation:                          
 ---------------------------------------------------------------------
 Center     Atomic      Atomic             Coordinates (Angstroms)
 Number     Number       Type             X           Y           Z
 ---------------------------------------------------------------------
      1          8           0        0.000000    0.000000    0.669252
      2          6           0        0.000000    0.000000   -0.526911
      3          1           0        0.000000    0.936614   -1.106620
      4          1           0        0.000000   -0.936614   -1.106620
 ---------------------------------------------------------------------
                    Distance matrix (angstroms):
                    1          2          3          4
     1  O    0.000000
     2  C    1.196163   0.000000
     3  H    2.007727   1.101503   0.000000
     4  H    2.007727   1.101503   1.873228   0.000000
 Symmetry turned off by external request.
 Stoichiometry    CH2O
 Framework group  C2V[C2(CO),SGV(H2)]
 Deg. of freedom     3
 Full point group                 C2V     NOp   4
 Rotational constants (GHZ):    285.8122027     39.4522049     34.6669396
 Standard basis: Aug-CC-pVTZ (5D, 7F)
 Integral buffers will be    131072 words long.
 Raffenetti 1 integral format.
 Two-electron integral symmetry is turned off.
   138 basis functions,   198 primitive gaussians,   160 cartesian basis functions
     8 alpha electrons        8 beta electrons
       nuclear repulsion energy        31.4995736785 Hartrees.
 NAtoms=    4 NActive=    4 NUniq=    4 SFac= 1.00D+00 NAtFMM=   50 NAOKFM=F Big=F
 One-electron integrals computed using PRISM.
 NBasis=   138 RedAO= T  NBF=   138
 NBsUse=   138 1.00D-06 NBFU=   138
 Harris functional with IExCor=  205 diagonalized for initial guess.
 ExpMin= 2.53D-02 ExpMax= 1.53D+04 ExpMxC= 5.22D+02 IAcc=3 IRadAn=         0 AccDes= 0.00D+00
 HarFok:  IExCor=  205 AccDes= 0.00D+00 IRadAn=         0 IDoV= 1
 ScaDFX=  1.000000  1.000000  1.000000  1.000000
 FoFCou: FMM=F IPFlag=           0 FMFlag=      100000 FMFlg1=           0
         NFxFlg=           0 DoJE=T BraDBF=F KetDBF=T FulRan=T
         Omega=  0.000000  0.000000  1.000000  0.000000  0.000000 ICntrl=     500 IOpCl=  0
         NMat0=    1 NMatS0=    1 NMatT0=    0 NMatD0=    1 NMtDS0=    0 NMtDT0=    0
         I1Cent=           4 NGrid=           0.
 Symmetry not used in FoFCou.
 Requested convergence on RMS density matrix=1.00D-08 within 128 cycles.
 Requested convergence on MAX density matrix=1.00D-06.
 Requested convergence on             energy=1.00D-06.
 No special actions if energy rises.
 Keep R1 ints in memory in canonical form, NReq=85137408.
 SCF Done:  E(RHF) =  -113.914636962     A.U. after   11 cycles
             Convg  =    0.2701D-08             -V/T =  2.0015
 ExpMin= 2.53D-02 ExpMax= 1.53D+04 ExpMxC= 5.22D+02 IAcc=3 IRadAn=         5 AccDes= 0.00D+00
 HarFok:  IExCor=  205 AccDes= 0.00D+00 IRadAn=         5 IDoV=-2
 ScaDFX=  1.000000  1.000000  1.000000  1.000000
 Range of M.O.s used for correlation:     3   138
 NBasis=   138 NAE=     8 NBE=     8 NFC=     2 NFV=     0
 NROrb=    136 NOA=     6 NOB=     6 NVA=   130 NVB=   130

 **** Warning!!: The largest alpha MO coefficient is  0.33411360D+02

 Semi-Direct transformation.
 ModeAB=           2 MOrb=             6 LenV=    1073118415
 LASXX=      7286295 LTotXX=     7286295 LenRXX=     7286295
 LTotAB=     7445736 MaxLAS=    10510080 LenRXY=    10510080
 NonZer=    14572590 LenScr=    22628352 LnRSAI=           0
 LnScr1=           0 LExtra=           0 Total=     40424727
 MaxDsk=          -1 SrtSym=           F ITran=            4
 JobTyp=0 Pass  1:  I=   1 to   6.
 (rs|ai) integrals will be sorted in core.
 Spin components of T(2) and E(2):
     alpha-alpha T2 =       0.1361812835D-01 E2=     -0.4789228272D-01
     alpha-beta  T2 =       0.8423960954D-01 E2=     -0.3055728101D+00
     beta-beta   T2 =       0.1361812835D-01 E2=     -0.4789228272D-01
 ANorm=    0.1054265558D+01
 E2 =    -0.4013573755D+00 EUMP2 =    -0.11431599433740D+03
 R2 and R3 integrals will be kept in memory, NReq=   167993840.
 Iterations=  50 Convergence= 0.100D-07
 Iteration Nr.   1
 **********************
 DD1Dir will call FoFMem   1 times, MxPair=        42
 NAB=    21 NAA=     0 NBB=     0.
 MP4(R+Q)=  0.87763985D-02
 E3=       -0.44352336D-02        EUMP3=      -0.11432042957D+03
 E4(DQ)=   -0.12617083D-02        UMP4(DQ)=   -0.11432169128D+03
 E4(SDQ)=  -0.63735310D-02        UMP4(SDQ)=  -0.11432680310D+03
 DE(Corr)= -0.39701621     E(Corr)=     -114.31165317    
 NORM(A)=   0.10550775D+01
 Iteration Nr.   2
 **********************
 DD1Dir will call FoFMem   1 times, MxPair=        42
 NAB=    21 NAA=     0 NBB=     0.
 DE(Corr)= -0.41064700     E(CORR)=     -114.32528396     Delta=-1.36D-02
 NORM(A)=   0.10609892D+01
 Iteration Nr.   3
 **********************
 DD1Dir will call FoFMem   1 times, MxPair=        42
 NAB=    21 NAA=     0 NBB=     0.
 DE(Corr)= -0.41062596     E(CORR)=     -114.32526292     Delta= 2.10D-05
 NORM(A)=   0.10627891D+01
 Iteration Nr.   4
 **********************
 DD1Dir will call FoFMem   1 times, MxPair=        42
 NAB=    21 NAA=     0 NBB=     0.
 DE(Corr)= -0.41198376     E(CORR)=     -114.32662072     Delta=-1.36D-03
 NORM(A)=   0.10634273D+01
 Iteration Nr.   5
 **********************
 DD1Dir will call FoFMem   1 times, MxPair=        42
 NAB=    21 NAA=     0 NBB=     0.
 DE(Corr)= -0.41216097     E(CORR)=     -114.32679793     Delta=-1.77D-04
 NORM(A)=   0.10636255D+01
 Iteration Nr.   6
 **********************
 DD1Dir will call FoFMem   1 times, MxPair=        42
 NAB=    21 NAA=     0 NBB=     0.
 DE(Corr)= -0.41218524     E(CORR)=     -114.32682220     Delta=-2.43D-05
 NORM(A)=   0.10636487D+01
 Iteration Nr.   7
 **********************
 DD1Dir will call FoFMem   1 times, MxPair=        42
 NAB=    21 NAA=     0 NBB=     0.
 DE(Corr)= -0.41218636     E(CORR)=     -114.32682332     Delta=-1.12D-06
 NORM(A)=   0.10636496D+01
 Iteration Nr.   8
 **********************
 DD1Dir will call FoFMem   1 times, MxPair=        42
 NAB=    21 NAA=     0 NBB=     0.
 DE(Corr)= -0.41218554     E(CORR)=     -114.32682250     Delta= 8.23D-07
 NORM(A)=   0.10636522D+01
 Iteration Nr.   9
 **********************
 DD1Dir will call FoFMem   1 times, MxPair=        42
 NAB=    21 NAA=     0 NBB=     0.
 DE(Corr)= -0.41218452     E(CORR)=     -114.32682148     Delta= 1.02D-06
 NORM(A)=   0.10636525D+01
 Iteration Nr.  10
 **********************
 DD1Dir will call FoFMem   1 times, MxPair=        42
 NAB=    21 NAA=     0 NBB=     0.
 DE(Corr)= -0.41218510     E(CORR)=     -114.32682206     Delta=-5.79D-07
 NORM(A)=   0.10636531D+01
 Iteration Nr.  11
 **********************
 DD1Dir will call FoFMem   1 times, MxPair=        42
 NAB=    21 NAA=     0 NBB=     0.
 DE(Corr)= -0.41218522     E(CORR)=     -114.32682218     Delta=-1.24D-07
 NORM(A)=   0.10636534D+01
 Iteration Nr.  12
 **********************
 DD1Dir will call FoFMem   1 times, MxPair=        42
 NAB=    21 NAA=     0 NBB=     0.
 DE(Corr)= -0.41218537     E(CORR)=     -114.32682233     Delta=-1.44D-07
 NORM(A)=   0.10636536D+01
 Iteration Nr.  13
 **********************
 DD1Dir will call FoFMem   1 times, MxPair=        42
 NAB=    21 NAA=     0 NBB=     0.
 DE(Corr)= -0.41218542     E(CORR)=     -114.32682238     Delta=-5.53D-08
 NORM(A)=   0.10636537D+01
 Iteration Nr.  14
 **********************
 DD1Dir will call FoFMem   1 times, MxPair=        42
 NAB=    21 NAA=     0 NBB=     0.
 DE(Corr)= -0.41218545     E(CORR)=     -114.32682241     Delta=-2.88D-08
 NORM(A)=   0.10636537D+01
 Iteration Nr.  15
 **********************
 DD1Dir will call FoFMem   1 times, MxPair=        42
 NAB=    21 NAA=     0 NBB=     0.
 DE(Corr)= -0.41218545     E(CORR)=     -114.32682242     Delta=-4.42D-09
 NORM(A)=   0.10636537D+01
 Largest amplitude= 6.39D-02

 Z-AMPLITUDE ITERATIONS

 Iteration Nr.   1
 **********************
 DD1Dir will call FoFMem   1 times, MxPair=        42
 NAB=    21 NAA=     0 NBB=     0.
 DE(Z)  -0.40033662D+00          E(Z)=    -0.11431497358D+03
 NORM(A)=   0.10636533D+01
 Iteration Nr.   2
 **********************
 DD1Dir will call FoFMem   1 times, MxPair=        42
 NAB=    21 NAA=     0 NBB=     0.
 DE(Z)  -0.40033659D+00          E(Z)=    -0.11431497355D+03
 NORM(A)=   0.10636531D+01
 Iteration Nr.   3
 **********************
 DD1Dir will call FoFMem   1 times, MxPair=        42
 NAB=    21 NAA=     0 NBB=     0.
 DE(Z)  -0.40033658D+00          E(Z)=    -0.11431497354D+03
 NORM(A)=   0.10636533D+01
 Iteration Nr.   4
 **********************
 DD1Dir will call FoFMem   1 times, MxPair=        42
 NAB=    21 NAA=     0 NBB=     0.
 DE(Z)  -0.40033659D+00          E(Z)=    -0.11431497355D+03
 NORM(A)=   0.10636529D+01
 Iteration Nr.   5
 **********************
 DD1Dir will call FoFMem   1 times, MxPair=        42
 NAB=    21 NAA=     0 NBB=     0.
 DE(Z)  -0.40033657D+00          E(Z)=    -0.11431497353D+03
 NORM(A)=   0.10596039D+01
 Iteration Nr.   6
 **********************
 DD1Dir will call FoFMem   1 times, MxPair=        42
 NAB=    21 NAA=     0 NBB=     0.
 DE(Z)  -0.40009250D+00          E(Z)=    -0.11431472946D+03
 NORM(A)=   0.10596741D+01
 Iteration Nr.   7
 **********************
 DD1Dir will call FoFMem   1 times, MxPair=        42
 NAB=    21 NAA=     0 NBB=     0.
 DE(Z)  -0.40011538D+00          E(Z)=    -0.11431475234D+03
 NORM(A)=   0.10596750D+01
 Iteration Nr.   8
 **********************
 DD1Dir will call FoFMem   1 times, MxPair=        42
 NAB=    21 NAA=     0 NBB=     0.
 DE(Z)  -0.40011098D+00          E(Z)=    -0.11431474794D+03
 NORM(A)=   0.10596738D+01
 Iteration Nr.   9
 **********************
 DD1Dir will call FoFMem   1 times, MxPair=        42
 NAB=    21 NAA=     0 NBB=     0.
 DE(Z)  -0.40011105D+00          E(Z)=    -0.11431474801D+03
 NORM(A)=   0.10596739D+01
 Iteration Nr.  10
 **********************
 DD1Dir will call FoFMem   1 times, MxPair=        42
 NAB=    21 NAA=     0 NBB=     0.
 DE(Z)  -0.40011114D+00          E(Z)=    -0.11431474810D+03
 NORM(A)=   0.10596738D+01
 Iteration Nr.  11
 **********************
 DD1Dir will call FoFMem   1 times, MxPair=        42
 NAB=    21 NAA=     0 NBB=     0.
 DE(Z)  -0.40011103D+00          E(Z)=    -0.11431474799D+03
 NORM(A)=   0.10596738D+01
 Iteration Nr.  12
 **********************
 DD1Dir will call FoFMem   1 times, MxPair=        42
 NAB=    21 NAA=     0 NBB=     0.
 DE(Z)  -0.40011107D+00          E(Z)=    -0.11431474803D+03
 NORM(A)=   0.10596738D+01
 Iteration Nr.  13
 **********************
 DD1Dir will call FoFMem   1 times, MxPair=        42
 NAB=    21 NAA=     0 NBB=     0.
 DE(Z)  -0.40011107D+00          E(Z)=    -0.11431474803D+03
 NORM(A)=   0.10596738D+01
 Iteration Nr.  14
 **********************
 DD1Dir will call FoFMem   1 times, MxPair=        42
 NAB=    21 NAA=     0 NBB=     0.
 DE(Z)  -0.40011107D+00          E(Z)=    -0.11431474803D+03
 NORM(A)=   0.10596738D+01
 Discarding MO integrals.
          Differentiating once with respect to electric field.
                with respect to dipole field.
          Electric field/nuclear overlap derivatives assumed to be zero.
          Keep R1 ints in memory in canonical form, NReq=84894547.
          There are     1 degrees of freedom in the 1st order CPHF.  IDoFFX=0.
 LinEq1:  Iter=  0 NonCon=     1 RMS=3.50D-03 Max=5.47D-02
 AX will form     1 AO Fock derivatives at one time.
 LinEq1:  Iter=  1 NonCon=     1 RMS=8.82D-04 Max=8.47D-03
 LinEq1:  Iter=  2 NonCon=     1 RMS=2.28D-04 Max=3.27D-03
 LinEq1:  Iter=  3 NonCon=     1 RMS=1.11D-04 Max=1.16D-03
 LinEq1:  Iter=  4 NonCon=     1 RMS=4.12D-05 Max=5.02D-04
 LinEq1:  Iter=  5 NonCon=     1 RMS=8.61D-06 Max=8.04D-05
 LinEq1:  Iter=  6 NonCon=     1 RMS=1.42D-06 Max=1.65D-05
 LinEq1:  Iter=  7 NonCon=     1 RMS=2.14D-07 Max=1.56D-06
 LinEq1:  Iter=  8 NonCon=     1 RMS=2.45D-08 Max=1.92D-07
 LinEq1:  Iter=  9 NonCon=     1 RMS=2.94D-09 Max=2.34D-08
 LinEq1:  Iter= 10 NonCon=     1 RMS=2.75D-10 Max=2.17D-09
 LinEq1:  Iter= 11 NonCon=     0 RMS=2.50D-11 Max=2.31D-10
 Linear equations converged to 1.000D-10 1.000D-09 after    11 iterations.
 End of Minotr Frequency-dependent properties file   721 does not exist.
 End of Minotr Frequency-dependent properties file   722 does not exist.

 **********************************************************************

            Population analysis using the QCI/CC density.

 **********************************************************************

     Natural Orbital Coefficients:
                           1         2         3         4         5
     Eigenvalues --     2.00001   2.00000   1.98067   1.96698   1.96547
   1 1   O  1S         -0.51687   0.83195  -0.18931   0.07124   0.00000
   2        2S          0.01034  -0.01444   0.48843  -0.20259   0.00000
   3        3S         -0.02161   0.03578   0.13715  -0.06130   0.00000
   4        4S          0.00263  -0.00261   0.30847  -0.22870   0.00000
   5        5S          0.00007  -0.00074   0.04445  -0.03301   0.00000
   6        6PX         0.00000   0.00000   0.00000   0.00000   0.00000
   7        6PY         0.00000   0.00000   0.00000   0.00000   0.27236
   8        6PZ         0.00301  -0.00225  -0.00298  -0.14663   0.00000
   9        7PX         0.00000   0.00000   0.00000   0.00000   0.00000
  10        7PY         0.00000   0.00000   0.00000   0.00000   0.33606
  11        7PZ         0.00213   0.00154  -0.01150  -0.17167   0.00000
  12        8PX         0.00000   0.00000   0.00000   0.00000   0.00000
  13        8PY         0.00000   0.00000   0.00000   0.00000   0.24259
  14        8PZ         0.00319   0.00051   0.03874  -0.08077   0.00000
  15        9PX         0.00000   0.00000   0.00000   0.00000   0.00000
  16        9PY         0.00000   0.00000   0.00000   0.00000   0.03720
  17        9PZ         0.00021   0.00005   0.00206  -0.00261   0.00000
  18       10D 0       -0.00015   0.00016   0.00450   0.00579   0.00000
  19       10D+1        0.00000   0.00000   0.00000   0.00000   0.00000
  20       10D-1        0.00000   0.00000   0.00000   0.00000  -0.00838
  21       10D+2        0.00007  -0.00008   0.00008  -0.00002   0.00000
  22       10D-2        0.00000   0.00000   0.00000   0.00000   0.00000
  23       11D 0       -0.00049  -0.00115   0.01257   0.01057   0.00000
  24       11D+1        0.00000   0.00000   0.00000   0.00000   0.00000
  25       11D-1        0.00000   0.00000   0.00000   0.00000  -0.02187
  26       11D+2        0.00008  -0.00014   0.00066   0.00036   0.00000
  27       11D-2        0.00000   0.00000   0.00000   0.00000   0.00000
  28       12D 0       -0.00069  -0.00031  -0.00910   0.00129   0.00000
  29       12D+1        0.00000   0.00000   0.00000   0.00000   0.00000
  30       12D-1        0.00000   0.00000   0.00000   0.00000  -0.01379
  31       12D+2        0.00027   0.00018  -0.00015   0.00077   0.00000
  32       12D-2        0.00000   0.00000   0.00000   0.00000   0.00000
  33       13F 0       -0.00005   0.00002  -0.00278  -0.00194   0.00000
  34       13F+1        0.00000   0.00000   0.00000   0.00000   0.00000
  35       13F-1        0.00000   0.00000   0.00000   0.00000   0.00490
  36       13F+2        0.00005  -0.00001   0.00014  -0.00052   0.00000
  37       13F-2        0.00000   0.00000   0.00000   0.00000   0.00000
  38       13F+3        0.00000   0.00000   0.00000   0.00000   0.00000
  39       13F-3        0.00000   0.00000   0.00000   0.00000   0.00125
  40       14F 0        0.00035   0.00042  -0.00114  -0.00061   0.00000
  41       14F+1        0.00000   0.00000   0.00000   0.00000   0.00000
  42       14F-1        0.00000   0.00000   0.00000   0.00000   0.00330
  43       14F+2       -0.00001   0.00004  -0.00088  -0.00072   0.00000
  44       14F-2        0.00000   0.00000   0.00000   0.00000   0.00000
  45       14F+3        0.00000   0.00000   0.00000   0.00000   0.00000
  46       14F-3        0.00000   0.00000   0.00000   0.00000   0.00143
  47 2   C  1S          0.83358   0.51755  -0.08582  -0.14811   0.00000
  48        2S         -0.01115  -0.00587   0.20667   0.41301   0.00000
  49        3S          0.03460   0.02164   0.04608   0.09705   0.00000
  50        4S          0.00366   0.00313   0.12629   0.29579   0.00000
  51        5S          0.00186   0.00132   0.00597   0.01639   0.00000
  52        6PX         0.00000   0.00000   0.00000   0.00000   0.00000
  53        6PY         0.00000   0.00000   0.00000   0.00000   0.18608
  54        6PZ         0.00093   0.00053   0.05097  -0.04642   0.00000
  55        7PX         0.00000   0.00000   0.00000   0.00000   0.00000
  56        7PY         0.00000   0.00000   0.00000   0.00000   0.24431
  57        7PZ         0.00072   0.00374   0.01640  -0.06810   0.00000
  58        8PX         0.00000   0.00000   0.00000   0.00000   0.00000
  59        8PY         0.00000   0.00000   0.00000   0.00000   0.05982
  60        8PZ        -0.00097  -0.00013  -0.04045  -0.05353   0.00000
  61        9PX         0.00000   0.00000   0.00000   0.00000   0.00000
  62        9PY         0.00000   0.00000   0.00000   0.00000  -0.01529
  63        9PZ        -0.00016   0.00002  -0.00258  -0.00017   0.00000
  64       10D 0        0.00054   0.00069   0.01394   0.00227   0.00000
  65       10D+1        0.00000   0.00000   0.00000   0.00000   0.00000
  66       10D-1        0.00000   0.00000   0.00000   0.00000   0.00920
  67       10D+2       -0.00044  -0.00021  -0.00311  -0.00933   0.00000
  68       10D-2        0.00000   0.00000   0.00000   0.00000   0.00000
  69       11D 0       -0.00068   0.00106   0.00227  -0.00147   0.00000
  70       11D+1        0.00000   0.00000   0.00000   0.00000   0.00000
  71       11D-1        0.00000   0.00000   0.00000   0.00000  -0.00982
  72       11D+2        0.00036   0.00073  -0.01509  -0.02439   0.00000
  73       11D-2        0.00000   0.00000   0.00000   0.00000   0.00000
  74       12D 0       -0.00047  -0.00139  -0.01797   0.00287   0.00000
  75       12D+1        0.00000   0.00000   0.00000   0.00000   0.00000
  76       12D-1        0.00000   0.00000   0.00000   0.00000  -0.01768
  77       12D+2       -0.00051  -0.00086  -0.00967  -0.00198   0.00000
  78       12D-2        0.00000   0.00000   0.00000   0.00000   0.00000
  79       13F 0        0.00072   0.00041   0.00562   0.00563   0.00000
  80       13F+1        0.00000   0.00000   0.00000   0.00000   0.00000
  81       13F-1        0.00000   0.00000   0.00000   0.00000   0.00887
  82       13F+2        0.00051   0.00018   0.00371   0.00459   0.00000
  83       13F-2        0.00000   0.00000   0.00000   0.00000   0.00000
  84       13F+3        0.00000   0.00000   0.00000   0.00000   0.00000
  85       13F-3        0.00000   0.00000   0.00000   0.00000  -0.00058
  86       14F 0       -0.00150  -0.00011  -0.00071   0.00320   0.00000
  87       14F+1        0.00000   0.00000   0.00000   0.00000   0.00000
  88       14F-1        0.00000   0.00000   0.00000   0.00000   0.00786
  89       14F+2       -0.00087  -0.00036   0.00263   0.00700   0.00000
  90       14F-2        0.00000   0.00000   0.00000   0.00000   0.00000
  91       14F+3        0.00000   0.00000   0.00000   0.00000   0.00000
  92       14F-3        0.00000   0.00000   0.00000   0.00000   0.00026
  93 3   H  1S         -0.00108  -0.00056   0.02520   0.09359   0.07122
  94        2S         -0.00065   0.00044  -0.00103   0.08536   0.06195
  95        3S         -0.00353  -0.00265  -0.04685  -0.03084  -0.01155
  96        4S         -0.00027  -0.00016  -0.00181  -0.00206   0.00786
  97        5PX         0.00000   0.00000   0.00000   0.00000   0.00000
  98        5PY         0.00036   0.00015  -0.00122  -0.00789  -0.00518
  99        5PZ        -0.00024  -0.00010   0.00102   0.00397   0.00629
 100        6PX         0.00000   0.00000   0.00000   0.00000   0.00000
 101        6PY         0.00048  -0.00019   0.00994   0.00074   0.01258
 102        6PZ        -0.00015   0.00030  -0.00961  -0.00445   0.00430
 103        7PX         0.00000   0.00000   0.00000   0.00000   0.00000
 104        7PY         0.00049  -0.00013   0.00695   0.01634   0.00552
 105        7PZ        -0.00070  -0.00101  -0.01845  -0.00593   0.00774
 106        8D 0        0.00008   0.00000   0.00033  -0.00017   0.00185
 107        8D+1        0.00000   0.00000   0.00000   0.00000   0.00000
 108        8D-1        0.00028   0.00013   0.00068  -0.00091  -0.00270
 109        8D+2        0.00018   0.00008   0.00054  -0.00112  -0.00016
 110        8D-2        0.00000   0.00000   0.00000   0.00000   0.00000
 111        9D 0       -0.00024  -0.00004  -0.00196  -0.00123   0.00112
 112        9D+1        0.00000   0.00000   0.00000   0.00000   0.00000
 113        9D-1       -0.00012  -0.00002   0.00391   0.00219   0.00350
 114        9D+2        0.00024  -0.00001   0.00179   0.00177   0.00313
 115        9D-2        0.00000   0.00000   0.00000   0.00000   0.00000
 116 4   H  1S         -0.00108  -0.00056   0.02520   0.09359  -0.07122
 117        2S         -0.00065   0.00044  -0.00103   0.08536  -0.06195
 118        3S         -0.00353  -0.00265  -0.04685  -0.03084   0.01155
 119        4S         -0.00027  -0.00016  -0.00181  -0.00206  -0.00786
 120        5PX         0.00000   0.00000   0.00000   0.00000   0.00000
 121        5PY        -0.00036  -0.00015   0.00122   0.00789  -0.00518
 122        5PZ        -0.00024  -0.00010   0.00102   0.00397  -0.00629
 123        6PX         0.00000   0.00000   0.00000   0.00000   0.00000
 124        6PY        -0.00048   0.00019  -0.00994  -0.00074   0.01258
 125        6PZ        -0.00015   0.00030  -0.00961  -0.00445  -0.00430
 126        7PX         0.00000   0.00000   0.00000   0.00000   0.00000
 127        7PY        -0.00049   0.00013  -0.00695  -0.01634   0.00552
 128        7PZ        -0.00070  -0.00101  -0.01845  -0.00593  -0.00774
 129        8D 0        0.00008   0.00000   0.00033  -0.00017  -0.00185
 130        8D+1        0.00000   0.00000   0.00000   0.00000   0.00000
 131        8D-1       -0.00028  -0.00013  -0.00068   0.00091  -0.00270
 132        8D+2        0.00018   0.00008   0.00054  -0.00112   0.00016
 133        8D-2        0.00000   0.00000   0.00000   0.00000   0.00000
 134        9D 0       -0.00024  -0.00004  -0.00196  -0.00123  -0.00112
 135        9D+1        0.00000   0.00000   0.00000   0.00000   0.00000
 136        9D-1        0.00012   0.00002  -0.00391  -0.00219   0.00350
 137        9D+2        0.00024  -0.00001   0.00179   0.00177  -0.00313
 138        9D-2        0.00000   0.00000   0.00000   0.00000   0.00000
                           6         7         8         9        10
     Eigenvalues --     1.96062   1.95674   1.92409   0.06464   0.02816
   1 1   O  1S          0.00492   0.00000   0.00000   0.00000   0.00000
   2        2S          0.00634   0.00000   0.00000   0.00000   0.00000
   3        3S          0.00597   0.00000   0.00000   0.00000   0.00000
   4        4S          0.11602   0.00000   0.00000   0.00000   0.00000
   5        5S          0.06269   0.00000   0.00000   0.00000   0.00000
   6        6PX         0.00000   0.00000   0.28168  -0.36594   0.00000
   7        6PY         0.00000   0.23896   0.00000   0.00000  -0.40240
   8        6PZ         0.27949   0.00000   0.00000   0.00000   0.00000
   9        7PX         0.00000   0.00000   0.35440  -0.43578   0.00000
  10        7PY         0.00000   0.29474   0.00000   0.00000  -0.30719
  11        7PZ         0.33672   0.00000   0.00000   0.00000   0.00000
  12        8PX         0.00000   0.00000   0.23275  -0.08138   0.00000
  13        8PY         0.00000   0.24091   0.00000   0.00000   0.17025
  14        8PZ         0.17985   0.00000   0.00000   0.00000   0.00000
  15        9PX         0.00000   0.00000   0.02067   0.00241   0.00000
  16        9PY         0.00000   0.04031   0.00000   0.00000   0.09813
  17        9PZ         0.00347   0.00000   0.00000   0.00000   0.00000
  18       10D 0       -0.01197   0.00000   0.00000   0.00000   0.00000
  19       10D+1        0.00000   0.00000  -0.01027  -0.01346   0.00000
  20       10D-1        0.00000  -0.00092   0.00000   0.00000  -0.03128
  21       10D+2       -0.00015   0.00000   0.00000   0.00000   0.00000
  22       10D-2        0.00000   0.00000   0.00000   0.00000   0.00000
  23       11D 0       -0.02867   0.00000   0.00000   0.00000   0.00000
  24       11D+1        0.00000   0.00000  -0.02858  -0.01203   0.00000
  25       11D-1        0.00000  -0.00217   0.00000   0.00000  -0.03941
  26       11D+2       -0.00101   0.00000   0.00000   0.00000   0.00000
  27       11D-2        0.00000   0.00000   0.00000   0.00000   0.00000
  28       12D 0       -0.00637   0.00000   0.00000   0.00000   0.00000
  29       12D+1        0.00000   0.00000  -0.01228   0.01691   0.00000
  30       12D-1        0.00000  -0.00325   0.00000   0.00000   0.01712
  31       12D+2       -0.00134   0.00000   0.00000   0.00000   0.00000
  32       12D-2        0.00000   0.00000   0.00000   0.00000   0.00000
  33       13F 0        0.00469   0.00000   0.00000   0.00000   0.00000
  34       13F+1        0.00000   0.00000   0.00514   0.00441   0.00000
  35       13F-1        0.00000   0.00044   0.00000   0.00000   0.00693
  36       13F+2        0.00116   0.00000   0.00000   0.00000   0.00000
  37       13F-2        0.00000   0.00000   0.00000   0.00000   0.00000
  38       13F+3        0.00000   0.00000   0.00154  -0.00353   0.00000
  39       13F-3        0.00000   0.00124   0.00000   0.00000  -0.00161
  40       14F 0        0.00639   0.00000   0.00000   0.00000   0.00000
  41       14F+1        0.00000   0.00000   0.00348  -0.00374   0.00000
  42       14F-1        0.00000   0.00168   0.00000   0.00000  -0.00204
  43       14F+2        0.00087   0.00000   0.00000   0.00000   0.00000
  44       14F-2        0.00000   0.00000   0.00000   0.00000   0.00000
  45       14F+3        0.00000   0.00000   0.00121  -0.00300   0.00000
  46       14F-3        0.00000  -0.00007   0.00000   0.00000  -0.00265
  47 2   C  1S          0.01173   0.00000   0.00000   0.00000   0.00000
  48        2S         -0.01997   0.00000   0.00000   0.00000   0.00000
  49        3S         -0.00684   0.00000   0.00000   0.00000   0.00000
  50        4S          0.11579   0.00000   0.00000   0.00000   0.00000
  51        5S         -0.00007   0.00000   0.00000   0.00000   0.00000
  52        6PX         0.00000   0.00000   0.19062   0.31133   0.00000
  53        6PY         0.00000  -0.16440   0.00000   0.00000   0.33698
  54        6PZ        -0.24122   0.00000   0.00000   0.00000   0.00000
  55        7PX         0.00000   0.00000   0.24846   0.48335   0.00000
  56        7PY         0.00000  -0.23080   0.00000   0.00000   0.64588
  57        7PZ        -0.25501   0.00000   0.00000   0.00000   0.00000
  58        8PX         0.00000   0.00000   0.12264   0.18982   0.00000
  59        8PY         0.00000  -0.25378   0.00000   0.00000   0.35131
  60        8PZ        -0.08511   0.00000   0.00000   0.00000   0.00000
  61        9PX         0.00000   0.00000   0.00169   0.00341   0.00000
  62        9PY         0.00000  -0.02316   0.00000   0.00000  -0.03730
  63        9PZ        -0.00182   0.00000   0.00000   0.00000   0.00000
  64       10D 0       -0.01947   0.00000   0.00000   0.00000   0.00000
  65       10D+1        0.00000   0.00000   0.02025  -0.00017   0.00000
  66       10D-1        0.00000   0.03340   0.00000   0.00000   0.03769
  67       10D+2       -0.00626   0.00000   0.00000   0.00000   0.00000
  68       10D-2        0.00000   0.00000   0.00000   0.00000   0.00000
  69       11D 0       -0.01182   0.00000   0.00000   0.00000   0.00000
  70       11D+1        0.00000   0.00000   0.02954   0.03973   0.00000
  71       11D-1        0.00000   0.08357   0.00000   0.00000   0.02995
  72       11D+2       -0.00646   0.00000   0.00000   0.00000   0.00000
  73       11D-2        0.00000   0.00000   0.00000   0.00000   0.00000
  74       12D 0        0.00120   0.00000   0.00000   0.00000   0.00000
  75       12D+1        0.00000   0.00000  -0.00430   0.00969   0.00000
  76       12D-1        0.00000   0.06780   0.00000   0.00000   0.03230
  77       12D+2       -0.00545   0.00000   0.00000   0.00000   0.00000
  78       12D-2        0.00000   0.00000   0.00000   0.00000   0.00000
  79       13F 0       -0.00754   0.00000   0.00000   0.00000   0.00000
  80       13F+1        0.00000   0.00000   0.00688   0.00955   0.00000
  81       13F-1        0.00000   0.00429   0.00000   0.00000   0.02462
  82       13F+2       -0.00146   0.00000   0.00000   0.00000   0.00000
  83       13F-2        0.00000   0.00000   0.00000   0.00000   0.00000
  84       13F+3        0.00000   0.00000   0.00023  -0.00123   0.00000
  85       13F-3        0.00000   0.00258   0.00000   0.00000  -0.00376
  86       14F 0        0.01086   0.00000   0.00000   0.00000   0.00000
  87       14F+1        0.00000   0.00000   0.00459   0.01747   0.00000
  88       14F-1        0.00000   0.00533   0.00000   0.00000   0.10552
  89       14F+2        0.00686   0.00000   0.00000   0.00000   0.00000
  90       14F-2        0.00000   0.00000   0.00000   0.00000   0.00000
  91       14F+3        0.00000   0.00000   0.00223   0.00628   0.00000
  92       14F-3        0.00000   0.00580   0.00000   0.00000   0.00570
  93 3   H  1S          0.07405  -0.13619   0.00000   0.00000  -0.15092
  94        2S          0.10270  -0.17148   0.00000   0.00000  -0.55592
  95        3S          0.00521   0.08076   0.00000   0.00000  -0.48660
  96        4S          0.00027   0.00959   0.00000   0.00000   0.00539
  97        5PX         0.00000   0.00000   0.00342   0.01224   0.00000
  98        5PY        -0.00822   0.00683   0.00000   0.00000  -0.00524
  99        5PZ         0.00179  -0.00482   0.00000   0.00000   0.01804
 100        6PX         0.00000   0.00000   0.00997   0.02452   0.00000
 101        6PY        -0.01325  -0.00750   0.00000   0.00000   0.13168
 102        6PZ         0.00174   0.00477   0.00000   0.00000   0.02487
 103        7PX         0.00000   0.00000  -0.00426  -0.00718   0.00000
 104        7PY         0.00462  -0.04255   0.00000   0.00000   0.08920
 105        7PZ        -0.00310   0.02035   0.00000   0.00000  -0.03136
 106        8D 0       -0.00212   0.00049   0.00000   0.00000   0.00982
 107        8D+1        0.00000   0.00000   0.00119   0.00381   0.00000
 108        8D-1       -0.00148   0.00096   0.00000   0.00000  -0.00812
 109        8D+2       -0.00218   0.00071   0.00000   0.00000   0.00434
 110        8D-2        0.00000   0.00000  -0.00127  -0.00604   0.00000
 111        9D 0        0.00389  -0.00251   0.00000   0.00000   0.00914
 112        9D+1        0.00000   0.00000   0.00131   0.00171   0.00000
 113        9D-1        0.00032   0.00010   0.00000   0.00000   0.01740
 114        9D+2       -0.00226  -0.00145   0.00000   0.00000   0.01764
 115        9D-2        0.00000   0.00000   0.00109   0.00386   0.00000
 116 4   H  1S          0.07405   0.13619   0.00000   0.00000   0.15092
 117        2S          0.10270   0.17148   0.00000   0.00000   0.55592
 118        3S          0.00521  -0.08076   0.00000   0.00000   0.48660
 119        4S          0.00027  -0.00959   0.00000   0.00000  -0.00539
 120        5PX         0.00000   0.00000   0.00342   0.01224   0.00000
 121        5PY         0.00822   0.00683   0.00000   0.00000  -0.00524
 122        5PZ         0.00179   0.00482   0.00000   0.00000  -0.01804
 123        6PX         0.00000   0.00000   0.00997   0.02452   0.00000
 124        6PY         0.01325  -0.00750   0.00000   0.00000   0.13168
 125        6PZ         0.00174  -0.00477   0.00000   0.00000  -0.02487
 126        7PX         0.00000   0.00000  -0.00426  -0.00718   0.00000
 127        7PY        -0.00462  -0.04255   0.00000   0.00000   0.08920
 128        7PZ        -0.00310  -0.02035   0.00000   0.00000   0.03136
 129        8D 0       -0.00212  -0.00049   0.00000   0.00000  -0.00982
 130        8D+1        0.00000   0.00000   0.00119   0.00381   0.00000
 131        8D-1        0.00148   0.00096   0.00000   0.00000  -0.00812
 132        8D+2       -0.00218  -0.00071   0.00000   0.00000  -0.00434
 133        8D-2        0.00000   0.00000   0.00127   0.00604   0.00000
 134        9D 0        0.00389   0.00251   0.00000   0.00000  -0.00914
 135        9D+1        0.00000   0.00000   0.00131   0.00171   0.00000
 136        9D-1       -0.00032   0.00010   0.00000   0.00000   0.01740
 137        9D+2       -0.00226   0.00145   0.00000   0.00000  -0.01764
 138        9D-2        0.00000   0.00000  -0.00109  -0.00386   0.00000
                          11        12        13        14        15
     Eigenvalues --     0.02590   0.02014   0.01191   0.01190   0.00762
   1 1   O  1S         -0.07195  -0.02830   0.00000  -0.23622   0.00000
   2        2S          0.28252   0.12396   0.00000   0.74504   0.00000
   3        3S          0.10958   0.05340   0.00000   0.63225   0.00000
   4        4S          0.60824   0.41759   0.00000  -1.36662   0.00000
   5        5S          0.36591   0.29181   0.00000  -0.58961   0.00000
   6        6PX         0.00000   0.00000   0.00000   0.00000   0.00000
   7        6PY         0.00000   0.00000   0.44502   0.00000   0.13397
   8        6PZ        -0.43729  -0.13396   0.00000   0.26350   0.00000
   9        7PX         0.00000   0.00000   0.00000   0.00000   0.00000
  10        7PY         0.00000   0.00000   0.19741   0.00000   0.02888
  11        7PZ        -0.51972  -0.19414   0.00000   0.06726   0.00000
  12        8PX         0.00000   0.00000   0.00000   0.00000   0.00000
  13        8PY         0.00000   0.00000  -0.40853   0.00000  -0.18832
  14        8PZ        -0.10418  -0.19023   0.00000  -0.12104   0.00000
  15        9PX         0.00000   0.00000   0.00000   0.00000   0.00000
  16        9PY         0.00000   0.00000  -0.05970   0.00000  -0.04407
  17        9PZ        -0.03913  -0.05520   0.00000   0.04125   0.00000
  18       10D 0       -0.03054  -0.02319   0.00000   0.00646   0.00000
  19       10D+1        0.00000   0.00000   0.00000   0.00000   0.00000
  20       10D-1        0.00000   0.00000  -0.01119   0.00000  -0.20894
  21       10D+2       -0.01056   0.00227   0.00000  -0.02491   0.00000
  22       10D-2        0.00000   0.00000   0.00000   0.00000   0.00000
  23       11D 0       -0.01709  -0.03490   0.00000  -0.03130   0.00000
  24       11D+1        0.00000   0.00000   0.00000   0.00000   0.00000
  25       11D-1        0.00000   0.00000  -0.07937   0.00000  -0.51199
  26       11D+2       -0.02175   0.00898   0.00000  -0.00006   0.00000
  27       11D-2        0.00000   0.00000   0.00000   0.00000   0.00000
  28       12D 0       -0.00179   0.02901   0.00000  -0.03004   0.00000
  29       12D+1        0.00000   0.00000   0.00000   0.00000   0.00000
  30       12D-1        0.00000   0.00000  -0.01718   0.00000  -0.12247
  31       12D+2       -0.00954   0.00139   0.00000   0.00841   0.00000
  32       12D-2        0.00000   0.00000   0.00000   0.00000   0.00000
  33       13F 0       -0.00037   0.00469   0.00000  -0.00249   0.00000
  34       13F+1        0.00000   0.00000   0.00000   0.00000   0.00000
  35       13F-1        0.00000   0.00000   0.01377   0.00000   0.03508
  36       13F+2       -0.00061  -0.00164   0.00000   0.00032   0.00000
  37       13F-2        0.00000   0.00000   0.00000   0.00000   0.00000
  38       13F+3        0.00000   0.00000   0.00000   0.00000   0.00000
  39       13F-3        0.00000   0.00000  -0.00282   0.00000  -0.00028
  40       14F 0        0.00825   0.01083   0.00000   0.01828   0.00000
  41       14F+1        0.00000   0.00000   0.00000   0.00000   0.00000
  42       14F-1        0.00000   0.00000   0.00757   0.00000   0.07576
  43       14F+2        0.00091  -0.00554   0.00000   0.00722   0.00000
  44       14F-2        0.00000   0.00000   0.00000   0.00000   0.00000
  45       14F+3        0.00000   0.00000   0.00000   0.00000   0.00000
  46       14F-3        0.00000   0.00000   0.01782   0.00000   0.00178
  47 2   C  1S          0.16990  -0.10758   0.00000  -0.00073   0.00000
  48        2S         -0.63688   0.42405   0.00000   0.06999   0.00000
  49        3S         -0.26869   0.24623   0.00000   0.06992   0.00000
  50        4S         -0.20426   0.06854   0.00000  -0.13303   0.00000
  51        5S         -0.10774  -0.09838   0.00000   0.11421   0.00000
  52        6PX         0.00000   0.00000   0.00000   0.00000   0.00000
  53        6PY         0.00000   0.00000   0.41250   0.00000  -0.12439
  54        6PZ        -0.22502  -0.41494   0.00000  -0.01640   0.00000
  55        7PX         0.00000   0.00000   0.00000   0.00000   0.00000
  56        7PY         0.00000   0.00000   0.77768   0.00000  -0.18175
  57        7PZ        -0.55065  -0.73447   0.00000   0.12336   0.00000
  58        8PX         0.00000   0.00000   0.00000   0.00000   0.00000
  59        8PY         0.00000   0.00000   0.56995   0.00000   0.06832
  60        8PZ        -0.30281  -0.23978   0.00000   0.27413   0.00000
  61        9PX         0.00000   0.00000   0.00000   0.00000   0.00000
  62        9PY         0.00000   0.00000   0.04833   0.00000  -0.00103
  63        9PZ        -0.01351  -0.00799   0.00000   0.01998   0.00000
  64       10D 0        0.01849   0.01503   0.00000   0.01335   0.00000
  65       10D+1        0.00000   0.00000   0.00000   0.00000   0.00000
  66       10D-1        0.00000   0.00000  -0.10114   0.00000   0.24740
  67       10D+2       -0.00568   0.01454   0.00000  -0.02699   0.00000
  68       10D-2        0.00000   0.00000   0.00000   0.00000   0.00000
  69       11D 0       -0.08884  -0.07005   0.00000  -0.01690   0.00000
  70       11D+1        0.00000   0.00000   0.00000   0.00000   0.00000
  71       11D-1        0.00000   0.00000  -0.58197   0.00000   0.09240
  72       11D+2       -0.07451  -0.03738   0.00000  -0.01991   0.00000
  73       11D-2        0.00000   0.00000   0.00000   0.00000   0.00000
  74       12D 0       -0.06588  -0.03895   0.00000   0.10426   0.00000
  75       12D+1        0.00000   0.00000   0.00000   0.00000   0.00000
  76       12D-1        0.00000   0.00000  -0.19981   0.00000  -0.15700
  77       12D+2       -0.02128  -0.02688   0.00000   0.05761   0.00000
  78       12D-2        0.00000   0.00000   0.00000   0.00000   0.00000
  79       13F 0       -0.00730  -0.01557   0.00000  -0.00078   0.00000
  80       13F+1        0.00000   0.00000   0.00000   0.00000   0.00000
  81       13F-1        0.00000   0.00000  -0.00751   0.00000   0.00838
  82       13F+2       -0.00009   0.01074   0.00000  -0.00101   0.00000
  83       13F-2        0.00000   0.00000   0.00000   0.00000   0.00000
  84       13F+3        0.00000   0.00000   0.00000   0.00000   0.00000
  85       13F-3        0.00000   0.00000  -0.02468   0.00000   0.01852
  86       14F 0       -0.00015  -0.00227   0.00000  -0.03305   0.00000
  87       14F+1        0.00000   0.00000   0.00000   0.00000   0.00000
  88       14F-1        0.00000   0.00000  -0.12936   0.00000  -0.08546
  89       14F+2        0.01841   0.01330   0.00000  -0.01449   0.00000
  90       14F-2        0.00000   0.00000   0.00000   0.00000   0.00000
  91       14F+3        0.00000   0.00000   0.00000   0.00000   0.00000
  92       14F-3        0.00000   0.00000  -0.08854   0.00000   0.01285
  93 3   H  1S          0.11078  -0.23728  -0.09395   0.06048  -0.12418
  94        2S          0.07193  -0.62680  -0.87734   0.14335   0.08179
  95        3S         -0.09196  -0.19881  -0.73489   0.19381   0.07123
  96        4S          0.00645   0.00782  -0.03537  -0.00588   0.01562
  97        5PX         0.00000   0.00000   0.00000   0.00000   0.00000
  98        5PY        -0.00158  -0.02412  -0.03351  -0.01345   0.06455
  99        5PZ        -0.01277  -0.00856   0.01747   0.00748  -0.01251
 100        6PX         0.00000   0.00000   0.00000   0.00000   0.00000
 101        6PY         0.02480   0.05377   0.12841  -0.04537   0.07713
 102        6PZ        -0.06498  -0.08005  -0.17630   0.02769  -0.01259
 103        7PX         0.00000   0.00000   0.00000   0.00000   0.00000
 104        7PY         0.01762   0.02077   0.15163  -0.01170   0.05789
 105        7PZ        -0.05327  -0.03907  -0.09348   0.09787   0.03087
 106        8D 0       -0.00296  -0.01123  -0.00618  -0.00281   0.01853
 107        8D+1        0.00000   0.00000   0.00000   0.00000   0.00000
 108        8D-1        0.00861  -0.00240  -0.00671  -0.00559   0.00552
 109        8D+2       -0.00004  -0.00997  -0.01222  -0.00702   0.01604
 110        8D-2        0.00000   0.00000   0.00000   0.00000   0.00000
 111        9D 0       -0.00522  -0.00087   0.00820  -0.00712   0.02325
 112        9D+1        0.00000   0.00000   0.00000   0.00000   0.00000
 113        9D-1        0.01965   0.01584   0.01549  -0.01981   0.00858
 114        9D+2       -0.00041   0.00862   0.00689  -0.00317   0.01801
 115        9D-2        0.00000   0.00000   0.00000   0.00000   0.00000
 116 4   H  1S          0.11078  -0.23728   0.09395   0.06048   0.12418
 117        2S          0.07193  -0.62680   0.87734   0.14335  -0.08179
 118        3S         -0.09196  -0.19881   0.73489   0.19381  -0.07123
 119        4S          0.00645   0.00782   0.03537  -0.00588  -0.01562
 120        5PX         0.00000   0.00000   0.00000   0.00000   0.00000
 121        5PY         0.00158   0.02412  -0.03351   0.01345   0.06455
 122        5PZ        -0.01277  -0.00856  -0.01747   0.00748   0.01251
 123        6PX         0.00000   0.00000   0.00000   0.00000   0.00000
 124        6PY        -0.02480  -0.05377   0.12841   0.04537   0.07713
 125        6PZ        -0.06498  -0.08005   0.17630   0.02769   0.01259
 126        7PX         0.00000   0.00000   0.00000   0.00000   0.00000
 127        7PY        -0.01762  -0.02077   0.15163   0.01170   0.05789
 128        7PZ        -0.05327  -0.03907   0.09348   0.09787  -0.03087
 129        8D 0       -0.00296  -0.01123   0.00618  -0.00281  -0.01853
 130        8D+1        0.00000   0.00000   0.00000   0.00000   0.00000
 131        8D-1       -0.00861   0.00240  -0.00671   0.00559   0.00552
 132        8D+2       -0.00004  -0.00997   0.01222  -0.00702  -0.01604
 133        8D-2        0.00000   0.00000   0.00000   0.00000   0.00000
 134        9D 0       -0.00522  -0.00087  -0.00820  -0.00712  -0.02325
 135        9D+1        0.00000   0.00000   0.00000   0.00000   0.00000
 136        9D-1       -0.01965  -0.01584   0.01549   0.01981   0.00858
 137        9D+2       -0.00041   0.00862  -0.00689  -0.00317  -0.01801
 138        9D-2        0.00000   0.00000   0.00000   0.00000   0.00000
                          16        17        18        19        20
     Eigenvalues --     0.00748   0.00721   0.00708   0.00702   0.00593
   1 1   O  1S         -0.01293   0.00000   0.00000  -0.02381   0.00000
   2        2S          0.02067   0.00000   0.00000   0.05478   0.00000
   3        3S          0.03528   0.00000   0.00000   0.07335   0.00000
   4        4S         -0.07842   0.00000   0.00000  -0.18603   0.00000
   5        5S          0.11450   0.00000   0.00000  -0.11490   0.00000
   6        6PX         0.00000   0.20787   0.00000   0.00000  -0.45332
   7        6PY         0.00000   0.00000   0.00000   0.00000   0.00000
   8        6PZ        -0.06238   0.00000   0.00000   0.14189   0.00000
   9        7PX         0.00000   0.09662   0.00000   0.00000  -0.16173
  10        7PY         0.00000   0.00000   0.00000   0.00000   0.00000
  11        7PZ         0.01767   0.00000   0.00000   0.01712   0.00000
  12        8PX         0.00000  -0.38114   0.00000   0.00000   0.53986
  13        8PY         0.00000   0.00000   0.00000   0.00000   0.00000
  14        8PZ         0.20824   0.00000   0.00000  -0.26417   0.00000
  15        9PX         0.00000  -0.07982   0.00000   0.00000   0.08359
  16        9PY         0.00000   0.00000   0.00000   0.00000   0.00000
  17        9PZ         0.00055   0.00000   0.00000  -0.01203   0.00000
  18       10D 0        0.20800   0.00000   0.00000  -0.06755   0.00000
  19       10D+1        0.00000  -0.19978   0.00000   0.00000  -0.09562
  20       10D-1        0.00000   0.00000   0.00000   0.00000   0.00000
  21       10D+2        0.04509   0.00000   0.00000   0.16763   0.00000
  22       10D-2        0.00000   0.00000   0.19749   0.00000   0.00000
  23       11D 0        0.45290   0.00000   0.00000  -0.15073   0.00000
  24       11D+1        0.00000  -0.47139   0.00000   0.00000  -0.18455
  25       11D-1        0.00000   0.00000   0.00000   0.00000   0.00000
  26       11D+2        0.08957   0.00000   0.00000   0.39576   0.00000
  27       11D-2        0.00000   0.00000   0.43457   0.00000   0.00000
  28       12D 0        0.05732   0.00000   0.00000   0.04897   0.00000
  29       12D+1        0.00000  -0.00596   0.00000   0.00000  -0.07088
  30       12D-1        0.00000   0.00000   0.00000   0.00000   0.00000
  31       12D+2        0.01593   0.00000   0.00000   0.10270   0.00000
  32       12D-2        0.00000   0.00000   0.07558   0.00000   0.00000
  33       13F 0       -0.03910   0.00000   0.00000   0.01597   0.00000
  34       13F+1        0.00000   0.04990   0.00000   0.00000  -0.00813
  35       13F-1        0.00000   0.00000   0.00000   0.00000   0.00000
  36       13F+2       -0.00574   0.00000   0.00000  -0.02131   0.00000
  37       13F-2        0.00000   0.00000  -0.02520   0.00000   0.00000
  38       13F+3        0.00000  -0.00629   0.00000   0.00000   0.01602
  39       13F-3        0.00000   0.00000   0.00000   0.00000   0.00000
  40       14F 0       -0.07068   0.00000   0.00000   0.00979   0.00000
  41       14F+1        0.00000   0.05448   0.00000   0.00000   0.02457
  42       14F-1        0.00000   0.00000   0.00000   0.00000   0.00000
  43       14F+2       -0.00674   0.00000   0.00000  -0.05069   0.00000
  44       14F-2        0.00000   0.00000  -0.04637   0.00000   0.00000
  45       14F+3        0.00000   0.00819   0.00000   0.00000  -0.01090
  46       14F-3        0.00000   0.00000   0.00000   0.00000   0.00000
  47 2   C  1S         -0.06233   0.00000   0.00000   0.09112   0.00000
  48        2S          0.16285   0.00000   0.00000  -0.28304   0.00000
  49        3S          0.11301   0.00000   0.00000  -0.25305   0.00000
  50        4S          0.12392   0.00000   0.00000  -0.61397   0.00000
  51        5S         -0.01387   0.00000   0.00000  -0.07962   0.00000
  52        6PX         0.00000   0.25604   0.00000   0.00000  -0.19764
  53        6PY         0.00000   0.00000   0.00000   0.00000   0.00000
  54        6PZ         0.24853   0.00000   0.00000   0.05518   0.00000
  55        7PX         0.00000   0.13344   0.00000   0.00000  -0.33499
  56        7PY         0.00000   0.00000   0.00000   0.00000   0.00000
  57        7PZ        -0.26380   0.00000   0.00000   0.20660   0.00000
  58        8PX         0.00000  -0.13604   0.00000   0.00000   0.09967
  59        8PY         0.00000   0.00000   0.00000   0.00000   0.00000
  60        8PZ        -0.08664   0.00000   0.00000   0.29560   0.00000
  61        9PX         0.00000   0.02446   0.00000   0.00000  -0.01953
  62        9PY         0.00000   0.00000   0.00000   0.00000   0.00000
  63        9PZ         0.00570   0.00000   0.00000   0.02364   0.00000
  64       10D 0        0.22058   0.00000   0.00000  -0.02751   0.00000
  65       10D+1        0.00000   0.18981   0.00000   0.00000   0.21046
  66       10D-1        0.00000   0.00000   0.00000   0.00000   0.00000
  67       10D+2        0.05608   0.00000   0.00000   0.22360   0.00000
  68       10D-2        0.00000   0.00000   0.24599   0.00000   0.00000
  69       11D 0        0.14784   0.00000   0.00000   0.03830   0.00000
  70       11D+1        0.00000   0.02754   0.00000   0.00000   0.31260
  71       11D-1        0.00000   0.00000   0.00000   0.00000   0.00000
  72       11D+2        0.01861   0.00000   0.00000   0.41805   0.00000
  73       11D-2        0.00000   0.00000   0.30897   0.00000   0.00000
  74       12D 0       -0.03330   0.00000   0.00000   0.08155   0.00000
  75       12D+1        0.00000   0.00543   0.00000   0.00000  -0.05063
  76       12D-1        0.00000   0.00000   0.00000   0.00000   0.00000
  77       12D+2       -0.01754   0.00000   0.00000   0.07234   0.00000
  78       12D-2        0.00000   0.00000   0.00931   0.00000   0.00000
  79       13F 0        0.05746   0.00000   0.00000  -0.05258   0.00000
  80       13F+1        0.00000   0.04166   0.00000   0.00000  -0.00600
  81       13F-1        0.00000   0.00000   0.00000   0.00000   0.00000
  82       13F+2        0.01848   0.00000   0.00000   0.00174   0.00000
  83       13F-2        0.00000   0.00000   0.00882   0.00000   0.00000
  84       13F+3        0.00000  -0.00044   0.00000   0.00000   0.04828
  85       13F-3        0.00000   0.00000   0.00000   0.00000   0.00000
  86       14F 0       -0.04604   0.00000   0.00000  -0.08962   0.00000
  87       14F+1        0.00000  -0.06598   0.00000   0.00000   0.03791
  88       14F-1        0.00000   0.00000   0.00000   0.00000   0.00000
  89       14F+2       -0.02445   0.00000   0.00000  -0.11181   0.00000
  90       14F-2        0.00000   0.00000  -0.01109   0.00000   0.00000
  91       14F+3        0.00000  -0.05962   0.00000   0.00000   0.03865
  92       14F-3        0.00000   0.00000   0.00000   0.00000   0.00000
  93 3   H  1S         -0.03387   0.00000   0.00000  -0.09581   0.00000
  94        2S         -0.09348   0.00000   0.00000   0.46906   0.00000
  95        3S         -0.06945   0.00000   0.00000   0.42250   0.00000
  96        4S         -0.00001   0.00000   0.00000   0.01456   0.00000
  97        5PX         0.00000  -0.01905   0.06995   0.00000  -0.06528
  98        5PY         0.00035   0.00000   0.00000   0.03267   0.00000
  99        5PZ        -0.05563   0.00000   0.00000  -0.04911   0.00000
 100        6PX         0.00000  -0.14913   0.11715   0.00000  -0.04315
 101        6PY         0.05896   0.00000   0.00000  -0.07162   0.00000
 102        6PZ        -0.14797   0.00000   0.00000   0.00298   0.00000
 103        7PX         0.00000  -0.05082   0.00437   0.00000  -0.00151
 104        7PY         0.02006   0.00000   0.00000  -0.05261   0.00000
 105        7PZ        -0.07282   0.00000   0.00000   0.06430   0.00000
 106        8D 0       -0.01305   0.00000   0.00000  -0.01576   0.00000
 107        8D+1        0.00000  -0.00361   0.02579   0.00000  -0.01154
 108        8D-1        0.02826   0.00000   0.00000   0.01467   0.00000
 109        8D+2       -0.00060   0.00000   0.00000   0.01051   0.00000
 110        8D-2        0.00000   0.01670  -0.03822   0.00000   0.03341
 111        9D 0       -0.02216   0.00000   0.00000  -0.01390   0.00000
 112        9D+1        0.00000  -0.05647   0.00239   0.00000   0.03541
 113        9D-1        0.02779   0.00000   0.00000  -0.00839   0.00000
 114        9D+2        0.02251   0.00000   0.00000   0.01923   0.00000
 115        9D-2        0.00000   0.02898  -0.00616   0.00000  -0.01370
 116 4   H  1S         -0.03387   0.00000   0.00000  -0.09581   0.00000
 117        2S         -0.09348   0.00000   0.00000   0.46906   0.00000
 118        3S         -0.06945   0.00000   0.00000   0.42250   0.00000
 119        4S         -0.00001   0.00000   0.00000   0.01456   0.00000
 120        5PX         0.00000  -0.01905  -0.06995   0.00000  -0.06528
 121        5PY        -0.00035   0.00000   0.00000  -0.03267   0.00000
 122        5PZ        -0.05563   0.00000   0.00000  -0.04911   0.00000
 123        6PX         0.00000  -0.14913  -0.11715   0.00000  -0.04315
 124        6PY        -0.05896   0.00000   0.00000   0.07162   0.00000
 125        6PZ        -0.14797   0.00000   0.00000   0.00298   0.00000
 126        7PX         0.00000  -0.05082  -0.00437   0.00000  -0.00151
 127        7PY        -0.02006   0.00000   0.00000   0.05261   0.00000
 128        7PZ        -0.07282   0.00000   0.00000   0.06430   0.00000
 129        8D 0       -0.01305   0.00000   0.00000  -0.01576   0.00000
 130        8D+1        0.00000  -0.00361  -0.02579   0.00000  -0.01154
 131        8D-1       -0.02826   0.00000   0.00000  -0.01467   0.00000
 132        8D+2       -0.00060   0.00000   0.00000   0.01051   0.00000
 133        8D-2        0.00000  -0.01670  -0.03822   0.00000  -0.03341
 134        9D 0       -0.02216   0.00000   0.00000  -0.01390   0.00000
 135        9D+1        0.00000  -0.05647  -0.00239   0.00000   0.03541
 136        9D-1       -0.02779   0.00000   0.00000   0.00839   0.00000
 137        9D+2        0.02251   0.00000   0.00000   0.01923   0.00000
 138        9D-2        0.00000  -0.02898  -0.00616   0.00000   0.01370
                          21        22        23        24        25
     Eigenvalues --     0.00519   0.00483   0.00335   0.00282   0.00251
   1 1   O  1S         -0.00949   0.00000   0.00000   0.11886   0.00000
   2        2S          0.02224   0.00000   0.00000  -0.33573   0.00000
   3        3S          0.00826   0.00000   0.00000  -0.38068   0.00000
   4        4S          0.38557   0.00000   0.00000  -0.28528   0.00000
   5        5S          0.12726   0.00000   0.00000  -0.51512   0.00000
   6        6PX         0.00000   0.00000   0.00000   0.00000  -0.14875
   7        6PY         0.00000   0.00000   0.18957   0.00000   0.00000
   8        6PZ        -0.20201   0.00000   0.00000   0.36620   0.00000
   9        7PX         0.00000   0.00000   0.00000   0.00000   0.03558
  10        7PY         0.00000   0.00000  -0.04048   0.00000   0.00000
  11        7PZ        -0.04780   0.00000   0.00000   0.08531   0.00000
  12        8PX         0.00000   0.00000   0.00000   0.00000  -0.41860
  13        8PY         0.00000   0.00000  -0.71544   0.00000   0.00000
  14        8PZ         0.01346   0.00000   0.00000  -0.24572   0.00000
  15        9PX         0.00000   0.00000   0.00000   0.00000  -0.06678
  16        9PY         0.00000   0.00000  -0.04377   0.00000   0.00000
  17        9PZ        -0.01770   0.00000   0.00000   0.06584   0.00000
  18       10D 0        0.05887   0.00000   0.00000  -0.17232   0.00000
  19       10D+1        0.00000   0.00000   0.00000   0.00000   0.33168
  20       10D-1        0.00000   0.00000   0.30239   0.00000   0.00000
  21       10D+2        0.25979   0.00000   0.00000   0.07962   0.00000
  22       10D-2        0.00000   0.27381   0.00000   0.00000   0.00000
  23       11D 0        0.13016   0.00000   0.00000  -0.34756   0.00000
  24       11D+1        0.00000   0.00000   0.00000   0.00000   0.55357
  25       11D-1        0.00000   0.00000   0.45887   0.00000   0.00000
  26       11D+2        0.50692   0.00000   0.00000   0.05797   0.00000
  27       11D-2        0.00000   0.51331   0.00000   0.00000   0.00000
  28       12D 0        0.02146   0.00000   0.00000   0.03867   0.00000
  29       12D+1        0.00000   0.00000   0.00000   0.00000   0.18868
  30       12D-1        0.00000   0.00000   0.17532   0.00000   0.00000
  31       12D+2        0.07387   0.00000   0.00000  -0.07801   0.00000
  32       12D-2        0.00000   0.09849   0.00000   0.00000   0.00000
  33       13F 0       -0.01193   0.00000   0.00000   0.00779   0.00000
  34       13F+1        0.00000   0.00000   0.00000   0.00000   0.03254
  35       13F-1        0.00000   0.00000   0.00422   0.00000   0.00000
  36       13F+2       -0.01289   0.00000   0.00000  -0.00028   0.00000
  37       13F-2        0.00000  -0.00040   0.00000   0.00000   0.00000
  38       13F+3        0.00000   0.00000   0.00000   0.00000  -0.01086
  39       13F-3        0.00000   0.00000  -0.00130   0.00000   0.00000
  40       14F 0       -0.01028   0.00000   0.00000   0.02263   0.00000
  41       14F+1        0.00000   0.00000   0.00000   0.00000  -0.02132
  42       14F-1        0.00000   0.00000  -0.01844   0.00000   0.00000
  43       14F+2       -0.03452   0.00000   0.00000   0.03899   0.00000
  44       14F-2        0.00000  -0.02442   0.00000   0.00000   0.00000
  45       14F+3        0.00000   0.00000   0.00000   0.00000  -0.01620
  46       14F-3        0.00000   0.00000  -0.00238   0.00000   0.00000
  47 2   C  1S         -0.03615   0.00000   0.00000  -0.04296   0.00000
  48        2S          0.12254   0.00000   0.00000   0.17004   0.00000
  49        3S          0.11422   0.00000   0.00000   0.16219   0.00000
  50        4S         -0.23345   0.00000   0.00000  -0.21997   0.00000
  51        5S         -0.07691   0.00000   0.00000   0.05386   0.00000
  52        6PX         0.00000   0.00000   0.00000   0.00000   0.51560
  53        6PY         0.00000   0.00000   0.12857   0.00000   0.00000
  54        6PZ        -0.15402   0.00000   0.00000   0.24528   0.00000
  55        7PX         0.00000   0.00000   0.00000   0.00000   0.41478
  56        7PY         0.00000   0.00000   0.31607   0.00000   0.00000
  57        7PZ        -0.26428   0.00000   0.00000   0.17041   0.00000
  58        8PX         0.00000   0.00000   0.00000   0.00000   0.14785
  59        8PY         0.00000   0.00000   1.50577   0.00000   0.00000
  60        8PZ        -0.09657   0.00000   0.00000   0.71722   0.00000
  61        9PX         0.00000   0.00000   0.00000   0.00000   0.01492
  62        9PY         0.00000   0.00000   0.02683   0.00000   0.00000
  63        9PZ        -0.00376   0.00000   0.00000   0.03479   0.00000
  64       10D 0       -0.08298   0.00000   0.00000   0.28280   0.00000
  65       10D+1        0.00000   0.00000   0.00000   0.00000   0.17874
  66       10D-1        0.00000   0.00000   0.08769   0.00000   0.00000
  67       10D+2       -0.11405   0.00000   0.00000  -0.05136   0.00000
  68       10D-2        0.00000  -0.20488   0.00000   0.00000   0.00000
  69       11D 0       -0.21617   0.00000   0.00000   0.52572   0.00000
  70       11D+1        0.00000   0.00000   0.00000   0.00000   0.37273
  71       11D-1        0.00000   0.00000   0.28363   0.00000   0.00000
  72       11D+2       -0.24651   0.00000   0.00000  -0.10367   0.00000
  73       11D-2        0.00000  -0.25951   0.00000   0.00000   0.00000
  74       12D 0       -0.00772   0.00000   0.00000   0.24434   0.00000
  75       12D+1        0.00000   0.00000   0.00000   0.00000   0.03860
  76       12D-1        0.00000   0.00000  -0.16731   0.00000   0.00000
  77       12D+2        0.03568   0.00000   0.00000   0.15869   0.00000
  78       12D-2        0.00000   0.04265   0.00000   0.00000   0.00000
  79       13F 0        0.06707   0.00000   0.00000  -0.03733   0.00000
  80       13F+1        0.00000   0.00000   0.00000   0.00000  -0.00736
  81       13F-1        0.00000   0.00000  -0.22809   0.00000   0.00000
  82       13F+2        0.09389   0.00000   0.00000   0.07402   0.00000
  83       13F-2        0.00000   0.10398   0.00000   0.00000   0.00000
  84       13F+3        0.00000   0.00000   0.00000   0.00000   0.03824
  85       13F-3        0.00000   0.00000  -0.00257   0.00000   0.00000
  86       14F 0        0.05471   0.00000   0.00000   0.18300   0.00000
  87       14F+1        0.00000   0.00000   0.00000   0.00000   0.09211
  88       14F-1        0.00000   0.00000   0.01248   0.00000   0.00000
  89       14F+2        0.07779   0.00000   0.00000   0.10993   0.00000
  90       14F-2        0.00000   0.00716   0.00000   0.00000   0.00000
  91       14F+3        0.00000   0.00000   0.00000   0.00000   0.00313
  92       14F-3        0.00000   0.00000   0.00336   0.00000   0.00000
  93 3   H  1S          0.16403   0.00000  -0.30008   0.24277   0.00000
  94        2S         -0.24073   0.00000  -0.14538  -0.08806   0.00000
  95        3S         -0.10580   0.00000  -1.12320   0.30493   0.00000
  96        4S          0.00646   0.00000  -0.01503   0.00172   0.00000
  97        5PX         0.00000  -0.09273   0.00000   0.00000  -0.09059
  98        5PY        -0.01597   0.00000   0.10377  -0.10331   0.00000
  99        5PZ         0.06600   0.00000   0.01653  -0.04157   0.00000
 100        6PX         0.00000  -0.20412   0.00000   0.00000  -0.23773
 101        6PY         0.07124   0.00000   0.15191  -0.07428   0.00000
 102        6PZ         0.03523   0.00000   0.06463  -0.12428   0.00000
 103        7PX         0.00000  -0.06549   0.00000   0.00000  -0.07194
 104        7PY         0.03853   0.00000   0.33545   0.01685   0.00000
 105        7PZ         0.00412   0.00000  -0.17549   0.10737   0.00000
 106        8D 0        0.02110   0.00000   0.00625  -0.03452   0.00000
 107        8D+1        0.00000  -0.02954   0.00000   0.00000  -0.02052
 108        8D-1       -0.02299   0.00000   0.01881   0.00889   0.00000
 109        8D+2       -0.00303   0.00000   0.02618  -0.04766   0.00000
 110        8D-2        0.00000   0.04200   0.00000   0.00000   0.04489
 111        9D 0        0.00176   0.00000   0.01448   0.02269   0.00000
 112        9D+1        0.00000   0.00148   0.00000   0.00000  -0.01737
 113        9D-1        0.00470   0.00000   0.00381   0.02403   0.00000
 114        9D+2       -0.01340   0.00000   0.03109  -0.01401   0.00000
 115        9D-2        0.00000   0.02235   0.00000   0.00000   0.03798
 116 4   H  1S          0.16403   0.00000   0.30008   0.24277   0.00000
 117        2S         -0.24073   0.00000   0.14538  -0.08806   0.00000
 118        3S         -0.10580   0.00000   1.12320   0.30493   0.00000
 119        4S          0.00646   0.00000   0.01503   0.00172   0.00000
 120        5PX         0.00000   0.09273   0.00000   0.00000  -0.09059
 121        5PY         0.01597   0.00000   0.10377   0.10331   0.00000
 122        5PZ         0.06600   0.00000  -0.01653  -0.04157   0.00000
 123        6PX         0.00000   0.20412   0.00000   0.00000  -0.23773
 124        6PY        -0.07124   0.00000   0.15191   0.07428   0.00000
 125        6PZ         0.03523   0.00000  -0.06463  -0.12428   0.00000
 126        7PX         0.00000   0.06549   0.00000   0.00000  -0.07194
 127        7PY        -0.03853   0.00000   0.33545  -0.01685   0.00000
 128        7PZ         0.00412   0.00000   0.17549   0.10737   0.00000
 129        8D 0        0.02110   0.00000  -0.00625  -0.03452   0.00000
 130        8D+1        0.00000   0.02954   0.00000   0.00000  -0.02052
 131        8D-1        0.02299   0.00000   0.01881  -0.00889   0.00000
 132        8D+2       -0.00303   0.00000  -0.02618  -0.04766   0.00000
 133        8D-2        0.00000   0.04200   0.00000   0.00000  -0.04489
 134        9D 0        0.00176   0.00000  -0.01448   0.02269   0.00000
 135        9D+1        0.00000  -0.00148   0.00000   0.00000  -0.01737
 136        9D-1       -0.00470   0.00000   0.00381  -0.02403   0.00000
 137        9D+2       -0.01340   0.00000  -0.03109  -0.01401   0.00000
 138        9D-2        0.00000   0.02235   0.00000   0.00000  -0.03798
                          26        27        28        29        30
     Eigenvalues --     0.00212   0.00162   0.00137   0.00132   0.00107
   1 1   O  1S          0.00000   0.00831   0.05011   0.00000   0.00000
   2        2S          0.00000  -0.02055  -0.28234   0.00000   0.00000
   3        3S          0.00000  -0.01936  -0.27844   0.00000   0.00000
   4        4S          0.00000  -0.05950   0.17546   0.00000   0.00000
   5        5S          0.00000   0.16405  -0.50147   0.00000   0.00000
   6        6PX         0.00000   0.00000   0.00000   0.00000   0.00000
   7        6PY        -0.29424   0.00000   0.00000  -0.45152   0.00000
   8        6PZ         0.00000   0.22717   0.14285   0.00000   0.00000
   9        7PX         0.00000   0.00000   0.00000   0.00000   0.00000
  10        7PY         0.13261   0.00000   0.00000   0.47617   0.00000
  11        7PZ         0.00000  -0.17247   0.12696   0.00000   0.00000
  12        8PX         0.00000   0.00000   0.00000   0.00000   0.00000
  13        8PY        -0.23840   0.00000   0.00000  -0.09992   0.00000
  14        8PZ         0.00000  -0.22145  -1.03020   0.00000   0.00000
  15        9PX         0.00000   0.00000   0.00000   0.00000   0.00000
  16        9PY        -0.04193   0.00000   0.00000  -0.18989   0.00000
  17        9PZ         0.00000  -0.01832   0.05744   0.00000   0.00000
  18       10D 0        0.00000   0.17688   0.40757   0.00000   0.00000
  19       10D+1        0.00000   0.00000   0.00000   0.00000   0.00000
  20       10D-1        0.05351   0.00000   0.00000   0.16632   0.00000
  21       10D+2        0.00000   0.26511  -0.07942   0.00000   0.00000
  22       10D-2        0.00000   0.00000   0.00000   0.00000  -0.34421
  23       11D 0        0.00000   0.16288   0.35560   0.00000   0.00000
  24       11D+1        0.00000   0.00000   0.00000   0.00000   0.00000
  25       11D-1        0.21651   0.00000   0.00000   0.19489   0.00000
  26       11D+2        0.00000   0.25620  -0.15354   0.00000   0.00000
  27       11D-2        0.00000   0.00000   0.00000   0.00000  -0.22025
  28       12D 0        0.00000   0.03689   0.22619   0.00000   0.00000
  29       12D+1        0.00000   0.00000   0.00000   0.00000   0.00000
  30       12D-1        0.14369   0.00000   0.00000   0.10017   0.00000
  31       12D+2        0.00000  -0.02535  -0.06846   0.00000   0.00000
  32       12D-2        0.00000   0.00000   0.00000   0.00000   0.08442
  33       13F 0        0.00000   0.07251   0.14788   0.00000   0.00000
  34       13F+1        0.00000   0.00000   0.00000   0.00000   0.00000
  35       13F-1       -0.00521   0.00000   0.00000   0.15846   0.00000
  36       13F+2        0.00000   0.06771  -0.04956   0.00000   0.00000
  37       13F-2        0.00000   0.00000   0.00000   0.00000  -0.21339
  38       13F+3        0.00000   0.00000   0.00000   0.00000   0.00000
  39       13F-3        0.01230   0.00000   0.00000  -0.01242   0.00000
  40       14F 0        0.00000   0.01533   0.06195   0.00000   0.00000
  41       14F+1        0.00000   0.00000   0.00000   0.00000   0.00000
  42       14F-1       -0.05203   0.00000   0.00000   0.04611   0.00000
  43       14F+2        0.00000   0.04750  -0.01202   0.00000   0.00000
  44       14F-2        0.00000   0.00000   0.00000   0.00000  -0.13664
  45       14F+3        0.00000   0.00000   0.00000   0.00000   0.00000
  46       14F-3       -0.01761   0.00000   0.00000  -0.01254   0.00000
  47 2   C  1S          0.00000   0.06738   0.15687   0.00000   0.00000
  48        2S          0.00000  -0.25968  -0.50376   0.00000   0.00000
  49        3S          0.00000  -0.34129  -0.70320   0.00000   0.00000
  50        4S          0.00000   1.32169  -1.27780   0.00000   0.00000
  51        5S          0.00000   0.06313  -0.07579   0.00000   0.00000
  52        6PX         0.00000   0.00000   0.00000   0.00000   0.00000
  53        6PY         0.30211   0.00000   0.00000   0.16143   0.00000
  54        6PZ         0.00000  -0.23095  -0.50523   0.00000   0.00000
  55        7PX         0.00000   0.00000   0.00000   0.00000   0.00000
  56        7PY         0.33537   0.00000   0.00000   0.38942   0.00000
  57        7PZ         0.00000  -0.07057   0.15030   0.00000   0.00000
  58        8PX         0.00000   0.00000   0.00000   0.00000   0.00000
  59        8PY         1.43442   0.00000   0.00000  -1.22610   0.00000
  60        8PZ         0.00000  -0.32792   0.88581   0.00000   0.00000
  61        9PX         0.00000   0.00000   0.00000   0.00000   0.00000
  62        9PY         0.04507   0.00000   0.00000   0.03626   0.00000
  63        9PZ         0.00000  -0.01712  -0.00536   0.00000   0.00000
  64       10D 0        0.00000   0.11382   0.13068   0.00000   0.00000
  65       10D+1        0.00000   0.00000   0.00000   0.00000   0.00000
  66       10D-1       -0.02999   0.00000   0.00000   0.54239   0.00000
  67       10D+2        0.00000  -0.31326   0.21815   0.00000   0.00000
  68       10D-2        0.00000   0.00000   0.00000   0.00000   0.26836
  69       11D 0        0.00000   0.15771   0.26798   0.00000   0.00000
  70       11D+1        0.00000   0.00000   0.00000   0.00000   0.00000
  71       11D-1        0.08576   0.00000   0.00000  -0.03200   0.00000
  72       11D+2        0.00000  -0.49037   0.25143   0.00000   0.00000
  73       11D-2        0.00000   0.00000   0.00000   0.00000   0.36031
  74       12D 0        0.00000   0.03110   0.49437   0.00000   0.00000
  75       12D+1        0.00000   0.00000   0.00000   0.00000   0.00000
  76       12D-1       -0.41536   0.00000   0.00000   0.10896   0.00000
  77       12D+2        0.00000  -0.05646   0.31302   0.00000   0.00000
  78       12D-2        0.00000   0.00000   0.00000   0.00000   0.00744
  79       13F 0        0.00000  -0.12592   0.01279   0.00000   0.00000
  80       13F+1        0.00000   0.00000   0.00000   0.00000   0.00000
  81       13F-1        0.25117   0.00000   0.00000   0.07011   0.00000
  82       13F+2        0.00000  -0.19456   0.08948   0.00000   0.00000
  83       13F-2        0.00000   0.00000   0.00000   0.00000   0.38953
  84       13F+3        0.00000   0.00000   0.00000   0.00000   0.00000
  85       13F-3        0.13571   0.00000   0.00000  -0.10562   0.00000
  86       14F 0        0.00000  -0.07906   0.10409   0.00000   0.00000
  87       14F+1        0.00000   0.00000   0.00000   0.00000   0.00000
  88       14F-1        0.15192   0.00000   0.00000   0.05589   0.00000
  89       14F+2        0.00000  -0.07850   0.06009   0.00000   0.00000
  90       14F-2        0.00000   0.00000   0.00000   0.00000   0.14874
  91       14F+3        0.00000   0.00000   0.00000   0.00000   0.00000
  92       14F-3        0.02492   0.00000   0.00000  -0.04410   0.00000
  93 3   H  1S         -0.38043  -0.27114   0.21311   0.30303   0.00000
  94        2S         -0.25529  -0.27885   0.28524  -0.12523   0.00000
  95        3S         -1.14100  -0.32097   0.80502   0.85157   0.00000
  96        4S         -0.01906  -0.01080   0.01052  -0.00766   0.00000
  97        5PX         0.00000   0.00000   0.00000   0.00000  -0.11300
  98        5PY         0.02121   0.02038  -0.05286   0.03206   0.00000
  99        5PZ        -0.15925   0.02044  -0.00688   0.02891   0.00000
 100        6PX         0.00000   0.00000   0.00000   0.00000  -0.28502
 101        6PY        -0.02686   0.05514  -0.10283   0.29708   0.00000
 102        6PZ        -0.30947  -0.00105   0.10119  -0.07929   0.00000
 103        7PX         0.00000   0.00000   0.00000   0.00000  -0.05537
 104        7PY         0.29826   0.09383   0.01527  -0.12696   0.00000
 105        7PZ        -0.20004  -0.05141   0.37222   0.06560   0.00000
 106        8D 0       -0.03255   0.01898  -0.02228   0.03399   0.00000
 107        8D+1        0.00000   0.00000   0.00000   0.00000  -0.00461
 108        8D-1        0.05124   0.01138  -0.01449  -0.02311   0.00000
 109        8D+2        0.00639   0.00193  -0.03205   0.01256   0.00000
 110        8D-2        0.00000   0.00000   0.00000   0.00000   0.02684
 111        9D 0       -0.03046  -0.01596   0.02318   0.01274   0.00000
 112        9D+1        0.00000   0.00000   0.00000   0.00000  -0.02212
 113        9D-1        0.03668  -0.01287  -0.03748   0.02708   0.00000
 114        9D+2       -0.00169  -0.00426   0.00881   0.04762   0.00000
 115        9D-2        0.00000   0.00000   0.00000   0.00000   0.04571
 116 4   H  1S          0.38043  -0.27114   0.21311  -0.30303   0.00000
 117        2S          0.25529  -0.27885   0.28524   0.12523   0.00000
 118        3S          1.14100  -0.32097   0.80502  -0.85157   0.00000
 119        4S          0.01906  -0.01080   0.01052   0.00766   0.00000
 120        5PX         0.00000   0.00000   0.00000   0.00000   0.11300
 121        5PY         0.02121  -0.02038   0.05286   0.03206   0.00000
 122        5PZ         0.15925   0.02044  -0.00688  -0.02891   0.00000
 123        6PX         0.00000   0.00000   0.00000   0.00000   0.28502
 124        6PY        -0.02686  -0.05514   0.10283   0.29708   0.00000
 125        6PZ         0.30947  -0.00105   0.10119   0.07929   0.00000
 126        7PX         0.00000   0.00000   0.00000   0.00000   0.05537
 127        7PY         0.29826  -0.09383  -0.01527  -0.12696   0.00000
 128        7PZ         0.20004  -0.05141   0.37222  -0.06560   0.00000
 129        8D 0        0.03255   0.01898  -0.02228  -0.03399   0.00000
 130        8D+1        0.00000   0.00000   0.00000   0.00000   0.00461
 131        8D-1        0.05124  -0.01138   0.01449  -0.02311   0.00000
 132        8D+2       -0.00639   0.00193  -0.03205  -0.01256   0.00000
 133        8D-2        0.00000   0.00000   0.00000   0.00000   0.02684
 134        9D 0        0.03046  -0.01596   0.02318  -0.01274   0.00000
 135        9D+1        0.00000   0.00000   0.00000   0.00000   0.02212
 136        9D-1        0.03668   0.01287   0.03748   0.02708   0.00000
 137        9D+2        0.00169  -0.00426   0.00881  -0.04762   0.00000
 138        9D-2        0.00000   0.00000   0.00000   0.00000   0.04571
                          31        32        33        34        35
     Eigenvalues --     0.00104   0.00087   0.00086   0.00080   0.00065
   1 1   O  1S          0.00000   0.00000   0.04842   0.00000   0.25994
   2        2S          0.00000   0.00000  -0.00243   0.00000   0.19885
   3        3S          0.00000   0.00000  -0.12071   0.00000  -0.69877
   4        4S          0.00000   0.00000   0.09861   0.00000  -0.22353
   5        5S          0.00000   0.00000   0.12731   0.00000  -0.68722
   6        6PX         0.73600  -0.02491   0.00000   0.00000   0.00000
   7        6PY         0.00000   0.00000   0.00000   0.71001   0.00000
   8        6PZ         0.00000   0.00000   0.23811   0.00000  -0.73368
   9        7PX        -0.64902  -0.02493   0.00000   0.00000   0.00000
  10        7PY         0.00000   0.00000   0.00000  -1.13157   0.00000
  11        7PZ         0.00000   0.00000  -0.20847   0.00000   1.22946
  12        8PX        -0.14517   0.44374   0.00000   0.00000   0.00000
  13        8PY         0.00000   0.00000   0.00000  -0.43479   0.00000
  14        8PZ         0.00000   0.00000   0.18764   0.00000  -0.59851
  15        9PX         0.11134   0.03392   0.00000   0.00000   0.00000
  16        9PY         0.00000   0.00000   0.00000   0.16994   0.00000
  17        9PZ         0.00000   0.00000   0.02957   0.00000  -0.12145
  18       10D 0        0.00000   0.00000  -0.04735   0.00000  -0.11522
  19       10D+1        0.13294  -0.25094   0.00000   0.00000   0.00000
  20       10D-1        0.00000   0.00000   0.00000   0.20763   0.00000
  21       10D+2        0.00000   0.00000   0.00908   0.00000   0.15116
  22       10D-2        0.00000   0.00000   0.00000   0.00000   0.00000
  23       11D 0        0.00000   0.00000  -0.07258   0.00000  -0.05931
  24       11D+1        0.05114  -0.15140   0.00000   0.00000   0.00000
  25       11D-1        0.00000   0.00000   0.00000   0.32843   0.00000
  26       11D+2        0.00000   0.00000   0.00382   0.00000  -0.02283
  27       11D-2        0.00000   0.00000   0.00000   0.00000   0.00000
  28       12D 0        0.00000   0.00000  -0.06315   0.00000   0.36503
  29       12D+1       -0.17315  -0.09655   0.00000   0.00000   0.00000
[...]
   6        6PX         0.01427   0.00000   0.00000   0.00000   0.00000
   7        6PY         0.00000   0.00000   0.00240  -0.00412   0.00000
   8        6PZ         0.00000   0.02245   0.00000   0.00000  -0.01703
   9        7PX        -0.05986   0.00000   0.00000   0.00000   0.00000
  10        7PY         0.00000   0.00000   0.02245  -0.04438   0.00000
  11        7PZ         0.00000  -0.12887   0.00000   0.00000   0.03649
  12        8PX         0.43522   0.00000   0.00000   0.00000   0.00000
  13        8PY         0.00000   0.00000   3.12074  -2.53453   0.00000
  14        8PZ         0.00000   3.70630   0.00000   0.00000   0.76107
  15        9PX        -0.57916   0.00000   0.00000   0.00000   0.00000
  16        9PY         0.00000   0.00000  -0.97338  -0.12357   0.00000
  17        9PZ         0.00000   5.55317   0.00000   0.00000  -0.43964
  18       10D 0        0.00000  -0.02783   0.00000   0.00000   0.00823
  19       10D+1        0.00561   0.00000   0.00000   0.00000   0.00000
  20       10D-1        0.00000   0.00000   0.01052  -0.00828   0.00000
  21       10D+2        0.00000   0.03447   0.00000   0.00000   0.00750
  22       10D-2        0.00000   0.00000   0.00000   0.00000   0.00000
  23       11D 0        0.00000   0.04490   0.00000   0.00000  -0.04750
  24       11D+1       -0.06440   0.00000   0.00000   0.00000   0.00000
  25       11D-1        0.00000   0.00000  -0.06453   0.10516   0.00000
  26       11D+2        0.00000  -0.13133   0.00000   0.00000  -0.02768
  27       11D-2        0.00000   0.00000   0.00000   0.00000   0.00000
  28       12D 0        0.00000  -1.74937   0.00000   0.00000  -0.42883
  29       12D+1       -0.09474   0.00000   0.00000   0.00000   0.00000
  30       12D-1        0.00000   0.00000  -1.44917   1.10443   0.00000
  31       12D+2        0.00000   0.28671   0.00000   0.00000  -0.02391
  32       12D-2        0.00000   0.00000   0.00000   0.00000   0.00000
  33       13F 0        0.00000  -0.00528   0.00000   0.00000  -0.00731
  34       13F+1       -0.00700   0.00000   0.00000   0.00000   0.00000
  35       13F-1        0.00000   0.00000  -0.04036   0.02429   0.00000
  36       13F+2        0.00000   0.00410   0.00000   0.00000  -0.00374
  37       13F-2        0.00000   0.00000   0.00000   0.00000   0.00000
  38       13F+3        0.02018   0.00000   0.00000   0.00000   0.00000
  39       13F-3        0.00000   0.00000   0.01271  -0.01141   0.00000
  40       14F 0        0.00000   0.13195   0.00000   0.00000   0.07487
  41       14F+1        0.08311   0.00000   0.00000   0.00000   0.00000
  42       14F-1        0.00000   0.00000   0.15422  -0.12653   0.00000
  43       14F+2        0.00000  -0.01430   0.00000   0.00000   0.00327
  44       14F-2        0.00000   0.00000   0.00000   0.00000   0.00000
  45       14F+3       -0.03106   0.00000   0.00000   0.00000   0.00000
  46       14F-3        0.00000   0.00000  -0.02911   0.01317   0.00000
  47 2   C  1S          0.00000   0.08600   0.00000   0.00000   0.19608
  48        2S          0.00000   0.47875   0.00000   0.00000   1.18506
  49        3S          0.00000  -0.07487   0.00000   0.00000   0.00133
  50        4S          0.00000   5.84812   0.00000   0.00000  25.04124
  51        5S          0.00000   8.13872   0.00000   0.00000  10.23598
  52        6PX         0.00311   0.00000   0.00000   0.00000   0.00000
  53        6PY         0.00000   0.00000   0.02799   0.00603   0.00000
  54        6PZ         0.00000   0.00451   0.00000   0.00000   0.03693
  55        7PX         0.04241   0.00000   0.00000   0.00000   0.00000
  56        7PY         0.00000   0.00000  -1.82693  -1.38885   0.00000
  57        7PZ         0.00000   0.68769   0.00000   0.00000  -1.07267
  58        8PX         4.20917   0.00000   0.00000   0.00000   0.00000
  59        8PY         0.00000   0.00000 -16.67276  -7.96245   0.00000
  60        8PZ         0.00000  -2.79488   0.00000   0.00000  -9.53173
  61        9PX         2.20971   0.00000   0.00000   0.00000   0.00000
  62        9PY         0.00000   0.00000   1.60400  -5.33276   0.00000
  63        9PZ         0.00000  -2.29591   0.00000   0.00000  -2.07937
  64       10D 0        0.00000  -0.05517   0.00000   0.00000   0.02017
  65       10D+1        0.01559   0.00000   0.00000   0.00000   0.00000
  66       10D-1        0.00000   0.00000   0.01433   0.02144   0.00000
  67       10D+2        0.00000   0.02090   0.00000   0.00000  -0.05234
  68       10D-2        0.00000   0.00000   0.00000   0.00000   0.00000
  69       11D 0        0.00000   0.70773   0.00000   0.00000   0.13902
  70       11D+1       -0.40621   0.00000   0.00000   0.00000   0.00000
  71       11D-1        0.00000   0.00000   1.42514   1.26622   0.00000
  72       11D+2        0.00000  -0.28042   0.00000   0.00000  -0.91123
  73       11D-2        0.00000   0.00000   0.00000   0.00000   0.00000
  74       12D 0        0.00000   1.46591   0.00000   0.00000   1.79006
  75       12D+1       -1.52356   0.00000   0.00000   0.00000   0.00000
  76       12D-1        0.00000   0.00000   2.59646   2.39527   0.00000
  77       12D+2        0.00000   0.33878   0.00000   0.00000  -0.23889
  78       12D-2        0.00000   0.00000   0.00000   0.00000   0.00000
  79       13F 0        0.00000   0.02067   0.00000   0.00000   0.02420
  80       13F+1       -0.04043   0.00000   0.00000   0.00000   0.00000
  81       13F-1        0.00000   0.00000   0.05214  -0.02186   0.00000
  82       13F+2        0.00000   0.01303   0.00000   0.00000   0.04418
  83       13F-2        0.00000   0.00000   0.00000   0.00000   0.00000
  84       13F+3        0.10856   0.00000   0.00000   0.00000   0.00000
  85       13F-3        0.00000   0.00000   0.07495   0.01621   0.00000
  86       14F 0        0.00000  -0.06634   0.00000   0.00000   0.17425
  87       14F+1        0.06213   0.00000   0.00000   0.00000   0.00000
  88       14F-1        0.00000   0.00000  -1.95364   1.19611   0.00000
  89       14F+2        0.00000   0.42502   0.00000   0.00000   0.44741
  90       14F-2        0.00000   0.00000   0.00000   0.00000   0.00000
  91       14F+3       -0.34151   0.00000   0.00000   0.00000   0.00000
  92       14F-3        0.00000   0.00000  -0.22917   0.34228   0.00000
  93 3   H  1S          0.00000   0.01821  -0.06741   0.01053   0.04664
  94        2S          0.00000  -1.44948   3.04249   1.64626  -2.82503
  95        3S          0.00000   1.62666  26.20747  13.68170 -14.71732
  96        4S          0.00000  -1.17397  -1.71405   4.66765  -1.64899
  97        5PX        -0.07856   0.00000   0.00000   0.00000   0.00000
  98        5PY         0.00000   0.02232   0.11472   0.07011  -0.09593
  99        5PZ         0.00000  -0.02174   0.03262  -0.10596   0.03180
 100        6PX        -0.06376   0.00000   0.00000   0.00000   0.00000
 101        6PY         0.00000   0.15034  -2.12720  -0.71204   1.50379
 102        6PZ         0.00000   0.30910  -0.45233   1.47582  -0.60654
 103        7PX        -3.21075   0.00000   0.00000   0.00000   0.00000
 104        7PY         0.00000  -0.01286  -9.27133  -1.68103   4.78801
 105        7PZ         0.00000   4.23011   1.56195   2.86212   0.01686
 106        8D 0        0.00000  -0.05735   0.05359  -0.02957  -0.02449
 107        8D+1        0.02945   0.00000   0.00000   0.00000   0.00000
 108        8D-1        0.00000   0.05305  -0.10699  -0.00866   0.06432
 109        8D+2        0.00000   0.04038   0.05283  -0.04628   0.04316
 110        8D-2       -0.07390   0.00000   0.00000   0.00000   0.00000
 111        9D 0        0.00000   0.60267  -1.19790   0.51616   0.41927
 112        9D+1       -0.25619   0.00000   0.00000   0.00000   0.00000
 113        9D-1        0.00000  -0.83000   0.29127  -0.76724   0.14598
 114        9D+2        0.00000  -0.14678  -1.17202   0.15461   0.43781
 115        9D-2        0.56522   0.00000   0.00000   0.00000   0.00000
 116 4   H  1S          0.00000   0.01821   0.06741  -0.01053   0.04664
 117        2S          0.00000  -1.44948  -3.04249  -1.64626  -2.82503
 118        3S          0.00000   1.62666 -26.20747 -13.68170 -14.71732
 119        4S          0.00000  -1.17397   1.71405  -4.66765  -1.64899
 120        5PX        -0.07856   0.00000   0.00000   0.00000   0.00000
 121        5PY         0.00000  -0.02232   0.11472   0.07011   0.09593
 122        5PZ         0.00000  -0.02174  -0.03262   0.10596   0.03180
 123        6PX        -0.06376   0.00000   0.00000   0.00000   0.00000
 124        6PY         0.00000  -0.15034  -2.12720  -0.71204  -1.50379
 125        6PZ         0.00000   0.30910   0.45233  -1.47582  -0.60654
 126        7PX        -3.21075   0.00000   0.00000   0.00000   0.00000
 127        7PY         0.00000   0.01286  -9.27133  -1.68103  -4.78801
 128        7PZ         0.00000   4.23011  -1.56195  -2.86212   0.01686
 129        8D 0        0.00000  -0.05735  -0.05359   0.02957  -0.02449
 130        8D+1        0.02945   0.00000   0.00000   0.00000   0.00000
 131        8D-1        0.00000  -0.05305  -0.10699  -0.00866  -0.06432
 132        8D+2        0.00000   0.04038  -0.05283   0.04628   0.04316
 133        8D-2        0.07390   0.00000   0.00000   0.00000   0.00000
 134        9D 0        0.00000   0.60267   1.19790  -0.51616   0.41927
 135        9D+1       -0.25619   0.00000   0.00000   0.00000   0.00000
 136        9D-1        0.00000   0.83000   0.29127  -0.76724  -0.14598
 137        9D+2        0.00000  -0.14678   1.17202  -0.15461   0.43781
 138        9D-2       -0.56522   0.00000   0.00000   0.00000   0.00000
                         136       137       138
     Eigenvalues --     0.00000   0.00000   0.00000
   1 1   O  1S         -0.06004   0.00000   0.00968
   2        2S         -0.28967   0.00000   0.05272
   3        3S          0.03910   0.00000   0.00084
   4        4S          4.49640   0.00000  -1.10088
   5        5S         13.18389   0.00000  -6.83696
   6        6PX         0.00000   0.00000   0.00000
   7        6PY         0.00000   0.00529   0.00000
   8        6PZ        -0.00412   0.00000   0.00534
   9        7PX         0.00000   0.00000   0.00000
  10        7PY         0.00000  -0.01318   0.00000
  11        7PZ        -0.08475   0.00000  -0.03065
  12        8PX         0.00000   0.00000   0.00000
  13        8PY         0.00000   1.53645   0.00000
  14        8PZ        -1.34060   0.00000   0.88663
  15        9PX         0.00000   0.00000   0.00000
  16        9PY         0.00000   1.58522   0.00000
  17        9PZ        -0.99394   0.00000   1.42380
  18       10D 0       -0.01650   0.00000   0.00153
  19       10D+1        0.00000   0.00000   0.00000
  20       10D-1        0.00000  -0.00227   0.00000
  21       10D+2        0.00396   0.00000  -0.00160
  22       10D-2        0.00000   0.00000   0.00000
  23       11D 0        0.10863   0.00000  -0.00578
  24       11D+1        0.00000   0.00000   0.00000
  25       11D-1        0.00000  -0.01628   0.00000
  26       11D+2       -0.01332   0.00000   0.00397
  27       11D-2        0.00000   0.00000   0.00000
  28       12D 0       -0.11743   0.00000  -0.19701
  29       12D+1        0.00000   0.00000   0.00000
  30       12D-1        0.00000  -0.59989   0.00000
  31       12D+2        0.32628   0.00000  -0.04136
  32       12D-2        0.00000   0.00000   0.00000
  33       13F 0       -0.00829   0.00000  -0.00386
  34       13F+1        0.00000   0.00000   0.00000
  35       13F-1        0.00000  -0.00511   0.00000
  36       13F+2        0.01280   0.00000  -0.00223
  37       13F-2        0.00000   0.00000   0.00000
  38       13F+3        0.00000   0.00000   0.00000
  39       13F-3        0.00000  -0.00514   0.00000
  40       14F 0        0.01960   0.00000   0.01689
  41       14F+1        0.00000   0.00000   0.00000
  42       14F-1        0.00000   0.02919   0.00000
  43       14F+2       -0.06154   0.00000   0.01089
  44       14F-2        0.00000   0.00000   0.00000
  45       14F+3        0.00000   0.00000   0.00000
  46       14F-3        0.00000   0.01488   0.00000
  47 2   C  1S         -0.03666   0.00000   0.00506
  48        2S         -0.20910   0.00000   0.03492
  49        3S          0.11654   0.00000   0.02844
  50        4S         -5.46136   0.00000  10.00394
  51        5S         -4.28328   0.00000  13.50584
  52        6PX         0.00000   0.00000   0.00000
  53        6PY         0.00000  -0.01390   0.00000
  54        6PZ        -0.02396   0.00000   0.00216
  55        7PX         0.00000   0.00000   0.00000
  56        7PY         0.00000   0.01007   0.00000
  57        7PZ         0.24689   0.00000   0.01078
  58        8PX         0.00000   0.00000   0.00000
  59        8PY         0.00000  -7.73966   0.00000
  60        8PZ        -1.52181   0.00000  -0.03482
  61        9PX         0.00000   0.00000   0.00000
  62        9PY         0.00000  -5.59913   0.00000
  63        9PZ        -2.34455   0.00000  -0.23002
  64       10D 0        0.01455   0.00000  -0.00418
  65       10D+1        0.00000   0.00000   0.00000
  66       10D-1        0.00000  -0.01372   0.00000
  67       10D+2       -0.00462   0.00000  -0.00763
  68       10D-2        0.00000   0.00000   0.00000
  69       11D 0       -0.80125   0.00000   0.12922
  70       11D+1        0.00000   0.00000   0.00000
  71       11D-1        0.00000  -0.19527   0.00000
  72       11D+2        0.20134   0.00000  -0.04775
  73       11D-2        0.00000   0.00000   0.00000
  74       12D 0       -6.09608   0.00000   0.72724
  75       12D+1        0.00000   0.00000   0.00000
  76       12D-1        0.00000  -0.74376   0.00000
  77       12D+2       -2.83514   0.00000  -0.28965
  78       12D-2        0.00000   0.00000   0.00000
  79       13F 0       -0.03677   0.00000  -0.00922
  80       13F+1        0.00000   0.00000   0.00000
  81       13F-1        0.00000   0.02039   0.00000
  82       13F+2       -0.01600   0.00000  -0.00150
  83       13F-2        0.00000   0.00000   0.00000
  84       13F+3        0.00000   0.00000   0.00000
  85       13F-3        0.00000  -0.01822   0.00000
  86       14F 0       -0.17688   0.00000   0.06597
  87       14F+1        0.00000   0.00000   0.00000
  88       14F-1        0.00000  -0.54622   0.00000
  89       14F+2       -0.34452   0.00000   0.05435
  90       14F-2        0.00000   0.00000   0.00000
  91       14F+3        0.00000   0.00000   0.00000
  92       14F-3        0.00000  -0.03470   0.00000
  93 3   H  1S         -0.01612   0.00829  -0.00313
  94        2S          1.01815  -0.09537  -0.18906
  95        3S         -3.48828  11.58608  -5.27142
  96        4S         -0.29515   8.39804  -3.08117
  97        5PX         0.00000   0.00000   0.00000
  98        5PY         0.00512   0.03108  -0.01267
  99        5PZ         0.04002   0.00183   0.00568
 100        6PX         0.00000   0.00000   0.00000
 101        6PY        -0.44513  -0.26683   0.18899
 102        6PZ        -0.18046  -0.18928  -0.08678
 103        7PX         0.00000   0.00000   0.00000
 104        7PY        -2.19133  -3.68684   1.55836
 105        7PZ        -3.86147   2.57515  -0.61484
 106        8D 0        0.01020  -0.00703   0.00177
 107        8D+1        0.00000   0.00000   0.00000
 108        8D-1       -0.04719   0.02489  -0.00808
 109        8D+2        0.01172   0.04193  -0.00423
 110        8D-2        0.00000   0.00000   0.00000
 111        9D 0       -0.30807  -0.07746   0.04325
 112        9D+1        0.00000   0.00000   0.00000
 113        9D-1        0.28498  -0.08418   0.11181
 114        9D+2       -0.30279  -0.34833   0.11329
 115        9D-2        0.00000   0.00000   0.00000
 116 4   H  1S         -0.01612  -0.00829  -0.00313
 117        2S          1.01815   0.09537  -0.18906
 118        3S         -3.48828 -11.58608  -5.27142
 119        4S         -0.29515  -8.39804  -3.08117
 120        5PX         0.00000   0.00000   0.00000
 121        5PY        -0.00512   0.03108   0.01267
 122        5PZ         0.04002  -0.00183   0.00568
 123        6PX         0.00000   0.00000   0.00000
 124        6PY         0.44513  -0.26683  -0.18899
 125        6PZ        -0.18046   0.18928  -0.08678
 126        7PX         0.00000   0.00000   0.00000
 127        7PY         2.19133  -3.68684  -1.55836
 128        7PZ        -3.86147  -2.57515  -0.61484
 129        8D 0        0.01020   0.00703   0.00177
 130        8D+1        0.00000   0.00000   0.00000
 131        8D-1        0.04719   0.02489   0.00808
 132        8D+2        0.01172  -0.04193  -0.00423
 133        8D-2        0.00000   0.00000   0.00000
 134        9D 0       -0.30807   0.07746   0.04325
 135        9D+1        0.00000   0.00000   0.00000
 136        9D-1       -0.28498  -0.08418  -0.11181
 137        9D+2       -0.30279   0.34833   0.11329
 138        9D-2        0.00000   0.00000   0.00000
          Condensed to atoms (all electrons):
              1          2          3          4
     1  O    8.193886   0.353012  -0.065020  -0.065020
     2  C    0.353012   5.716312   0.207190   0.207190
     3  H   -0.065020   0.207190   0.437711  -0.030162
     4  H   -0.065020   0.207190  -0.030162   0.437711
 Mulliken atomic charges:
              1
     1  O   -0.416859
     2  C   -0.483703
     3  H    0.450281
     4  H    0.450281
 Sum of Mulliken atomic charges =   0.00000
 Mulliken charges with hydrogens summed into heavy atoms:
              1
     1  O   -0.416859
     2  C    0.416859
 Sum of Mulliken charges with hydrogens summed into heavy atoms =   0.00000
 Electronic spatial extent (au):  <R**2>=             60.2261
 Charge=              0.0000 electrons
 Dipole moment (field-independent basis, Debye):
    X=              0.0000    Y=              0.0000    Z=             -2.4001  Tot=              2.4001
 Quadrupole moment (field-independent basis, Debye-Ang):
   XX=            -11.7083   YY=            -11.6207   ZZ=            -12.2739
   XY=              0.0000   XZ=              0.0000   YZ=              0.0000
 Traceless Quadrupole moment (field-independent basis, Debye-Ang):
   XX=              0.1594   YY=              0.2469   ZZ=             -0.4063
   XY=              0.0000   XZ=              0.0000   YZ=              0.0000
 Octapole moment (field-independent basis, Debye-Ang**2):
  XXX=              0.0000  YYY=              0.0000  ZZZ=              0.5717  XYY=              0.0000
  XXY=              0.0000  XXZ=              0.6480  XZZ=              0.0000  YZZ=              0.0000
  YYZ=             -0.5846  XYZ=              0.0000
 Hexadecapole moment (field-independent basis, Debye-Ang**3):
 XXXX=            -10.4517 YYYY=            -18.2910 ZZZZ=            -45.8721 XXXY=              0.0000
 XXXZ=              0.0000 YYYX=              0.0000 YYYZ=              0.0000 ZZZX=              0.0000
 ZZZY=              0.0000 XXYY=             -5.1463 XXZZ=             -9.3162 YYZZ=            -10.4289
 XXYZ=              0.0000 YYXZ=              0.0000 ZZXY=              0.0000
 N-N= 3.149957367852D+01 E-N=-3.317729388642D+02  KE= 1.142716462714D+02
 1\1\GINC-TRAPISTA\SP\RQCISD-FC\Aug-CC-pVTZ\C1H2O1\BRUNS\20-Nov-2021\0\
 \# qcisd/aug-cc-pvtz nosymm density=current output=wfn\\h2co-wavefunct
 ion\\0,1\O,0,0.,0.,0.669252\C,0,0.,0.,-0.526911\H,0,0.,0.936614,-1.106
 62\H,0,0.,-0.936614,-1.10662\\Version=EM64L-G09RevB.01\HF=-113.914637\
 MP2=-114.3159943\MP3=-114.3204296\MP4D=-114.3304677\MP4DQ=-114.3216913
 \MP4SDQ=-114.3268031\QCISD=-114.3268224\RMSD=2.701e-09\Dipole=0.,0.,-0
 .9442602\Quadrupole=0.1184765,0.1835922,-0.3020687,0.,0.,0.\PG=C02V [C
 2(C1O1),SGV(H2)]\\@

 Writing a WFN file to GAUSSIAN.wfn.


 THE REASON MAN'S BEST FRIEND IS A DOG IS BECAUSE
 HE WAGS HIS TAIL INSTEAD OF HIS TONGUE.
 Job cpu time:  0 days  0 hours 22 minutes 28.4 seconds.
 File lengths (MBytes):  RWF=   5787 Int=      0 D2E=      0 Chk=      2 Scr=      1
 Normal termination of Gaussian 09 at Sat Nov 20 17:44:04 2021.
