 h2co-wavefunction
GAUSSIAN            138 MOL ORBITALS    198 PRIMITIVES        4 NUCLEI
  O    1    (CENTRE  1)   0.00000000  0.01889726  1.28360026  CHARGE =  8.0
  C    2    (CENTRE  2)   0.00000000  0.00000000 -0.99571749  CHARGE =  6.0
  H    3    (CENTRE  3)   0.00000000  1.76994395 -2.09120873  CHARGE =  1.0
  H    4    (CENTRE  4)   0.00000000 -1.76994395 -2.09120873  CHARGE =  1.0
CENTRE ASSIGNMENTS    1  1  1  1  1  1  1  1  1  1  1  1  1  1  1  1  1  1  1  1
CENTRE ASSIGNMENTS    1  1  1  1  1  1  1  1  1  1  1  1  1  1  1  1  1  1  1  1
CENTRE ASSIGNMENTS    1  1  1  1  1  1  1  1  1  1  1  1  1  1  1  1  1  1  1  1
CENTRE ASSIGNMENTS    1  1  1  1  1  1  1  1  1  1  1  1  2  2  2  2  2  2  2  2
CENTRE ASSIGNMENTS    2  2  2  2  2  2  2  2  2  2  2  2  2  2  2  2  2  2  2  2
CENTRE ASSIGNMENTS    2  2  2  2  2  2  2  2  2  2  2  2  2  2  2  2  2  2  2  2
CENTRE ASSIGNMENTS    2  2  2  2  2  2  2  2  2  2  2  2  2  2  2  2  2  2  2  2
CENTRE ASSIGNMENTS    2  2  2  2  3  3  3  3  3  3  3  3  3  3  3  3  3  3  3  3
CENTRE ASSIGNMENTS    3  3  3  3  3  3  3  3  3  3  3  4  4  4  4  4  4  4  4  4
CENTRE ASSIGNMENTS    4  4  4  4  4  4  4  4  4  4  4  4  4  4  4  4  4  4
TYPE ASSIGNMENTS      1  1  1  1  1  1  1  1  1  1  1  1  1  1  1  1  2  2  2  3
TYPE ASSIGNMENTS      3  3  4  4  4  2  3  4  2  3  4  2  3  4  5  6  7  8  9 10
TYPE ASSIGNMENTS      5  6  7  8  9 10  5  6  7  8  9 10 11 12 13 17 14 15 18 19
TYPE ASSIGNMENTS     16 20 11 12 13 17 14 15 18 19 16 20  1  1  1  1  1  1  1  1
TYPE ASSIGNMENTS      1  1  1  1  1  1  1  1  2  2  2  3  3  3  4  4  4  2  3  4
TYPE ASSIGNMENTS      2  3  4  2  3  4  5  6  7  8  9 10  5  6  7  8  9 10  5  6
TYPE ASSIGNMENTS      7  8  9 10 11 12 13 17 14 15 18 19 16 20 11 12 13 17 14 15
TYPE ASSIGNMENTS     18 19 16 20  1  1  1  1  1  1  2  3  4  2  3  4  2  3  4  5
TYPE ASSIGNMENTS      6  7  8  9 10  5  6  7  8  9 10  1  1  1  1  1  1  2  3  4
TYPE ASSIGNMENTS      2  3  4  2  3  4  5  6  7  8  9 10  5  6  7  8  9 10
EXPONENTS  0.1533000D+05 0.2299000D+04 0.5224000D+03 0.1473000D+03 0.4755000D+02
EXPONENTS  0.1676000D+02 0.6207000D+01 0.5224000D+03 0.1473000D+03 0.4755000D+02
EXPONENTS  0.1676000D+02 0.6207000D+01 0.6882000D+00 0.1752000D+01 0.2384000D+00
EXPONENTS  0.7376000D-01 0.3446000D+02 0.7749000D+01 0.2280000D+01 0.3446000D+02
EXPONENTS  0.7749000D+01 0.2280000D+01 0.3446000D+02 0.7749000D+01 0.2280000D+01
EXPONENTS  0.7156000D+00 0.7156000D+00 0.7156000D+00 0.2140000D+00 0.2140000D+00
EXPONENTS  0.2140000D+00 0.5974000D-01 0.5974000D-01 0.5974000D-01 0.2314000D+01
EXPONENTS  0.2314000D+01 0.2314000D+01 0.2314000D+01 0.2314000D+01 0.2314000D+01
EXPONENTS  0.6450000D+00 0.6450000D+00 0.6450000D+00 0.6450000D+00 0.6450000D+00
EXPONENTS  0.6450000D+00 0.2140000D+00 0.2140000D+00 0.2140000D+00 0.2140000D+00
EXPONENTS  0.2140000D+00 0.2140000D+00 0.1428000D+01 0.1428000D+01 0.1428000D+01
EXPONENTS  0.1428000D+01 0.1428000D+01 0.1428000D+01 0.1428000D+01 0.1428000D+01
EXPONENTS  0.1428000D+01 0.1428000D+01 0.5000000D+00 0.5000000D+00 0.5000000D+00
EXPONENTS  0.5000000D+00 0.5000000D+00 0.5000000D+00 0.5000000D+00 0.5000000D+00
EXPONENTS  0.5000000D+00 0.5000000D+00 0.8236000D+04 0.1235000D+04 0.2808000D+03
EXPONENTS  0.7927000D+02 0.2559000D+02 0.8997000D+01 0.3319000D+01 0.2808000D+03
EXPONENTS  0.7927000D+02 0.2559000D+02 0.8997000D+01 0.3319000D+01 0.3643000D+00
EXPONENTS  0.9059000D+00 0.1285000D+00 0.4402000D-01 0.1871000D+02 0.4133000D+01
EXPONENTS  0.1200000D+01 0.1871000D+02 0.4133000D+01 0.1200000D+01 0.1871000D+02
EXPONENTS  0.4133000D+01 0.1200000D+01 0.3827000D+00 0.3827000D+00 0.3827000D+00
EXPONENTS  0.1209000D+00 0.1209000D+00 0.1209000D+00 0.3569000D-01 0.3569000D-01
EXPONENTS  0.3569000D-01 0.1097000D+01 0.1097000D+01 0.1097000D+01 0.1097000D+01
EXPONENTS  0.1097000D+01 0.1097000D+01 0.3180000D+00 0.3180000D+00 0.3180000D+00
EXPONENTS  0.3180000D+00 0.3180000D+00 0.3180000D+00 0.1000000D+00 0.1000000D+00
EXPONENTS  0.1000000D+00 0.1000000D+00 0.1000000D+00 0.1000000D+00 0.7610000D+00
EXPONENTS  0.7610000D+00 0.7610000D+00 0.7610000D+00 0.7610000D+00 0.7610000D+00
EXPONENTS  0.7610000D+00 0.7610000D+00 0.7610000D+00 0.7610000D+00 0.2680000D+00
EXPONENTS  0.2680000D+00 0.2680000D+00 0.2680000D+00 0.2680000D+00 0.2680000D+00
EXPONENTS  0.2680000D+00 0.2680000D+00 0.2680000D+00 0.2680000D+00 0.3387000D+02
EXPONENTS  0.5095000D+01 0.1159000D+01 0.3258000D+00 0.1027000D+00 0.2526000D-01
EXPONENTS  0.1407000D+01 0.1407000D+01 0.1407000D+01 0.3880000D+00 0.3880000D+00
EXPONENTS  0.3880000D+00 0.1020000D+00 0.1020000D+00 0.1020000D+00 0.1057000D+01
EXPONENTS  0.1057000D+01 0.1057000D+01 0.1057000D+01 0.1057000D+01 0.1057000D+01
EXPONENTS  0.2470000D+00 0.2470000D+00 0.2470000D+00 0.2470000D+00 0.2470000D+00
EXPONENTS  0.2470000D+00 0.3387000D+02 0.5095000D+01 0.1159000D+01 0.3258000D+00
EXPONENTS  0.1027000D+00 0.2526000D-01 0.1407000D+01 0.1407000D+01 0.1407000D+01
EXPONENTS  0.3880000D+00 0.3880000D+00 0.3880000D+00 0.1020000D+00 0.1020000D+00
EXPONENTS  0.1020000D+00 0.1057000D+01 0.1057000D+01 0.1057000D+01 0.1057000D+01
EXPONENTS  0.1057000D+01 0.1057000D+01 0.2470000D+00 0.2470000D+00 0.2470000D+00
EXPONENTS  0.2470000D+00 0.2470000D+00 0.2470000D+00
MO    1     MO 0.0        OCC NO =    2.0000076  ORB. ENERGY =    0.000000
 -0.26738331D+00 -0.49835853D+00 -0.84503692D+00 -0.12788735D+01 -0.15952939D+01
 -0.13689995D+01 -0.52425408D+00 -0.36275849D-04 -0.38921605D-03 -0.14347237D-02
 -0.41950478D-02 -0.50552366D-02  0.60895682D-02 -0.23746000D-01  0.68507345D-03
  0.15410027D-04  0.72335980D-13  0.70141568D-13  0.47317087D-13  0.16642899D-03
  0.16138014D-03  0.10886609D-03  0.14652700D-01  0.14208190D-01  0.95847610D-02
  0.15135216D-13  0.17995089D-04  0.18795325D-02  0.21375905D-15  0.24203439D-05
  0.63441559D-03  0.13772187D-15  0.40219014D-06  0.80100414D-05  0.92703168D-03
  0.11174895D-03 -0.10387806D-02 -0.12138144D-14 -0.40546676D-15 -0.10035010D-04
  0.23031691D-03  0.11945563D-03 -0.34977254D-03 -0.15264685D-16 -0.86671982D-16
 -0.14026922D-04  0.63049000D-04  0.10881835D-04 -0.73930835D-04 -0.16393224D-15
  0.76056939D-15 -0.17447277D-05  0.16046902D-15 -0.27610966D-05 -0.10805290D-03
 -0.46728821D-14  0.64377327D-05  0.45168106D-03  0.41914751D-14  0.18455570D-05
 -0.12752237D-03 -0.64124876D-14  0.25937470D-15 -0.21047687D-05  0.10469702D-03
  0.32113211D-15 -0.37742703D-05 -0.17045506D-03 -0.10992562D-14  0.10088576D-04
 -0.14363599D-03 -0.24933893D-15  0.27691440D+00  0.51622422D+00  0.87248927D+00
  0.13115141D+01  0.16109602D+01  0.13595936D+01  0.51124268D+00  0.32322555D-04
  0.24159107D-03  0.90288099D-03  0.25188974D-02  0.33746280D-02 -0.39848065D-02
  0.22748977D-01  0.53734392D-03  0.12367008D-03  0.18101229D-13  0.16971053D-13
  0.12084401D-13  0.30701454D-08  0.28784564D-08  0.20496325D-08  0.20484595D-02
  0.19205610D-02  0.13675538D-02  0.63238139D-14  0.62125023D-05  0.25292575D-03
  0.31723715D-15  0.85003325D-05 -0.10219407D-03 -0.78114204D-16 -0.16418704D-06
 -0.34830074D-05 -0.12229127D-02  0.23830604D-03  0.98460662D-03  0.19087047D-14
  0.37020983D-14  0.24252142D-04  0.14497502D-03  0.20209827D-04 -0.16518485D-03
 -0.24646093D-14  0.32051359D-14 -0.17396892D-04 -0.58694365D-05  0.19110340D-04
 -0.13240904D-04 -0.21412843D-15  0.58851185D-16 -0.71691494D-06 -0.67903399D-15
 -0.71581298D-05  0.55113993D-03 -0.14294793D-15  0.60758693D-06 -0.50222096D-04
  0.21800499D-14  0.20866802D-04 -0.16031977D-02  0.22243242D-14  0.11772811D-15
 -0.25907183D-06 -0.11434467D-03 -0.81385504D-15 -0.70606889D-06  0.43755032D-04
  0.46067073D-15  0.14832844D-05  0.29927898D-03  0.93187742D-15 -0.27388435D-03
 -0.49396170D-03 -0.72834623D-03 -0.23199093D-03 -0.46437393D-03 -0.11725266D-04
 -0.39438126D-14  0.77434941D-03 -0.52165425D-03  0.44135108D-14  0.22705516D-03
 -0.76478092D-04  0.73596203D-15  0.43364853D-04 -0.57181573D-04  0.21790551D-03
 -0.35729524D-03  0.13938973D-03  0.15477989D-15  0.30221646D-14  0.86921385D-03
  0.46832101D-04 -0.13663473D-04 -0.33168628D-04 -0.82337989D-15  0.93910935D-15
 -0.26931005D-04 -0.27414382D-03 -0.49442967D-03 -0.72903627D-03 -0.20983757D-03
 -0.44063427D-03 -0.12213157D-04  0.17550898D-15 -0.77443811D-03 -0.52656578D-03
 -0.74662353D-15 -0.21251539D-03 -0.87047347D-04 -0.12166056D-15 -0.39264359D-04
 -0.56238844D-04  0.22324692D-03 -0.34701812D-03  0.12377120D-03 -0.10576850D-14
 -0.29181120D-15 -0.88881242D-03  0.47201744D-04 -0.12102260D-04 -0.35099485D-04
 -0.29629900D-15  0.16582500D-15  0.25744805D-04
MO    2     MO 0.0        OCC NO =    2.0000041  ORB. ENERGY =    0.000000
  0.42241671D+00  0.78731529D+00  0.13350037D+01  0.20203862D+01  0.25202725D+01
  0.21627687D+01  0.82822553D+00  0.49613642D-04  0.53232182D-03  0.19622385D-02
  0.57374702D-02  0.69139305D-02 -0.83285620D-02  0.38591561D-01 -0.65406961D-03
 -0.80025984D-04 -0.72576519D-14 -0.70374811D-14 -0.47474431D-14 -0.12041360D-03
 -0.11676069D-03 -0.78766069D-04 -0.10978338D-01 -0.10645294D-01 -0.71812528D-02
 -0.39129062D-14  0.14722489D-04  0.14478661D-02 -0.31508106D-14  0.20009220D-05
  0.10558968D-03  0.16387831D-17  0.21191898D-06  0.19447185D-05 -0.99445371D-03
 -0.59997240D-04  0.10544510D-02  0.25759390D-14 -0.20830475D-14  0.15783790D-04
  0.34856512D-03  0.53664437D-03 -0.88520949D-03 -0.17249771D-15  0.55208047D-14
 -0.30285273D-04  0.34118375D-04 -0.63416374D-06 -0.33484211D-04 -0.10816555D-15
  0.11596215D-14 -0.22862454D-05  0.27930986D-14 -0.16135605D-05  0.11054101D-03
 -0.31316611D-14 -0.26336752D-05 -0.24024502D-03 -0.52476348D-14  0.74743566D-05
 -0.91378007D-04  0.56357430D-15  0.26482490D-15 -0.25435447D-05  0.12858960D-03
  0.11510799D-14 -0.19399973D-05 -0.16764756D-03 -0.19455546D-14  0.95706313D-05
 -0.21812125D-03  0.75239576D-15  0.17517631D+00  0.32656393D+00  0.55193753D+00
  0.82966505D+00  0.10190949D+01  0.86008015D+00  0.32341260D+00  0.17392577D-04
  0.12999874D-03  0.48583496D-03  0.13554039D-02  0.18158675D-02 -0.21442010D-02
  0.14455625D-01  0.50694634D-03  0.93215727D-04 -0.49463447D-14 -0.46375126D-14
 -0.33021852D-14 -0.31163303D-05 -0.29217577D-05 -0.20804656D-05  0.11520047D-02
  0.10800777D-02  0.76907965D-03  0.14292830D-14  0.30420887D-04  0.16065212D-02
  0.51019413D-15  0.20316234D-05 -0.11231168D-04 -0.24158408D-16 -0.53221706D-07
  0.51705559D-06 -0.10273420D-02 -0.30881239D-03  0.13361544D-02  0.22825083D-14
 -0.15967460D-15  0.24296230D-04  0.16429630D-04 -0.25911967D-03  0.24269004D-03
 -0.17378802D-14  0.34691713D-14 -0.75626295D-05 -0.18651025D-05  0.42015801D-04
 -0.40150699D-04 -0.19319554D-15  0.63894628D-16 -0.86230746D-06 -0.89870958D-15
 -0.58872160D-06  0.34847306D-03  0.49445377D-15 -0.49700286D-05 -0.22806086D-03
  0.22016750D-14  0.67361934D-05 -0.81735833D-03  0.10391026D-14  0.19086279D-16
 -0.56417258D-07 -0.89212128D-05 -0.53831959D-15 -0.86207334D-06 -0.38645015D-04
  0.48106075D-15  0.10313251D-05  0.65408654D-04  0.65131781D-15 -0.14600495D-03
 -0.26332594D-03 -0.38827394D-03  0.10056171D-03 -0.35390976D-03 -0.74192648D-05
 -0.27723197D-14  0.34615470D-03 -0.21961888D-03  0.28734023D-14 -0.64650656D-04
  0.12530981D-03  0.45658157D-15 -0.89533356D-05 -0.83303555D-04  0.12533868D-03
 -0.13386549D-03  0.85268183D-05 -0.14246734D-14  0.69070721D-15  0.41832657D-03
  0.27907728D-05  0.21820184D-05 -0.49727912D-05 -0.53396086D-15  0.81226189D-15
 -0.47449257D-05 -0.14795986D-03 -0.26685169D-03 -0.39347267D-03  0.12813806D-03
 -0.34437774D-03 -0.74960446D-05 -0.66634600D-15 -0.34607861D-03 -0.21826362D-03
 -0.28088213D-15  0.83979530D-04  0.13645173D-03 -0.50703983D-15  0.10979116D-04
 -0.83327911D-04  0.12147442D-03 -0.13530993D-03  0.13835506D-04 -0.19374077D-14
 -0.17569741D-15 -0.40966274D-03  0.18063281D-05  0.30293947D-05 -0.48357228D-05
 -0.55310454D-15 -0.27226223D-15  0.68696302D-05
MO    3     MO 0.0        OCC NO =    1.9805518  ORB. ENERGY =    0.000000
 -0.96677842D-01 -0.18019160D+00 -0.30554018D+00 -0.46240258D+00 -0.57681077D+00
 -0.49498945D+00 -0.18955466D+00 -0.16853296D-02 -0.18082481D-01 -0.66655430D-01
 -0.19489657D+00 -0.23485984D+00  0.28291357D+00  0.14940282D+00  0.75514293D-01
  0.44178058D-02 -0.84799675D-13 -0.82227160D-13 -0.55469956D-13  0.18765485D-02
  0.18196208D-02  0.12275055D-02 -0.19362645D-02 -0.18775253D-02 -0.12665675D-02
 -0.19784288D-13  0.38410101D-03 -0.80253131D-02 -0.71068682D-14  0.17599211D-03
  0.80810132D-02 -0.61326453D-15  0.62163859D-05  0.89890319D-04 -0.14822307D-01
 -0.15845215D-01  0.30667521D-01  0.39383534D-14  0.45040436D-15  0.59929831D-03
 -0.42665688D-02 -0.51225973D-02  0.93891661D-02 -0.74103102D-16  0.64377267D-14
  0.18173186D-03  0.46278208D-03  0.51041269D-03 -0.97319477D-03  0.98623092D-15
  0.24246721D-14 -0.42327521D-04  0.52115587D-15  0.78336486D-04 -0.89154661D-02
 -0.22560560D-14  0.11968772D-03  0.14287834D-01  0.69258835D-15 -0.35469718D-03
  0.12458564D-01  0.10378211D-13  0.59283304D-15  0.57321465D-05 -0.35952596D-03
  0.10144299D-14 -0.24297955D-05  0.23448175D-04 -0.27929290D-14 -0.14766644D-04
  0.10551297D-02 -0.25038558D-14 -0.28161475D-01 -0.52498662D-01 -0.88729892D-01
 -0.13337758D+00 -0.16383046D+00 -0.13826713D+00 -0.51992052D-01 -0.59171620D-03
 -0.44227120D-02 -0.16528685D-01 -0.46112456D-01 -0.61777978D-01  0.72948273D-01
  0.30046812D-01  0.19106456D-01  0.40748815D-03 -0.27083994D-13 -0.25392966D-13
 -0.18081305D-13  0.14917189D-02  0.13985813D-02  0.99587317D-03  0.10585713D+00
  0.99247785D-01  0.70670336D-01 -0.28904002D-14  0.20906137D-03  0.65654027D-02
  0.14768940D-14 -0.47861553D-04 -0.40020551D-02  0.15883750D-15 -0.27270906D-05
 -0.55088178D-04 -0.18335152D-01 -0.79339803D-02  0.26269132D-01  0.15012006D-14
 -0.40773438D-14  0.74781079D-03 -0.31357623D-02  0.25235818D-02  0.61218050D-03
 -0.21311691D-14  0.34365637D-14  0.45657789D-04  0.16127106D-04  0.49165471D-03
 -0.50778181D-03 -0.45808392D-15  0.40428756D-15 -0.14842811D-04 -0.68510265D-15
 -0.55323875D-04  0.43553250D-02  0.50040140D-15 -0.18301764D-04 -0.95016593D-03
  0.15549065D-14  0.18427339D-03 -0.12115809D-01  0.29418867D-14 -0.10506447D-15
  0.81476103D-05 -0.31547430D-04 -0.26321976D-15  0.34317397D-05  0.44139350D-03
  0.57841317D-15 -0.27874571D-04 -0.34675121D-03 -0.13274948D-14  0.64911035D-02
  0.11706972D-01  0.17261924D-01  0.27533235D-04 -0.58418367D-02 -0.75367012D-04
 -0.12263778D-14 -0.28036855D-02  0.23175376D-02  0.60662269D-15  0.41551820D-02
 -0.41007337D-02  0.49070323D-15  0.55594550D-03 -0.14686768D-02  0.51180486D-03
 -0.10801420D-02  0.56833713D-03  0.76180144D-15 -0.13777085D-14  0.19920794D-02
  0.34585689D-03 -0.78929929D-04 -0.26692696D-03 -0.30694573D-15  0.71180428D-15
  0.95047013D-03  0.64533723D-02  0.11638923D-01  0.17161585D-01 -0.51498840D-04
 -0.58801199D-02 -0.83911672D-04 -0.18602321D-14  0.27644574D-02  0.21886482D-02
  0.17141210D-15 -0.42166609D-02 -0.40648341D-02 -0.11254769D-14 -0.56258857D-03
 -0.14912696D-02  0.55368224D-03 -0.10808161D-02  0.52713381D-03 -0.12277959D-14
 -0.16206386D-15 -0.21440730D-02  0.34613303D-03 -0.80318701D-04 -0.26581433D-03
 -0.40285900D-15 -0.97939443D-15 -0.94264963D-03
MO    4     MO 0.0        OCC NO =    1.9668848  ORB. ENERGY =    0.000000
  0.36137239D-01  0.67353871D-01  0.11420795D+00  0.17284159D+00  0.21560626D+00
  0.18502225D+00  0.70853693D-01  0.69149516D-03  0.74192893D-02  0.27348897D-01
  0.79966571D-01  0.96363607D-01 -0.11608018D+00 -0.65927360D-01 -0.54258927D-01
 -0.31080692D-02  0.79822721D-13  0.77401189D-13  0.52214385D-13  0.13852237D-01
  0.13432010D-01  0.90611547D-02 -0.67825203D+00 -0.65767632D+00 -0.44366456D+00
  0.17364610D-13  0.33306926D-02 -0.15217941D+00 -0.11174619D-13  0.59151292D-03
 -0.15797371D-01 -0.57331159D-15  0.20201601D-04 -0.10794828D-03 -0.19546826D-01
 -0.19334863D-01  0.38881689D-01  0.41364648D-14 -0.27296728D-13 -0.51865819D-03
 -0.35682866D-02 -0.40108160D-02  0.75791026D-02 -0.57746788D-15  0.11323254D-13
 -0.19378120D-03  0.26065509D-06 -0.13835521D-03  0.13809456D-03  0.86918368D-15
  0.63401481D-14 -0.23376949D-04 -0.24182381D-14 -0.80582170D-04 -0.60210576D-02
 -0.41993297D-14  0.64325455D-04  0.58892183D-02  0.11454044D-13  0.17742105D-03
  0.12173955D-01 -0.69053741D-14  0.20182148D-14 -0.69372567D-05 -0.14463778D-03
  0.23622783D-14  0.34957846D-05 -0.20158937D-03 -0.84169226D-14  0.17315986D-04
  0.63550272D-03 -0.89690643D-15 -0.49520959D-01 -0.92317044D-01 -0.15602838D+00
 -0.23453976D+00 -0.28809009D+00 -0.24313787D+00 -0.91426188D-01 -0.12029470D-02
 -0.89912833D-02 -0.33602478D-01 -0.93745683D-01 -0.12559337D+00  0.14830235D+00
  0.64382488D-01  0.45901087D-01  0.11150826D-02  0.20285569D-13  0.19019010D-13
  0.13542668D-13  0.47037433D-02  0.44100583D-02  0.31402243D-02 -0.11366510D+00
 -0.10656825D+00 -0.75882945D-01  0.17008180D-13  0.11454204D-02 -0.31739753D-01
  0.58268343D-14  0.18243244D-04 -0.56229053D-02  0.10875359D-15 -0.44269659D-05
 -0.49018624D-05 -0.17575943D-01  0.14296663D-01  0.32792801D-02  0.96223634D-16
  0.25381853D-14  0.71539192D-03 -0.45561897D-02  0.49132539D-02 -0.35706422D-03
  0.11031269D-14  0.15483591D-13  0.28977632D-04 -0.95956948D-04  0.13785751D-04
  0.82171197D-04 -0.18869459D-15  0.86779410D-15 -0.40756285D-05 -0.14782559D-14
 -0.11340793D-03  0.42709885D-02 -0.23000442D-14 -0.73867001D-04  0.63488112D-03
  0.67348118D-14  0.41409078D-03 -0.13447846D-01  0.56682686D-15 -0.48840450D-15
 -0.86998338D-05  0.28229163D-03 -0.10257335D-14  0.31533466D-05  0.64597273D-03
  0.24909470D-14  0.22946155D-04 -0.14928476D-02 -0.14379347D-14  0.24531374D-01
  0.44243344D-01  0.65236784D-01  0.27097431D-01 -0.40104788D-02 -0.88201300D-04
  0.99093728D-16 -0.17810182D-01  0.89873462D-02  0.11353775D-14  0.25949910D-03
 -0.19041488D-02 -0.11385559D-15  0.13513764D-02 -0.49842832D-03 -0.16620233D-02
  0.19836092D-02 -0.32158590D-03  0.58971070D-15  0.12996231D-14 -0.30924566D-02
  0.29078842D-03 -0.13705039D-03 -0.15373803D-03 -0.62245678D-16  0.42057381D-15
  0.56445583D-03  0.24186338D-01  0.43621057D-01  0.64319222D-01  0.26702914D-01
 -0.40737937D-02 -0.97044743D-04 -0.12611385D-14  0.17585510D-01  0.86271102D-02
  0.46245085D-14 -0.14809016D-03 -0.19847847D-02 -0.42451288D-15 -0.13603133D-02
 -0.51515442D-03 -0.16005983D-02  0.20868915D-02 -0.48629323D-03  0.19243203D-14
  0.20805344D-14  0.27763333D-02  0.28517488D-03 -0.12471721D-03 -0.16045767D-03
  0.88083970D-15  0.26315250D-15 -0.55011742D-03
MO    5     MO 0.0        OCC NO =    1.9653377  ORB. ENERGY =    0.000000
 -0.35715767D-03 -0.66568317D-03 -0.11287594D-02 -0.17082573D-02 -0.21309163D-02
 -0.18286432D-02 -0.70027320D-03 -0.67506476D-05 -0.72430019D-04 -0.26699069D-03
 -0.78066511D-03 -0.94073941D-03  0.11332203D-02  0.62981854D-03  0.50540477D-03
 -0.28994416D-04  0.37543344D-13  0.36404415D-13  0.24558203D-13  0.13316763D+01
  0.12912781D+01  0.87108857D+00 -0.12646820D-01 -0.12263161D-01 -0.82726559D-02
  0.94381125D-14  0.31472323D+00 -0.30131628D-02  0.80622714D-14  0.50342779D-01
 -0.54559970D-03  0.86832596D-15  0.15701568D-02 -0.85788925D-05 -0.46843682D-04
 -0.92791287D-03  0.97475655D-03 -0.38890892D-14 -0.63093106D-14 -0.10120176D+00
 -0.38926694D-05 -0.26987409D-03  0.27376676D-03  0.15611853D-14 -0.50184156D-14
 -0.28496134D-01 -0.62875597D-06 -0.24209117D-04  0.24837873D-04 -0.42841666D-15
 -0.39403880D-14 -0.26313342D-02  0.26383498D-14 -0.12958425D-01 -0.36092544D-03
  0.86437785D-15  0.90237358D-04  0.17284010D-04 -0.87794272D-14  0.38785037D-01
  0.10654923D-02 -0.68579448D-15 -0.13861441D-14 -0.97047530D-03 -0.30380012D-04
 -0.10035175D-14  0.42703358D-03  0.13184339D-05  0.51619498D-14  0.24843923D-02
  0.89821601D-04  0.34541458D-15  0.72698429D-03  0.13552452D-02  0.22905490D-02
  0.34431223D-02  0.42292591D-02  0.35693455D-02  0.13421671D-02  0.17907810D-04
  0.13384979D-03  0.50022721D-03  0.13955560D-02  0.18696603D-02 -0.22077202D-02
 -0.90342704D-03 -0.11996828D-02 -0.58526695D-04  0.13934293D-13  0.13064286D-13
  0.93025498D-14  0.40601571D+00  0.38066554D+00  0.27105654D+00  0.29363660D-02
  0.27530298D-02  0.19603212D-02 -0.24762313D-14  0.10512125D+00  0.73044976D-03
 -0.99634719D-15  0.62748444D-02  0.12670972D-03 -0.12659165D-15 -0.33184739D-03
  0.16727386D-05  0.17305902D-03  0.33413273D-04 -0.20647229D-03  0.19052524D-16
  0.14582480D-14  0.28971119D-01  0.98106221D-04 -0.35205969D-04 -0.62900252D-04
 -0.40843890D-16 -0.69264489D-14 -0.37996155D-02  0.81980872D-05 -0.23073411D-04
  0.14875324D-04  0.14272178D-15 -0.10012682D-14 -0.88546956D-03  0.62622810D-15
 -0.38780133D-02 -0.13936012D-03  0.51307259D-15 -0.54713629D-02 -0.79890789D-04
 -0.23917569D-14  0.17105403D-01  0.49797114D-03  0.13336975D-14  0.15392719D-15
 -0.38089340D-03 -0.22637800D-04  0.15788279D-15 -0.31526346D-03 -0.11845060D-04
 -0.61966436D-15  0.14579437D-02  0.79758460D-04 -0.11501345D-15  0.17909592D-01
  0.32300686D-01  0.47627343D-01  0.18939437D-01 -0.13418168D-02  0.34960283D-03
  0.21751302D-14 -0.11048710D-01  0.13618839D-01 -0.15204743D-14  0.55115147D-02
  0.18105306D-02 -0.89908190D-15  0.46233730D-03  0.65575184D-03 -0.18346849D-02
 -0.14760235D-02  0.33107084D-02 -0.20228926D-14  0.16735550D-15 -0.82593138D-02
  0.31741029D-03 -0.46299735D-03  0.14558706D-03  0.11738005D-14 -0.10466237D-16
  0.87603856D-03 -0.18741353D-01 -0.33800802D-01 -0.49839263D-01 -0.19709007D-01
  0.17442901D-02 -0.34150495D-03  0.40248737D-15 -0.11595395D-01 -0.13762539D-01
 -0.94764692D-15  0.55291180D-02 -0.17949524D-02 -0.55239244D-15  0.48376830D-03
 -0.56849687D-03  0.18819211D-02  0.13931264D-02 -0.32750475D-02 -0.24831142D-15
  0.55309465D-15 -0.83471380D-02 -0.30277162D-03  0.46968861D-03 -0.16691699D-03
 -0.95436828D-15 -0.64707719D-16  0.89596695D-03
MO    6     MO 0.0        OCC NO =    1.9601081  ORB. ENERGY =    0.000000
  0.19815789D-02  0.36933373D-02  0.62625723D-02  0.94777373D-02  0.11822730D-01
  0.10145661D-01  0.38852493D-02 -0.31533268D-04 -0.33833127D-03 -0.12471528D-02
 -0.36466016D-02 -0.43943322D-02  0.52934388D-02  0.76381072D-02  0.28694817D-01
  0.63073452D-02 -0.18946878D-13 -0.18372098D-13 -0.12393709D-13  0.21864100D-01
  0.21200823D-01  0.14301950D-01  0.13820851D+01  0.13401577D+01  0.90406246D+00
 -0.66229034D-14  0.51754636D-02  0.31967317D+00 -0.12073078D-13  0.72331935D-03
  0.38145257D-01 -0.59969246D-15  0.62287030D-05  0.15781937D-03  0.41980345D-01
  0.43753417D-01 -0.85733762D-01 -0.83963100D-16 -0.90018478D-14 -0.32834101D-02
  0.10429621D-01  0.11781636D-01 -0.22211257D-01 -0.79791235D-15  0.89138380D-14
 -0.83649884D-03  0.26550001D-03  0.51043994D-03 -0.77593994D-03  0.70616587D-15
  0.58186613D-14 -0.43759314D-04 -0.32831703D-14 -0.38654163D-03  0.15662926D-01
 -0.41223858D-14 -0.17954429D-03 -0.15980221D-01  0.13971897D-13  0.13391692D-02
 -0.31008556D-01  0.32932126D-14  0.19103042D-14 -0.33520392D-04  0.20161197D-02
  0.15680185D-14 -0.61467441D-07 -0.24753366D-02 -0.72989311D-14  0.10062264D-03
 -0.35730224D-02 -0.14237586D-14  0.52139859D-02  0.97199200D-02  0.16427989D-01
  0.24694332D-01  0.30332563D-01  0.25599613D-01  0.96261232D-02  0.88963944D-04
  0.66495036D-03  0.24850713D-02  0.69329621D-02  0.92882578D-02 -0.10967701D-01
 -0.62572448D-02  0.16275841D-01  0.10466940D-04 -0.11865994D-13 -0.11125124D-13
 -0.79217507D-14 -0.24886869D-03 -0.23333022D-03 -0.16614502D-03 -0.52338580D+00
 -0.49070746D+00 -0.34941294D+00  0.93316266D-14  0.35989606D-03 -0.10881108D+00
  0.71325801D-14 -0.25822478D-04 -0.86473104D-02  0.16096070D-15  0.11187630D-05
 -0.40754908D-04  0.83615070D-02  0.28580045D-01 -0.36941552D-01  0.61226293D-15
 -0.27268683D-14 -0.58566682D-03  0.20301977D-03  0.24879219D-02 -0.26909416D-02
  0.25195079D-15  0.10025225D-13 -0.91150216D-04 -0.15401368D-03  0.12810180D-03
  0.25911882D-04 -0.34135987D-15  0.19926895D-15 -0.59256367D-05 -0.60979405D-16
  0.88579789D-04 -0.58755072D-02 -0.29008788D-14 -0.46085554D-04  0.64625785D-02
  0.30838170D-14 -0.21965381D-03  0.11163943D-01 -0.13970598D-14 -0.73051780D-15
 -0.13047136D-05  0.76901740D-03  0.44782830D-16  0.44793186D-05 -0.19263363D-03
  0.21467706D-14 -0.56517783D-06 -0.21144186D-02 -0.62553825D-15  0.18288437D-01
  0.32983949D-01  0.48634813D-01  0.30830631D-01  0.81033562D-03  0.84211223D-05
  0.13873051D-14 -0.17424240D-01  0.35498504D-02 -0.21187413D-14 -0.56407440D-02
  0.66595920D-03 -0.11453364D-14  0.33193902D-03 -0.23539070D-03 -0.14382403D-02
  0.52823001D-02 -0.38440598D-02  0.14079319D-15 -0.52355716D-15 -0.43878076D-02
 -0.54218570D-03  0.16996590D-05  0.54048604D-03  0.77805295D-15 -0.71786911D-16
  0.75329953D-04  0.18190465D-01  0.32807252D-01  0.48374274D-01  0.30937166D-01
  0.69638199D-03  0.15046606D-04  0.16637078D-14  0.17429370D-01  0.36123334D-02
 -0.68499951D-15  0.58630104D-02  0.84390398D-03 -0.21127255D-14 -0.34367066D-03
 -0.25317310D-03 -0.15260607D-02  0.52445547D-02 -0.37184940D-02  0.17748993D-14
 -0.22714925D-15  0.47037175D-02 -0.55547966D-03  0.72547477D-05  0.54822491D-03
 -0.71078169D-15 -0.47024991D-15 -0.18991049D-04
MO    7     MO 0.0        OCC NO =    1.9567309  ORB. ENERGY =    0.000000
 -0.13756844D-03 -0.25640494D-03 -0.43477061D-03 -0.65797909D-03 -0.82077706D-03
 -0.70434882D-03 -0.26972818D-03 -0.25523843D-05 -0.27385408D-04 -0.10094777D-03
 -0.29516536D-03 -0.35568862D-03  0.42846463D-03  0.25422371D-03  0.17173221D-03
 -0.93399129D-04  0.58550660D-14  0.56774445D-14  0.38299705D-14  0.11745103D+01
  0.11388799D+01  0.76828166D+00 -0.11735062D-01 -0.11379062D-01 -0.76762482D-02
  0.59943217D-14  0.27735218D+00 -0.27534046D-02  0.63307175D-14  0.50116402D-01
 -0.54503261D-03  0.68346169D-17  0.17016703D-02 -0.14685590D-04  0.84702040D-04
 -0.19583223D-03  0.11113019D-03  0.67243738D-15  0.10354392D-13 -0.11682042D-01
 -0.25396740D-06 -0.32583454D-04  0.32837421D-04  0.21165526D-15 -0.10271511D-13
 -0.29232334D-02 -0.68554377D-05 -0.73641754D-06  0.75918552D-05 -0.16644183D-16
 -0.26465765D-14 -0.65080482D-03  0.11668107D-14 -0.41813722D-02 -0.31727801D-04
  0.27019368D-14  0.88074613D-02 -0.11635775D-03 -0.62023690D-14  0.37366552D-02
  0.21154116D-03 -0.12853583D-14 -0.12771646D-14 -0.30789410D-03 -0.84048403D-05
 -0.14985373D-14 -0.35485423D-03  0.11490184D-04  0.53300311D-14  0.12785365D-02
  0.13724337D-04  0.24216880D-16  0.60694922D-04  0.11314756D-03  0.19123480D-03
  0.28746157D-03  0.35309505D-03  0.29799976D-03  0.11205569D-03  0.15062495D-05
  0.11258282D-04  0.42074769D-04  0.11738205D-03  0.15725959D-03 -0.18569425D-03
 -0.62202788D-04 -0.36462617D-03 -0.30070211D-05  0.82724760D-14  0.77559720D-14
  0.55227141D-14 -0.36131189D+00 -0.33875286D+00 -0.24121222D+00  0.24480679D-02
  0.22952193D-02  0.16343329D-02 -0.68531851D-14 -0.99079162D-01  0.64682605D-03
 -0.19607329D-14 -0.25710261D-01  0.15472436D-03  0.23249270D-16 -0.50651166D-03
  0.39979906D-05 -0.27224089D-04  0.31496773D-03 -0.28774364D-03 -0.18224475D-14
 -0.22706259D-14  0.11075053D+00  0.13376142D-04  0.89446268D-04 -0.10282241D-03
  0.24104271D-14 -0.67879256D-14  0.31840248D-01 -0.57139997D-06 -0.38184823D-05
  0.43898822D-05  0.23872021D-15 -0.79810457D-16  0.34100343D-02  0.13936758D-14
 -0.36569705D-02 -0.50574622D-04  0.82979695D-15  0.27397574D-02 -0.11134522D-04
 -0.50108244D-14  0.82311541D-02  0.16285839D-03 -0.17354213D-14  0.25386576D-15
 -0.58774368D-03 -0.13301205D-04  0.48792688D-15  0.80355562D-03 -0.29416095D-05
 -0.12495242D-14  0.95967543D-03  0.42845224D-04 -0.94066387D-15 -0.34701785D-01
 -0.62586099D-01 -0.92283167D-01 -0.52537541D-01  0.10645858D-01  0.43356566D-03
  0.12510423D-14  0.15048663D-01 -0.10546547D-01 -0.27787988D-14 -0.31980379D-02
  0.20040046D-02 -0.25003079D-15 -0.34842648D-02  0.16973359D-02  0.71313421D-03
 -0.15801834D-02  0.86704916D-03  0.62297970D-15 -0.16949405D-15  0.31625942D-02
  0.94686651D-05  0.35677843D-03 -0.36624709D-03  0.53583280D-15 -0.58759223D-15
  0.38241120D-04  0.34520954D-01  0.62259963D-01  0.91802278D-01  0.52377210D-01
 -0.10441703D-01 -0.43216119D-03 -0.29759819D-15  0.14864938D-01  0.10630674D-01
  0.20177412D-14 -0.32204594D-02 -0.19794101D-02  0.75635789D-15 -0.34654747D-02
 -0.16332220D-02 -0.70288093D-03  0.15217533D-02 -0.81887233D-03  0.15689460D-14
  0.16876845D-14  0.31361732D-02 -0.21130866D-06 -0.34923903D-03  0.34945034D-03
  0.98756938D-15  0.10609506D-15  0.52148142D-04
MO    8     MO 0.0        OCC NO =    1.9226247  ORB. ENERGY =    0.000000
  0.88692082D-14  0.16530746D-13  0.28030202D-13  0.42420731D-13  0.52916518D-13
  0.45410245D-13  0.17389711D-13 -0.16157777D-15 -0.17336235D-14 -0.63904626D-14
 -0.18685338D-13 -0.22516741D-13  0.27123800D-13  0.13974893D-13  0.75247282D-13
  0.32666009D-13  0.13795788D+01  0.13377273D+01  0.90242297D+00 -0.37585936D-13
 -0.36445714D-13 -0.24586064D-13  0.79375938D-13  0.76967960D-13  0.51922131D-13
  0.33248275D+00 -0.12789738D-13 -0.13280840D-13  0.48483503D-01  0.32873145D-14
 -0.12577976D-13  0.88711393D-03 -0.22521256D-14 -0.20805613D-14 -0.20448691D-14
 -0.82351421D-15  0.28683833D-14 -0.10849945D-02 -0.12442478D+00 -0.58063458D-14
 -0.35561777D-14 -0.41114204D-14  0.76675981D-14 -0.33124648D-03 -0.37370882D-01
  0.80732282D-14  0.11366537D-14  0.49729212D-15 -0.16339459D-14 -0.16159201D-04
 -0.23613799D-02 -0.62724504D-15 -0.61323586D-02 -0.12184812D-14 -0.32698210D-14
 -0.22203235D-01  0.47590206D-14  0.21073391D-14  0.40600311D-01 -0.11035770D-14
  0.77021238D-14  0.11146278D-02 -0.36198735D-03  0.16373402D-14  0.11497445D-14
 -0.15474895D-02 -0.27626910D-16 -0.16169356D-14  0.26334516D-02 -0.48843936D-14
 -0.18322980D-14  0.82432150D-04 -0.97414606D-14 -0.18160045D-13 -0.30692950D-13
 -0.46137229D-13 -0.56671322D-13 -0.47828596D-13 -0.17984801D-13 -0.13453924D-16
 -0.10055975D-15 -0.37581474D-15 -0.10484646D-14 -0.14046535D-14  0.16586339D-14
  0.32378049D-14 -0.32949664D-14 -0.10750868D-14  0.41538965D+00  0.38945420D+00
  0.27731459D+00 -0.13393391D-13 -0.12557155D-13 -0.89414424D-14  0.18787088D-13
  0.17614090D-13  0.12542281D-13  0.10664259D+00  0.22246228D-13 -0.31934357D-13
  0.12611365D-01 -0.18732195D-13 -0.32455181D-13  0.39109928D-04  0.21275832D-14