 Entering Gaussian System, Link 0=/home/bruns/programas/chemistry/gaussian/g09/g09
 Input=GAUSSIAN.com
 Output=GAUSSIAN.log
 Initial command:
 /home/bruns/programas/chemistry/gaussian/g09/l1.exe /home/bruns/programas/chemistry/gaussian/work/Gau-74759.inp -scrdir=/home/bruns/programas/chemistry/gaussian/work/
 Entering Link 1 = /home/bruns/programas/chemistry/gaussian/g09/l1.exe PID=     74761.
  
 Copyright (c) 1988,1990,1992,1993,1995,1998,2003,2009,2010,
            Gaussian, Inc.  All Rights Reserved.
  
 This is part of the Gaussian(R) 09 program.  It is based on
 the Gaussian(R) 03 system (copyright 2003, Gaussian, Inc.),
 the Gaussian(R) 98 system (copyright 1998, Gaussian, Inc.),
 the Gaussian(R) 94 system (copyright 1995, Gaussian, Inc.),
 the Gaussian 92(TM) system (copyright 1992, Gaussian, Inc.),
 the Gaussian 90(TM) system (copyright 1990, Gaussian, Inc.),
 the Gaussian 88(TM) system (copyright 1988, Gaussian, Inc.),
 the Gaussian 86(TM) system (copyright 1986, Carnegie Mellon
 University), and the Gaussian 82(TM) system (copyright 1983,
 Carnegie Mellon University). Gaussian is a federally registered
 trademark of Gaussian, Inc.
  
 This software contains proprietary and confidential information,
 including trade secrets, belonging to Gaussian, Inc.
  
 This software is provided under written license and may be
 used, copied, transmitted, or stored only in accord with that
 written license.
  
 The following legend is applicable only to US Government
 contracts under FAR:
  
                    RESTRICTED RIGHTS LEGEND
  
 Use, reproduction and disclosure by the US Government is
 subject to restrictions as set forth in subparagraphs (a)
 and (c) of the Commercial Computer Software - Restricted
 Rights clause in FAR 52.227-19.
  
 Gaussian, Inc.
 340 Quinnipiac St., Bldg. 40, Wallingford CT 06492
  
  
 ---------------------------------------------------------------
 Warning -- This program may not be used in any manner that
 competes with the business of Gaussian, Inc. or will provide
 assistance to any competitor of Gaussian, Inc.  The licensee
 of this program is prohibited from giving any competitor of
 Gaussian, Inc. access to this program.  By using this program,
 the user acknowledges that Gaussian, Inc. is engaged in the
 business of creating and licensing software in the field of
 computational chemistry and represents and warrants to the
 licensee that it is not a competitor of Gaussian, Inc. and that
 it will not use this program in any manner prohibited above.
 ---------------------------------------------------------------
  

 Cite this work as:
 Gaussian 09, Revision B.01,
 M. J. Frisch, G. W. Trucks, H. B. Schlegel, G. E. Scuseria, 
 M. A. Robb, J. R. Cheeseman, G. Scalmani, V. Barone, B. Mennucci, 
 G. A. Petersson, H. Nakatsuji, M. Caricato, X. Li, H. P. Hratchian, 
 A. F. Izmaylov, J. Bloino, G. Zheng, J. L. Sonnenberg, M. Hada, 
 M. Ehara, K. Toyota, R. Fukuda, J. Hasegawa, M. Ishida, T. Nakajima, 
 Y. Honda, O. Kitao, H. Nakai, T. Vreven, J. A. Montgomery, Jr., 
 J. E. Peralta, F. Ogliaro, M. Bearpark, J. J. Heyd, E. Brothers, 
 K. N. Kudin, V. N. Staroverov, T. Keith, R. Kobayashi, J. Normand, 
 K. Raghavachari, A. Rendell, J. C. Burant, S. S. Iyengar, J. Tomasi, 
 M. Cossi, N. Rega, J. M. Millam, M. Klene, J. E. Knox, J. B. Cross, 
 V. Bakken, C. Adamo, J. Jaramillo, R. Gomperts, R. E. Stratmann, 
 O. Yazyev, A. J. Austin, R. Cammi, C. Pomelli, J. W. Ochterski, 
 R. L. Martin, K. Morokuma, V. G. Zakrzewski, G. A. Voth, 
 P. Salvador, J. J. Dannenberg, S. Dapprich, A. D. Daniels, 
 O. Farkas, J. B. Foresman, J. V. Ortiz, J. Cioslowski, 
 and D. J. Fox, Gaussian, Inc., Wallingford CT, 2010.
 
 ******************************************
 Gaussian 09:  EM64L-G09RevB.01 12-Aug-2010
                20-Nov-2021 
 ******************************************
 %nproc=8
 Will use up to    8 processors via shared memory.
 %mem=8GB
 -----------------------------------------------------
 # qcisd/aug-cc-pvtz nosymm density=current output=wfn
 -----------------------------------------------------
 1/30=1,38=1/1;
 2/12=2,15=1,17=6,18=5,40=1/2;
 3/5=16,6=1,7=10,11=9,16=1,25=1,30=1,71=1/1,2,3;
 4//1;
 5/5=2,38=5/2;
 8/6=4,9=120000,10=1/1,4;
 9/5=8,15=1/13;
 11/28=-7,31=1,32=3,42=3/11;
 10/5=6,13=10,31=1/2;
 6/7=2,8=2,9=2,10=2,22=-1,31=1/1;
 99/5=1,6=1100,9=1/99;
 -----------------
 h2co-wavefunction
 -----------------
 Symbolic Z-matrix:
 Charge =  0 Multiplicity = 1
 O                     0.        0.        0.67925 
 C                    -0.01      0.       -0.52691 
 H                     0.        0.93661  -1.10662 
 H                     0.       -0.93661  -1.10662 
 
                          Input orientation:                          
 ---------------------------------------------------------------------
 Center     Atomic      Atomic             Coordinates (Angstroms)
 Number     Number       Type             X           Y           Z
 ---------------------------------------------------------------------
      1          8           0        0.000000    0.000000    0.679252
      2          6           0       -0.010000    0.000000   -0.526911
      3          1           0        0.000000    0.936614   -1.106620
      4          1           0        0.000000   -0.936614   -1.106620
 ---------------------------------------------------------------------
                    Distance matrix (angstroms):
                    1          2          3          4
     1  O    0.000000
     2  C    1.206204   0.000000
     3  H    2.016577   1.101548   0.000000
     4  H    2.016577   1.101548   1.873228   0.000000
 Symmetry turned off by external request.
 Stoichiometry    CH2O
 Framework group  CS[SG(CO),X(H2)]
 Deg. of freedom     4
 Full point group                 CS      NOp   2
 Rotational constants (GHZ):    285.7610988     38.8677293     34.2155707
 Standard basis: Aug-CC-pVTZ (5D, 7F)
 Integral buffers will be    131072 words long.
 Raffenetti 1 integral format.
 Two-electron integral symmetry is turned off.
   138 basis functions,   198 primitive gaussians,   160 cartesian basis functions
     8 alpha electrons        8 beta electrons
       nuclear repulsion energy        31.3040497604 Hartrees.
 NAtoms=    4 NActive=    4 NUniq=    4 SFac= 1.00D+00 NAtFMM=   50 NAOKFM=F Big=F
 One-electron integrals computed using PRISM.
 NBasis=   138 RedAO= T  NBF=   138
 NBsUse=   138 1.00D-06 NBFU=   138
 Harris functional with IExCor=  205 diagonalized for initial guess.
 ExpMin= 2.53D-02 ExpMax= 1.53D+04 ExpMxC= 5.22D+02 IAcc=3 IRadAn=         0 AccDes= 0.00D+00
 HarFok:  IExCor=  205 AccDes= 0.00D+00 IRadAn=         0 IDoV= 1
 ScaDFX=  1.000000  1.000000  1.000000  1.000000
 FoFCou: FMM=F IPFlag=           0 FMFlag=      100000 FMFlg1=           0
         NFxFlg=           0 DoJE=T BraDBF=F KetDBF=T FulRan=T
         Omega=  0.000000  0.000000  1.000000  0.000000  0.000000 ICntrl=     500 IOpCl=  0
         NMat0=    1 NMatS0=    1 NMatT0=    0 NMatD0=    1 NMtDS0=    0 NMtDT0=    0
         I1Cent=           4 NGrid=           0.
 Symmetry not used in FoFCou.
 Requested convergence on RMS density matrix=1.00D-08 within 128 cycles.
 Requested convergence on MAX density matrix=1.00D-06.
 Requested convergence on             energy=1.00D-06.
 No special actions if energy rises.
 Keep R1 ints in memory in canonical form, NReq=85137408.
 SCF Done:  E(RHF) =  -113.913784933     A.U. after   11 cycles
             Convg  =    0.2849D-08             -V/T =  2.0018
 ExpMin= 2.53D-02 ExpMax= 1.53D+04 ExpMxC= 5.22D+02 IAcc=3 IRadAn=         5 AccDes= 0.00D+00
 HarFok:  IExCor=  205 AccDes= 0.00D+00 IRadAn=         5 IDoV=-2
 ScaDFX=  1.000000  1.000000  1.000000  1.000000
 DSYEVD returned Info=          93 IAlg= 4 N=    46 NDim=    46 NE2=    23340785 trying DSYEV.
 Range of M.O.s used for correlation:     3   138
 NBasis=   138 NAE=     8 NBE=     8 NFC=     2 NFV=     0
 NROrb=    136 NOA=     6 NOB=     6 NVA=   130 NVB=   130

 **** Warning!!: The largest alpha MO coefficient is  0.33771101D+02

 Semi-Direct transformation.
 ModeAB=           2 MOrb=             6 LenV=    1073118443
 LASXX=      7286295 LTotXX=     7286295 LenRXX=     7286295
 LTotAB=     7445736 MaxLAS=    10510080 LenRXY=    10510080
 NonZer=    14572590 LenScr=    22628352 LnRSAI=           0
 LnScr1=           0 LExtra=           0 Total=     40424727
 MaxDsk=          -1 SrtSym=           F ITran=            4
 JobTyp=0 Pass  1:  I=   1 to   6.
 (rs|ai) integrals will be sorted in core.
 Spin components of T(2) and E(2):
     alpha-alpha T2 =       0.1376181864D-01 E2=     -0.4804322486D-01
     alpha-beta  T2 =       0.8506314800D-01 E2=     -0.3064430873D+00
     beta-beta   T2 =       0.1376181864D-01 E2=     -0.4804322486D-01
 ANorm=    0.1054792295D+01
 E2 =    -0.4025295371D+00 EUMP2 =    -0.11431631447019D+03
 R2 and R3 integrals will be kept in memory, NReq=   167993840.
 Iterations=  50 Convergence= 0.100D-07
 Iteration Nr.   1
 **********************
 DD1Dir will call FoFMem   1 times, MxPair=        42
 NAB=    21 NAA=     0 NBB=     0.
 MP4(R+Q)=  0.88737908D-02
 E3=       -0.40168913D-02        EUMP3=      -0.11432033136D+03
 E4(DQ)=   -0.13500250D-02        UMP4(DQ)=   -0.11432168139D+03
 E4(SDQ)=  -0.66129838D-02        UMP4(SDQ)=  -0.11432694435D+03
 DE(Corr)= -0.39767264     E(Corr)=     -114.31145757    
 NORM(A)=   0.10554852D+01
 Iteration Nr.   2
 **********************
 DD1Dir will call FoFMem   1 times, MxPair=        42
 NAB=    21 NAA=     0 NBB=     0.
 DE(Corr)= -0.41161729     E(CORR)=     -114.32540223     Delta=-1.39D-02
 NORM(A)=   0.10615405D+01
 Iteration Nr.   3
 **********************
 DD1Dir will call FoFMem   1 times, MxPair=        42
 NAB=    21 NAA=     0 NBB=     0.
 DE(Corr)= -0.41154431     E(CORR)=     -114.32532924     Delta= 7.30D-05
 NORM(A)=   0.10634281D+01
 Iteration Nr.   4
 **********************
 DD1Dir will call FoFMem   1 times, MxPair=        42
 NAB=    21 NAA=     0 NBB=     0.
 DE(Corr)= -0.41295112     E(CORR)=     -114.32673605     Delta=-1.41D-03
 NORM(A)=   0.10641083D+01
 Iteration Nr.   5
 **********************
 DD1Dir will call FoFMem   1 times, MxPair=        42
 NAB=    21 NAA=     0 NBB=     0.
 DE(Corr)= -0.41313869     E(CORR)=     -114.32692363     Delta=-1.88D-04
 NORM(A)=   0.10643235D+01
 Iteration Nr.   6
 **********************
 DD1Dir will call FoFMem   1 times, MxPair=        42
 NAB=    21 NAA=     0 NBB=     0.
 DE(Corr)= -0.41316463     E(CORR)=     -114.32694957     Delta=-2.59D-05
 NORM(A)=   0.10643488D+01
 Iteration Nr.   7
 **********************
 DD1Dir will call FoFMem   1 times, MxPair=        42
 NAB=    21 NAA=     0 NBB=     0.
 DE(Corr)= -0.41316585     E(CORR)=     -114.32695078     Delta=-1.21D-06
 NORM(A)=   0.10643500D+01
 Iteration Nr.   8
 **********************
 DD1Dir will call FoFMem   1 times, MxPair=        42
 NAB=    21 NAA=     0 NBB=     0.
 DE(Corr)= -0.41316497     E(CORR)=     -114.32694990     Delta= 8.77D-07
 NORM(A)=   0.10643528D+01
 Iteration Nr.   9
 **********************
 DD1Dir will call FoFMem   1 times, MxPair=        42
 NAB=    21 NAA=     0 NBB=     0.
 DE(Corr)= -0.41316385     E(CORR)=     -114.32694879     Delta= 1.12D-06
 NORM(A)=   0.10643531D+01
 Iteration Nr.  10
 **********************
 DD1Dir will call FoFMem   1 times, MxPair=        42
 NAB=    21 NAA=     0 NBB=     0.
 DE(Corr)= -0.41316447     E(CORR)=     -114.32694941     Delta=-6.21D-07
 NORM(A)=   0.10643536D+01
 Iteration Nr.  11
 **********************
 DD1Dir will call FoFMem   1 times, MxPair=        42
 NAB=    21 NAA=     0 NBB=     0.
 DE(Corr)= -0.41316461     E(CORR)=     -114.32694954     Delta=-1.32D-07
 NORM(A)=   0.10643540D+01
 Iteration Nr.  12
 **********************
 DD1Dir will call FoFMem   1 times, MxPair=        42
 NAB=    21 NAA=     0 NBB=     0.
 DE(Corr)= -0.41316476     E(CORR)=     -114.32694969     Delta=-1.55D-07
 NORM(A)=   0.10643542D+01
 Iteration Nr.  13
 **********************
 DD1Dir will call FoFMem   1 times, MxPair=        42
 NAB=    21 NAA=     0 NBB=     0.
 DE(Corr)= -0.41316482     E(CORR)=     -114.32694976     Delta=-6.13D-08
 NORM(A)=   0.10643543D+01
 Iteration Nr.  14
 **********************
 DD1Dir will call FoFMem   1 times, MxPair=        42
 NAB=    21 NAA=     0 NBB=     0.
 DE(Corr)= -0.41316485     E(CORR)=     -114.32694979     Delta=-3.16D-08
 NORM(A)=   0.10643544D+01
 Iteration Nr.  15
 **********************
 DD1Dir will call FoFMem   1 times, MxPair=        42
 NAB=    21 NAA=     0 NBB=     0.
 DE(Corr)= -0.41316486     E(CORR)=     -114.32694979     Delta=-4.76D-09
 NORM(A)=   0.10643544D+01
 Iteration Nr.  16
 **********************
 DD1Dir will call FoFMem   1 times, MxPair=        42
 NAB=    21 NAA=     0 NBB=     0.
 DE(Corr)= -0.41316486     E(CORR)=     -114.32694979     Delta=-3.00D-09
 NORM(A)=   0.10643544D+01
 Largest amplitude= 6.44D-02

 Z-AMPLITUDE ITERATIONS

 Iteration Nr.   1
 **********************
 DD1Dir will call FoFMem   1 times, MxPair=        42
 NAB=    21 NAA=     0 NBB=     0.
 DE(Z)  -0.40112858D+00          E(Z)=    -0.11431491351D+03
 NORM(A)=   0.10643544D+01
 Iteration Nr.   2
 **********************
 DD1Dir will call FoFMem   1 times, MxPair=        42
 NAB=    21 NAA=     0 NBB=     0.
 DE(Z)  -0.40112858D+00          E(Z)=    -0.11431491351D+03
 NORM(A)=   0.10643544D+01
 Iteration Nr.   3
 **********************
 DD1Dir will call FoFMem   1 times, MxPair=        42
 NAB=    21 NAA=     0 NBB=     0.
 DE(Z)  -0.40112858D+00          E(Z)=    -0.11431491351D+03
 NORM(A)=   0.10643544D+01
 Iteration Nr.   4
 **********************
 DD1Dir will call FoFMem   1 times, MxPair=        42
 NAB=    21 NAA=     0 NBB=     0.
 DE(Z)  -0.40112858D+00          E(Z)=    -0.11431491351D+03
 NORM(A)=   0.10643544D+01
 Iteration Nr.   5
 **********************
 DD1Dir will call FoFMem   1 times, MxPair=        42
 NAB=    21 NAA=     0 NBB=     0.
 DE(Z)  -0.40112858D+00          E(Z)=    -0.11431491351D+03
 NORM(A)=   0.10606552D+01
 Iteration Nr.   6
 **********************
 DD1Dir will call FoFMem   1 times, MxPair=        42
 NAB=    21 NAA=     0 NBB=     0.
 DE(Z)  -0.40088799D+00          E(Z)=    -0.11431467292D+03
 NORM(A)=   0.10603752D+01
 Iteration Nr.   7
 **********************
 DD1Dir will call FoFMem   1 times, MxPair=        42
 NAB=    21 NAA=     0 NBB=     0.
 DE(Z)  -0.40093651D+00          E(Z)=    -0.11431472144D+03
 NORM(A)=   0.10603342D+01
 Iteration Nr.   8
 **********************
 DD1Dir will call FoFMem   1 times, MxPair=        42
 NAB=    21 NAA=     0 NBB=     0.
 DE(Z)  -0.40092044D+00          E(Z)=    -0.11431470537D+03
 NORM(A)=   0.10602915D+01
 Iteration Nr.   9
 **********************
 DD1Dir will call FoFMem   1 times, MxPair=        42
 NAB=    21 NAA=     0 NBB=     0.
 DE(Z)  -0.40091434D+00          E(Z)=    -0.11431469927D+03
 NORM(A)=   0.10602724D+01
 Iteration Nr.  10
 **********************
 DD1Dir will call FoFMem   1 times, MxPair=        42
 NAB=    21 NAA=     0 NBB=     0.
 DE(Z)  -0.40091589D+00          E(Z)=    -0.11431470082D+03
 NORM(A)=   0.10602711D+01
 Iteration Nr.  11
 **********************
 DD1Dir will call FoFMem   1 times, MxPair=        42
 NAB=    21 NAA=     0 NBB=     0.
 DE(Z)  -0.40091431D+00          E(Z)=    -0.11431469924D+03
 NORM(A)=   0.10602704D+01
 Iteration Nr.  12
 **********************
 DD1Dir will call FoFMem   1 times, MxPair=        42
 NAB=    21 NAA=     0 NBB=     0.
 DE(Z)  -0.40091428D+00          E(Z)=    -0.11431469922D+03
 NORM(A)=   0.10602703D+01
 Iteration Nr.  13
 **********************
 DD1Dir will call FoFMem   1 times, MxPair=        42
 NAB=    21 NAA=     0 NBB=     0.
 DE(Z)  -0.40091439D+00          E(Z)=    -0.11431469932D+03
 NORM(A)=   0.10602704D+01
 Iteration Nr.  14
 **********************
 DD1Dir will call FoFMem   1 times, MxPair=        42
 NAB=    21 NAA=     0 NBB=     0.
 DE(Z)  -0.40091430D+00          E(Z)=    -0.11431469923D+03
 NORM(A)=   0.10602704D+01
 Iteration Nr.  15
 **********************
 DD1Dir will call FoFMem   1 times, MxPair=        42
 NAB=    21 NAA=     0 NBB=     0.
 DE(Z)  -0.40091433D+00          E(Z)=    -0.11431469926D+03
 NORM(A)=   0.10602704D+01
 Iteration Nr.  16
 **********************
 DD1Dir will call FoFMem   1 times, MxPair=        42
 NAB=    21 NAA=     0 NBB=     0.
 DE(Z)  -0.40091432D+00          E(Z)=    -0.11431469926D+03
 NORM(A)=   0.10602704D+01
 Iteration Nr.  17
 **********************
 DD1Dir will call FoFMem   1 times, MxPair=        42
 NAB=    21 NAA=     0 NBB=     0.
 DE(Z)  -0.40091432D+00          E(Z)=    -0.11431469926D+03
 NORM(A)=   0.10602704D+01
 Discarding MO integrals.
          Differentiating once with respect to electric field.
                with respect to dipole field.
          Electric field/nuclear overlap derivatives assumed to be zero.
          Keep R1 ints in memory in canonical form, NReq=84894547.
          There are     1 degrees of freedom in the 1st order CPHF.  IDoFFX=0.
 LinEq1:  Iter=  0 NonCon=     1 RMS=3.55D-03 Max=5.57D-02
 AX will form     1 AO Fock derivatives at one time.
 LinEq1:  Iter=  1 NonCon=     1 RMS=8.96D-04 Max=8.54D-03
 LinEq1:  Iter=  2 NonCon=     1 RMS=2.35D-04 Max=3.42D-03
 LinEq1:  Iter=  3 NonCon=     1 RMS=1.15D-04 Max=1.21D-03
 LinEq1:  Iter=  4 NonCon=     1 RMS=4.45D-05 Max=5.32D-04
 LinEq1:  Iter=  5 NonCon=     1 RMS=9.21D-06 Max=8.74D-05
 LinEq1:  Iter=  6 NonCon=     1 RMS=1.50D-06 Max=1.74D-05
 LinEq1:  Iter=  7 NonCon=     1 RMS=2.28D-07 Max=1.66D-06
 LinEq1:  Iter=  8 NonCon=     1 RMS=2.61D-08 Max=2.07D-07
 LinEq1:  Iter=  9 NonCon=     1 RMS=3.14D-09 Max=2.52D-08
 LinEq1:  Iter= 10 NonCon=     1 RMS=3.00D-10 Max=2.30D-09
 LinEq1:  Iter= 11 NonCon=     0 RMS=3.23D-11 Max=3.90D-10
 Linear equations converged to 1.000D-10 1.000D-09 after    11 iterations.
 End of Minotr Frequency-dependent properties file   721 does not exist.
 End of Minotr Frequency-dependent properties file   722 does not exist.

 **********************************************************************

            Population analysis using the QCI/CC density.

 **********************************************************************

     Natural Orbital Coefficients:
                           1         2         3         4         5
     Eigenvalues --     2.00001   2.00000   1.98055   1.96688   1.96534
   1 1   O  1S         -0.52390   0.82760  -0.18942   0.07080   0.00000
   2        2S          0.01054  -0.01441   0.48949  -0.20084   0.00000
   3        3S         -0.02188   0.03556   0.13766  -0.06075   0.00000
   4        4S          0.00282  -0.00269   0.31054  -0.22316   0.00000
   5        5S          0.00015  -0.00080   0.04376  -0.03080   0.00000
   6        6PX         0.00003  -0.00002   0.00017   0.00024   0.00000
   7        6PY         0.00000   0.00000   0.00000   0.00000   0.27193
   8        6PZ         0.00299  -0.00224  -0.00040  -0.13849   0.00000
   9        7PX         0.00002   0.00002   0.00018   0.00042   0.00000
  10        7PY         0.00000   0.00000   0.00000   0.00000   0.33559
  11        7PZ         0.00200   0.00154  -0.00856  -0.16226   0.00000
  12        8PX        -0.00001  -0.00004   0.00043   0.00064   0.00000
  13        8PY         0.00000   0.00000   0.00000   0.00000   0.24277
  14        8PZ         0.00306   0.00051   0.03894  -0.07616   0.00000
  15        9PX         0.00000  -0.00001  -0.00001   0.00013   0.00000
  16        9PY         0.00000   0.00000   0.00000   0.00000   0.03732
  17        9PZ         0.00019   0.00005   0.00214  -0.00257   0.00000
  18       10D 0       -0.00015   0.00015   0.00429   0.00544   0.00000
  19       10D+1        0.00000   0.00000   0.00005   0.00002   0.00000
  20       10D-1        0.00000   0.00000   0.00000   0.00000  -0.00818
  21       10D+2        0.00007  -0.00008   0.00008  -0.00002   0.00000
  22       10D-2        0.00000   0.00000   0.00000   0.00000  -0.00007
  23       11D 0       -0.00046  -0.00116   0.01229   0.00992   0.00000
  24       11D+1        0.00000  -0.00001   0.00016  -0.00004   0.00000
  25       11D-1        0.00000   0.00000   0.00000   0.00000  -0.02154
  26       11D+2        0.00008  -0.00014   0.00065   0.00033   0.00000
  27       11D-2        0.00000   0.00000   0.00000   0.00000  -0.00016
  28       12D 0       -0.00067  -0.00030  -0.00878   0.00125   0.00000
  29       12D+1        0.00000   0.00001  -0.00016  -0.00012   0.00000
  30       12D-1        0.00000   0.00000   0.00000   0.00000  -0.01373
  31       12D+2        0.00027   0.00018  -0.00025   0.00072   0.00000
  32       12D-2        0.00000   0.00000   0.00000   0.00000   0.00008
  33       13F 0       -0.00003   0.00003  -0.00272  -0.00184   0.00000
  34       13F+1        0.00000   0.00000  -0.00005   0.00000   0.00000
  35       13F-1        0.00000   0.00000   0.00000   0.00000   0.00483
  36       13F+2        0.00005  -0.00001   0.00014  -0.00049   0.00000
  37       13F-2        0.00000   0.00000   0.00000   0.00000   0.00006
  38       13F+3        0.00000   0.00000   0.00000  -0.00001   0.00000
  39       13F-3        0.00000   0.00000   0.00000   0.00000   0.00126
  40       14F 0        0.00034   0.00042  -0.00116  -0.00047   0.00000
  41       14F+1        0.00000   0.00000  -0.00003   0.00000   0.00000
  42       14F-1        0.00000   0.00000   0.00000   0.00000   0.00328
  43       14F+2       -0.00002   0.00004  -0.00086  -0.00070   0.00000
  44       14F-2        0.00000   0.00000   0.00000   0.00000  -0.00002
  45       14F+3        0.00000   0.00000   0.00001   0.00004   0.00000
  46       14F-3        0.00000   0.00000   0.00000   0.00000   0.00143
  47 2   C  1S          0.82919   0.52459  -0.08433  -0.14830   0.00000
  48        2S         -0.01111  -0.00598   0.20344   0.41363   0.00000
  49        3S          0.03437   0.02184   0.04540   0.09729   0.00000
  50        4S          0.00352   0.00331   0.12484   0.30008   0.00000
  51        5S          0.00181   0.00136   0.00595   0.01628   0.00000
  52        6PX        -0.00002  -0.00001   0.00080   0.00156   0.00000
  53        6PY         0.00000   0.00000   0.00000   0.00000   0.18564
  54        6PZ         0.00094   0.00053   0.04841  -0.05193   0.00000
  55        7PX         0.00005   0.00004   0.00109   0.00208   0.00000
  56        7PY         0.00000   0.00000   0.00000   0.00000   0.24498
  57        7PZ         0.00059   0.00374   0.01530  -0.07393   0.00000
  58        8PX         0.00003   0.00003   0.00028   0.00091   0.00000
  59        8PY         0.00000   0.00000   0.00000   0.00000   0.06162
  60        8PZ        -0.00101  -0.00011  -0.03936  -0.05532   0.00000
  61        9PX         0.00000   0.00000  -0.00001   0.00000   0.00000
  62        9PY         0.00000   0.00000   0.00000   0.00000  -0.01503
  63        9PZ        -0.00016   0.00002  -0.00249  -0.00022   0.00000
  64       10D 0        0.00051   0.00069   0.01357   0.00170   0.00000
  65       10D+1        0.00000   0.00001   0.00016   0.00003   0.00000
  66       10D-1        0.00000   0.00000   0.00000   0.00000   0.00865
  67       10D+2       -0.00044  -0.00021  -0.00310  -0.00950   0.00000
  68       10D-2        0.00000   0.00000   0.00000   0.00000   0.00024
  69       11D 0       -0.00075   0.00110   0.00276  -0.00161   0.00000
  70       11D+1        0.00000   0.00003  -0.00007  -0.00013   0.00000
  71       11D-1        0.00000   0.00000   0.00000   0.00000  -0.00988
  72       11D+2        0.00032   0.00072  -0.01474  -0.02466   0.00000
  73       11D-2        0.00000   0.00000   0.00000   0.00000   0.00052
  74       12D 0       -0.00045  -0.00137  -0.01732   0.00279   0.00000
  75       12D+1        0.00001   0.00001  -0.00004  -0.00017   0.00000
  76       12D-1        0.00000   0.00000   0.00000   0.00000  -0.01746
  77       12D+2       -0.00049  -0.00086  -0.00937  -0.00217   0.00000
  78       12D-2        0.00000   0.00000   0.00000   0.00000  -0.00055
  79       13F 0        0.00069   0.00044   0.00547   0.00537   0.00000
  80       13F+1        0.00001   0.00001   0.00009   0.00012   0.00000
  81       13F-1        0.00000   0.00000   0.00000   0.00000   0.00877
  82       13F+2        0.00050   0.00019   0.00362   0.00457   0.00000
  83       13F-2        0.00000   0.00000   0.00000   0.00000   0.00004
  84       13F+3       -0.00001   0.00000  -0.00006  -0.00007   0.00000
  85       13F-3        0.00000   0.00000   0.00000   0.00000  -0.00063
  86       14F 0       -0.00150  -0.00012  -0.00042   0.00371   0.00000
  87       14F+1        0.00000   0.00002  -0.00011  -0.00013   0.00000
  88       14F-1        0.00000   0.00000   0.00000   0.00000   0.00781
  89       14F+2       -0.00087  -0.00035   0.00267   0.00726   0.00000
  90       14F-2        0.00000   0.00000   0.00000   0.00000  -0.00031
  91       14F+3       -0.00001   0.00001  -0.00013  -0.00017   0.00000
  92       14F-3        0.00000   0.00000   0.00000   0.00000   0.00028
  93 3   H  1S         -0.00107  -0.00058   0.02537   0.09548   0.07181
  94        2S         -0.00072   0.00037  -0.00003   0.08752   0.06286
  95        3S         -0.00350  -0.00270  -0.04529  -0.03127  -0.01185
  96        4S         -0.00027  -0.00017  -0.00176  -0.00205   0.00767
  97        5PX         0.00001   0.00000  -0.00001  -0.00006  -0.00006
  98        5PY         0.00035   0.00016  -0.00127  -0.00810  -0.00518
  99        5PZ        -0.00024  -0.00010   0.00103   0.00403   0.00627
 100        6PX        -0.00002   0.00000   0.00011   0.00006  -0.00009
 101        6PY         0.00050  -0.00017   0.00959   0.00047   0.01264
 102        6PZ        -0.00019   0.00030  -0.00936  -0.00446   0.00412
 103        7PX         0.00001   0.00001   0.00019   0.00012   0.00047
 104        7PY         0.00050  -0.00012   0.00681   0.01650   0.00574
 105        7PZ        -0.00069  -0.00101  -0.01799  -0.00618   0.00747
 106        8D 0        0.00007   0.00001   0.00030  -0.00022   0.00182
 107        8D+1        0.00000   0.00000   0.00001   0.00000  -0.00004
 108        8D-1        0.00028   0.00013   0.00066  -0.00093  -0.00264
 109        8D+2        0.00018   0.00008   0.00051  -0.00117  -0.00014
 110        8D-2        0.00000   0.00000  -0.00001   0.00001   0.00001
 111        9D 0       -0.00024  -0.00003  -0.00187  -0.00110   0.00110
 112        9D+1       -0.00001   0.00001   0.00002  -0.00005   0.00003
 113        9D-1       -0.00011  -0.00002   0.00384   0.00226   0.00360
 114        9D+2        0.00024   0.00000   0.00173   0.00170   0.00315
 115        9D-2        0.00000   0.00001  -0.00006  -0.00009  -0.00005
 116 4   H  1S         -0.00107  -0.00058   0.02537   0.09548  -0.07181
 117        2S         -0.00072   0.00037  -0.00003   0.08752  -0.06286
 118        3S         -0.00350  -0.00270  -0.04529  -0.03127   0.01185
 119        4S         -0.00027  -0.00017  -0.00176  -0.00205  -0.00767
 120        5PX         0.00001   0.00000  -0.00001  -0.00006   0.00006
 121        5PY        -0.00035  -0.00016   0.00127   0.00810  -0.00518
 122        5PZ        -0.00024  -0.00010   0.00103   0.00403  -0.00627
 123        6PX        -0.00002   0.00000   0.00011   0.00006   0.00009
 124        6PY        -0.00050   0.00017  -0.00959  -0.00047   0.01264
 125        6PZ        -0.00019   0.00030  -0.00936  -0.00446  -0.00412
 126        7PX         0.00001   0.00001   0.00019   0.00012  -0.00047
 127        7PY        -0.00050   0.00012  -0.00681  -0.01650   0.00574
 128        7PZ        -0.00069  -0.00101  -0.01799  -0.00618  -0.00747
 129        8D 0        0.00007   0.00001   0.00030  -0.00022  -0.00182
 130        8D+1        0.00000   0.00000   0.00001   0.00000   0.00004
 131        8D-1       -0.00028  -0.00013  -0.00066   0.00093  -0.00264
 132        8D+2        0.00018   0.00008   0.00051  -0.00117   0.00014
 133        8D-2        0.00000   0.00000   0.00001  -0.00001   0.00001
 134        9D 0       -0.00024  -0.00003  -0.00187  -0.00110  -0.00110
 135        9D+1       -0.00001   0.00001   0.00002  -0.00005  -0.00003
 136        9D-1        0.00011   0.00002  -0.00384  -0.00226   0.00360
 137        9D+2        0.00024   0.00000   0.00173   0.00170  -0.00315
 138        9D-2        0.00000  -0.00001   0.00006   0.00009  -0.00005
                           6         7         8         9        10
     Eigenvalues --     1.96011   1.95673   1.92262   0.06607   0.02821
   1 1   O  1S          0.00390   0.00000  -0.00034  -0.00024   0.00000
   2        2S          0.00911   0.00000   0.00101   0.00071   0.00000
   3        3S          0.00702   0.00000   0.00031   0.00016   0.00000
   4        4S          0.11794   0.00000   0.00097   0.00074   0.00000
   5        5S          0.06250   0.00000  -0.00228  -0.00045   0.00000
   6        6PX         0.00215   0.00000   0.28160  -0.36413   0.00000
   7        6PY         0.00000   0.23972   0.00000   0.00000  -0.40216
   8        6PZ         0.28212   0.00000  -0.00212   0.00159   0.00000
   9        7PX         0.00262   0.00000   0.35438  -0.43370   0.00000
  10        7PY         0.00000   0.29559   0.00000   0.00000  -0.30506
  11        7PZ         0.34074   0.00000  -0.00267   0.00165   0.00000
  12        8PX         0.00111   0.00000   0.23369  -0.08023   0.00000
  13        8PY         0.00000   0.24153   0.00000   0.00000   0.17799
  14        8PZ         0.18387   0.00000  -0.00259   0.00009   0.00000
  15        9PX        -0.00002   0.00000   0.02108   0.00302   0.00000
  16        9PY         0.00000   0.04042   0.00000   0.00000   0.09970
  17        9PZ         0.00376   0.00000   0.00025   0.00002   0.00000
  18       10D 0       -0.01200   0.00000   0.00013   0.00023   0.00000
  19       10D+1       -0.00019   0.00000  -0.01005  -0.01301   0.00000
  20       10D-1        0.00000  -0.00094   0.00000   0.00000  -0.03078
  21       10D+2       -0.00015   0.00000  -0.00009  -0.00021   0.00000
  22       10D-2        0.00000  -0.00002   0.00000   0.00000  -0.00038
  23       11D 0       -0.02907   0.00000   0.00041   0.00047   0.00000
  24       11D+1       -0.00046   0.00000  -0.02823  -0.01207   0.00000
  25       11D-1        0.00000  -0.00221   0.00000   0.00000  -0.03982
  26       11D+2       -0.00103   0.00000  -0.00021  -0.00027   0.00000
  27       11D-2        0.00000  -0.00007   0.00000   0.00000  -0.00053
  28       12D 0       -0.00700   0.00000   0.00039  -0.00019   0.00000
  29       12D+1        0.00002   0.00000  -0.01230   0.01570   0.00000
  30       12D-1        0.00000  -0.00339   0.00000   0.00000   0.01562
  31       12D+2       -0.00128   0.00000  -0.00020  -0.00001   0.00000
  32       12D-2        0.00000   0.00000   0.00000   0.00000   0.00075
  33       13F 0        0.00477   0.00000  -0.00010  -0.00012   0.00000
  34       13F+1        0.00011   0.00000   0.00505   0.00443   0.00000
  35       13F-1        0.00000   0.00046   0.00000   0.00000   0.00696
  36       13F+2        0.00118   0.00000   0.00006   0.00009   0.00000
  37       13F-2        0.00000   0.00001   0.00000   0.00000   0.00019
  38       13F+3        0.00001   0.00000   0.00155  -0.00359   0.00000
  39       13F-3        0.00000   0.00125   0.00000   0.00000  -0.00165
  40       14F 0        0.00651   0.00000  -0.00012   0.00000   0.00000
  41       14F+1        0.00012   0.00000   0.00347  -0.00357   0.00000
  42       14F-1        0.00000   0.00169   0.00000   0.00000  -0.00199
  43       14F+2        0.00092   0.00000   0.00005  -0.00001   0.00000
  44       14F-2        0.00000   0.00002   0.00000   0.00000  -0.00026
  45       14F+3        0.00001   0.00000   0.00121  -0.00306   0.00000
  46       14F-3        0.00000  -0.00005   0.00000   0.00000  -0.00272
  47 2   C  1S          0.01557   0.00000   0.00148   0.00195   0.00000
  48        2S         -0.03046   0.00000  -0.00420  -0.00645   0.00000
  49        3S         -0.00943   0.00000  -0.00099  -0.00245   0.00000
  50        4S          0.10648   0.00000  -0.00784  -0.00405   0.00000
  51        5S          0.00017   0.00000   0.00015   0.00030   0.00000
  52        6PX        -0.00072   0.00000   0.18994   0.31080   0.00000
  53        6PY         0.00000  -0.16525   0.00000   0.00000   0.33495
  54        6PZ        -0.23935   0.00000  -0.00039  -0.00017   0.00000
  55        7PX        -0.00090   0.00000   0.24854   0.48074   0.00000
  56        7PY         0.00000  -0.23096   0.00000   0.00000   0.64165
  57        7PZ        -0.25363   0.00000  -0.00080  -0.00129   0.00000
  58        8PX         0.00026   0.00000   0.12408   0.18973   0.00000
  59        8PY         0.00000  -0.25301   0.00000   0.00000   0.34068
  60        8PZ        -0.08511   0.00000   0.00085  -0.00053   0.00000
  61        9PX         0.00000   0.00000   0.00177   0.00333   0.00000
  62        9PY         0.00000  -0.02291   0.00000   0.00000  -0.03775
  63        9PZ        -0.00185   0.00000  -0.00004  -0.00003   0.00000
  64       10D 0       -0.01909   0.00000  -0.00025   0.00013   0.00000
  65       10D+1       -0.00031   0.00000   0.01985  -0.00029   0.00000
  66       10D-1        0.00000   0.03303   0.00000   0.00000   0.03778
  67       10D+2       -0.00603   0.00000   0.00015  -0.00032   0.00000
  68       10D-2        0.00000  -0.00015   0.00000   0.00000  -0.00022
  69       11D 0       -0.01213   0.00000  -0.00021  -0.00024   0.00000
  70       11D+1       -0.00021   0.00000   0.02957   0.03794   0.00000
  71       11D-1        0.00000   0.08294   0.00000   0.00000   0.02929
  72       11D+2       -0.00595   0.00000   0.00054  -0.00018   0.00000
  73       11D-2        0.00000  -0.00050   0.00000   0.00000   0.00186
  74       12D 0        0.00090   0.00000   0.00189   0.00008   0.00000
  75       12D+1       -0.00016   0.00000  -0.00411   0.00924   0.00000
  76       12D-1        0.00000   0.06725   0.00000   0.00000   0.03319
  77       12D+2       -0.00556   0.00000   0.00139   0.00054   0.00000
  78       12D-2        0.00000  -0.00042   0.00000   0.00000   0.00077
  79       13F 0       -0.00738   0.00000  -0.00016  -0.00009   0.00000
  80       13F+1       -0.00013   0.00000   0.00684   0.00922   0.00000
  81       13F-1        0.00000   0.00422   0.00000   0.00000   0.02420
  82       13F+2       -0.00152   0.00000   0.00005  -0.00003   0.00000
  83       13F-2        0.00000   0.00012   0.00000   0.00000   0.00022
  84       13F+3        0.00001   0.00000   0.00023  -0.00114   0.00000
  85       13F-3        0.00000   0.00254   0.00000   0.00000  -0.00380
  86       14F 0        0.01011   0.00000  -0.00021  -0.00038   0.00000
  87       14F+1        0.00014   0.00000   0.00467   0.01661   0.00000
  88       14F-1        0.00000   0.00514   0.00000   0.00000   0.10420
  89       14F+2        0.00652   0.00000  -0.00013  -0.00001   0.00000
  90       14F-2        0.00000   0.00036   0.00000   0.00000  -0.00056
  91       14F+3        0.00013   0.00000   0.00232   0.00616   0.00000
  92       14F-3        0.00000   0.00578   0.00000   0.00000   0.00594
  93 3   H  1S          0.07152  -0.13568  -0.00007   0.00228  -0.15136
  94        2S          0.10052  -0.17070   0.00062   0.00302  -0.55438
  95        3S          0.00584   0.08151   0.00294   0.00057  -0.47432
  96        4S          0.00026   0.00959  -0.00003  -0.00008   0.00591
  97        5PX        -0.00009   0.00011   0.00342   0.01209  -0.00018
  98        5PY        -0.00798   0.00685  -0.00003  -0.00025  -0.00498
  99        5PZ         0.00164  -0.00485   0.00004   0.00014   0.01784
 100        6PX        -0.00004   0.00005   0.01015   0.02418   0.00076
 101        6PY        -0.01318  -0.00736   0.00001   0.00011   0.13172
 102        6PZ         0.00173   0.00456   0.00017   0.00007   0.02426
 103        7PX        -0.00006  -0.00050  -0.00411  -0.00699   0.00073
 104        7PY         0.00412  -0.04229   0.00037   0.00027   0.08696
 105        7PZ        -0.00296   0.02027   0.00164   0.00017  -0.02977
 106        8D 0       -0.00208   0.00046   0.00002   0.00005   0.00985
 107        8D+1       -0.00002   0.00001   0.00118   0.00377  -0.00027
 108        8D-1       -0.00145   0.00100  -0.00004  -0.00008  -0.00800
 109        8D+2       -0.00215   0.00072  -0.00001  -0.00010   0.00438
 110        8D-2        0.00004  -0.00004  -0.00127  -0.00596  -0.00004
 111        9D 0        0.00382  -0.00251   0.00002  -0.00002   0.00915
 112        9D+1        0.00008  -0.00004   0.00138   0.00157  -0.00025
 113        9D-1        0.00019   0.00018  -0.00001   0.00009   0.01756
 114        9D+2       -0.00224  -0.00141   0.00015   0.00014   0.01766
 115        9D-2        0.00008  -0.00001   0.00102   0.00374  -0.00055
 116 4   H  1S          0.07152   0.13568  -0.00007   0.00228   0.15136
 117        2S          0.10052   0.17070   0.00062   0.00302   0.55438
 118        3S          0.00584  -0.08151   0.00294   0.00057   0.47432
 119        4S          0.00026  -0.00959  -0.00003  -0.00008  -0.00591
 120        5PX        -0.00009  -0.00011   0.00342   0.01209   0.00018
 121        5PY         0.00798   0.00685   0.00003   0.00025  -0.00498
 122        5PZ         0.00164   0.00485   0.00004   0.00014  -0.01784
 123        6PX        -0.00004  -0.00005   0.01015   0.02418  -0.00076
 124        6PY         0.01318  -0.00736  -0.00001  -0.00011   0.13172
 125        6PZ         0.00173  -0.00456   0.00017   0.00007  -0.02426
 126        7PX        -0.00006   0.00050  -0.00411  -0.00699  -0.00073
 127        7PY        -0.00412  -0.04229  -0.00037  -0.00027   0.08696
 128        7PZ        -0.00296  -0.02027   0.00164   0.00017   0.02977
 129        8D 0       -0.00208  -0.00046   0.00002   0.00005  -0.00985
 130        8D+1       -0.00002  -0.00001   0.00118   0.00377   0.00027
 131        8D-1        0.00145   0.00100   0.00004   0.00008  -0.00800
 132        8D+2       -0.00215  -0.00072  -0.00001  -0.00010  -0.00438
 133        8D-2       -0.00004  -0.00004   0.00127   0.00596  -0.00004
 134        9D 0        0.00382   0.00251   0.00002  -0.00002  -0.00915
 135        9D+1        0.00008   0.00004   0.00138   0.00157   0.00025
 136        9D-1       -0.00019   0.00018   0.00001  -0.00009   0.01756
 137        9D+2       -0.00224   0.00141   0.00015   0.00014  -0.01766
 138        9D-2       -0.00008  -0.00001  -0.00102  -0.00374  -0.00055
                          11        12        13        14        15
     Eigenvalues --     0.02651   0.02015   0.01203   0.01188   0.00761
   1 1   O  1S         -0.07234  -0.02661   0.00000  -0.23659   0.00000
   2        2S          0.28235   0.11502   0.00000   0.74352   0.00000
   3        3S          0.10870   0.05023   0.00000   0.63294   0.00000
   4        4S          0.61177   0.39226   0.00000  -1.37296   0.00000
   5        5S          0.36864   0.27694   0.00000  -0.58875   0.00000
   6        6PX        -0.00104  -0.00409   0.00000   0.00188   0.00000
   7        6PY         0.00000   0.00000   0.44259   0.00000   0.13775
   8        6PZ        -0.43825  -0.11898   0.00000   0.26257   0.00000
   9        7PX        -0.00208  -0.00456   0.00000   0.00055   0.00000
  10        7PY         0.00000   0.00000   0.19602   0.00000   0.02954
  11        7PZ        -0.52519  -0.17784   0.00000   0.06808   0.00000
  12        8PX        -0.00139  -0.00149   0.00000   0.00160   0.00000
  13        8PY         0.00000   0.00000  -0.41555   0.00000  -0.19234
  14        8PZ        -0.11342  -0.18785   0.00000  -0.11867   0.00000
  15        9PX        -0.00055  -0.00032   0.00000   0.00064   0.00000
  16        9PY         0.00000   0.00000  -0.06187   0.00000  -0.04552
  17        9PZ        -0.04052  -0.05369   0.00000   0.04155   0.00000
  18       10D 0       -0.03057  -0.02188   0.00000   0.00607   0.00000
  19       10D+1       -0.00020  -0.00106   0.00000   0.00042   0.00000
  20       10D-1        0.00000   0.00000  -0.00979   0.00000  -0.20827
  21       10D+2       -0.01024   0.00262   0.00000  -0.02473   0.00000
  22       10D-2        0.00000   0.00000  -0.00031   0.00000  -0.00163
  23       11D 0       -0.01655  -0.03281   0.00000  -0.03110   0.00000
  24       11D+1        0.00029  -0.00187   0.00000   0.00012   0.00000
  25       11D-1        0.00000   0.00000  -0.07498   0.00000  -0.51216
  26       11D+2       -0.02067   0.00988   0.00000   0.00065   0.00000
  27       11D-2        0.00000   0.00000  -0.00117   0.00000  -0.00423
  28       12D 0       -0.00037   0.02911   0.00000  -0.02962   0.00000
  29       12D+1       -0.00022   0.00049   0.00000  -0.00095   0.00000
  30       12D-1        0.00000   0.00000  -0.01414   0.00000  -0.12300
  31       12D+2       -0.00907   0.00196   0.00000   0.00846   0.00000
  32       12D-2        0.00000   0.00000   0.00020   0.00000  -0.00164
  33       13F 0       -0.00018   0.00445   0.00000  -0.00247   0.00000
  34       13F+1       -0.00005   0.00026   0.00000  -0.00014   0.00000
  35       13F-1        0.00000   0.00000   0.01289   0.00000   0.03480
  36       13F+2       -0.00076  -0.00161   0.00000   0.00028   0.00000
  37       13F-2        0.00000   0.00000   0.00024   0.00000   0.00044
  38       13F+3       -0.00003  -0.00002   0.00000  -0.00002   0.00000
  39       13F-3        0.00000   0.00000  -0.00273   0.00000  -0.00033
  40       14F 0        0.00813   0.01023   0.00000   0.01843   0.00000
  41       14F+1        0.00006   0.00034   0.00000   0.00029   0.00000
  42       14F-1        0.00000   0.00000   0.00723   0.00000   0.07590
  43       14F+2        0.00043  -0.00561   0.00000   0.00730   0.00000
  44       14F-2        0.00000   0.00000   0.00013   0.00000   0.00130
  45       14F+3        0.00016  -0.00005   0.00000   0.00023   0.00000
  46       14F-3        0.00000   0.00000   0.01754   0.00000   0.00214
  47 2   C  1S          0.16609  -0.11343   0.00000  -0.00099   0.00000
  48        2S         -0.61911   0.44670   0.00000   0.07004   0.00000
  49        3S         -0.25738   0.25742   0.00000   0.06771   0.00000
  50        4S         -0.21267   0.07160   0.00000  -0.12229   0.00000
  51        5S         -0.11025  -0.09425   0.00000   0.11477   0.00000
  52        6PX        -0.00422   0.00254   0.00000  -0.00071   0.00000
  53        6PY         0.00000   0.00000   0.41498   0.00000  -0.12500
  54        6PZ        -0.23601  -0.40690   0.00000  -0.01524   0.00000
  55        7PX        -0.00646   0.00468   0.00000  -0.00101   0.00000
  56        7PY         0.00000   0.00000   0.78569   0.00000  -0.16641
  57        7PZ        -0.56635  -0.71553   0.00000   0.12810   0.00000
  58        8PX        -0.00333   0.00238   0.00000  -0.00037   0.00000
  59        8PY         0.00000   0.00000   0.57771   0.00000   0.07120
  60        8PZ        -0.30594  -0.22986   0.00000   0.27657   0.00000
  61        9PX        -0.00021  -0.00029   0.00000   0.00038   0.00000
  62        9PY         0.00000   0.00000   0.04896   0.00000  -0.00026
  63        9PZ        -0.01361  -0.00777   0.00000   0.02005   0.00000
  64       10D 0        0.01794   0.01402   0.00000   0.01232   0.00000
  65       10D+1        0.00004   0.00069   0.00000   0.00002   0.00000
  66       10D-1        0.00000   0.00000  -0.10078   0.00000   0.24522
  67       10D+2       -0.00545   0.01446   0.00000  -0.02746   0.00000
  68       10D-2        0.00000   0.00000  -0.00132   0.00000  -0.00017
  69       11D 0       -0.09222  -0.06802   0.00000  -0.01472   0.00000
  70       11D+1       -0.00234  -0.00066   0.00000  -0.00021   0.00000
  71       11D-1        0.00000   0.00000  -0.57284   0.00000   0.09297
  72       11D+2       -0.07485  -0.03409   0.00000  -0.02125   0.00000
  73       11D-2        0.00000   0.00000   0.00212   0.00000  -0.00180
  74       12D 0       -0.06553  -0.03659   0.00000   0.10527   0.00000
  75       12D+1       -0.00043  -0.00022   0.00000   0.00019   0.00000
  76       12D-1        0.00000   0.00000  -0.19688   0.00000  -0.15562
  77       12D+2       -0.02092  -0.02565   0.00000   0.05746   0.00000
  78       12D-2        0.00000   0.00000   0.00053   0.00000  -0.00098
  79       13F 0       -0.00867  -0.01556   0.00000  -0.00022   0.00000
  80       13F+1       -0.00005   0.00004   0.00000   0.00000   0.00000
  81       13F-1        0.00000   0.00000  -0.00782   0.00000   0.00788
  82       13F+2       -0.00008   0.01063   0.00000  -0.00089   0.00000
  83       13F-2        0.00000   0.00000  -0.00021   0.00000   0.00105
  84       13F+3       -0.00014   0.00036   0.00000  -0.00005   0.00000
  85       13F-3        0.00000   0.00000  -0.02473   0.00000   0.01770
  86       14F 0       -0.00123  -0.00292   0.00000  -0.03150   0.00000
  87       14F+1       -0.00132  -0.00002   0.00000  -0.00110   0.00000
  88       14F-1        0.00000   0.00000  -0.12553   0.00000  -0.08876
  89       14F+2        0.01740   0.01250   0.00000  -0.01392   0.00000
  90       14F-2        0.00000   0.00000  -0.00415   0.00000   0.00010
  91       14F+3       -0.00066  -0.00064   0.00000  -0.00100   0.00000
  92       14F-3        0.00000   0.00000  -0.08781   0.00000   0.01148
  93 3   H  1S          0.10378  -0.24027  -0.09483   0.06095  -0.12350
  94        2S          0.05749  -0.62663  -0.87756   0.14179   0.07529
  95        3S         -0.09183  -0.19396  -0.74299   0.19064   0.06716
  96        4S          0.00674   0.00750  -0.03613  -0.00597   0.01448
  97        5PX        -0.00032  -0.00001  -0.00099  -0.00033   0.00090
  98        5PY        -0.00248  -0.02397  -0.03314  -0.01326   0.06433
  99        5PZ        -0.01249  -0.00806   0.01749   0.00785  -0.01244
 100        6PX        -0.00023   0.00081   0.00010  -0.00165   0.00128
 101        6PY         0.02496   0.05318   0.12956  -0.04466   0.07772
 102        6PZ        -0.06648  -0.07747  -0.17539   0.02856  -0.01708
 103        7PX         0.00043   0.00032   0.00246  -0.00075   0.00160
 104        7PY         0.01737   0.02036   0.15322  -0.01084   0.05787
 105        7PZ        -0.05278  -0.03661  -0.09567   0.09780   0.02926
 106        8D 0       -0.00337  -0.01115  -0.00618  -0.00263   0.01820
 107        8D+1        0.00002   0.00012  -0.00022  -0.00020   0.00011
 108        8D-1        0.00831  -0.00276  -0.00657  -0.00566   0.00596
 109        8D+2       -0.00034  -0.00993  -0.01197  -0.00690   0.01605
 110        8D-2        0.00015   0.00020   0.00067   0.00032  -0.00061
 111        9D 0       -0.00548  -0.00073   0.00784  -0.00683   0.02265
 112        9D+1       -0.00003   0.00019   0.00143  -0.00094   0.00047
 113        9D-1        0.01996   0.01495   0.01565  -0.01990   0.00962
 114        9D+2       -0.00018   0.00875   0.00714  -0.00320   0.01827
 115        9D-2       -0.00018  -0.00015   0.00044  -0.00019  -0.00050
 116 4   H  1S          0.10378  -0.24027   0.09483   0.06095   0.12350
 117        2S          0.05749  -0.62663   0.87756   0.14179  -0.07529
 118        3S         -0.09183  -0.19396   0.74299   0.19064  -0.06716
 119        4S          0.00674   0.00750   0.03613  -0.00597  -0.01448
 120        5PX        -0.00032  -0.00001   0.00099  -0.00033  -0.00090
 121        5PY         0.00248   0.02397  -0.03314   0.01326   0.06433
 122        5PZ        -0.01249  -0.00806  -0.01749   0.00785   0.01244
 123        6PX        -0.00023   0.00081  -0.00010  -0.00165  -0.00128
 124        6PY        -0.02496  -0.05318   0.12956   0.04466   0.07772
 125        6PZ        -0.06648  -0.07747   0.17539   0.02856   0.01708
 126        7PX         0.00043   0.00032  -0.00246  -0.00075  -0.00160
 127        7PY        -0.01737  -0.02036   0.15322   0.01084   0.05787
 128        7PZ        -0.05278  -0.03661   0.09567   0.09780  -0.02926
 129        8D 0       -0.00337  -0.01115   0.00618  -0.00263  -0.01820
 130        8D+1        0.00002   0.00012   0.00022  -0.00020  -0.00011
 131        8D-1       -0.00831   0.00276  -0.00657   0.00566   0.00596
 132        8D+2       -0.00034  -0.00993   0.01197  -0.00690  -0.01605
 133        8D-2       -0.00015  -0.00020   0.00067  -0.00032  -0.00061
 134        9D 0       -0.00548  -0.00073  -0.00784  -0.00683  -0.02265
 135        9D+1       -0.00003   0.00019  -0.00143  -0.00094  -0.00047
 136        9D-1       -0.01996  -0.01495   0.01565   0.01990   0.00962
 137        9D+2       -0.00018   0.00875  -0.00714  -0.00320  -0.01827
 138        9D-2        0.00018   0.00015   0.00044   0.00019  -0.00050
                          16        17        18        19        20
     Eigenvalues --     0.00747   0.00719   0.00707   0.00701   0.00600
   1 1   O  1S         -0.01319   0.00051   0.00000  -0.02436  -0.00015
   2        2S          0.02399  -0.00095   0.00000   0.05435   0.00129
   3        3S          0.03627  -0.00160   0.00000   0.07456   0.00073
   4        4S         -0.08161   0.00073   0.00000  -0.19476  -0.00338
   5        5S          0.11371   0.01003   0.00000  -0.11882  -0.01551
   6        6PX         0.00073   0.21078   0.00000   0.01069  -0.45099
   7        6PY         0.00000   0.00000   0.00086   0.00000   0.00000
   8        6PZ        -0.05960  -0.00704   0.00000   0.14190   0.00434
   9        7PX         0.00010   0.09807   0.00000   0.00392  -0.16256
  10        7PY         0.00000   0.00000   0.00038   0.00000   0.00000
  11        7PZ         0.01337  -0.00173   0.00000   0.01957   0.00117
  12        8PX         0.00082  -0.38870   0.00000  -0.02025   0.54035
  13        8PY         0.00000   0.00000  -0.00751   0.00000   0.00000
  14        8PZ         0.20345   0.01708   0.00000  -0.25965  -0.00802
  15        9PX        -0.00011  -0.08162   0.00000  -0.00349   0.08364
  16        9PY         0.00000   0.00000  -0.00020   0.00000   0.00000
  17        9PZ         0.00045  -0.00041   0.00000  -0.01063   0.00253
  18       10D 0        0.20604   0.00671   0.00000  -0.06853   0.00213
  19       10D+1        0.00321  -0.19755   0.00000  -0.01146  -0.09706
  20       10D-1        0.00000   0.00000  -0.00299   0.00000   0.00000
  21       10D+2        0.04527  -0.00833   0.00000   0.16661  -0.00108
  22       10D-2        0.00000   0.00000   0.19693   0.00000   0.00000
  23       11D 0        0.45251   0.01559   0.00000  -0.15500   0.00468
  24       11D+1        0.00780  -0.46875   0.00000  -0.02641  -0.18981
  25       11D-1        0.00000   0.00000  -0.00691   0.00000   0.00000
  26       11D+2        0.09067  -0.02004   0.00000   0.39376  -0.00204
  27       11D-2        0.00000   0.00000   0.43375   0.00000   0.00000
  28       12D 0        0.05837  -0.00145   0.00000   0.04671   0.00268
  29       12D+1        0.00043  -0.00481   0.00000  -0.00030  -0.07185
  30       12D-1        0.00000   0.00000   0.00195   0.00000   0.00000
  31       12D+2        0.01619  -0.00416   0.00000   0.10259  -0.00111
  32       12D-2        0.00000   0.00000   0.07615   0.00000   0.00000
  33       13F 0       -0.03839  -0.00179   0.00000   0.01590   0.00004
  34       13F+1       -0.00089   0.04892   0.00000   0.00273  -0.00698
  35       13F-1        0.00000   0.00000   0.00075   0.00000   0.00000
  36       13F+2       -0.00587   0.00151   0.00000  -0.02059  -0.00017
  37       13F-2        0.00000   0.00000  -0.02456   0.00000   0.00000
  38       13F+3       -0.00008  -0.00640   0.00000  -0.00033   0.01597
  39       13F-3        0.00000   0.00000  -0.00022   0.00000   0.00000
  40       14F 0       -0.07147  -0.00214   0.00000   0.01098  -0.00115
  41       14F+1       -0.00170   0.05419   0.00000   0.00343   0.02558
  42       14F-1        0.00000   0.00000   0.00120   0.00000   0.00000
  43       14F+2       -0.00694   0.00278   0.00000  -0.05037   0.00086
  44       14F-2        0.00000   0.00000  -0.04622   0.00000   0.00000
  45       14F+3       -0.00014   0.00817   0.00000  -0.00065  -0.01044
  46       14F-3        0.00000   0.00000  -0.00039   0.00000   0.00000
  47 2   C  1S         -0.05985  -0.00305   0.00000   0.09155   0.00068
  48        2S          0.15688   0.00753   0.00000  -0.28439  -0.00334
  49        3S          0.10991   0.00640   0.00000  -0.25481  -0.00244
  50        4S          0.11366   0.08064   0.00000  -0.60141  -0.04872
  51        5S         -0.01586   0.00840   0.00000  -0.07618  -0.00042
  52        6PX         0.00138   0.25597   0.00000   0.01031  -0.19771
  53        6PY         0.00000   0.00000   0.00361   0.00000   0.00000
  54        6PZ         0.24672  -0.00091   0.00000   0.05307   0.00313
  55        7PX         0.00226   0.14273   0.00000   0.00430  -0.33486
  56        7PY         0.00000   0.00000  -0.00322   0.00000   0.00000
  57        7PZ        -0.25875  -0.01085   0.00000   0.21095   0.00261
  58        8PX        -0.00084  -0.13666   0.00000  -0.00923   0.09757
  59        8PY         0.00000   0.00000   0.02272   0.00000   0.00000
  60        8PZ        -0.08517  -0.01949   0.00000   0.29500   0.00551
  61        9PX        -0.00023   0.02418   0.00000   0.00099  -0.01884
  62        9PY         0.00000   0.00000   0.00175   0.00000   0.00000
  63        9PZ         0.00594  -0.00090   0.00000   0.02303  -0.00022
  64       10D 0        0.21949  -0.00112   0.00000  -0.02819  -0.00142
  65       10D+1        0.00082   0.18771   0.00000   0.00596   0.20966
  66       10D-1        0.00000   0.00000  -0.00017   0.00000   0.00000
  67       10D+2        0.05818  -0.00831   0.00000   0.22267   0.00072
  68       10D-2        0.00000   0.00000   0.24578   0.00000   0.00000
  69       11D 0        0.15124  -0.00357   0.00000   0.03982   0.00096
  70       11D+1       -0.00048   0.03255   0.00000   0.00072   0.30921
  71       11D-1        0.00000   0.00000  -0.00203   0.00000   0.00000
  72       11D+2        0.02307  -0.02197   0.00000   0.42129   0.00743
  73       11D-2        0.00000   0.00000   0.31165   0.00000   0.00000
  74       12D 0       -0.03284  -0.00874   0.00000   0.08250   0.01535
  75       12D+1        0.00088   0.00612   0.00000   0.00108  -0.04941
  76       12D-1        0.00000   0.00000  -0.00249   0.00000   0.00000
  77       12D+2       -0.01704  -0.00827   0.00000   0.07283   0.01008
  78       12D-2        0.00000   0.00000   0.00983   0.00000   0.00000
  79       13F 0        0.05543   0.00150   0.00000  -0.05229  -0.00047
  80       13F+1        0.00166   0.04185   0.00000   0.00072  -0.00540
  81       13F-1        0.00000   0.00000  -0.00094   0.00000   0.00000
  82       13F+2        0.01768   0.00044   0.00000   0.00110   0.00003
  83       13F-2        0.00000   0.00000   0.00812   0.00000   0.00000
  84       13F+3        0.00016  -0.00093   0.00000   0.00088   0.04768
  85       13F-3        0.00000   0.00000   0.00095   0.00000   0.00000
  86       14F 0       -0.04505   0.00680   0.00000  -0.08915  -0.00456
  87       14F+1       -0.00015  -0.06454   0.00000  -0.00161   0.03629
  88       14F-1        0.00000   0.00000   0.00324   0.00000   0.00000
  89       14F+2       -0.02484   0.00624   0.00000  -0.10989  -0.00276
  90       14F-2        0.00000   0.00000  -0.00967   0.00000   0.00000
  91       14F+3       -0.00023  -0.05936   0.00000  -0.00099   0.03756
  92       14F-3        0.00000   0.00000  -0.00046   0.00000   0.00000
  93 3   H  1S         -0.03468   0.00331   0.00319  -0.09543  -0.00382
  94        2S         -0.08771  -0.03036  -0.00519   0.47068   0.01657
  95        3S         -0.06415  -0.03807  -0.02777   0.41964   0.02869
  96        4S          0.00031  -0.00124  -0.00126   0.01410   0.00016
  97        5PX         0.00037  -0.01878   0.06998   0.00113  -0.06427
  98        5PY         0.00045  -0.00060  -0.00197   0.03250   0.00227
  99        5PZ        -0.05629   0.00227   0.00125  -0.04874  -0.00076
 100        6PX         0.00067  -0.14781   0.11726  -0.00634  -0.04296
 101        6PY         0.05692   0.00584  -0.00195  -0.07265   0.00015
 102        6PZ        -0.14790  -0.00265   0.00378   0.00644   0.00335
 103        7PX         0.00088  -0.05060   0.00418  -0.00323  -0.00155
 104        7PY         0.01904   0.00419   0.00443  -0.05182   0.00176
 105        7PZ        -0.07246  -0.00962  -0.00195   0.06562   0.01334
 106        8D 0       -0.01339   0.00079   0.00043  -0.01562   0.00031
 107        8D+1        0.00063  -0.00363   0.02584   0.00059  -0.01139
 108        8D-1        0.02842  -0.00074  -0.00098   0.01440   0.00050
 109        8D+2       -0.00068   0.00011  -0.00139   0.01048   0.00158
 110        8D-2       -0.00007   0.01660  -0.03823  -0.00030   0.03301
 111        9D 0       -0.02205   0.00038   0.00043  -0.01328  -0.00021
 112        9D+1        0.00027  -0.05643   0.00198  -0.00210   0.03459
 113        9D-1        0.02788   0.00109  -0.00163  -0.00923  -0.00106
 114        9D+2        0.02222  -0.00070  -0.00086   0.01925   0.00147
 115        9D-2       -0.00052   0.02878  -0.00610   0.00151  -0.01352
 116 4   H  1S         -0.03468   0.00331  -0.00319  -0.09543  -0.00382
 117        2S         -0.08771  -0.03036   0.00519   0.47068   0.01657
 118        3S         -0.06415  -0.03807   0.02777   0.41964   0.02869
 119        4S          0.00031  -0.00124   0.00126   0.01410   0.00016
 120        5PX         0.00037  -0.01878  -0.06998   0.00113  -0.06427
 121        5PY        -0.00045   0.00060  -0.00197  -0.03250  -0.00227
 122        5PZ        -0.05629   0.00227  -0.00125  -0.04874  -0.00076
 123        6PX         0.00067  -0.14781  -0.11726  -0.00634  -0.04296
 124        6PY        -0.05692  -0.00584  -0.00195   0.07265  -0.00015
 125        6PZ        -0.14790  -0.00265  -0.00378   0.00644   0.00335
 126        7PX         0.00088  -0.05060  -0.00418  -0.00323  -0.00155
 127        7PY        -0.01904  -0.00419   0.00443   0.05182  -0.00176
 128        7PZ        -0.07246  -0.00962   0.00195   0.06562   0.01334
 129        8D 0       -0.01339   0.00079  -0.00043  -0.01562   0.00031
 130        8D+1        0.00063  -0.00363  -0.02584   0.00059  -0.01139
 131        8D-1       -0.02842   0.00074  -0.00098  -0.01440  -0.00050
 132        8D+2       -0.00068   0.00011   0.00139   0.01048   0.00158
 133        8D-2        0.00007  -0.01660  -0.03823   0.00030  -0.03301
 134        9D 0       -0.02205   0.00038  -0.00043  -0.01328  -0.00021
 135        9D+1        0.00027  -0.05643  -0.00198  -0.00210   0.03459
 136        9D-1       -0.02788  -0.00109  -0.00163   0.00923   0.00106
 137        9D+2        0.02222  -0.00070   0.00086   0.01925   0.00147
 138        9D-2        0.00052  -0.02878  -0.00610  -0.00151   0.01352
                          21        22        23        24        25
     Eigenvalues --     0.00519   0.00484   0.00337   0.00283   0.00252
   1 1   O  1S         -0.00848   0.00000   0.00000   0.11749  -0.00060
   2        2S          0.02008   0.00000   0.00000  -0.33072   0.00148
   3        3S          0.00565   0.00000   0.00000  -0.37463   0.00220
   4        4S          0.38799   0.00000   0.00000  -0.28404  -0.00392
   5        5S          0.12916   0.00000   0.00000  -0.50639   0.00945
   6        6PX        -0.00369   0.00000   0.00000   0.00066  -0.14858
   7        6PY         0.00000   0.00002   0.19046   0.00000   0.00000
   8        6PZ        -0.20200   0.00000   0.00000   0.36601   0.00382
   9        7PX        -0.00056   0.00000   0.00000   0.00162   0.03669
  10        7PY         0.00000  -0.00009  -0.04329   0.00000   0.00000
  11        7PZ        -0.04823   0.00000   0.00000   0.08595  -0.00264
  12        8PX         0.00516   0.00000   0.00000   0.00365  -0.41027
  13        8PY         0.00000  -0.00178  -0.71418   0.00000   0.00000
  14        8PZ         0.01442   0.00000   0.00000  -0.24619   0.00388
  15        9PX         0.00062   0.00000   0.00000   0.00091  -0.06555
  16        9PY         0.00000  -0.00005  -0.04447   0.00000   0.00000
  17        9PZ        -0.01818   0.00000   0.00000   0.06485  -0.00158
  18       10D 0        0.06008   0.00000   0.00000  -0.17058  -0.00306
  19       10D+1       -0.00164   0.00000   0.00000  -0.00313   0.33033
  20       10D-1        0.00000   0.00133   0.30128   0.00000   0.00000
  21       10D+2        0.26020   0.00000   0.00000   0.08079   0.00585
  22       10D-2        0.00000   0.27401  -0.00129   0.00000   0.00000
  23       11D 0        0.13376   0.00000   0.00000  -0.34731  -0.00536
  24       11D+1       -0.00330   0.00000   0.00000  -0.00577   0.55291
  25       11D-1        0.00000   0.00309   0.46196   0.00000   0.00000
  26       11D+2        0.50813   0.00000   0.00000   0.06115   0.00963
  27       11D-2        0.00000   0.51421  -0.00314   0.00000   0.00000
  28       12D 0        0.02221   0.00000   0.00000   0.03856  -0.00230
  29       12D+1       -0.00107   0.00000   0.00000   0.00036   0.18813
  30       12D-1        0.00000   0.00012   0.17765   0.00000   0.00000
  31       12D+2        0.07462   0.00000   0.00000  -0.07669   0.00300
  32       12D-2        0.00000   0.09807  -0.00320   0.00000   0.00000
  33       13F 0       -0.01204   0.00000   0.00000   0.00778  -0.00015
  34       13F+1       -0.00008   0.00000   0.00000   0.00020   0.03193
  35       13F-1        0.00000  -0.00044   0.00453   0.00000   0.00000
  36       13F+2       -0.01253   0.00000   0.00000  -0.00054   0.00075
  37       13F-2        0.00000  -0.00023  -0.00042   0.00000   0.00000
  38       13F+3       -0.00012   0.00000   0.00000  -0.00021  -0.01051
  39       13F-3        0.00000   0.00003  -0.00140   0.00000   0.00000
  40       14F 0       -0.01120   0.00000   0.00000   0.02253   0.00019
  41       14F+1        0.00023   0.00000   0.00000  -0.00013  -0.02263
  42       14F-1        0.00000  -0.00063  -0.01986   0.00000   0.00000
  43       14F+2       -0.03483   0.00000   0.00000   0.03879  -0.00047
  44       14F-2        0.00000  -0.02465   0.00151   0.00000   0.00000
  45       14F+3        0.00002   0.00000   0.00000   0.00077  -0.01600
  46       14F-3        0.00000  -0.00049  -0.00234   0.00000   0.00000
  47 2   C  1S         -0.03661   0.00000   0.00000  -0.04232   0.00220
  48        2S          0.12387   0.00000   0.00000   0.16587  -0.00743
  49        3S          0.11657   0.00000   0.00000   0.15664  -0.00962
  50        4S         -0.23738   0.00000   0.00000  -0.21680   0.04714
  51        5S         -0.07838   0.00000   0.00000   0.05220   0.00434
  52        6PX        -0.00177   0.00000   0.00000   0.00406   0.51103
  53        6PY         0.00000  -0.00099   0.12359   0.00000   0.00000
  54        6PZ        -0.15061   0.00000   0.00000   0.23760  -0.00374
  55        7PX        -0.00237   0.00000   0.00000   0.00195   0.40948
  56        7PY         0.00000   0.00451   0.30867   0.00000   0.00000
  57        7PZ        -0.26339   0.00000   0.00000   0.16517  -0.00313
  58        8PX         0.00092   0.00000   0.00000   0.00317   0.14339
  59        8PY         0.00000   0.00769   1.48499   0.00000   0.00000
  60        8PZ        -0.09905   0.00000   0.00000   0.71103  -0.01612
  61        9PX         0.00013   0.00000   0.00000   0.00074   0.01428
  62        9PY         0.00000  -0.00063   0.02614   0.00000   0.00000
  63        9PZ        -0.00362   0.00000   0.00000   0.03443  -0.00034
  64       10D 0       -0.08335   0.00000   0.00000   0.28358  -0.00268
  65       10D+1        0.00045   0.00000   0.00000   0.00445   0.18105
  66       10D-1        0.00000  -0.00044   0.09380   0.00000   0.00000
  67       10D+2       -0.11497   0.00000   0.00000  -0.05286  -0.00287
  68       10D-2        0.00000  -0.20575   0.00449   0.00000   0.00000
  69       11D 0       -0.21715   0.00000   0.00000   0.52523  -0.00495
  70       11D+1       -0.00197   0.00000   0.00000   0.00662   0.37496
  71       11D-1        0.00000   0.00389   0.28994   0.00000   0.00000
  72       11D+2       -0.24509   0.00000   0.00000  -0.10695  -0.00381
  73       11D-2        0.00000  -0.25915   0.00767   0.00000   0.00000
  74       12D 0       -0.00850   0.00000   0.00000   0.24412  -0.00443
  75       12D+1       -0.00176   0.00000   0.00000   0.00022   0.03748
  76       12D-1        0.00000  -0.00382  -0.15798   0.00000   0.00000
  77       12D+2        0.03588   0.00000   0.00000   0.15738  -0.00426
  78       12D-2        0.00000   0.04356   0.00779   0.00000   0.00000
  79       13F 0        0.06628   0.00000   0.00000  -0.03649  -0.00096
  80       13F+1       -0.00040   0.00000   0.00000   0.00049  -0.00663
  81       13F-1        0.00000  -0.00193  -0.22525   0.00000   0.00000
  82       13F+2        0.09260   0.00000   0.00000   0.07314  -0.00142
  83       13F-2        0.00000   0.10280  -0.00091   0.00000   0.00000
  84       13F+3       -0.00051   0.00000   0.00000   0.00062   0.03782
  85       13F-3        0.00000  -0.00044  -0.00267   0.00000   0.00000
  86       14F 0        0.05345   0.00000   0.00000   0.18171  -0.00448
  87       14F+1       -0.00149   0.00000   0.00000   0.00060   0.09174
  88       14F-1        0.00000  -0.00107   0.01561   0.00000   0.00000
  89       14F+2        0.07732   0.00000   0.00000   0.10918  -0.00105
  90       14F-2        0.00000   0.00793   0.00603   0.00000   0.00000
  91       14F+3       -0.00136   0.00000   0.00000  -0.00053   0.00336
  92       14F-3        0.00000   0.00052   0.00416   0.00000   0.00000
  93 3   H  1S          0.16226  -0.00824  -0.29606   0.24108  -0.00918
  94        2S         -0.23922   0.00078  -0.13609  -0.08857  -0.00543
  95        3S         -0.10406   0.00090  -1.10203   0.30009  -0.01625
  96        4S          0.00665   0.00069  -0.01500   0.00179  -0.00058
  97        5PX        -0.00128  -0.09216   0.00355  -0.00385  -0.09023
  98        5PY        -0.01582   0.00277   0.10388  -0.10276   0.00296
  99        5PZ         0.06573  -0.00146   0.01665  -0.04076   0.00010
 100        6PX        -0.00027  -0.20212   0.00896  -0.00478  -0.23595
 101        6PY         0.07106   0.00315   0.15173  -0.07269   0.00380
 102        6PZ         0.03455  -0.00178   0.06731  -0.12251   0.00048
 103        7PX        -0.00088  -0.06547   0.00080  -0.00291  -0.07146
 104        7PY         0.03830   0.00205   0.33004   0.01796   0.00192
 105        7PZ         0.00364   0.00000  -0.17398   0.10676  -0.00501
 106        8D 0        0.02112  -0.00064   0.00691  -0.03424   0.00040
 107        8D+1       -0.00070  -0.02957   0.00104  -0.00042  -0.02035
 108        8D-1       -0.02280   0.00124   0.01846   0.00868   0.00039
 109        8D+2       -0.00286   0.00151   0.02644  -0.04750   0.00190
 110        8D-2        0.00034   0.04188  -0.00200   0.00238   0.04496
 111        9D 0        0.00159  -0.00004   0.01458   0.02259  -0.00137
 112        9D+1       -0.00023   0.00115  -0.00124  -0.00077  -0.01708
 113        9D-1        0.00504   0.00104   0.00346   0.02367  -0.00057
 114        9D+2       -0.01311   0.00140   0.03140  -0.01369   0.00089
 115        9D-2       -0.00001   0.02212  -0.00177   0.00032   0.03784
 116 4   H  1S          0.16226   0.00824   0.29606   0.24108  -0.00918
 117        2S         -0.23922  -0.00078   0.13609  -0.08857  -0.00543
 118        3S         -0.10406  -0.00090   1.10203   0.30009  -0.01625
 119        4S          0.00665  -0.00069   0.01500   0.00179  -0.00058
 120        5PX        -0.00128   0.09216  -0.00355  -0.00385  -0.09023
 121        5PY         0.01582   0.00277   0.10388   0.10276  -0.00296
 122        5PZ         0.06573   0.00146  -0.01665  -0.04076   0.00010
 123        6PX        -0.00027   0.20212  -0.00896  -0.00478  -0.23595
 124        6PY        -0.07106   0.00315   0.15173   0.07269  -0.00380
 125        6PZ         0.03455   0.00178  -0.06731  -0.12251   0.00048
 126        7PX        -0.00088   0.06547  -0.00080  -0.00291  -0.07146
 127        7PY        -0.03830   0.00205   0.33004  -0.01796  -0.00192
 128        7PZ         0.00364   0.00000   0.17398   0.10676  -0.00501
 129        8D 0        0.02112   0.00064  -0.00691  -0.03424   0.00040
 130        8D+1       -0.00070   0.02957  -0.00104  -0.00042  -0.02035
 131        8D-1        0.02280   0.00124   0.01846  -0.00868  -0.00039
 132        8D+2       -0.00286  -0.00151  -0.02644  -0.04750   0.00190
 133        8D-2       -0.00034   0.04188  -0.00200  -0.00238  -0.04496
 134        9D 0        0.00159   0.00004  -0.01458   0.02259  -0.00137
 135        9D+1       -0.00023  -0.00115   0.00124  -0.00077  -0.01708
 136        9D-1       -0.00504   0.00104   0.00346  -0.02367   0.00057
 137        9D+2       -0.01311  -0.00140  -0.03140  -0.01369   0.00089
 138        9D-2        0.00001   0.02212  -0.00177  -0.00032  -0.03784
                          26        27        28        29        30
     Eigenvalues --     0.00211   0.00163   0.00139   0.00132   0.00107
   1 1   O  1S          0.00000   0.00954   0.04967   0.00000   0.00000
   2        2S          0.00000  -0.03176  -0.28095   0.00000   0.00000
   3        3S          0.00000  -0.02868  -0.27474   0.00000   0.00000
   4        4S          0.00000  -0.04063   0.19292   0.00000   0.00000
   5        5S          0.00000   0.15823  -0.47663   0.00000   0.00000
   6        6PX         0.00000   0.01544  -0.01017   0.00000   0.00000
   7        6PY        -0.29446   0.00000   0.00000  -0.45553  -0.02043
   8        6PZ         0.00000   0.23374   0.14058   0.00000   0.00000
   9        7PX         0.00000  -0.00950   0.00944   0.00000   0.00000
  10        7PY         0.13935   0.00000   0.00000   0.48099   0.02687
  11        7PZ         0.00000  -0.16825   0.12886   0.00000   0.00000
  12        8PX         0.00000   0.00097  -0.00179   0.00000   0.00000
  13        8PY        -0.23122   0.00000   0.00000  -0.09487   0.01602
  14        8PZ         0.00000  -0.26321  -1.02261   0.00000   0.00000
  15        9PX         0.00000   0.00327  -0.00051   0.00000   0.00000
  16        9PY        -0.04626   0.00000   0.00000  -0.19323  -0.00521
  17        9PZ         0.00000  -0.01776   0.05455   0.00000   0.00000
  18       10D 0        0.00000   0.19056   0.39830   0.00000   0.00000
  19       10D+1        0.00000  -0.00391   0.00689   0.00000   0.00000
  20       10D-1        0.05440   0.00000   0.00000   0.16453  -0.00074
  21       10D+2        0.00000   0.25941  -0.08904   0.00000   0.00000
  22       10D-2       -0.00089   0.00000   0.00000   0.00558  -0.34481
  23       11D 0        0.00000   0.17878   0.35262   0.00000   0.00000
  24       11D+1        0.00000  -0.00561   0.00719   0.00000   0.00000
  25       11D-1        0.21422   0.00000   0.00000   0.19016  -0.00250
  26       11D+2        0.00000   0.24674  -0.16131   0.00000   0.00000
  27       11D-2        0.00035   0.00000   0.00000   0.00562  -0.21632
  28       12D 0        0.00000   0.04470   0.22593   0.00000   0.00000
  29       12D+1        0.00000  -0.00520   0.00570   0.00000   0.00000
  30       12D-1        0.14207   0.00000   0.00000   0.09806  -0.00318
  31       12D+2        0.00000  -0.02915  -0.06604   0.00000   0.00000
  32       12D-2       -0.00215   0.00000   0.00000   0.00414   0.08900
  33       13F 0        0.00000   0.07523   0.13939   0.00000   0.00000
  34       13F+1        0.00000  -0.00112   0.00416   0.00000   0.00000
  35       13F-1       -0.00422   0.00000   0.00000   0.15618   0.00262
  36       13F+2        0.00000   0.06410  -0.05162   0.00000   0.00000
  37       13F-2       -0.00068   0.00000   0.00000   0.00461  -0.21137
  38       13F+3        0.00000   0.00011  -0.00046   0.00000   0.00000
  39       13F-3        0.01244   0.00000   0.00000  -0.01151  -0.00224
  40       14F 0        0.00000   0.01717   0.05956   0.00000   0.00000
  41       14F+1        0.00000   0.00071   0.00067   0.00000   0.00000
  42       14F-1       -0.05162   0.00000   0.00000   0.04678   0.00161
  43       14F+2        0.00000   0.04729  -0.01376   0.00000   0.00000
  44       14F-2       -0.00018   0.00000   0.00000   0.00088  -0.13900
  45       14F+3        0.00000   0.00061  -0.00010   0.00000   0.00000
  46       14F-3       -0.01713   0.00000   0.00000  -0.01266  -0.00172
  47 2   C  1S          0.00000   0.07225   0.15283   0.00000   0.00000
  48        2S          0.00000  -0.27876  -0.50088   0.00000   0.00000
  49        3S          0.00000  -0.36191  -0.68357   0.00000   0.00000
  50        4S          0.00000   1.27729  -1.28810   0.00000   0.00000
  51        5S          0.00000   0.05644  -0.08105   0.00000   0.00000
  52        6PX         0.00000  -0.01081  -0.00069   0.00000   0.00000
  53        6PY         0.30281   0.00000   0.00000   0.15172  -0.00123
  54        6PZ         0.00000  -0.25269  -0.49610   0.00000   0.00000
  55        7PX         0.00000  -0.00407  -0.00149   0.00000   0.00000
  56        7PY         0.32494   0.00000   0.00000   0.39850   0.00386
  57        7PZ         0.00000  -0.07531   0.12330   0.00000   0.00000
  58        8PX         0.00000   0.01403  -0.01299   0.00000   0.00000
  59        8PY         1.42266   0.00000   0.00000  -1.24145  -0.04256
  60        8PZ         0.00000  -0.30887   0.86841   0.00000   0.00000
  61        9PX         0.00000  -0.00172   0.00094   0.00000   0.00000
  62        9PY         0.04620   0.00000   0.00000   0.03468  -0.00122
  63        9PZ         0.00000  -0.01830  -0.00700   0.00000   0.00000
  64       10D 0        0.00000   0.11495   0.12187   0.00000   0.00000
  65       10D+1        0.00000  -0.00291   0.00222   0.00000   0.00000
  66       10D-1       -0.02967   0.00000   0.00000   0.53805  -0.00440
  67       10D+2        0.00000  -0.30263   0.22702   0.00000   0.00000
  68       10D-2        0.00316   0.00000   0.00000  -0.00229   0.26201
  69       11D 0        0.00000   0.16542   0.25350   0.00000   0.00000
  70       11D+1        0.00000  -0.00661   0.00583   0.00000   0.00000
  71       11D-1        0.08356   0.00000   0.00000  -0.03040  -0.01058
  72       11D+2        0.00000  -0.48041   0.26415   0.00000   0.00000
  73       11D-2        0.00416   0.00000   0.00000  -0.00305   0.36023
  74       12D 0        0.00000   0.04657   0.48772   0.00000   0.00000
  75       12D+1        0.00000  -0.00231   0.00105   0.00000   0.00000
  76       12D-1       -0.41779   0.00000   0.00000   0.10444  -0.00959
  77       12D+2        0.00000  -0.04669   0.31085   0.00000   0.00000
  78       12D-2        0.00517   0.00000   0.00000  -0.00790   0.00738
  79       13F 0        0.00000  -0.12444   0.02037   0.00000   0.00000
  80       13F+1        0.00000  -0.00101   0.00147   0.00000   0.00000
  81       13F-1        0.24853   0.00000   0.00000   0.07196  -0.00654
  82       13F+2        0.00000  -0.19029   0.09755   0.00000   0.00000
  83       13F-2        0.00058   0.00000   0.00000  -0.00194   0.38879
  84       13F+3        0.00000   0.00073  -0.00221   0.00000   0.00000
  85       13F-3        0.13628   0.00000   0.00000  -0.10624  -0.00397
  86       14F 0        0.00000  -0.07473   0.10870   0.00000   0.00000
  87       14F+1        0.00000  -0.00141  -0.00003   0.00000   0.00000
  88       14F-1        0.15034   0.00000   0.00000   0.05988  -0.00978
  89       14F+2        0.00000  -0.07595   0.06598   0.00000   0.00000
  90       14F-2        0.00620   0.00000   0.00000  -0.00673   0.14902
  91       14F+3        0.00000  -0.00267  -0.00071   0.00000   0.00000
  92       14F-3        0.02512   0.00000   0.00000  -0.04294  -0.00036
  93 3   H  1S         -0.38147  -0.26616   0.22196   0.30384  -0.00212
  94        2S         -0.25051  -0.27159   0.27984  -0.12806  -0.00621
  95        3S         -1.12965  -0.29762   0.78940   0.85889   0.03520
  96        4S         -0.01977  -0.01031   0.01050  -0.00585   0.00290
  97        5PX         0.00324  -0.00040   0.00079  -0.00053  -0.11329
  98        5PY         0.02215   0.02022  -0.05301   0.03143   0.00074
  99        5PZ        -0.15930   0.02020  -0.00691   0.03026   0.00314
 100        6PX         0.00913   0.00084   0.00007  -0.00025  -0.28422
 101        6PY        -0.02729   0.05535  -0.09965   0.29983   0.00535
 102        6PZ        -0.30761   0.00360   0.10117  -0.07607  -0.00466
 103        7PX         0.00354   0.00150  -0.00316   0.00163  -0.05422
 104        7PY         0.29579   0.09617   0.01671  -0.12724  -0.00393
 105        7PZ        -0.19670  -0.03964   0.36893   0.06785   0.00576
 106        8D 0       -0.03274   0.01878  -0.02238   0.03481  -0.00039
 107        8D+1        0.00158  -0.00081   0.00071  -0.00085  -0.00489
 108        8D-1        0.05148   0.01085  -0.01510  -0.02333  -0.00031
 109        8D+2        0.00645   0.00156  -0.03165   0.01323   0.00034
 110        8D-2       -0.00174   0.00097   0.00005  -0.00014   0.02742
 111        9D 0       -0.03056  -0.01460   0.02430   0.01292  -0.00046
 112        9D+1       -0.00051   0.00034  -0.00235   0.00136  -0.02210
 113        9D-1        0.03615  -0.01384  -0.03666   0.02797   0.00178
 114        9D+2       -0.00181  -0.00339   0.00937   0.04844   0.00113
 115        9D-2       -0.00182  -0.00172  -0.00009  -0.00073   0.04594
 116 4   H  1S          0.38147  -0.26616   0.22196  -0.30384   0.00212
 117        2S          0.25051  -0.27159   0.27984   0.12806   0.00621
 118        3S          1.12965  -0.29762   0.78940  -0.85889  -0.03520
 119        4S          0.01977  -0.01031   0.01050   0.00585  -0.00290
 120        5PX        -0.00324  -0.00040   0.00079   0.00053   0.11329
 121        5PY         0.02215  -0.02022   0.05301   0.03143   0.00074
 122        5PZ         0.15930   0.02020  -0.00691  -0.03026  -0.00314
 123        6PX        -0.00913   0.00084   0.00007   0.00025   0.28422
 124        6PY        -0.02729  -0.05535   0.09965   0.29983   0.00535
 125        6PZ         0.30761   0.00360   0.10117   0.07607   0.00466
 126        7PX        -0.00354   0.00150  -0.00316  -0.00163   0.05422
 127        7PY         0.29579  -0.09617  -0.01671  -0.12724  -0.00393
 128        7PZ         0.19670  -0.03964   0.36893  -0.06785  -0.00576
 129        8D 0        0.03274   0.01878  -0.02238  -0.03481   0.00039
 130        8D+1       -0.00158  -0.00081   0.00071   0.00085   0.00489
 131        8D-1        0.05148  -0.01085   0.01510  -0.02333  -0.00031
 132        8D+2       -0.00645   0.00156  -0.03165  -0.01323  -0.00034
 133        8D-2       -0.00174  -0.00097  -0.00005  -0.00014   0.02742
 134        9D 0        0.03056  -0.01460   0.02430  -0.01292   0.00046
 135        9D+1        0.00051   0.00034  -0.00235  -0.00136   0.02210
 136        9D-1        0.03615   0.01384   0.03666   0.02797   0.00178
 137        9D+2        0.00181  -0.00339   0.00937  -0.04844  -0.00113
 138        9D-2       -0.00182   0.00172   0.00009  -0.00073   0.04594
                          31        32        33        34        35
     Eigenvalues --     0.00105   0.00087   0.00086   0.00080   0.00065
   1 1   O  1S          0.00195  -0.01201   0.04652   0.00000   0.26103
   2        2S         -0.00449  -0.00260   0.00048   0.00000   0.21009
   3        3S         -0.00708   0.02815  -0.11482   0.00000  -0.69743
   4        4S          0.00438  -0.04091   0.10479   0.00000  -0.13930
   5        5S          0.00179  -0.05789   0.12711   0.00000  -0.63704
   6        6PX         0.73028  -0.00132  -0.01246   0.00000  -0.00668
   7        6PY         0.00000   0.00000   0.00000   0.70294   0.00000
   8        6PZ        -0.00429  -0.06370   0.23075   0.00000  -0.73241
   9        7PX        -0.63622  -0.04665   0.00127   0.00000   0.00946
  10        7PY         0.00000   0.00000   0.00000  -1.11061   0.00000
  11        7PZ         0.01112   0.06238  -0.20595   0.00000   1.21506
  12        8PX        -0.17217   0.42723   0.10602   0.00000  -0.01316
  13        8PY         0.00000   0.00000   0.00000  -0.44165   0.00000
  14        8PZ        -0.00570  -0.05160   0.17985   0.00000  -0.62439
  15        9PX         0.10868   0.03649   0.00603   0.00000  -0.00163
[...]
   6        6PX         0.01439   0.00092   0.00000   0.00000   0.00045
   7        6PY         0.00000   0.00000   0.00255  -0.00414   0.00000
   8        6PZ         0.00036   0.02304   0.00000   0.00000  -0.01667
   9        7PX        -0.06116  -0.00551   0.00000   0.00000  -0.00252
  10        7PY         0.00000   0.00000   0.02169  -0.04134   0.00000
  11        7PZ        -0.00052  -0.13244   0.00000   0.00000   0.03561
  12        8PX         0.42790  -0.01024   0.00000   0.00000   0.00984
  13        8PY         0.00000   0.00000   3.15866  -2.40000   0.00000
  14        8PZ         0.02177   3.67012   0.00000   0.00000   0.84909
  15        9PX        -0.67893   0.05002   0.00000   0.00000   0.02148
  16        9PY         0.00000   0.00000  -0.90456  -0.09955   0.00000
  17        9PZ         0.06325   5.52382   0.00000   0.00000  -0.36289
  18       10D 0        0.00021  -0.02894   0.00000   0.00000   0.00941
  19       10D+1        0.00557  -0.00097   0.00000   0.00000  -0.00018
  20       10D-1        0.00000   0.00000   0.01057  -0.00780   0.00000
  21       10D+2       -0.00113   0.03471   0.00000   0.00000   0.00758
  22       10D-2        0.00000   0.00000   0.00049  -0.00053   0.00000
  23       11D 0        0.00400   0.04942   0.00000   0.00000  -0.05386
  24       11D+1       -0.06160   0.00418   0.00000   0.00000   0.00081
  25       11D-1        0.00000   0.00000  -0.06950   0.10292   0.00000
  26       11D+2        0.00345  -0.13125   0.00000   0.00000  -0.02795
  27       11D-2        0.00000   0.00000  -0.00288   0.00287   0.00000
  28       12D 0        0.01669  -1.74797   0.00000   0.00000  -0.45444
  29       12D+1       -0.08549   0.00510   0.00000   0.00000  -0.00184
  30       12D-1        0.00000   0.00000  -1.48417   1.05935   0.00000
  31       12D+2       -0.02864   0.28971   0.00000   0.00000  -0.02371
  32       12D-2        0.00000   0.00000  -0.02226   0.00919   0.00000
  33       13F 0       -0.00050  -0.00570   0.00000   0.00000  -0.00802
  34       13F+1       -0.00696   0.00131   0.00000   0.00000   0.00027
  35       13F-1        0.00000   0.00000  -0.04153   0.02338   0.00000
  36       13F+2       -0.00123   0.00448   0.00000   0.00000  -0.00370
  37       13F-2        0.00000   0.00000  -0.00192   0.00064   0.00000
  38       13F+3        0.01950  -0.00044   0.00000   0.00000  -0.00040
  39       13F-3        0.00000   0.00000   0.01298  -0.01146   0.00000
  40       14F 0       -0.00252   0.13281   0.00000   0.00000   0.08106
  41       14F+1        0.07985  -0.00373   0.00000   0.00000  -0.00041
  42       14F-1        0.00000   0.00000   0.16309  -0.12456   0.00000
  43       14F+2        0.00547  -0.01564   0.00000   0.00000   0.00343
  44       14F-2        0.00000   0.00000   0.00726  -0.00359   0.00000
  45       14F+3       -0.03038   0.00151   0.00000   0.00000   0.00122
  46       14F-3        0.00000   0.00000  -0.02932   0.01349   0.00000
  47 2   C  1S         -0.00432   0.07943   0.00000   0.00000   0.20220
  48        2S         -0.02734   0.44043   0.00000   0.00000   1.21960
  49        3S         -0.00500  -0.07801   0.00000   0.00000  -0.00208
  50        4S          0.49783   5.71656   0.00000   0.00000  25.33429
  51        5S          0.18294   8.04466   0.00000   0.00000  10.40287
  52        6PX         0.00469  -0.00103   0.00000   0.00000   0.00004
  53        6PY         0.00000   0.00000   0.02911   0.00601   0.00000
  54        6PZ         0.00004   0.00369   0.00000   0.00000   0.03676
  55        7PX         0.01330   0.01640   0.00000   0.00000   0.02279
  56        7PY         0.00000   0.00000  -1.83575  -1.40910   0.00000
  57        7PZ        -0.01205   0.69413   0.00000   0.00000  -1.05087
  58        8PX         3.92512   0.06600   0.00000   0.00000   0.09543
  59        8PY         0.00000   0.00000 -16.47529  -8.40877   0.00000
  60        8PZ         0.19089  -2.66914   0.00000   0.00000  -9.47131
  61        9PX         2.26322   0.00227   0.00000   0.00000   0.01043
  62        9PY         0.00000   0.00000   1.63209  -5.33001   0.00000
  63        9PZ         0.01756  -2.28825   0.00000   0.00000  -2.06411
  64       10D 0       -0.00199  -0.05622   0.00000   0.00000   0.02153
  65       10D+1        0.01536  -0.00042   0.00000   0.00000  -0.00013
  66       10D-1        0.00000   0.00000   0.01497   0.02100   0.00000
  67       10D+2        0.00359   0.02188   0.00000   0.00000  -0.05296
  68       10D-2        0.00000   0.00000  -0.00037  -0.00119   0.00000
  69       11D 0        0.00353   0.71650   0.00000   0.00000   0.15192
  70       11D+1       -0.36963   0.01950   0.00000   0.00000  -0.00891
  71       11D-1        0.00000   0.00000   1.41963   1.25403   0.00000
  72       11D+2       -0.03739  -0.27562   0.00000   0.00000  -0.92325
  73       11D-2        0.00000   0.00000  -0.01604  -0.01837   0.00000
  74       12D 0        0.10443   1.39169   0.00000   0.00000   1.82127
  75       12D+1       -1.38804  -0.06063   0.00000   0.00000  -0.05108
  76       12D-1        0.00000   0.00000   2.49206   2.39166   0.00000
  77       12D+2        0.08703   0.29631   0.00000   0.00000  -0.22973
  78       12D-2        0.00000   0.00000  -0.01861  -0.01836   0.00000
  79       13F 0       -0.00565   0.01877   0.00000   0.00000   0.02570
  80       13F+1       -0.03850  -0.00129   0.00000   0.00000   0.00053
  81       13F-1        0.00000   0.00000   0.04960  -0.01977   0.00000
  82       13F+2       -0.00132   0.01032   0.00000   0.00000   0.04538
  83       13F-2        0.00000   0.00000   0.00128   0.00026   0.00000
  84       13F+3        0.10477  -0.00049   0.00000   0.00000  -0.00212
  85       13F-3        0.00000   0.00000   0.07520   0.01657   0.00000
  86       14F 0        0.05799  -0.06071   0.00000   0.00000   0.17671
  87       14F+1        0.05033   0.02126   0.00000   0.00000   0.00538
  88       14F-1        0.00000   0.00000  -1.98779   1.15350   0.00000
  89       14F+2        0.02888   0.42010   0.00000   0.00000   0.45170
  90       14F-2        0.00000   0.00000   0.01069   0.01121   0.00000
  91       14F+3       -0.31966   0.00556   0.00000   0.00000   0.00153
  92       14F-3        0.00000   0.00000  -0.23302   0.33548   0.00000
  93 3   H  1S         -0.00286   0.01783  -0.06775   0.00998   0.04750
  94        2S         -0.09114  -1.42808   3.04646   1.66291  -2.85772
  95        3S         -0.02011   1.61070  25.85996  14.27462 -14.73362
  96        4S         -0.01403  -1.16468  -1.73237   4.65312  -1.66033
  97        5PX        -0.08383  -0.00019   0.00216  -0.00015  -0.00163
  98        5PY        -0.00094   0.02063   0.11413   0.07237  -0.09542
  99        5PZ         0.00344  -0.01953   0.03371  -0.10488   0.03168
 100        6PX        -0.01777   0.00959  -0.02319  -0.00383   0.02222
 101        6PY         0.01189   0.14532  -2.13909  -0.73606   1.51296
 102        6PZ        -0.03049   0.30248  -0.46996   1.45775  -0.61290
 103        7PX        -3.04249  -0.02489  -0.08022  -0.04918   0.03613
 104        7PY         0.06966  -0.06496  -9.22138  -1.88189   4.80675
 105        7PZ         0.01246   4.15703   1.51181   2.94389   0.03509
 106        8D 0        0.00173  -0.05766   0.05349  -0.02862  -0.02481
 107        8D+1        0.02641  -0.00024   0.00161  -0.00075   0.00118
 108        8D-1       -0.00376   0.05046  -0.10878  -0.00873   0.06540
 109        8D+2       -0.00246   0.04017   0.05205  -0.04405   0.04402
 110        8D-2       -0.06545  -0.00201   0.00012   0.00005  -0.00031
 111        9D 0       -0.00575   0.59779  -1.20692   0.49814   0.42266
 112        9D+1       -0.23548   0.00582   0.00157  -0.01194   0.00443
 113        9D-1        0.02529  -0.82089   0.30512  -0.76473   0.14496
 114        9D+2       -0.00135  -0.15094  -1.18227   0.13401   0.43808
 115        9D-2        0.50506   0.00491   0.02289  -0.00087  -0.01172
 116 4   H  1S         -0.00286   0.01783   0.06775  -0.00998   0.04750
 117        2S         -0.09114  -1.42808  -3.04646  -1.66291  -2.85772
 118        3S         -0.02011   1.61070 -25.85996 -14.27462 -14.73362
 119        4S         -0.01403  -1.16468   1.73237  -4.65312  -1.66033
 120        5PX        -0.08383  -0.00019  -0.00216   0.00015  -0.00163
 121        5PY         0.00094  -0.02063   0.11413   0.07237   0.09542
 122        5PZ         0.00344  -0.01953  -0.03371   0.10488   0.03168
 123        6PX        -0.01777   0.00959   0.02319   0.00383   0.02222
 124        6PY        -0.01189  -0.14532  -2.13909  -0.73606  -1.51296
 125        6PZ        -0.03049   0.30248   0.46996  -1.45775  -0.61290
 126        7PX        -3.04249  -0.02489   0.08022   0.04918   0.03613
 127        7PY        -0.06966   0.06496  -9.22138  -1.88189  -4.80675
 128        7PZ         0.01246   4.15703  -1.51181  -2.94389   0.03509
 129        8D 0        0.00173  -0.05766  -0.05349   0.02862  -0.02481
 130        8D+1        0.02641  -0.00024  -0.00161   0.00075   0.00118
 131        8D-1        0.00376  -0.05046  -0.10878  -0.00873  -0.06540
 132        8D+2       -0.00246   0.04017  -0.05205   0.04405   0.04402
 133        8D-2        0.06545   0.00201   0.00012   0.00005   0.00031
 134        9D 0       -0.00575   0.59779   1.20692  -0.49814   0.42266
 135        9D+1       -0.23548   0.00582  -0.00157   0.01194   0.00443
 136        9D-1       -0.02529   0.82089   0.30512  -0.76473  -0.14496
 137        9D+2       -0.00135  -0.15094   1.18227  -0.13401   0.43808
 138        9D-2       -0.50506  -0.00491   0.02289  -0.00087   0.01172
                         136       137       138
     Eigenvalues --     0.00000   0.00000   0.00000
   1 1   O  1S         -0.06073   0.00000   0.00948
   2        2S         -0.29345   0.00000   0.05172
   3        3S          0.03815   0.00000   0.00104
   4        4S          4.43046   0.00000  -1.09150
   5        5S         13.13378   0.00000  -6.80762
   6        6PX        -0.00059   0.00000   0.00011
   7        6PY         0.00000   0.00506   0.00000
   8        6PZ        -0.00474   0.00000   0.00544
   9        7PX         0.00251   0.00000  -0.00057
  10        7PY         0.00000  -0.01323   0.00000
  11        7PZ        -0.07863   0.00000  -0.03073
  12        8PX        -0.02339   0.00000   0.00773
  13        8PY         0.00000   1.47251   0.00000
  14        8PZ        -1.39770   0.00000   0.89606
  15        9PX        -0.03655   0.00000   0.01066
  16        9PY         0.00000   1.55049   0.00000
  17        9PZ        -1.07579   0.00000   1.43326
  18       10D 0       -0.01636   0.00000   0.00147
  19       10D+1       -0.00021   0.00000   0.00000
  20       10D-1        0.00000  -0.00229   0.00000
  21       10D+2        0.00385   0.00000  -0.00165
  22       10D-2        0.00000   0.00000   0.00000
  23       11D 0        0.10955   0.00000  -0.00590
  24       11D+1        0.00135   0.00000   0.00013
  25       11D-1        0.00000  -0.01597   0.00000
  26       11D+2       -0.01304   0.00000   0.00412
  27       11D-2        0.00000  -0.00043   0.00000
  28       12D 0       -0.08666   0.00000  -0.20152
  29       12D+1       -0.00618   0.00000  -0.00185
  30       12D-1        0.00000  -0.58158   0.00000
  31       12D+2        0.32078   0.00000  -0.04082
  32       12D-2        0.00000  -0.00589   0.00000
  33       13F 0       -0.00817   0.00000  -0.00398
  34       13F+1       -0.00076   0.00000   0.00003
  35       13F-1        0.00000  -0.00488   0.00000
  36       13F+2        0.01297   0.00000  -0.00222
  37       13F-2        0.00000  -0.00040   0.00000
  38       13F+3        0.00122   0.00000  -0.00001
  39       13F-3        0.00000  -0.00509   0.00000
  40       14F 0        0.01591   0.00000   0.01747
  41       14F+1        0.00248   0.00000  -0.00016
  42       14F-1        0.00000   0.02906   0.00000
  43       14F+2       -0.06161   0.00000   0.01083
  44       14F-2        0.00000   0.00161   0.00000
  45       14F+3       -0.00335   0.00000   0.00003
  46       14F-3        0.00000   0.01475   0.00000
  47 2   C  1S         -0.03768   0.00000   0.00510
  48        2S         -0.21383   0.00000   0.03522
  49        3S          0.11743   0.00000   0.02751
  50        4S         -5.29986   0.00000  10.04831
  51        5S         -4.18690   0.00000  13.51183
  52        6PX         0.00008   0.00000   0.00029
  53        6PY         0.00000  -0.01396   0.00000
  54        6PZ        -0.02374   0.00000   0.00221
  55        7PX        -0.00684   0.00000   0.00216
  56        7PY         0.00000   0.01373   0.00000
  57        7PZ         0.23395   0.00000   0.00981
  58        8PX        -0.01935   0.00000   0.04526
  59        8PY         0.00000  -7.54193   0.00000
  60        8PZ        -1.48716   0.00000  -0.03744
  61        9PX         0.00192   0.00000   0.03089
  62        9PY         0.00000  -5.56598   0.00000
  63        9PZ        -2.33287   0.00000  -0.22562
  64       10D 0        0.01406   0.00000  -0.00401
  65       10D+1        0.00062   0.00000  -0.00013
  66       10D-1        0.00000  -0.01413   0.00000
  67       10D+2       -0.00568   0.00000  -0.00772
  68       10D-2        0.00000   0.00023   0.00000
  69       11D 0       -0.79359   0.00000   0.13159
  70       11D+1       -0.00869   0.00000   0.00196
  71       11D-1        0.00000  -0.18516   0.00000
  72       11D+2        0.20480   0.00000  -0.05053
  73       11D-2        0.00000   0.00172   0.00000
  74       12D 0       -6.05843   0.00000   0.72085
  75       12D+1        0.00426   0.00000   0.00238
  76       12D-1        0.00000  -0.73560   0.00000
  77       12D+2       -2.83149   0.00000  -0.29866
  78       12D-2        0.00000  -0.06388   0.00000
  79       13F 0       -0.03727   0.00000  -0.00913
  80       13F+1       -0.00025   0.00000   0.00013
  81       13F-1        0.00000   0.01947   0.00000
  82       13F+2       -0.01652   0.00000  -0.00145
  83       13F-2        0.00000  -0.00057   0.00000
  84       13F+3        0.00152   0.00000  -0.00014
  85       13F-3        0.00000  -0.01777   0.00000
  86       14F 0       -0.17633   0.00000   0.06815
  87       14F+1       -0.00417   0.00000   0.00034
  88       14F-1        0.00000  -0.53086   0.00000
  89       14F+2       -0.34474   0.00000   0.05503
  90       14F-2        0.00000  -0.00367   0.00000
  91       14F+3       -0.00142   0.00000   0.00087
  92       14F-3        0.00000  -0.03480   0.00000
  93 3   H  1S         -0.01626   0.00865  -0.00302
  94        2S          1.01894  -0.10125  -0.19572
  95        3S         -3.56956  11.38043  -5.31205
  96        4S         -0.30574   8.37768  -3.08103
  97        5PX         0.00044   0.00092  -0.00027
  98        5PY         0.00309   0.03049  -0.01292
  99        5PZ         0.04101   0.00169   0.00578
 100        6PX        -0.00928  -0.00560   0.00333
 101        6PY        -0.43216  -0.26295   0.19212
 102        6PZ        -0.18568  -0.18307  -0.08892
 103        7PX         0.00973   0.00770   0.01790
 104        7PY        -2.16434  -3.63089   1.56181
 105        7PZ        -3.87385   2.54367  -0.62911
 106        8D 0        0.01093  -0.00724   0.00188
 107        8D+1       -0.00231   0.00038   0.00018
 108        8D-1       -0.04729   0.02478  -0.00809
 109        8D+2        0.01196   0.04161  -0.00409
 110        8D-2       -0.00125   0.00027   0.00023
 111        9D 0       -0.31023  -0.07363   0.04321
 112        9D+1        0.01211   0.00219   0.00041
 113        9D-1        0.28986  -0.08698   0.11339
 114        9D+2       -0.29616  -0.34499   0.11349
 115        9D-2        0.01361   0.00404  -0.00366
 116 4   H  1S         -0.01626  -0.00865  -0.00302
 117        2S          1.01894   0.10125  -0.19572
 118        3S         -3.56956 -11.38043  -5.31205
 119        4S         -0.30574  -8.37768  -3.08103
 120        5PX         0.00044  -0.00092  -0.00027
 121        5PY        -0.00309   0.03049   0.01292
 122        5PZ         0.04101  -0.00169   0.00578
 123        6PX        -0.00928   0.00560   0.00333
 124        6PY         0.43216  -0.26295  -0.19212
 125        6PZ        -0.18568   0.18307  -0.08892
 126        7PX         0.00973  -0.00770   0.01790
 127        7PY         2.16434  -3.63089  -1.56181
 128        7PZ        -3.87385  -2.54367  -0.62911
 129        8D 0        0.01093   0.00724   0.00188
 130        8D+1       -0.00231  -0.00038   0.00018
 131        8D-1        0.04729   0.02478   0.00809
 132        8D+2        0.01196  -0.04161  -0.00409
 133        8D-2        0.00125   0.00027  -0.00023
 134        9D 0       -0.31023   0.07363   0.04321
 135        9D+1        0.01211  -0.00219   0.00041
 136        9D-1       -0.28986  -0.08698  -0.11339
 137        9D+2       -0.29616   0.34499   0.11349
 138        9D-2       -0.01361   0.00404   0.00366
          Condensed to atoms (all electrons):
              1          2          3          4
     1  O    8.193676   0.349397  -0.062813  -0.062813
     2  C    0.349397   5.719102   0.207764   0.207764
     3  H   -0.062813   0.207764   0.434649  -0.030337
     4  H   -0.062813   0.207764  -0.030337   0.434649
 Mulliken atomic charges:
              1
     1  O   -0.417446
     2  C   -0.484027
     3  H    0.450737
     4  H    0.450737
 Sum of Mulliken atomic charges =   0.00000
 Mulliken charges with hydrogens summed into heavy atoms:
              1
     1  O   -0.417446
     2  C    0.417446
 Sum of Mulliken charges with hydrogens summed into heavy atoms =   0.00000
 Electronic spatial extent (au):  <R**2>=             60.6341
 Charge=              0.0000 electrons
 Dipole moment (field-independent basis, Debye):
    X=             -0.0068    Y=              0.0000    Z=             -2.4419  Tot=              2.4420
 Quadrupole moment (field-independent basis, Debye-Ang):
   XX=            -11.7378   YY=            -11.6218   ZZ=            -12.2710
   XY=              0.0000   XZ=             -0.0023   YZ=              0.0000
 Traceless Quadrupole moment (field-independent basis, Debye-Ang):
   XX=              0.1391   YY=              0.2551   ZZ=             -0.3942
   XY=              0.0000   XZ=             -0.0023   YZ=              0.0000
 Octapole moment (field-independent basis, Debye-Ang**2):
  XXX=              0.1490  YYY=              0.0000  ZZZ=              0.3118  XYY=              0.0656
  XXY=              0.0000  XXZ=              0.5814  XZZ=              0.0659  YZZ=              0.0000
  YYZ=             -0.7021  XYZ=              0.0000
 Hexadecapole moment (field-independent basis, Debye-Ang**3):
 XXXX=            -10.5222 YYYY=            -18.2508 ZZZZ=            -46.2412 XXXY=              0.0000
 XXXZ=             -0.0741 YYYX=              0.0000 YYYZ=              0.0000 ZZZX=             -0.1013
 ZZZY=              0.0000 XXYY=             -5.1561 XXZZ=             -9.3949 YYZZ=            -10.4556
 XXYZ=              0.0000 YYXZ=             -0.0437 ZZXY=              0.0000
 N-N= 3.130404976044D+01 E-N=-3.313598833720D+02  KE= 1.142313753893D+02
 1\1\GINC-TRAPISTA\SP\RQCISD-FC\Aug-CC-pVTZ\C1H2O1\BRUNS\20-Nov-2021\0\
 \# qcisd/aug-cc-pvtz nosymm density=current output=wfn\\h2co-wavefunct
 ion\\0,1\O,0,0.,0.,0.679252\C,0,-0.01,0.,-0.526911\H,0,0.,0.936614,-1.
 10662\H,0,0.,-0.936614,-1.10662\\Version=EM64L-G09RevB.01\HF=-113.9137
 849\MP2=-114.3163145\MP3=-114.3203314\MP4D=-114.3305552\MP4DQ=-114.321
 6814\MP4SDQ=-114.3269443\QCISD=-114.3269498\RMSD=2.849e-09\Dipole=-0.0
 02679,0.,-0.9607343\Quadrupole=0.1034137,0.1896564,-0.2930701,0.,-0.00
 17339,0.\PG=CS [SG(C1O1),X(H2)]\\@

 Writing a WFN file to GAUSSIAN.wfn.


 IT IS A SIMPLE TASK TO MAKE THINGS COMPLEX,
 BUT A COMPLEX TASK TO MAKE THEM SIMPLE.
 Job cpu time:  0 days  0 hours 23 minutes 29.7 seconds.
 File lengths (MBytes):  RWF=   5787 Int=      0 D2E=      0 Chk=      2 Scr=      1
 Normal termination of Gaussian 09 at Sat Nov 20 17:52:36 2021.
