 Entering Gaussian System, Link 0=/home/bruns/programas/chemistry/gaussian/g09/g09
 Input=GAUSSIAN.com
 Output=GAUSSIAN.log
 Initial command:
 /home/bruns/programas/chemistry/gaussian/g09/l1.exe /home/bruns/programas/chemistry/gaussian/work/Gau-77150.inp -scrdir=/home/bruns/programas/chemistry/gaussian/work/
 Entering Link 1 = /home/bruns/programas/chemistry/gaussian/g09/l1.exe PID=     77152.
  
 Copyright (c) 1988,1990,1992,1993,1995,1998,2003,2009,2010,
            Gaussian, Inc.  All Rights Reserved.
  
 This is part of the Gaussian(R) 09 program.  It is based on
 the Gaussian(R) 03 system (copyright 2003, Gaussian, Inc.),
 the Gaussian(R) 98 system (copyright 1998, Gaussian, Inc.),
 the Gaussian(R) 94 system (copyright 1995, Gaussian, Inc.),
 the Gaussian 92(TM) system (copyright 1992, Gaussian, Inc.),
 the Gaussian 90(TM) system (copyright 1990, Gaussian, Inc.),
 the Gaussian 88(TM) system (copyright 1988, Gaussian, Inc.),
 the Gaussian 86(TM) system (copyright 1986, Carnegie Mellon
 University), and the Gaussian 82(TM) system (copyright 1983,
 Carnegie Mellon University). Gaussian is a federally registered
 trademark of Gaussian, Inc.
  
 This software contains proprietary and confidential information,
 including trade secrets, belonging to Gaussian, Inc.
  
 This software is provided under written license and may be
 used, copied, transmitted, or stored only in accord with that
 written license.
  
 The following legend is applicable only to US Government
 contracts under FAR:
  
                    RESTRICTED RIGHTS LEGEND
  
 Use, reproduction and disclosure by the US Government is
 subject to restrictions as set forth in subparagraphs (a)
 and (c) of the Commercial Computer Software - Restricted
 Rights clause in FAR 52.227-19.
  
 Gaussian, Inc.
 340 Quinnipiac St., Bldg. 40, Wallingford CT 06492
  
  
 ---------------------------------------------------------------
 Warning -- This program may not be used in any manner that
 competes with the business of Gaussian, Inc. or will provide
 assistance to any competitor of Gaussian, Inc.  The licensee
 of this program is prohibited from giving any competitor of
 Gaussian, Inc. access to this program.  By using this program,
 the user acknowledges that Gaussian, Inc. is engaged in the
 business of creating and licensing software in the field of
 computational chemistry and represents and warrants to the
 licensee that it is not a competitor of Gaussian, Inc. and that
 it will not use this program in any manner prohibited above.
 ---------------------------------------------------------------
  

 Cite this work as:
 Gaussian 09, Revision B.01,
 M. J. Frisch, G. W. Trucks, H. B. Schlegel, G. E. Scuseria, 
 M. A. Robb, J. R. Cheeseman, G. Scalmani, V. Barone, B. Mennucci, 
 G. A. Petersson, H. Nakatsuji, M. Caricato, X. Li, H. P. Hratchian, 
 A. F. Izmaylov, J. Bloino, G. Zheng, J. L. Sonnenberg, M. Hada, 
 M. Ehara, K. Toyota, R. Fukuda, J. Hasegawa, M. Ishida, T. Nakajima, 
 Y. Honda, O. Kitao, H. Nakai, T. Vreven, J. A. Montgomery, Jr., 
 J. E. Peralta, F. Ogliaro, M. Bearpark, J. J. Heyd, E. Brothers, 
 K. N. Kudin, V. N. Staroverov, T. Keith, R. Kobayashi, J. Normand, 
 K. Raghavachari, A. Rendell, J. C. Burant, S. S. Iyengar, J. Tomasi, 
 M. Cossi, N. Rega, J. M. Millam, M. Klene, J. E. Knox, J. B. Cross, 
 V. Bakken, C. Adamo, J. Jaramillo, R. Gomperts, R. E. Stratmann, 
 O. Yazyev, A. J. Austin, R. Cammi, C. Pomelli, J. W. Ochterski, 
 R. L. Martin, K. Morokuma, V. G. Zakrzewski, G. A. Voth, 
 P. Salvador, J. J. Dannenberg, S. Dapprich, A. D. Daniels, 
 O. Farkas, J. B. Foresman, J. V. Ortiz, J. Cioslowski, 
 and D. J. Fox, Gaussian, Inc., Wallingford CT, 2010.
 
 ******************************************
 Gaussian 09:  EM64L-G09RevB.01 12-Aug-2010
                20-Nov-2021 
 ******************************************
 %nproc=8
 Will use up to    8 processors via shared memory.
 %mem=8GB
 -----------------------------------------------------
 # qcisd/aug-cc-pvtz nosymm density=current output=wfn
 -----------------------------------------------------
 1/30=1,38=1/1;
 2/12=2,15=1,17=6,18=5,40=1/2;
 3/5=16,6=1,7=10,11=9,16=1,25=1,30=1,71=1/1,2,3;
 4//1;
 5/5=2,38=5/2;
 8/6=4,9=120000,10=1/1,4;
 9/5=8,15=1/13;
 11/28=-7,31=1,32=3,42=3/11;
 10/5=6,13=10,31=1/2;
 6/7=2,8=2,9=2,10=2,22=-1,31=1/1;
 99/5=1,6=1100,9=1/99;
 -----------------
 h2co-wavefunction
 -----------------
 Symbolic Z-matrix:
 Charge =  0 Multiplicity = 1
 O                     0.        0.        0.67925 
 C                     0.        0.       -0.52691 
 H                     0.        0.94661  -1.10662 
 H                     0.       -0.93661  -1.10662 
 
                          Input orientation:                          
 ---------------------------------------------------------------------
 Center     Atomic      Atomic             Coordinates (Angstroms)
 Number     Number       Type             X           Y           Z
 ---------------------------------------------------------------------
      1          8           0        0.000000    0.000000    0.679252
      2          6           0        0.000000    0.000000   -0.526911
      3          1           0        0.000000    0.946614   -1.106620
      4          1           0        0.000000   -0.936614   -1.106620
 ---------------------------------------------------------------------
                    Distance matrix (angstroms):
                    1          2          3          4
     1  O    0.000000
     2  C    1.206163   0.000000
     3  H    2.021241   1.110018   0.000000
     4  H    2.016577   1.101503   1.883228   0.000000
 Symmetry turned off by external request.
 Stoichiometry    CH2O
 Framework group  CS[SG(CH2O)]
 Deg. of freedom     5
 Full point group                 CS      NOp   2
 Rotational constants (GHZ):    282.7794879     38.8698443     34.1726022
 Standard basis: Aug-CC-pVTZ (5D, 7F)
 Integral buffers will be    131072 words long.
 Raffenetti 1 integral format.
 Two-electron integral symmetry is turned off.
   138 basis functions,   198 primitive gaussians,   160 cartesian basis functions
     8 alpha electrons        8 beta electrons
       nuclear repulsion energy        31.2765538308 Hartrees.
 NAtoms=    4 NActive=    4 NUniq=    4 SFac= 1.00D+00 NAtFMM=   50 NAOKFM=F Big=F
 One-electron integrals computed using PRISM.
 NBasis=   138 RedAO= T  NBF=   138
 NBsUse=   138 1.00D-06 NBFU=   138
 Harris functional with IExCor=  205 diagonalized for initial guess.
 ExpMin= 2.53D-02 ExpMax= 1.53D+04 ExpMxC= 5.22D+02 IAcc=3 IRadAn=         0 AccDes= 0.00D+00
 HarFok:  IExCor=  205 AccDes= 0.00D+00 IRadAn=         0 IDoV= 1
 ScaDFX=  1.000000  1.000000  1.000000  1.000000
 FoFCou: FMM=F IPFlag=           0 FMFlag=      100000 FMFlg1=           0
         NFxFlg=           0 DoJE=T BraDBF=F KetDBF=T FulRan=T
         Omega=  0.000000  0.000000  1.000000  0.000000  0.000000 ICntrl=     500 IOpCl=  0
         NMat0=    1 NMatS0=    1 NMatT0=    0 NMatD0=    1 NMtDS0=    0 NMtDT0=    0
         I1Cent=           4 NGrid=           0.
 Symmetry not used in FoFCou.
 Requested convergence on RMS density matrix=1.00D-08 within 128 cycles.
 Requested convergence on MAX density matrix=1.00D-06.
 Requested convergence on             energy=1.00D-06.
 No special actions if energy rises.
 Keep R1 ints in memory in canonical form, NReq=85137408.
 SCF Done:  E(RHF) =  -113.913661882     A.U. after   11 cycles
             Convg  =    0.2903D-08             -V/T =  2.0019
 ExpMin= 2.53D-02 ExpMax= 1.53D+04 ExpMxC= 5.22D+02 IAcc=3 IRadAn=         5 AccDes= 0.00D+00
 HarFok:  IExCor=  205 AccDes= 0.00D+00 IRadAn=         5 IDoV=-2
 ScaDFX=  1.000000  1.000000  1.000000  1.000000
 DSYEVD returned Info=          93 IAlg= 4 N=    46 NDim=    46 NE2=    23340785 trying DSYEV.
 Range of M.O.s used for correlation:     3   138
 NBasis=   138 NAE=     8 NBE=     8 NFC=     2 NFV=     0
 NROrb=    136 NOA=     6 NOB=     6 NVA=   130 NVB=   130

 **** Warning!!: The largest alpha MO coefficient is  0.33616534D+02

 Semi-Direct transformation.
 ModeAB=           2 MOrb=             6 LenV=    1073118443
 LASXX=      7286295 LTotXX=     7286295 LenRXX=     7286295
 LTotAB=     7445736 MaxLAS=    10510080 LenRXY=    10510080
 NonZer=    14572590 LenScr=    22628352 LnRSAI=           0
 LnScr1=           0 LExtra=           0 Total=     40424727
 MaxDsk=          -1 SrtSym=           F ITran=            4
 JobTyp=0 Pass  1:  I=   1 to   6.
 (rs|ai) integrals will be sorted in core.
 Spin components of T(2) and E(2):
     alpha-alpha T2 =       0.1377502891D-01 E2=     -0.4805446061D-01
     alpha-beta  T2 =       0.8518658510D-01 E2=     -0.3065213465D+00
     beta-beta   T2 =       0.1377502891D-01 E2=     -0.4805446061D-01
 ANorm=    0.1054863329D+01
 E2 =    -0.4026302677D+00 EUMP2 =    -0.11431629215003D+03
 R2 and R3 integrals will be kept in memory, NReq=   167993840.
 Iterations=  50 Convergence= 0.100D-07
 Iteration Nr.   1
 **********************
 DD1Dir will call FoFMem   1 times, MxPair=        42
 NAB=    21 NAA=     0 NBB=     0.
 MP4(R+Q)=  0.88833886D-02
 E3=       -0.40004861D-02        EUMP3=      -0.11432029264D+03
 E4(DQ)=   -0.13625129D-02        UMP4(DQ)=   -0.11432165515D+03
 E4(SDQ)=  -0.66369421D-02        UMP4(SDQ)=  -0.11432692958D+03
 DE(Corr)= -0.39774737     E(Corr)=     -114.31140925    
 NORM(A)=   0.10555688D+01
 Iteration Nr.   2
 **********************
 DD1Dir will call FoFMem   1 times, MxPair=        42
 NAB=    21 NAA=     0 NBB=     0.
 DE(Corr)= -0.41172088     E(CORR)=     -114.32538276     Delta=-1.40D-02
 NORM(A)=   0.10616414D+01
 Iteration Nr.   3
 **********************
 DD1Dir will call FoFMem   1 times, MxPair=        42
 NAB=    21 NAA=     0 NBB=     0.
 DE(Corr)= -0.41164744     E(CORR)=     -114.32530932     Delta= 7.34D-05
 NORM(A)=   0.10635342D+01
 Iteration Nr.   4
 **********************
 DD1Dir will call FoFMem   1 times, MxPair=        42
 NAB=    21 NAA=     0 NBB=     0.
 DE(Corr)= -0.41305903     E(CORR)=     -114.32672091     Delta=-1.41D-03
 NORM(A)=   0.10642149D+01
 Iteration Nr.   5
 **********************
 DD1Dir will call FoFMem   1 times, MxPair=        42
 NAB=    21 NAA=     0 NBB=     0.
 DE(Corr)= -0.41324708     E(CORR)=     -114.32690897     Delta=-1.88D-04
 NORM(A)=   0.10644303D+01
 Iteration Nr.   6
 **********************
 DD1Dir will call FoFMem   1 times, MxPair=        42
 NAB=    21 NAA=     0 NBB=     0.
 DE(Corr)= -0.41327311     E(CORR)=     -114.32693499     Delta=-2.60D-05
 NORM(A)=   0.10644558D+01
 Iteration Nr.   7
 **********************
 DD1Dir will call FoFMem   1 times, MxPair=        42
 NAB=    21 NAA=     0 NBB=     0.
 DE(Corr)= -0.41327434     E(CORR)=     -114.32693622     Delta=-1.23D-06
 NORM(A)=   0.10644569D+01
 Iteration Nr.   8
 **********************
 DD1Dir will call FoFMem   1 times, MxPair=        42
 NAB=    21 NAA=     0 NBB=     0.
 DE(Corr)= -0.41327347     E(CORR)=     -114.32693535     Delta= 8.67D-07
 NORM(A)=   0.10644597D+01
 Iteration Nr.   9
 **********************
 DD1Dir will call FoFMem   1 times, MxPair=        42
 NAB=    21 NAA=     0 NBB=     0.
 DE(Corr)= -0.41327234     E(CORR)=     -114.32693422     Delta= 1.13D-06
 NORM(A)=   0.10644600D+01
 Iteration Nr.  10
 **********************
 DD1Dir will call FoFMem   1 times, MxPair=        42
 NAB=    21 NAA=     0 NBB=     0.
 DE(Corr)= -0.41327297     E(CORR)=     -114.32693485     Delta=-6.24D-07
 NORM(A)=   0.10644606D+01
 Iteration Nr.  11
 **********************
 DD1Dir will call FoFMem   1 times, MxPair=        42
 NAB=    21 NAA=     0 NBB=     0.
 DE(Corr)= -0.41327310     E(CORR)=     -114.32693498     Delta=-1.31D-07
 NORM(A)=   0.10644610D+01
 Iteration Nr.  12
 **********************
 DD1Dir will call FoFMem   1 times, MxPair=        42
 NAB=    21 NAA=     0 NBB=     0.
 DE(Corr)= -0.41327325     E(CORR)=     -114.32693513     Delta=-1.56D-07
 NORM(A)=   0.10644612D+01
 Iteration Nr.  13
 **********************
 DD1Dir will call FoFMem   1 times, MxPair=        42
 NAB=    21 NAA=     0 NBB=     0.
 DE(Corr)= -0.41327331     E(CORR)=     -114.32693520     Delta=-6.10D-08
 NORM(A)=   0.10644613D+01
 Iteration Nr.  14
 **********************
 DD1Dir will call FoFMem   1 times, MxPair=        42
 NAB=    21 NAA=     0 NBB=     0.
 DE(Corr)= -0.41327335     E(CORR)=     -114.32693523     Delta=-3.16D-08
 NORM(A)=   0.10644613D+01
 Iteration Nr.  15
 **********************
 DD1Dir will call FoFMem   1 times, MxPair=        42
 NAB=    21 NAA=     0 NBB=     0.
 DE(Corr)= -0.41327335     E(CORR)=     -114.32693523     Delta=-4.97D-09
 NORM(A)=   0.10644613D+01
 Iteration Nr.  16
 **********************
 DD1Dir will call FoFMem   1 times, MxPair=        42
 NAB=    21 NAA=     0 NBB=     0.
 DE(Corr)= -0.41327335     E(CORR)=     -114.32693524     Delta=-3.05D-09
 NORM(A)=   0.10644613D+01
 Largest amplitude= 6.44D-02

 Z-AMPLITUDE ITERATIONS

 Iteration Nr.   1
 **********************
 DD1Dir will call FoFMem   1 times, MxPair=        42
 NAB=    21 NAA=     0 NBB=     0.
 DE(Z)  -0.40122050D+00          E(Z)=    -0.11431488238D+03
 NORM(A)=   0.10644617D+01
 Iteration Nr.   2
 **********************
 DD1Dir will call FoFMem   1 times, MxPair=        42
 NAB=    21 NAA=     0 NBB=     0.
 DE(Z)  -0.40122052D+00          E(Z)=    -0.11431488241D+03
 NORM(A)=   0.10644616D+01
 Iteration Nr.   3
 **********************
 DD1Dir will call FoFMem   1 times, MxPair=        42
 NAB=    21 NAA=     0 NBB=     0.
 DE(Z)  -0.40122052D+00          E(Z)=    -0.11431488240D+03
 NORM(A)=   0.10644612D+01
 Iteration Nr.   4
 **********************
 DD1Dir will call FoFMem   1 times, MxPair=        42
 NAB=    21 NAA=     0 NBB=     0.
 DE(Z)  -0.40122049D+00          E(Z)=    -0.11431488238D+03
 NORM(A)=   0.10644610D+01
 Iteration Nr.   5
 **********************
 DD1Dir will call FoFMem   1 times, MxPair=        42
 NAB=    21 NAA=     0 NBB=     0.
 DE(Z)  -0.40122049D+00          E(Z)=    -0.11431488237D+03
 NORM(A)=   0.10603654D+01
 Iteration Nr.   6
 **********************
 DD1Dir will call FoFMem   1 times, MxPair=        42
 NAB=    21 NAA=     0 NBB=     0.
 DE(Z)  -0.40098641D+00          E(Z)=    -0.11431464829D+03
 NORM(A)=   0.10602752D+01
 Iteration Nr.   7
 **********************
 DD1Dir will call FoFMem   1 times, MxPair=        42
 NAB=    21 NAA=     0 NBB=     0.
 DE(Z)  -0.40104131D+00          E(Z)=    -0.11431470319D+03
 NORM(A)=   0.10603753D+01
 Iteration Nr.   8
 **********************
 DD1Dir will call FoFMem   1 times, MxPair=        42
 NAB=    21 NAA=     0 NBB=     0.
 DE(Z)  -0.40100652D+00          E(Z)=    -0.11431466840D+03
 NORM(A)=   0.10603695D+01
 Iteration Nr.   9
 **********************
 DD1Dir will call FoFMem   1 times, MxPair=        42
 NAB=    21 NAA=     0 NBB=     0.
 DE(Z)  -0.40100547D+00          E(Z)=    -0.11431466735D+03
 NORM(A)=   0.10603676D+01
 Iteration Nr.  10
 **********************
 DD1Dir will call FoFMem   1 times, MxPair=        42
 NAB=    21 NAA=     0 NBB=     0.
 DE(Z)  -0.40100512D+00          E(Z)=    -0.11431466700D+03
 NORM(A)=   0.10603676D+01
 Iteration Nr.  11
 **********************
 DD1Dir will call FoFMem   1 times, MxPair=        42
 NAB=    21 NAA=     0 NBB=     0.
 DE(Z)  -0.40100519D+00          E(Z)=    -0.11431466707D+03
 NORM(A)=   0.10603676D+01
 Iteration Nr.  12
 **********************
 DD1Dir will call FoFMem   1 times, MxPair=        42
 NAB=    21 NAA=     0 NBB=     0.
 DE(Z)  -0.40100514D+00          E(Z)=    -0.11431466702D+03
 NORM(A)=   0.10603676D+01
 Iteration Nr.  13
 **********************
 DD1Dir will call FoFMem   1 times, MxPair=        42
 NAB=    21 NAA=     0 NBB=     0.
 DE(Z)  -0.40100515D+00          E(Z)=    -0.11431466703D+03
 NORM(A)=   0.10603677D+01
 Iteration Nr.  14
 **********************
 DD1Dir will call FoFMem   1 times, MxPair=        42
 NAB=    21 NAA=     0 NBB=     0.
 DE(Z)  -0.40100516D+00          E(Z)=    -0.11431466704D+03
 NORM(A)=   0.10603677D+01
 Discarding MO integrals.
          Differentiating once with respect to electric field.
                with respect to dipole field.
          Electric field/nuclear overlap derivatives assumed to be zero.
          Keep R1 ints in memory in canonical form, NReq=84894547.
          There are     1 degrees of freedom in the 1st order CPHF.  IDoFFX=0.
 LinEq1:  Iter=  0 NonCon=     1 RMS=3.55D-03 Max=5.56D-02
 AX will form     1 AO Fock derivatives at one time.
 LinEq1:  Iter=  1 NonCon=     1 RMS=8.99D-04 Max=8.59D-03
 LinEq1:  Iter=  2 NonCon=     1 RMS=2.36D-04 Max=3.43D-03
 LinEq1:  Iter=  3 NonCon=     1 RMS=1.16D-04 Max=1.21D-03
 LinEq1:  Iter=  4 NonCon=     1 RMS=4.44D-05 Max=5.29D-04
 LinEq1:  Iter=  5 NonCon=     1 RMS=9.22D-06 Max=8.75D-05
 LinEq1:  Iter=  6 NonCon=     1 RMS=1.51D-06 Max=1.75D-05
 LinEq1:  Iter=  7 NonCon=     1 RMS=2.29D-07 Max=1.67D-06
 LinEq1:  Iter=  8 NonCon=     1 RMS=2.63D-08 Max=2.08D-07
 LinEq1:  Iter=  9 NonCon=     1 RMS=3.15D-09 Max=2.52D-08
 LinEq1:  Iter= 10 NonCon=     1 RMS=2.96D-10 Max=2.33D-09
 LinEq1:  Iter= 11 NonCon=     0 RMS=2.71D-11 Max=2.39D-10
 Linear equations converged to 1.000D-10 1.000D-09 after    11 iterations.
 End of Minotr Frequency-dependent properties file   721 does not exist.
 End of Minotr Frequency-dependent properties file   722 does not exist.

 **********************************************************************

            Population analysis using the QCI/CC density.

 **********************************************************************

     Natural Orbital Coefficients:
                           1         2         3         4         5
     Eigenvalues --     2.00001   2.00000   1.98055   1.96677   1.96525
   1 1   O  1S         -0.52498   0.82692  -0.18953   0.07036   0.00364
   2        2S          0.01055  -0.01440   0.48981  -0.19992  -0.01060
   3        3S         -0.02193   0.03553   0.13775  -0.06053  -0.00326
   4        4S          0.00277  -0.00271   0.31038  -0.22378  -0.01331
   5        5S          0.00011  -0.00083   0.04324  -0.03125  -0.00228
   6        6PX         0.00000   0.00000   0.00000   0.00000   0.00000
   7        6PY         0.00000   0.00000  -0.00002  -0.01255   0.27366
   8        6PZ         0.00300  -0.00223  -0.00042  -0.14141  -0.01081
   9        7PX         0.00000   0.00000   0.00000   0.00000   0.00000
  10        7PY         0.00000   0.00000  -0.00001  -0.01548   0.33776
  11        7PZ         0.00201   0.00155  -0.00851  -0.16577  -0.01274
  12        8PX         0.00000   0.00000   0.00000   0.00000   0.00000
  13        8PY        -0.00002  -0.00001  -0.00002  -0.01091   0.24478
  14        8PZ         0.00308   0.00051   0.03918  -0.07787  -0.00609
  15        9PX         0.00000   0.00000   0.00000   0.00000   0.00000
  16        9PY         0.00000   0.00000  -0.00004  -0.00172   0.03753
  17        9PZ         0.00020   0.00005   0.00228  -0.00257  -0.00016
  18       10D 0       -0.00015   0.00015   0.00430   0.00558   0.00044
  19       10D+1        0.00000   0.00000   0.00000   0.00000   0.00000
  20       10D-1        0.00000   0.00000   0.00001   0.00044  -0.00818
  21       10D+2        0.00007  -0.00008   0.00008  -0.00002   0.00000
  22       10D-2        0.00000   0.00000   0.00000   0.00000   0.00000
  23       11D 0       -0.00046  -0.00116   0.01226   0.01023   0.00086
  24       11D+1        0.00000   0.00000   0.00000   0.00000   0.00000
  25       11D-1        0.00000   0.00000   0.00000   0.00114  -0.02157
  26       11D+2        0.00008  -0.00014   0.00064   0.00034   0.00004
  27       11D-2        0.00000   0.00000   0.00000   0.00000   0.00000
  28       12D 0       -0.00067  -0.00030  -0.00886   0.00127   0.00008
  29       12D+1        0.00000   0.00000   0.00000   0.00000   0.00000
  30       12D-1        0.00001   0.00000   0.00003   0.00070  -0.01384
  31       12D+2        0.00027   0.00018  -0.00025   0.00076   0.00007
  32       12D-2        0.00000   0.00000   0.00000   0.00000   0.00000
  33       13F 0       -0.00003   0.00003  -0.00272  -0.00189  -0.00016
  34       13F+1        0.00000   0.00000   0.00000   0.00000   0.00000
  35       13F-1        0.00000   0.00000   0.00000  -0.00026   0.00483
  36       13F+2        0.00005  -0.00001   0.00014  -0.00050  -0.00004
  37       13F-2        0.00000   0.00000   0.00000   0.00000   0.00000
  38       13F+3        0.00000   0.00000   0.00000   0.00000   0.00000
  39       13F-3        0.00000   0.00000   0.00000  -0.00006   0.00126
  40       14F 0        0.00034   0.00041  -0.00115  -0.00053  -0.00009
  41       14F+1        0.00000   0.00000   0.00000   0.00000   0.00000
  42       14F-1        0.00000   0.00000   0.00001  -0.00017   0.00330
  43       14F+2       -0.00002   0.00004  -0.00086  -0.00071  -0.00005
  44       14F-2        0.00000   0.00000   0.00000   0.00000   0.00000
  45       14F+3        0.00000   0.00000   0.00000   0.00000   0.00000
  46       14F-3        0.00000   0.00000   0.00000  -0.00008   0.00143
  47 2   C  1S          0.82851   0.52567  -0.08409  -0.14834  -0.00837
  48        2S         -0.01112  -0.00600   0.20260   0.41361   0.02314
  49        3S          0.03432   0.02188   0.04516   0.09728   0.00539
  50        4S          0.00349   0.00329   0.12369   0.29842   0.01551
  51        5S          0.00182   0.00138   0.00613   0.01616   0.00079
  52        6PX         0.00000   0.00000   0.00000   0.00000   0.00000
  53        6PY         0.00002   0.00001  -0.00044  -0.01209   0.18370
  54        6PZ         0.00093   0.00052   0.04880  -0.04892   0.00008
  55        7PX         0.00000   0.00000   0.00000   0.00000   0.00000
  56        7PY        -0.00007  -0.00002  -0.00124  -0.01607   0.24234
  57        7PZ         0.00061   0.00374   0.01610  -0.07066  -0.00071
  58        8PX         0.00000   0.00000   0.00000   0.00000   0.00000
  59        8PY        -0.00001   0.00001  -0.00090  -0.00636   0.05813
  60        8PZ        -0.00098  -0.00011  -0.03898  -0.05430  -0.00217
  61        9PX         0.00000   0.00000   0.00000   0.00000   0.00000
  62        9PY         0.00000   0.00000   0.00000   0.00064  -0.01522
  63        9PZ        -0.00016   0.00002  -0.00250  -0.00021   0.00000
  64       10D 0        0.00051   0.00069   0.01359   0.00190   0.00031
  65       10D+1        0.00000   0.00000   0.00000   0.00000   0.00000
  66       10D-1        0.00001   0.00000   0.00009  -0.00005   0.00900
  67       10D+2       -0.00043  -0.00021  -0.00307  -0.00941  -0.00045
  68       10D-2        0.00000   0.00000   0.00000   0.00000   0.00000
  69       11D 0       -0.00073   0.00111   0.00279  -0.00156  -0.00014
  70       11D+1        0.00000   0.00000   0.00000   0.00000   0.00000
  71       11D-1        0.00002   0.00000   0.00043   0.00161  -0.00888
  72       11D+2        0.00033   0.00072  -0.01466  -0.02455  -0.00129
  73       11D-2        0.00000   0.00000   0.00000   0.00000   0.00000
  74       12D 0       -0.00044  -0.00135  -0.01723   0.00254   0.00006
  75       12D+1        0.00000   0.00000   0.00000   0.00000   0.00000
  76       12D-1        0.00000  -0.00001   0.00014   0.00166  -0.01662
  77       12D+2       -0.00049  -0.00086  -0.00932  -0.00225   0.00001
  78       12D-2        0.00000   0.00000   0.00000   0.00000   0.00000
  79       13F 0        0.00069   0.00044   0.00549   0.00549   0.00044
  80       13F+1        0.00000   0.00000   0.00000   0.00000   0.00000
  81       13F-1       -0.00001   0.00000  -0.00004  -0.00046   0.00874
  82       13F+2        0.00050   0.00019   0.00362   0.00462   0.00030
  83       13F-2        0.00000   0.00000   0.00000   0.00000   0.00000
  84       13F+3        0.00000   0.00000   0.00000   0.00000   0.00000
  85       13F-3        0.00000   0.00000   0.00000   0.00003  -0.00065
  86       14F 0       -0.00150  -0.00012  -0.00041   0.00359   0.00010
  87       14F+1        0.00000   0.00000   0.00000   0.00000   0.00000
  88       14F-1        0.00001   0.00001  -0.00006  -0.00047   0.00763
  89       14F+2       -0.00087  -0.00035   0.00264   0.00714   0.00030
  90       14F-2        0.00000   0.00000   0.00000   0.00000   0.00000
  91       14F+3        0.00000   0.00000   0.00000   0.00000   0.00000
  92       14F-3        0.00001   0.00000   0.00003   0.00007   0.00033
  93 3   H  1S         -0.00104  -0.00056   0.02471   0.08840   0.07443
  94        2S         -0.00061   0.00040   0.00067   0.08205   0.06624
  95        3S         -0.00340  -0.00267  -0.04359  -0.02795  -0.01144
  96        4S         -0.00026  -0.00016  -0.00174  -0.00236   0.00756
  97        5PX         0.00000   0.00000   0.00000   0.00000   0.00000
  98        5PY         0.00035   0.00015  -0.00123  -0.00752  -0.00545
  99        5PZ        -0.00023  -0.00010   0.00099   0.00352   0.00627
 100        6PX         0.00000   0.00000   0.00000   0.00000   0.00000
 101        6PY         0.00045  -0.00019   0.00920  -0.00040   0.01230
 102        6PZ        -0.00015   0.00032  -0.00903  -0.00449   0.00391
 103        7PX         0.00000   0.00000   0.00000   0.00000   0.00000
 104        7PY         0.00049  -0.00011   0.00657   0.01528   0.00609
 105        7PZ        -0.00065  -0.00098  -0.01752  -0.00627   0.00733
 106        8D 0        0.00007   0.00001   0.00029  -0.00029   0.00177
 107        8D+1        0.00000   0.00000   0.00000   0.00000   0.00000
 108        8D-1        0.00028   0.00013   0.00067  -0.00074  -0.00266
 109        8D+2        0.00019   0.00008   0.00052  -0.00111  -0.00019
 110        8D-2        0.00000   0.00000   0.00000   0.00000   0.00000
 111        9D 0       -0.00023  -0.00003  -0.00182  -0.00122   0.00097
 112        9D+1        0.00000   0.00000   0.00000   0.00000   0.00000
 113        9D-1       -0.00012  -0.00004   0.00377   0.00204   0.00372
 114        9D+2        0.00023  -0.00001   0.00167   0.00148   0.00332
 115        9D-2        0.00000   0.00000   0.00000   0.00000   0.00000
 116 4   H  1S         -0.00108  -0.00058   0.02538   0.09995  -0.06599
 117        2S         -0.00078   0.00034  -0.00045   0.09138  -0.05761
 118        3S         -0.00352  -0.00268  -0.04580  -0.03384   0.00808
 119        4S         -0.00027  -0.00017  -0.00181  -0.00172  -0.00782
 120        5PX         0.00000   0.00000   0.00000   0.00000   0.00000
 121        5PY        -0.00035  -0.00016   0.00126   0.00836  -0.00476
 122        5PZ        -0.00024  -0.00010   0.00103   0.00440  -0.00602
 123        6PX         0.00000   0.00000   0.00000   0.00000   0.00000
 124        6PY        -0.00053   0.00016  -0.00982  -0.00140   0.01241
 125        6PZ        -0.00021   0.00029  -0.00944  -0.00430  -0.00440
 126        7PX         0.00000   0.00000   0.00000   0.00000   0.00000
 127        7PY        -0.00052   0.00012  -0.00699  -0.01733   0.00427
 128        7PZ        -0.00068  -0.00100  -0.01801  -0.00615  -0.00811
 129        8D 0        0.00007   0.00001   0.00031  -0.00010  -0.00180
 130        8D+1        0.00000   0.00000   0.00000   0.00000   0.00000
 131        8D-1       -0.00028  -0.00013  -0.00068   0.00106  -0.00260
 132        8D+2        0.00018   0.00008   0.00053  -0.00116   0.00008
 133        8D-2        0.00000   0.00000   0.00000   0.00000   0.00000
 134        9D 0       -0.00024  -0.00004  -0.00184  -0.00107  -0.00117
 135        9D+1        0.00000   0.00000   0.00000   0.00000   0.00000
 136        9D-1        0.00010   0.00002  -0.00388  -0.00244   0.00347
 137        9D+2        0.00025   0.00000   0.00177   0.00190  -0.00306
 138        9D-2        0.00000   0.00000   0.00000   0.00000   0.00000
                           6         7         8         9        10
     Eigenvalues --     1.96005   1.95654   1.92263   0.06605   0.02835
   1 1   O  1S          0.00457  -0.00070   0.00000   0.00000   0.00276
   2        2S          0.00713   0.00153   0.00000   0.00000  -0.01058
   3        3S          0.00641   0.00037   0.00000   0.00000  -0.00398
   4        4S          0.11586  -0.00095   0.00000   0.00000  -0.01919
   5        5S          0.06260  -0.00143   0.00000   0.00000  -0.01120
   6        6PX         0.00000   0.00000   0.28166  -0.36414   0.00000
   7        6PY         0.00922   0.23713   0.00000   0.00000  -0.39986
   8        6PZ         0.28043  -0.00592   0.00000   0.00000   0.01726
   9        7PX         0.00000   0.00000   0.35446  -0.43363   0.00000
  10        7PY         0.01135   0.29240   0.00000   0.00000  -0.30386
  11        7PZ         0.33872  -0.00721   0.00000   0.00000   0.02026
  12        8PX         0.00000   0.00000   0.23371  -0.08017   0.00000
  13        8PY         0.00894   0.23908   0.00000   0.00000   0.17728
  14        8PZ         0.18268  -0.00405   0.00000   0.00000   0.00123
  15        9PX         0.00000   0.00000   0.02104   0.00298   0.00000
  16        9PY         0.00142   0.04011   0.00000   0.00000   0.09896
  17        9PZ         0.00360  -0.00012   0.00000   0.00000   0.00087
  18       10D 0       -0.01193   0.00025   0.00000   0.00000   0.00094
  19       10D+1        0.00000   0.00000  -0.01005  -0.01303   0.00000
  20       10D-1       -0.00012  -0.00087   0.00000   0.00000  -0.03060
  21       10D+2       -0.00014   0.00001   0.00000   0.00000   0.00049
  22       10D-2        0.00000   0.00000   0.00000   0.00000   0.00000
  23       11D 0       -0.02890   0.00065   0.00000   0.00000  -0.00003
  24       11D+1        0.00000   0.00000  -0.02824  -0.01211   0.00000
  25       11D-1       -0.00028  -0.00203   0.00000   0.00000  -0.03978
  26       11D+2       -0.00103   0.00004   0.00000   0.00000   0.00109
  27       11D-2        0.00000   0.00000  -0.00001  -0.00001   0.00000
  28       12D 0       -0.00688   0.00017   0.00000   0.00000   0.00067
  29       12D+1        0.00000   0.00000  -0.01230   0.01572   0.00000
  30       12D-1       -0.00027  -0.00321   0.00000   0.00000   0.01490
  31       12D+2       -0.00126   0.00001   0.00000   0.00000   0.00045
  32       12D-2        0.00000   0.00000   0.00000  -0.00004   0.00000
  33       13F 0        0.00475  -0.00010   0.00000   0.00000   0.00011
  34       13F+1        0.00000   0.00000   0.00505   0.00443   0.00000
  35       13F-1        0.00006   0.00043   0.00000   0.00000   0.00698
  36       13F+2        0.00118  -0.00003   0.00000   0.00000   0.00001
  37       13F-2        0.00000   0.00000   0.00000   0.00000   0.00000
  38       13F+3        0.00000   0.00000   0.00155  -0.00359   0.00000
  39       13F-3        0.00005   0.00124   0.00000   0.00000  -0.00165
  40       14F 0        0.00649  -0.00017   0.00000   0.00000  -0.00010
  41       14F+1        0.00000   0.00000   0.00347  -0.00358   0.00000
  42       14F-1        0.00007   0.00166   0.00000   0.00000  -0.00200
  43       14F+2        0.00092  -0.00002   0.00000   0.00000  -0.00017
  44       14F-2        0.00000   0.00000   0.00000   0.00002   0.00000
  45       14F+3        0.00000   0.00000   0.00121  -0.00305   0.00000
  46       14F-3        0.00002  -0.00007   0.00000   0.00000  -0.00261
  47 2   C  1S          0.01381   0.00103   0.00000   0.00000  -0.01066
  48        2S         -0.02541  -0.00310   0.00000   0.00000   0.03942
  49        3S         -0.00828  -0.00053   0.00000   0.00000   0.01668
  50        4S          0.11008  -0.00381   0.00000   0.00000   0.01070
  51        5S          0.00024  -0.00007   0.00000   0.00000   0.00320
  52        6PX         0.00000   0.00000   0.18996   0.31097   0.00000
  53        6PY        -0.00257  -0.16612   0.00000   0.00000   0.33569
  54        6PZ        -0.23972   0.00626   0.00000   0.00000   0.00108
  55        7PX         0.00000   0.00000   0.24850   0.48095   0.00000
  56        7PY        -0.00307  -0.23217   0.00000   0.00000   0.64357
  57        7PZ        -0.25457   0.00676   0.00000   0.00000   0.00997
  58        8PX         0.00000   0.00000   0.12373   0.18929   0.00000
  59        8PY        -0.00578  -0.25172   0.00000   0.00000   0.33623
  60        8PZ        -0.08593   0.00236   0.00000   0.00000   0.00939
  61        9PX         0.00000   0.00000   0.00174   0.00329   0.00000
  62        9PY        -0.00072  -0.02269   0.00000   0.00000  -0.03775
  63        9PZ        -0.00183   0.00007   0.00000   0.00000   0.00041
  64       10D 0       -0.01911   0.00053   0.00000   0.00000  -0.00044
  65       10D+1        0.00000   0.00000   0.01987  -0.00024   0.00000
  66       10D-1        0.00101   0.03283   0.00000   0.00000   0.03684
  67       10D+2       -0.00615   0.00025   0.00000   0.00000   0.00035
  68       10D-2        0.00000   0.00000  -0.00002  -0.00006   0.00000
  69       11D 0       -0.01226   0.00051   0.00000   0.00000   0.00136
  70       11D+1        0.00000   0.00000   0.02964   0.03802   0.00000
  71       11D-1        0.00206   0.08269   0.00000   0.00000   0.02714
  72       11D+2       -0.00628   0.00038   0.00000   0.00000   0.00143
  73       11D-2        0.00000   0.00000  -0.00008  -0.00003   0.00000
  74       12D 0        0.00080   0.00017   0.00000   0.00000   0.00254
  75       12D+1        0.00000   0.00000  -0.00398   0.00939   0.00000
  76       12D-1        0.00153   0.06715   0.00000   0.00000   0.03328
  77       12D+2       -0.00573   0.00030   0.00000   0.00000   0.00049
  78       12D-2        0.00000   0.00000  -0.00015  -0.00010   0.00000
  79       13F 0       -0.00728   0.00012   0.00000   0.00000   0.00039
  80       13F+1        0.00000   0.00000   0.00684   0.00922   0.00000
  81       13F-1        0.00025   0.00414   0.00000   0.00000   0.02394
  82       13F+2       -0.00143  -0.00003   0.00000   0.00000   0.00045
  83       13F-2        0.00000   0.00000   0.00000   0.00002   0.00000
  84       13F+3        0.00000   0.00000   0.00022  -0.00117   0.00000
  85       13F-3        0.00005   0.00257   0.00000   0.00000  -0.00405
  86       14F 0        0.01011  -0.00026   0.00000   0.00000   0.00047
  87       14F+1        0.00000   0.00000   0.00465   0.01654   0.00000
  88       14F-1        0.00018   0.00517   0.00000   0.00000   0.10226
  89       14F+2        0.00661  -0.00020   0.00000   0.00000  -0.00034
  90       14F-2        0.00000   0.00000   0.00002   0.00005   0.00000
  91       14F+3        0.00000   0.00000   0.00231   0.00613   0.00000
  92       14F-3        0.00015   0.00574   0.00000   0.00000   0.00540
  93 3   H  1S          0.06909  -0.13882   0.00000   0.00000  -0.16175
  94        2S          0.09736  -0.17719   0.00000   0.00000  -0.57083
  95        3S          0.00803   0.07620   0.00000   0.00000  -0.46944
  96        4S          0.00055   0.00924   0.00000   0.00000   0.00548
  97        5PX         0.00000   0.00000   0.00334   0.01183   0.00000
  98        5PY        -0.00780   0.00715   0.00000   0.00000  -0.00548
  99        5PZ         0.00157  -0.00488   0.00000   0.00000   0.01778
 100        6PX         0.00000   0.00000   0.01018   0.02437   0.00000
 101        6PY        -0.01306  -0.00675   0.00000   0.00000   0.13133
 102        6PZ         0.00176   0.00430   0.00000   0.00000   0.02417
 103        7PX         0.00000   0.00000  -0.00372  -0.00650   0.00000
 104        7PY         0.00319  -0.04227   0.00000   0.00000   0.08629
 105        7PZ        -0.00255   0.01990   0.00000   0.00000  -0.02701
 106        8D 0       -0.00202   0.00052   0.00000   0.00000   0.00947
 107        8D+1        0.00000   0.00000   0.00115   0.00368   0.00000
 108        8D-1       -0.00145   0.00111   0.00000   0.00000  -0.00814
 109        8D+2       -0.00216   0.00083   0.00000   0.00000   0.00424
 110        8D-2        0.00000   0.00000  -0.00126  -0.00594   0.00000
 111        9D 0        0.00365  -0.00261   0.00000   0.00000   0.00958
 112        9D+1        0.00000   0.00000   0.00143   0.00162   0.00000
 113        9D-1        0.00026   0.00010   0.00000   0.00000   0.01688
 114        9D+2       -0.00222  -0.00144   0.00000   0.00000   0.01841
 115        9D-2        0.00000   0.00000   0.00091   0.00347   0.00000
 116 4   H  1S          0.07554   0.13314   0.00000   0.00000   0.13998
 117        2S          0.10571   0.16727   0.00000   0.00000   0.53545
 118        3S          0.00332  -0.07990   0.00000   0.00000   0.46832
 119        4S         -0.00004  -0.00936   0.00000   0.00000  -0.00613
 120        5PX         0.00000   0.00000   0.00342   0.01210   0.00000
 121        5PY         0.00821   0.00659   0.00000   0.00000  -0.00470
 122        5PZ         0.00175   0.00481   0.00000   0.00000  -0.01744
 123        6PX         0.00000   0.00000   0.01015   0.02415   0.00000
 124        6PY         0.01326  -0.00782   0.00000   0.00000   0.13163
 125        6PZ         0.00159  -0.00450   0.00000   0.00000  -0.02229
 126        7PX         0.00000   0.00000  -0.00411  -0.00698   0.00000
 127        7PY        -0.00526  -0.04171   0.00000   0.00000   0.08642
 128        7PZ        -0.00373  -0.01975   0.00000   0.00000   0.03116
 129        8D 0       -0.00213  -0.00039   0.00000   0.00000  -0.00983
 130        8D+1        0.00000   0.00000   0.00118   0.00377   0.00000
 131        8D-1        0.00146   0.00098   0.00000   0.00000  -0.00757
 132        8D+2       -0.00219  -0.00064   0.00000   0.00000  -0.00456
 133        8D-2        0.00000   0.00000   0.00127   0.00597   0.00000
 134        9D 0        0.00382   0.00245   0.00000   0.00000  -0.00887
 135        9D+1        0.00000   0.00000   0.00137   0.00155   0.00000
 136        9D-1       -0.00013   0.00017   0.00000   0.00000   0.01804
 137        9D+2       -0.00226   0.00148   0.00000   0.00000  -0.01765
 138        9D-2        0.00000   0.00000  -0.00103  -0.00376   0.00000
                          11        12        13        14        15
     Eigenvalues --     0.02654   0.02038   0.01205   0.01188   0.00760
   1 1   O  1S         -0.07192  -0.02761   0.01368  -0.23617   0.00030
   2        2S          0.28062   0.11869  -0.04331   0.74213  -0.00070
   3        3S          0.10804   0.05146  -0.03648   0.63174  -0.00077
   4        4S          0.60384   0.40237   0.07524  -1.36886   0.00247
   5        5S          0.36260   0.28330   0.03175  -0.58580   0.00164
   6        6PX         0.00000   0.00000   0.00000   0.00000   0.00000
   7        6PY        -0.02020   0.01498   0.44325   0.02571   0.13750
   8        6PZ        -0.43600  -0.12621  -0.01496   0.26212   0.00015
   9        7PX         0.00000   0.00000   0.00000   0.00000   0.00000
  10        7PY        -0.01492   0.00970   0.19674   0.01124   0.02936
  11        7PZ        -0.52171  -0.18615  -0.00337   0.06778  -0.00001
  12        8PX         0.00000   0.00000   0.00000   0.00000   0.00000
  13        8PY         0.00877  -0.00839  -0.41566  -0.02330  -0.19325
  14        8PZ        -0.10927  -0.18980   0.00897  -0.11943  -0.00091
  15        9PX         0.00000   0.00000   0.00000   0.00000   0.00000
  16        9PY         0.00452  -0.00321  -0.06222  -0.00339  -0.04522
  17        9PZ        -0.03924  -0.05453  -0.00177   0.04115  -0.00041
  18       10D 0       -0.03026  -0.02229  -0.00011   0.00607  -0.00167
  19       10D+1        0.00000   0.00000   0.00000   0.00000   0.00000
  20       10D-1       -0.00157   0.00112  -0.00944  -0.00062  -0.20865
  21       10D+2       -0.01023   0.00237   0.00119  -0.02465  -0.00069
  22       10D-2        0.00000   0.00000   0.00000   0.00000   0.00000
  23       11D 0       -0.01639  -0.03257   0.00225  -0.03092  -0.00390
  24       11D+1        0.00000   0.00000   0.00000   0.00000   0.00000
  25       11D-1       -0.00209   0.00129  -0.07396  -0.00446  -0.51283
  26       11D+2       -0.02070   0.00924  -0.00062   0.00066  -0.00158
  27       11D-2        0.00000   0.00000   0.00000   0.00000   0.00000
  28       12D 0       -0.00134   0.02965   0.00150  -0.02939  -0.00083
  29       12D+1        0.00000   0.00000   0.00000   0.00000   0.00000
  30       12D-1        0.00110  -0.00107  -0.01409  -0.00107  -0.12259
  31       12D+2       -0.00904   0.00171  -0.00071   0.00841  -0.00038
  32       12D-2        0.00000   0.00000   0.00000   0.00000   0.00000
  33       13F 0       -0.00023   0.00442   0.00009  -0.00248   0.00033
  34       13F+1        0.00000   0.00000   0.00000   0.00000   0.00000
  35       13F-1        0.00035  -0.00020   0.01277   0.00076   0.03487
  36       13F+2       -0.00074  -0.00159   0.00004   0.00028   0.00010
  37       13F-2        0.00000   0.00000   0.00000   0.00000   0.00000
  38       13F+3        0.00000   0.00000   0.00000   0.00000   0.00000
  39       13F-3       -0.00007   0.00002  -0.00274  -0.00017  -0.00032
  40       14F 0        0.00811   0.01014  -0.00121   0.01838   0.00072
  41       14F+1        0.00000   0.00000   0.00000   0.00000   0.00000
  42       14F-1       -0.00002  -0.00004   0.00698   0.00036   0.07602
  43       14F+2        0.00052  -0.00553  -0.00029   0.00726   0.00016
  44       14F-2        0.00000   0.00000   0.00000   0.00000   0.00000
  45       14F+3        0.00000   0.00000   0.00000   0.00000   0.00000
  46       14F-3       -0.00017   0.00026   0.01760   0.00103   0.00209
  47 2   C  1S          0.16737  -0.11030   0.00228  -0.00103  -0.00055
  48        2S         -0.62491   0.43442  -0.01321   0.07083   0.00275
  49        3S         -0.26049   0.25006  -0.01107   0.06805   0.00252
  50        4S         -0.21704   0.07532   0.00468  -0.12211   0.00854
  51        5S         -0.10843  -0.09457  -0.00554   0.11270   0.00073
  52        6PX         0.00000   0.00000   0.00000   0.00000   0.00000
  53        6PY         0.01517  -0.00572   0.41187   0.02423  -0.12351
  54        6PZ        -0.23034  -0.40911   0.00627  -0.01540  -0.00406
  55        7PX         0.00000   0.00000   0.00000   0.00000   0.00000
  56        7PY         0.02469  -0.00675   0.78086   0.04793  -0.16413
  57        7PZ        -0.55378  -0.72490   0.00001   0.12631   0.00105
  58        8PX         0.00000   0.00000   0.00000   0.00000   0.00000
  59        8PY         0.01292  -0.00158   0.57576   0.03204   0.07888
  60        8PZ        -0.30142  -0.23557  -0.01270   0.27610  -0.00137
  61        9PX         0.00000   0.00000   0.00000   0.00000   0.00000
  62        9PY        -0.00166   0.00165   0.04930   0.00258   0.00021
  63        9PZ        -0.01352  -0.00801  -0.00105   0.02007  -0.00018
  64       10D 0        0.01761   0.01404  -0.00082   0.01228  -0.00174
  65       10D+1        0.00000   0.00000   0.00000   0.00000   0.00000
  66       10D-1        0.00252  -0.00275  -0.10131  -0.00592   0.24488
  67       10D+2       -0.00561   0.01391   0.00125  -0.02738  -0.00146
  68       10D-2        0.00000   0.00000   0.00000   0.00000   0.00000
  69       11D 0       -0.09063  -0.06980   0.00054  -0.01477  -0.00264
  70       11D+1        0.00000   0.00000   0.00000   0.00000   0.00000
  71       11D-1        0.00485  -0.00859  -0.57148  -0.03417   0.09194
  72       11D+2       -0.07345  -0.03698   0.00016  -0.02091  -0.00338
  73       11D-2        0.00000   0.00000   0.00000   0.00000   0.00000
  74       12D 0       -0.06498  -0.03745  -0.00642   0.10457  -0.00181
  75       12D+1        0.00000   0.00000   0.00000   0.00000   0.00000
  76       12D-1        0.00272  -0.00342  -0.19663  -0.01127  -0.15680
  77       12D+2       -0.02043  -0.02637  -0.00363   0.05765  -0.00122
  78       12D-2        0.00000   0.00000   0.00000   0.00000   0.00000
  79       13F 0       -0.00837  -0.01535   0.00037  -0.00034  -0.00014
  80       13F+1        0.00000   0.00000   0.00000   0.00000   0.00000
  81       13F-1        0.00106  -0.00066  -0.00760  -0.00035   0.00808
  82       13F+2       -0.00022   0.01093   0.00019  -0.00089   0.00015
  83       13F-2        0.00000   0.00000   0.00000   0.00000   0.00000
  84       13F+3        0.00000   0.00000   0.00000   0.00000   0.00000
  85       13F-3        0.00000  -0.00034  -0.02478  -0.00150   0.01755
  86       14F 0       -0.00145  -0.00246   0.00203  -0.03130   0.00070
  87       14F+1        0.00000   0.00000   0.00000   0.00000   0.00000
  88       14F-1        0.00544  -0.00444  -0.12649  -0.00780  -0.08744
  89       14F+2        0.01708   0.01305   0.00092  -0.01396   0.00099
  90       14F-2        0.00000   0.00000   0.00000   0.00000   0.00000
  91       14F+3        0.00000   0.00000   0.00000   0.00000   0.00000
  92       14F-3        0.00058  -0.00112  -0.08810  -0.00518   0.01162
  93 3   H  1S          0.09951  -0.23457  -0.09556   0.05475  -0.12045
  94        2S          0.04829  -0.62006  -0.86838   0.08958   0.06252
  95        3S         -0.10420  -0.19443  -0.74347   0.14697   0.05514
  96        4S          0.00681   0.00656  -0.03585  -0.00769   0.01398
  97        5PX         0.00000   0.00000   0.00000   0.00000   0.00000
  98        5PY        -0.00234  -0.02286  -0.03127  -0.01513   0.06406
  99        5PZ        -0.01132  -0.00891   0.01616   0.00870  -0.01136
 100        6PX         0.00000   0.00000   0.00000   0.00000   0.00000
 101        6PY         0.02869   0.05386   0.13255  -0.03674   0.08063
 102        6PZ        -0.06163  -0.08206  -0.17617   0.01718  -0.01677
 103        7PX         0.00000   0.00000   0.00000   0.00000   0.00000
 104        7PY         0.01988   0.02163   0.15436  -0.00257   0.06023
 105        7PZ        -0.05223  -0.03842  -0.10094   0.09078   0.02643
 106        8D 0       -0.00265  -0.01132  -0.00602  -0.00308   0.01859
 107        8D+1        0.00000   0.00000   0.00000   0.00000   0.00000
 108        8D-1        0.00781  -0.00160  -0.00538  -0.00596   0.00558
 109        8D+2       -0.00002  -0.00967  -0.01108  -0.00766   0.01643
 110        8D-2        0.00000   0.00000   0.00000   0.00000   0.00000
 111        9D 0       -0.00487  -0.00090   0.00805  -0.00638   0.02251
 112        9D+1        0.00000   0.00000   0.00000   0.00000   0.00000
 113        9D-1        0.02012   0.01568   0.01773  -0.01843   0.00994
 114        9D+2        0.00042   0.00876   0.00748  -0.00275   0.01776
 115        9D-2        0.00000   0.00000   0.00000   0.00000   0.00000
 116 4   H  1S          0.11425  -0.24180   0.09297   0.06609   0.12373
 117        2S          0.08915  -0.63230   0.87029   0.19395  -0.07676
 118        3S         -0.06961  -0.20171   0.72847   0.23198  -0.06338
 119        4S          0.00638   0.00824   0.03643  -0.00387  -0.01407
 120        5PX         0.00000   0.00000   0.00000   0.00000   0.00000
 121        5PY         0.00205   0.02355  -0.03416   0.01136   0.06436
 122        5PZ        -0.01320  -0.00792  -0.01786   0.00679   0.01320
 123        6PX         0.00000   0.00000   0.00000   0.00000   0.00000
 124        6PY        -0.01916  -0.05569   0.12586   0.05274   0.07789
 125        6PZ        -0.06729  -0.07610   0.17399   0.03941   0.01757
 126        7PX         0.00000   0.00000   0.00000   0.00000   0.00000
 127        7PY        -0.01384  -0.02114   0.15157   0.01915   0.05910
 128        7PZ        -0.05107  -0.03757   0.08955   0.10298  -0.02940
 129        8D 0       -0.00371  -0.01079   0.00652  -0.00227  -0.01807
 130        8D+1        0.00000   0.00000   0.00000   0.00000   0.00000
 131        8D-1       -0.00880   0.00275  -0.00701   0.00533   0.00625
 132        8D+2       -0.00039  -0.00967   0.01254  -0.00626  -0.01611
 133        8D-2        0.00000   0.00000   0.00000   0.00000   0.00000
 134        9D 0       -0.00571  -0.00079  -0.00732  -0.00717  -0.02271
 135        9D+1        0.00000   0.00000   0.00000   0.00000   0.00000
 136        9D-1       -0.01920  -0.01548   0.01432   0.02098   0.00986
 137        9D+2       -0.00088   0.00893  -0.00679  -0.00368  -0.01848
 138        9D-2        0.00000   0.00000   0.00000   0.00000   0.00000
                          16        17        18        19        20
     Eigenvalues --     0.00748   0.00720   0.00707   0.00700   0.00599
   1 1   O  1S         -0.01327   0.00000   0.00000  -0.02433   0.00000
   2        2S          0.02419   0.00000   0.00000   0.05422   0.00000
   3        3S          0.03648   0.00000   0.00000   0.07442   0.00000
   4        4S         -0.08547   0.00000   0.00000  -0.19322   0.00000
   5        5S          0.11033   0.00000   0.00000  -0.11715   0.00000
   6        6PX         0.00000   0.21150   0.00558   0.00000  -0.45097
   7        6PY         0.00087   0.00000   0.00000  -0.00030   0.00000
   8        6PZ        -0.05960   0.00000   0.00000   0.14213   0.00000
   9        7PX         0.00000   0.09827   0.00258   0.00000  -0.16236
  10        7PY         0.00004   0.00000   0.00000  -0.00021   0.00000
  11        7PZ         0.01375   0.00000   0.00000   0.01934   0.00000
  12        8PX         0.00000  -0.39086  -0.00951   0.00000   0.54015
  13        8PY        -0.00301   0.00000   0.00000   0.00013   0.00000
  14        8PZ         0.20546   0.00000   0.00000  -0.26182   0.00000
  15        9PX         0.00000  -0.08168  -0.00194   0.00000   0.08322
  16        9PY        -0.00073   0.00000   0.00000   0.00066   0.00000
  17        9PZ         0.00121   0.00000   0.00000  -0.01145   0.00000
  18       10D 0        0.20588   0.00000   0.00000  -0.06915   0.00000
  19       10D+1        0.00000  -0.19758  -0.00569   0.00000  -0.09745
  20       10D-1       -0.00203   0.00000   0.00000  -0.00095   0.00000
  21       10D+2        0.04541   0.00000   0.00000   0.16708   0.00000
  22       10D-2        0.00000  -0.00491   0.19676   0.00000  -0.00091
  23       11D 0        0.45202   0.00000   0.00000  -0.15603   0.00000
  24       11D+1        0.00000  -0.46876  -0.01348   0.00000  -0.19065
  25       11D-1       -0.00495   0.00000   0.00000  -0.00211   0.00000
  26       11D+2        0.09104   0.00000   0.00000   0.39485   0.00000
  27       11D-2        0.00000  -0.01093   0.43348   0.00000  -0.00188
  28       12D 0        0.05779   0.00000   0.00000   0.04730   0.00000
  29       12D+1        0.00000  -0.00416  -0.00070   0.00000  -0.07187
  30       12D-1       -0.00074   0.00000   0.00000  -0.00081   0.00000
  31       12D+2        0.01632   0.00000   0.00000   0.10291   0.00000
  32       12D-2        0.00000  -0.00203   0.07629   0.00000  -0.00029
  33       13F 0       -0.03841   0.00000   0.00000   0.01605   0.00000
  34       13F+1        0.00000   0.04902   0.00133   0.00000  -0.00690
  35       13F-1        0.00030   0.00000   0.00000   0.00007   0.00000
  36       13F+2       -0.00588   0.00000   0.00000  -0.02065   0.00000
  37       13F-2        0.00000   0.00065  -0.02456   0.00000   0.00005
  38       13F+3        0.00000  -0.00642  -0.00017   0.00000   0.01596
  39       13F-3        0.00001   0.00000   0.00000   0.00003   0.00000
  40       14F 0       -0.07141   0.00000   0.00000   0.01098   0.00000
  41       14F+1        0.00000   0.05422   0.00161   0.00000   0.02565
  42       14F-1        0.00084   0.00000   0.00000   0.00038   0.00000
  43       14F+2       -0.00696   0.00000   0.00000  -0.05058   0.00000
  44       14F-2        0.00000   0.00124  -0.04632   0.00000   0.00015
  45       14F+3        0.00000   0.00811   0.00031   0.00000  -0.01047
  46       14F-3       -0.00007   0.00000   0.00000  -0.00011   0.00000
  47 2   C  1S         -0.05977   0.00000   0.00000   0.09156   0.00000
  48        2S          0.15436   0.00000   0.00000  -0.28336   0.00000
  49        3S          0.10857   0.00000   0.00000  -0.25399   0.00000
  50        4S          0.11369   0.00000   0.00000  -0.59086   0.00000
  51        5S         -0.01406   0.00000   0.00000  -0.07498   0.00000
  52        6PX         0.00000   0.25666   0.00609   0.00000  -0.19728
  53        6PY        -0.00168   0.00000   0.00000  -0.00056   0.00000
  54        6PZ         0.24709   0.00000   0.00000   0.05251   0.00000
  55        7PX         0.00000   0.14189   0.00447   0.00000  -0.33490
  56        7PY        -0.00836   0.00000   0.00000   0.00404   0.00000
  57        7PZ        -0.25571   0.00000   0.00000   0.20863   0.00000
  58        8PX         0.00000  -0.13701  -0.00284   0.00000   0.09638
  59        8PY         0.00122   0.00000   0.00000   0.00888   0.00000
  60        8PZ        -0.08437   0.00000   0.00000   0.29230   0.00000
  61        9PX         0.00000   0.02414   0.00059   0.00000  -0.01876
  62        9PY         0.00025   0.00000   0.00000  -0.00023   0.00000
  63        9PZ         0.00587   0.00000   0.00000   0.02302   0.00000
  64       10D 0        0.21910   0.00000   0.00000  -0.02873   0.00000
  65       10D+1        0.00000   0.18736   0.00558   0.00000   0.20969
  66       10D-1        0.00285   0.00000   0.00000   0.00065   0.00000
  67       10D+2        0.05839   0.00000   0.00000   0.22230   0.00000
  68       10D-2        0.00000  -0.00686   0.24537   0.00000   0.00062
  69       11D 0        0.15251   0.00000   0.00000   0.03932   0.00000
  70       11D+1        0.00000   0.03337  -0.00027   0.00000   0.30981
  71       11D-1        0.00306   0.00000   0.00000  -0.00244   0.00000
  72       11D+2        0.02457   0.00000   0.00000   0.42081   0.00000
  73       11D-2        0.00000  -0.01041   0.31346   0.00000  -0.00031
  74       12D 0       -0.03192   0.00000   0.00000   0.08286   0.00000
  75       12D+1        0.00000   0.00604  -0.00048   0.00000  -0.04863
  76       12D-1       -0.00126   0.00000   0.00000  -0.00243   0.00000
  77       12D+2       -0.01655   0.00000   0.00000   0.07261   0.00000
  78       12D-2        0.00000  -0.00025   0.00993   0.00000  -0.00085
  79       13F 0        0.05561   0.00000   0.00000  -0.05228   0.00000
  80       13F+1        0.00000   0.04175   0.00112   0.00000  -0.00511
  81       13F-1        0.00007   0.00000   0.00000   0.00046   0.00000
  82       13F+2        0.01777   0.00000   0.00000   0.00140   0.00000
  83       13F-2        0.00000   0.00015   0.00784   0.00000  -0.00043
  84       13F+3        0.00000  -0.00077  -0.00036   0.00000   0.04778
  85       13F-3        0.00039   0.00000   0.00000   0.00007   0.00000
  86       14F 0       -0.04514   0.00000   0.00000  -0.08923   0.00000
  87       14F+1        0.00000  -0.06396  -0.00196   0.00000   0.03596
  88       14F-1        0.00065   0.00000   0.00000   0.00110   0.00000
  89       14F+2       -0.02515   0.00000   0.00000  -0.11014   0.00000
  90       14F-2        0.00000   0.00088  -0.01040   0.00000   0.00029
  91       14F+3        0.00000  -0.05916  -0.00191   0.00000   0.03756
  92       14F-3        0.00070   0.00000   0.00000   0.00050   0.00000
  93 3   H  1S         -0.03557   0.00000   0.00000  -0.09457   0.00000
  94        2S         -0.07784   0.00000   0.00000   0.45758   0.00000
  95        3S         -0.05974   0.00000   0.00000   0.40320   0.00000
  96        4S          0.00018   0.00000   0.00000   0.01381   0.00000
  97        5PX         0.00000  -0.02044   0.06848   0.00000  -0.06290
  98        5PY         0.00188   0.00000   0.00000   0.03320   0.00000
  99        5PZ        -0.05589   0.00000   0.00000  -0.04807   0.00000
 100        6PX         0.00000  -0.14969   0.11238   0.00000  -0.04326
 101        6PY         0.05540   0.00000   0.00000  -0.06996   0.00000
 102        6PZ        -0.14524   0.00000   0.00000   0.00382   0.00000
 103        7PX         0.00000  -0.05075   0.00206   0.00000  -0.00040
 104        7PY         0.01958   0.00000   0.00000  -0.04851   0.00000
 105        7PZ        -0.07065   0.00000   0.00000   0.06305   0.00000
 106        8D 0       -0.01300   0.00000   0.00000  -0.01517   0.00000
 107        8D+1        0.00000  -0.00436   0.02535   0.00000  -0.01109
 108        8D-1        0.02860   0.00000   0.00000   0.01487   0.00000
 109        8D+2       -0.00023   0.00000   0.00000   0.01075   0.00000
 110        8D-2        0.00000   0.01762  -0.03782   0.00000   0.03272
 111        9D 0       -0.02121   0.00000   0.00000  -0.01325   0.00000
 112        9D+1        0.00000  -0.05557   0.00023   0.00000   0.03420
 113        9D-1        0.02756   0.00000   0.00000  -0.00868   0.00000
 114        9D+2        0.02227   0.00000   0.00000   0.01964   0.00000
 115        9D-2        0.00000   0.02911  -0.00451   0.00000  -0.01359
 116 4   H  1S         -0.03335   0.00000   0.00000  -0.09454   0.00000
 117        2S         -0.09103   0.00000   0.00000   0.47383   0.00000
 118        3S         -0.06439   0.00000   0.00000   0.42646   0.00000
 119        4S          0.00009   0.00000   0.00000   0.01402   0.00000
 120        5PX         0.00000  -0.01660  -0.07045   0.00000  -0.06451
 121        5PY         0.00011   0.00000   0.00000  -0.03221   0.00000
 122        5PZ        -0.05614   0.00000   0.00000  -0.04840   0.00000
 123        6PX         0.00000  -0.14503  -0.12030   0.00000  -0.04361
 124        6PY        -0.05744   0.00000   0.00000   0.07517   0.00000
 125        6PZ        -0.14906   0.00000   0.00000   0.00679   0.00000
 126        7PX         0.00000  -0.05088  -0.00549   0.00000  -0.00171
 127        7PY        -0.01878   0.00000   0.00000   0.05440   0.00000
 128        7PZ        -0.07227   0.00000   0.00000   0.06630   0.00000
 129        8D 0       -0.01360   0.00000   0.00000  -0.01575   0.00000
 130        8D+1        0.00000  -0.00288  -0.02591   0.00000  -0.01142
 131        8D-1       -0.02856   0.00000   0.00000  -0.01421   0.00000
 132        8D+2       -0.00072   0.00000   0.00000   0.01031   0.00000
 133        8D-2        0.00000  -0.01550  -0.03867   0.00000  -0.03320
 134        9D 0       -0.02223   0.00000   0.00000  -0.01393   0.00000
 135        9D+1        0.00000  -0.05642  -0.00340   0.00000   0.03441
 136        9D-1       -0.02813   0.00000   0.00000   0.00980   0.00000
 137        9D+2        0.02242   0.00000   0.00000   0.01866   0.00000
 138        9D-2        0.00000  -0.02890  -0.00655   0.00000   0.01340
                          21        22        23        24        25
     Eigenvalues --     0.00519   0.00484   0.00336   0.00283   0.00252
   1 1   O  1S         -0.00834   0.00000   0.00031   0.11763   0.00000
   2        2S          0.01995   0.00000  -0.00103  -0.33076   0.00000
   3        3S          0.00533   0.00000  -0.00082  -0.37520   0.00000
   4        4S          0.38977   0.00000  -0.00225  -0.28247   0.00000
   5        5S          0.12943   0.00000  -0.00164  -0.50607   0.00000
   6        6PX         0.00000  -0.00241   0.00000   0.00000  -0.14893
   7        6PY         0.00117   0.00000   0.19083  -0.00038   0.00000
   8        6PZ        -0.20238   0.00000   0.00209   0.36550   0.00000
   9        7PX         0.00000  -0.00067   0.00000   0.00000   0.03650
  10        7PY         0.00037   0.00000  -0.04416   0.00013   0.00000
  11        7PZ        -0.04824   0.00000   0.00018   0.08588   0.00000
  12        8PX         0.00000   0.00150   0.00000   0.00000  -0.40961
  13        8PY         0.00123   0.00000  -0.71671   0.00197   0.00000
  14        8PZ         0.01455   0.00000  -0.00218  -0.24503   0.00000
  15        9PX         0.00000   0.00000   0.00000   0.00000  -0.06563
  16        9PY        -0.00039   0.00000  -0.04348  -0.00059   0.00000
  17        9PZ        -0.01801   0.00000   0.00041   0.06497   0.00000
  18       10D 0        0.06028   0.00000  -0.00020  -0.17109   0.00000
  19       10D+1        0.00000   0.00055   0.00000   0.00000   0.33014
  20       10D-1        0.00052   0.00000   0.30105  -0.00103   0.00000
  21       10D+2        0.25996   0.00000   0.00036   0.08075   0.00000
  22       10D-2        0.00000   0.27408   0.00000   0.00000  -0.00084
  23       11D 0        0.13401   0.00000  -0.00077  -0.34772   0.00000
  24       11D+1        0.00000   0.00150   0.00000   0.00000   0.55300
  25       11D-1        0.00062   0.00000   0.46187  -0.00135   0.00000
  26       11D+2        0.50758   0.00000   0.00042   0.06093   0.00000
  27       11D-2        0.00000   0.51431   0.00000   0.00000  -0.00114
  28       12D 0        0.02203   0.00000   0.00086   0.03807   0.00000
  29       12D+1        0.00000   0.00061   0.00000   0.00000   0.18827
  30       12D-1       -0.00038   0.00000   0.17784  -0.00003   0.00000
  31       12D+2        0.07430   0.00000   0.00017  -0.07700   0.00000
  32       12D-2        0.00000   0.09788   0.00000   0.00000  -0.00037
  33       13F 0       -0.01206   0.00000   0.00014   0.00765   0.00000
  34       13F+1        0.00000  -0.00015   0.00000   0.00000   0.03172
  35       13F-1        0.00010   0.00000   0.00437   0.00004   0.00000
  36       13F+2       -0.01252   0.00000  -0.00001  -0.00053   0.00000
  37       13F-2        0.00000  -0.00027   0.00000   0.00000  -0.00019
  38       13F+3        0.00000   0.00007   0.00000   0.00000  -0.01046
  39       13F-3       -0.00005   0.00000  -0.00137  -0.00004   0.00000
  40       14F 0       -0.01113   0.00000   0.00003   0.02247   0.00000
  41       14F+1        0.00000  -0.00025   0.00000   0.00000  -0.02278
  42       14F-1       -0.00011   0.00000  -0.01987  -0.00005   0.00000
  43       14F+2       -0.03479   0.00000   0.00006   0.03899   0.00000
  44       14F-2        0.00000  -0.02465   0.00000   0.00000  -0.00006
  45       14F+3        0.00000  -0.00012   0.00000   0.00000  -0.01602
  46       14F-3        0.00013   0.00000  -0.00247   0.00007   0.00000
  47 2   C  1S         -0.03698   0.00000  -0.00007  -0.04267   0.00000
  48        2S          0.12532   0.00000  -0.00070   0.16767   0.00000
  49        3S          0.11737   0.00000  -0.00049   0.15784   0.00000
  50        4S         -0.24401   0.00000  -0.00045  -0.22540   0.00000
  51        5S         -0.07982   0.00000   0.00208   0.04949   0.00000
  52        6PX         0.00000   0.00025   0.00000   0.00000   0.51084
  53        6PY         0.00132   0.00000   0.12309   0.00025   0.00000
  54        6PZ        -0.15128   0.00000   0.00102   0.23739   0.00000
  55        7PX         0.00000  -0.00117   0.00000   0.00000   0.40773
  56        7PY         0.00097   0.00000   0.31160  -0.00363   0.00000
  57        7PZ        -0.26387   0.00000  -0.00067   0.16413   0.00000
  58        8PX         0.00000  -0.00036   0.00000   0.00000   0.14256
  59        8PY        -0.00953   0.00000   1.49600  -0.01284   0.00000
  60        8PZ        -0.09722   0.00000   0.00365   0.71117   0.00000
  61        9PX         0.00000   0.00007   0.00000   0.00000   0.01433
  62        9PY         0.00025   0.00000   0.02520   0.00027   0.00000
  63        9PZ        -0.00360   0.00000  -0.00022   0.03455   0.00000
  64       10D 0       -0.08296   0.00000   0.00220   0.28318   0.00000
  65       10D+1        0.00000  -0.00024   0.00000   0.00000   0.18010
  66       10D-1       -0.00019   0.00000   0.09335   0.00009   0.00000
  67       10D+2       -0.11476   0.00000   0.00041  -0.05317   0.00000
  68       10D-2        0.00000  -0.20497   0.00000   0.00000   0.00193
  69       11D 0       -0.21798   0.00000   0.00110   0.52776   0.00000
  70       11D+1        0.00000   0.00281   0.00000   0.00000   0.37595
  71       11D-1        0.00001   0.00000   0.28846  -0.00011   0.00000
  72       11D+2       -0.24571   0.00000  -0.00239  -0.10533   0.00000
  73       11D-2        0.00000  -0.26089   0.00000   0.00000   0.00012
  74       12D 0       -0.00900   0.00000  -0.00074   0.24455   0.00000
  75       12D+1        0.00000   0.00070   0.00000   0.00000   0.03782
  76       12D-1        0.00215   0.00000  -0.16111   0.00349   0.00000
  77       12D+2        0.03617   0.00000  -0.00192   0.15880   0.00000
  78       12D-2        0.00000   0.04329   0.00000   0.00000  -0.00033
  79       13F 0        0.06619   0.00000  -0.00076  -0.03607   0.00000
  80       13F+1        0.00000   0.00017   0.00000   0.00000  -0.00650
  81       13F-1       -0.00078   0.00000  -0.22393   0.00082   0.00000
  82       13F+2        0.09248   0.00000   0.00018   0.07332   0.00000
  83       13F-2        0.00000   0.10293   0.00000   0.00000   0.00015
  84       13F+3        0.00000   0.00058   0.00000   0.00000   0.03843
  85       13F-3       -0.00039   0.00000  -0.00249   0.00013   0.00000
  86       14F 0        0.05378   0.00000   0.00068   0.18108   0.00000
  87       14F+1        0.00000   0.00059   0.00000   0.00000   0.09184
  88       14F-1       -0.00262   0.00000   0.01733   0.00019   0.00000
  89       14F+2        0.07777   0.00000   0.00049   0.10912   0.00000
  90       14F-2        0.00000   0.00876   0.00000   0.00000   0.00107
  91       14F+3        0.00000   0.00063   0.00000   0.00000   0.00362
  92       14F-3       -0.00090   0.00000   0.00443  -0.00017   0.00000
  93 3   H  1S          0.16209   0.00000  -0.29220   0.23901   0.00000
  94        2S         -0.23403   0.00000  -0.14980  -0.07677   0.00000
  95        3S         -0.09398   0.00000  -1.10063   0.31406   0.00000
  96        4S          0.00652   0.00000  -0.01434   0.00200   0.00000
  97        5PX         0.00000  -0.09142   0.00000   0.00000  -0.08887
  98        5PY        -0.01692   0.00000   0.10395  -0.10192   0.00000
  99        5PZ         0.06518   0.00000   0.01707  -0.04071   0.00000
 100        6PX         0.00000  -0.20222   0.00000   0.00000  -0.23483
 101        6PY         0.07003   0.00000   0.15710  -0.07485   0.00000
 102        6PZ         0.03463   0.00000   0.06811  -0.12070   0.00000
 103        7PX         0.00000  -0.06488   0.00000   0.00000  -0.07100
 104        7PY         0.03514   0.00000   0.33370   0.01209   0.00000
 105        7PZ         0.00444   0.00000  -0.17273   0.10772   0.00000
 106        8D 0        0.02073   0.00000   0.00772  -0.03405   0.00000
 107        8D+1        0.00000  -0.02924   0.00000   0.00000  -0.01998
 108        8D-1       -0.02301   0.00000   0.01820   0.00900   0.00000
 109        8D+2       -0.00289   0.00000   0.02715  -0.04754   0.00000
 110        8D-2        0.00000   0.04234   0.00000   0.00000   0.04487
 111        9D 0        0.00127   0.00000   0.01540   0.02238   0.00000
 112        9D+1        0.00000   0.00145   0.00000   0.00000  -0.01686
 113        9D-1        0.00530   0.00000   0.00317   0.02278   0.00000
 114        9D+2       -0.01325   0.00000   0.03167  -0.01389   0.00000
 115        9D-2        0.00000   0.02184   0.00000   0.00000   0.03769
 116 4   H  1S          0.16146   0.00000   0.29729   0.23903   0.00000
 117        2S         -0.24044   0.00000   0.13736  -0.09021   0.00000
 118        3S         -0.11171   0.00000   1.10800   0.29024   0.00000
 119        4S          0.00704   0.00000   0.01391   0.00222   0.00000
 120        5PX         0.00000   0.09179   0.00000   0.00000  -0.09069
 121        5PY         0.01563   0.00000   0.10445   0.10249   0.00000
 122        5PZ         0.06546   0.00000  -0.01666  -0.04109   0.00000
 123        6PX         0.00000   0.20078   0.00000   0.00000  -0.23711
 124        6PY        -0.07244   0.00000   0.15285   0.07101   0.00000
 125        6PZ         0.03542   0.00000  -0.06891  -0.12243   0.00000
 126        7PX         0.00000   0.06531   0.00000   0.00000  -0.07170
 127        7PY        -0.04088   0.00000   0.33232  -0.02224   0.00000
 128        7PZ         0.00292   0.00000   0.17366   0.10657   0.00000
 129        8D 0        0.02131   0.00000  -0.00725  -0.03437   0.00000
 130        8D+1        0.00000   0.02947   0.00000   0.00000  -0.02054
 131        8D-1        0.02279   0.00000   0.01845  -0.00903   0.00000
 132        8D+2       -0.00274   0.00000  -0.02680  -0.04746   0.00000
 133        8D-2        0.00000   0.04173   0.00000   0.00000  -0.04531
 134        9D 0        0.00213   0.00000  -0.01525   0.02316   0.00000
 135        9D+1        0.00000  -0.00112   0.00000   0.00000  -0.01708
 136        9D-1       -0.00522   0.00000   0.00359  -0.02413   0.00000
 137        9D+2       -0.01294   0.00000  -0.03157  -0.01307   0.00000
 138        9D-2        0.00000   0.02177   0.00000   0.00000  -0.03813
                          26        27        28        29        30
     Eigenvalues --     0.00213   0.00163   0.00139   0.00132   0.00107
   1 1   O  1S         -0.00029   0.00933   0.05012  -0.00111   0.00000
   2        2S          0.00064  -0.03178  -0.28134   0.00888   0.00000
   3        3S          0.00088  -0.02806  -0.27621   0.00791   0.00000
   4        4S         -0.00510  -0.04333   0.20045  -0.00423   0.00000
   5        5S          0.00139   0.15693  -0.46864   0.01737   0.00000
   6        6PX         0.00000   0.00000   0.00000   0.00000  -0.02526
   7        6PY        -0.29308   0.00252  -0.01587  -0.45413   0.00000
   8        6PZ        -0.00039   0.23422   0.14160  -0.00140   0.00000
   9        7PX         0.00000   0.00000   0.00000   0.00000   0.02051
  10        7PY         0.13681  -0.00228   0.01580   0.47849   0.00000
  11        7PZ        -0.00013  -0.16803   0.12737  -0.00590   0.00000
  12        8PX         0.00000   0.00000   0.00000   0.00000   0.01253
  13        8PY        -0.23126   0.00224  -0.00063  -0.09442   0.00000
  14        8PZ         0.00509  -0.26200  -1.02682   0.03258   0.00000
  15        9PX         0.00000   0.00000   0.00000   0.00000  -0.00320
  16        9PY        -0.04345   0.00107  -0.00607  -0.19420   0.00000
  17        9PZ        -0.00006  -0.01710   0.05292  -0.00183   0.00000
  18       10D 0       -0.00171   0.19007   0.39818  -0.01092   0.00000
  19       10D+1        0.00000   0.00000   0.00000   0.00000  -0.00858
  20       10D-1        0.05354  -0.00231   0.00482   0.16512   0.00000
  21       10D+2        0.00120   0.25961  -0.08878   0.00579   0.00000
  22       10D-2        0.00000   0.00000   0.00000   0.00000  -0.34461
  23       11D 0       -0.00193   0.17817   0.35297  -0.01077   0.00000
  24       11D+1        0.00000   0.00000   0.00000   0.00000  -0.00467
  25       11D-1        0.21278  -0.00304   0.00698   0.19148   0.00000
  26       11D+2        0.00158   0.24740  -0.16110   0.00751   0.00000
  27       11D-2        0.00000   0.00000   0.00000   0.00000  -0.21625
  28       12D 0       -0.00070   0.04458   0.22687  -0.00842   0.00000
  29       12D+1        0.00000   0.00000   0.00000   0.00000   0.00428
  30       12D-1        0.14156  -0.00161   0.00301   0.09860   0.00000
  31       12D+2        0.00036  -0.02874  -0.06627   0.00167   0.00000
  32       12D-2        0.00000   0.00000   0.00000   0.00000   0.08884
  33       13F 0       -0.00029   0.07488   0.13943  -0.00351   0.00000
  34       13F+1        0.00000   0.00000   0.00000   0.00000  -0.00257
  35       13F-1       -0.00487  -0.00141   0.00459   0.15585   0.00000
  36       13F+2        0.00032   0.06403  -0.05165   0.00277   0.00000
  37       13F-2        0.00000   0.00000   0.00000   0.00000  -0.21106
  38       13F+3        0.00000   0.00000   0.00000   0.00000   0.00062
  39       13F-3        0.01242   0.00020  -0.00022  -0.01154   0.00000
  40       14F 0       -0.00029   0.01708   0.05932  -0.00116   0.00000
  41       14F+1        0.00000   0.00000   0.00000   0.00000  -0.00359
  42       14F-1       -0.05125  -0.00023   0.00079   0.04626   0.00000
  43       14F+2        0.00031   0.04721  -0.01367   0.00096   0.00000
  44       14F-2        0.00000   0.00000   0.00000   0.00000  -0.13900
  45       14F+3        0.00000   0.00000   0.00000   0.00000  -0.00047
  46       14F-3       -0.01726   0.00009  -0.00039  -0.01257   0.00000
  47 2   C  1S         -0.00064   0.07292   0.15252  -0.00695   0.00000
  48        2S          0.00065  -0.28162  -0.49615   0.02289   0.00000
  49        3S          0.00143  -0.36433  -0.68070   0.02924   0.00000
  50        4S          0.01226   1.26549  -1.27979   0.04708   0.00000
  51        5S          0.00221   0.05504  -0.08579   0.00106   0.00000
  52        6PX         0.00000   0.00000   0.00000   0.00000   0.00564
  53        6PY         0.29911  -0.00476   0.00858   0.15753   0.00000
  54        6PZ         0.00234  -0.24981  -0.49709   0.00604   0.00000
  55        7PX         0.00000   0.00000   0.00000   0.00000   0.00449
  56        7PY         0.32319  -0.00716   0.02390   0.39818   0.00000
  57        7PZ         0.00117  -0.07240   0.11563  -0.00024   0.00000
  58        8PX         0.00000   0.00000   0.00000   0.00000  -0.01553
  59        8PY         1.44329   0.00550  -0.03396  -1.25167   0.00000
  60        8PZ        -0.00146  -0.30372   0.86586  -0.03070   0.00000
  61        9PX         0.00000   0.00000   0.00000   0.00000   0.00218
  62        9PY         0.04493  -0.00055   0.00131   0.03584   0.00000
  63        9PZ         0.00007  -0.01817  -0.00690   0.00033   0.00000
  64       10D 0       -0.00283   0.11486   0.12267   0.00014   0.00000
  65       10D+1        0.00000   0.00000   0.00000   0.00000  -0.01187
  66       10D-1       -0.03101  -0.00554   0.01524   0.53622   0.00000
  67       10D+2       -0.00386  -0.30294   0.22640  -0.00815   0.00000
  68       10D-2        0.00000   0.00000   0.00000   0.00000   0.26326
  69       11D 0        0.00078   0.16547   0.25497  -0.01003   0.00000
  70       11D+1        0.00000   0.00000   0.00000   0.00000  -0.00953
  71       11D-1        0.07889   0.00015  -0.00512  -0.02362   0.00000
  72       11D+2       -0.00420  -0.47964   0.26362  -0.01402   0.00000
  73       11D-2        0.00000   0.00000   0.00000   0.00000   0.36004
  74       12D 0       -0.00384   0.04582   0.48561  -0.01550   0.00000
  75       12D+1        0.00000   0.00000   0.00000   0.00000  -0.00154
  76       12D-1       -0.42245  -0.00167   0.00203   0.10920   0.00000
  77       12D+2       -0.00380  -0.04683   0.31125  -0.00853   0.00000
  78       12D-2        0.00000   0.00000   0.00000   0.00000   0.00787
  79       13F 0        0.00095  -0.12358   0.01993  -0.00235   0.00000
  80       13F+1        0.00000   0.00000   0.00000   0.00000   0.00846
  81       13F-1        0.24768  -0.00061   0.00432   0.07181   0.00000
  82       13F+2        0.00055  -0.18978   0.09745  -0.00656   0.00000
  83       13F-2        0.00000   0.00000   0.00000   0.00000   0.38742
  84       13F+3        0.00000   0.00000   0.00000   0.00000  -0.00353
  85       13F-3        0.13605   0.00069  -0.00233  -0.10559   0.00000
  86       14F 0        0.00007  -0.07541   0.10849  -0.00412   0.00000
  87       14F+1        0.00000   0.00000   0.00000   0.00000   0.00513
  88       14F-1        0.15449  -0.00079   0.00166   0.05742   0.00000
  89       14F+2        0.00019  -0.07699   0.06573  -0.00350   0.00000
  90       14F-2        0.00000   0.00000   0.00000   0.00000   0.14954
  91       14F+3        0.00000   0.00000   0.00000   0.00000   0.00020
  92       14F-3        0.02577   0.00017  -0.00112  -0.04292   0.00000
  93 3   H  1S         -0.38029  -0.26693   0.22657   0.29145   0.00000
  94        2S         -0.26550  -0.26639   0.26560  -0.12600   0.00000
  95        3S         -1.14337  -0.28766   0.80106   0.83600   0.00000
  96        4S         -0.01877  -0.00947   0.01027  -0.00688   0.00000
  97        5PX         0.00000   0.00000   0.00000   0.00000  -0.10957
  98        5PY         0.02368   0.01941  -0.05069   0.03421   0.00000
  99        5PZ        -0.15724   0.02099  -0.00777   0.02800   0.00000
 100        6PX         0.00000   0.00000   0.00000   0.00000  -0.28731
 101        6PY        -0.02122   0.05136  -0.08579   0.30545   0.00000
 102        6PZ        -0.30755   0.00712   0.09135  -0.08518   0.00000
 103        7PX         0.00000   0.00000   0.00000   0.00000  -0.05860
 104        7PY         0.30241   0.09407   0.01184  -0.12807   0.00000
 105        7PZ        -0.20035  -0.03794   0.36355   0.05268   0.00000
 106        8D 0       -0.03181   0.01841  -0.02131   0.03487   0.00000
 107        8D+1        0.00000   0.00000   0.00000   0.00000  -0.00457
 108        8D-1        0.05185   0.00975  -0.01402  -0.02101   0.00000
 109        8D+2        0.00707   0.00096  -0.03041   0.01526   0.00000
 110        8D-2        0.00000   0.00000   0.00000   0.00000   0.02615
 111        9D 0       -0.03004  -0.01423   0.02395   0.01152   0.00000
 112        9D+1        0.00000   0.00000   0.00000   0.00000  -0.02252
 113        9D-1        0.03644  -0.01385  -0.03462   0.03076   0.00000
 114        9D+2       -0.00220  -0.00358   0.01166   0.04968   0.00000
 115        9D-2        0.00000   0.00000   0.00000   0.00000   0.04992
 116 4   H  1S          0.38113  -0.26331   0.21381  -0.31313   0.00000
 117        2S          0.25161  -0.27092   0.28959   0.11133   0.00000
 118        3S          1.14003  -0.29319   0.76207  -0.89373   0.00000
 119        4S          0.01863  -0.01066   0.01145   0.00668   0.00000
 120        5PX         0.00000   0.00000   0.00000   0.00000   0.11582
 121        5PY         0.02245  -0.02015   0.05372   0.02744   0.00000
 122        5PZ         0.15899   0.02015  -0.00686  -0.02951   0.00000
 123        6PX         0.00000   0.00000   0.00000   0.00000   0.28226
 124        6PY        -0.02592  -0.05707   0.10964   0.28885   0.00000
 125        6PZ         0.30284   0.00194   0.10781   0.07369   0.00000
 126        7PX         0.00000   0.00000   0.00000   0.00000   0.05139
 127        7PY         0.29956  -0.09530  -0.02136  -0.13111   0.00000
 128        7PZ         0.19405  -0.04028   0.36703  -0.08010   0.00000
 129        8D 0        0.03250   0.01889  -0.02314  -0.03321   0.00000
 130        8D+1        0.00000   0.00000   0.00000   0.00000   0.00515
 131        8D-1        0.05135  -0.01075   0.01474  -0.02410   0.00000
 132        8D+2       -0.00649   0.00149  -0.03215  -0.01158   0.00000
 133        8D-2        0.00000   0.00000   0.00000   0.00000   0.02918
 134        9D 0        0.02941  -0.01466   0.02434  -0.01276   0.00000
 135        9D+1        0.00000   0.00000   0.00000   0.00000   0.02178
 136        9D-1        0.03594   0.01366   0.03835   0.02622   0.00000
 137        9D+2        0.00193  -0.00270   0.00777  -0.04833   0.00000
 138        9D-2        0.00000   0.00000   0.00000   0.00000   0.04301
                          31        32        33        34        35
     Eigenvalues --     0.00105   0.00087   0.00087   0.00080   0.00065
   1 1   O  1S          0.00000   0.00000   0.04830   0.00095   0.25952
   2        2S          0.00000   0.00000   0.00206  -0.00072   0.20889
   3        3S          0.00000   0.00000  -0.11828  -0.00289  -0.69362
   4        4S          0.00000   0.00000   0.10714  -0.00098  -0.14191
   5        5S          0.00000   0.00000   0.12887   0.00215  -0.63904
   6        6PX         0.73088  -0.00825   0.00000   0.00000   0.00000
   7        6PY         0.00000   0.00000  -0.00237   0.70432   0.00672
   8        6PZ         0.00000   0.00000   0.23447   0.00570  -0.73258
   9        7PX        -0.63857  -0.04059   0.00000   0.00000   0.00000
  10        7PY         0.00000   0.00000   0.00532  -1.11274  -0.01017
  11        7PZ         0.00000   0.00000  -0.20857  -0.00483   1.21350
  12        8PX        -0.16924   0.44243   0.00000   0.00000   0.00000
  13        8PY         0.00000   0.00000   0.01603  -0.44310   0.00912
  14        8PZ         0.00000   0.00000   0.18734   0.00490  -0.62321
  15        9PX         0.10921   0.03625   0.00000   0.00000   0.00000
  16        9PY         0.00000   0.00000  -0.00001   0.17323   0.00301
  17        9PZ         0.00000   0.00000   0.02873   0.00044  -0.12990
  18       10D 0        0.00000   0.00000  -0.04840  -0.00013  -0.10774
  19       10D+1        0.13648  -0.24759   0.00000   0.00000   0.00000
  20       10D-1        0.00000   0.00000  -0.00969   0.21509  -0.00757
  21       10D+2        0.00000   0.00000   0.00934   0.00114   0.15636
  22       10D-2       -0.01184   0.00596   0.00000   0.00000   0.00000
  23       11D 0        0.00000   0.00000  -0.07300  -0.00051  -0.05772
  24       11D+1        0.05719  -0.15201   0.00000   0.00000   0.00000
[...]
   6        6PX         0.01450   0.00000   0.00000   0.00000   0.00000
   7        6PY         0.00000  -0.00034   0.00221   0.00431   0.00025
   8        6PZ         0.00000   0.02269   0.00202   0.00016  -0.01671
   9        7PX        -0.06176   0.00000   0.00000   0.00000   0.00000
  10        7PY         0.00000  -0.00168   0.02416   0.04128  -0.00080
  11        7PZ         0.00000  -0.13118  -0.00853  -0.00080   0.03596
  12        8PX         0.41633   0.00000   0.00000   0.00000   0.00000
  13        8PY         0.00000  -0.28509   3.15846   2.47061   0.09704
  14        8PZ         0.00000   3.61301   0.32147   0.05001   0.84982
  15        9PX        -0.66336   0.00000   0.00000   0.00000   0.00000
  16        9PY         0.00000   0.05993  -0.87305   0.11993   0.00480
  17        9PZ         0.00000   5.48731   0.46004   0.04037  -0.36685
  18       10D 0        0.00000  -0.02923  -0.00252  -0.00025   0.00936
  19       10D+1        0.00550   0.00000   0.00000   0.00000   0.00000
  20       10D-1        0.00000  -0.00088   0.01084   0.00786   0.00007
  21       10D+2        0.00000   0.03462   0.00271   0.00035   0.00759
  22       10D-2        0.00037   0.00000   0.00000   0.00000   0.00000
  23       11D 0        0.00000   0.05088   0.00455  -0.00052  -0.05430
  24       11D+1       -0.06122   0.00000   0.00000   0.00000   0.00000
  25       11D-1        0.00000   0.00672  -0.07194  -0.10461  -0.00166
  26       11D+2        0.00000  -0.13089  -0.01030  -0.00132  -0.02805
  27       11D-2       -0.00112   0.00000   0.00000   0.00000   0.00000
  28       12D 0        0.00000  -1.72967  -0.13759  -0.02856  -0.46021
  29       12D+1       -0.08206   0.00000   0.00000   0.00000   0.00000
  30       12D-1        0.00000   0.13440  -1.48524  -1.09203  -0.04194
  31       12D+2        0.00000   0.28761   0.02553   0.00559  -0.02385
  32       12D-2        0.00611   0.00000   0.00000   0.00000   0.00000
  33       13F 0        0.00000  -0.00515   0.00003  -0.00049  -0.00844
  34       13F+1       -0.00683   0.00000   0.00000   0.00000   0.00000
  35       13F-1        0.00000   0.00352  -0.04167  -0.02392  -0.00058
  36       13F+2        0.00000   0.00455   0.00039   0.00014  -0.00368
  37       13F-2        0.00004   0.00000   0.00000   0.00000   0.00000
  38       13F+3        0.01986   0.00000   0.00000   0.00000   0.00000
  39       13F-3        0.00000  -0.00128   0.01276   0.01148   0.00002
  40       14F 0        0.00000   0.13021   0.00802   0.00312   0.08269
  41       14F+1        0.07967   0.00000   0.00000   0.00000   0.00000
  42       14F-1        0.00000  -0.01503   0.16487   0.12805   0.00355
  43       14F+2        0.00000  -0.01563  -0.00116  -0.00060   0.00331
  44       14F-2       -0.00091   0.00000   0.00000   0.00000   0.00000
  45       14F+3       -0.03096   0.00000   0.00000   0.00000   0.00000
  46       14F-3        0.00000   0.00285  -0.02854  -0.01356  -0.00023
  47 2   C  1S          0.00000   0.08255   0.00587  -0.00249   0.19789
  48        2S          0.00000   0.45735   0.03148  -0.01486   1.19342
  49        3S          0.00000  -0.08061  -0.00711  -0.00094  -0.00327
  50        4S          0.00000   5.63807   0.51662  -0.02116  25.14561
  51        5S          0.00000   7.91808   0.52868   0.04516  10.32316
  52        6PX         0.00403   0.00000   0.00000   0.00000   0.00000
  53        6PY         0.00000  -0.00316   0.02881  -0.00560   0.00093
  54        6PZ         0.00000   0.00425  -0.00066  -0.00012   0.03658
  55        7PX         0.02351   0.00000   0.00000   0.00000   0.00000
  56        7PY         0.00000   0.15791  -1.79484   1.36306  -0.09303
  57        7PZ         0.00000   0.67149   0.05216   0.03229  -1.01620
  58        8PX         3.98056   0.00000   0.00000   0.00000   0.00000
  59        8PY         0.00000   1.24995 -16.24222   8.15340  -0.61067
  60        8PZ         0.00000  -2.68253  -0.06570  -0.06229  -9.43560
  61        9PX         2.24993   0.00000   0.00000   0.00000   0.00000
  62        9PY         0.00000  -0.18023   1.57527   5.30999  -0.02435
  63        9PZ         0.00000  -2.28887  -0.14393  -0.03774  -2.06996
  64       10D 0        0.00000  -0.05584  -0.00580  -0.00028   0.02167
  65       10D+1        0.01546   0.00000   0.00000   0.00000   0.00000
  66       10D-1        0.00000  -0.00189   0.01309  -0.02026   0.00290
  67       10D+2        0.00000   0.02072   0.00243   0.00062  -0.05154
  68       10D-2        0.00084   0.00000   0.00000   0.00000   0.00000
  69       11D 0        0.00000   0.70073   0.08115   0.01327   0.14542
  70       11D+1       -0.37486   0.00000   0.00000   0.00000   0.00000
  71       11D-1        0.00000  -0.10847   1.37827  -1.23869   0.05290
  72       11D+2        0.00000  -0.28599  -0.01623   0.01503  -0.91328
  73       11D-2       -0.00499   0.00000   0.00000   0.00000   0.00000
  74       12D 0        0.00000   1.40103   0.04372  -0.04996   1.78359
  75       12D+1       -1.40843   0.00000   0.00000   0.00000   0.00000
  76       12D-1        0.00000  -0.16513   2.44730  -2.38677   0.05047
  77       12D+2        0.00000   0.31959   0.00173  -0.02883  -0.23749
  78       12D-2       -0.03109   0.00000   0.00000   0.00000   0.00000
  79       13F 0        0.00000   0.02016   0.00141   0.00045   0.02556
  80       13F+1       -0.03910   0.00000   0.00000   0.00000   0.00000
  81       13F-1        0.00000  -0.00415   0.04870   0.02041   0.00059
  82       13F+2        0.00000   0.01180   0.00113  -0.00076   0.04431
  83       13F-2       -0.00086   0.00000   0.00000   0.00000   0.00000
  84       13F+3        0.10554   0.00000   0.00000   0.00000   0.00000
  85       13F-3        0.00000  -0.00691   0.07364  -0.01646   0.00172
  86       14F 0        0.00000  -0.05922   0.00020  -0.01143   0.17519
  87       14F+1        0.05770   0.00000   0.00000   0.00000   0.00000
  88       14F-1        0.00000   0.17516  -1.98463  -1.18887  -0.05079
  89       14F+2        0.00000   0.42237   0.02867  -0.00330   0.44989
  90       14F-2       -0.00113   0.00000   0.00000   0.00000   0.00000
  91       14F+3       -0.32466   0.00000   0.00000   0.00000   0.00000
  92       14F-3        0.00000   0.02357  -0.23903  -0.33852   0.00051
  93 3   H  1S          0.00000   0.02528  -0.06558  -0.01223   0.04350
  94        2S          0.00000  -1.67879   2.79470  -1.55842  -2.64681
  95        3S          0.00000  -0.29181  25.54054 -13.95403 -13.72120
  96        4S          0.00000  -0.95372  -1.76370  -4.62802  -1.62079
  97        5PX        -0.08506   0.00000   0.00000   0.00000   0.00000
  98        5PY         0.00000   0.01113   0.11966  -0.07322  -0.09552
  99        5PZ         0.00000  -0.02156   0.02945   0.10533   0.03328
 100        6PX        -0.02119   0.00000   0.00000   0.00000   0.00000
 101        6PY         0.00000   0.33827  -2.11301   0.70813   1.43336
 102        6PZ         0.00000   0.32972  -0.45168  -1.43711  -0.59494
 103        7PX        -3.02623   0.00000   0.00000   0.00000   0.00000
 104        7PY         0.00000   0.66948  -9.17497   1.82643   4.52151
 105        7PZ         0.00000   4.03400   1.73588  -2.88636   0.12511
 106        8D 0        0.00000  -0.06122   0.04889   0.02814  -0.02477
 107        8D+1        0.02511   0.00000   0.00000   0.00000   0.00000
 108        8D-1        0.00000   0.06334  -0.10281   0.00521   0.05959
 109        8D+2        0.00000   0.03838   0.05622   0.04288   0.04136
 110        8D-2       -0.06645   0.00000   0.00000   0.00000   0.00000
 111        9D 0        0.00000   0.69416  -1.16381  -0.49620   0.40461
 112        9D+1       -0.23033   0.00000   0.00000   0.00000   0.00000
 113        9D-1        0.00000  -0.84749   0.24531   0.77033   0.14671
 114        9D+2        0.00000  -0.04931  -1.20845  -0.13930   0.41625
 115        9D-2        0.51919   0.00000   0.00000   0.00000   0.00000
 116 4   H  1S          0.00000   0.01184   0.06737   0.01080   0.04853
 117        2S          0.00000  -1.19535  -3.08322   1.64220  -2.94126
 118        3S          0.00000   3.54545 -25.13944  13.90357 -15.62608
 119        4S          0.00000  -1.34902   1.61505   4.60752  -1.68405
 120        5PX        -0.08353   0.00000   0.00000   0.00000   0.00000
 121        5PY         0.00000  -0.03017   0.11002  -0.07069   0.09884
 122        5PZ         0.00000  -0.01580  -0.03603  -0.10596   0.03159
 123        6PX        -0.02893   0.00000   0.00000   0.00000   0.00000
 124        6PY         0.00000   0.02385  -2.10759   0.71380  -1.57039
 125        6PZ         0.00000   0.24511   0.51434   1.47891  -0.61171
 126        7PX        -3.11987   0.00000   0.00000   0.00000   0.00000
 127        7PY         0.00000   0.75595  -8.97982   1.79188  -5.08575
 128        7PZ         0.00000   4.26325  -1.20274   2.90772  -0.07950
 129        8D 0        0.00000  -0.05257  -0.05719  -0.03016  -0.02560
 130        8D+1        0.02774   0.00000   0.00000   0.00000   0.00000
 131        8D-1        0.00000  -0.04245  -0.10963   0.00829  -0.06772
 132        8D+2        0.00000   0.04457  -0.04950  -0.04443   0.04286
 133        8D-2        0.06833   0.00000   0.00000   0.00000   0.00000
 134        9D 0        0.00000   0.49171   1.24339   0.51925   0.44494
 135        9D+1       -0.24402   0.00000   0.00000   0.00000   0.00000
 136        9D-1        0.00000   0.79004   0.37046   0.77508  -0.14572
 137        9D+2        0.00000  -0.24439   1.14986   0.14691   0.46820
 138        9D-2       -0.52757   0.00000   0.00000   0.00000   0.00000
                         136       137       138
     Eigenvalues --     0.00000   0.00000   0.00000
   1 1   O  1S         -0.06118   0.00046   0.00959
   2        2S         -0.29567   0.00234   0.05222
   3        3S          0.03836  -0.00018   0.00098
   4        4S          4.43302  -0.03818  -1.09572
   5        5S         13.11642  -0.15655  -6.81332
   6        6PX         0.00000   0.00000   0.00000
   7        6PY        -0.00012  -0.00502  -0.00001
   8        6PZ        -0.00473   0.00007   0.00542
   9        7PX         0.00000   0.00000   0.00000
  10        7PY         0.00031   0.01273  -0.00007
  11        7PZ        -0.07857  -0.00027  -0.03053
  12        8PX         0.00000   0.00000   0.00000
  13        8PY        -0.01781  -1.48090  -0.00400
  14        8PZ        -1.41319   0.01865   0.89942
  15        9PX         0.00000   0.00000   0.00000
  16        9PY         0.00836  -1.54896   0.00981
  17        9PZ        -1.08111   0.02108   1.43511
  18       10D 0       -0.01643   0.00017   0.00147
  19       10D+1        0.00000   0.00000   0.00000
  20       10D-1        0.00000   0.00226  -0.00003
  21       10D+2        0.00379   0.00002  -0.00166
  22       10D-2        0.00000   0.00000   0.00000
  23       11D 0        0.11030  -0.00075  -0.00608
  24       11D+1        0.00000   0.00000   0.00000
  25       11D-1        0.00029   0.01644   0.00029
  26       11D+2       -0.01280  -0.00016   0.00416
  27       11D-2        0.00000   0.00000   0.00000
  28       12D 0       -0.07888  -0.00268  -0.20289
  29       12D+1        0.00000   0.00000   0.00000
  30       12D-1        0.00582   0.58388   0.00140
  31       12D+2        0.31990  -0.00148  -0.04105
  32       12D-2        0.00000   0.00000   0.00000
  33       13F 0       -0.00810  -0.00012  -0.00404
  34       13F+1        0.00000   0.00000   0.00000
  35       13F-1        0.00008   0.00489   0.00006
  36       13F+2        0.01294  -0.00010  -0.00222
  37       13F-2        0.00000   0.00000   0.00000
  38       13F+3        0.00000   0.00000   0.00000
  39       13F-3       -0.00007   0.00518  -0.00002
  40       14F 0        0.01497   0.00068   0.01775
  41       14F+1        0.00000   0.00000   0.00000
  42       14F-1       -0.00019  -0.02911  -0.00025
  43       14F+2       -0.06140   0.00039   0.01082
  44       14F-2        0.00000   0.00000   0.00000
  45       14F+3        0.00000   0.00000   0.00000
  46       14F-3        0.00011  -0.01505  -0.00002
  47 2   C  1S         -0.03858   0.00044   0.00458
  48        2S         -0.21905   0.00338   0.03222
  49        3S          0.11689   0.00018   0.02749
  50        4S         -5.38584   0.14134  10.03392
  51        5S         -4.19337   0.21944  13.51066
  52        6PX         0.00000   0.00000   0.00000
  53        6PY         0.00002   0.01424   0.00006
  54        6PZ        -0.02389   0.00000   0.00207
  55        7PX         0.00000   0.00000   0.00000
  56        7PY         0.00801  -0.00752  -0.00433
  57        7PZ         0.22665  -0.00284   0.01462
  58        8PX         0.00000   0.00000   0.00000
  59        8PY         0.03875   7.54150  -0.04643
  60        8PZ        -1.47312  -0.01274  -0.03138
  61        9PX         0.00000   0.00000   0.00000
  62        9PY        -0.03758   5.55499  -0.07602
  63        9PZ        -2.32150   0.00313  -0.22643
  64       10D 0        0.01415  -0.00002  -0.00403
  65       10D+1        0.00000   0.00000   0.00000
  66       10D-1       -0.00057   0.01387   0.00007
  67       10D+2       -0.00553  -0.00038  -0.00761
  68       10D-2        0.00000   0.00000   0.00000
  69       11D 0       -0.79749   0.00231   0.13157
  70       11D+1        0.00000   0.00000   0.00000
  71       11D-1       -0.00432   0.18216   0.00411
  72       11D+2        0.20176  -0.00577  -0.04970
  73       11D-2        0.00000   0.00000   0.00000
  74       12D 0       -6.04355   0.04287   0.71961
  75       12D+1        0.00000   0.00000   0.00000
  76       12D-1        0.00452   0.73947   0.00644
  77       12D+2       -2.83375  -0.00432  -0.30119
  78       12D-2        0.00000   0.00000   0.00000
  79       13F 0       -0.03737  -0.00021  -0.00913
  80       13F+1        0.00000   0.00000   0.00000
  81       13F-1       -0.00033  -0.01935  -0.00006
  82       13F+2       -0.01640  -0.00002  -0.00162
  83       13F-2        0.00000   0.00000   0.00000
  84       13F+3        0.00000   0.00000   0.00000
  85       13F-3       -0.00027   0.01797   0.00006
  86       14F 0       -0.17362   0.00470   0.06816
  87       14F+1        0.00000   0.00000   0.00000
  88       14F-1        0.00916   0.53774   0.00146
  89       14F+2       -0.34422   0.00461   0.05485
  90       14F-2        0.00000   0.00000   0.00000
  91       14F+3        0.00000   0.00000   0.00000
  92       14F-3        0.00059   0.03681   0.00076
  93 3   H  1S         -0.01650  -0.00898  -0.00344
  94        2S          0.98901   0.08844  -0.17985
  95        3S         -3.64474 -11.37822  -5.18797
  96        4S         -0.27676  -8.36362  -2.94428
  97        5PX         0.00000   0.00000   0.00000
  98        5PY         0.00455  -0.03106  -0.01302
  99        5PZ         0.04038  -0.00198   0.00573
 100        6PX         0.00000   0.00000   0.00000
 101        6PY        -0.43063   0.27553   0.18810
 102        6PZ        -0.18453   0.18171  -0.08481
 103        7PX         0.00000   0.00000   0.00000
 104        7PY        -2.07661   3.68079   1.54429
 105        7PZ        -3.84887  -2.50905  -0.60671
 106        8D 0        0.01071   0.00701   0.00166
 107        8D+1        0.00000   0.00000   0.00000
 108        8D-1       -0.04795  -0.02491  -0.00849
 109        8D+2        0.01127  -0.04218  -0.00443
 110        8D-2        0.00000   0.00000   0.00000
 111        9D 0       -0.30861   0.08208   0.04465
 112        9D+1        0.00000   0.00000   0.00000
 113        9D-1        0.29585   0.08732   0.11221
 114        9D+2       -0.29340   0.35504   0.11391
 115        9D-2        0.00000   0.00000   0.00000
 116 4   H  1S         -0.01651   0.00881  -0.00319
 117        2S          1.02217  -0.11647  -0.19659
 118        3S         -3.39892  11.25790  -5.42379
 119        4S         -0.32440   8.28275  -3.21536
 120        5PX         0.00000   0.00000   0.00000
 121        5PY        -0.00374  -0.03023   0.01305
 122        5PZ         0.04125   0.00204   0.00586
 123        6PX         0.00000   0.00000   0.00000
 124        6PY         0.44395   0.26035  -0.19371
 125        6PZ        -0.19076  -0.18964  -0.09088
 126        7PX         0.00000   0.00000   0.00000
 127        7PY         2.25282   3.59103  -1.59383
 128        7PZ        -3.86993   2.55555  -0.64802
 129        8D 0        0.01106  -0.00739   0.00182
 130        8D+1        0.00000   0.00000   0.00000
 131        8D-1        0.04796  -0.02510   0.00820
 132        8D+2        0.01236   0.04179  -0.00435
 133        8D-2        0.00000   0.00000   0.00000
 134        9D 0       -0.31908  -0.07411   0.04317
 135        9D+1        0.00000   0.00000   0.00000
 136        9D-1       -0.29488   0.08721  -0.11558
 137        9D+2       -0.30928  -0.34593   0.11521
 138        9D-2        0.00000   0.00000   0.00000
          Condensed to atoms (all electrons):
              1          2          3          4
     1  O    8.190458   0.349785  -0.061643  -0.062910
     2  C    0.349785   5.708418   0.212752   0.206427
     3  H   -0.061643   0.212752   0.437534  -0.029718
     4  H   -0.062910   0.206427  -0.029718   0.434204
 Mulliken atomic charges:
              1
     1  O   -0.415691
     2  C   -0.477382
     3  H    0.441075
     4  H    0.451998
 Sum of Mulliken atomic charges =   0.00000
 Mulliken charges with hydrogens summed into heavy atoms:
              1
     1  O   -0.415691
     2  C    0.415691
 Sum of Mulliken charges with hydrogens summed into heavy atoms =   0.00000
 Electronic spatial extent (au):  <R**2>=             60.7142
 Charge=              0.0000 electrons
 Dipole moment (field-independent basis, Debye):
    X=              0.0000    Y=             -0.0076    Z=             -2.4355  Tot=              2.4355
 Quadrupole moment (field-independent basis, Debye-Ang):
   XX=            -11.7481   YY=            -11.6149   ZZ=            -12.2878
   XY=              0.0000   XZ=              0.0000   YZ=              0.0129
 Traceless Quadrupole moment (field-independent basis, Debye-Ang):
   XX=              0.1355   YY=              0.2687   ZZ=             -0.4042
   XY=              0.0000   XZ=              0.0000   YZ=              0.0129
 Octapole moment (field-independent basis, Debye-Ang**2):
  XXX=              0.0000  YYY=             -0.0391  ZZZ=              0.3584  XYY=              0.0000
  XXY=             -0.0198  XXZ=              0.5937  XZZ=              0.0000  YZZ=             -0.0312
  YYZ=             -0.7058  XYZ=              0.0000
 Hexadecapole moment (field-independent basis, Debye-Ang**3):
 XXXX=            -10.5346 YYYY=            -18.3379 ZZZZ=            -46.3403 XXXY=              0.0000
 XXXZ=              0.0000 YYYX=              0.0000 YYYZ=              0.0531 ZZZX=              0.0000
 ZZZY=              0.0833 XXYY=             -5.1809 XXZZ=             -9.4122 YYZZ=            -10.4720
 XXYZ=              0.0247 YYXZ=              0.0000 ZZXY=              0.0000
 N-N= 3.127655383077D+01 E-N=-3.312968861007D+02  KE= 1.142201999297D+02
 1\1\GINC-TRAPISTA\SP\RQCISD-FC\Aug-CC-pVTZ\C1H2O1\BRUNS\20-Nov-2021\0\
 \# qcisd/aug-cc-pvtz nosymm density=current output=wfn\\h2co-wavefunct
 ion\\0,1\O,0,0.,0.,0.679252\C,0,0.,0.,-0.526911\H,0,0.,0.946614,-1.106
 62\H,0,0.,-0.936614,-1.10662\\Version=EM64L-G09RevB.01\HF=-113.9136619
 \MP2=-114.3162922\MP3=-114.3202926\MP4D=-114.3305385\MP4DQ=-114.321655
 1\MP4SDQ=-114.3269296\QCISD=-114.3269352\RMSD=2.903e-09\Dipole=0.,-0.0
 029894,-0.9581998\Quadrupole=0.1007565,0.1997387,-0.3004953,0.,0.,0.00
 96275\PG=CS [SG(C1H2O1)]\\@

 Writing a WFN file to GAUSSIAN.wfn.


 I SUPPOSE A BABY LLAMA HAS A MMAMA AND A PPOPA.
     -- RICHARD AMOUR
 Job cpu time:  0 days  0 hours 24 minutes 34.1 seconds.
 File lengths (MBytes):  RWF=   5787 Int=      0 D2E=      0 Chk=      2 Scr=      1
 Normal termination of Gaussian 09 at Sat Nov 20 18:22:31 2021.
