 Entering Gaussian System, Link 0=/home/bruns/programas/chemistry/gaussian/g09/g09
 Input=GAUSSIAN.com
 Output=GAUSSIAN.log
 Initial command:
 /home/bruns/programas/chemistry/gaussian/g09/l1.exe /home/bruns/programas/chemistry/gaussian/work/Gau-71879.inp -scrdir=/home/bruns/programas/chemistry/gaussian/work/
 Entering Link 1 = /home/bruns/programas/chemistry/gaussian/g09/l1.exe PID=     71881.
  
 Copyright (c) 1988,1990,1992,1993,1995,1998,2003,2009,2010,
            Gaussian, Inc.  All Rights Reserved.
  
 This is part of the Gaussian(R) 09 program.  It is based on
 the Gaussian(R) 03 system (copyright 2003, Gaussian, Inc.),
 the Gaussian(R) 98 system (copyright 1998, Gaussian, Inc.),
 the Gaussian(R) 94 system (copyright 1995, Gaussian, Inc.),
 the Gaussian 92(TM) system (copyright 1992, Gaussian, Inc.),
 the Gaussian 90(TM) system (copyright 1990, Gaussian, Inc.),
 the Gaussian 88(TM) system (copyright 1988, Gaussian, Inc.),
 the Gaussian 86(TM) system (copyright 1986, Carnegie Mellon
 University), and the Gaussian 82(TM) system (copyright 1983,
 Carnegie Mellon University). Gaussian is a federally registered
 trademark of Gaussian, Inc.
  
 This software contains proprietary and confidential information,
 including trade secrets, belonging to Gaussian, Inc.
  
 This software is provided under written license and may be
 used, copied, transmitted, or stored only in accord with that
 written license.
  
 The following legend is applicable only to US Government
 contracts under FAR:
  
                    RESTRICTED RIGHTS LEGEND
  
 Use, reproduction and disclosure by the US Government is
 subject to restrictions as set forth in subparagraphs (a)
 and (c) of the Commercial Computer Software - Restricted
 Rights clause in FAR 52.227-19.
  
 Gaussian, Inc.
 340 Quinnipiac St., Bldg. 40, Wallingford CT 06492
  
  
 ---------------------------------------------------------------
 Warning -- This program may not be used in any manner that
 competes with the business of Gaussian, Inc. or will provide
 assistance to any competitor of Gaussian, Inc.  The licensee
 of this program is prohibited from giving any competitor of
 Gaussian, Inc. access to this program.  By using this program,
 the user acknowledges that Gaussian, Inc. is engaged in the
 business of creating and licensing software in the field of
 computational chemistry and represents and warrants to the
 licensee that it is not a competitor of Gaussian, Inc. and that
 it will not use this program in any manner prohibited above.
 ---------------------------------------------------------------
  

 Cite this work as:
 Gaussian 09, Revision B.01,
 M. J. Frisch, G. W. Trucks, H. B. Schlegel, G. E. Scuseria, 
 M. A. Robb, J. R. Cheeseman, G. Scalmani, V. Barone, B. Mennucci, 
 G. A. Petersson, H. Nakatsuji, M. Caricato, X. Li, H. P. Hratchian, 
 A. F. Izmaylov, J. Bloino, G. Zheng, J. L. Sonnenberg, M. Hada, 
 M. Ehara, K. Toyota, R. Fukuda, J. Hasegawa, M. Ishida, T. Nakajima, 
 Y. Honda, O. Kitao, H. Nakai, T. Vreven, J. A. Montgomery, Jr., 
 J. E. Peralta, F. Ogliaro, M. Bearpark, J. J. Heyd, E. Brothers, 
 K. N. Kudin, V. N. Staroverov, T. Keith, R. Kobayashi, J. Normand, 
 K. Raghavachari, A. Rendell, J. C. Burant, S. S. Iyengar, J. Tomasi, 
 M. Cossi, N. Rega, J. M. Millam, M. Klene, J. E. Knox, J. B. Cross, 
 V. Bakken, C. Adamo, J. Jaramillo, R. Gomperts, R. E. Stratmann, 
 O. Yazyev, A. J. Austin, R. Cammi, C. Pomelli, J. W. Ochterski, 
 R. L. Martin, K. Morokuma, V. G. Zakrzewski, G. A. Voth, 
 P. Salvador, J. J. Dannenberg, S. Dapprich, A. D. Daniels, 
 O. Farkas, J. B. Foresman, J. V. Ortiz, J. Cioslowski, 
 and D. J. Fox, Gaussian, Inc., Wallingford CT, 2010.
 
 ******************************************
 Gaussian 09:  EM64L-G09RevB.01 12-Aug-2010
                20-Nov-2021 
 ******************************************
 %nproc=8
 Will use up to    8 processors via shared memory.
 %mem=8GB
 -----------------------------------------------------
 # qcisd/aug-cc-pvtz nosymm density=current output=wfn
 -----------------------------------------------------
 1/30=1,38=1/1;
 2/12=2,15=1,17=6,18=5,40=1/2;
 3/5=16,6=1,7=10,11=9,16=1,25=1,30=1,71=1/1,2,3;
 4//1;
 5/5=2,38=5/2;
 8/6=4,9=120000,10=1/1,4;
 9/5=8,15=1/13;
 11/28=-7,31=1,32=3,42=3/11;
 10/5=6,13=10,31=1/2;
 6/7=2,8=2,9=2,10=2,22=-1,31=1/1;
 99/5=1,6=1100,9=1/99;
 -----------------
 h2co-wavefunction
 -----------------
 Symbolic Z-matrix:
 Charge =  0 Multiplicity = 1
 O                     0.        0.        0.67925 
 C                     0.        0.       -0.52691 
 H                     0.        0.93661  -1.10662 
 H                     0.       -0.93661  -1.10662 
 
                          Input orientation:                          
 ---------------------------------------------------------------------
 Center     Atomic      Atomic             Coordinates (Angstroms)
 Number     Number       Type             X           Y           Z
 ---------------------------------------------------------------------
      1          8           0        0.000000    0.000000    0.679252
      2          6           0        0.000000    0.000000   -0.526911
      3          1           0        0.000000    0.936614   -1.106620
      4          1           0        0.000000   -0.936614   -1.106620
 ---------------------------------------------------------------------
                    Distance matrix (angstroms):
                    1          2          3          4
     1  O    0.000000
     2  C    1.206163   0.000000
     3  H    2.016577   1.101503   0.000000
     4  H    2.016577   1.101503   1.873228   0.000000
 Symmetry turned off by external request.
 Stoichiometry    CH2O
 Framework group  C2V[C2(CO),SGV(H2)]
 Deg. of freedom     3
 Full point group                 C2V     NOp   4
 Rotational constants (GHZ):    285.8122027     38.8698822     34.2165065
 Standard basis: Aug-CC-pVTZ (5D, 7F)
 Integral buffers will be    131072 words long.
 Raffenetti 1 integral format.
 Two-electron integral symmetry is turned off.
   138 basis functions,   198 primitive gaussians,   160 cartesian basis functions
     8 alpha electrons        8 beta electrons
       nuclear repulsion energy        31.3050110403 Hartrees.
 NAtoms=    4 NActive=    4 NUniq=    4 SFac= 1.00D+00 NAtFMM=   50 NAOKFM=F Big=F
 One-electron integrals computed using PRISM.
 NBasis=   138 RedAO= T  NBF=   138
 NBsUse=   138 1.00D-06 NBFU=   138
 Harris functional with IExCor=  205 diagonalized for initial guess.
 ExpMin= 2.53D-02 ExpMax= 1.53D+04 ExpMxC= 5.22D+02 IAcc=3 IRadAn=         0 AccDes= 0.00D+00
 HarFok:  IExCor=  205 AccDes= 0.00D+00 IRadAn=         0 IDoV= 1
 ScaDFX=  1.000000  1.000000  1.000000  1.000000
 FoFCou: FMM=F IPFlag=           0 FMFlag=      100000 FMFlg1=           0
         NFxFlg=           0 DoJE=T BraDBF=F KetDBF=T FulRan=T
         Omega=  0.000000  0.000000  1.000000  0.000000  0.000000 ICntrl=     500 IOpCl=  0
         NMat0=    1 NMatS0=    1 NMatT0=    0 NMatD0=    1 NMtDS0=    0 NMtDT0=    0
         I1Cent=           4 NGrid=           0.
 Symmetry not used in FoFCou.
 Requested convergence on RMS density matrix=1.00D-08 within 128 cycles.
 Requested convergence on MAX density matrix=1.00D-06.
 Requested convergence on             energy=1.00D-06.
 No special actions if energy rises.
 Keep R1 ints in memory in canonical form, NReq=85137408.
 SCF Done:  E(RHF) =  -113.913826411     A.U. after   11 cycles
             Convg  =    0.2900D-08             -V/T =  2.0018
 ExpMin= 2.53D-02 ExpMax= 1.53D+04 ExpMxC= 5.22D+02 IAcc=3 IRadAn=         5 AccDes= 0.00D+00
 HarFok:  IExCor=  205 AccDes= 0.00D+00 IRadAn=         5 IDoV=-2
 ScaDFX=  1.000000  1.000000  1.000000  1.000000
 DSYEVD returned Info=          93 IAlg= 4 N=    46 NDim=    46 NE2=    23340785 trying DSYEV.
 DSYEVD returned Info=          93 IAlg= 4 N=    46 NDim=    46 NE2=    23340785 trying DSYEV.
 Range of M.O.s used for correlation:     3   138
 NBasis=   138 NAE=     8 NBE=     8 NFC=     2 NFV=     0
 NROrb=    136 NOA=     6 NOB=     6 NVA=   130 NVB=   130

 **** Warning!!: The largest alpha MO coefficient is  0.33810154D+02

 Semi-Direct transformation.
 ModeAB=           2 MOrb=             6 LenV=    1073118443
 LASXX=      7286295 LTotXX=     7286295 LenRXX=     7286295
 LTotAB=     7445736 MaxLAS=    10510080 LenRXY=    10510080
 NonZer=    14572590 LenScr=    22628352 LnRSAI=           0
 LnScr1=           0 LExtra=           0 Total=     40424727
 MaxDsk=          -1 SrtSym=           F ITran=            4
 JobTyp=0 Pass  1:  I=   1 to   6.
 (rs|ai) integrals will be sorted in core.
 Spin components of T(2) and E(2):
     alpha-alpha T2 =       0.1376070564D-01 E2=     -0.4804183287D-01
     alpha-beta  T2 =       0.8505465295D-01 E2=     -0.3064344908D+00
     beta-beta   T2 =       0.1376070564D-01 E2=     -0.4804183287D-01
 ANorm=    0.1054787213D+01
 E2 =    -0.4025181565D+00 EUMP2 =    -0.11431634456741D+03
 R2 and R3 integrals will be kept in memory, NReq=   167993840.
 Iterations=  50 Convergence= 0.100D-07
 Iteration Nr.   1
 **********************
 DD1Dir will call FoFMem   1 times, MxPair=        42
 NAB=    21 NAA=     0 NBB=     0.
 MP4(R+Q)=  0.88725993D-02
 E3=       -0.40191561D-02        EUMP3=      -0.11432036372D+03
 E4(DQ)=   -0.13495093D-02        UMP4(DQ)=   -0.11432171323D+03
 E4(SDQ)=  -0.66114986D-02        UMP4(SDQ)=  -0.11432697522D+03
 DE(Corr)= -0.39766471     E(Corr)=     -114.31149112    
 NORM(A)=   0.10554806D+01
 Iteration Nr.   2
 **********************
 DD1Dir will call FoFMem   1 times, MxPair=        42
 NAB=    21 NAA=     0 NBB=     0.
 DE(Corr)= -0.41160701     E(CORR)=     -114.32543342     Delta=-1.39D-02
 NORM(A)=   0.10615345D+01
 Iteration Nr.   3
 **********************
 DD1Dir will call FoFMem   1 times, MxPair=        42
 NAB=    21 NAA=     0 NBB=     0.
 DE(Corr)= -0.41153427     E(CORR)=     -114.32536068     Delta= 7.27D-05
 NORM(A)=   0.10634214D+01
 Iteration Nr.   4
 **********************
 DD1Dir will call FoFMem   1 times, MxPair=        42
 NAB=    21 NAA=     0 NBB=     0.
 DE(Corr)= -0.41294069     E(CORR)=     -114.32676710     Delta=-1.41D-03
 NORM(A)=   0.10641012D+01
 Iteration Nr.   5
 **********************
 DD1Dir will call FoFMem   1 times, MxPair=        42
 NAB=    21 NAA=     0 NBB=     0.
 DE(Corr)= -0.41312820     E(CORR)=     -114.32695461     Delta=-1.88D-04
 NORM(A)=   0.10643163D+01
 Iteration Nr.   6
 **********************
 DD1Dir will call FoFMem   1 times, MxPair=        42
 NAB=    21 NAA=     0 NBB=     0.
 DE(Corr)= -0.41315413     E(CORR)=     -114.32698054     Delta=-2.59D-05
 NORM(A)=   0.10643417D+01
 Iteration Nr.   7
 **********************
 DD1Dir will call FoFMem   1 times, MxPair=        42
 NAB=    21 NAA=     0 NBB=     0.
 DE(Corr)= -0.41315533     E(CORR)=     -114.32698175     Delta=-1.21D-06
 NORM(A)=   0.10643428D+01
 Iteration Nr.   8
 **********************
 DD1Dir will call FoFMem   1 times, MxPair=        42
 NAB=    21 NAA=     0 NBB=     0.
 DE(Corr)= -0.41315446     E(CORR)=     -114.32698087     Delta= 8.75D-07
 NORM(A)=   0.10643456D+01
 Iteration Nr.   9
 **********************
 DD1Dir will call FoFMem   1 times, MxPair=        42
 NAB=    21 NAA=     0 NBB=     0.
 DE(Corr)= -0.41315334     E(CORR)=     -114.32697975     Delta= 1.12D-06
 NORM(A)=   0.10643459D+01
 Iteration Nr.  10
 **********************
 DD1Dir will call FoFMem   1 times, MxPair=        42
 NAB=    21 NAA=     0 NBB=     0.
 DE(Corr)= -0.41315396     E(CORR)=     -114.32698037     Delta=-6.21D-07
 NORM(A)=   0.10643465D+01
 Iteration Nr.  11
 **********************
 DD1Dir will call FoFMem   1 times, MxPair=        42
 NAB=    21 NAA=     0 NBB=     0.
 DE(Corr)= -0.41315410     E(CORR)=     -114.32698051     Delta=-1.32D-07
 NORM(A)=   0.10643469D+01
 Iteration Nr.  12
 **********************
 DD1Dir will call FoFMem   1 times, MxPair=        42
 NAB=    21 NAA=     0 NBB=     0.
 DE(Corr)= -0.41315425     E(CORR)=     -114.32698066     Delta=-1.55D-07
 NORM(A)=   0.10643471D+01
 Iteration Nr.  13
 **********************
 DD1Dir will call FoFMem   1 times, MxPair=        42
 NAB=    21 NAA=     0 NBB=     0.
 DE(Corr)= -0.41315431     E(CORR)=     -114.32698072     Delta=-6.10D-08
 NORM(A)=   0.10643472D+01
 Iteration Nr.  14
 **********************
 DD1Dir will call FoFMem   1 times, MxPair=        42
 NAB=    21 NAA=     0 NBB=     0.
 DE(Corr)= -0.41315434     E(CORR)=     -114.32698075     Delta=-3.16D-08
 NORM(A)=   0.10643472D+01
 Iteration Nr.  15
 **********************
 DD1Dir will call FoFMem   1 times, MxPair=        42
 NAB=    21 NAA=     0 NBB=     0.
 DE(Corr)= -0.41315435     E(CORR)=     -114.32698076     Delta=-4.78D-09
 NORM(A)=   0.10643472D+01
 Iteration Nr.  16
 **********************
 DD1Dir will call FoFMem   1 times, MxPair=        42
 NAB=    21 NAA=     0 NBB=     0.
 DE(Corr)= -0.41315435     E(CORR)=     -114.32698076     Delta=-3.05D-09
 NORM(A)=   0.10643472D+01
 Largest amplitude= 6.44D-02

 Z-AMPLITUDE ITERATIONS

 Iteration Nr.   1
 **********************
 DD1Dir will call FoFMem   1 times, MxPair=        42
 NAB=    21 NAA=     0 NBB=     0.
 DE(Z)  -0.40112023D+00          E(Z)=    -0.11431494664D+03
 NORM(A)=   0.10643466D+01
 Iteration Nr.   2
 **********************
 DD1Dir will call FoFMem   1 times, MxPair=        42
 NAB=    21 NAA=     0 NBB=     0.
 DE(Z)  -0.40112020D+00          E(Z)=    -0.11431494661D+03
 NORM(A)=   0.10643470D+01
 Iteration Nr.   3
 **********************
 DD1Dir will call FoFMem   1 times, MxPair=        42
 NAB=    21 NAA=     0 NBB=     0.
 DE(Z)  -0.40112022D+00          E(Z)=    -0.11431494663D+03
 NORM(A)=   0.10643470D+01
 Iteration Nr.   4
 **********************
 DD1Dir will call FoFMem   1 times, MxPair=        42
 NAB=    21 NAA=     0 NBB=     0.
 DE(Z)  -0.40112022D+00          E(Z)=    -0.11431494663D+03
 NORM(A)=   0.10643472D+01
 Iteration Nr.   5
 **********************
 DD1Dir will call FoFMem   1 times, MxPair=        42
 NAB=    21 NAA=     0 NBB=     0.
 DE(Z)  -0.40112023D+00          E(Z)=    -0.11431494664D+03
 NORM(A)=   0.10603582D+01
 Iteration Nr.   6
 **********************
 DD1Dir will call FoFMem   1 times, MxPair=        42
 NAB=    21 NAA=     0 NBB=     0.
 DE(Z)  -0.40091232D+00          E(Z)=    -0.11431473873D+03
 NORM(A)=   0.10603036D+01
 Iteration Nr.   7
 **********************
 DD1Dir will call FoFMem   1 times, MxPair=        42
 NAB=    21 NAA=     0 NBB=     0.
 DE(Z)  -0.40090847D+00          E(Z)=    -0.11431473488D+03
 NORM(A)=   0.10602789D+01
 Iteration Nr.   8
 **********************
 DD1Dir will call FoFMem   1 times, MxPair=        42
 NAB=    21 NAA=     0 NBB=     0.
 DE(Z)  -0.40090888D+00          E(Z)=    -0.11431473529D+03
 NORM(A)=   0.10602665D+01
 Iteration Nr.   9
 **********************
 DD1Dir will call FoFMem   1 times, MxPair=        42
 NAB=    21 NAA=     0 NBB=     0.
 DE(Z)  -0.40090563D+00          E(Z)=    -0.11431473205D+03
 NORM(A)=   0.10602644D+01
 Iteration Nr.  10
 **********************
 DD1Dir will call FoFMem   1 times, MxPair=        42
 NAB=    21 NAA=     0 NBB=     0.
 DE(Z)  -0.40090594D+00          E(Z)=    -0.11431473235D+03
 NORM(A)=   0.10602643D+01
 Iteration Nr.  11
 **********************
 DD1Dir will call FoFMem   1 times, MxPair=        42
 NAB=    21 NAA=     0 NBB=     0.
 DE(Z)  -0.40090599D+00          E(Z)=    -0.11431473240D+03
 NORM(A)=   0.10602644D+01
 Iteration Nr.  12
 **********************
 DD1Dir will call FoFMem   1 times, MxPair=        42
 NAB=    21 NAA=     0 NBB=     0.
 DE(Z)  -0.40090583D+00          E(Z)=    -0.11431473224D+03
 NORM(A)=   0.10602644D+01
 Iteration Nr.  13
 **********************
 DD1Dir will call FoFMem   1 times, MxPair=        42
 NAB=    21 NAA=     0 NBB=     0.
 DE(Z)  -0.40090589D+00          E(Z)=    -0.11431473231D+03
 NORM(A)=   0.10602644D+01
 Iteration Nr.  14
 **********************
 DD1Dir will call FoFMem   1 times, MxPair=        42
 NAB=    21 NAA=     0 NBB=     0.
 DE(Z)  -0.40090588D+00          E(Z)=    -0.11431473229D+03
 NORM(A)=   0.10602645D+01
 Iteration Nr.  15
 **********************
 DD1Dir will call FoFMem   1 times, MxPair=        42
 NAB=    21 NAA=     0 NBB=     0.
 DE(Z)  -0.40090587D+00          E(Z)=    -0.11431473229D+03
 NORM(A)=   0.10602645D+01
 Discarding MO integrals.
          Differentiating once with respect to electric field.
                with respect to dipole field.
          Electric field/nuclear overlap derivatives assumed to be zero.
          Keep R1 ints in memory in canonical form, NReq=84894547.
          There are     1 degrees of freedom in the 1st order CPHF.  IDoFFX=0.
 LinEq1:  Iter=  0 NonCon=     1 RMS=3.55D-03 Max=5.57D-02
 AX will form     1 AO Fock derivatives at one time.
 LinEq1:  Iter=  1 NonCon=     1 RMS=8.96D-04 Max=8.54D-03
 LinEq1:  Iter=  2 NonCon=     1 RMS=2.35D-04 Max=3.42D-03
 LinEq1:  Iter=  3 NonCon=     1 RMS=1.15D-04 Max=1.21D-03
 LinEq1:  Iter=  4 NonCon=     1 RMS=4.45D-05 Max=5.32D-04
 LinEq1:  Iter=  5 NonCon=     1 RMS=9.21D-06 Max=8.74D-05
 LinEq1:  Iter=  6 NonCon=     1 RMS=1.50D-06 Max=1.74D-05
 LinEq1:  Iter=  7 NonCon=     1 RMS=2.28D-07 Max=1.66D-06
 LinEq1:  Iter=  8 NonCon=     1 RMS=2.61D-08 Max=2.06D-07
 LinEq1:  Iter=  9 NonCon=     1 RMS=3.14D-09 Max=2.52D-08
 LinEq1:  Iter= 10 NonCon=     1 RMS=2.95D-10 Max=2.32D-09
 LinEq1:  Iter= 11 NonCon=     0 RMS=2.66D-11 Max=2.39D-10
 Linear equations converged to 1.000D-10 1.000D-09 after    11 iterations.
 End of Minotr Frequency-dependent properties file   721 does not exist.
 End of Minotr Frequency-dependent properties file   722 does not exist.

 **********************************************************************

            Population analysis using the QCI/CC density.

 **********************************************************************

     Natural Orbital Coefficients:
                           1         2         3         4         5
     Eigenvalues --     2.00001   2.00000   1.98055   1.96689   1.96534
   1 1   O  1S         -0.52384   0.82764  -0.18942   0.07081   0.00000
   2        2S          0.01054  -0.01441   0.48948  -0.20085   0.00000
   3        3S         -0.02188   0.03556   0.13765  -0.06075   0.00000
   4        4S          0.00282  -0.00269   0.31054  -0.22317   0.00000
   5        5S          0.00015  -0.00079   0.04379  -0.03081   0.00000
   6        6PX         0.00000   0.00000   0.00000   0.00000   0.00000
   7        6PY         0.00000   0.00000   0.00000   0.00000   0.27188
   8        6PZ         0.00299  -0.00224  -0.00040  -0.13844   0.00000
   9        7PX         0.00000   0.00000   0.00000   0.00000   0.00000
  10        7PY         0.00000   0.00000   0.00000   0.00000   0.33552
  11        7PZ         0.00200   0.00154  -0.00856  -0.16220   0.00000
  12        8PX         0.00000   0.00000   0.00000   0.00000   0.00000
  13        8PY         0.00000   0.00000   0.00000   0.00000   0.24269
  14        8PZ         0.00306   0.00051   0.03895  -0.07613   0.00000
  15        9PX         0.00000   0.00000   0.00000   0.00000   0.00000
  16        9PY         0.00000   0.00000   0.00000   0.00000   0.03730
  17        9PZ         0.00019   0.00005   0.00214  -0.00256   0.00000
  18       10D 0       -0.00015   0.00015   0.00429   0.00544   0.00000
  19       10D+1        0.00000   0.00000   0.00000   0.00000   0.00000
  20       10D-1        0.00000   0.00000   0.00000   0.00000  -0.00818
  21       10D+2        0.00007  -0.00008   0.00008  -0.00002   0.00000
  22       10D-2        0.00000   0.00000   0.00000   0.00000   0.00000
  23       11D 0       -0.00046  -0.00116   0.01229   0.00992   0.00000
  24       11D+1        0.00000   0.00000   0.00000   0.00000   0.00000
  25       11D-1        0.00000   0.00000   0.00000   0.00000  -0.02154
  26       11D+2        0.00008  -0.00014   0.00065   0.00033   0.00000
  27       11D-2        0.00000   0.00000   0.00000   0.00000   0.00000
  28       12D 0       -0.00067  -0.00030  -0.00878   0.00124   0.00000
  29       12D+1        0.00000   0.00000   0.00000   0.00000   0.00000
  30       12D-1        0.00000   0.00000   0.00000   0.00000  -0.01371
  31       12D+2        0.00027   0.00018  -0.00025   0.00072   0.00000
  32       12D-2        0.00000   0.00000   0.00000   0.00000   0.00000
  33       13F 0       -0.00003   0.00003  -0.00272  -0.00183   0.00000
  34       13F+1        0.00000   0.00000   0.00000   0.00000   0.00000
  35       13F-1        0.00000   0.00000   0.00000   0.00000   0.00483
  36       13F+2        0.00005  -0.00001   0.00014  -0.00049   0.00000
  37       13F-2        0.00000   0.00000   0.00000   0.00000   0.00000
  38       13F+3        0.00000   0.00000   0.00000   0.00000   0.00000
  39       13F-3        0.00000   0.00000   0.00000   0.00000   0.00126
  40       14F 0        0.00034   0.00042  -0.00116  -0.00047   0.00000
  41       14F+1        0.00000   0.00000   0.00000   0.00000   0.00000
  42       14F-1        0.00000   0.00000   0.00000   0.00000   0.00328
  43       14F+2       -0.00002   0.00004  -0.00086  -0.00070   0.00000
  44       14F-2        0.00000   0.00000   0.00000   0.00000   0.00000
  45       14F+3        0.00000   0.00000   0.00000   0.00000   0.00000
  46       14F-3        0.00000   0.00000   0.00000   0.00000   0.00143
  47 2   C  1S          0.82924   0.52453  -0.08434  -0.14830   0.00000
  48        2S         -0.01111  -0.00598   0.20346   0.41364   0.00000
  49        3S          0.03438   0.02184   0.04541   0.09729   0.00000
  50        4S          0.00351   0.00331   0.12491   0.30013   0.00000
  51        5S          0.00181   0.00136   0.00595   0.01629   0.00000
  52        6PX         0.00000   0.00000   0.00000   0.00000   0.00000
  53        6PY         0.00000   0.00000   0.00000   0.00000   0.18568
  54        6PZ         0.00094   0.00053   0.04842  -0.05196   0.00000
  55        7PX         0.00000   0.00000   0.00000   0.00000   0.00000
  56        7PY         0.00000   0.00000   0.00000   0.00000   0.24503
  57        7PZ         0.00059   0.00374   0.01531  -0.07397   0.00000
  58        8PX         0.00000   0.00000   0.00000   0.00000   0.00000
  59        8PY         0.00000   0.00000   0.00000   0.00000   0.06172
  60        8PZ        -0.00101  -0.00011  -0.03938  -0.05534   0.00000
  61        9PX         0.00000   0.00000   0.00000   0.00000   0.00000
  62        9PY         0.00000   0.00000   0.00000   0.00000  -0.01501
  63        9PZ        -0.00016   0.00002  -0.00249  -0.00022   0.00000
  64       10D 0        0.00051   0.00069   0.01358   0.00170   0.00000
  65       10D+1        0.00000   0.00000   0.00000   0.00000   0.00000
  66       10D-1        0.00000   0.00000   0.00000   0.00000   0.00865
  67       10D+2       -0.00044  -0.00021  -0.00310  -0.00951   0.00000
  68       10D-2        0.00000   0.00000   0.00000   0.00000   0.00000
  69       11D 0       -0.00075   0.00110   0.00276  -0.00161   0.00000
  70       11D+1        0.00000   0.00000   0.00000   0.00000   0.00000
  71       11D-1        0.00000   0.00000   0.00000   0.00000  -0.00990
  72       11D+2        0.00032   0.00072  -0.01474  -0.02467   0.00000
  73       11D-2        0.00000   0.00000   0.00000   0.00000   0.00000
  74       12D 0       -0.00045  -0.00137  -0.01735   0.00280   0.00000
  75       12D+1        0.00000   0.00000   0.00000   0.00000   0.00000
  76       12D-1        0.00000   0.00000   0.00000   0.00000  -0.01747
  77       12D+2       -0.00049  -0.00087  -0.00938  -0.00217   0.00000
  78       12D-2        0.00000   0.00000   0.00000   0.00000   0.00000
  79       13F 0        0.00069   0.00044   0.00547   0.00537   0.00000
  80       13F+1        0.00000   0.00000   0.00000   0.00000   0.00000
  81       13F-1        0.00000   0.00000   0.00000   0.00000   0.00877
  82       13F+2        0.00050   0.00019   0.00362   0.00457   0.00000
  83       13F-2        0.00000   0.00000   0.00000   0.00000   0.00000
  84       13F+3        0.00000   0.00000   0.00000   0.00000   0.00000
  85       13F-3        0.00000   0.00000   0.00000   0.00000  -0.00063
  86       14F 0       -0.00150  -0.00012  -0.00042   0.00371   0.00000
  87       14F+1        0.00000   0.00000   0.00000   0.00000   0.00000
  88       14F-1        0.00000   0.00000   0.00000   0.00000   0.00783
  89       14F+2       -0.00087  -0.00035   0.00267   0.00726   0.00000
  90       14F-2        0.00000   0.00000   0.00000   0.00000   0.00000
  91       14F+3        0.00000   0.00000   0.00000   0.00000   0.00000
  92       14F-3        0.00000   0.00000   0.00000   0.00000   0.00028
  93 3   H  1S         -0.00107  -0.00058   0.02537   0.09549   0.07184
  94        2S         -0.00072   0.00037  -0.00004   0.08752   0.06288
  95        3S         -0.00350  -0.00270  -0.04533  -0.03128  -0.01190
  96        4S         -0.00027  -0.00017  -0.00176  -0.00205   0.00765
  97        5PX         0.00000   0.00000   0.00000   0.00000   0.00000
  98        5PY         0.00035   0.00016  -0.00127  -0.00810  -0.00518
  99        5PZ        -0.00024  -0.00010   0.00103   0.00403   0.00627
 100        6PX         0.00000   0.00000   0.00000   0.00000   0.00000
 101        6PY         0.00050  -0.00017   0.00959   0.00047   0.01265
 102        6PZ        -0.00019   0.00030  -0.00936  -0.00446   0.00413
 103        7PX         0.00000   0.00000   0.00000   0.00000   0.00000
 104        7PY         0.00050  -0.00012   0.00681   0.01650   0.00575
 105        7PZ        -0.00069  -0.00101  -0.01801  -0.00617   0.00746
 106        8D 0        0.00007   0.00001   0.00030  -0.00022   0.00182
 107        8D+1        0.00000   0.00000   0.00000   0.00000   0.00000
 108        8D-1        0.00028   0.00013   0.00066  -0.00093  -0.00264
 109        8D+2        0.00018   0.00008   0.00051  -0.00117  -0.00013
 110        8D-2        0.00000   0.00000   0.00000   0.00000   0.00000
 111        9D 0       -0.00024  -0.00003  -0.00187  -0.00110   0.00110
 112        9D+1        0.00000   0.00000   0.00000   0.00000   0.00000
 113        9D-1       -0.00011  -0.00002   0.00384   0.00226   0.00359
 114        9D+2        0.00024   0.00000   0.00173   0.00170   0.00315
 115        9D-2        0.00000   0.00000   0.00000   0.00000   0.00000
 116 4   H  1S         -0.00107  -0.00058   0.02537   0.09549  -0.07184
 117        2S         -0.00072   0.00037  -0.00004   0.08752  -0.06288
 118        3S         -0.00350  -0.00270  -0.04533  -0.03128   0.01190
 119        4S         -0.00027  -0.00017  -0.00176  -0.00205  -0.00765
 120        5PX         0.00000   0.00000   0.00000   0.00000   0.00000
 121        5PY        -0.00035  -0.00016   0.00127   0.00810  -0.00518
 122        5PZ        -0.00024  -0.00010   0.00103   0.00403  -0.00627
 123        6PX         0.00000   0.00000   0.00000   0.00000   0.00000
 124        6PY        -0.00050   0.00017  -0.00959  -0.00047   0.01265
 125        6PZ        -0.00019   0.00030  -0.00936  -0.00446  -0.00413
 126        7PX         0.00000   0.00000   0.00000   0.00000   0.00000
 127        7PY        -0.00050   0.00012  -0.00681  -0.01650   0.00575
 128        7PZ        -0.00069  -0.00101  -0.01801  -0.00617  -0.00746
 129        8D 0        0.00007   0.00001   0.00030  -0.00022  -0.00182
 130        8D+1        0.00000   0.00000   0.00000   0.00000   0.00000
 131        8D-1       -0.00028  -0.00013  -0.00066   0.00093  -0.00264
 132        8D+2        0.00018   0.00008   0.00051  -0.00117   0.00013
 133        8D-2        0.00000   0.00000   0.00000   0.00000   0.00000
 134        9D 0       -0.00024  -0.00003  -0.00187  -0.00110  -0.00110
 135        9D+1        0.00000   0.00000   0.00000   0.00000   0.00000
 136        9D-1        0.00011   0.00002  -0.00384  -0.00226   0.00359
 137        9D+2        0.00024   0.00000   0.00173   0.00170  -0.00315
 138        9D-2        0.00000   0.00000   0.00000   0.00000   0.00000
                           6         7         8         9        10
     Eigenvalues --     1.96011   1.95673   1.92263   0.06606   0.02821
   1 1   O  1S          0.00389   0.00000   0.00000   0.00000   0.00000
   2        2S          0.00915   0.00000   0.00000   0.00000   0.00000
   3        3S          0.00703   0.00000   0.00000   0.00000   0.00000
   4        4S          0.11799   0.00000   0.00000   0.00000   0.00000
   5        5S          0.06253   0.00000   0.00000   0.00000   0.00000
   6        6PX         0.00000   0.00000   0.28161  -0.36417   0.00000
   7        6PY         0.00000   0.23977   0.00000   0.00000  -0.40220
   8        6PZ         0.28215   0.00000   0.00000   0.00000   0.00000
   9        7PX         0.00000   0.00000   0.35440  -0.43373   0.00000
  10        7PY         0.00000   0.29565   0.00000   0.00000  -0.30512
  11        7PZ         0.34077   0.00000   0.00000   0.00000   0.00000
  12        8PX         0.00000   0.00000   0.23368  -0.08022   0.00000
  13        8PY         0.00000   0.24157   0.00000   0.00000   0.17773
  14        8PZ         0.18387   0.00000   0.00000   0.00000   0.00000
  15        9PX         0.00000   0.00000   0.02107   0.00302   0.00000
  16        9PY         0.00000   0.04042   0.00000   0.00000   0.09969
  17        9PZ         0.00375   0.00000   0.00000   0.00000   0.00000
  18       10D 0       -0.01200   0.00000   0.00000   0.00000   0.00000
  19       10D+1        0.00000   0.00000  -0.01005  -0.01302   0.00000
  20       10D-1        0.00000  -0.00094   0.00000   0.00000  -0.03079
  21       10D+2       -0.00014   0.00000   0.00000   0.00000   0.00000
  22       10D-2        0.00000   0.00000   0.00000   0.00000   0.00000
  23       11D 0       -0.02907   0.00000   0.00000   0.00000   0.00000
  24       11D+1        0.00000   0.00000  -0.02824  -0.01208   0.00000
  25       11D-1        0.00000  -0.00221   0.00000   0.00000  -0.03980
  26       11D+2       -0.00103   0.00000   0.00000   0.00000   0.00000
  27       11D-2        0.00000   0.00000   0.00000   0.00000   0.00000
  28       12D 0       -0.00700   0.00000   0.00000   0.00000   0.00000
  29       12D+1        0.00000   0.00000  -0.01230   0.01571   0.00000
  30       12D-1        0.00000  -0.00339   0.00000   0.00000   0.01571
  31       12D+2       -0.00128   0.00000   0.00000   0.00000   0.00000
  32       12D-2        0.00000   0.00000   0.00000   0.00000   0.00000
  33       13F 0        0.00477   0.00000   0.00000   0.00000   0.00000
  34       13F+1        0.00000   0.00000   0.00505   0.00443   0.00000
  35       13F-1        0.00000   0.00047   0.00000   0.00000   0.00696
  36       13F+2        0.00118   0.00000   0.00000   0.00000   0.00000
  37       13F-2        0.00000   0.00000   0.00000   0.00000   0.00000
  38       13F+3        0.00000   0.00000   0.00155  -0.00359   0.00000
  39       13F-3        0.00000   0.00125   0.00000   0.00000  -0.00165
  40       14F 0        0.00652   0.00000   0.00000   0.00000   0.00000
  41       14F+1        0.00000   0.00000   0.00347  -0.00357   0.00000
  42       14F-1        0.00000   0.00169   0.00000   0.00000  -0.00200
  43       14F+2        0.00092   0.00000   0.00000   0.00000   0.00000
  44       14F-2        0.00000   0.00000   0.00000   0.00000   0.00000
  45       14F+3        0.00000   0.00000   0.00121  -0.00307   0.00000
  46       14F-3        0.00000  -0.00005   0.00000   0.00000  -0.00272
  47 2   C  1S          0.01559   0.00000   0.00000   0.00000   0.00000
  48        2S         -0.03053   0.00000   0.00000   0.00000   0.00000
  49        3S         -0.00944   0.00000   0.00000   0.00000   0.00000
  50        4S          0.10648   0.00000   0.00000   0.00000   0.00000
  51        5S          0.00016   0.00000   0.00000   0.00000   0.00000
  52        6PX         0.00000   0.00000   0.18995   0.31084   0.00000
  53        6PY         0.00000  -0.16521   0.00000   0.00000   0.33493
  54        6PZ        -0.23934   0.00000   0.00000   0.00000   0.00000
  55        7PX         0.00000   0.00000   0.24855   0.48079   0.00000
  56        7PY         0.00000  -0.23092   0.00000   0.00000   0.64159
  57        7PZ        -0.25361   0.00000   0.00000   0.00000   0.00000
  58        8PX         0.00000   0.00000   0.12410   0.18976   0.00000
  59        8PY         0.00000  -0.25302   0.00000   0.00000   0.34141
  60        8PZ        -0.08509   0.00000   0.00000   0.00000   0.00000
  61        9PX         0.00000   0.00000   0.00177   0.00333   0.00000
  62        9PY         0.00000  -0.02291   0.00000   0.00000  -0.03774
  63        9PZ        -0.00184   0.00000   0.00000   0.00000   0.00000
  64       10D 0       -0.01909   0.00000   0.00000   0.00000   0.00000
  65       10D+1        0.00000   0.00000   0.01985  -0.00029   0.00000
  66       10D-1        0.00000   0.03304   0.00000   0.00000   0.03779
  67       10D+2       -0.00603   0.00000   0.00000   0.00000   0.00000
  68       10D-2        0.00000   0.00000   0.00000   0.00000   0.00000
  69       11D 0       -0.01214   0.00000   0.00000   0.00000   0.00000
  70       11D+1        0.00000   0.00000   0.02958   0.03797   0.00000
  71       11D-1        0.00000   0.08295   0.00000   0.00000   0.02933
  72       11D+2       -0.00595   0.00000   0.00000   0.00000   0.00000
  73       11D-2        0.00000   0.00000   0.00000   0.00000   0.00000
  74       12D 0        0.00088   0.00000   0.00000   0.00000   0.00000
  75       12D+1        0.00000   0.00000  -0.00410   0.00924   0.00000
  76       12D-1        0.00000   0.06727   0.00000   0.00000   0.03317
  77       12D+2       -0.00557   0.00000   0.00000   0.00000   0.00000
  78       12D-2        0.00000   0.00000   0.00000   0.00000   0.00000
  79       13F 0       -0.00738   0.00000   0.00000   0.00000   0.00000
  80       13F+1        0.00000   0.00000   0.00684   0.00923   0.00000
  81       13F-1        0.00000   0.00422   0.00000   0.00000   0.02422
  82       13F+2       -0.00152   0.00000   0.00000   0.00000   0.00000
  83       13F-2        0.00000   0.00000   0.00000   0.00000   0.00000
  84       13F+3        0.00000   0.00000   0.00023  -0.00114   0.00000
  85       13F-3        0.00000   0.00254   0.00000   0.00000  -0.00379
  86       14F 0        0.01011   0.00000   0.00000   0.00000   0.00000
  87       14F+1        0.00000   0.00000   0.00468   0.01663   0.00000
  88       14F-1        0.00000   0.00515   0.00000   0.00000   0.10440
  89       14F+2        0.00653   0.00000   0.00000   0.00000   0.00000
  90       14F-2        0.00000   0.00000   0.00000   0.00000   0.00000
  91       14F+3        0.00000   0.00000   0.00232   0.00618   0.00000
  92       14F-3        0.00000   0.00578   0.00000   0.00000   0.00596
  93 3   H  1S          0.07151  -0.13567   0.00000   0.00000  -0.15134
  94        2S          0.10050  -0.17068   0.00000   0.00000  -0.55441
  95        3S          0.00581   0.08156   0.00000   0.00000  -0.47506
  96        4S          0.00026   0.00958   0.00000   0.00000   0.00590
  97        5PX         0.00000   0.00000   0.00342   0.01210   0.00000
  98        5PY        -0.00798   0.00685   0.00000   0.00000  -0.00498
  99        5PZ         0.00164  -0.00485   0.00000   0.00000   0.01784
 100        6PX         0.00000   0.00000   0.01016   0.02420   0.00000
 101        6PY        -0.01318  -0.00735   0.00000   0.00000   0.13177
 102        6PZ         0.00173   0.00456   0.00000   0.00000   0.02440
 103        7PX         0.00000   0.00000  -0.00409  -0.00699   0.00000
 104        7PY         0.00411  -0.04229   0.00000   0.00000   0.08714
 105        7PZ        -0.00298   0.02027   0.00000   0.00000  -0.02985
 106        8D 0       -0.00209   0.00046   0.00000   0.00000   0.00986
 107        8D+1        0.00000   0.00000   0.00118   0.00378   0.00000
 108        8D-1       -0.00145   0.00100   0.00000   0.00000  -0.00801
 109        8D+2       -0.00215   0.00072   0.00000   0.00000   0.00439
 110        8D-2        0.00000   0.00000  -0.00127  -0.00596   0.00000
 111        9D 0        0.00382  -0.00251   0.00000   0.00000   0.00918
 112        9D+1        0.00000   0.00000   0.00138   0.00158   0.00000
 113        9D-1        0.00019   0.00018   0.00000   0.00000   0.01753
 114        9D+2       -0.00224  -0.00141   0.00000   0.00000   0.01766
 115        9D-2        0.00000   0.00000   0.00102   0.00375   0.00000
 116 4   H  1S          0.07151   0.13567   0.00000   0.00000   0.15134
 117        2S          0.10050   0.17068   0.00000   0.00000   0.55441
 118        3S          0.00581  -0.08156   0.00000   0.00000   0.47506
 119        4S          0.00026  -0.00958   0.00000   0.00000  -0.00590
 120        5PX         0.00000   0.00000   0.00342   0.01210   0.00000
 121        5PY         0.00798   0.00685   0.00000   0.00000  -0.00498
 122        5PZ         0.00164   0.00485   0.00000   0.00000  -0.01784
 123        6PX         0.00000   0.00000   0.01016   0.02420   0.00000
 124        6PY         0.01318  -0.00735   0.00000   0.00000   0.13177
 125        6PZ         0.00173  -0.00456   0.00000   0.00000  -0.02440
 126        7PX         0.00000   0.00000  -0.00409  -0.00699   0.00000
 127        7PY        -0.00411  -0.04229   0.00000   0.00000   0.08714
 128        7PZ        -0.00298  -0.02027   0.00000   0.00000   0.02985
 129        8D 0       -0.00209  -0.00046   0.00000   0.00000  -0.00986
 130        8D+1        0.00000   0.00000   0.00118   0.00378   0.00000
 131        8D-1        0.00145   0.00100   0.00000   0.00000  -0.00801
 132        8D+2       -0.00215  -0.00072   0.00000   0.00000  -0.00439
 133        8D-2        0.00000   0.00000   0.00127   0.00596   0.00000
 134        9D 0        0.00382   0.00251   0.00000   0.00000  -0.00918
 135        9D+1        0.00000   0.00000   0.00138   0.00158   0.00000
 136        9D-1       -0.00019   0.00018   0.00000   0.00000   0.01753
 137        9D+2       -0.00224   0.00141   0.00000   0.00000  -0.01766
 138        9D-2        0.00000   0.00000  -0.00102  -0.00375   0.00000
                          11        12        13        14        15
     Eigenvalues --     0.02651   0.02014   0.01203   0.01188   0.00761
   1 1   O  1S         -0.07234  -0.02662   0.00000  -0.23659   0.00000
   2        2S          0.28234   0.11506   0.00000   0.74352   0.00000
   3        3S          0.10870   0.05024   0.00000   0.63293   0.00000
   4        4S          0.61173   0.39252   0.00000  -1.37310   0.00000
   5        5S          0.36865   0.27715   0.00000  -0.58908   0.00000
   6        6PX         0.00000   0.00000   0.00000   0.00000   0.00000
   7        6PY         0.00000   0.00000   0.44256   0.00000   0.13774
   8        6PZ        -0.43824  -0.11909   0.00000   0.26258   0.00000
   9        7PX         0.00000   0.00000   0.00000   0.00000   0.00000
  10        7PY         0.00000   0.00000   0.19602   0.00000   0.02954
  11        7PZ        -0.52518  -0.17797   0.00000   0.06810   0.00000
  12        8PX         0.00000   0.00000   0.00000   0.00000   0.00000
  13        8PY         0.00000   0.00000  -0.41543   0.00000  -0.19223
  14        8PZ        -0.11337  -0.18786   0.00000  -0.11869   0.00000
  15        9PX         0.00000   0.00000   0.00000   0.00000   0.00000
  16        9PY         0.00000   0.00000  -0.06185   0.00000  -0.04545
  17        9PZ        -0.04052  -0.05371   0.00000   0.04161   0.00000
  18       10D 0       -0.03057  -0.02191   0.00000   0.00608   0.00000
  19       10D+1        0.00000   0.00000   0.00000   0.00000   0.00000
  20       10D-1        0.00000   0.00000  -0.00981   0.00000  -0.20828
  21       10D+2       -0.01025   0.00263   0.00000  -0.02473   0.00000
  22       10D-2        0.00000   0.00000   0.00000   0.00000   0.00000
  23       11D 0       -0.01654  -0.03286   0.00000  -0.03109   0.00000
  24       11D+1        0.00000   0.00000   0.00000   0.00000   0.00000
  25       11D-1        0.00000   0.00000  -0.07505   0.00000  -0.51218
  26       11D+2       -0.02068   0.00990   0.00000   0.00064   0.00000
  27       11D-2        0.00000   0.00000   0.00000   0.00000   0.00000
  28       12D 0       -0.00040   0.02910   0.00000  -0.02961   0.00000
  29       12D+1        0.00000   0.00000   0.00000   0.00000   0.00000
  30       12D-1        0.00000   0.00000  -0.01416   0.00000  -0.12303
  31       12D+2       -0.00908   0.00197   0.00000   0.00845   0.00000
  32       12D-2        0.00000   0.00000   0.00000   0.00000   0.00000
  33       13F 0       -0.00019   0.00445   0.00000  -0.00248   0.00000
  34       13F+1        0.00000   0.00000   0.00000   0.00000   0.00000
  35       13F-1        0.00000   0.00000   0.01290   0.00000   0.03480
  36       13F+2       -0.00076  -0.00161   0.00000   0.00028   0.00000
  37       13F-2        0.00000   0.00000   0.00000   0.00000   0.00000
  38       13F+3        0.00000   0.00000   0.00000   0.00000   0.00000
  39       13F-3        0.00000   0.00000  -0.00273   0.00000  -0.00034
  40       14F 0        0.00814   0.01024   0.00000   0.01843   0.00000
  41       14F+1        0.00000   0.00000   0.00000   0.00000   0.00000
  42       14F-1        0.00000   0.00000   0.00724   0.00000   0.07591
  43       14F+2        0.00044  -0.00563   0.00000   0.00731   0.00000
  44       14F-2        0.00000   0.00000   0.00000   0.00000   0.00000
  45       14F+3        0.00000   0.00000   0.00000   0.00000   0.00000
  46       14F-3        0.00000   0.00000   0.01756   0.00000   0.00213
  47 2   C  1S          0.16612  -0.11341   0.00000  -0.00100   0.00000
  48        2S         -0.61922   0.44663   0.00000   0.07005   0.00000
  49        3S         -0.25744   0.25741   0.00000   0.06773   0.00000
  50        4S         -0.21237   0.07135   0.00000  -0.12274   0.00000
  51        5S         -0.11021  -0.09436   0.00000   0.11483   0.00000
  52        6PX         0.00000   0.00000   0.00000   0.00000   0.00000
  53        6PY         0.00000   0.00000   0.41504   0.00000  -0.12501
  54        6PZ        -0.23595  -0.40696   0.00000  -0.01526   0.00000
  55        7PX         0.00000   0.00000   0.00000   0.00000   0.00000
  56        7PY         0.00000   0.00000   0.78573   0.00000  -0.16646
  57        7PZ        -0.56629  -0.71561   0.00000   0.12807   0.00000
  58        8PX         0.00000   0.00000   0.00000   0.00000   0.00000
  59        8PY         0.00000   0.00000   0.57773   0.00000   0.07113
  60        8PZ        -0.30599  -0.22991   0.00000   0.27668   0.00000
  61        9PX         0.00000   0.00000   0.00000   0.00000   0.00000
  62        9PY         0.00000   0.00000   0.04899   0.00000  -0.00032
  63        9PZ        -0.01362  -0.00777   0.00000   0.02004   0.00000
  64       10D 0        0.01794   0.01403   0.00000   0.01232   0.00000
  65       10D+1        0.00000   0.00000   0.00000   0.00000   0.00000
  66       10D-1        0.00000   0.00000  -0.10078   0.00000   0.24524
  67       10D+2       -0.00545   0.01447   0.00000  -0.02747   0.00000
  68       10D-2        0.00000   0.00000   0.00000   0.00000   0.00000
  69       11D 0       -0.09222  -0.06805   0.00000  -0.01465   0.00000
  70       11D+1        0.00000   0.00000   0.00000   0.00000   0.00000
  71       11D-1        0.00000   0.00000  -0.57283   0.00000   0.09288
  72       11D+2       -0.07487  -0.03409   0.00000  -0.02117   0.00000
  73       11D-2        0.00000   0.00000   0.00000   0.00000   0.00000
  74       12D 0       -0.06558  -0.03670   0.00000   0.10553   0.00000
  75       12D+1        0.00000   0.00000   0.00000   0.00000   0.00000
  76       12D-1        0.00000   0.00000  -0.19690   0.00000  -0.15573
  77       12D+2       -0.02095  -0.02570   0.00000   0.05763   0.00000
  78       12D-2        0.00000   0.00000   0.00000   0.00000   0.00000
  79       13F 0       -0.00867  -0.01556   0.00000  -0.00022   0.00000
  80       13F+1        0.00000   0.00000   0.00000   0.00000   0.00000
  81       13F-1        0.00000   0.00000  -0.00784   0.00000   0.00789
  82       13F+2       -0.00008   0.01063   0.00000  -0.00089   0.00000
  83       13F-2        0.00000   0.00000   0.00000   0.00000   0.00000
  84       13F+3        0.00000   0.00000   0.00000   0.00000   0.00000
  85       13F-3        0.00000   0.00000  -0.02474   0.00000   0.01771
  86       14F 0       -0.00121  -0.00293   0.00000  -0.03152   0.00000
  87       14F+1        0.00000   0.00000   0.00000   0.00000   0.00000
  88       14F-1        0.00000   0.00000  -0.12569   0.00000  -0.08876
  89       14F+2        0.01743   0.01248   0.00000  -0.01393   0.00000
  90       14F-2        0.00000   0.00000   0.00000   0.00000   0.00000
  91       14F+3        0.00000   0.00000   0.00000   0.00000   0.00000
  92       14F-3        0.00000   0.00000  -0.08787   0.00000   0.01151
  93 3   H  1S          0.10384  -0.24027  -0.09481   0.06094  -0.12352
  94        2S          0.05751  -0.62658  -0.87762   0.14188   0.07529
  95        3S         -0.09197  -0.19397  -0.74305   0.19099   0.06714
  96        4S          0.00673   0.00751  -0.03616  -0.00598   0.01454
  97        5PX         0.00000   0.00000   0.00000   0.00000   0.00000
  98        5PY        -0.00249  -0.02397  -0.03316  -0.01327   0.06434
  99        5PZ        -0.01249  -0.00806   0.01751   0.00785  -0.01245
 100        6PX         0.00000   0.00000   0.00000   0.00000   0.00000
 101        6PY         0.02496   0.05316   0.12946  -0.04465   0.07774
 102        6PZ        -0.06648  -0.07749  -0.17551   0.02862  -0.01706
 103        7PX         0.00000   0.00000   0.00000   0.00000   0.00000
 104        7PY         0.01738   0.02031   0.15318  -0.01078   0.05787
 105        7PZ        -0.05282  -0.03668  -0.09568   0.09802   0.02932
 106        8D 0       -0.00336  -0.01115  -0.00619  -0.00262   0.01821
 107        8D+1        0.00000   0.00000   0.00000   0.00000   0.00000
 108        8D-1        0.00831  -0.00276  -0.00658  -0.00567   0.00596
 109        8D+2       -0.00034  -0.00994  -0.01199  -0.00691   0.01605
 110        8D-2        0.00000   0.00000   0.00000   0.00000   0.00000
 111        9D 0       -0.00547  -0.00074   0.00781  -0.00681   0.02266
 112        9D+1        0.00000   0.00000   0.00000   0.00000   0.00000
 113        9D-1        0.01996   0.01495   0.01565  -0.01992   0.00962
 114        9D+2       -0.00019   0.00874   0.00711  -0.00318   0.01827
 115        9D-2        0.00000   0.00000   0.00000   0.00000   0.00000
 116 4   H  1S          0.10384  -0.24027   0.09481   0.06094   0.12352
 117        2S          0.05751  -0.62658   0.87762   0.14188  -0.07529
 118        3S         -0.09197  -0.19397   0.74305   0.19099  -0.06714
 119        4S          0.00673   0.00751   0.03616  -0.00598  -0.01454
 120        5PX         0.00000   0.00000   0.00000   0.00000   0.00000
 121        5PY         0.00249   0.02397  -0.03316   0.01327   0.06434
 122        5PZ        -0.01249  -0.00806  -0.01751   0.00785   0.01245
 123        6PX         0.00000   0.00000   0.00000   0.00000   0.00000
 124        6PY        -0.02496  -0.05316   0.12946   0.04465   0.07774
 125        6PZ        -0.06648  -0.07749   0.17551   0.02862   0.01706
 126        7PX         0.00000   0.00000   0.00000   0.00000   0.00000
 127        7PY        -0.01738  -0.02031   0.15318   0.01078   0.05787
 128        7PZ        -0.05282  -0.03668   0.09568   0.09802  -0.02932
 129        8D 0       -0.00336  -0.01115   0.00619  -0.00262  -0.01821
 130        8D+1        0.00000   0.00000   0.00000   0.00000   0.00000
 131        8D-1       -0.00831   0.00276  -0.00658   0.00567   0.00596
 132        8D+2       -0.00034  -0.00994   0.01199  -0.00691  -0.01605
 133        8D-2        0.00000   0.00000   0.00000   0.00000   0.00000
 134        9D 0       -0.00547  -0.00074  -0.00781  -0.00681  -0.02266
 135        9D+1        0.00000   0.00000   0.00000   0.00000   0.00000
 136        9D-1       -0.01996  -0.01495   0.01565   0.01992   0.00962
 137        9D+2       -0.00019   0.00874  -0.00711  -0.00318  -0.01827
 138        9D-2        0.00000   0.00000   0.00000   0.00000   0.00000
                          16        17        18        19        20
     Eigenvalues --     0.00747   0.00719   0.00707   0.00701   0.00600
   1 1   O  1S         -0.01318   0.00000   0.00000  -0.02435   0.00000
   2        2S          0.02400   0.00000   0.00000   0.05440   0.00000
   3        3S          0.03627   0.00000   0.00000   0.07457   0.00000
   4        4S         -0.08150   0.00000   0.00000  -0.19453   0.00000
   5        5S          0.11375   0.00000   0.00000  -0.11936   0.00000
   6        6PX         0.00000   0.21103   0.00000   0.00000  -0.45104
   7        6PY         0.00000   0.00000   0.00000   0.00000   0.00000
   8        6PZ        -0.05961   0.00000   0.00000   0.14210   0.00000
   9        7PX         0.00000   0.09815   0.00000   0.00000  -0.16250
  10        7PY         0.00000   0.00000   0.00000   0.00000   0.00000
  11        7PZ         0.01336   0.00000   0.00000   0.01962   0.00000
  12        8PX         0.00000  -0.38914   0.00000   0.00000   0.54032
  13        8PY         0.00000   0.00000   0.00000   0.00000   0.00000
  14        8PZ         0.20344   0.00000   0.00000  -0.26034   0.00000
  15        9PX         0.00000  -0.08169   0.00000   0.00000   0.08356
  16        9PY         0.00000   0.00000   0.00000   0.00000   0.00000
  17        9PZ         0.00044   0.00000   0.00000  -0.01059   0.00000
  18       10D 0        0.20608   0.00000   0.00000  -0.06878   0.00000
  19       10D+1        0.00000  -0.19791   0.00000   0.00000  -0.09708
  20       10D-1        0.00000   0.00000   0.00000   0.00000   0.00000
  21       10D+2        0.04525   0.00000   0.00000   0.16683   0.00000
  22       10D-2        0.00000   0.00000   0.19699   0.00000   0.00000
  23       11D 0        0.45259   0.00000   0.00000  -0.15556   0.00000
  24       11D+1        0.00000  -0.46957   0.00000   0.00000  -0.18987
  25       11D-1        0.00000   0.00000   0.00000   0.00000   0.00000
  26       11D+2        0.09063   0.00000   0.00000   0.39430   0.00000
  27       11D-2        0.00000   0.00000   0.43385   0.00000   0.00000
  28       12D 0        0.05838   0.00000   0.00000   0.04682   0.00000
  29       12D+1        0.00000  -0.00485   0.00000   0.00000  -0.07186
  30       12D-1        0.00000   0.00000   0.00000   0.00000   0.00000
  31       12D+2        0.01619   0.00000   0.00000   0.10268   0.00000
  32       12D-2        0.00000   0.00000   0.07609   0.00000   0.00000
  33       13F 0       -0.03840   0.00000   0.00000   0.01598   0.00000
  34       13F+1        0.00000   0.04901   0.00000   0.00000  -0.00698
  35       13F-1        0.00000   0.00000   0.00000   0.00000   0.00000
  36       13F+2       -0.00586   0.00000   0.00000  -0.02064   0.00000
  37       13F-2        0.00000   0.00000  -0.02458   0.00000   0.00000
  38       13F+3        0.00000  -0.00641   0.00000   0.00000   0.01597
  39       13F-3        0.00000   0.00000   0.00000   0.00000   0.00000
  40       14F 0       -0.07149   0.00000   0.00000   0.01104   0.00000
  41       14F+1        0.00000   0.05432   0.00000   0.00000   0.02560
  42       14F-1        0.00000   0.00000   0.00000   0.00000   0.00000
  43       14F+2       -0.00693   0.00000   0.00000  -0.05047   0.00000
  44       14F-2        0.00000   0.00000  -0.04622   0.00000   0.00000
  45       14F+3        0.00000   0.00814   0.00000   0.00000  -0.01044
  46       14F-3        0.00000   0.00000   0.00000   0.00000   0.00000
  47 2   C  1S         -0.05986   0.00000   0.00000   0.09161   0.00000
  48        2S          0.15693   0.00000   0.00000  -0.28451   0.00000
  49        3S          0.10993   0.00000   0.00000  -0.25490   0.00000
  50        4S          0.11366   0.00000   0.00000  -0.60560   0.00000
  51        5S         -0.01584   0.00000   0.00000  -0.07656   0.00000
  52        6PX         0.00000   0.25618   0.00000   0.00000  -0.19771
  53        6PY         0.00000   0.00000   0.00000   0.00000   0.00000
  54        6PZ         0.24673   0.00000   0.00000   0.05310   0.00000
  55        7PX         0.00000   0.14277   0.00000   0.00000  -0.33481
  56        7PY         0.00000   0.00000   0.00000   0.00000   0.00000
  57        7PZ        -0.25883   0.00000   0.00000   0.21120   0.00000
  58        8PX         0.00000  -0.13709   0.00000   0.00000   0.09781
  59        8PY         0.00000   0.00000   0.00000   0.00000   0.00000
  60        8PZ        -0.08523   0.00000   0.00000   0.29585   0.00000
  61        9PX         0.00000   0.02422   0.00000   0.00000  -0.01884
  62        9PY         0.00000   0.00000   0.00000   0.00000   0.00000
  63        9PZ         0.00593   0.00000   0.00000   0.02307   0.00000
  64       10D 0        0.21951   0.00000   0.00000  -0.02812   0.00000
  65       10D+1        0.00000   0.18782   0.00000   0.00000   0.20969
  66       10D-1        0.00000   0.00000   0.00000   0.00000   0.00000
  67       10D+2        0.05817   0.00000   0.00000   0.22282   0.00000
  68       10D-2        0.00000   0.00000   0.24578   0.00000   0.00000
  69       11D 0        0.15116   0.00000   0.00000   0.03989   0.00000
  70       11D+1        0.00000   0.03250   0.00000   0.00000   0.30918
  71       11D-1        0.00000   0.00000   0.00000   0.00000   0.00000
  72       11D+2        0.02300   0.00000   0.00000   0.42190   0.00000
  73       11D-2        0.00000   0.00000   0.31157   0.00000   0.00000
  74       12D 0       -0.03285   0.00000   0.00000   0.08304   0.00000
  75       12D+1        0.00000   0.00616   0.00000   0.00000  -0.04936
  76       12D-1        0.00000   0.00000   0.00000   0.00000   0.00000
  77       12D+2       -0.01705   0.00000   0.00000   0.07329   0.00000
  78       12D-2        0.00000   0.00000   0.00976   0.00000   0.00000
  79       13F 0        0.05545   0.00000   0.00000  -0.05232   0.00000
  80       13F+1        0.00000   0.04186   0.00000   0.00000  -0.00541
  81       13F-1        0.00000   0.00000   0.00000   0.00000   0.00000
  82       13F+2        0.01769   0.00000   0.00000   0.00108   0.00000
  83       13F-2        0.00000   0.00000   0.00815   0.00000   0.00000
  84       13F+3        0.00000  -0.00090   0.00000   0.00000   0.04767
  85       13F-3        0.00000   0.00000   0.00000   0.00000   0.00000
  86       14F 0       -0.04506   0.00000   0.00000  -0.08946   0.00000
  87       14F+1        0.00000  -0.06462   0.00000   0.00000   0.03630
  88       14F-1        0.00000   0.00000   0.00000   0.00000   0.00000
  89       14F+2       -0.02484   0.00000   0.00000  -0.11016   0.00000
  90       14F-2        0.00000   0.00000  -0.00958   0.00000   0.00000
  91       14F+3        0.00000  -0.05940   0.00000   0.00000   0.03753
  92       14F-3        0.00000   0.00000   0.00000   0.00000   0.00000
  93 3   H  1S         -0.03468   0.00000   0.00000  -0.09552   0.00000
  94        2S         -0.08778   0.00000   0.00000   0.47187   0.00000
  95        3S         -0.06420   0.00000   0.00000   0.42150   0.00000
  96        4S          0.00031   0.00000   0.00000   0.01415   0.00000
  97        5PX         0.00000  -0.01872   0.07002   0.00000  -0.06433
  98        5PY         0.00046   0.00000   0.00000   0.03253   0.00000
  99        5PZ        -0.05630   0.00000   0.00000  -0.04880   0.00000
 100        6PX         0.00000  -0.14808   0.11732   0.00000  -0.04294
 101        6PY         0.05695   0.00000   0.00000  -0.07284   0.00000
 102        6PZ        -0.14792   0.00000   0.00000   0.00653   0.00000
 103        7PX         0.00000  -0.05078   0.00413   0.00000  -0.00145
 104        7PY         0.01904   0.00000   0.00000  -0.05197   0.00000
 105        7PZ        -0.07246   0.00000   0.00000   0.06618   0.00000
 106        8D 0       -0.01339   0.00000   0.00000  -0.01564   0.00000
 107        8D+1        0.00000  -0.00361   0.02587   0.00000  -0.01141
 108        8D-1        0.02843   0.00000   0.00000   0.01443   0.00000
 109        8D+2       -0.00068   0.00000   0.00000   0.01049   0.00000
 110        8D-2        0.00000   0.01659  -0.03827   0.00000   0.03305
 111        9D 0       -0.02207   0.00000   0.00000  -0.01331   0.00000
 112        9D+1        0.00000  -0.05654   0.00200   0.00000   0.03465
 113        9D-1        0.02787   0.00000   0.00000  -0.00927   0.00000
 114        9D+2        0.02222   0.00000   0.00000   0.01928   0.00000
 115        9D-2        0.00000   0.02882  -0.00613   0.00000  -0.01349
 116 4   H  1S         -0.03468   0.00000   0.00000  -0.09552   0.00000
 117        2S         -0.08778   0.00000   0.00000   0.47187   0.00000
 118        3S         -0.06420   0.00000   0.00000   0.42150   0.00000
 119        4S          0.00031   0.00000   0.00000   0.01415   0.00000
 120        5PX         0.00000  -0.01872  -0.07002   0.00000  -0.06433
 121        5PY        -0.00046   0.00000   0.00000  -0.03253   0.00000
 122        5PZ        -0.05630   0.00000   0.00000  -0.04880   0.00000
 123        6PX         0.00000  -0.14808  -0.11732   0.00000  -0.04294
 124        6PY        -0.05695   0.00000   0.00000   0.07284   0.00000
 125        6PZ        -0.14792   0.00000   0.00000   0.00653   0.00000
 126        7PX         0.00000  -0.05078  -0.00413   0.00000  -0.00145
 127        7PY        -0.01904   0.00000   0.00000   0.05197   0.00000
 128        7PZ        -0.07246   0.00000   0.00000   0.06618   0.00000
 129        8D 0       -0.01339   0.00000   0.00000  -0.01564   0.00000
 130        8D+1        0.00000  -0.00361  -0.02587   0.00000  -0.01141
 131        8D-1       -0.02843   0.00000   0.00000  -0.01443   0.00000
 132        8D+2       -0.00068   0.00000   0.00000   0.01049   0.00000
 133        8D-2        0.00000  -0.01659  -0.03827   0.00000  -0.03305
 134        9D 0       -0.02207   0.00000   0.00000  -0.01331   0.00000
 135        9D+1        0.00000  -0.05654  -0.00200   0.00000   0.03465
 136        9D-1       -0.02787   0.00000   0.00000   0.00927   0.00000
 137        9D+2        0.02222   0.00000   0.00000   0.01928   0.00000
 138        9D-2        0.00000  -0.02882  -0.00613   0.00000   0.01349
                          21        22        23        24        25
     Eigenvalues --     0.00519   0.00484   0.00337   0.00283   0.00252
   1 1   O  1S         -0.00848   0.00000   0.00000   0.11749   0.00000
   2        2S          0.02002   0.00000   0.00000  -0.33080   0.00000
   3        3S          0.00564   0.00000   0.00000  -0.37466   0.00000
   4        4S          0.38778   0.00000   0.00000  -0.28436   0.00000
   5        5S          0.12918   0.00000   0.00000  -0.50680   0.00000
   6        6PX         0.00000   0.00000   0.00000   0.00000  -0.14872
   7        6PY         0.00000   0.00000   0.19041   0.00000   0.00000
   8        6PZ        -0.20201   0.00000   0.00000   0.36598   0.00000
   9        7PX         0.00000   0.00000   0.00000   0.00000   0.03676
  10        7PY         0.00000   0.00000  -0.04320   0.00000   0.00000
  11        7PZ        -0.04820   0.00000   0.00000   0.08601   0.00000
  12        8PX         0.00000   0.00000   0.00000   0.00000  -0.41027
  13        8PY         0.00000   0.00000  -0.71367   0.00000   0.00000
  14        8PZ         0.01450   0.00000   0.00000  -0.24619   0.00000
  15        9PX         0.00000   0.00000   0.00000   0.00000  -0.06557
  16        9PY         0.00000   0.00000  -0.04414   0.00000   0.00000
  17        9PZ        -0.01819   0.00000   0.00000   0.06493   0.00000
  18       10D 0        0.06005   0.00000   0.00000  -0.17061   0.00000
  19       10D+1        0.00000   0.00000   0.00000   0.00000   0.33042
  20       10D-1        0.00000   0.00000   0.30129   0.00000   0.00000
  21       10D+2        0.26021   0.00000   0.00000   0.08073   0.00000
  22       10D-2        0.00000   0.27399   0.00000   0.00000   0.00000
  23       11D 0        0.13369   0.00000   0.00000  -0.34735   0.00000
  24       11D+1        0.00000   0.00000   0.00000   0.00000   0.55302
  25       11D-1        0.00000   0.00000   0.46189   0.00000   0.00000
  26       11D+2        0.50814   0.00000   0.00000   0.06105   0.00000
  27       11D-2        0.00000   0.51416   0.00000   0.00000   0.00000
  28       12D 0        0.02218   0.00000   0.00000   0.03856   0.00000
  29       12D+1        0.00000   0.00000   0.00000   0.00000   0.18820
  30       12D-1        0.00000   0.00000   0.17747   0.00000   0.00000
  31       12D+2        0.07461   0.00000   0.00000  -0.07676   0.00000
  32       12D-2        0.00000   0.09816   0.00000   0.00000   0.00000
  33       13F 0       -0.01204   0.00000   0.00000   0.00778   0.00000
  34       13F+1        0.00000   0.00000   0.00000   0.00000   0.03196
  35       13F-1        0.00000   0.00000   0.00452   0.00000   0.00000
  36       13F+2       -0.01254   0.00000   0.00000  -0.00055   0.00000
  37       13F-2        0.00000  -0.00021   0.00000   0.00000   0.00000
  38       13F+3        0.00000   0.00000   0.00000   0.00000  -0.01051
  39       13F-3        0.00000   0.00000  -0.00139   0.00000   0.00000
  40       14F 0       -0.01118   0.00000   0.00000   0.02255   0.00000
  41       14F+1        0.00000   0.00000   0.00000   0.00000  -0.02263
  42       14F-1        0.00000   0.00000  -0.01983   0.00000   0.00000
  43       14F+2       -0.03482   0.00000   0.00000   0.03881   0.00000
  44       14F-2        0.00000  -0.02467   0.00000   0.00000   0.00000
  45       14F+3        0.00000   0.00000   0.00000   0.00000  -0.01599
  46       14F-3        0.00000   0.00000  -0.00238   0.00000   0.00000
  47 2   C  1S         -0.03662   0.00000   0.00000  -0.04234   0.00000
  48        2S          0.12387   0.00000   0.00000   0.16591   0.00000
  49        3S          0.11656   0.00000   0.00000   0.15672   0.00000
  50        4S         -0.23648   0.00000   0.00000  -0.21636   0.00000
  51        5S         -0.07834   0.00000   0.00000   0.05227   0.00000
  52        6PX         0.00000   0.00000   0.00000   0.00000   0.51117
  53        6PY         0.00000   0.00000   0.12360   0.00000   0.00000
  54        6PZ        -0.15063   0.00000   0.00000   0.23764   0.00000
  55        7PX         0.00000   0.00000   0.00000   0.00000   0.40953
  56        7PY         0.00000   0.00000   0.30891   0.00000   0.00000
  57        7PZ        -0.26339   0.00000   0.00000   0.16518   0.00000
  58        8PX         0.00000   0.00000   0.00000   0.00000   0.14320
  59        8PY         0.00000   0.00000   1.48516   0.00000   0.00000
  60        8PZ        -0.09909   0.00000   0.00000   0.71123   0.00000
  61        9PX         0.00000   0.00000   0.00000   0.00000   0.01430
  62        9PY         0.00000   0.00000   0.02571   0.00000   0.00000
  63        9PZ        -0.00362   0.00000   0.00000   0.03443   0.00000
  64       10D 0       -0.08334   0.00000   0.00000   0.28360   0.00000
  65       10D+1        0.00000   0.00000   0.00000   0.00000   0.18114
  66       10D-1        0.00000   0.00000   0.09375   0.00000   0.00000
  67       10D+2       -0.11496   0.00000   0.00000  -0.05277   0.00000
  68       10D-2        0.00000  -0.20585   0.00000   0.00000   0.00000
  69       11D 0       -0.21706   0.00000   0.00000   0.52530   0.00000
  70       11D+1        0.00000   0.00000   0.00000   0.00000   0.37506
  71       11D-1        0.00000   0.00000   0.28957   0.00000   0.00000
  72       11D+2       -0.24511   0.00000   0.00000  -0.10691   0.00000
  73       11D-2        0.00000  -0.25922   0.00000   0.00000   0.00000
  74       12D 0       -0.00853   0.00000   0.00000   0.24440   0.00000
  75       12D+1        0.00000   0.00000   0.00000   0.00000   0.03749
  76       12D-1        0.00000   0.00000  -0.15850   0.00000   0.00000
  77       12D+2        0.03584   0.00000   0.00000   0.15755   0.00000
  78       12D-2        0.00000   0.04353   0.00000   0.00000   0.00000
  79       13F 0        0.06628   0.00000   0.00000  -0.03649   0.00000
  80       13F+1        0.00000   0.00000   0.00000   0.00000  -0.00662
  81       13F-1        0.00000   0.00000  -0.22529   0.00000   0.00000
  82       13F+2        0.09262   0.00000   0.00000   0.07315   0.00000
  83       13F-2        0.00000   0.10281   0.00000   0.00000   0.00000
  84       13F+3        0.00000   0.00000   0.00000   0.00000   0.03782
  85       13F-3        0.00000   0.00000  -0.00268   0.00000   0.00000
  86       14F 0        0.05353   0.00000   0.00000   0.18189   0.00000
  87       14F+1        0.00000   0.00000   0.00000   0.00000   0.09176
  88       14F-1        0.00000   0.00000   0.01555   0.00000   0.00000
  89       14F+2        0.07740   0.00000   0.00000   0.10931   0.00000
  90       14F-2        0.00000   0.00775   0.00000   0.00000   0.00000
  91       14F+3        0.00000   0.00000   0.00000   0.00000   0.00339
  92       14F-3        0.00000   0.00000   0.00412   0.00000   0.00000
  93 3   H  1S          0.16229   0.00000  -0.29626   0.24125   0.00000
  94        2S         -0.23943   0.00000  -0.13646  -0.08877   0.00000
  95        3S         -0.10434   0.00000  -1.10264   0.30019   0.00000
  96        4S          0.00664   0.00000  -0.01466   0.00178   0.00000
  97        5PX         0.00000  -0.09225   0.00000   0.00000  -0.09030
  98        5PY        -0.01584   0.00000   0.10393  -0.10284   0.00000
  99        5PZ         0.06574   0.00000   0.01659  -0.04075   0.00000
 100        6PX         0.00000  -0.20233   0.00000   0.00000  -0.23603
 101        6PY         0.07107   0.00000   0.15188  -0.07272   0.00000
 102        6PZ         0.03456   0.00000   0.06718  -0.12252   0.00000
 103        7PX         0.00000  -0.06549   0.00000   0.00000  -0.07154
 104        7PY         0.03835   0.00000   0.33034   0.01810   0.00000
 105        7PZ         0.00356   0.00000  -0.17391   0.10691   0.00000
 106        8D 0        0.02113   0.00000   0.00688  -0.03424   0.00000
 107        8D+1        0.00000  -0.02961   0.00000   0.00000  -0.02035
 108        8D-1       -0.02281   0.00000   0.01850   0.00866   0.00000
 109        8D+2       -0.00287   0.00000   0.02648  -0.04756   0.00000
 110        8D-2        0.00000   0.04194   0.00000   0.00000   0.04500
 111        9D 0        0.00161   0.00000   0.01460   0.02264   0.00000
 112        9D+1        0.00000   0.00117   0.00000   0.00000  -0.01709
 113        9D-1        0.00504   0.00000   0.00351   0.02370   0.00000
 114        9D+2       -0.01313   0.00000   0.03147  -0.01371   0.00000
 115        9D-2        0.00000   0.02217   0.00000   0.00000   0.03788
 116 4   H  1S          0.16229   0.00000   0.29626   0.24125   0.00000
 117        2S         -0.23943   0.00000   0.13646  -0.08877   0.00000
 118        3S         -0.10434   0.00000   1.10264   0.30019   0.00000
 119        4S          0.00664   0.00000   0.01466   0.00178   0.00000
 120        5PX         0.00000   0.09225   0.00000   0.00000  -0.09030
 121        5PY         0.01584   0.00000   0.10393   0.10284   0.00000
 122        5PZ         0.06574   0.00000  -0.01659  -0.04075   0.00000
 123        6PX         0.00000   0.20233   0.00000   0.00000  -0.23603
 124        6PY        -0.07107   0.00000   0.15188   0.07272   0.00000
 125        6PZ         0.03456   0.00000  -0.06718  -0.12252   0.00000
 126        7PX         0.00000   0.06549   0.00000   0.00000  -0.07154
 127        7PY        -0.03835   0.00000   0.33034  -0.01810   0.00000
 128        7PZ         0.00356   0.00000   0.17391   0.10691   0.00000
 129        8D 0        0.02113   0.00000  -0.00688  -0.03424   0.00000
 130        8D+1        0.00000   0.02961   0.00000   0.00000  -0.02035
 131        8D-1        0.02281   0.00000   0.01850  -0.00866   0.00000
 132        8D+2       -0.00287   0.00000  -0.02648  -0.04756   0.00000
 133        8D-2        0.00000   0.04194   0.00000   0.00000  -0.04500
 134        9D 0        0.00161   0.00000  -0.01460   0.02264   0.00000
 135        9D+1        0.00000  -0.00117   0.00000   0.00000  -0.01709
 136        9D-1       -0.00504   0.00000   0.00351  -0.02370   0.00000
 137        9D+2       -0.01313   0.00000  -0.03147  -0.01371   0.00000
 138        9D-2        0.00000   0.02217   0.00000   0.00000  -0.03788
                          26        27        28        29        30
     Eigenvalues --     0.00211   0.00163   0.00139   0.00132   0.00107
   1 1   O  1S          0.00000   0.00958   0.04965   0.00000   0.00000
   2        2S          0.00000  -0.03176  -0.28099   0.00000   0.00000
   3        3S          0.00000  -0.02877  -0.27471   0.00000   0.00000
   4        4S          0.00000  -0.04060   0.19217   0.00000   0.00000
   5        5S          0.00000   0.15809  -0.47806   0.00000   0.00000
   6        6PX         0.00000   0.00000   0.00000   0.00000   0.00000
   7        6PY        -0.29442   0.00000   0.00000  -0.45566   0.00000
   8        6PZ         0.00000   0.23401   0.14033   0.00000   0.00000
   9        7PX         0.00000   0.00000   0.00000   0.00000   0.00000
  10        7PY         0.13923   0.00000   0.00000   0.48110   0.00000
  11        7PZ         0.00000  -0.16846   0.12918   0.00000   0.00000
  12        8PX         0.00000   0.00000   0.00000   0.00000   0.00000
  13        8PY        -0.23114   0.00000   0.00000  -0.09519   0.00000
  14        8PZ         0.00000  -0.26334  -1.02279   0.00000   0.00000
  15        9PX         0.00000   0.00000   0.00000   0.00000   0.00000
  16        9PY        -0.04590   0.00000   0.00000  -0.19356   0.00000
  17        9PZ         0.00000  -0.01772   0.05477   0.00000   0.00000
  18       10D 0        0.00000   0.19053   0.39837   0.00000   0.00000
  19       10D+1        0.00000   0.00000   0.00000   0.00000   0.00000
  20       10D-1        0.05435   0.00000   0.00000   0.16456   0.00000
  21       10D+2        0.00000   0.25956  -0.08921   0.00000   0.00000
  22       10D-2        0.00000   0.00000   0.00000   0.00000  -0.34493
  23       11D 0        0.00000   0.17871   0.35268   0.00000   0.00000
  24       11D+1        0.00000   0.00000   0.00000   0.00000   0.00000
  25       11D-1        0.21420   0.00000   0.00000   0.19028   0.00000
  26       11D+2        0.00000   0.24688  -0.16144   0.00000   0.00000
  27       11D-2        0.00000   0.00000   0.00000   0.00000  -0.21632
  28       12D 0        0.00000   0.04466   0.22608   0.00000   0.00000
  29       12D+1        0.00000   0.00000   0.00000   0.00000   0.00000
  30       12D-1        0.14203   0.00000   0.00000   0.09818   0.00000
  31       12D+2        0.00000  -0.02916  -0.06610   0.00000   0.00000
  32       12D-2        0.00000   0.00000   0.00000   0.00000   0.08905
  33       13F 0        0.00000   0.07522   0.13947   0.00000   0.00000
  34       13F+1        0.00000   0.00000   0.00000   0.00000   0.00000
  35       13F-1       -0.00425   0.00000   0.00000   0.15623   0.00000
  36       13F+2        0.00000   0.06415  -0.05170   0.00000   0.00000
  37       13F-2        0.00000   0.00000   0.00000   0.00000  -0.21154
  38       13F+3        0.00000   0.00000   0.00000   0.00000   0.00000
  39       13F-3        0.01245   0.00000   0.00000  -0.01155   0.00000
  40       14F 0        0.00000   0.01717   0.05957   0.00000   0.00000
  41       14F+1        0.00000   0.00000   0.00000   0.00000   0.00000
  42       14F-1       -0.05162   0.00000   0.00000   0.04677   0.00000
  43       14F+2        0.00000   0.04732  -0.01378   0.00000   0.00000
  44       14F-2        0.00000   0.00000   0.00000   0.00000  -0.13910
  45       14F+3        0.00000   0.00000   0.00000   0.00000   0.00000
  46       14F-3       -0.01715   0.00000   0.00000  -0.01265   0.00000
  47 2   C  1S          0.00000   0.07229   0.15282   0.00000   0.00000
  48        2S          0.00000  -0.27892  -0.50088   0.00000   0.00000
  49        3S          0.00000  -0.36207  -0.68361   0.00000   0.00000
  50        4S          0.00000   1.27722  -1.28974   0.00000   0.00000
  51        5S          0.00000   0.05648  -0.08091   0.00000   0.00000
  52        6PX         0.00000   0.00000   0.00000   0.00000   0.00000
  53        6PY         0.30275   0.00000   0.00000   0.15177   0.00000
  54        6PZ         0.00000  -0.25272  -0.49613   0.00000   0.00000
  55        7PX         0.00000   0.00000   0.00000   0.00000   0.00000
  56        7PY         0.32516   0.00000   0.00000   0.39845   0.00000
  57        7PZ         0.00000  -0.07540   0.12357   0.00000   0.00000
  58        8PX         0.00000   0.00000   0.00000   0.00000   0.00000
  59        8PY         1.42362   0.00000   0.00000  -1.24150   0.00000
  60        8PZ         0.00000  -0.30879   0.86919   0.00000   0.00000
  61        9PX         0.00000   0.00000   0.00000   0.00000   0.00000
  62        9PY         0.04582   0.00000   0.00000   0.03508   0.00000
  63        9PZ         0.00000  -0.01830  -0.00698   0.00000   0.00000
  64       10D 0        0.00000   0.11497   0.12184   0.00000   0.00000
  65       10D+1        0.00000   0.00000   0.00000   0.00000   0.00000
  66       10D-1       -0.02973   0.00000   0.00000   0.53805   0.00000
  67       10D+2        0.00000  -0.30269   0.22713   0.00000   0.00000
  68       10D-2        0.00000   0.00000   0.00000   0.00000   0.26208
  69       11D 0        0.00000   0.16546   0.25367   0.00000   0.00000
  70       11D+1        0.00000   0.00000   0.00000   0.00000   0.00000
  71       11D-1        0.08319   0.00000   0.00000  -0.03025   0.00000
  72       11D+2        0.00000  -0.48044   0.26445   0.00000   0.00000
  73       11D-2        0.00000   0.00000   0.00000   0.00000   0.36017
  74       12D 0        0.00000   0.04677   0.48875   0.00000   0.00000
  75       12D+1        0.00000   0.00000   0.00000   0.00000   0.00000
  76       12D-1       -0.41827   0.00000   0.00000   0.10475   0.00000
  77       12D+2        0.00000  -0.04657   0.31151   0.00000   0.00000
  78       12D-2        0.00000   0.00000   0.00000   0.00000   0.00768
  79       13F 0        0.00000  -0.12453   0.02044   0.00000   0.00000
  80       13F+1        0.00000   0.00000   0.00000   0.00000   0.00000
  81       13F-1        0.24863   0.00000   0.00000   0.07196   0.00000
  82       13F+2        0.00000  -0.19035   0.09761   0.00000   0.00000
  83       13F-2        0.00000   0.00000   0.00000   0.00000   0.38898
  84       13F+3        0.00000   0.00000   0.00000   0.00000   0.00000
  85       13F-3        0.13629   0.00000   0.00000  -0.10623   0.00000
  86       14F 0        0.00000  -0.07480   0.10881   0.00000   0.00000
  87       14F+1        0.00000   0.00000   0.00000   0.00000   0.00000
  88       14F-1        0.15060   0.00000   0.00000   0.05987   0.00000
  89       14F+2        0.00000  -0.07594   0.06597   0.00000   0.00000
  90       14F-2        0.00000   0.00000   0.00000   0.00000   0.14919
  91       14F+3        0.00000   0.00000   0.00000   0.00000   0.00000
  92       14F-3        0.02517   0.00000   0.00000  -0.04292   0.00000
  93 3   H  1S         -0.38155  -0.26611   0.22196   0.30381   0.00000
  94        2S         -0.25100  -0.27153   0.28025  -0.12791   0.00000
  95        3S         -1.13114  -0.29750   0.79089   0.85947   0.00000
  96        4S         -0.01947  -0.01031   0.01050  -0.00616   0.00000
  97        5PX         0.00000   0.00000   0.00000   0.00000  -0.11332
  98        5PY         0.02218   0.02016  -0.05300   0.03143   0.00000
  99        5PZ        -0.15934   0.02023  -0.00694   0.03028   0.00000
 100        6PX         0.00000   0.00000   0.00000   0.00000  -0.28416
 101        6PY        -0.02702   0.05536  -0.09970   0.29975   0.00000
 102        6PZ        -0.30746   0.00360   0.10130  -0.07610   0.00000
 103        7PX         0.00000   0.00000   0.00000   0.00000  -0.05432
 104        7PY         0.29625   0.09624   0.01692  -0.12747   0.00000
 105        7PZ        -0.19668  -0.03954   0.36971   0.06777   0.00000
 106        8D 0       -0.03272   0.01878  -0.02238   0.03481   0.00000
 107        8D+1        0.00000   0.00000   0.00000   0.00000  -0.00488
 108        8D-1        0.05149   0.01083  -0.01510  -0.02334   0.00000
 109        8D+2        0.00651   0.00152  -0.03164   0.01321   0.00000
 110        8D-2        0.00000   0.00000   0.00000   0.00000   0.02739
 111        9D 0       -0.03049  -0.01460   0.02435   0.01288   0.00000
 112        9D+1        0.00000   0.00000   0.00000   0.00000  -0.02214
 113        9D-1        0.03615  -0.01384  -0.03668   0.02796   0.00000
 114        9D+2       -0.00174  -0.00337   0.00941   0.04841   0.00000
 115        9D-2        0.00000   0.00000   0.00000   0.00000   0.04591
 116 4   H  1S          0.38155  -0.26611   0.22196  -0.30381   0.00000
 117        2S          0.25100  -0.27153   0.28025   0.12791   0.00000
 118        3S          1.13114  -0.29750   0.79089  -0.85947   0.00000
 119        4S          0.01947  -0.01031   0.01050   0.00616   0.00000
 120        5PX         0.00000   0.00000   0.00000   0.00000   0.11332
 121        5PY         0.02218  -0.02016   0.05300   0.03143   0.00000
 122        5PZ         0.15934   0.02023  -0.00694  -0.03028   0.00000
 123        6PX         0.00000   0.00000   0.00000   0.00000   0.28416
 124        6PY        -0.02702  -0.05536   0.09970   0.29975   0.00000
 125        6PZ         0.30746   0.00360   0.10130   0.07610   0.00000
 126        7PX         0.00000   0.00000   0.00000   0.00000   0.05432
 127        7PY         0.29625  -0.09624  -0.01692  -0.12747   0.00000
 128        7PZ         0.19668  -0.03954   0.36971  -0.06777   0.00000
 129        8D 0        0.03272   0.01878  -0.02238  -0.03481   0.00000
 130        8D+1        0.00000   0.00000   0.00000   0.00000   0.00488
 131        8D-1        0.05149  -0.01083   0.01510  -0.02334   0.00000
 132        8D+2       -0.00651   0.00152  -0.03164  -0.01321   0.00000
 133        8D-2        0.00000   0.00000   0.00000   0.00000   0.02739
 134        9D 0        0.03049  -0.01460   0.02435  -0.01288   0.00000
 135        9D+1        0.00000   0.00000   0.00000   0.00000   0.02214
 136        9D-1        0.03615   0.01384   0.03668   0.02796   0.00000
 137        9D+2        0.00174  -0.00337   0.00941  -0.04841   0.00000
 138        9D-2        0.00000   0.00000   0.00000   0.00000   0.04591
                          31        32        33        34        35
     Eigenvalues --     0.00105   0.00087   0.00086   0.00080   0.00065
   1 1   O  1S          0.00000   0.00000   0.04809   0.00000   0.26106
   2        2S          0.00000   0.00000   0.00101   0.00000   0.21012
   3        3S          0.00000   0.00000  -0.11838   0.00000  -0.69750
   4        4S          0.00000   0.00000   0.11185   0.00000  -0.13932
   5        5S          0.00000   0.00000   0.13767   0.00000  -0.63639
   6        6PX         0.73066  -0.00461   0.00000   0.00000   0.00000
   7        6PY         0.00000   0.00000   0.00000   0.70319   0.00000
   8        6PZ         0.00000   0.00000   0.23929   0.00000  -0.73252
   9        7PX        -0.63666  -0.04474   0.00000   0.00000   0.00000
  10        7PY         0.00000   0.00000   0.00000  -1.11099   0.00000
  11        7PZ         0.00000   0.00000  -0.21478   0.00000   1.21519
  12        8PX        -0.17153   0.44006   0.00000   0.00000   0.00000
  13        8PY         0.00000   0.00000   0.00000  -0.44196   0.00000
  14        8PZ         0.00000   0.00000   0.18681   0.00000  -0.62431
  15        9PX         0.10884   0.03672   0.00000   0.00000   0.00000
  16        9PY         0.00000   0.00000   0.00000   0.17193   0.00000
  17        9PZ         0.00000   0.00000   0.02764   0.00000  -0.13017
  18       10D 0        0.00000   0.00000  -0.04799   0.00000  -0.10817
  19       10D+1        0.13772  -0.24631   0.00000   0.00000   0.00000
  20       10D-1        0.00000   0.00000   0.00000   0.21606   0.00000
[...]
   5        5S          0.00000 -11.53117   0.00000   0.00000  -0.13875
   6        6PX         0.01439   0.00000   0.00000   0.00000   0.00000
   7        6PY         0.00000   0.00000   0.00252  -0.00412   0.00000
   8        6PZ         0.00000   0.02305   0.00000   0.00000  -0.01668
   9        7PX        -0.06120   0.00000   0.00000   0.00000   0.00000
  10        7PY         0.00000   0.00000   0.02204  -0.04175   0.00000
  11        7PZ         0.00000  -0.13260   0.00000   0.00000   0.03530
  12        8PX         0.42267   0.00000   0.00000   0.00000   0.00000
  13        8PY         0.00000   0.00000   3.17203  -2.41637   0.00000
  14        8PZ         0.00000   3.67029   0.00000   0.00000   0.84437
  15        9PX        -0.68058   0.00000   0.00000   0.00000   0.00000
  16        9PY         0.00000   0.00000  -0.89772  -0.09948   0.00000
  17        9PZ         0.00000   5.52302   0.00000   0.00000  -0.36667
  18       10D 0        0.00000  -0.02896   0.00000   0.00000   0.00935
  19       10D+1        0.00556   0.00000   0.00000   0.00000   0.00000
  20       10D-1        0.00000   0.00000   0.01064  -0.00787   0.00000
  21       10D+2        0.00000   0.03475   0.00000   0.00000   0.00761
  22       10D-2        0.00000   0.00000   0.00000   0.00000   0.00000
  23       11D 0        0.00000   0.04943   0.00000   0.00000  -0.05347
  24       11D+1       -0.06154   0.00000   0.00000   0.00000   0.00000
  25       11D-1        0.00000   0.00000  -0.07025   0.10360   0.00000
  26       11D+2        0.00000  -0.13142   0.00000   0.00000  -0.02802
  27       11D-2        0.00000   0.00000   0.00000   0.00000   0.00000
  28       12D 0        0.00000  -1.74824   0.00000   0.00000  -0.45443
  29       12D+1       -0.08349   0.00000   0.00000   0.00000   0.00000
  30       12D-1        0.00000   0.00000  -1.48972   1.06644   0.00000
  31       12D+2        0.00000   0.29008   0.00000   0.00000  -0.02279
  32       12D-2        0.00000   0.00000   0.00000   0.00000   0.00000
  33       13F 0        0.00000  -0.00564   0.00000   0.00000  -0.00802
  34       13F+1       -0.00692   0.00000   0.00000   0.00000   0.00000
  35       13F-1        0.00000   0.00000  -0.04159   0.02351   0.00000
  36       13F+2        0.00000   0.00446   0.00000   0.00000  -0.00367
  37       13F-2        0.00000   0.00000   0.00000   0.00000   0.00000
  38       13F+3        0.01958   0.00000   0.00000   0.00000   0.00000
  39       13F-3        0.00000   0.00000   0.01289  -0.01146   0.00000
  40       14F 0        0.00000   0.13269   0.00000   0.00000   0.08102
  41       14F+1        0.07970   0.00000   0.00000   0.00000   0.00000
  42       14F-1        0.00000   0.00000   0.16373  -0.12531   0.00000
  43       14F+2        0.00000  -0.01557   0.00000   0.00000   0.00328
  44       14F-2        0.00000   0.00000   0.00000   0.00000   0.00000
  45       14F+3       -0.03053   0.00000   0.00000   0.00000   0.00000
  46       14F-3        0.00000   0.00000  -0.02917   0.01347   0.00000
  47 2   C  1S          0.00000   0.07971   0.00000   0.00000   0.20215
  48        2S          0.00000   0.44207   0.00000   0.00000   1.21932
  49        3S          0.00000  -0.07804   0.00000   0.00000  -0.00165
  50        4S          0.00000   5.72368   0.00000   0.00000  25.32121
  51        5S          0.00000   8.04601   0.00000   0.00000  10.39048
  52        6PX         0.00459   0.00000   0.00000   0.00000   0.00000
  53        6PY         0.00000   0.00000   0.02910   0.00594   0.00000
  54        6PZ         0.00000   0.00371   0.00000   0.00000   0.03671
  55        7PX         0.01510   0.00000   0.00000   0.00000   0.00000
  56        7PY         0.00000   0.00000  -1.83736  -1.40639   0.00000
  57        7PZ         0.00000   0.69371   0.00000   0.00000  -1.05102
  58        8PX         3.93692   0.00000   0.00000   0.00000   0.00000
  59        8PY         0.00000   0.00000 -16.53285  -8.35050   0.00000
  60        8PZ         0.00000  -2.67321   0.00000   0.00000  -9.47629
  61        9PX         2.26309   0.00000   0.00000   0.00000   0.00000
  62        9PY         0.00000   0.00000   1.61323  -5.33274   0.00000
  63        9PZ         0.00000  -2.28896   0.00000   0.00000  -2.06994
  64       10D 0        0.00000  -0.05617   0.00000   0.00000   0.02157
  65       10D+1        0.01536   0.00000   0.00000   0.00000   0.00000
  66       10D-1        0.00000   0.00000   0.01506   0.02100   0.00000
  67       10D+2        0.00000   0.02182   0.00000   0.00000  -0.05302
  68       10D-2        0.00000   0.00000   0.00000   0.00000   0.00000
  69       11D 0        0.00000   0.71591   0.00000   0.00000   0.14949
  70       11D+1       -0.36926   0.00000   0.00000   0.00000   0.00000
  71       11D-1        0.00000   0.00000   1.41785   1.25260   0.00000
  72       11D+2        0.00000  -0.27647   0.00000   0.00000  -0.92294
  73       11D-2        0.00000   0.00000   0.00000   0.00000   0.00000
  74       12D 0        0.00000   1.38761   0.00000   0.00000   1.80501
  75       12D+1       -1.38952   0.00000   0.00000   0.00000   0.00000
  76       12D-1        0.00000   0.00000   2.49321   2.38671   0.00000
  77       12D+2        0.00000   0.29315   0.00000   0.00000  -0.23744
  78       12D-2        0.00000   0.00000   0.00000   0.00000   0.00000
  79       13F 0        0.00000   0.01891   0.00000   0.00000   0.02559
  80       13F+1       -0.03856   0.00000   0.00000   0.00000   0.00000
  81       13F-1        0.00000   0.00000   0.04938  -0.01972   0.00000
  82       13F+2        0.00000   0.01040   0.00000   0.00000   0.04534
  83       13F-2        0.00000   0.00000   0.00000   0.00000   0.00000
  84       13F+3        0.10505   0.00000   0.00000   0.00000   0.00000
  85       13F-3        0.00000   0.00000   0.07494   0.01663   0.00000
  86       14F 0        0.00000  -0.06148   0.00000   0.00000   0.17604
  87       14F+1        0.05154   0.00000   0.00000   0.00000   0.00000
  88       14F-1        0.00000   0.00000  -1.99276   1.16240   0.00000
  89       14F+2        0.00000   0.41997   0.00000   0.00000   0.45076
  90       14F-2        0.00000   0.00000   0.00000   0.00000   0.00000
  91       14F+3       -0.32081   0.00000   0.00000   0.00000   0.00000
  92       14F-3        0.00000   0.00000  -0.23283   0.33639   0.00000
  93 3   H  1S          0.00000   0.01787  -0.06776   0.01014   0.04747
  94        2S          0.00000  -1.42943   3.05035   1.65562  -2.85544
  95        3S          0.00000   1.60288  25.91936  14.19998 -14.74461
  96        4S          0.00000  -1.16507  -1.71928   4.65810  -1.66095
  97        5PX        -0.08366   0.00000   0.00000   0.00000   0.00000
  98        5PY         0.00000   0.02066   0.11446   0.07203  -0.09542
  99        5PZ         0.00000  -0.01950   0.03370  -0.10514   0.03179
 100        6PX        -0.01977   0.00000   0.00000   0.00000   0.00000
 101        6PY         0.00000   0.14595  -2.14139  -0.73074   1.51207
 102        6PZ         0.00000   0.30173  -0.47135   1.46186  -0.61364
 103        7PX        -3.04777   0.00000   0.00000   0.00000   0.00000
 104        7PY         0.00000  -0.06558  -9.22883  -1.85856   4.80149
 105        7PZ         0.00000   4.15375   1.52321   2.93819   0.02399
 106        8D 0        0.00000  -0.05764   0.05328  -0.02859  -0.02478
 107        8D+1        0.02658   0.00000   0.00000   0.00000   0.00000
 108        8D-1        0.00000   0.05053  -0.10863  -0.00865   0.06528
 109        8D+2        0.00000   0.04029   0.05182  -0.04408   0.04408
 110        8D-2       -0.06572   0.00000   0.00000   0.00000   0.00000
 111        9D 0        0.00000   0.59734  -1.20641   0.50134   0.42165
 112        9D+1       -0.23645   0.00000   0.00000   0.00000   0.00000
 113        9D-1        0.00000  -0.82081   0.30530  -0.76646   0.14592
 114        9D+2        0.00000  -0.15091  -1.18153   0.13640   0.43750
 115        9D-2        0.50675   0.00000   0.00000   0.00000   0.00000
 116 4   H  1S          0.00000   0.01787   0.06776  -0.01014   0.04747
 117        2S          0.00000  -1.42943  -3.05035  -1.65562  -2.85544
 118        3S          0.00000   1.60288 -25.91936 -14.19998 -14.74461
 119        4S          0.00000  -1.16507   1.71928  -4.65810  -1.66095
 120        5PX        -0.08366   0.00000   0.00000   0.00000   0.00000
 121        5PY         0.00000  -0.02066   0.11446   0.07203   0.09542
 122        5PZ         0.00000  -0.01950  -0.03370   0.10514   0.03179
 123        6PX        -0.01977   0.00000   0.00000   0.00000   0.00000
 124        6PY         0.00000  -0.14595  -2.14139  -0.73074  -1.51207
 125        6PZ         0.00000   0.30173   0.47135  -1.46186  -0.61364
 126        7PX        -3.04777   0.00000   0.00000   0.00000   0.00000
 127        7PY         0.00000   0.06558  -9.22883  -1.85856  -4.80149
 128        7PZ         0.00000   4.15375  -1.52321  -2.93819   0.02399
 129        8D 0        0.00000  -0.05764  -0.05328   0.02859  -0.02478
 130        8D+1        0.02658   0.00000   0.00000   0.00000   0.00000
 131        8D-1        0.00000  -0.05053  -0.10863  -0.00865  -0.06528
 132        8D+2        0.00000   0.04029  -0.05182   0.04408   0.04408
 133        8D-2        0.06572   0.00000   0.00000   0.00000   0.00000
 134        9D 0        0.00000   0.59734   1.20641  -0.50134   0.42165
 135        9D+1       -0.23645   0.00000   0.00000   0.00000   0.00000
 136        9D-1        0.00000   0.82081   0.30530  -0.76646  -0.14592
 137        9D+2        0.00000  -0.15091   1.18153  -0.13640   0.43750
 138        9D-2       -0.50675   0.00000   0.00000   0.00000   0.00000
                         136       137       138
     Eigenvalues --     0.00000   0.00000   0.00000
   1 1   O  1S         -0.06088   0.00000   0.00949
   2        2S         -0.29419   0.00000   0.05178
   3        3S          0.03829   0.00000   0.00103
   4        4S          4.43271   0.00000  -1.09250
   5        5S         13.13953   0.00000  -6.81027
   6        6PX         0.00000   0.00000   0.00000
   7        6PY         0.00000   0.00505   0.00000
   8        6PZ        -0.00472   0.00000   0.00544
   9        7PX         0.00000   0.00000   0.00000
  10        7PY         0.00000  -0.01312   0.00000
  11        7PZ        -0.07851   0.00000  -0.03072
  12        8PX         0.00000   0.00000   0.00000
  13        8PY         0.00000   1.47596   0.00000
  14        8PZ        -1.39817   0.00000   0.89638
  15        9PX         0.00000   0.00000   0.00000
  16        9PY         0.00000   1.54979   0.00000
  17        9PZ        -1.07645   0.00000   1.43362
  18       10D 0       -0.01635   0.00000   0.00147
  19       10D+1        0.00000   0.00000   0.00000
  20       10D-1        0.00000  -0.00226   0.00000
  21       10D+2        0.00382   0.00000  -0.00165
  22       10D-2        0.00000   0.00000   0.00000
  23       11D 0        0.10940   0.00000  -0.00590
  24       11D+1        0.00000   0.00000   0.00000
  25       11D-1        0.00000  -0.01614   0.00000
  26       11D+2       -0.01296   0.00000   0.00411
  27       11D-2        0.00000   0.00000   0.00000
  28       12D 0       -0.08570   0.00000  -0.20157
  29       12D+1        0.00000   0.00000   0.00000
  30       12D-1        0.00000  -0.58292   0.00000
  31       12D+2        0.32098   0.00000  -0.04087
  32       12D-2        0.00000   0.00000   0.00000
  33       13F 0       -0.00815   0.00000  -0.00398
  34       13F+1        0.00000   0.00000   0.00000
  35       13F-1        0.00000  -0.00491   0.00000
  36       13F+2        0.01299   0.00000  -0.00223
  37       13F-2        0.00000   0.00000   0.00000
  38       13F+3        0.00000   0.00000   0.00000
  39       13F-3        0.00000  -0.00509   0.00000
  40       14F 0        0.01580   0.00000   0.01748
  41       14F+1        0.00000   0.00000   0.00000
  42       14F-1        0.00000   0.02918   0.00000
  43       14F+2       -0.06166   0.00000   0.01084
  44       14F-2        0.00000   0.00000   0.00000
  45       14F+3        0.00000   0.00000   0.00000
  46       14F-3        0.00000   0.01476   0.00000
  47 2   C  1S         -0.03817   0.00000   0.00511
  48        2S         -0.21681   0.00000   0.03524
  49        3S          0.11732   0.00000   0.02751
  50        4S         -5.35970   0.00000  10.05142
  51        5S         -4.21406   0.00000  13.51330
  52        6PX         0.00000   0.00000   0.00000
  53        6PY         0.00000  -0.01396   0.00000
  54        6PZ        -0.02387   0.00000   0.00222
  55        7PX         0.00000   0.00000   0.00000
  56        7PY         0.00000   0.01368   0.00000
  57        7PZ         0.23770   0.00000   0.00970
  58        8PX         0.00000   0.00000   0.00000
  59        8PY         0.00000  -7.55183   0.00000
  60        8PZ        -1.46212   0.00000  -0.03784
  61        9PX         0.00000   0.00000   0.00000
  62        9PY         0.00000  -5.56342   0.00000
  63        9PZ        -2.32701   0.00000  -0.22540
  64       10D 0        0.01404   0.00000  -0.00401
  65       10D+1        0.00000   0.00000   0.00000
  66       10D-1        0.00000  -0.01414   0.00000
  67       10D+2       -0.00555   0.00000  -0.00772
  68       10D-2        0.00000   0.00000   0.00000
  69       11D 0       -0.79359   0.00000   0.13176
  70       11D+1        0.00000   0.00000   0.00000
  71       11D-1        0.00000  -0.18512   0.00000
  72       11D+2        0.20721   0.00000  -0.05066
  73       11D-2        0.00000   0.00000   0.00000
  74       12D 0       -6.06803   0.00000   0.72221
  75       12D+1        0.00000   0.00000   0.00000
  76       12D-1        0.00000  -0.73511   0.00000
  77       12D+2       -2.83402   0.00000  -0.29817
  78       12D-2        0.00000   0.00000   0.00000
  79       13F 0       -0.03725   0.00000  -0.00914
  80       13F+1        0.00000   0.00000   0.00000
  81       13F-1        0.00000   0.01947   0.00000
  82       13F+2       -0.01660   0.00000  -0.00145
  83       13F-2        0.00000   0.00000   0.00000
  84       13F+3        0.00000   0.00000   0.00000
  85       13F-3        0.00000  -0.01784   0.00000
  86       14F 0       -0.17678   0.00000   0.06829
  87       14F+1        0.00000   0.00000   0.00000
  88       14F-1        0.00000  -0.53285   0.00000
  89       14F+2       -0.34586   0.00000   0.05515
  90       14F-2        0.00000   0.00000   0.00000
  91       14F+3        0.00000   0.00000   0.00000
  92       14F-3        0.00000  -0.03496   0.00000
  93 3   H  1S         -0.01636   0.00863  -0.00301
  94        2S          1.02620  -0.10028  -0.19626
  95        3S         -3.53675  11.39275  -5.31222
  96        4S         -0.30159   8.37578  -3.08112
  97        5PX         0.00000   0.00000   0.00000
  98        5PY         0.00338   0.03053  -0.01293
  99        5PZ         0.04090   0.00176   0.00577
 100        6PX         0.00000   0.00000   0.00000
 101        6PY        -0.43632  -0.26376   0.19228
 102        6PZ        -0.18400  -0.18424  -0.08891
 103        7PX         0.00000   0.00000   0.00000
 104        7PY        -2.17845  -3.63564   1.56257
 105        7PZ        -3.87818   2.54466  -0.62827
 106        8D 0        0.01098  -0.00726   0.00188
 107        8D+1        0.00000   0.00000   0.00000
 108        8D-1       -0.04744   0.02479  -0.00808
 109        8D+2        0.01185   0.04161  -0.00409
 110        8D-2        0.00000   0.00000   0.00000
 111        9D 0       -0.31137  -0.07427   0.04330
 112        9D+1        0.00000   0.00000   0.00000
 113        9D-1        0.28943  -0.08657   0.11334
 114        9D+2       -0.29754  -0.34549   0.11357
 115        9D-2        0.00000   0.00000   0.00000
 116 4   H  1S         -0.01636  -0.00863  -0.00301
 117        2S          1.02620   0.10028  -0.19626
 118        3S         -3.53675 -11.39275  -5.31222
 119        4S         -0.30159  -8.37578  -3.08112
 120        5PX         0.00000   0.00000   0.00000
 121        5PY        -0.00338   0.03053   0.01293
 122        5PZ         0.04090  -0.00176   0.00577
 123        6PX         0.00000   0.00000   0.00000
 124        6PY         0.43632  -0.26376  -0.19228
 125        6PZ        -0.18400   0.18424  -0.08891
 126        7PX         0.00000   0.00000   0.00000
 127        7PY         2.17845  -3.63564  -1.56257
 128        7PZ        -3.87818  -2.54466  -0.62827
 129        8D 0        0.01098   0.00726   0.00188
 130        8D+1        0.00000   0.00000   0.00000
 131        8D-1        0.04744   0.02479   0.00808
 132        8D+2        0.01185  -0.04161  -0.00409
 133        8D-2        0.00000   0.00000   0.00000
 134        9D 0       -0.31137   0.07427   0.04330
 135        9D+1        0.00000   0.00000   0.00000
 136        9D-1       -0.28943  -0.08657  -0.11334
 137        9D+2       -0.29754   0.34549   0.11357
 138        9D-2        0.00000   0.00000   0.00000
          Condensed to atoms (all electrons):
              1          2          3          4
     1  O    8.193690   0.349453  -0.062868  -0.062868
     2  C    0.349453   5.719225   0.207784   0.207784
     3  H   -0.062868   0.207784   0.434667  -0.030409
     4  H   -0.062868   0.207784  -0.030409   0.434667
 Mulliken atomic charges:
              1
     1  O   -0.417407
     2  C   -0.484246
     3  H    0.450826
     4  H    0.450826
 Sum of Mulliken atomic charges =   0.00000
 Mulliken charges with hydrogens summed into heavy atoms:
              1
     1  O   -0.417407
     2  C    0.417407
 Sum of Mulliken charges with hydrogens summed into heavy atoms =   0.00000
 Electronic spatial extent (au):  <R**2>=             60.6315
 Charge=              0.0000 electrons
 Dipole moment (field-independent basis, Debye):
    X=              0.0000    Y=              0.0000    Z=             -2.4421  Tot=              2.4421
 Quadrupole moment (field-independent basis, Debye-Ang):
   XX=            -11.7378   YY=            -11.6215   ZZ=            -12.2708
   XY=              0.0000   XZ=              0.0000   YZ=              0.0000
 Traceless Quadrupole moment (field-independent basis, Debye-Ang):
   XX=              0.1389   YY=              0.2552   ZZ=             -0.3941
   XY=              0.0000   XZ=              0.0000   YZ=              0.0000
 Octapole moment (field-independent basis, Debye-Ang**2):
  XXX=              0.0000  YYY=              0.0000  ZZZ=              0.3113  XYY=              0.0000
  XXY=              0.0000  XXZ=              0.5813  XZZ=              0.0000  YZZ=              0.0000
  YYZ=             -0.7023  XYZ=              0.0000
 Hexadecapole moment (field-independent basis, Debye-Ang**3):
 XXXX=            -10.5190 YYYY=            -18.2497 ZZZZ=            -46.2399 XXXY=              0.0000
 XXXZ=              0.0000 YYYX=              0.0000 YYYZ=              0.0000 ZZZX=              0.0000
 ZZZY=              0.0000 XXYY=             -5.1552 XXZZ=             -9.3942 YYZZ=            -10.4551
 XXYZ=              0.0000 YYXZ=              0.0000 ZZXY=              0.0000
 N-N= 3.130501104030D+01 E-N=-3.313620117763D+02  KE= 1.142316246435D+02
 1\1\GINC-TRAPISTA\SP\RQCISD-FC\Aug-CC-pVTZ\C1H2O1\BRUNS\20-Nov-2021\0\
 \# qcisd/aug-cc-pvtz nosymm density=current output=wfn\\h2co-wavefunct
 ion\\0,1\O,0,0.,0.,0.679252\C,0,0.,0.,-0.526911\H,0,0.,0.936614,-1.106
 62\H,0,0.,-0.936614,-1.10662\\Version=EM64L-G09RevB.01\HF=-113.9138264
 \MP2=-114.3163446\MP3=-114.3203637\MP4D=-114.3305858\MP4DQ=-114.321713
 2\MP4SDQ=-114.3269752\QCISD=-114.3269808\RMSD=2.900e-09\Dipole=0.,0.,-
 0.960797\Quadrupole=0.1032515,0.1897609,-0.2930124,0.,0.,0.\PG=C02V [C
 2(C1O1),SGV(H2)]\\@

 Writing a WFN file to GAUSSIAN.wfn.


 FRICTION IS A DRAG,
 AND ENTROPY AIN'T WHAT IT USED TO BE.
 Job cpu time:  0 days  0 hours 22 minutes 51.4 seconds.
 File lengths (MBytes):  RWF=   5787 Int=      0 D2E=      0 Chk=      2 Scr=      1
 Normal termination of Gaussian 09 at Sat Nov 20 17:17:01 2021.
