 h2co-wavefunction
GAUSSIAN            138 MOL ORBITALS    198 PRIMITIVES        4 NUCLEI
  O    1    (CENTRE  1)   0.00000000  0.00000000  1.28360026  CHARGE =  8.0
  C    2    (CENTRE  2)   0.00000000  0.00000000 -0.99571749  CHARGE =  6.0
  H    3    (CENTRE  3)   0.00000000  1.76994395 -2.07231147  CHARGE =  1.0
  H    4    (CENTRE  4)   0.00000000 -1.76994395 -2.09120873  CHARGE =  1.0
CENTRE ASSIGNMENTS    1  1  1  1  1  1  1  1  1  1  1  1  1  1  1  1  1  1  1  1
CENTRE ASSIGNMENTS    1  1  1  1  1  1  1  1  1  1  1  1  1  1  1  1  1  1  1  1
CENTRE ASSIGNMENTS    1  1  1  1  1  1  1  1  1  1  1  1  1  1  1  1  1  1  1  1
CENTRE ASSIGNMENTS    1  1  1  1  1  1  1  1  1  1  1  1  2  2  2  2  2  2  2  2
CENTRE ASSIGNMENTS    2  2  2  2  2  2  2  2  2  2  2  2  2  2  2  2  2  2  2  2
CENTRE ASSIGNMENTS    2  2  2  2  2  2  2  2  2  2  2  2  2  2  2  2  2  2  2  2
CENTRE ASSIGNMENTS    2  2  2  2  2  2  2  2  2  2  2  2  2  2  2  2  2  2  2  2
CENTRE ASSIGNMENTS    2  2  2  2  3  3  3  3  3  3  3  3  3  3  3  3  3  3  3  3
CENTRE ASSIGNMENTS    3  3  3  3  3  3  3  3  3  3  3  4  4  4  4  4  4  4  4  4
CENTRE ASSIGNMENTS    4  4  4  4  4  4  4  4  4  4  4  4  4  4  4  4  4  4
TYPE ASSIGNMENTS      1  1  1  1  1  1  1  1  1  1  1  1  1  1  1  1  2  2  2  3
TYPE ASSIGNMENTS      3  3  4  4  4  2  3  4  2  3  4  2  3  4  5  6  7  8  9 10
TYPE ASSIGNMENTS      5  6  7  8  9 10  5  6  7  8  9 10 11 12 13 17 14 15 18 19
TYPE ASSIGNMENTS     16 20 11 12 13 17 14 15 18 19 16 20  1  1  1  1  1  1  1  1
TYPE ASSIGNMENTS      1  1  1  1  1  1  1  1  2  2  2  3  3  3  4  4  4  2  3  4
TYPE ASSIGNMENTS      2  3  4  2  3  4  5  6  7  8  9 10  5  6  7  8  9 10  5  6
TYPE ASSIGNMENTS      7  8  9 10 11 12 13 17 14 15 18 19 16 20 11 12 13 17 14 15
TYPE ASSIGNMENTS     18 19 16 20  1  1  1  1  1  1  2  3  4  2  3  4  2  3  4  5
TYPE ASSIGNMENTS      6  7  8  9 10  5  6  7  8  9 10  1  1  1  1  1  1  2  3  4
TYPE ASSIGNMENTS      2  3  4  2  3  4  5  6  7  8  9 10  5  6  7  8  9 10
EXPONENTS  0.1533000D+05 0.2299000D+04 0.5224000D+03 0.1473000D+03 0.4755000D+02
EXPONENTS  0.1676000D+02 0.6207000D+01 0.5224000D+03 0.1473000D+03 0.4755000D+02
EXPONENTS  0.1676000D+02 0.6207000D+01 0.6882000D+00 0.1752000D+01 0.2384000D+00
EXPONENTS  0.7376000D-01 0.3446000D+02 0.7749000D+01 0.2280000D+01 0.3446000D+02
EXPONENTS  0.7749000D+01 0.2280000D+01 0.3446000D+02 0.7749000D+01 0.2280000D+01
EXPONENTS  0.7156000D+00 0.7156000D+00 0.7156000D+00 0.2140000D+00 0.2140000D+00
EXPONENTS  0.2140000D+00 0.5974000D-01 0.5974000D-01 0.5974000D-01 0.2314000D+01
EXPONENTS  0.2314000D+01 0.2314000D+01 0.2314000D+01 0.2314000D+01 0.2314000D+01
EXPONENTS  0.6450000D+00 0.6450000D+00 0.6450000D+00 0.6450000D+00 0.6450000D+00
EXPONENTS  0.6450000D+00 0.2140000D+00 0.2140000D+00 0.2140000D+00 0.2140000D+00
EXPONENTS  0.2140000D+00 0.2140000D+00 0.1428000D+01 0.1428000D+01 0.1428000D+01
EXPONENTS  0.1428000D+01 0.1428000D+01 0.1428000D+01 0.1428000D+01 0.1428000D+01
EXPONENTS  0.1428000D+01 0.1428000D+01 0.5000000D+00 0.5000000D+00 0.5000000D+00
EXPONENTS  0.5000000D+00 0.5000000D+00 0.5000000D+00 0.5000000D+00 0.5000000D+00
EXPONENTS  0.5000000D+00 0.5000000D+00 0.8236000D+04 0.1235000D+04 0.2808000D+03
EXPONENTS  0.7927000D+02 0.2559000D+02 0.8997000D+01 0.3319000D+01 0.2808000D+03
EXPONENTS  0.7927000D+02 0.2559000D+02 0.8997000D+01 0.3319000D+01 0.3643000D+00
EXPONENTS  0.9059000D+00 0.1285000D+00 0.4402000D-01 0.1871000D+02 0.4133000D+01
EXPONENTS  0.1200000D+01 0.1871000D+02 0.4133000D+01 0.1200000D+01 0.1871000D+02
EXPONENTS  0.4133000D+01 0.1200000D+01 0.3827000D+00 0.3827000D+00 0.3827000D+00
EXPONENTS  0.1209000D+00 0.1209000D+00 0.1209000D+00 0.3569000D-01 0.3569000D-01
EXPONENTS  0.3569000D-01 0.1097000D+01 0.1097000D+01 0.1097000D+01 0.1097000D+01
EXPONENTS  0.1097000D+01 0.1097000D+01 0.3180000D+00 0.3180000D+00 0.3180000D+00
EXPONENTS  0.3180000D+00 0.3180000D+00 0.3180000D+00 0.1000000D+00 0.1000000D+00
EXPONENTS  0.1000000D+00 0.1000000D+00 0.1000000D+00 0.1000000D+00 0.7610000D+00
EXPONENTS  0.7610000D+00 0.7610000D+00 0.7610000D+00 0.7610000D+00 0.7610000D+00
EXPONENTS  0.7610000D+00 0.7610000D+00 0.7610000D+00 0.7610000D+00 0.2680000D+00
EXPONENTS  0.2680000D+00 0.2680000D+00 0.2680000D+00 0.2680000D+00 0.2680000D+00
EXPONENTS  0.2680000D+00 0.2680000D+00 0.2680000D+00 0.2680000D+00 0.3387000D+02
EXPONENTS  0.5095000D+01 0.1159000D+01 0.3258000D+00 0.1027000D+00 0.2526000D-01
EXPONENTS  0.1407000D+01 0.1407000D+01 0.1407000D+01 0.3880000D+00 0.3880000D+00
EXPONENTS  0.3880000D+00 0.1020000D+00 0.1020000D+00 0.1020000D+00 0.1057000D+01
EXPONENTS  0.1057000D+01 0.1057000D+01 0.1057000D+01 0.1057000D+01 0.1057000D+01
EXPONENTS  0.2470000D+00 0.2470000D+00 0.2470000D+00 0.2470000D+00 0.2470000D+00
EXPONENTS  0.2470000D+00 0.3387000D+02 0.5095000D+01 0.1159000D+01 0.3258000D+00
EXPONENTS  0.1027000D+00 0.2526000D-01 0.1407000D+01 0.1407000D+01 0.1407000D+01
EXPONENTS  0.3880000D+00 0.3880000D+00 0.3880000D+00 0.1020000D+00 0.1020000D+00
EXPONENTS  0.1020000D+00 0.1057000D+01 0.1057000D+01 0.1057000D+01 0.1057000D+01
EXPONENTS  0.1057000D+01 0.1057000D+01 0.2470000D+00 0.2470000D+00 0.2470000D+00
EXPONENTS  0.2470000D+00 0.2470000D+00 0.2470000D+00
MO    1     MO 0.0        OCC NO =    2.0000076  ORB. ENERGY =    0.000000
 -0.26658703D+00 -0.49687438D+00 -0.84252034D+00 -0.12750649D+01 -0.15905430D+01
 -0.13649225D+01 -0.52269282D+00 -0.36166758D-04 -0.38804558D-03 -0.14304091D-02
 -0.41824322D-02 -0.50400342D-02  0.60712553D-02 -0.23674119D-01  0.68093091D-03
  0.13358891D-04  0.13932489D-13  0.13509828D-13  0.91136501D-14  0.31020909D-04
  0.30079847D-04  0.20291687D-04  0.14605282D-01  0.14162210D-01  0.95537434D-02
  0.56029240D-14  0.33479576D-05  0.18809800D-02 -0.10374665D-14  0.66328598D-06
  0.63165940D-03 -0.82304387D-16  0.30841529D-06  0.80549549D-05  0.92727648D-03
  0.11003355D-03 -0.10373100D-02  0.67420881D-14  0.14509219D-13  0.78293797D-05
  0.23046313D-03  0.12035591D-03 -0.35081903D-03  0.56171921D-16 -0.25507954D-14
 -0.20340227D-05  0.62509560D-04  0.11092554D-04 -0.73602114D-04 -0.47525496D-15
  0.10508361D-14 -0.86238368D-06 -0.91740992D-15 -0.22437607D-06 -0.10911990D-03
 -0.18113370D-14  0.40630757D-06  0.45157722D-03  0.45635668D-14  0.26682062D-06
 -0.12421753D-03  0.25394802D-14  0.33943125D-15 -0.53713364D-06  0.10508521D-03
 -0.19157003D-15 -0.60948815D-06 -0.16944014D-03 -0.82672370D-15  0.22208891D-05
 -0.14581550D-03  0.34650361D-15  0.27724411D+00  0.51683888D+00  0.87352812D+00
  0.13130757D+01  0.16128783D+01  0.13612124D+01  0.51185140D+00  0.32354572D-04
  0.24183038D-03  0.90377534D-03  0.25213925D-02  0.33779708D-02 -0.39887536D-02
  0.22784824D-01  0.53222671D-03  0.12416382D-03  0.31714202D-14  0.29734081D-14
  0.21172437D-14 -0.40992127D-04 -0.38432724D-04 -0.27366389D-04  0.20611755D-02
  0.19324831D-02  0.13760431D-02  0.46388280D-14  0.20289144D-04  0.25618242D-03
  0.28140384D-14  0.67098091D-05 -0.99128308D-04  0.59173049D-16 -0.95895638D-07
 -0.34465101D-05 -0.12317063D-02  0.25008774D-03  0.98161855D-03  0.11793541D-14
  0.83976800D-15 -0.12062786D-04  0.14579192D-03  0.15422439D-04 -0.16121436D-03
 -0.11726979D-14 -0.89174042D-16 -0.15002309D-04 -0.58325268D-05  0.18455611D-04
 -0.12623084D-04  0.10836649D-15 -0.14244781D-15 -0.12136640D-06 -0.18136307D-15
  0.32786772D-05  0.55448552D-03  0.78807058D-15 -0.46597308D-05 -0.49590331D-04
 -0.24398138D-15 -0.51763008D-05 -0.16138662D-02 -0.11883852D-14 -0.25565100D-15
 -0.10839437D-05 -0.11450484D-03  0.54596925D-15 -0.10949358D-05  0.43432048D-04
  0.22098376D-15  0.43467670D-05  0.30008248D-03  0.80731546D-15 -0.28035481D-03
 -0.50563144D-03 -0.74555326D-03 -0.24134633D-03 -0.46275792D-03 -0.11992397D-04
  0.98155409D-15  0.79336212D-03 -0.52154941D-03 -0.83439643D-15  0.23703608D-03
 -0.85309060D-04 -0.85372139D-15  0.44427127D-04 -0.56249403D-04  0.21511736D-03
 -0.36462704D-03  0.14950968D-03 -0.54645981D-15 -0.15105187D-15  0.86115739D-03
  0.48340436D-04 -0.14488820D-04 -0.33851616D-04  0.43968990D-15 -0.38752834D-15
 -0.25214658D-04 -0.27403142D-03 -0.49422695D-03 -0.72873735D-03 -0.19499118D-03
 -0.43811761D-03 -0.12031438D-04  0.22505254D-14 -0.77653982D-03 -0.52260592D-03
 -0.32897120D-14 -0.20640817D-03 -0.78611807D-04 -0.88723656D-15 -0.39609088D-04
 -0.54490591D-04  0.22023021D-03 -0.35244224D-03  0.13221203D-03  0.36815025D-15
  0.33773401D-14 -0.87891622D-03  0.46962985D-04 -0.12617285D-04 -0.34345701D-04
 -0.13027009D-14 -0.61831432D-15  0.27503038D-04
MO    2     MO 0.0        OCC NO =    2.0000041  ORB. ENERGY =    0.000000
  0.42291847D+00  0.78825049D+00  0.13365895D+01  0.20227860D+01  0.25232662D+01
  0.21653378D+01  0.82920933D+00  0.49663833D-04  0.53286034D-03  0.19642236D-02
  0.57432744D-02  0.69209250D-02 -0.83369875D-02  0.38638445D-01 -0.65614681D-03
 -0.81412110D-04 -0.21956549D-14 -0.21290467D-14 -0.14362423D-14 -0.62341117D-05
 -0.60449914D-05 -0.40779155D-05 -0.11008620D-01 -0.10674659D-01 -0.72010617D-02
 -0.25727652D-14  0.44853197D-05  0.14428190D-02 -0.38609786D-14  0.26522889D-05
  0.10105290D-03 -0.28243247D-15  0.12044584D-06  0.18253361D-05 -0.99713145D-03
 -0.58538590D-04  0.10556700D-02 -0.59791932D-14 -0.17946764D-13 -0.13776433D-05
  0.34701303D-03  0.53591488D-03 -0.88292791D-03  0.77505204D-15  0.54946084D-14
 -0.34834905D-05  0.33372542D-04 -0.70939417D-06 -0.32663148D-04 -0.19425240D-15
  0.17798954D-14 -0.15093042D-05 -0.12881284D-15 -0.40304857D-06  0.11011351D-03
  0.11667239D-15 -0.11942268D-05 -0.24156439D-03  0.26976614D-15  0.24033725D-05
 -0.88776145D-04 -0.10319837D-14  0.47349635D-15 -0.43498253D-06  0.12807558D-03
  0.96054339D-15  0.11734160D-06 -0.16599465D-03 -0.23810324D-14  0.11876060D-05
 -0.21823208D-03  0.55387014D-15  0.17465386D+00  0.32558999D+00  0.55029143D+00
  0.82719066D+00  0.10160556D+01  0.85751506D+00  0.32244805D+00  0.17334462D-04
  0.12956436D-03  0.48421160D-03  0.13508750D-02  0.18098000D-02 -0.21370364D-02
  0.14416541D-01  0.50367011D-03  0.94065970D-04 -0.27885196D-14 -0.26144144D-14
 -0.18616188D-14 -0.26206759D-04 -0.24570502D-04 -0.17495661D-04  0.11545191D-02
  0.10824351D-02  0.77075825D-03  0.28443681D-14  0.17200005D-04  0.16004927D-02
  0.13165615D-14  0.54314701D-06 -0.82093408D-05  0.43048884D-16 -0.97788095D-08
  0.56368022D-06 -0.10297907D-02 -0.29991177D-03  0.13297025D-02  0.16471405D-14
  0.17040003D-14 -0.11158508D-04  0.16054235D-04 -0.26036057D-03  0.24430634D-03
  0.19654518D-15  0.40510432D-14 -0.11191762D-04 -0.19921141D-05  0.41554156D-04
 -0.39562042D-04  0.51915974D-16  0.27002845D-15  0.52257488D-06 -0.90826963D-16
  0.42410126D-05  0.34881564D-03 -0.18196839D-14 -0.53153264D-05 -0.22634150D-03
  0.20921648D-14 -0.74077114D-05 -0.82010544D-03 -0.23970126D-14 -0.12859056D-15
  0.62322604D-07 -0.87021728D-05 -0.28959619D-15 -0.38943023D-06 -0.38609977D-04
  0.67536788D-15  0.20246242D-06  0.64716495D-04  0.20208527D-15 -0.14849395D-03
 -0.26781495D-03 -0.39489299D-03  0.99577972D-04 -0.35094751D-03 -0.76162466D-05
  0.16122441D-15  0.35481979D-03 -0.21850384D-03  0.49052413D-15 -0.62820069D-04
  0.11977084D-03 -0.61806287D-16 -0.89058679D-05 -0.83150261D-04  0.12474423D-03
 -0.13728265D-03  0.12538423D-04  0.57462339D-15  0.24945548D-15  0.41545720D-03
  0.34496487D-05  0.19690061D-05 -0.54186548D-05 -0.15454796D-15 -0.61049443D-16
 -0.31172435D-05 -0.14626363D-03 -0.26379248D-03 -0.38896186D-03  0.12781199D-03
 -0.34436604D-03 -0.73996492D-05 -0.75381744D-15 -0.34622899D-03 -0.21643573D-03
  0.67024140D-15  0.81592184D-04  0.13610184D-03 -0.42067416D-16  0.10660694D-04
 -0.81800581D-04  0.12235677D-03 -0.13579610D-03  0.13439328D-04 -0.22816964D-15
  0.16048787D-14 -0.40903102D-03  0.20336009D-05  0.28806085D-05 -0.49142093D-05
 -0.82151007D-16  0.80049033D-16  0.67416195D-05
MO    3     MO 0.0        OCC NO =    1.9805574  ORB. ENERGY =    0.000000
 -0.96612916D-01 -0.18007059D+00 -0.30533499D+00 -0.46209204D+00 -0.57642340D+00
 -0.49465703D+00 -0.18942736D+00 -0.16840196D-02 -0.18068425D-01 -0.66603616D-01
 -0.19474507D+00 -0.23467727D+00  0.28269364D+00  0.14926751D+00  0.75463995D-01
  0.44315480D-02 -0.82865381D-13 -0.80351546D-13 -0.54204678D-13  0.12925032D-02
  0.12532933D-02  0.84546425D-03 -0.25856151D-02 -0.25071769D-02 -0.16913267D-02
 -0.15298235D-13  0.29853598D-03 -0.81941919D-02  0.48737574D-14  0.71366226D-04
  0.80267345D-02  0.81720708D-16  0.46225218D-05  0.87354729D-04 -0.14850498D-01
 -0.15854136D-01  0.30704635D-01  0.19737409D-14  0.24120840D-13 -0.16770897D-03
 -0.42694527D-02 -0.51412791D-02  0.94107317D-02  0.16352183D-15 -0.80169059D-14
 -0.37013021D-04  0.45794488D-03  0.50834918D-03 -0.96629406D-03  0.25118262D-15
 -0.33317823D-14 -0.14737995D-04  0.16717059D-14 -0.15552043D-04 -0.89284228D-02
  0.25503326D-14 -0.18922635D-06  0.14292300D-01 -0.75654504D-14  0.46845355D-04
  0.12492968D-01 -0.49420771D-14 -0.95126950D-15 -0.13258665D-05 -0.36275957D-03
 -0.17438180D-14 -0.45834553D-06  0.23543692D-04  0.45976265D-14  0.44359451D-05
  0.10647350D-02  0.48792889D-16 -0.28245197D-01 -0.52654736D-01 -0.88993678D-01
 -0.13377410D+00 -0.16431752D+00 -0.13867819D+00 -0.52146620D-01 -0.59386011D-03
 -0.44387364D-02 -0.16588571D-01 -0.46279531D-01 -0.62001812D-01  0.73212579D-01
  0.30169751D-01  0.19278296D-01  0.41906993D-03 -0.20375855D-13 -0.19103659D-13
 -0.13602943D-13  0.10032161D-02  0.94057890D-03  0.66974821D-03  0.10553799D+00
  0.98948572D-01  0.70457278D-01 -0.12484933D-13  0.42843191D-03  0.64509886D-02
 -0.45526758D-14  0.48551691D-04 -0.40066873D-02 -0.88238866D-16 -0.15106628D-05
 -0.55402355D-04 -0.18357207D-01 -0.78358680D-02  0.26193075D-01 -0.79275292D-16
 -0.30884410D-14 -0.61498239D-04 -0.31566453D-02  0.25956033D-02  0.56104202D-03
  0.36391197D-14 -0.94556500D-14 -0.48508750D-04  0.13992271D-04  0.49087863D-03
 -0.50487090D-03 -0.37877511D-16  0.47575080D-16 -0.34514191D-05  0.80996665D-15
  0.14333739D-04  0.43484637D-02  0.14547187D-14 -0.18061829D-04 -0.95939707D-03
 -0.38846186D-14 -0.24939388D-04 -0.12085994D-01 -0.49677542D-14  0.30777514D-15
  0.62131053D-05 -0.28225751D-04  0.11471806D-14 -0.46036041D-05  0.44060252D-03
 -0.20705060D-14 -0.14035712D-04 -0.35592527D-03 -0.10528800D-14  0.65992762D-02
  0.11902066D-01  0.17549590D-01 -0.16578235D-03 -0.59932354D-02 -0.78823157D-04
  0.20750753D-14 -0.28930404D-02  0.23662807D-02 -0.58189924D-14  0.43135987D-02
 -0.41612229D-02  0.84383199D-15  0.58499831D-03 -0.14795463D-02  0.49077790D-03
 -0.11048496D-02  0.61407171D-03  0.58340919D-14 -0.35275508D-14  0.19275403D-02
  0.34948183D-03 -0.87520287D-04 -0.26196154D-03  0.33932526D-15 -0.99319837D-15
  0.96653112D-03  0.64670161D-02  0.11663530D-01  0.17197868D-01 -0.25394506D-05
 -0.58360846D-02 -0.82493530D-04 -0.34741357D-15  0.27963280D-02  0.22549245D-02
  0.10076581D-14 -0.41417873D-02 -0.40735787D-02  0.10209139D-14 -0.55207741D-03
 -0.14750532D-02  0.52183537D-03 -0.10656383D-02  0.54380289D-03  0.11271078D-14
  0.11083408D-14 -0.20456172D-02  0.34139034D-03 -0.71857715D-04 -0.26953263D-03
  0.12692576D-14 -0.32073056D-15 -0.94090690D-03
MO    4     MO 0.0        OCC NO =    1.9669533  ORB. ENERGY =    0.000000
  0.36296512D-01  0.67650730D-01  0.11471132D+00  0.17360339D+00  0.21655654D+00
  0.18583773D+00  0.71165977D-01  0.69387873D-03  0.74448634D-02  0.27443168D-01
  0.80242214D-01  0.96695770D-01 -0.11648030D+00 -0.66112970D-01 -0.54224965D-01
 -0.30574823D-02  0.12786775D-12  0.12398871D-12  0.83642050D-13  0.49709894D-01
  0.48201876D-01  0.32516701D-01 -0.67226830D+00 -0.65187411D+00 -0.43975043D+00
  0.33582647D-13  0.11736360D-01 -0.15079093D+00 -0.45531268D-14  0.18285338D-02
 -0.15633721D-01 -0.33056011D-15  0.57315118D-04 -0.10880044D-03 -0.19374410D-01
 -0.19110341D-01  0.38484751D-01 -0.56066275D-14 -0.30806404D-13 -0.42663671D-02
 -0.35099297D-02 -0.39611310D-02  0.74710607D-02  0.98228091D-15  0.47363067D-14
 -0.11723878D-02  0.53820707D-05 -0.13667267D-03  0.13129060D-03  0.85376830D-16
  0.37138559D-14 -0.98775973D-04 -0.42616346D-14 -0.52250148D-03 -0.59504341D-02
 -0.27897658D-15 -0.41820003D-04  0.58006434D-02  0.13063880D-13  0.16093244D-02
  0.12050659D-01 -0.52218750D-14  0.15082348D-14 -0.38592906D-04 -0.13546262D-03
  0.68985727D-15  0.19416865D-04 -0.22166069D-03 -0.52145618D-14  0.96361853D-04
  0.62804856D-03 -0.12538511D-15 -0.49430174D-01 -0.92147803D-01 -0.15574234D+00
 -0.23410979D+00 -0.28756194D+00 -0.24269213D+00 -0.91258580D-01 -0.12009256D-02
 -0.89761749D-02 -0.33546015D-01 -0.93588159D-01 -0.12538233D+00  0.14805315D+00
  0.64285934D-01  0.46001429D-01  0.11062427D-02  0.36227203D-13  0.33965306D-13
  0.24185321D-13  0.20070394D-01  0.18817270D-01  0.13399017D-01 -0.11553083D+00
 -0.10831750D+00 -0.77128510D-01  0.19583920D-13  0.51823032D-02 -0.32024470D-01
  0.49896283D-14  0.45014536D-03 -0.56500888D-02  0.53091399D-16 -0.11295601D-04
 -0.53104225D-05 -0.17528512D-01  0.14588759D-01  0.29397538D-02 -0.10093886D-14
  0.56701064D-14  0.62101250D-03 -0.45565258D-02  0.49788027D-02 -0.42227684D-03
  0.27792261D-14  0.88703514D-14 -0.31773063D-03 -0.95138521D-04  0.19907356D-04
  0.75231165D-04  0.20838487D-15  0.57052572D-15 -0.56197005D-04 -0.67352485D-15
 -0.12750319D-03  0.42341960D-02 -0.14362185D-14 -0.22198414D-03  0.61526352D-03
  0.34567930D-14  0.60449369D-03 -0.13317851D-01 -0.20948940D-14 -0.52821965D-15
 -0.83903482D-05  0.28622342D-03 -0.57091825D-16 -0.23674644D-04  0.64287523D-03
  0.16417508D-14  0.48845689D-04 -0.15015455D-02 -0.13639253D-14  0.25492305D-01
  0.45976421D-01  0.67792206D-01  0.27922531D-01 -0.43315172D-02 -0.80483146D-04
  0.35039195D-14 -0.18552653D-01  0.94255534D-02 -0.34411988D-14  0.49762780D-03
 -0.19003876D-02 -0.72725150D-15  0.14144930D-02 -0.49874758D-03 -0.17517327D-02
  0.20223175D-02 -0.27058472D-03  0.22806785D-14 -0.20757932D-14 -0.33678412D-02
  0.29748028D-03 -0.15781678D-03 -0.13966350D-03  0.89570466D-15 -0.36742856D-15
  0.59037185D-03  0.23416460D-01  0.42232550D-01  0.62271871D-01  0.25879301D-01
 -0.38823986D-02 -0.10405955D-03  0.56525999D-15  0.17159773D-01  0.81771639D-02
  0.25129266D-14  0.83022071D-04 -0.20080440D-02  0.22148962D-15 -0.13081080D-02
 -0.52975771D-03 -0.15543321D-02  0.21131196D-02 -0.55878756D-03  0.10295872D-14
  0.12513091D-14  0.25811167D-02  0.26903663D-03 -0.10509452D-03 -0.16394210D-03
  0.75841337D-15  0.13452318D-15 -0.52260127D-03
MO    5     MO 0.0        OCC NO =    1.9654145  ORB. ENERGY =    0.000000
 -0.13855813D-02 -0.25824957D-02 -0.43789843D-02 -0.66271271D-02 -0.82668187D-02
 -0.70941603D-02 -0.27166865D-02 -0.26982846D-04 -0.28950823D-03 -0.10671818D-02
 -0.31203771D-02 -0.37602061D-02  0.45295668D-02  0.25958789D-02  0.23063513D-02
  0.11846471D-03  0.68118138D-14  0.66051680D-14  0.44558073D-14  0.13253554D+01
  0.12851490D+01  0.86695389D+00  0.30644038D-01  0.29714409D-01  0.20045165D-01
  0.32479997D-15  0.31320771D+00  0.68871424D-02  0.69667762D-14  0.50116291D-01
  0.67258962D-03  0.83095008D-15  0.15627939D-02  0.69449456D-05  0.90406329D-03
  0.89619497D-03 -0.18002583D-02  0.40761890D-15 -0.19715530D-14 -0.10102915D+00
  0.17724443D-03  0.18928080D-03 -0.36652523D-03  0.41941173D-16 -0.16752194D-14
 -0.28408048D-01 -0.16555619D-05  0.50867313D-05 -0.34311694D-05 -0.76423342D-16
 -0.37597792D-14 -0.26283838D-02  0.39432980D-14 -0.12926036D-01  0.27920354D-03
  0.29036666D-14  0.88455493D-04 -0.29782099D-03 -0.14733561D-13  0.38689653D-01
 -0.53978962D-03 -0.11655967D-14 -0.99614915D-15 -0.96638459D-03  0.85989539D-05
 -0.99147360D-15  0.42973579D-03  0.73195489D-06  0.39799211D-14  0.24694180D-02
 -0.26528817D-04  0.27446318D-16  0.21846876D-02  0.40726977D-02  0.68834140D-02
  0.10347055D-01  0.12709504D-01  0.10726373D-01  0.40333963D-02  0.52917857D-04
  0.39552819D-03  0.14781792D-02  0.41238897D-02  0.55248753D-02 -0.65238475D-02
 -0.27717661D-02 -0.22470537D-02 -0.70591024D-04  0.29109459D-14  0.27291968D-14
  0.19433507D-14  0.40723564D+00  0.38180930D+00  0.27187097D+00  0.43274001D-02
  0.40572127D-02  0.28889771D-02 -0.45755240D-14  0.10538033D+00  0.12959190D-02
 -0.29450717D-14  0.62471920D-02  0.25560246D-03 -0.17563811D-15 -0.33251419D-03
 -0.65362888D-06  0.75684704D-03 -0.44831586D-03 -0.30853118D-03 -0.40304588D-15
  0.21738804D-14  0.28484471D-01  0.20624438D-03 -0.16873810D-03 -0.37506274D-04
  0.14605019D-14 -0.59860331D-14 -0.38721087D-02  0.57792783D-05 -0.94917548D-05
  0.37124764D-05  0.32245372D-15 -0.74552840D-15 -0.88971155D-03  0.10699042D-15
 -0.38764594D-02 -0.20744946D-03 -0.39978624D-15 -0.54375005D-02 -0.52005492D-04
  0.78814980D-16  0.17066879D-01  0.67435387D-03 -0.22459016D-14  0.19387622D-15
 -0.37154532D-03 -0.12178626D-04  0.55511393D-15 -0.32014346D-03 -0.29512850D-04
 -0.11367426D-14  0.14347794D-02  0.66048729D-04 -0.67348604D-15  0.17579773D-01
  0.31705844D-01  0.46750248D-01  0.18474904D-01 -0.11858487D-02  0.35598711D-03
  0.27105093D-14 -0.10958399D-01  0.13528501D-01 -0.25180985D-14  0.55229798D-02
  0.19123991D-02 -0.47015526D-15  0.40851746D-03  0.67554866D-03 -0.18004404D-02
 -0.14551270D-02  0.32555674D-02  0.14458099D-14 -0.47324036D-15 -0.83613714D-02
  0.30473030D-03 -0.46594796D-03  0.16121766D-03  0.46393487D-15 -0.48820237D-15
  0.83867022D-03 -0.19477381D-01 -0.35128258D-01 -0.51796597D-01 -0.20639950D-01
  0.17158295D-02 -0.34351289D-03 -0.13913768D-15 -0.12119783D-01 -0.14092254D-01
  0.38829501D-15  0.55216450D-02 -0.17096270D-02  0.57901873D-15  0.52281716D-03
 -0.57478644D-03  0.19306136D-02  0.13569236D-02 -0.32875373D-02  0.85974945D-15
 -0.73000352D-15 -0.84406779D-02 -0.32376776D-03  0.47276592D-03 -0.14899816D-03
  0.22503414D-15  0.37827174D-15  0.90521629D-03
MO    6     MO 0.0        OCC NO =    1.9601351  ORB. ENERGY =    0.000000
  0.19079284D-02  0.35560647D-02  0.60298075D-02  0.91254725D-02  0.11383308D-01
  0.97685715D-02  0.37408439D-02 -0.33059820D-04 -0.35471017D-03 -0.13075285D-02
 -0.38231366D-02 -0.46070655D-02  0.55496986D-02  0.77832988D-02  0.28816192D-01
  0.63496543D-02 -0.75223973D-13 -0.72941950D-13 -0.49206208D-13 -0.21444355D-01
 -0.20793811D-01 -0.14027382D-01  0.13848940D+01  0.13428814D+01  0.90589983D+00
 -0.16093687D-13 -0.50095193D-02  0.32031653D+00  0.73316450D-15 -0.89442021D-03
  0.38272957D-01  0.17344209D-16 -0.34252816D-04  0.15796746D-03  0.42028175D-01
  0.43851621D-01 -0.85879796D-01  0.13252569D-13  0.14664965D-13  0.17814522D-03
  0.10453136D-01  0.11810117D-01 -0.22263254D-01 -0.16560070D-14 -0.19723789D-14
  0.49541453D-04  0.27327584D-03  0.51029575D-03 -0.78357158D-03  0.69878916D-16
 -0.11476699D-14  0.17011832D-04  0.75912848D-15  0.63724378D-04  0.15697626D-01
  0.28191323D-14 -0.18134756D-03 -0.15974881D-01 -0.50965177D-14 -0.98255742D-05
 -0.31117997D-01  0.96348484D-15 -0.41386954D-15  0.74736526D-05  0.20162001D-02
 -0.39167261D-15  0.13795704D-04 -0.24853804D-02  0.16332812D-14 -0.36216662D-04
 -0.35632198D-02  0.54214263D-15  0.53481057D-02  0.99699464D-02  0.16850568D-01
  0.25329546D-01  0.31112811D-01  0.26258115D-01  0.98737368D-02  0.92232437D-04
  0.68938033D-03  0.25763717D-02  0.71876758D-02  0.96295040D-02 -0.11370649D-01
 -0.64264030D-02  0.16300530D-01  0.17040217D-04 -0.20715165D-13 -0.19421784D-13
 -0.13829467D-13  0.61773845D-02  0.57916906D-02  0.41240287D-02 -0.52310547D+00
 -0.49044463D+00 -0.34922579D+00 -0.87508954D-14  0.16505737D-02 -0.10869988D+00
 -0.20746039D-14  0.40061970D-03 -0.86462892D-02 -0.55133462D-17  0.10898149D-04
 -0.41482252D-04  0.84139442D-02  0.28643490D-01 -0.37057434D-01 -0.87931521D-15
 -0.42301452D-14 -0.17842593D-02  0.20973269D-03  0.25108899D-02 -0.27206226D-02
 -0.13011388D-15 -0.37735699D-14 -0.49620221D-03 -0.15480495D-03  0.13987739D-03
  0.14927558D-04  0.90609665D-16 -0.11091195D-15 -0.51038412D-04 -0.34772574D-16
  0.97916226D-04 -0.58802687D-02  0.16418042D-14 -0.52536068D-04  0.64411240D-02
 -0.15374865D-14 -0.24121261D-03  0.11199682D-01  0.35513606D-14  0.19299543D-15
  0.21849683D-04  0.76969296D-03  0.21438529D-15 -0.78473989D-05 -0.19413111D-03
 -0.79337157D-15 -0.57701650D-04 -0.21149478D-02  0.82230852D-16  0.18706516D-01
  0.33737972D-01  0.49746620D-01  0.31433963D-01  0.51059565D-03  0.98418906D-07
 -0.69467944D-15 -0.17702502D-01  0.33938414D-02 -0.38605845D-15 -0.56886421D-02
  0.60271851D-03 -0.10286351D-15  0.38043803D-03 -0.28297531D-03 -0.13848614D-02
  0.53866117D-02 -0.40017503D-02 -0.13394984D-14 -0.60360362D-15 -0.41020122D-02
 -0.55498115D-03  0.34947062D-05  0.55148644D-03  0.14256683D-15 -0.18347759D-15
  0.48848965D-04  0.17619587D-01  0.31777650D-01  0.46856126D-01  0.29924804D-01
  0.83819464D-03  0.21867301D-04 -0.91452788D-15  0.17120140D-01  0.33893575D-02
 -0.52502176D-15  0.57742170D-02  0.83379044D-03  0.45736248D-15 -0.27768075D-03
 -0.23655512D-03 -0.14693296D-02  0.52158360D-02 -0.37465064D-02 -0.45832652D-14
 -0.13185692D-14  0.45066602D-02 -0.55261115D-03  0.11958829D-04  0.54065232D-03
  0.27711586D-15 -0.19658512D-16 -0.43925727D-04
MO    7     MO 0.0        OCC NO =    1.9568636  ORB. ENERGY =    0.000000
  0.12497980D-03  0.23294180D-03  0.39498555D-03  0.59776864D-03  0.74566926D-03
  0.63989516D-03  0.24504585D-03  0.14512241D-05  0.15570682D-04  0.57396467D-04
  0.16782390D-03  0.20223596D-03 -0.24361465D-03 -0.65488990D-04  0.27723711D-03
  0.31402081D-04 -0.30984906D-13 -0.30044936D-13 -0.20268136D-13  0.11814311D+01
  0.11455908D+01  0.77280878D+00  0.17283362D-01  0.16759047D-01  0.11305554D-01
 -0.72737304D-14  0.27897134D+00  0.40327865D-02  0.14315201D-14  0.50434073D-01
  0.45445888D-03  0.43709854D-15  0.17122756D-02  0.28368491D-05  0.60105355D-03
  0.53447202D-03 -0.11355256D-02  0.13916894D-15  0.25699561D-14 -0.12005194D-01
  0.14149975D-03  0.16945612D-03 -0.31095587D-03  0.72226000D-15  0.12738375D-15
 -0.30637405D-02  0.82186455D-06  0.99447917D-05 -0.10766656D-04  0.48966326D-15
 -0.98896858D-15 -0.67984391D-03  0.51197428D-15 -0.42487509D-02  0.21542024D-03
 -0.12663579D-14  0.88463757D-02 -0.23653720D-03 -0.26956492D-15  0.38998770D-02
 -0.40972351D-03  0.59177174D-14 -0.82327873D-16 -0.31357882D-03  0.34147296D-04
  0.16941421D-15 -0.35945259D-03 -0.35465529D-04  0.77569410D-16  0.13001890D-02
 -0.66976358D-04 -0.13011193D-14 -0.15549121D-03 -0.28986695D-03 -0.48991464D-03
 -0.73643307D-03 -0.90457613D-03 -0.76343034D-03 -0.28706974D-03 -0.41503490D-05
 -0.31021287D-04 -0.11593363D-03 -0.32343679D-03 -0.43331612D-03  0.51166554D-03
  0.15071687D-03  0.11591763D-03  0.50367620D-06 -0.75691295D-14 -0.70965400D-14
 -0.50531593D-14 -0.36045078D+00 -0.33794552D+00 -0.24063734D+00 -0.89378944D-02
 -0.83798441D-02 -0.59669482D-02 -0.36243456D-14 -0.98961277D-01 -0.19289008D-02
 -0.14342855D-14 -0.25866454D-01 -0.18814363D-03 -0.11012112D-15 -0.51091791D-03
 -0.11135620D-05  0.43930740D-04  0.19802894D-03 -0.24195968D-03  0.33187020D-15
  0.47084958D-15  0.11079624D+00 -0.94559891D-06 -0.31566504D-04  0.32512103D-04
 -0.14646611D-14 -0.21641834D-14  0.31852516D-01 -0.35360026D-05 -0.14345445D-04
  0.17881448D-04 -0.44565213D-15 -0.41495275D-15  0.34101051D-02 -0.51274640D-15
 -0.37096569D-02 -0.49728042D-04  0.16569935D-15  0.27362934D-02  0.12436792D-03
  0.13725398D-14  0.83926773D-02  0.24816211D-04  0.12365104D-14  0.15396421D-15
 -0.59780560D-03  0.92799922D-05  0.19826276D-15  0.81123978D-03  0.24406054D-05
 -0.66015538D-15  0.98217702D-03 -0.30280582D-04 -0.12457713D-15 -0.34165584D-01
 -0.61619039D-01 -0.90857236D-01 -0.51142654D-01  0.11150407D-01  0.44615914D-03
 -0.38251944D-15  0.14745946D-01 -0.10297955D-01  0.29644206D-15 -0.34151447D-02
  0.20612991D-02  0.69689319D-15 -0.35211894D-02  0.16657618D-02  0.62574371D-03
 -0.14592569D-02  0.83351317D-03  0.38964432D-15 -0.90740311D-15  0.29048102D-02
  0.44207427D-05  0.35599109D-03 -0.36041183D-03 -0.30099563D-15  0.67903002D-15
  0.62462709D-04  0.34943691D-01  0.63022386D-01  0.92926471D-01  0.52913903D-01
 -0.10725050D-01 -0.44182333D-03  0.94356226D-15  0.15287164D-01  0.10607926D-01
 -0.10118148D-14 -0.31196855D-02 -0.20305094D-02 -0.75912227D-15 -0.35201820D-02
 -0.16692584D-02 -0.72869417D-03  0.16512383D-02 -0.92254414D-03 -0.87367950D-15
 -0.12224894D-14  0.31707390D-02 -0.93368241D-05 -0.35545939D-03  0.36479622D-03
 -0.36836523D-15 -0.47973823D-15  0.45041324D-04
MO    8     MO 0.0        OCC NO =    1.9226238  ORB. ENERGY =    0.000000
 -0.46483155D-14 -0.86636958D-14 -0.14690514D-13 -0.22232530D-13 -0.27733329D-13
 -0.23799322D-13 -0.91138761D-14 -0.12070453D-15 -0.12950803D-14 -0.47739100D-14
 -0.13958633D-13 -0.16820831D-13  0.20262474D-13  0.13881343D-13 -0.54537055D-13
 -0.22033139D-13  0.13789907D+01  0.13371571D+01  0.90203826D+00  0.23109666D-13
  0.22408602D-13  0.15116711D-13  0.12278416D-12  0.11905933D-12  0.80316724D-13
  0.33236244D+00 -0.11065921D-14  0.54785370D-13  0.48473742D-01 -0.72537769D-14
  0.28397682D-13  0.88581911D-03 -0.68967143D-15  0.22260614D-14  0.12965875D-13
  0.24096786D-14 -0.15375554D-13 -0.21355205D-04 -0.12441761D+00 -0.29995326D-13
 -0.11723822D-14  0.54297121D-14 -0.42573299D-14 -0.51671296D-05 -0.37382955D-01
  0.20102878D-13  0.27635590D-15  0.22226295D-14 -0.24989854D-14  0.19309499D-05
 -0.23659025D-02  0.32361832D-14 -0.61173489D-02 -0.13548124D-14  0.10890524D-14
 -0.22234095D-01  0.19698132D-14 -0.58523023D-14  0.40586141D-01  0.20946241D-14
  0.25851451D-14  0.45690524D-04 -0.36302083D-03  0.21654527D-14  0.55658281D-15
 -0.15463235D-02  0.16944210D-14  0.18850409D-14  0.26353860D-02 -0.81907793D-14
 -0.35547894D-14  0.49650339D-05  0.57649625D-14  0.10747051D-13  0.18163981D-13
  0.27303851D-13  0.33537891D-13  0.28304797D-13  0.10643343D-13 -0.14173693D-15
 -0.10593957D-14 -0.39592037D-14 -0.11045562D-13 -0.14798008D-13  0.17473688D-13
 -0.27299355D-13  0.19453973D-12  0.23718090D-13  0.41548225D+00  0.38954101D+00
  0.27737641D+00 -0.14722781D-13 -0.13803543D-13 -0.98289447D-14 -0.10752241D-13
 -0.10080910D-13 -0.71782082D-14  0.10667870D+00  0.14545117D-13 -0.18198692D-13
  0.12624502D-01 -0.42509746D-14 -0.14900747D-13  0.39317990D-04  0.33165771D-15