 h2co-wavefunction
GAUSSIAN            138 MOL ORBITALS    198 PRIMITIVES        4 NUCLEI
  O    1    (CENTRE  1)   0.00000000  0.00000000  1.28360026  CHARGE =  8.0
  C    2    (CENTRE  2)   0.01889726  0.00000000 -0.99571749  CHARGE =  6.0
  H    3    (CENTRE  3)   0.00000000  1.76994395 -2.09120873  CHARGE =  1.0
  H    4    (CENTRE  4)   0.00000000 -1.76994395 -2.09120873  CHARGE =  1.0
CENTRE ASSIGNMENTS    1  1  1  1  1  1  1  1  1  1  1  1  1  1  1  1  1  1  1  1
CENTRE ASSIGNMENTS    1  1  1  1  1  1  1  1  1  1  1  1  1  1  1  1  1  1  1  1
CENTRE ASSIGNMENTS    1  1  1  1  1  1  1  1  1  1  1  1  1  1  1  1  1  1  1  1
CENTRE ASSIGNMENTS    1  1  1  1  1  1  1  1  1  1  1  1  2  2  2  2  2  2  2  2
CENTRE ASSIGNMENTS    2  2  2  2  2  2  2  2  2  2  2  2  2  2  2  2  2  2  2  2
CENTRE ASSIGNMENTS    2  2  2  2  2  2  2  2  2  2  2  2  2  2  2  2  2  2  2  2
CENTRE ASSIGNMENTS    2  2  2  2  2  2  2  2  2  2  2  2  2  2  2  2  2  2  2  2
CENTRE ASSIGNMENTS    2  2  2  2  3  3  3  3  3  3  3  3  3  3  3  3  3  3  3  3
CENTRE ASSIGNMENTS    3  3  3  3  3  3  3  3  3  3  3  4  4  4  4  4  4  4  4  4
CENTRE ASSIGNMENTS    4  4  4  4  4  4  4  4  4  4  4  4  4  4  4  4  4  4
TYPE ASSIGNMENTS      1  1  1  1  1  1  1  1  1  1  1  1  1  1  1  1  2  2  2  3
TYPE ASSIGNMENTS      3  3  4  4  4  2  3  4  2  3  4  2  3  4  5  6  7  8  9 10
TYPE ASSIGNMENTS      5  6  7  8  9 10  5  6  7  8  9 10 11 12 13 17 14 15 18 19
TYPE ASSIGNMENTS     16 20 11 12 13 17 14 15 18 19 16 20  1  1  1  1  1  1  1  1
TYPE ASSIGNMENTS      1  1  1  1  1  1  1  1  2  2  2  3  3  3  4  4  4  2  3  4
TYPE ASSIGNMENTS      2  3  4  2  3  4  5  6  7  8  9 10  5  6  7  8  9 10  5  6
TYPE ASSIGNMENTS      7  8  9 10 11 12 13 17 14 15 18 19 16 20 11 12 13 17 14 15
TYPE ASSIGNMENTS     18 19 16 20  1  1  1  1  1  1  2  3  4  2  3  4  2  3  4  5
TYPE ASSIGNMENTS      6  7  8  9 10  5  6  7  8  9 10  1  1  1  1  1  1  2  3  4
TYPE ASSIGNMENTS      2  3  4  2  3  4  5  6  7  8  9 10  5  6  7  8  9 10
EXPONENTS  0.1533000D+05 0.2299000D+04 0.5224000D+03 0.1473000D+03 0.4755000D+02
EXPONENTS  0.1676000D+02 0.6207000D+01 0.5224000D+03 0.1473000D+03 0.4755000D+02
EXPONENTS  0.1676000D+02 0.6207000D+01 0.6882000D+00 0.1752000D+01 0.2384000D+00
EXPONENTS  0.7376000D-01 0.3446000D+02 0.7749000D+01 0.2280000D+01 0.3446000D+02
EXPONENTS  0.7749000D+01 0.2280000D+01 0.3446000D+02 0.7749000D+01 0.2280000D+01
EXPONENTS  0.7156000D+00 0.7156000D+00 0.7156000D+00 0.2140000D+00 0.2140000D+00
EXPONENTS  0.2140000D+00 0.5974000D-01 0.5974000D-01 0.5974000D-01 0.2314000D+01
EXPONENTS  0.2314000D+01 0.2314000D+01 0.2314000D+01 0.2314000D+01 0.2314000D+01
EXPONENTS  0.6450000D+00 0.6450000D+00 0.6450000D+00 0.6450000D+00 0.6450000D+00
EXPONENTS  0.6450000D+00 0.2140000D+00 0.2140000D+00 0.2140000D+00 0.2140000D+00
EXPONENTS  0.2140000D+00 0.2140000D+00 0.1428000D+01 0.1428000D+01 0.1428000D+01
EXPONENTS  0.1428000D+01 0.1428000D+01 0.1428000D+01 0.1428000D+01 0.1428000D+01
EXPONENTS  0.1428000D+01 0.1428000D+01 0.5000000D+00 0.5000000D+00 0.5000000D+00
EXPONENTS  0.5000000D+00 0.5000000D+00 0.5000000D+00 0.5000000D+00 0.5000000D+00
EXPONENTS  0.5000000D+00 0.5000000D+00 0.8236000D+04 0.1235000D+04 0.2808000D+03
EXPONENTS  0.7927000D+02 0.2559000D+02 0.8997000D+01 0.3319000D+01 0.2808000D+03
EXPONENTS  0.7927000D+02 0.2559000D+02 0.8997000D+01 0.3319000D+01 0.3643000D+00
EXPONENTS  0.9059000D+00 0.1285000D+00 0.4402000D-01 0.1871000D+02 0.4133000D+01
EXPONENTS  0.1200000D+01 0.1871000D+02 0.4133000D+01 0.1200000D+01 0.1871000D+02
EXPONENTS  0.4133000D+01 0.1200000D+01 0.3827000D+00 0.3827000D+00 0.3827000D+00
EXPONENTS  0.1209000D+00 0.1209000D+00 0.1209000D+00 0.3569000D-01 0.3569000D-01
EXPONENTS  0.3569000D-01 0.1097000D+01 0.1097000D+01 0.1097000D+01 0.1097000D+01
EXPONENTS  0.1097000D+01 0.1097000D+01 0.3180000D+00 0.3180000D+00 0.3180000D+00
EXPONENTS  0.3180000D+00 0.3180000D+00 0.3180000D+00 0.1000000D+00 0.1000000D+00
EXPONENTS  0.1000000D+00 0.1000000D+00 0.1000000D+00 0.1000000D+00 0.7610000D+00
EXPONENTS  0.7610000D+00 0.7610000D+00 0.7610000D+00 0.7610000D+00 0.7610000D+00
EXPONENTS  0.7610000D+00 0.7610000D+00 0.7610000D+00 0.7610000D+00 0.2680000D+00
EXPONENTS  0.2680000D+00 0.2680000D+00 0.2680000D+00 0.2680000D+00 0.2680000D+00
EXPONENTS  0.2680000D+00 0.2680000D+00 0.2680000D+00 0.2680000D+00 0.3387000D+02
EXPONENTS  0.5095000D+01 0.1159000D+01 0.3258000D+00 0.1027000D+00 0.2526000D-01
EXPONENTS  0.1407000D+01 0.1407000D+01 0.1407000D+01 0.3880000D+00 0.3880000D+00
EXPONENTS  0.3880000D+00 0.1020000D+00 0.1020000D+00 0.1020000D+00 0.1057000D+01
EXPONENTS  0.1057000D+01 0.1057000D+01 0.1057000D+01 0.1057000D+01 0.1057000D+01
EXPONENTS  0.2470000D+00 0.2470000D+00 0.2470000D+00 0.2470000D+00 0.2470000D+00
EXPONENTS  0.2470000D+00 0.3387000D+02 0.5095000D+01 0.1159000D+01 0.3258000D+00
EXPONENTS  0.1027000D+00 0.2526000D-01 0.1407000D+01 0.1407000D+01 0.1407000D+01
EXPONENTS  0.3880000D+00 0.3880000D+00 0.3880000D+00 0.1020000D+00 0.1020000D+00
EXPONENTS  0.1020000D+00 0.1057000D+01 0.1057000D+01 0.1057000D+01 0.1057000D+01
EXPONENTS  0.1057000D+01 0.1057000D+01 0.2470000D+00 0.2470000D+00 0.2470000D+00
EXPONENTS  0.2470000D+00 0.2470000D+00 0.2470000D+00
MO    1     MO 0.0        OCC NO =    2.0000076  ORB. ENERGY =    0.000000
 -0.26740042D+00 -0.49839042D+00 -0.84509099D+00 -0.12789554D+01 -0.15953960D+01
 -0.13690871D+01 -0.52428763D+00 -0.36277829D-04 -0.38923730D-03 -0.14348020D-02
 -0.41952768D-02 -0.50555125D-02  0.60899006D-02 -0.23747563D-01  0.68497033D-03
  0.15512429D-04 -0.15591069D-03 -0.15118092D-03 -0.10198576D-03 -0.10603685D-12
 -0.10282008D-12 -0.69361816D-13  0.14653120D-01  0.14208597D-01  0.95850358D-02
 -0.14141727D-04 -0.44536394D-13  0.18794431D-02  0.16830897D-05  0.12898536D-13
  0.63448983D-03  0.18973847D-06 -0.11893524D-14  0.79989905D-05  0.92679493D-03
  0.11188835D-03 -0.10386833D-02  0.76161814D-14  0.42789204D-04 -0.33407492D-13
  0.23037957D-03  0.11939228D-03 -0.34977185D-03 -0.25269321D-14 -0.20942423D-05
  0.23588402D-13  0.63081446D-04  0.10863179D-04 -0.73944625D-04 -0.88846453D-16
 -0.54875357D-06 -0.93265536D-14 -0.31262008D-05  0.34464244D-14 -0.10815611D-03
  0.47379836D-05  0.51093212D-14  0.45186226D-03  0.46406189D-05 -0.15448594D-13
 -0.12739392D-03  0.53287502D-14  0.50796284D-06  0.98442072D-15  0.10473080D-03
  0.21665453D-06 -0.15384831D-14 -0.17055462D-03 -0.17405431D-05 -0.14147791D-14
 -0.14363779D-03  0.13070942D-14  0.27690728D+00  0.51621096D+00  0.87246684D+00
  0.13114804D+01  0.16109188D+01  0.13595586D+01  0.51122954D+00  0.32321991D-04
  0.24158686D-03  0.90286525D-03  0.25188535D-02  0.33745692D-02 -0.39847370D-02
  0.22748059D-01  0.53887999D-03  0.12370081D-03  0.39590032D-04  0.37118171D-04
  0.26430349D-04 -0.26713608D-13 -0.25045706D-13 -0.17834034D-13  0.20484324D-02
  0.19205355D-02  0.13675357D-02 -0.22349212D-04  0.26850840D-13  0.25258205D-03
 -0.31207701D-05 -0.88138236D-13 -0.10234936D-03 -0.95916851D-07 -0.20627625D-14
 -0.34810822D-05 -0.12222552D-02  0.23788519D-03  0.98437003D-03 -0.37709611D-14
 -0.13602087D-04 -0.26281920D-13  0.14484018D-03  0.20495044D-04 -0.16533523D-03
  0.21016894D-14 -0.12406083D-06  0.52762699D-14 -0.58796769D-05  0.19148266D-04
 -0.13268589D-04  0.14390416D-15 -0.65660957D-06  0.83397245D-14  0.10298046D-04
 -0.18200064D-14  0.55098404D-03 -0.93451691D-05 -0.14103410D-13 -0.50196719D-04
 -0.21548967D-04  0.19563429D-13 -0.16027554D-02  0.14366263D-14  0.37447176D-06
 -0.65649859D-15 -0.11429460D-03 -0.17135226D-05  0.56440311D-14  0.43752104D-04
  0.59010736D-06 -0.36745354D-14  0.29913168D-03  0.33655602D-15 -0.27397337D-03
 -0.49412225D-03 -0.72858297D-03 -0.22167889D-03 -0.45299594D-03 -0.11971417D-04
 -0.12014444D-04  0.77425041D-03 -0.52394957D-03  0.83002994D-05  0.21989974D-03
 -0.82040148D-04 -0.10872806D-05  0.41347238D-04 -0.56814061D-04  0.22060487D-03
 -0.35212560D-03  0.13152072D-03  0.63453335D-05 -0.70591233D-05  0.87877696D-03
  0.47009056D-04 -0.12868547D-04 -0.34140509D-04 -0.30950727D-07  0.12882297D-05
 -0.26291785D-04 -0.27397337D-03 -0.49412225D-03 -0.72858297D-03 -0.22167889D-03
 -0.45299594D-03 -0.11971417D-04 -0.12014444D-04 -0.77425041D-03 -0.52394957D-03
  0.83002994D-05 -0.21989974D-03 -0.82040148D-04 -0.10872806D-05 -0.41347238D-04
 -0.56814061D-04  0.22060487D-03 -0.35212560D-03  0.13152072D-03 -0.63453335D-05
 -0.70591233D-05 -0.87877696D-03  0.47009056D-04 -0.12868547D-04 -0.34140509D-04
  0.30950728D-07  0.12882297D-05  0.26291785D-04
MO    2     MO 0.0        OCC NO =    2.0000041  ORB. ENERGY =    0.000000
  0.42240588D+00  0.78729510D+00  0.13349695D+01  0.20203344D+01  0.25202079D+01
  0.21627133D+01  0.82820430D+00  0.49613509D-04  0.53232039D-03  0.19622332D-02
  0.57374547D-02  0.69139119D-02 -0.83285396D-02  0.38590504D-01 -0.65459244D-03
 -0.80357062D-04  0.74698934D-04  0.72432839D-04  0.48862765D-04  0.71877846D-13
  0.69697332D-13  0.47017409D-13 -0.10978101D-01 -0.10645065D-01 -0.71810979D-02
 -0.16356402D-04  0.42206242D-14  0.14481292D-02  0.83429390D-05  0.21663988D-13
  0.10551062D-03  0.31764986D-06 -0.53083241D-15  0.19644771D-05 -0.99439850D-03
 -0.59874265D-04  0.10542728D-02  0.11568459D-13 -0.13621243D-04 -0.14116255D-13
  0.34846671D-03  0.53671973D-03 -0.88518643D-03 -0.12800561D-14  0.14117455D-04
  0.98411530D-14  0.34105929D-04 -0.63455204D-06 -0.33471377D-04 -0.36561154D-15
 -0.24986057D-05 -0.97797757D-14  0.17784110D-05  0.58362814D-14  0.11041454D-03
  0.93118412D-05  0.11307008D-13 -0.23990807D-03 -0.14647074D-04 -0.28815852D-13
 -0.91335549D-04 -0.22690660D-14  0.13394319D-05 -0.42368541D-15  0.12860029D-03
 -0.73596670D-06 -0.24423415D-14 -0.16757226D-03 -0.32823291D-05  0.37133977D-14
 -0.21822859D-03  0.48713893D-15  0.17518749D+00  0.32658478D+00  0.55197277D+00
  0.82971802D+00  0.10191600D+01  0.86013506D+00  0.32343325D+00  0.17394615D-04
  0.13001397D-03  0.48589190D-03  0.13555628D-02  0.18160804D-02 -0.21444523D-02
  0.14456367D-01  0.50695217D-03  0.93281451D-04  0.23006286D-04  0.21569855D-04
  0.15359022D-04  0.41103609D-14  0.38537246D-14  0.27440815D-14  0.11518868D-02
  0.10799671D-02  0.76900090D-03 -0.17038337D-04  0.10343327D-14  0.16061679D-02
 -0.32645767D-05 -0.70881491D-13 -0.11122453D-04 -0.10676586D-06 -0.13560079D-14
  0.51806575D-06 -0.10270481D-02 -0.30886567D-03  0.13359138D-02 -0.18341867D-14
 -0.28330607D-04 -0.59703734D-15  0.16442245D-04 -0.25928279D-03  0.24284054D-03
  0.83972717D-15 -0.13083969D-04  0.71600843D-14 -0.18660368D-05  0.41936333D-04
 -0.40070296D-04  0.88486857D-16 -0.56886765D-06  0.60211634D-14  0.52839369D-05
 -0.18384129D-14  0.34841006D-03 -0.33465202D-05 -0.68403428D-14 -0.22795088D-03
 -0.12505290D-04  0.12355582D-13 -0.81727928D-03 -0.28675579D-15  0.29042988D-06
 -0.51763048D-15 -0.89164138D-05  0.32764987D-05  0.51125142D-14 -0.38630413D-04
 -0.41477884D-05 -0.35596228D-14  0.65379655D-04  0.60168198D-15 -0.14695786D-03
 -0.26504455D-03 -0.39080803D-03  0.11435619D-03 -0.34887455D-03 -0.74611858D-05
 -0.41297582D-05  0.34594206D-03 -0.21888854D-03  0.20839354D-05 -0.74100626D-04
  0.13102952D-03 -0.76622456D-06 -0.98895045D-05 -0.83166292D-04  0.12344565D-03
 -0.13468890D-03  0.11243248D-04  0.49023489D-05 -0.23839819D-05  0.41390978D-03
  0.23124624D-05  0.25646606D-05 -0.48771230D-05 -0.19195898D-05 -0.15502033D-05
 -0.58237684D-05 -0.14695786D-03 -0.26504455D-03 -0.39080803D-03  0.11435619D-03
 -0.34887455D-03 -0.74611858D-05 -0.41297582D-05 -0.34594206D-03 -0.21888854D-03
  0.20839354D-05  0.74100626D-04  0.13102952D-03 -0.76622456D-06  0.98895044D-05
 -0.83166292D-04  0.12344565D-03 -0.13468890D-03  0.11243248D-04 -0.49023489D-05
 -0.23839819D-05 -0.41390978D-03  0.23124624D-05  0.25646606D-05 -0.48771230D-05
  0.19195898D-05 -0.15502033D-05  0.58237684D-05
MO    3     MO 0.0        OCC NO =    1.9805517  ORB. ENERGY =    0.000000
 -0.96677881D-01 -0.18019167D+00 -0.30554031D+00 -0.46240276D+00 -0.57681100D+00
 -0.49498965D+00 -0.18955474D+00 -0.16853385D-02 -0.18082576D-01 -0.66655780D-01
 -0.19489759D+00 -0.23486107D+00  0.28291505D+00  0.14940325D+00  0.75511568D-01
  0.44144018D-02 -0.81629090D-03 -0.79152759D-03 -0.53395983D-03  0.21698467D-11
  0.21040214D-11  0.14193604D-11 -0.19470740D-02 -0.18880068D-02 -0.12736382D-02
 -0.16551799D-03  0.52638248D-12 -0.80265274D-02 -0.89846985D-04 -0.26668691D-12
  0.80785791D-02  0.28537746D-06  0.25881203D-13  0.90060747D-04 -0.14821301D-01
 -0.15846811D-01  0.30668112D-01  0.47484489D-14 -0.57447755D-03 -0.20666211D-12
 -0.42656669D-02 -0.51237913D-02  0.93894581D-02 -0.43000418D-14 -0.20579125D-03
  0.33753806D-13  0.46217812D-03  0.51038355D-03 -0.97256167D-03 -0.22874011D-14
  0.31340178D-04  0.13941054D-12 -0.98932611D-04 -0.98510055D-14 -0.89148730D-02
 -0.10307234D-03 -0.48490684D-13  0.14283696D-01  0.39987018D-03  0.78043701D-13
  0.12460923D-01 -0.15268589D-13 -0.93443047D-05  0.22665998D-14 -0.35983921D-03
  0.39738092D-05  0.40645535D-13  0.23433743D-04  0.24059105D-04 -0.47445335D-13
  0.10560839D-02  0.73763893D-14 -0.28161188D-01 -0.52498127D-01 -0.88728987D-01
 -0.13337622D+00 -0.16382879D+00 -0.13826572D+00 -0.51991522D-01 -0.59170075D-03
 -0.44225965D-02 -0.16528253D-01 -0.46111253D-01 -0.61776366D-01  0.72946369D-01
  0.30045139D-01  0.19096672D-01  0.40771656D-03 -0.17491680D-02 -0.16399562D-02
 -0.11677465D-02  0.14586300D-12  0.13675584D-12  0.97378302D-13  0.10586779D+00
  0.99257780D-01  0.70677453D-01 -0.46958380D-03  0.76391516D-12  0.65659434D-02
 -0.28237818D-04  0.14634350D-11 -0.39994742D-02  0.18639663D-06  0.16258845D-13
 -0.55046926D-04 -0.18330716D-01 -0.79387992D-02  0.26269515D-01  0.11344474D-14
 -0.54219571D-03 -0.18403808D-13 -0.31346680D-02  0.25228922D-02  0.61177581D-03
 -0.11495663D-13  0.27567337D-04 -0.42746622D-12  0.16107563D-04  0.49091147D-03
 -0.50701903D-03 -0.26335752D-14  0.18034672D-05 -0.11993153D-12  0.79596409D-04
  0.12044116D-14  0.43557488D-02 -0.61704107D-04 -0.78951231D-13 -0.94981154D-03
 -0.17708512D-03  0.75337996D-13 -0.12117435D-01  0.71841492D-14  0.28447803D-05
 -0.24330583D-13 -0.31677275D-04 -0.29401439D-04 -0.91318197D-13  0.44098805D-03
  0.20867098D-04  0.16430995D-12 -0.34595622D-03  0.44907196D-14  0.64716824D-02
  0.11671946D-01  0.17210277D-01 -0.94793950D-05 -0.58554092D-02 -0.79626188D-04
  0.12427529D-04 -0.27835251D-02  0.22533524D-02 -0.46769929D-04  0.41854360D-02
 -0.40835264D-02 -0.15369101D-04  0.55949909D-03 -0.14783520D-02  0.53278297D-03
 -0.10801284D-02  0.54734540D-03  0.44206141D-04 -0.16729278D-04  0.20681569D-02
  0.34620448D-03 -0.79757038D-04 -0.26644744D-03  0.15520983D-04 -0.60187498D-05
  0.94668009D-03  0.64716824D-02  0.11671946D-01  0.17210277D-01 -0.94793930D-05
 -0.58554091D-02 -0.79626188D-04  0.12427529D-04  0.27835251D-02  0.22533524D-02
 -0.46769929D-04 -0.41854360D-02 -0.40835264D-02 -0.15369101D-04 -0.55949909D-03
 -0.14783520D-02  0.53278297D-03 -0.10801284D-02  0.54734540D-03 -0.44206141D-04
 -0.16729278D-04 -0.20681569D-02  0.34620448D-03 -0.79757038D-04 -0.26644744D-03
 -0.15520983D-04 -0.60187498D-05 -0.94668009D-03
MO    4     MO 0.0        OCC NO =    1.9668836  ORB. ENERGY =    0.000000
  0.36138280D-01  0.67355811D-01  0.11421124D+00  0.17284657D+00  0.21561247D+00
  0.18502758D+00  0.70855734D-01  0.69152402D-03  0.74195989D-02  0.27350039D-01
  0.79969909D-01  0.96367628D-01 -0.11608502D+00 -0.65931629D-01 -0.54264097D-01
 -0.31073169D-02 -0.11945250D-02 -0.11582874D-02 -0.78137385D-03 -0.38011747D-11
 -0.36858608D-11 -0.24864599D-11 -0.67843278D+00 -0.65785158D+00 -0.44378279D+00
 -0.39843837D-03 -0.91862374D-12 -0.15222243D+00 -0.13347117D-03 -0.13728043D-11
 -0.15801585D-01 -0.54592379D-05  0.23675727D-13 -0.10802800D-03 -0.19558924D-01
 -0.19334848D-01  0.38893772D-01  0.18741356D-13 -0.18940053D-03  0.32990049D-12
 -0.35715785D-02 -0.40111443D-02  0.75827227D-02 -0.13523735D-13  0.50005729D-04
  0.43644717D-12  0.37930978D-07 -0.13847295D-03  0.13843502D-03 -0.53441261D-14
  0.23163630D-04  0.52478731D-12  0.14156711D-04  0.76114825D-13 -0.60218871D-02
 -0.37924356D-04 -0.11354371D-12  0.58954125D-02 -0.45457762D-05 -0.11480076D-12
  0.12170249D-01 -0.10554315D-13 -0.90308311D-05  0.28031585D-13 -0.14512373D-03
  0.27815755D-04  0.10290470D-12 -0.20116403D-03 -0.72326202D-06 -0.18699946D-12
  0.63653523D-03  0.14123091D-13 -0.49525448D-01 -0.92325412D-01 -0.15604253D+00
 -0.23456102D+00 -0.28811620D+00 -0.24315991D+00 -0.91434476D-01 -0.12030500D-02
 -0.89920537D-02 -0.33605358D-01 -0.93753716D-01 -0.12560413D+00  0.14831506D+00
  0.64387153D-01  0.45901199D-01  0.11150549D-02 -0.34109200D-02 -0.31979543D-02
 -0.22771340D-02 -0.43797300D-11 -0.41062753D-11 -0.29239126D-11 -0.11356084D+00
 -0.10647051D+00 -0.75813346D-01 -0.89224804D-03  0.51111881D-12 -0.31721000D-01
 -0.92029812D-04  0.43050421D-11 -0.56219330D-02 -0.12367926D-07  0.97955212D-13
 -0.49098935D-05 -0.17571826D-01  0.14282973D-01  0.32888522D-02  0.11004320D-13
 -0.96584004D-04  0.55214756D-13 -0.45553987D-02  0.49122771D-02 -0.35687840D-03
 -0.20191624D-13  0.51231141D-04 -0.83502203D-12 -0.95990997D-04  0.14225413D-04
  0.81765584D-04 -0.86238302D-14  0.85302524D-05 -0.30403201D-12  0.10215831D-03
 -0.44378267D-14  0.42738456D-02 -0.79098595D-04 -0.73686569D-13  0.63567870D-03
 -0.22737634D-03  0.87000049D-13 -0.13457216D-01  0.16720962D-13  0.42159297D-05
 -0.90662041D-13  0.28208751D-03 -0.36997779D-04 -0.26163957D-12  0.64590721D-03
  0.24349990D-04  0.53362569D-12 -0.14921697D-02  0.47153406D-14  0.24356761D-01
  0.43928421D-01  0.64772432D-01  0.26897843D-01 -0.40434582D-02 -0.92621272D-04
  0.12466799D-03 -0.17693421D-01  0.88059804D-02 -0.26777460D-04  0.20442698D-03
 -0.19453798D-02 -0.98480894D-05  0.13553462D-02 -0.50754800D-03 -0.16308309D-02
  0.20339269D-02 -0.40309594D-03 -0.39696330D-04 -0.90169426D-06 -0.29340534D-02
  0.28811267D-03 -0.13078275D-03 -0.15732993D-03  0.21313635D-04  0.11647897D-04
  0.55741896D-03  0.24356761D-01  0.43928421D-01  0.64772432D-01  0.26897843D-01
 -0.40434582D-02 -0.92621272D-04  0.12466799D-03  0.17693421D-01  0.88059804D-02
 -0.26777460D-04 -0.20442698D-03 -0.19453798D-02 -0.98480893D-05 -0.13553462D-02
 -0.50754800D-03 -0.16308309D-02  0.20339269D-02 -0.40309594D-03  0.39696330D-04
 -0.90169426D-06  0.29340534D-02  0.28811267D-03 -0.13078275D-03 -0.15732993D-03
 -0.21313635D-04  0.11647897D-04 -0.55741896D-03
MO    5     MO 0.0        OCC NO =    1.9653369  ORB. ENERGY =    0.000000
  0.31478572D-12  0.58670882D-12  0.99484724D-12  0.15055955D-11  0.18781117D-11
  0.16116993D-11  0.61719520D-12  0.64230266D-14  0.68914860D-13  0.25403315D-12
  0.74277803D-12  0.89508364D-12 -0.10782231D-11 -0.60221618D-12 -0.13916339D-11
 -0.55165617D-12  0.16945877D-13  0.16431801D-13  0.11084796D-13  0.13321293D+01
  0.12917173D+01  0.87138486D+00 -0.66454118D-11 -0.64438140D-11 -0.43469589D-11
 -0.31280126D-15  0.31483440D+00 -0.11998637D-11 -0.30398990D-14  0.50368233D-01
  0.48702619D-13 -0.96561658D-16  0.15710937D-02  0.33498781D-13 -0.18195315D-12
 -0.18142898D-12  0.36338214D-12  0.88815594D-03 -0.93297297D-14 -0.10123178D+00
  0.10359582D-13  0.13345354D-13 -0.23704936D-13  0.20856435D-03  0.51801764D-14
 -0.28509772D-01 -0.13779747D-13  0.40949208D-14  0.96848263D-14 -0.15831518D-04
 -0.66475957D-15 -0.26345656D-02 -0.97650659D-15 -0.12967360D-01 -0.25210602D-13
  0.35315822D-14  0.97070414D-04 -0.15390882D-13 -0.60206242D-15  0.38805009D-01
  0.91022689D-13 -0.80566921D-03  0.85075805D-16 -0.97106894D-03 -0.48379905D-14
 -0.26224079D-15  0.42615428D-03  0.21234837D-13  0.70133780D-17  0.24870525D-02
 -0.67208653D-14  0.27855052D-04 -0.27594881D-12 -0.51442418D-12 -0.86944695D-12
 -0.13069409D-11 -0.16053429D-11 -0.13548527D-11 -0.50946001D-12 -0.68173243D-14
 -0.50955275D-13 -0.19043150D-12 -0.53127423D-12 -0.71176100D-12  0.84045702D-12
  0.30170247D-12  0.56769580D-12  0.15206599D-12 -0.22526290D-13 -0.21119829D-13
 -0.15038577D-13  0.40596990D+00  0.38062258D+00  0.27102596D+00 -0.93834909D-13
 -0.87976192D-13 -0.62644290D-13 -0.37340196D-14  0.10510961D+00  0.24466938D-12
 -0.36683248D-15  0.62618939D-02  0.25287501D-12 -0.14062842D-15 -0.33243735D-03
  0.68363310D-14 -0.91705872D-13  0.41379804D-13  0.50326068D-13 -0.81907857D-03
 -0.33696669D-14  0.29003090D-01 -0.10667979D-12 -0.85794645D-13  0.19247443D-12
 -0.19837085D-03 -0.41206823D-14 -0.37933754D-02 -0.85231609D-14 -0.49648469D-13
  0.58171630D-13  0.28005310D-04 -0.45804069D-15 -0.88532473D-03  0.64258737D-15
 -0.38795592D-02  0.71007006D-13  0.19523986D-15 -0.54692128D-02 -0.62533982D-13
 -0.21230020D-14  0.17107891D-01 -0.15048704D-12 -0.11629868D-03 -0.11420993D-15
 -0.38060051D-03  0.21947574D-13  0.14322225D-14 -0.31410171D-03 -0.12531665D-13
 -0.10895927D-14  0.14559033D-02 -0.53311057D-13  0.92046340D-04  0.18319077D-01
  0.33039209D-01  0.48716295D-01  0.19318843D-01 -0.15318827D-02  0.34638708D-03
  0.13626839D-03 -0.11319240D-01  0.13688285D-01  0.39051050D-04  0.55194678D-02
  0.18002572D-02 -0.38685384D-04  0.47185723D-03  0.61348185D-03 -0.18579989D-02
 -0.14338766D-02  0.32918756D-02 -0.18014822D-04  0.13128488D-03 -0.83018145D-02
  0.31030226D-03 -0.46636299D-03  0.15606073D-03  0.12173684D-04 -0.80299651D-05
  0.88723924D-03 -0.18319077D-01 -0.33039209D-01 -0.48716295D-01 -0.19318843D-01
  0.15318827D-02 -0.34638708D-03 -0.13626839D-03 -0.11319240D-01 -0.13688285D-01
 -0.39051050D-04  0.55194678D-02 -0.18002572D-02  0.38685384D-04  0.47185723D-03
 -0.61348185D-03  0.18579989D-02  0.14338766D-02 -0.32918756D-02 -0.18014822D-04
 -0.13128488D-03 -0.83018145D-02 -0.31030226D-03  0.46636299D-03 -0.15606073D-03
  0.12173684D-04  0.80299651D-05  0.88723925D-03
MO    6     MO 0.0        OCC NO =    1.9601075  ORB. ENERGY =    0.000000
  0.19895342D-02  0.37081645D-02  0.62877141D-02  0.95157866D-02  0.11870194D-01
  0.10186392D-01  0.39008471D-02 -0.31370011D-04 -0.33657963D-03 -0.12406959D-02
 -0.36277220D-02 -0.43715815D-02  0.52660331D-02  0.76222242D-02  0.28679004D-01
  0.63044074D-02 -0.10530557D-01 -0.10211098D-01 -0.68883463D-02  0.93612385D-11
  0.90772524D-11  0.61234608D-11  0.13820560D+01  0.13401294D+01  0.90404339D+00
 -0.24586784D-02  0.22070999D-11  0.31966892D+00 -0.23023213D-03 -0.20640516D-12
  0.38146962D-01  0.10388004D-05  0.41163851D-13  0.15813120D-03  0.41965730D-01
  0.43766744D-01 -0.85732473D-01  0.91672960D-14  0.23789173D-02 -0.35018288D-12
  0.10425505D-01  0.11785652D-01 -0.22211157D-01 -0.36668154D-14  0.60991766D-03
  0.45852213D-13  0.26539857D-03  0.51081530D-03 -0.77621387D-03 -0.27816617D-14
 -0.46266152D-05  0.23749873D-12  0.18889500D-03 -0.40862618D-13  0.15664216D-01
  0.29665939D-03 -0.27333501D-13 -0.15966424D-01 -0.86334440D-03  0.14992136D-12
 -0.31026224D-01 -0.83247445D-14  0.19607424D-04  0.51449195D-14  0.20161891D-02
  0.29031664D-04  0.51636568D-13 -0.24737598D-02 -0.87853935D-04 -0.67071327D-13
 -0.35748074D-02  0.60250306D-14  0.51996146D-02  0.96931291D-02  0.16382709D-01
  0.24626267D-01  0.30248958D-01  0.25529053D-01  0.95995908D-02  0.88605791D-04
  0.66227339D-03  0.24750669D-02  0.69050512D-02  0.92508649D-02 -0.10923546D-01
 -0.62380906D-02  0.16286970D-01  0.11793402D-04  0.15638112D-02  0.14661724D-02
  0.10440021D-02 -0.17021671D-11 -0.15958899D-11 -0.11363687D-11 -0.52341261D+00
 -0.49073259D+00 -0.34943084D+00  0.38793692D-03  0.21851565D-12 -0.10881926D+00
 -0.26583985D-04  0.20649164D-11 -0.86485146D-02  0.68855570D-07  0.29687940D-13
 -0.40824923D-04  0.83554437D-02  0.28584494D-01 -0.36939938D-01  0.22514839D-14
  0.10356032D-02  0.65908693D-12  0.20206231D-03  0.24874050D-02 -0.26894673D-02
 -0.80259971D-14  0.82113588D-04 -0.26192069D-12 -0.15399701D-03  0.12771536D-03
  0.26281653D-04 -0.36215980D-14  0.82492653D-05 -0.15380054D-12 -0.68821693D-04
 -0.35632876D-13 -0.58732806D-02 -0.49889253D-04 -0.36269885D-13  0.64612066D-02
  0.25635433D-03  0.14316851D-12  0.11158635D-01  0.21853075D-14 -0.10891209D-05
 -0.44217738D-13  0.76900772D-03  0.29233102D-04 -0.12654672D-12 -0.19248239D-03
 -0.25965739D-04  0.25919993D-12 -0.21145408D-02  0.19480120D-14  0.18245472D-01
  0.32906461D-01  0.48520557D-01  0.30893948D-01  0.75512988D-03  0.11629933D-04
  0.20367522D-03 -0.17429474D-01  0.35816362D-02  0.16338983D-04 -0.57512102D-02
  0.75668172D-03  0.47574609D-05  0.33824259D-03 -0.24322699D-03 -0.14820689D-02
  0.52631575D-02 -0.37810886D-02 -0.13111935D-03  0.76332014D-04 -0.45444059D-02
 -0.54880127D-03  0.41915628D-05  0.54460971D-03 -0.20305295D-04 -0.19935054D-04
  0.46764244D-04  0.18245472D-01  0.32906461D-01  0.48520557D-01  0.30893948D-01
  0.75512989D-03  0.11629933D-04  0.20367522D-03  0.17429474D-01  0.35816362D-02
  0.16338983D-04  0.57512102D-02  0.75668172D-03  0.47574609D-05 -0.33824259D-03
 -0.24322699D-03 -0.14820689D-02  0.52631575D-02 -0.37810886D-02  0.13111935D-03
  0.76332014D-04  0.45444059D-02 -0.54880127D-03  0.41915629D-05  0.54460971D-03
  0.20305295D-04 -0.19935054D-04 -0.46764245D-04
MO    7     MO 0.0        OCC NO =    1.9567280  ORB. ENERGY =    0.000000
 -0.12252034D-12 -0.22835777D-12 -0.38721270D-12 -0.58600524D-12 -0.73099535D-12
 -0.62730276D-12 -0.24022363D-12 -0.17431447D-14 -0.18702798D-13 -0.68942036D-13
 -0.20158247D-12 -0.24291668D-12  0.29261888D-12  0.13405462D-12 -0.10107697D-11
 -0.52312552D-12 -0.13267456D-12 -0.12864970D-12 -0.86786325D-13  0.11743357D+01
  0.11387106D+01  0.76816746D+00 -0.58372946D-11 -0.56602122D-11 -0.38183457D-11
 -0.33930623D-13  0.27731122D+00 -0.11452010D-11 -0.43799290D-14  0.50111401D-01
  0.20352175D-12  0.50507376D-16  0.17016768D-02  0.25613949D-13 -0.17485859D-12
 -0.21264864D-12  0.38750723D-12  0.24336948D-03  0.20507710D-14 -0.11663923D-01
 -0.13137989D-13  0.30327994D-14  0.10105190D-13  0.92494740D-04  0.23026000D-14
 -0.29186813D-02 -0.93363380D-15  0.11030541D-13 -0.10096907D-13  0.16580742D-06
 -0.75919229D-15 -0.65058580D-03 -0.24617945D-14 -0.41799873D-02 -0.54000923D-13
  0.41735270D-15  0.88085584D-02  0.30480561D-13  0.69680308D-14  0.37314037D-02
  0.13152221D-12 -0.10931574D-03 -0.21458361D-15 -0.30805664D-03 -0.87597044D-14
  0.12257489D-15 -0.35411713D-03  0.24082391D-13  0.52117592D-15  0.12782870D-02
  0.21967225D-14 -0.27065548D-04  0.17236985D-12  0.32133213D-12  0.54309508D-12
  0.81637320D-12  0.10027683D-11  0.84630104D-12  0.31823129D-12  0.47378198D-14
  0.35412268D-13  0.13234373D-12  0.36921840D-12  0.49465086D-12 -0.58409044D-12
 -0.35425292D-12  0.17646338D-11  0.39165222D-12 -0.57255008D-13 -0.53680209D-13
 -0.38223507D-13 -0.36137730D+00 -0.33881419D+00 -0.24125589D+00  0.34834708D-11
  0.32659753D-11  0.23255690D-11 -0.15724771D-13 -0.99096379D-01  0.94174317D-12
 -0.48798923D-14 -0.25710353D-01  0.15896045D-12 -0.12508197D-15 -0.50657949D-03
  0.39441594D-14  0.70952902D-13 -0.25030533D-12  0.17935242D-12  0.49915748D-03
 -0.12927760D-13  0.11073872D+00 -0.18119420D-12 -0.12001636D-13  0.19319584D-12
  0.19279804D-03 -0.11282117D-13  0.31840076D-01 -0.22402977D-13 -0.22013404D-14
  0.24604318D-13  0.21124556D-04 -0.13640898D-14  0.34095002D-02  0.83113663D-15
 -0.36553798D-02  0.59522976D-13  0.34050257D-14  0.27387426D-02 -0.63222753D-13
 -0.58984356D-14  0.82273968D-02 -0.11534618D-12 -0.37352631D-03  0.98779399D-16
 -0.58729454D-03  0.36055407D-13  0.11856849D-14  0.80314366D-03 -0.79934870D-14
 -0.14820231D-14  0.95873996D-03 -0.10017273D-12 -0.10743516D-03 -0.34613832D-01
 -0.62427472D-01 -0.92049270D-01 -0.52464457D-01  0.10538839D-01  0.43302332D-03
 -0.23602615D-03  0.14956511D-01 -0.10589751D-01 -0.22561895D-04 -0.32111307D-02
  0.19889227D-02  0.41394152D-04 -0.34746544D-02  0.16651975D-02  0.70842895D-03
 -0.15496213D-02  0.84119232D-03  0.11294780D-03 -0.41520316D-04  0.31518026D-02
  0.47188825D-05  0.35335210D-03 -0.35807098D-03  0.12958513D-05  0.95629084D-05
  0.45108526D-04  0.34613832D-01  0.62427472D-01  0.92049270D-01  0.52464457D-01
 -0.10538839D-01 -0.43302332D-03  0.23602615D-03  0.14956511D-01  0.10589751D-01
  0.22561895D-04 -0.32111307D-02 -0.19889227D-02 -0.41394152D-04 -0.34746544D-02
 -0.16651975D-02 -0.70842895D-03  0.15496213D-02 -0.84119232D-03  0.11294780D-03
  0.41520316D-04  0.31518026D-02 -0.47188826D-05 -0.35335210D-03  0.35807098D-03
  0.12958513D-05 -0.95629084D-05  0.45108526D-04
MO    8     MO 0.0        OCC NO =    1.9226160  ORB. ENERGY =    0.000000
  0.17538068D-03  0.32688075D-03  0.55427225D-03  0.83883210D-03  0.10463769D-02
  0.89794708D-03  0.34386603D-03  0.34847527D-05  0.37389110D-04  0.13782330D-03
  0.40298724D-03  0.48561922D-03 -0.58497982D-03 -0.33184033D-03 -0.23572412D-03
  0.23024435D-03  0.13795010D+01  0.13376520D+01  0.90237211D+00  0.15450286D-12
  0.14981581D-12  0.10106486D-12  0.10407238D-01  0.10091520D-01  0.68076796D-02
  0.33246246D+00  0.42209545D-13  0.25082268D-02  0.48483199D-01 -0.31530343D-13
  0.53683894D-03  0.88749333D-03  0.59294447D-15 -0.10651273D-04  0.10072156D-02
 -0.11216183D-03 -0.89505380D-03 -0.80185719D-14 -0.12440905D+00 -0.78938398D-14
  0.29448911D-03  0.20223052D-04 -0.31471216D-03  0.47528506D-14 -0.37366793D-01
  0.61553470D-14  0.41236086D-04  0.22969188D-05 -0.43533005D-04 -0.38148951D-14
 -0.23612363D-02  0.15558121D-13 -0.61273968D-02 -0.16821429D-14  0.34201742D-03
 -0.22207850D-01 -0.26593609D-14 -0.88512260D-03  0.40590041D-01  0.77057896D-14
 -0.14092967D-03 -0.93208973D-14 -0.36161401D-03  0.97556640D-15  0.36331478D-04
 -0.15478063D-02  0.29248290D-14 -0.85170423D-04  0.26326483D-02 -0.58515282D-14
 -0.23824011D-04  0.33742438D-14 -0.49283432D-03 -0.91874246D-03 -0.15527999D-02
 -0.23341479D-02 -0.28670826D-02 -0.24197166D-02 -0.90987663D-03 -0.12216145D-04
 -0.91308114D-04 -0.34123927D-03 -0.95200443D-03 -0.12754235D-02  0.15060373D-02
  0.65456512D-03  0.11993343D-02 -0.99591651D-05  0.41538066D+00  0.38944577D+00
  0.27730859D+00 -0.56525069D-13 -0.52995845D-13 -0.37736199D-13  0.84581150D-03
  0.79300204D-03  0.56466469D-03  0.10663758D+00  0.92363772D-14  0.34426273D-03
  0.12608591D-01  0.11922580D-12 -0.86123655D-04  0.39136577D-04  0.26118097D-14