 h2co-wavefunction
GAUSSIAN            138 MOL ORBITALS    198 PRIMITIVES        4 NUCLEI
  O    1    (CENTRE  1)   0.00000000  0.00000000  1.26470299  CHARGE =  8.0
  C    2    (CENTRE  2)   0.00000000  0.00000000 -0.99571749  CHARGE =  6.0
  H    3    (CENTRE  3)   0.00000000  1.76994395 -2.09120873  CHARGE =  1.0
  H    4    (CENTRE  4)   0.00000000 -1.76994395 -2.09120873  CHARGE =  1.0
CENTRE ASSIGNMENTS    1  1  1  1  1  1  1  1  1  1  1  1  1  1  1  1  1  1  1  1
CENTRE ASSIGNMENTS    1  1  1  1  1  1  1  1  1  1  1  1  1  1  1  1  1  1  1  1
CENTRE ASSIGNMENTS    1  1  1  1  1  1  1  1  1  1  1  1  1  1  1  1  1  1  1  1
CENTRE ASSIGNMENTS    1  1  1  1  1  1  1  1  1  1  1  1  2  2  2  2  2  2  2  2
CENTRE ASSIGNMENTS    2  2  2  2  2  2  2  2  2  2  2  2  2  2  2  2  2  2  2  2
CENTRE ASSIGNMENTS    2  2  2  2  2  2  2  2  2  2  2  2  2  2  2  2  2  2  2  2
CENTRE ASSIGNMENTS    2  2  2  2  2  2  2  2  2  2  2  2  2  2  2  2  2  2  2  2
CENTRE ASSIGNMENTS    2  2  2  2  3  3  3  3  3  3  3  3  3  3  3  3  3  3  3  3
CENTRE ASSIGNMENTS    3  3  3  3  3  3  3  3  3  3  3  4  4  4  4  4  4  4  4  4
CENTRE ASSIGNMENTS    4  4  4  4  4  4  4  4  4  4  4  4  4  4  4  4  4  4
TYPE ASSIGNMENTS      1  1  1  1  1  1  1  1  1  1  1  1  1  1  1  1  2  2  2  3
TYPE ASSIGNMENTS      3  3  4  4  4  2  3  4  2  3  4  2  3  4  5  6  7  8  9 10
TYPE ASSIGNMENTS      5  6  7  8  9 10  5  6  7  8  9 10 11 12 13 17 14 15 18 19
TYPE ASSIGNMENTS     16 20 11 12 13 17 14 15 18 19 16 20  1  1  1  1  1  1  1  1
TYPE ASSIGNMENTS      1  1  1  1  1  1  1  1  2  2  2  3  3  3  4  4  4  2  3  4
TYPE ASSIGNMENTS      2  3  4  2  3  4  5  6  7  8  9 10  5  6  7  8  9 10  5  6
TYPE ASSIGNMENTS      7  8  9 10 11 12 13 17 14 15 18 19 16 20 11 12 13 17 14 15
TYPE ASSIGNMENTS     18 19 16 20  1  1  1  1  1  1  2  3  4  2  3  4  2  3  4  5
TYPE ASSIGNMENTS      6  7  8  9 10  5  6  7  8  9 10  1  1  1  1  1  1  2  3  4
TYPE ASSIGNMENTS      2  3  4  2  3  4  5  6  7  8  9 10  5  6  7  8  9 10
EXPONENTS  0.1533000D+05 0.2299000D+04 0.5224000D+03 0.1473000D+03 0.4755000D+02
EXPONENTS  0.1676000D+02 0.6207000D+01 0.5224000D+03 0.1473000D+03 0.4755000D+02
EXPONENTS  0.1676000D+02 0.6207000D+01 0.6882000D+00 0.1752000D+01 0.2384000D+00
EXPONENTS  0.7376000D-01 0.3446000D+02 0.7749000D+01 0.2280000D+01 0.3446000D+02
EXPONENTS  0.7749000D+01 0.2280000D+01 0.3446000D+02 0.7749000D+01 0.2280000D+01
EXPONENTS  0.7156000D+00 0.7156000D+00 0.7156000D+00 0.2140000D+00 0.2140000D+00
EXPONENTS  0.2140000D+00 0.5974000D-01 0.5974000D-01 0.5974000D-01 0.2314000D+01
EXPONENTS  0.2314000D+01 0.2314000D+01 0.2314000D+01 0.2314000D+01 0.2314000D+01
EXPONENTS  0.6450000D+00 0.6450000D+00 0.6450000D+00 0.6450000D+00 0.6450000D+00
EXPONENTS  0.6450000D+00 0.2140000D+00 0.2140000D+00 0.2140000D+00 0.2140000D+00
EXPONENTS  0.2140000D+00 0.2140000D+00 0.1428000D+01 0.1428000D+01 0.1428000D+01
EXPONENTS  0.1428000D+01 0.1428000D+01 0.1428000D+01 0.1428000D+01 0.1428000D+01
EXPONENTS  0.1428000D+01 0.1428000D+01 0.5000000D+00 0.5000000D+00 0.5000000D+00
EXPONENTS  0.5000000D+00 0.5000000D+00 0.5000000D+00 0.5000000D+00 0.5000000D+00
EXPONENTS  0.5000000D+00 0.5000000D+00 0.8236000D+04 0.1235000D+04 0.2808000D+03
EXPONENTS  0.7927000D+02 0.2559000D+02 0.8997000D+01 0.3319000D+01 0.2808000D+03
EXPONENTS  0.7927000D+02 0.2559000D+02 0.8997000D+01 0.3319000D+01 0.3643000D+00
EXPONENTS  0.9059000D+00 0.1285000D+00 0.4402000D-01 0.1871000D+02 0.4133000D+01
EXPONENTS  0.1200000D+01 0.1871000D+02 0.4133000D+01 0.1200000D+01 0.1871000D+02
EXPONENTS  0.4133000D+01 0.1200000D+01 0.3827000D+00 0.3827000D+00 0.3827000D+00
EXPONENTS  0.1209000D+00 0.1209000D+00 0.1209000D+00 0.3569000D-01 0.3569000D-01
EXPONENTS  0.3569000D-01 0.1097000D+01 0.1097000D+01 0.1097000D+01 0.1097000D+01
EXPONENTS  0.1097000D+01 0.1097000D+01 0.3180000D+00 0.3180000D+00 0.3180000D+00
EXPONENTS  0.3180000D+00 0.3180000D+00 0.3180000D+00 0.1000000D+00 0.1000000D+00
EXPONENTS  0.1000000D+00 0.1000000D+00 0.1000000D+00 0.1000000D+00 0.7610000D+00
EXPONENTS  0.7610000D+00 0.7610000D+00 0.7610000D+00 0.7610000D+00 0.7610000D+00
EXPONENTS  0.7610000D+00 0.7610000D+00 0.7610000D+00 0.7610000D+00 0.2680000D+00
EXPONENTS  0.2680000D+00 0.2680000D+00 0.2680000D+00 0.2680000D+00 0.2680000D+00
EXPONENTS  0.2680000D+00 0.2680000D+00 0.2680000D+00 0.2680000D+00 0.3387000D+02
EXPONENTS  0.5095000D+01 0.1159000D+01 0.3258000D+00 0.1027000D+00 0.2526000D-01
EXPONENTS  0.1407000D+01 0.1407000D+01 0.1407000D+01 0.3880000D+00 0.3880000D+00
EXPONENTS  0.3880000D+00 0.1020000D+00 0.1020000D+00 0.1020000D+00 0.1057000D+01
EXPONENTS  0.1057000D+01 0.1057000D+01 0.1057000D+01 0.1057000D+01 0.1057000D+01
EXPONENTS  0.2470000D+00 0.2470000D+00 0.2470000D+00 0.2470000D+00 0.2470000D+00
EXPONENTS  0.2470000D+00 0.3387000D+02 0.5095000D+01 0.1159000D+01 0.3258000D+00
EXPONENTS  0.1027000D+00 0.2526000D-01 0.1407000D+01 0.1407000D+01 0.1407000D+01
EXPONENTS  0.3880000D+00 0.3880000D+00 0.3880000D+00 0.1020000D+00 0.1020000D+00
EXPONENTS  0.1020000D+00 0.1057000D+01 0.1057000D+01 0.1057000D+01 0.1057000D+01
EXPONENTS  0.1057000D+01 0.1057000D+01 0.2470000D+00 0.2470000D+00 0.2470000D+00
EXPONENTS  0.2470000D+00 0.2470000D+00 0.2470000D+00
MO    1     MO 0.0        OCC NO =    2.0000076  ORB. ENERGY =    0.000000
 -0.26381263D+00 -0.49170337D+00 -0.83375216D+00 -0.12617952D+01 -0.15739901D+01
 -0.13507177D+01 -0.51725311D+00 -0.35612425D-04 -0.38209794D-03 -0.14084850D-02
 -0.41183274D-02 -0.49627848D-02  0.59782002D-02 -0.23457501D-01  0.63943754D-03
  0.74570285D-05  0.23104024D-13  0.22403132D-13  0.15113020D-13 -0.10803614D-13
 -0.10475871D-13 -0.70669608D-14  0.14770107D-01  0.14322035D-01  0.96615605D-02
  0.67399946D-14 -0.20142837D-13  0.19943657D-02 -0.14399099D-14 -0.78803231D-13
  0.66185915D-03 -0.61575325D-15 -0.95156492D-15  0.87770714D-05  0.93940551D-03
  0.12130038D-03 -0.10607059D-02  0.14490348D-14 -0.29453558D-14 -0.92941402D-13
  0.23721933D-03  0.13654849D-03 -0.37376781D-03 -0.18970970D-15 -0.14335145D-14
  0.56912918D-13  0.64535268D-04  0.12051838D-04 -0.76587106D-04  0.73528889D-16
  0.10355957D-14  0.29376338D-13  0.11044044D-14 -0.67515434D-14 -0.15091789D-03
 -0.69451631D-14 -0.10946690D-13  0.51627276D-03  0.36319498D-14  0.31201320D-13
 -0.63519076D-04 -0.30083725D-14 -0.19160763D-15  0.61532859D-14  0.10741131D-03
  0.69608957D-15  0.60253474D-14 -0.16888846D-03 -0.12126667D-15 -0.24485205D-13
 -0.15334546D-03  0.57013249D-16  0.27837235D+00  0.51894214D+00  0.87708292D+00
  0.13184192D+01  0.16194419D+01  0.13667518D+01  0.51393437D+00  0.32418820D-04
  0.24231060D-03  0.90557002D-03  0.25263994D-02  0.33846786D-02 -0.39966743D-02
  0.22896796D-01  0.55938315D-03  0.12757513D-03  0.77816490D-14  0.72957906D-14
  0.51950375D-14  0.46686999D-14  0.43772029D-14  0.31168292D-14  0.20236926D-02
  0.18973405D-02  0.13510194D-02  0.11912636D-14  0.45957270D-13  0.30863105D-03
 -0.92028064D-15  0.12097091D-12 -0.99012682D-04  0.10847569D-15  0.18311913D-14
 -0.35033221D-05 -0.12566320D-02  0.20568103D-03  0.10509510D-02  0.13129412D-15
 -0.82942180D-15 -0.27404912D-14  0.14511519D-03  0.52415560D-05 -0.15035674D-03
  0.15552595D-14  0.26219191D-14  0.24307793D-13 -0.60937847D-05  0.19884415D-04
 -0.13790630D-04  0.31932004D-15  0.91885734D-15 -0.33854763D-14  0.19672072D-15
 -0.89375834D-14  0.57628254D-03  0.22417257D-15  0.11510120D-14 -0.77988447D-04
 -0.81433473D-15  0.25661738D-13 -0.16508592D-02 -0.18116382D-14  0.15316183D-15
 -0.59647071D-14 -0.11444642D-03 -0.70957236D-15 -0.86530600D-14  0.43848918D-04
  0.25008687D-15  0.26547181D-13  0.29949033D-03 -0.85350079D-15 -0.27541914D-03
 -0.49672977D-03 -0.73242775D-03 -0.20041958D-03 -0.45626455D-03 -0.12223654D-04
 -0.14220529D-15  0.78226485D-03 -0.53273926D-03  0.90435356D-15  0.20974657D-03
 -0.65147127D-04  0.38444050D-15  0.40431569D-04 -0.57219191D-04  0.21703108D-03
 -0.35500504D-03  0.13797396D-03 -0.13119640D-15  0.16693522D-14  0.88139450D-03
  0.46462804D-04 -0.12849299D-04 -0.33613505D-04 -0.45921692D-15 -0.76627174D-16
 -0.29042390D-04 -0.27541914D-03 -0.49672977D-03 -0.73242775D-03 -0.20041958D-03
 -0.45626455D-03 -0.12223654D-04 -0.28750403D-14 -0.78226485D-03 -0.53273926D-03
  0.42386831D-14 -0.20974657D-03 -0.65147127D-04  0.18065037D-14 -0.40431569D-04
 -0.57219191D-04  0.21703108D-03 -0.35500504D-03  0.13797396D-03 -0.11898670D-14
  0.22819071D-14 -0.88139450D-03  0.46462804D-04 -0.12849299D-04 -0.33613505D-04
  0.18872388D-14  0.55871004D-15  0.29042390D-04
MO    2     MO 0.0        OCC NO =    2.0000040  ORB. ENERGY =    0.000000
  0.42462830D+00  0.79143733D+00  0.13419932D+01  0.20309640D+01  0.25334675D+01
  0.21740921D+01  0.83256176D+00  0.49702411D-04  0.53327426D-03  0.19657493D-02
  0.57477357D-02  0.69263010D-02 -0.83434636D-02  0.38832888D-01 -0.63546579D-03
 -0.74955510D-04 -0.20478196D-13 -0.19856962D-13 -0.13395389D-13 -0.37018554D-13
 -0.35895545D-13 -0.24214923D-13 -0.11015200D-01 -0.10681039D-01 -0.72053656D-02
 -0.55004540D-14 -0.19990364D-13  0.14441659D-02 -0.53227258D-14 -0.49292442D-13
  0.10596826D-03 -0.59191618D-15 -0.28317502D-16  0.19164657D-05 -0.10364982D-02
 -0.95613594D-04  0.11321118D-02 -0.84345527D-14 -0.19937091D-13 -0.35136977D-13
  0.34512337D-03  0.53288813D-03 -0.87801149D-03  0.83352717D-15  0.52621548D-14
  0.32157578D-13  0.35061142D-04 -0.15531269D-06 -0.34905829D-04  0.39528861D-15
  0.19686311D-14  0.18497781D-13  0.12120234D-14 -0.84776010D-15  0.59592826D-04
  0.46558259D-14  0.14353196D-14 -0.16518523D-03 -0.82918961D-14  0.11079607D-14
 -0.13593248D-04  0.54591972D-14  0.30303570D-15  0.28276127D-14  0.13055434D-03
  0.88177920D-15  0.34748916D-14 -0.17107998D-03 -0.17908863D-14 -0.11957730D-13
 -0.22058303D-03 -0.83973014D-15  0.17283603D+00  0.32220117D+00  0.54456387D+00
  0.81858107D+00  0.10054802D+01  0.84858984D+00  0.31909194D+00  0.17081155D-04
  0.12767105D-03  0.47713588D-03  0.13311348D-02  0.17833537D-02 -0.21058081D-02
  0.14323232D-01  0.47901107D-03  0.90193818D-04 -0.74199227D-14 -0.69566492D-14
 -0.49535487D-14 -0.19587220D-13 -0.18364264D-13 -0.13076450D-13  0.11532912D-02
  0.10812838D-02  0.76993848D-03  0.22150141D-15  0.38506367D-13  0.16034696D-02
  0.28624234D-15  0.10441124D-12 -0.13081559D-04  0.10514706D-15  0.18838059D-14
  0.46471557D-06 -0.10185439D-02 -0.31558022D-03  0.13341241D-02 -0.86973699D-15
 -0.14556306D-14 -0.46623253D-14  0.22727366D-04 -0.25714100D-03  0.23441363D-03
  0.64709658D-15  0.45164539D-14 -0.21877082D-14 -0.15534481D-05  0.42164341D-04
 -0.40610893D-04  0.93213866D-16  0.81790038D-15 -0.55616477D-14 -0.66047026D-16
 -0.52605056D-14  0.32698817D-03 -0.65010365D-15 -0.20152189D-14 -0.20686154D-03
  0.84824473D-15  0.17796736D-13 -0.77410297D-03  0.74973965D-15 -0.30689179D-16
 -0.35311924D-14 -0.85994706D-05 -0.70976685D-15 -0.74013015D-14 -0.40130539D-04
  0.80183439D-15  0.17994879D-13  0.65928951D-04 -0.11296592D-14 -0.14170223D-03
 -0.25556581D-03 -0.37683164D-03  0.13383148D-03 -0.34225085D-03 -0.72623401D-05
 -0.91252028D-15  0.33270732D-03 -0.20896051D-03  0.69837540D-15 -0.82813798D-04
  0.12954083D-03  0.40964405D-15 -0.11051631D-04 -0.83363444D-04  0.12455555D-03
 -0.13055887D-03  0.60033186D-05 -0.42391539D-15  0.98772306D-15  0.40526393D-03
  0.18769897D-05  0.32227441D-05 -0.50997339D-05 -0.25575548D-15  0.20144782D-15
 -0.43736945D-05 -0.14170223D-03 -0.25556581D-03 -0.37683164D-03  0.13383148D-03
 -0.34225085D-03 -0.72623401D-05 -0.20259466D-14 -0.33270732D-03 -0.20896051D-03
  0.34639864D-14  0.82813798D-04  0.12954083D-03  0.90606968D-15  0.11051631D-04
 -0.83363444D-04  0.12455555D-03 -0.13055887D-03  0.60033186D-05  0.44515880D-15
  0.89776264D-15 -0.40526393D-03  0.18769897D-05  0.32227441D-05 -0.50997339D-05
  0.10781760D-14  0.33560184D-15  0.43736945D-05
MO    3     MO 0.0        OCC NO =    1.9806730  ORB. ENERGY =    0.000000
 -0.96624148D-01 -0.18009153D+00 -0.30537049D+00 -0.46214576D+00 -0.57649041D+00
 -0.49471454D+00 -0.18944939D+00 -0.16817102D-02 -0.18043647D-01 -0.66512279D-01
 -0.19447800D+00 -0.23435545D+00  0.28230597D+00  0.14884789D+00  0.75006581D-01
  0.44840577D-02 -0.57203744D-13 -0.55468390D-13 -0.37418648D-13 -0.64025959D-12
 -0.62083643D-12 -0.41881259D-12 -0.14584564D-01 -0.14142121D-01 -0.95401911D-02
 -0.12501594D-13 -0.15526194D-12 -0.10791722D-01 -0.58783051D-14  0.52268959D-12
  0.80371081D-02 -0.41942731D-15 -0.11457852D-13  0.86862555D-04 -0.15568174D-01
 -0.16573562D-01  0.32141736D-01 -0.50696345D-14  0.37753304D-14  0.22809427D-12
 -0.43640206D-02 -0.52374426D-02  0.96014632D-02  0.13700008D-14  0.35541806D-14
 -0.13262472D-12  0.48962781D-03  0.51915532D-03 -0.10087831D-02  0.40150593D-15
  0.20297388D-14 -0.22074099D-12  0.53876975D-15  0.98791749D-14 -0.91226180D-02
 -0.60279617D-15  0.79294794D-13  0.14586338D-01 -0.10135131D-14 -0.10893232D-12
  0.12781516D-01  0.39920843D-14  0.55248293D-15 -0.14145489D-13 -0.35392328D-03
  0.46998808D-15 -0.54036058D-13  0.22913547D-05 -0.21274369D-14  0.96472526D-13
  0.10594785D-02 -0.17872335D-14 -0.28658598D-01 -0.53425399D-01 -0.90296204D-01
 -0.13573204D+00 -0.16672249D+00 -0.14070790D+00 -0.52909846D-01 -0.60109720D-03
 -0.44928292D-02 -0.16790728D-01 -0.46843518D-01 -0.62757399D-01  0.74104787D-01
  0.30495694D-01  0.19317216D-01  0.40915403D-03 -0.19699632D-13 -0.18469657D-13
 -0.13151496D-13 -0.59232604D-13 -0.55534332D-13 -0.39543752D-13  0.11146808D+00
  0.10450841D+00  0.74416212D-01 -0.11022257D-14 -0.78500419D-12  0.70366052D-02
  0.10549122D-14 -0.18910197D-11 -0.41102612D-02  0.69639494D-16 -0.39352541D-13
 -0.57025298D-04 -0.18690955D-01 -0.82811747D-02  0.26972130D-01 -0.72446294D-15
 -0.24845424D-14  0.92674605D-13 -0.31485542D-02  0.26456374D-02  0.50291687D-03
  0.14914719D-14  0.23750414D-14  0.35237846D-12  0.17818075D-04  0.50802090D-03
 -0.52583898D-03  0.13740576D-15  0.45033186D-15  0.13090475D-12  0.43603416D-16
  0.97186091D-14  0.44772972D-02 -0.14364081D-14  0.52648167D-13 -0.10013630D-02
  0.13055979D-14 -0.81803994D-13 -0.12430529D-01  0.23061092D-15 -0.18813723D-15
  0.29972283D-13 -0.53993335D-04  0.27807899D-15  0.11470133D-12  0.46805762D-03
  0.28633272D-15 -0.20461818D-12 -0.30607762D-03 -0.15554148D-14  0.64299014D-02
  0.11596592D-01  0.17099168D-01 -0.31502675D-03 -0.60574154D-02 -0.81566442D-04
  0.12288992D-14 -0.26739503D-02  0.22328209D-02 -0.28759630D-14  0.43389999D-02
 -0.41968116D-02 -0.37534727D-15  0.57144171D-03 -0.15162028D-02  0.55114070D-03
 -0.11484603D-02  0.59731963D-03  0.17013697D-14  0.25522375D-15  0.21432485D-02
  0.35988482D-03 -0.80574912D-04 -0.27930991D-03  0.48773694D-15 -0.45062816D-15
  0.96342452D-03  0.64299014D-02  0.11596592D-01  0.17099168D-01 -0.31502675D-03
 -0.60574154D-02 -0.81566442D-04 -0.86937624D-15  0.26739503D-02  0.22328209D-02
  0.14223178D-14 -0.43389999D-02 -0.41968116D-02  0.33563460D-15 -0.57144171D-03
 -0.15162028D-02  0.55114070D-03 -0.11484603D-02  0.59731963D-03 -0.14340443D-15
  0.74751775D-15 -0.21432485D-02  0.35988482D-03 -0.80574912D-04 -0.27930991D-03
  0.92139340D-15 -0.12088525D-15 -0.96342452D-03
MO    4     MO 0.0        OCC NO =    1.9669753  ORB. ENERGY =    0.000000
  0.36359962D-01  0.67768991D-01  0.11491185D+00  0.17390686D+00  0.21693510D+00
  0.18616259D+00  0.71290383D-01  0.69753543D-03  0.74840974D-02  0.27587792D-01
  0.80665086D-01  0.97205351D-01 -0.11709415D+00 -0.66526454D-01 -0.55609883D-01
 -0.33297422D-02  0.11235290D-12  0.10894452D-12  0.73493332D-13 -0.39644058D-10
 -0.38441401D-10 -0.25932342D-10 -0.71831349D+00 -0.69652245D+00 -0.46986993D+00
  0.28923337D-13 -0.93877913D-11 -0.16105808D+00  0.52093910D-15 -0.16723738D-11
 -0.16756879D-01  0.23506143D-15 -0.35161694D-13 -0.10986792D-03 -0.20805879D-01
 -0.20580934D-01  0.41386813D-01  0.27166174D-14 -0.70391715D-14  0.31420768D-11
 -0.37982190D-02 -0.42752389D-02  0.80734578D-02 -0.11094132D-14 -0.24948110D-14
  0.92643356D-12  0.27149716D-05 -0.14545357D-03  0.14273859D-03  0.61006119D-15
  0.15612437D-14  0.15136812D-12 -0.11361814D-14  0.39774477D-12 -0.63804526D-02
 -0.19056110D-14  0.10377469D-13  0.62761730D-02  0.53141551D-14 -0.12036118D-11
  0.12865185D-01  0.14214937D-14  0.48328154D-15  0.32170354D-13 -0.18957944D-03
  0.29421463D-15 -0.52014294D-14 -0.14946871D-03 -0.17440593D-14 -0.91309633D-13
  0.71820702D-03 -0.57477479D-15 -0.49461887D-01 -0.92206921D-01 -0.15584226D+00
 -0.23425998D+00 -0.28774643D+00 -0.24284784D+00 -0.91317128D-01 -0.12012352D-02
 -0.89784886D-02 -0.33554662D-01 -0.93612282D-01 -0.12541465D+00  0.14809132D+00
  0.64227120D-01  0.45244855D-01  0.11225872D-02  0.30396504D-13  0.28498655D-13
  0.20292740D-13 -0.12978107D-10 -0.12167800D-10 -0.86641987D-11 -0.10150455D+00
 -0.95166964D-01 -0.67764547D-01  0.15401657D-13 -0.31955231D-11 -0.29216598D-01
  0.66302635D-14  0.42724431D-12 -0.54398414D-02  0.60800461D-16  0.16489654D-13
 -0.37149232D-05 -0.17840558D-01  0.13437889D-01  0.44026690D-02 -0.61396574D-15
  0.67152906D-14 -0.79568313D-12 -0.45193393D-02  0.48452241D-02 -0.32588475D-03
  0.18721288D-14  0.10424404D-14  0.15793161D-13 -0.92172836D-04  0.82222478D-05
  0.83950588D-04 -0.18534391D-15 -0.66229076D-15 -0.20365720D-13 -0.12954040D-15
  0.11313619D-12  0.44792963D-02 -0.70151372D-15  0.15741571D-12  0.36344022D-03
  0.10901349D-14 -0.49682426D-12 -0.13801329D-01 -0.52803703D-15 -0.54510593D-15
 -0.85603781D-14  0.24346116D-03  0.66977323D-15 -0.24264482D-13  0.66638399D-03
  0.96554455D-15  0.49945616D-13 -0.13967675D-02 -0.10944149D-14  0.23875327D-01
  0.43060136D-01  0.63492145D-01  0.26233660D-01 -0.39878767D-02 -0.92862609D-04
  0.42336847D-14 -0.17237182D-01  0.86765194D-02 -0.56488282D-14  0.32249225D-03
 -0.19437171D-02 -0.19693998D-14  0.13424047D-02 -0.48724447D-03 -0.16086311D-02
  0.19094793D-02 -0.30084818D-03 -0.17934792D-14 -0.14270832D-14 -0.28449290D-02
  0.30657642D-03 -0.13131524D-03 -0.17526117D-03  0.25662789D-14 -0.54787999D-15
  0.53939204D-03  0.23875327D-01  0.43060136D-01  0.63492145D-01  0.26233660D-01
 -0.39878767D-02 -0.92862609D-04  0.29940222D-14  0.17237182D-01  0.86765194D-02
 -0.14273552D-14 -0.32249225D-03 -0.19437171D-02 -0.21969097D-14 -0.13424047D-02
 -0.48724447D-03 -0.16086311D-02  0.19094793D-02 -0.30084818D-03  0.13044511D-14
  0.62996869D-15  0.28449290D-02  0.30657642D-03 -0.13131524D-03 -0.17526117D-03
 -0.13520939D-14 -0.39440588D-15 -0.53939204D-03
MO    5     MO 0.0        OCC NO =    1.9654666  ORB. ENERGY =    0.000000
  0.10690426D-11  0.19925197D-11  0.33785972D-11  0.51131476D-11  0.63782485D-11
  0.54734862D-11  0.20960544D-11  0.20760030D-13  0.22274149D-12  0.82106709D-12
  0.24007520D-11  0.28930229D-11 -0.34849527D-11 -0.19853544D-11 -0.22727981D-11
 -0.19040594D-12 -0.14741588D-13 -0.14294382D-13 -0.96429053D-14  0.13342815D+01
  0.12938042D+01  0.87279267D+00 -0.25853793D-10 -0.25069483D-10 -0.16911725D-10
 -0.36714852D-15  0.31527811D+00 -0.57663521D-11 -0.56470526D-14  0.50330650D-01
 -0.32438866D-12 -0.74834288D-15  0.15660866D-02 -0.34601603D-14 -0.74769516D-12
 -0.78249510D-12  0.15301903D-11  0.98494570D-14  0.26978912D-14 -0.10365561D+00
 -0.14990617D-12 -0.13603929D-12  0.28594546D-12 -0.34672175D-15  0.11385810D-14
 -0.28945709D-01  0.52407165D-14  0.21231685D-13 -0.26472401D-13  0.39966447D-15
  0.26533225D-14 -0.26467422D-02 -0.11059801D-14 -0.13107964D-01 -0.25652917D-12
 -0.23679472D-14 -0.95983894D-04  0.25041812D-12  0.56858876D-14  0.39419877D-01
  0.51916939D-12  0.82841519D-15  0.30153334D-15 -0.97488745D-03 -0.63139683D-15
  0.93206599D-15  0.42299980D-03  0.85763267D-15 -0.18366660D-14  0.25016626D-02
  0.10365578D-14 -0.58961177D-15 -0.15445322D-11 -0.28793191D-11 -0.48664416D-11
 -0.73151693D-11 -0.89853753D-11 -0.75833398D-11 -0.28515338D-11 -0.37618148D-13
 -0.28117235D-12 -0.10508053D-11 -0.29315831D-11 -0.39275131D-11  0.46376607D-11
  0.18693954D-11  0.41906641D-11  0.31045154D-12 -0.18537345D-14 -0.17379939D-14
 -0.12375552D-14  0.40693206D+00  0.38152467D+00  0.27166830D+00 -0.15886125D-11
 -0.14894252D-11 -0.10605594D-11 -0.19984992D-14  0.10482286D+00 -0.73178247D-12
 -0.15899204D-14  0.60792369D-02 -0.45626049D-12  0.62821808D-16 -0.33816121D-03
 -0.37557160D-14 -0.54047049D-12  0.30733126D-12  0.23313923D-12 -0.20390703D-14
 -0.64508498D-14  0.30839667D-01 -0.39598359D-12  0.35200767D-12  0.43975918D-13
  0.26174356D-14  0.72076331D-14 -0.37680968D-02 -0.25334887D-13  0.38490453D-13
 -0.13155565D-13  0.38523883D-15  0.12007042D-14 -0.89650970D-03  0.61578586D-15
 -0.39603526D-02  0.18472287D-12 -0.39769399D-15 -0.54184357D-02  0.31134728D-13
 -0.14496636D-14  0.17299493D-01 -0.58530335D-12 -0.16800058D-15  0.22635018D-15
 -0.38211284D-03  0.53203797D-13 -0.14369953D-14 -0.31897476D-03  0.52388491D-13
  0.75794480D-15  0.14653133D-02 -0.21199988D-12 -0.15417572D-14  0.18169239D-01
  0.32768971D-01  0.48317828D-01  0.19038449D-01 -0.14932562D-02  0.35492406D-03
 -0.27530516D-14 -0.11321324D-01  0.13733842D-01  0.24921655D-14  0.54891789D-02
  0.18783491D-02  0.80012252D-15  0.45319746D-03  0.63584048D-03 -0.19297606D-02
 -0.14331348D-02  0.33628954D-02 -0.23079520D-15  0.18689244D-14 -0.84827196D-02
  0.30568945D-03 -0.46590946D-03  0.16022000D-03 -0.79888495D-15  0.40398498D-15
  0.86314180D-03 -0.18169239D-01 -0.32768971D-01 -0.48317828D-01 -0.19038449D-01
  0.14932562D-02 -0.35492406D-03 -0.40597448D-14 -0.11321324D-01 -0.13733842D-01
  0.78500534D-14  0.54891789D-02 -0.18783491D-02  0.25652759D-14  0.45319746D-03
 -0.63584048D-03  0.19297606D-02  0.14331348D-02 -0.33628954D-02  0.10802718D-14
  0.28972768D-14 -0.84827196D-02 -0.30568945D-03  0.46590946D-03 -0.16022000D-03
  0.28019802D-14  0.13861397D-14  0.86314180D-03
MO    6     MO 0.0        OCC NO =    1.9606191  ORB. ENERGY =    0.000000
  0.25102136D-02  0.46786254D-02  0.79332668D-02  0.12006156D-01  0.14976733D-01
  0.12852265D-01  0.49217347D-02 -0.21844253D-04 -0.23437449D-03 -0.86394852D-03
 -0.25261348D-02 -0.30441153D-02  0.36669594D-02  0.64773133D-02  0.28210816D-01
  0.63235896D-02 -0.42744817D-13 -0.41448094D-13 -0.27960640D-13  0.94859288D-11
  0.91981600D-11  0.62050244D-11  0.13691911D+01  0.13276548D+01  0.89562808D+00
 -0.13908971D-13  0.22597910D-11  0.31589757D+00 -0.35326591D-14  0.82404392D-12
  0.37313992D-01  0.95692226D-16  0.62636994D-14  0.14596823D-03  0.41851271D-01
  0.43700610D-01 -0.85551881D-01  0.25457388D-14  0.70577797D-14 -0.25869100D-12
  0.10287807D-01  0.11621797D-01 -0.21909604D-01  0.12748855D-15  0.35698271D-14
 -0.16965527D-12  0.22485880D-03  0.48117515D-03 -0.70603395D-03  0.74278410D-15
  0.93726058D-15 -0.19432502D-12 -0.51211294D-15 -0.48603349D-13  0.15393298D-01
  0.28625190D-14  0.89218761D-13 -0.15737714D-01 -0.13261802D-14  0.56591285D-13
 -0.30442179D-01  0.53339358D-14  0.26073133D-15 -0.98887681D-14  0.19770540D-02
  0.52239472D-15 -0.26541055D-13 -0.24420932D-02 -0.13045887D-14  0.56207359D-13
 -0.34890687D-02 -0.16752866D-14  0.39158262D-02  0.72998889D-02  0.12337807D-01
  0.18546025D-01  0.22780470D-01  0.19225913D-01  0.72294452D-02  0.58081073D-04
  0.43412003D-03  0.16224057D-02  0.45262592D-02  0.60639395D-02 -0.71603819D-02
 -0.45253434D-02  0.17712081D-01 -0.48519629D-05 -0.14926562D-13 -0.13994600D-13
 -0.99649891D-14 -0.58748517D-12 -0.55080469D-12 -0.39220575D-12 -0.52751240D+00
 -0.49457640D+00 -0.35216786D+00 -0.22660611D-14 -0.24494944D-12 -0.10941501D+00
 -0.21824931D-15 -0.15291580D-11 -0.86485673D-02 -0.61021418D-16 -0.39435092D-13
 -0.40261448D-04  0.83488560D-02  0.29332584D-01 -0.37681440D-01 -0.12642403D-14
 -0.12691204D-14  0.60341925D-12  0.68792676D-04  0.25506877D-02 -0.26194804D-02
  0.23687118D-14  0.24165317D-14  0.18438478D-12 -0.15566993D-03  0.12066288D-03
  0.35007050D-04 -0.22459481D-15 -0.39308386D-16  0.11517889D-12  0.96051607D-16
 -0.17627605D-13 -0.60031635D-02 -0.10746243D-14 -0.40196969D-13  0.67571567D-02
  0.78646949D-15  0.93079782D-13  0.11252334D-01 -0.26238773D-14 -0.59530952D-16
  0.21572000D-13  0.82637666D-03 -0.61671438D-15  0.81709583D-13 -0.22925406D-03
  0.79530724D-15 -0.14642558D-12 -0.22498759D-02 -0.18648942D-14  0.18891978D-01
  0.34072460D-01  0.50239823D-01  0.31565024D-01  0.67340534D-03  0.12274350D-04
  0.53389255D-15 -0.17958769D-01  0.39186103D-02 -0.22938505D-14 -0.57852191D-02
  0.75846650D-03  0.28221855D-15  0.37932896D-03 -0.25484010D-03 -0.15041977D-02
  0.53424631D-02 -0.38382654D-02  0.26126969D-14 -0.10179721D-14 -0.46498796D-02
 -0.55618072D-03  0.26126005D-05  0.55356812D-03  0.45994723D-15  0.59628623D-15
  0.78910403D-04  0.18891978D-01  0.34072460D-01  0.50239823D-01  0.31565024D-01
  0.67340534D-03  0.12274350D-04 -0.20972933D-14  0.17958769D-01  0.39186103D-02
  0.39233200D-14  0.57852191D-02  0.75846650D-03 -0.25887186D-15 -0.37932896D-03
 -0.25484010D-03 -0.15041977D-02  0.53424631D-02 -0.38382654D-02  0.35872579D-14
  0.10256715D-14  0.46498796D-02 -0.55618072D-03  0.26126005D-05  0.55356812D-03
  0.58636638D-15  0.58122415D-15 -0.78910403D-04
MO    7     MO 0.0        OCC NO =    1.9567377  ORB. ENERGY =    0.000000
 -0.51734375D-13 -0.96424369D-13 -0.16350107D-12 -0.24744148D-12 -0.30866374D-12
 -0.26487941D-12 -0.10143474D-12 -0.69664004D-15 -0.74744905D-14 -0.27552379D-13
 -0.80561541D-13 -0.97080574D-13  0.11694384D-12  0.34993205D-13  0.17209356D-12
 -0.88549606D-13 -0.78916150D-14 -0.76522120D-14 -0.51621370D-14  0.11706303D+01
  0.11351176D+01  0.76574363D+00 -0.58634516D-11 -0.56855757D-11 -0.38354558D-11
  0.15772383D-14  0.27651492D+00 -0.14447627D-11 -0.13394977D-14  0.49982059D-01
 -0.26895196D-12 -0.11784631D-15  0.16970877D-02  0.64688329D-14 -0.18049744D-12
 -0.17052346D-12  0.35102090D-12  0.51972157D-14  0.70899471D-14 -0.11330696D-01
 -0.57252394D-13 -0.75803468D-13  0.13305586D-12  0.86327944D-15 -0.28247702D-14
 -0.28690267D-02 -0.23201007D-14 -0.79624952D-14  0.10282596D-13  0.89342344D-15
  0.75380059D-15 -0.62462951D-03 -0.19875006D-14 -0.41034352D-02 -0.80398843D-13
 -0.16661060D-14  0.87739388D-02  0.90916053D-13  0.76286078D-14  0.35363668D-02
  0.15028048D-12  0.79734278D-14  0.16211696D-15 -0.30211717D-03 -0.12879124D-13
  0.10380363D-15 -0.36799139D-03  0.14743882D-13 -0.59015451D-15  0.12743429D-02
  0.23893491D-13 -0.28797396D-14  0.33164488D-13  0.61825287D-13  0.10449316D-12
  0.15707271D-12  0.19293569D-12  0.16283091D-12  0.61228676D-13  0.17395176D-14
  0.13001816D-13  0.48590756D-13  0.13556064D-12  0.18161389D-12 -0.21445214D-12
  0.39209814D-13 -0.10418189D-11  0.24429052D-14  0.19050249D-14  0.17860819D-14
  0.12717967D-14 -0.35952365D+00 -0.33707627D+00 -0.24001839D+00  0.26800705D-11
  0.25127364D-11  0.17892180D-11 -0.13607252D-14 -0.99024214D-01  0.60509012D-12
 -0.71611380D-16 -0.25788829D-01  0.12738698D-12 -0.18340017D-16 -0.51219463D-03
  0.23374711D-14 -0.38063268D-13 -0.13902336D-12  0.17708663D-12  0.35359719D-15
 -0.19887963D-14  0.11196959D+00  0.13543222D-12 -0.12726210D-12 -0.81701207D-14
  0.27939823D-15  0.12640511D-14  0.32080881D-01  0.75917996D-14 -0.18765106D-13
  0.11173306D-13 -0.26037696D-15  0.20559190D-15  0.34373141D-02  0.86302626D-15
 -0.37145935D-02 -0.66747718D-15  0.14472592D-15  0.27796374D-02 -0.45841284D-13
 -0.27338047D-14  0.83641432D-02  0.47843715D-13 -0.80799577D-15  0.23548454D-16
 -0.59706123D-03 -0.26387580D-13 -0.27327371D-15  0.79855465D-03 -0.90246762D-14
  0.20262835D-15  0.99262903D-03  0.88187418D-13 -0.18867582D-14 -0.34743965D-01
 -0.62662172D-01 -0.92395337D-01 -0.52702631D-01  0.10441765D-01  0.43288984D-03
  0.49848577D-15  0.14926698D-01 -0.10537139D-01 -0.61435116D-15 -0.32738673D-02
  0.20814790D-02  0.66517616D-15 -0.34961316D-02  0.16716790D-02  0.66402996D-03
 -0.15576876D-02  0.89365765D-03  0.23882587D-14 -0.31594546D-15  0.30281320D-02
  0.10862666D-06  0.35676826D-03 -0.35687689D-03 -0.43351034D-15  0.71357647D-15
  0.25840044D-04  0.34743965D-01  0.62662172D-01  0.92395337D-01  0.52702631D-01
 -0.10441765D-01 -0.43288984D-03 -0.18326061D-14  0.14926698D-01  0.10537139D-01
  0.31067463D-14 -0.32738673D-02 -0.20814790D-02 -0.68652556D-16 -0.34961316D-02
 -0.16716790D-02 -0.66402996D-03  0.15576876D-02 -0.89365765D-03  0.49051075D-14
 -0.58756117D-15  0.30281320D-02 -0.10862664D-06 -0.35676826D-03  0.35687689D-03
  0.41038635D-15  0.62466090D-17  0.25840044D-04
MO    8     MO 0.0        OCC NO =    1.9240926  ORB. ENERGY =    0.000000
  0.55496746D-14  0.10343681D-13  0.17539165D-13  0.26543661D-13  0.33111125D-13
  0.28414271D-13  0.10881156D-13 -0.18567365D-15 -0.19921564D-14 -0.73434636D-14
 -0.21471857D-13 -0.25874632D-13  0.31168736D-13  0.11948387D-13  0.64076337D-13
  0.25476807D-13  0.13798952D+01  0.13380342D+01  0.90262993D+00  0.45005083D-14
  0.43639791D-14  0.29439145D-14  0.11796571D-12  0.11438705D-12  0.77164831D-13
  0.33248532D+00  0.63972097D-14  0.37288016D-14  0.48288294D-01 -0.11331385D-13
 -0.16611932D-13  0.87022711D-03 -0.24689050D-16 -0.20834707D-14 -0.86760586D-14
  0.13653624D-14  0.73106962D-14 -0.17141444D-13 -0.12707815D+00  0.89409889D-14
  0.16971472D-14 -0.40373379D-14  0.23401906D-14  0.44750884D-14 -0.37824311D-01
 -0.35123430D-14 -0.19109580D-15 -0.54963913D-15  0.74073493D-15 -0.21981757D-14
 -0.23571978D-02  0.56994385D-14 -0.63435977D-02 -0.26269450D-14 -0.18798559D-14
 -0.22312408D-01 -0.43185136D-14  0.43259801D-14  0.41343201D-01  0.12199349D-13
  0.13135874D-14 -0.41208070D-14 -0.36431770D-03  0.32432535D-15  0.84710254D-15
 -0.15445129D-02  0.12625156D-14 -0.24919075D-14  0.26374660D-02 -0.22354917D-14
 -0.49400110D-16 -0.75995735D-15 -0.62749439D-15 -0.11697760D-14 -0.19770807D-14
 -0.29719211D-14 -0.36504728D-14 -0.30808702D-14 -0.11584877D-14  0.10602777D-15
  0.79249193D-15  0.29617233D-14  0.82627468D-14  0.11069803D-13 -0.13071373D-13
  0.13445976D-13 -0.11701673D-12 -0.16003836D-13  0.41685558D+00  0.39082860D+00
  0.27829325D+00  0.69190848D-15  0.64870818D-15  0.46191887D-15  0.23399221D-14
  0.21938257D-14  0.15621346D-14  0.10660192D+00  0.19931853D-15 -0.85945561D-14
  0.12462485D-01  0.21497852D-13 -0.26411972D-14  0.37296958D-04 -0.27119666D-16