 h2co-wavefunction
GAUSSIAN            138 MOL ORBITALS    198 PRIMITIVES        4 NUCLEI
  O    1    (CENTRE  1)   0.00000000  0.00000000  1.28360026  CHARGE =  8.0
  C    2    (CENTRE  2)   0.00000000  0.00000000 -0.99571749  CHARGE =  6.0
  H    3    (CENTRE  3)   0.00000000  1.78884121 -2.09120873  CHARGE =  1.0
  H    4    (CENTRE  4)   0.00000000 -1.76994395 -2.09120873  CHARGE =  1.0
CENTRE ASSIGNMENTS    1  1  1  1  1  1  1  1  1  1  1  1  1  1  1  1  1  1  1  1
CENTRE ASSIGNMENTS    1  1  1  1  1  1  1  1  1  1  1  1  1  1  1  1  1  1  1  1
CENTRE ASSIGNMENTS    1  1  1  1  1  1  1  1  1  1  1  1  1  1  1  1  1  1  1  1
CENTRE ASSIGNMENTS    1  1  1  1  1  1  1  1  1  1  1  1  2  2  2  2  2  2  2  2
CENTRE ASSIGNMENTS    2  2  2  2  2  2  2  2  2  2  2  2  2  2  2  2  2  2  2  2
CENTRE ASSIGNMENTS    2  2  2  2  2  2  2  2  2  2  2  2  2  2  2  2  2  2  2  2
CENTRE ASSIGNMENTS    2  2  2  2  2  2  2  2  2  2  2  2  2  2  2  2  2  2  2  2
CENTRE ASSIGNMENTS    2  2  2  2  3  3  3  3  3  3  3  3  3  3  3  3  3  3  3  3
CENTRE ASSIGNMENTS    3  3  3  3  3  3  3  3  3  3  3  4  4  4  4  4  4  4  4  4
CENTRE ASSIGNMENTS    4  4  4  4  4  4  4  4  4  4  4  4  4  4  4  4  4  4
TYPE ASSIGNMENTS      1  1  1  1  1  1  1  1  1  1  1  1  1  1  1  1  2  2  2  3
TYPE ASSIGNMENTS      3  3  4  4  4  2  3  4  2  3  4  2  3  4  5  6  7  8  9 10
TYPE ASSIGNMENTS      5  6  7  8  9 10  5  6  7  8  9 10 11 12 13 17 14 15 18 19
TYPE ASSIGNMENTS     16 20 11 12 13 17 14 15 18 19 16 20  1  1  1  1  1  1  1  1
TYPE ASSIGNMENTS      1  1  1  1  1  1  1  1  2  2  2  3  3  3  4  4  4  2  3  4
TYPE ASSIGNMENTS      2  3  4  2  3  4  5  6  7  8  9 10  5  6  7  8  9 10  5  6
TYPE ASSIGNMENTS      7  8  9 10 11 12 13 17 14 15 18 19 16 20 11 12 13 17 14 15
TYPE ASSIGNMENTS     18 19 16 20  1  1  1  1  1  1  2  3  4  2  3  4  2  3  4  5
TYPE ASSIGNMENTS      6  7  8  9 10  5  6  7  8  9 10  1  1  1  1  1  1  2  3  4
TYPE ASSIGNMENTS      2  3  4  2  3  4  5  6  7  8  9 10  5  6  7  8  9 10
EXPONENTS  0.1533000D+05 0.2299000D+04 0.5224000D+03 0.1473000D+03 0.4755000D+02
EXPONENTS  0.1676000D+02 0.6207000D+01 0.5224000D+03 0.1473000D+03 0.4755000D+02
EXPONENTS  0.1676000D+02 0.6207000D+01 0.6882000D+00 0.1752000D+01 0.2384000D+00
EXPONENTS  0.7376000D-01 0.3446000D+02 0.7749000D+01 0.2280000D+01 0.3446000D+02
EXPONENTS  0.7749000D+01 0.2280000D+01 0.3446000D+02 0.7749000D+01 0.2280000D+01
EXPONENTS  0.7156000D+00 0.7156000D+00 0.7156000D+00 0.2140000D+00 0.2140000D+00
EXPONENTS  0.2140000D+00 0.5974000D-01 0.5974000D-01 0.5974000D-01 0.2314000D+01
EXPONENTS  0.2314000D+01 0.2314000D+01 0.2314000D+01 0.2314000D+01 0.2314000D+01
EXPONENTS  0.6450000D+00 0.6450000D+00 0.6450000D+00 0.6450000D+00 0.6450000D+00
EXPONENTS  0.6450000D+00 0.2140000D+00 0.2140000D+00 0.2140000D+00 0.2140000D+00
EXPONENTS  0.2140000D+00 0.2140000D+00 0.1428000D+01 0.1428000D+01 0.1428000D+01
EXPONENTS  0.1428000D+01 0.1428000D+01 0.1428000D+01 0.1428000D+01 0.1428000D+01
EXPONENTS  0.1428000D+01 0.1428000D+01 0.5000000D+00 0.5000000D+00 0.5000000D+00
EXPONENTS  0.5000000D+00 0.5000000D+00 0.5000000D+00 0.5000000D+00 0.5000000D+00
EXPONENTS  0.5000000D+00 0.5000000D+00 0.8236000D+04 0.1235000D+04 0.2808000D+03
EXPONENTS  0.7927000D+02 0.2559000D+02 0.8997000D+01 0.3319000D+01 0.2808000D+03
EXPONENTS  0.7927000D+02 0.2559000D+02 0.8997000D+01 0.3319000D+01 0.3643000D+00
EXPONENTS  0.9059000D+00 0.1285000D+00 0.4402000D-01 0.1871000D+02 0.4133000D+01
EXPONENTS  0.1200000D+01 0.1871000D+02 0.4133000D+01 0.1200000D+01 0.1871000D+02
EXPONENTS  0.4133000D+01 0.1200000D+01 0.3827000D+00 0.3827000D+00 0.3827000D+00
EXPONENTS  0.1209000D+00 0.1209000D+00 0.1209000D+00 0.3569000D-01 0.3569000D-01
EXPONENTS  0.3569000D-01 0.1097000D+01 0.1097000D+01 0.1097000D+01 0.1097000D+01
EXPONENTS  0.1097000D+01 0.1097000D+01 0.3180000D+00 0.3180000D+00 0.3180000D+00
EXPONENTS  0.3180000D+00 0.3180000D+00 0.3180000D+00 0.1000000D+00 0.1000000D+00
EXPONENTS  0.1000000D+00 0.1000000D+00 0.1000000D+00 0.1000000D+00 0.7610000D+00
EXPONENTS  0.7610000D+00 0.7610000D+00 0.7610000D+00 0.7610000D+00 0.7610000D+00
EXPONENTS  0.7610000D+00 0.7610000D+00 0.7610000D+00 0.7610000D+00 0.2680000D+00
EXPONENTS  0.2680000D+00 0.2680000D+00 0.2680000D+00 0.2680000D+00 0.2680000D+00
EXPONENTS  0.2680000D+00 0.2680000D+00 0.2680000D+00 0.2680000D+00 0.3387000D+02
EXPONENTS  0.5095000D+01 0.1159000D+01 0.3258000D+00 0.1027000D+00 0.2526000D-01
EXPONENTS  0.1407000D+01 0.1407000D+01 0.1407000D+01 0.3880000D+00 0.3880000D+00
EXPONENTS  0.3880000D+00 0.1020000D+00 0.1020000D+00 0.1020000D+00 0.1057000D+01
EXPONENTS  0.1057000D+01 0.1057000D+01 0.1057000D+01 0.1057000D+01 0.1057000D+01
EXPONENTS  0.2470000D+00 0.2470000D+00 0.2470000D+00 0.2470000D+00 0.2470000D+00
EXPONENTS  0.2470000D+00 0.3387000D+02 0.5095000D+01 0.1159000D+01 0.3258000D+00
EXPONENTS  0.1027000D+00 0.2526000D-01 0.1407000D+01 0.1407000D+01 0.1407000D+01
EXPONENTS  0.3880000D+00 0.3880000D+00 0.3880000D+00 0.1020000D+00 0.1020000D+00
EXPONENTS  0.1020000D+00 0.1057000D+01 0.1057000D+01 0.1057000D+01 0.1057000D+01
EXPONENTS  0.1057000D+01 0.1057000D+01 0.2470000D+00 0.2470000D+00 0.2470000D+00
EXPONENTS  0.2470000D+00 0.2470000D+00 0.2470000D+00
MO    1     MO 0.0        OCC NO =    2.0000076  ORB. ENERGY =    0.000000
 -0.26794795D+00 -0.49941092D+00 -0.84682140D+00 -0.12815741D+01 -0.15986627D+01
 -0.13718905D+01 -0.52536116D+00 -0.36332598D-04 -0.38982494D-03 -0.14369681D-02
 -0.42016105D-02 -0.50631449D-02  0.60990946D-02 -0.23798224D-01  0.67415144D-03
  0.10633041D-04 -0.47110244D-13 -0.45681090D-13 -0.30816193D-13 -0.33761027D-05
 -0.32736839D-05 -0.22084078D-05  0.14678972D-01  0.14233665D-01  0.96019466D-02
 -0.84236303D-14 -0.27897428D-05  0.18856275D-02  0.10470064D-13 -0.38402731D-05
  0.63875995D-03  0.65771326D-15 -0.14325806D-06  0.84733970D-05  0.92841142D-03
  0.11334353D-03 -0.10417550D-02  0.22547030D-14  0.10017194D-13 -0.27239466D-05
  0.22994960D-03  0.11868998D-03 -0.34863958D-03 -0.21345338D-14 -0.97361251D-14
 -0.35375706D-05  0.63167806D-04  0.11142697D-04 -0.74310503D-04  0.14785969D-15
 -0.59134950D-14  0.99316090D-06  0.42524674D-14 -0.14173533D-05 -0.11132698D-03
  0.18635918D-14  0.20786507D-05  0.45470320D-03 -0.14620994D-13  0.21734090D-05
 -0.12072226D-03  0.96819463D-14 -0.19360403D-14 -0.99548610D-07  0.10433334D-03
 -0.21314735D-14 -0.15005447D-05 -0.16997414D-03  0.79395944D-14  0.17991905D-05
 -0.14302589D-03 -0.10550646D-15  0.27667973D+00  0.51578676D+00  0.87174990D+00
  0.13104027D+01  0.16095950D+01  0.13584414D+01  0.51080944D+00  0.32338100D-04
  0.24170726D-03  0.90331523D-03  0.25201088D-02  0.33762510D-02 -0.39867229D-02
  0.22715191D-01  0.53325923D-03  0.12464300D-03 -0.10836201D-13 -0.10159627D-13
 -0.72342600D-14  0.48469664D-04  0.45443391D-04  0.32358401D-04  0.20238135D-02
  0.18974538D-02  0.13511001D-02 -0.13335294D-13 -0.29256918D-04  0.26172412D-03
 -0.45960637D-14 -0.15107838D-05 -0.99872721D-04 -0.92984726D-16  0.39569372D-08
 -0.35106527D-05 -0.12108083D-02  0.23034884D-03  0.98045947D-03  0.19820467D-14
 -0.27725425D-14  0.32466912D-04  0.14486232D-03  0.16928207D-04 -0.16179053D-03
 -0.27603889D-14 -0.13286134D-13  0.93588711D-05 -0.59831395D-05  0.18737904D-04
 -0.12754765D-04 -0.13506905D-15 -0.81567700D-15  0.12404863D-07  0.61127136D-15
  0.10042336D-05  0.54837841D-03  0.42803676D-14  0.90557582D-05 -0.54408719D-04
 -0.61141816D-14 -0.12068459D-04 -0.15907265D-02  0.12741108D-14  0.44483800D-15
 -0.11118054D-05 -0.11380855D-03  0.70263687D-15  0.68809347D-06  0.43221895D-04
 -0.20371509D-14  0.26473226D-05  0.29820374D-03  0.12737779D-14 -0.26485810D-03
 -0.47768250D-03 -0.70434256D-03 -0.18776077D-03 -0.43931708D-03 -0.11752375D-04
 -0.81186670D-15  0.75552874D-03 -0.50594291D-03  0.82956442D-15  0.19633049D-03
 -0.64198121D-04  0.36834313D-15  0.39901333D-04 -0.53510870D-04  0.22492736D-03
 -0.36094497D-03  0.13601761D-03 -0.40877700D-15  0.18709399D-15  0.87157102D-03
  0.44923957D-04 -0.11803445D-04 -0.33120512D-04  0.12142723D-15 -0.65779983D-16
 -0.29764492D-04 -0.27512049D-03 -0.49619114D-03 -0.73163354D-03 -0.24006741D-03
 -0.45527508D-03 -0.12236706D-04  0.23579552D-14 -0.77500191D-03 -0.52379400D-03
 -0.49543837D-14 -0.22953946D-03 -0.90413153D-04 -0.20855846D-15 -0.42562199D-04
 -0.56200310D-04  0.22302133D-03 -0.35563529D-03  0.13261396D-03 -0.25400302D-14
 -0.34694127D-14 -0.88291437D-03  0.47534222D-04 -0.13656804D-04 -0.33877418D-04
 -0.12884839D-14 -0.70074944D-15  0.25457988D-04
MO    2     MO 0.0        OCC NO =    2.0000041  ORB. ENERGY =    0.000000
  0.42205909D+00  0.78664874D+00  0.13338735D+01  0.20186757D+01  0.25181388D+01
  0.21609377D+01  0.82752435D+00  0.49575185D-04  0.53190920D-03  0.19607175D-02
  0.57330229D-02  0.69085713D-02 -0.83221063D-02  0.38558399D-01 -0.65931083D-03
 -0.84038593D-04  0.14272703D-13  0.13839721D-13  0.93361937D-14 -0.20850403D-04
 -0.20217877D-04 -0.13638860D-04 -0.10946436D-01 -0.10614361D-01 -0.71603850D-02
  0.55050968D-14 -0.44474247D-05  0.14540110D-02  0.89093126D-14 -0.29487099D-05
  0.10675551D-03  0.50102133D-15  0.20792304D-07  0.22052919D-05 -0.99091506D-03
 -0.59985709D-04  0.10509008D-02  0.57081768D-14  0.24404212D-13 -0.45232800D-06
  0.34807561D-03  0.53631888D-03 -0.88439449D-03 -0.15613490D-14 -0.95634262D-14
 -0.15186588D-05  0.33955669D-04 -0.64694544D-06 -0.33308723D-04  0.23394898D-15
 -0.41593550D-14  0.58221792D-06  0.46279824D-15 -0.26239788D-06  0.10899533D-03
  0.34105509D-14  0.11964141D-05 -0.23901039D-03 -0.47989457D-14 -0.40922047D-06
 -0.87975602D-04 -0.65077165D-15 -0.10114779D-14 -0.76165427D-07  0.12817861D-03
 -0.20860540D-14 -0.76662441D-06 -0.16669357D-03  0.51204878D-14  0.99512069D-06
 -0.21784226D-03 -0.66919533D-15  0.17554675D+00  0.32725451D+00  0.55310471D+00
  0.83141954D+00  0.10212500D+01  0.86189896D+00  0.32409652D+00  0.17450199D-04
  0.13042942D-03  0.48744454D-03  0.13598944D-02  0.18218835D-02 -0.21513047D-02
  0.14477698D-01  0.50351421D-03  0.94653495D-04  0.81628595D-14  0.76531997D-14
  0.54495341D-14  0.29325136D-04  0.27494179D-04  0.19577493D-04  0.11394672D-02
  0.10683229D-02  0.76070954D-03 -0.54166102D-14 -0.10047498D-04  0.16063331D-02
 -0.29678279D-14  0.10605521D-05 -0.11038624D-04 -0.88311798D-16 -0.54131850D-07
  0.49682656D-06 -0.10219680D-02 -0.31292390D-03  0.13348919D-02  0.28752608D-14
 -0.71488570D-15  0.15280804D-04  0.15965940D-04 -0.26143831D-03  0.24547237D-03
 -0.18863369D-14 -0.88768023D-14  0.16707785D-05 -0.20935756D-05  0.41481839D-04
 -0.39388263D-04 -0.25207345D-15 -0.57711643D-15 -0.33603645D-06  0.36444722D-15
 -0.29360365D-06  0.34772003D-03  0.17083273D-14  0.55301351D-05 -0.23051859D-03
 -0.28016689D-14 -0.46493242D-05 -0.81264149D-03  0.71937745D-15  0.33314257D-15
 -0.70336158D-06 -0.89127352D-05  0.65871172D-15  0.70089817D-07 -0.38482104D-04
 -0.16581394D-14  0.20399949D-05  0.65220310D-04  0.54937385D-15 -0.14276640D-03
 -0.25748508D-03 -0.37966161D-03  0.12267720D-03 -0.34493501D-03 -0.72910852D-05
  0.11217643D-14  0.33727199D-03 -0.21142904D-03 -0.12944461D-16 -0.82847724D-04
  0.14010290D-03  0.51964967D-15 -0.92498600D-05 -0.80160060D-04  0.12502619D-03
 -0.13949950D-03  0.14473307D-04 -0.48131057D-15 -0.35966898D-15  0.40915559D-03
  0.13908771D-05  0.30641574D-05 -0.44550345D-05 -0.26414154D-15  0.44441245D-16
 -0.88710016D-05 -0.14829260D-03 -0.26745181D-03 -0.39435754D-03  0.10566050D-03
 -0.34635174D-03 -0.77552739D-05  0.28352526D-14 -0.34781761D-03 -0.21954422D-03
 -0.31697434D-14  0.70236039D-04  0.12671425D-03 -0.29549104D-15  0.98493941D-05
 -0.82249261D-04  0.12522000D-03 -0.13688151D-03  0.11661511D-04 -0.89994050D-15
 -0.12510974D-14 -0.41651617D-03  0.26467551D-05  0.23752946D-05 -0.50220497D-05
 -0.63937424D-15 -0.68237365D-15  0.54773923D-05
MO    3     MO 0.0        OCC NO =    1.9805491  ORB. ENERGY =    0.000000
 -0.96737266D-01 -0.18030236D+00 -0.30572799D+00 -0.46268680D+00 -0.57716531D+00
 -0.49529370D+00 -0.18967118D+00 -0.16864449D-02 -0.18094447D-01 -0.66699538D-01
 -0.19502554D+00 -0.23501526D+00  0.28310078D+00  0.14950923D+00  0.75471276D-01
  0.43615566D-02  0.14986693D-12  0.14532051D-12  0.98032360D-13 -0.94377392D-04
 -0.91514324D-04 -0.61735022D-04 -0.20455102D-02 -0.19834568D-02 -0.13380283D-02
  0.32178206D-13 -0.98031179D-05 -0.79868078D-02  0.41665893D-14 -0.31771659D-05
  0.81293307D-02  0.49061382D-15 -0.17444265D-05  0.95799880D-04 -0.14839250D-01
 -0.15859823D-01  0.30699074D-01 -0.30558274D-14 -0.17009815D-13  0.89264941D-04
 -0.42566818D-02 -0.51100322D-02  0.93667139D-02  0.11680423D-14  0.19185834D-14
 -0.50082892D-06  0.46702448D-03  0.51437174D-03 -0.98139622D-03  0.20467648D-15
  0.42422964D-15  0.62883775D-05 -0.11364792D-14 -0.83837540D-06 -0.89178094D-02
 -0.31699388D-14  0.24655686D-05  0.14294927D-01  0.65793764D-14  0.49557628D-07
  0.12458501D-01  0.20812219D-14  0.74534294D-15 -0.87645256D-06 -0.35528124D-03
  0.76091823D-15 -0.23532617D-05  0.17895986D-04 -0.29969470D-14  0.49826194D-05
  0.10479477D-02 -0.16202397D-14 -0.28080270D-01 -0.52347281D-01 -0.88474036D-01
 -0.13299298D+00 -0.16335805D+00 -0.13786843D+00 -0.51842131D-01 -0.58926504D-03
 -0.44043911D-02 -0.16460215D-01 -0.45921437D-01 -0.61522065D-01  0.72646087D-01
  0.29888476D-01  0.18919986D-01  0.41961367D-03  0.45791838D-13  0.42932759D-13
  0.30570682D-13 -0.95721269D-03 -0.89744774D-03 -0.63903626D-03  0.10670915D+00
  0.10004661D+00  0.71239145D-01  0.14948345D-13 -0.52993448D-03  0.69073829D-02
  0.40758213D-15 -0.91552086D-04 -0.39609909D-02 -0.14811319D-15  0.57113483D-07
 -0.55333363D-04 -0.18295308D-01 -0.80158925D-02  0.26311200D-01  0.19114595D-14
  0.85174989D-14  0.29175975D-03 -0.31229361D-02  0.25048426D-02  0.61809352D-03
 -0.28253920D-14  0.56683117D-14  0.16363045D-03  0.15838119D-04  0.48844048D-03
 -0.50427860D-03 -0.35511866D-15 -0.18487443D-15  0.72150724D-05 -0.22365557D-14
  0.21823625D-04  0.43736322D-02 -0.15535022D-14  0.21774488D-04 -0.97499975D-03
  0.82631692D-14 -0.87245363D-04 -0.12145897D-01 -0.12095742D-15  0.28233932D-15
  0.11625527D-05 -0.31183785D-04 -0.28303221D-15  0.71857552D-05  0.43626223D-03
 -0.56398576D-15 -0.10673413D-04 -0.34271087D-03  0.14439940D-15  0.63049891D-02
  0.11371307D-01  0.16766986D-01  0.20622099D-03 -0.56360801D-02 -0.78615872D-04
 -0.32446080D-15 -0.26865227D-02  0.21650249D-02  0.39061436D-14  0.40154467D-02
 -0.39396508D-02  0.11488855D-14  0.54022899D-03 -0.14395263D-02  0.55042264D-03
 -0.10816301D-02  0.53120747D-03  0.24038460D-15  0.57946302D-15  0.20901853D-02
  0.33541305D-03 -0.76226740D-04 -0.25918631D-03 -0.17243317D-14  0.81813125D-15
  0.93003086D-03  0.64757077D-02  0.11679206D-01  0.17220982D-01 -0.13853382D-03
 -0.59223361D-02 -0.81702970D-04  0.21341408D-14  0.27548980D-02  0.22522106D-02
  0.23874595D-15 -0.42875362D-02 -0.41213319D-02 -0.45441119D-15 -0.57420500D-03
 -0.14800286D-02  0.54572277D-03 -0.11108147D-02  0.56509197D-03  0.40549681D-15
  0.12421349D-14 -0.21229324D-02  0.34906955D-03 -0.86494757D-04 -0.26257480D-03
 -0.14772650D-15 -0.65476989D-15 -0.95793837D-03
MO    4     MO 0.0        OCC NO =    1.9667730  ORB. ENERGY =    0.000000
  0.35911383D-01  0.66932913D-01  0.11349416D+00  0.17176134D+00  0.21425874D+00
  0.18386587D+00  0.70410861D-01  0.68832573D-03  0.73852834D-02  0.27223545D-01
  0.79600049D-01  0.95921930D-01 -0.11554813D+00 -0.65695219D-01 -0.54412893D-01
 -0.31522167D-02  0.27462571D-13  0.26629456D-13  0.17964074D-13 -0.61474611D-01
 -0.59609694D-01 -0.40212347D-01 -0.69274781D+00 -0.67173235D+00 -0.45314668D+00
  0.10143486D-13 -0.14524780D-01 -0.15552181D+00 -0.67536096D-14 -0.22628560D-02
 -0.16155134D-01 -0.38605889D-15 -0.72380969D-04 -0.10838177D-03 -0.20024347D-01
 -0.19823708D-01  0.39848055D-01  0.51672710D-14 -0.47916086D-14  0.54090607D-02
 -0.36867201D-02 -0.41324032D-02  0.78191233D-02 -0.34627244D-15  0.14468528D-14
  0.15152963D-02  0.21637693D-05 -0.14318943D-03  0.14102566D-03 -0.21288302D-15
  0.39180212D-14  0.13397782D-03 -0.11073823D-14  0.66519421D-03 -0.61967184D-02
 -0.44592207D-14  0.82740094D-04  0.61016990D-02  0.77813676D-14 -0.20783227D-02
  0.12488456D-01 -0.33321940D-14  0.76629100D-15  0.50583060D-04 -0.16464215D-03
  0.12638071D-14 -0.26588199D-04 -0.17605016D-03 -0.35626802D-14 -0.12516098D-03
  0.66997663D-03  0.76647601D-15 -0.49538550D-01 -0.92349837D-01 -0.15608381D+00
 -0.23462307D+00 -0.28819242D+00 -0.24322424D+00 -0.91458665D-01 -0.12029744D-02
 -0.89914881D-02 -0.33603244D-01 -0.93747818D-01 -0.12559623D+00  0.14830573D+00
  0.64380386D-01  0.45646632D-01  0.11065256D-02  0.59278524D-14  0.55577384D-14
  0.39574408D-14 -0.26449773D-01 -0.24798344D-01 -0.17657898D-01 -0.10697910D+00
 -0.10029971D+00 -0.71419368D-01  0.62030464D-14 -0.68966570D-02 -0.30315247D-01
  0.52982107D-14 -0.64620620D-03 -0.55182503D-02  0.10247581D-15  0.14065816D-04
 -0.47396226D-05 -0.17608045D-01  0.13937223D-01  0.36708218D-02  0.19290120D-14
 -0.46128051D-15 -0.15625195D-03 -0.45390831D-02  0.48857620D-02 -0.34667887D-03
 -0.10702023D-14  0.82136794D-14  0.61983966D-03 -0.94226489D-04  0.19799929D-04
  0.74426559D-04 -0.54336360D-16  0.31452214D-15  0.84058023D-04  0.34468941D-15
  0.20325708D-03  0.43687494D-02 -0.67047586D-15  0.28745944D-03  0.56689596D-03
 -0.36359237D-15 -0.89723067D-03 -0.13673144D-01 -0.29911671D-15 -0.31351598D-15
  0.17629005D-04  0.27281757D-03 -0.72462208D-15  0.35090233D-04  0.64226313D-03
  0.16651700D-14 -0.87977248D-04 -0.14607159D-02  0.71519160D-15  0.22552346D-01
  0.40674084D-01  0.59973913D-01  0.25216424D-01 -0.36143563D-02 -0.10657486D-03
 -0.98723522D-15 -0.16433908D-01  0.76984658D-02  0.20907052D-14 -0.17461567D-03
 -0.19595768D-02 -0.79290682D-15  0.12553213D-02 -0.51545255D-03 -0.14746392D-02
  0.20083343D-02 -0.53369506D-03 -0.20510526D-14  0.82973051D-15 -0.23141313D-02
  0.26978886D-03 -0.95627076D-04 -0.17416179D-03 -0.86799482D-16  0.20043318D-15
  0.50425332D-03  0.25497772D-01  0.45986282D-01  0.67806746D-01  0.28084621D-01
 -0.43760418D-02 -0.77489099D-04 -0.69324417D-15  0.18254399D-01  0.96139834D-02
 -0.12709250D-15 -0.60893925D-03 -0.18758140D-02 -0.11438763D-14 -0.14237769D-02
 -0.50516937D-03 -0.17302004D-02  0.19169357D-02 -0.18673535D-03  0.12204181D-14
  0.80321556D-15  0.33327928D-02  0.31077776D-03 -0.15893820D-03 -0.15183956D-03
 -0.71900629D-15 -0.89947868D-17 -0.60176177D-03
MO    5     MO 0.0        OCC NO =    1.9652488  ORB. ENERGY =    0.000000
  0.18567237D-02  0.34606277D-02  0.58679806D-02  0.88805647D-02  0.11077804D-01
  0.95064043D-02  0.36404478D-02  0.36492186D-04  0.39153721D-03  0.14432799D-02
  0.42200657D-02  0.50853843D-02 -0.61258843D-02 -0.35383932D-02 -0.32360541D-02
 -0.23026902D-03 -0.21731744D-14 -0.21072481D-14 -0.14215371D-14  0.13406109D+01
  0.12999416D+01  0.87693292D+00 -0.52955324D-01 -0.51348852D-01 -0.34639632D-01
  0.31987991D-14  0.31687511D+00 -0.11954539D-01  0.11611743D-13  0.50785742D-01
 -0.12644330D-02  0.61780318D-15  0.15797915D-02 -0.65871390D-05 -0.15641328D-02
 -0.15988396D-02  0.31629724D-02 -0.83824546D-14  0.17810568D-13 -0.10120999D+00
 -0.30417918D-03 -0.35498808D-03  0.65916727D-03  0.81156407D-16 -0.12186555D-13
 -0.28549470D-01  0.20672317D-05 -0.11404629D-04  0.93373970D-05 -0.74199468D-15
 -0.54119360D-14 -0.26556674D-02  0.18841273D-14 -0.12992744D-01 -0.51140168D-03
  0.22253921D-14  0.13465913D-03  0.52307515D-03 -0.78777740D-14  0.38843573D-01
  0.10111299D-02  0.15961309D-14 -0.16050861D-14 -0.97455328D-03 -0.26530292D-04
 -0.22682345D-14  0.42411741D-03  0.71876693D-05  0.70834927D-14  0.24995424D-02
  0.72403206D-04  0.94359383D-15 -0.27935588D-02 -0.52077563D-02 -0.88018177D-02
 -0.13230774D-01 -0.16251636D-01 -0.13715807D-01 -0.51575017D-02 -0.67308697D-04
 -0.50309081D-03 -0.18801652D-02 -0.52453682D-02 -0.70273473D-02  0.82979868D-02
  0.35643201D-02  0.23717584D-02  0.53839648D-04  0.46103985D-14  0.43225417D-14
  0.30779072D-14  0.40171820D+00  0.37663635D+00  0.26818752D+00  0.17967928D-03
  0.16846074D-03  0.11995409D-03 -0.90680848D-14  0.10397675D+00 -0.30307190D-03
 -0.33322754D-14  0.59071853D-02 -0.22078910D-03 -0.58534344D-16 -0.33656481D-03
 -0.72402722D-07 -0.10531650D-02  0.46277420D-03  0.59039085D-03  0.70706738D-15
  0.85699062D-15  0.30163895D-01 -0.23132539D-03  0.26207397D-03 -0.30748588D-04
 -0.13220803D-14 -0.12652031D-13 -0.34106411D-02 -0.70797208D-06 -0.11372464D-05
  0.18452185D-05  0.37433381D-15 -0.91549706D-15 -0.84257822D-03  0.10925056D-14
 -0.38513793D-02  0.34782944D-03  0.16377020D-14 -0.54941261D-02 -0.51715262D-04
 -0.49152188D-14  0.17048264D-01 -0.99177304D-03 -0.10174699D-14  0.37441957D-15
 -0.37518121D-03  0.72952593D-05  0.12477154D-14 -0.29694908D-03  0.32727247D-04
 -0.23709741D-14  0.14224927D-02 -0.54613024D-04  0.41833009D-15  0.18987353D-01
  0.34244474D-01  0.50493457D-01  0.20357446D-01 -0.14789156D-02  0.34141146D-03
  0.25864353D-15 -0.11893800D-01  0.13691250D-01 -0.19844522D-14  0.53704068D-02
  0.17058197D-02 -0.67753264D-15  0.50015478D-03  0.60261814D-03 -0.19122132D-02
 -0.13005346D-02  0.32127478D-02  0.13321502D-14 -0.11156016D-14 -0.83410218D-02
  0.34074927D-03 -0.47939423D-03  0.13864496D-03  0.41668452D-15 -0.64764182D-15
  0.91868578D-03 -0.16833648D-01 -0.30360177D-01 -0.44766063D-01 -0.17707129D-01
  0.10446478D-02 -0.35333296D-03  0.32581180D-14 -0.10407712D-01 -0.13140947D-01
 -0.34350288D-14  0.54157852D-02 -0.19197054D-02  0.20191289D-15  0.35056075D-03
 -0.66615975D-03  0.17620248D-02  0.15018296D-02 -0.32638544D-02 -0.10807195D-14
 -0.24603800D-14 -0.81737939D-02 -0.29350853D-03  0.46045328D-03 -0.16694476D-03
 -0.54320780D-15 -0.39819396D-15  0.85489818D-03
MO    6     MO 0.0        OCC NO =    1.9600502  ORB. ENERGY =    0.000000
  0.23301464D-02  0.43430097D-02  0.73641832D-02  0.11144908D-01  0.13902395D-01
  0.11930323D-01  0.45686799D-02 -0.24551900D-04 -0.26342577D-03 -0.97103700D-03
 -0.28392552D-02 -0.34214406D-02  0.41214878D-02  0.69545985D-02  0.28173311D-01
  0.63150682D-02  0.13244565D-12  0.12842773D-12  0.86636586D-13  0.45153649D-01
  0.43783851D-01  0.29536327D-01  0.13737892D+01  0.13321134D+01  0.89863586D+00
  0.36596909D-13  0.10647352D-01  0.31777500D+00  0.81455178D-14  0.18549077D-02
  0.37901658D-01  0.37342852D-15  0.59938399D-04  0.15150917D-03  0.41732483D-01
  0.43507438D-01 -0.85239921D-01 -0.54291262D-14 -0.23083495D-14 -0.14694853D-02
  0.10359427D-01  0.11725041D-01 -0.22084468D-01  0.32251776D-15 -0.88056258D-14
 -0.36415204D-03  0.26016641D-03  0.50231553D-03 -0.76248193D-03 -0.33117325D-15
 -0.16946975D-14 -0.50946223D-04 -0.10975217D-15 -0.23688343D-03  0.15589211D-01
 -0.21729129D-14  0.24041218D-03 -0.15903054D-01  0.25021694D-14  0.47023811D-03
 -0.30864580D-01 -0.10919656D-13 -0.69299828D-15 -0.16197013D-04  0.20076390D-02
 -0.53487179D-15 -0.10921160D-05 -0.24612925D-02  0.26138666D-14  0.49683155D-04
 -0.35616246D-02  0.16478800D-14  0.46118062D-02  0.85973357D-02  0.14530669D-01
  0.21842305D-01  0.26829360D-01  0.22643033D-01  0.85143718D-02  0.73900556D-04
  0.55236087D-03  0.20642987D-02  0.57590720D-02  0.77155687D-02 -0.91106479D-02
 -0.54788034D-02  0.16837765D-01  0.16522961D-04  0.40535920D-13  0.38005001D-13
  0.27061825D-13 -0.56267873D-02 -0.52754708D-02 -0.37564495D-02 -0.52423188D+00
 -0.49150071D+00 -0.34997778D+00  0.58148441D-14 -0.13164495D-02 -0.10922420D+00
  0.56116864D-15 -0.58722178D-03 -0.87321427D-02 -0.45365652D-16 -0.15833881D-04
 -0.40531594D-04  0.81854043D-02  0.28792378D-01 -0.36977782D-01  0.77986975D-15
  0.43688117D-14  0.33822069D-02  0.15298819D-03  0.25641392D-02 -0.27171274D-02
 -0.72740096D-15 -0.15831693D-14  0.78909017D-03 -0.15685085D-03  0.13341844D-03
  0.23432407D-04  0.42714609D-16 -0.34556129D-15  0.77372076D-04 -0.22310070D-15
 -0.15629103D-03 -0.57990048D-02  0.70034780D-15 -0.22863666D-04  0.64920658D-02
 -0.31045688D-16  0.49173676D-03  0.10904949D-01  0.71204951D-15  0.13980082D-15
 -0.17613170D-04  0.76899829D-03  0.26737026D-15  0.18600630D-04 -0.17998770D-03
 -0.68677272D-15  0.34238882D-04 -0.21270072D-02  0.72127927D-15  0.17626493D-01
  0.31790107D-01  0.46874494D-01  0.29921412D-01  0.10379915D-02  0.24953599D-04
 -0.30043625D-15 -0.17033080D-01  0.34307186D-02  0.13364897D-14 -0.56999556D-02
  0.76771628D-03 -0.47065640D-16  0.26240610D-03 -0.20956266D-03 -0.15533520D-02
  0.52179672D-02 -0.36646152D-02 -0.19218199D-15  0.58593561D-15 -0.45656786D-02
 -0.53307099D-03  0.13400123D-04  0.51967086D-03 -0.25400980D-15  0.15165081D-16
  0.64862479D-04  0.19270431D-01  0.34755015D-01  0.51246250D-01  0.32488006D-01
  0.42982693D-03 -0.19919324D-05  0.12806023D-14  0.17922255D-01  0.38179398D-02
 -0.77704811D-15  0.57892649D-02  0.69313165D-03 -0.50446517D-16 -0.43187901D-03
 -0.30637533D-03 -0.15146052D-02  0.53797558D-02 -0.38651506D-02 -0.64353243D-15
  0.47266330D-16  0.45797575D-02 -0.55099850D-03  0.64685974D-05  0.54452990D-03
 -0.26979641D-15 -0.71689314D-16 -0.31266348D-04
MO    7     MO 0.0        OCC NO =    1.9565433  ORB. ENERGY =    0.000000
 -0.35687587D-03 -0.66515794D-03 -0.11278688D-02 -0.17069094D-02 -0.21292350D-02
 -0.18272004D-02 -0.69972068D-03 -0.52792013D-05 -0.56642365D-04 -0.20879442D-03
 -0.61050265D-03 -0.73568537D-03  0.88621099D-03  0.39974227D-03 -0.23201747D-03
 -0.14408597D-03 -0.46380742D-13 -0.44973718D-13 -0.30339004D-13  0.11616642D+01
  0.11264235D+01  0.75987863D+00 -0.29003765D-01 -0.28123895D-01 -0.18972214D-01
 -0.13925166D-13  0.27432302D+00 -0.67602967D-02 -0.29101969D-14  0.49601554D-01
 -0.84069419D-03 -0.50518597D-15  0.16887179D-02 -0.48781634D-05 -0.85359598D-03
 -0.93489595D-03  0.17884919D-02 -0.23954207D-14  0.63908322D-14 -0.10791539D-01
 -0.22111543D-03 -0.27402891D-03  0.49514433D-03 -0.12422017D-14  0.13597025D-14
 -0.26822975D-02 -0.79358047D-05 -0.10530472D-04  0.18466277D-04 -0.63158611D-15
  0.11786020D-14 -0.61663675D-03  0.73923887D-15 -0.40714977D-02 -0.33825289D-03
  0.83974268D-15  0.87845797D-02  0.32755068D-03 -0.30574593D-14  0.34299133D-02
  0.68720800D-03 -0.11464104D-14  0.27577393D-15 -0.29916673D-03 -0.51445385D-04
  0.21189383D-15 -0.36391655D-03  0.63701353D-04 -0.10392156D-14  0.12614167D-02
  0.90634801D-04  0.95150953D-15  0.34493980D-03  0.64303727D-03  0.10868206D-02
  0.16336941D-02  0.20067005D-02  0.16935845D-02  0.63683199D-03  0.90102476D-05
  0.67346018D-04  0.25168745D-03  0.70216879D-03  0.94071259D-03 -0.11108062D-02
 -0.34980067D-03 -0.58320643D-03 -0.45657846D-05 -0.17824949D-13 -0.16712023D-13
 -0.11899956D-13 -0.36328085D+00 -0.34059889D+00 -0.24252670D+00  0.13680575D-01
  0.12826409D-01  0.91331671D-02 -0.43890316D-15 -0.99614347D-01  0.29022120D-02
  0.23066683D-14 -0.25579458D-01  0.23957999D-03  0.18267461D-15 -0.50160943D-03
  0.15055937D-05 -0.89519180D-04 -0.93741728D-03  0.10269365D-02 -0.81783180D-15
 -0.12893582D-14  0.11006699D+00  0.15989091D-04 -0.12955353D-03  0.11356444D-03
  0.97149547D-15 -0.53233758D-15  0.31746359D-01  0.50743459D-05 -0.10033494D-04
  0.49591481D-05  0.89424640D-16  0.49056570D-16  0.34041488D-02 -0.42257546D-15
 -0.36358984D-02  0.93364096D-04  0.23927341D-15  0.28310616D-02 -0.18675967D-03
  0.10284530D-14  0.80766334D-02 -0.93332617D-04 -0.31086791D-14 -0.22683662D-15
 -0.58626249D-03 -0.19876349D-04  0.48928220D-15  0.79497055D-03 -0.18935563D-06
  0.19122767D-15  0.96381691D-03  0.59818402D-04  0.13036348D-14 -0.35412917D-01
 -0.63868654D-01 -0.94174293D-01 -0.54456963D-01  0.98521528D-02  0.41715675D-03
  0.57383104D-15  0.15624028D-01 -0.10660720D-01 -0.91521484D-15 -0.29470413D-02
  0.18782551D-02 -0.10818077D-14 -0.34730367D-02  0.16347789D-02  0.83969305D-03
 -0.17824154D-02  0.94272237D-03  0.14813515D-14  0.54064039D-15  0.34774371D-02
  0.82295583D-05  0.36353586D-03 -0.37176542D-03  0.64884511D-15 -0.88684568D-15
  0.25153842D-04  0.33964572D-01  0.61256505D-01  0.90322681D-01  0.51409790D-01
 -0.10331093D-01 -0.42272978D-03  0.13747174D-14  0.14395140D-01  0.10505967D-01
 -0.32425835D-14 -0.34154106D-02 -0.19624292D-02 -0.55332697D-15 -0.34269055D-02
 -0.16229815D-02 -0.65816854D-03  0.13611958D-02 -0.70302726D-03 -0.25580247D-15
 -0.15846913D-14  0.30929149D-02  0.80607032D-05 -0.35748026D-03  0.34941956D-03
 -0.97369250D-15 -0.35635057D-15  0.42982945D-04
MO    8     MO 0.0        OCC NO =    1.9226340  ORB. ENERGY =    0.000000
 -0.61654678D-14 -0.11491418D-13 -0.19485314D-13 -0.29488951D-13 -0.36785142D-13
 -0.31567125D-13 -0.12088532D-13  0.27994832D-15  0.30036618D-14  0.11072063D-13
  0.32374062D-13  0.39012319D-13 -0.46994473D-13 -0.26690167D-13 -0.47204355D-12
 -0.67491998D-13  0.13798057D+01  0.13379474D+01  0.90257142D+00  0.47558588D-13
  0.46115833D-13  0.31109468D-13 -0.14177071D-12 -0.13746990D-12 -0.92736382D-13
  0.33254317D+00  0.72364535D-15  0.25647345D-13  0.48488463D-01  0.10289564D-13
  0.23343016D-12  0.88591152D-03 -0.77032098D-16  0.89777381D-15  0.86483723D-14
 -0.79685803D-14 -0.67979203D-15 -0.20833508D-04 -0.12442929D+00 -0.33191369D-14
 -0.26674297D-14  0.19189767D-13 -0.16522337D-13 -0.14023633D-04 -0.37370172D-01
  0.72714420D-14  0.62081541D-15  0.23484642D-13 -0.24105457D-13  0.49101574D-06
 -0.23602200D-02 -0.49250026D-14 -0.61418241D-02  0.34736188D-16 -0.77087427D-14
 -0.22194523D-01  0.64789831D-14 -0.18975134D-13  0.40619995D-01 -0.65831916D-14
  0.42101363D-13  0.19610431D-05 -0.36150821D-03  0.34954668D-15  0.51007618D-14
 -0.15456483D-02 -0.23561344D-14  0.11226745D-13  0.26301730D-02  0.13074943D-14
 -0.26529031D-13  0.55812468D-05  0.34223158D-14  0.63798861D-14  0.10782877D-13
  0.16208675D-13  0.19909454D-13  0.16802877D-13  0.63183205D-14  0.57922239D-15
  0.43293285D-14  0.16179689D-13  0.45138813D-13  0.60473565D-13 -0.71408004D-13
 -0.11458364D-12  0.23069135D-11  0.21588813D-12  0.41541843D+00  0.38948119D+00
  0.27733381D+00  0.21306102D-14  0.19975825D-14  0.14223977D-14  0.47656550D-13
  0.44681045D-13  0.31815566D-13  0.10662091D+00 -0.44686353D-13 -0.72035728D-13
  0.12573204D-01 -0.67446837D-13 -0.21723482D-12  0.38364593D-04 -0.21177913D-14