 Entering Gaussian System, Link 0=/home/bruns/programas/chemistry/gaussian/g09/g09
 Input=GAUSSIAN.com
 Output=GAUSSIAN.log
 Initial command:
 /home/bruns/programas/chemistry/gaussian/g09/l1.exe /home/bruns/programas/chemistry/gaussian/work/Gau-80393.inp -scrdir=/home/bruns/programas/chemistry/gaussian/work/
 Entering Link 1 = /home/bruns/programas/chemistry/gaussian/g09/l1.exe PID=     80395.
  
 Copyright (c) 1988,1990,1992,1993,1995,1998,2003,2009,2010,
            Gaussian, Inc.  All Rights Reserved.
  
 This is part of the Gaussian(R) 09 program.  It is based on
 the Gaussian(R) 03 system (copyright 2003, Gaussian, Inc.),
 the Gaussian(R) 98 system (copyright 1998, Gaussian, Inc.),
 the Gaussian(R) 94 system (copyright 1995, Gaussian, Inc.),
 the Gaussian 92(TM) system (copyright 1992, Gaussian, Inc.),
 the Gaussian 90(TM) system (copyright 1990, Gaussian, Inc.),
 the Gaussian 88(TM) system (copyright 1988, Gaussian, Inc.),
 the Gaussian 86(TM) system (copyright 1986, Carnegie Mellon
 University), and the Gaussian 82(TM) system (copyright 1983,
 Carnegie Mellon University). Gaussian is a federally registered
 trademark of Gaussian, Inc.
  
 This software contains proprietary and confidential information,
 including trade secrets, belonging to Gaussian, Inc.
  
 This software is provided under written license and may be
 used, copied, transmitted, or stored only in accord with that
 written license.
  
 The following legend is applicable only to US Government
 contracts under FAR:
  
                    RESTRICTED RIGHTS LEGEND
  
 Use, reproduction and disclosure by the US Government is
 subject to restrictions as set forth in subparagraphs (a)
 and (c) of the Commercial Computer Software - Restricted
 Rights clause in FAR 52.227-19.
  
 Gaussian, Inc.
 340 Quinnipiac St., Bldg. 40, Wallingford CT 06492
  
  
 ---------------------------------------------------------------
 Warning -- This program may not be used in any manner that
 competes with the business of Gaussian, Inc. or will provide
 assistance to any competitor of Gaussian, Inc.  The licensee
 of this program is prohibited from giving any competitor of
 Gaussian, Inc. access to this program.  By using this program,
 the user acknowledges that Gaussian, Inc. is engaged in the
 business of creating and licensing software in the field of
 computational chemistry and represents and warrants to the
 licensee that it is not a competitor of Gaussian, Inc. and that
 it will not use this program in any manner prohibited above.
 ---------------------------------------------------------------
  

 Cite this work as:
 Gaussian 09, Revision B.01,
 M. J. Frisch, G. W. Trucks, H. B. Schlegel, G. E. Scuseria, 
 M. A. Robb, J. R. Cheeseman, G. Scalmani, V. Barone, B. Mennucci, 
 G. A. Petersson, H. Nakatsuji, M. Caricato, X. Li, H. P. Hratchian, 
 A. F. Izmaylov, J. Bloino, G. Zheng, J. L. Sonnenberg, M. Hada, 
 M. Ehara, K. Toyota, R. Fukuda, J. Hasegawa, M. Ishida, T. Nakajima, 
 Y. Honda, O. Kitao, H. Nakai, T. Vreven, J. A. Montgomery, Jr., 
 J. E. Peralta, F. Ogliaro, M. Bearpark, J. J. Heyd, E. Brothers, 
 K. N. Kudin, V. N. Staroverov, T. Keith, R. Kobayashi, J. Normand, 
 K. Raghavachari, A. Rendell, J. C. Burant, S. S. Iyengar, J. Tomasi, 
 M. Cossi, N. Rega, J. M. Millam, M. Klene, J. E. Knox, J. B. Cross, 
 V. Bakken, C. Adamo, J. Jaramillo, R. Gomperts, R. E. Stratmann, 
 O. Yazyev, A. J. Austin, R. Cammi, C. Pomelli, J. W. Ochterski, 
 R. L. Martin, K. Morokuma, V. G. Zakrzewski, G. A. Voth, 
 P. Salvador, J. J. Dannenberg, S. Dapprich, A. D. Daniels, 
 O. Farkas, J. B. Foresman, J. V. Ortiz, J. Cioslowski, 
 and D. J. Fox, Gaussian, Inc., Wallingford CT, 2010.
 
 ******************************************
 Gaussian 09:  EM64L-G09RevB.01 12-Aug-2010
                20-Nov-2021 
 ******************************************
 %nproc=8
 Will use up to    8 processors via shared memory.
 %mem=8GB
 -----------------------------------------------------
 # qcisd/aug-cc-pvtz nosymm density=current output=wfn
 -----------------------------------------------------
 1/30=1,38=1/1;
 2/12=2,15=1,17=6,18=5,40=1/2;
 3/5=16,6=1,7=10,11=9,16=1,25=1,30=1,71=1/1,2,3;
 4//1;
 5/5=2,38=5/2;
 8/6=4,9=120000,10=1/1,4;
 9/5=8,15=1/13;
 11/28=-7,31=1,32=3,42=3/11;
 10/5=6,13=10,31=1/2;
 6/7=2,8=2,9=2,10=2,22=-1,31=1/1;
 99/5=1,6=1100,9=1/99;
 -----------------
 h2co-wavefunction
 -----------------
 Symbolic Z-matrix:
 Charge =  0 Multiplicity = 1
 O                     0.        0.        0.67925 
 C                     0.        0.       -0.52691 
 H                     0.        0.93661  -1.10662 
 H                     0.       -0.93661  -1.11662 
 
                          Input orientation:                          
 ---------------------------------------------------------------------
 Center     Atomic      Atomic             Coordinates (Angstroms)
 Number     Number       Type             X           Y           Z
 ---------------------------------------------------------------------
      1          8           0        0.000000    0.000000    0.679252
      2          6           0        0.000000    0.000000   -0.526911
      3          1           0        0.000000    0.936614   -1.106620
      4          1           0        0.000000   -0.936614   -1.116620
 ---------------------------------------------------------------------
                    Distance matrix (angstroms):
                    1          2          3          4
     1  O    0.000000
     2  C    1.206163   0.000000
     3  H    2.016577   1.101503   0.000000
     4  H    2.025439   1.106798   1.873255   0.000000
 Symmetry turned off by external request.
 Stoichiometry    CH2O
 Framework group  CS[SG(CH2O)]
 Deg. of freedom     5
 Full point group                 CS      NOp   2
 Rotational constants (GHZ):    285.8134821     38.7983745     34.1611013
 Standard basis: Aug-CC-pVTZ (5D, 7F)
 Integral buffers will be    131072 words long.
 Raffenetti 1 integral format.
 Two-electron integral symmetry is turned off.
   138 basis functions,   198 primitive gaussians,   160 cartesian basis functions
     8 alpha electrons        8 beta electrons
       nuclear repulsion energy        31.2820311096 Hartrees.
 NAtoms=    4 NActive=    4 NUniq=    4 SFac= 1.00D+00 NAtFMM=   50 NAOKFM=F Big=F
 One-electron integrals computed using PRISM.
 NBasis=   138 RedAO= T  NBF=   138
 NBsUse=   138 1.00D-06 NBFU=   138
 Harris functional with IExCor=  205 diagonalized for initial guess.
 ExpMin= 2.53D-02 ExpMax= 1.53D+04 ExpMxC= 5.22D+02 IAcc=3 IRadAn=         0 AccDes= 0.00D+00
 HarFok:  IExCor=  205 AccDes= 0.00D+00 IRadAn=         0 IDoV= 1
 ScaDFX=  1.000000  1.000000  1.000000  1.000000
 FoFCou: FMM=F IPFlag=           0 FMFlag=      100000 FMFlg1=           0
         NFxFlg=           0 DoJE=T BraDBF=F KetDBF=T FulRan=T
         Omega=  0.000000  0.000000  1.000000  0.000000  0.000000 ICntrl=     500 IOpCl=  0
         NMat0=    1 NMatS0=    1 NMatT0=    0 NMatD0=    1 NMtDS0=    0 NMtDT0=    0
         I1Cent=           4 NGrid=           0.
 Symmetry not used in FoFCou.
 Requested convergence on RMS density matrix=1.00D-08 within 128 cycles.
 Requested convergence on MAX density matrix=1.00D-06.
 Requested convergence on             energy=1.00D-06.
 No special actions if energy rises.
 Keep R1 ints in memory in canonical form, NReq=85137408.
 SCF Done:  E(RHF) =  -113.913712721     A.U. after   11 cycles
             Convg  =    0.2900D-08             -V/T =  2.0019
 ExpMin= 2.53D-02 ExpMax= 1.53D+04 ExpMxC= 5.22D+02 IAcc=3 IRadAn=         5 AccDes= 0.00D+00
 HarFok:  IExCor=  205 AccDes= 0.00D+00 IRadAn=         5 IDoV=-2
 ScaDFX=  1.000000  1.000000  1.000000  1.000000
 DSYEVD returned Info=          93 IAlg= 4 N=    46 NDim=    46 NE2=    23340785 trying DSYEV.
 Range of M.O.s used for correlation:     3   138
 NBasis=   138 NAE=     8 NBE=     8 NFC=     2 NFV=     0
 NROrb=    136 NOA=     6 NOB=     6 NVA=   130 NVB=   130

 **** Warning!!: The largest alpha MO coefficient is  0.33750749D+02

 Semi-Direct transformation.
 ModeAB=           2 MOrb=             6 LenV=    1073118443
 LASXX=      7286295 LTotXX=     7286295 LenRXX=     7286295
 LTotAB=     7445736 MaxLAS=    10510080 LenRXY=    10510080
 NonZer=    14572590 LenScr=    22628352 LnRSAI=           0
 LnScr1=           0 LExtra=           0 Total=     40424727
 MaxDsk=          -1 SrtSym=           F ITran=            4
 JobTyp=0 Pass  1:  I=   1 to   6.
 (rs|ai) integrals will be sorted in core.
 Spin components of T(2) and E(2):
     alpha-alpha T2 =       0.1377235726D-01 E2=     -0.4805175583D-01
     alpha-beta  T2 =       0.8514511753D-01 E2=     -0.3065046386D+00
     beta-beta   T2 =       0.1377235726D-01 E2=     -0.4805175583D-01
 ANorm=    0.1054841141D+01
 E2 =    -0.4026081503D+00 EUMP2 =    -0.11431632087130D+03
 R2 and R3 integrals will be kept in memory, NReq=   167993840.
 Iterations=  50 Convergence= 0.100D-07
 Iteration Nr.   1
 **********************
 DD1Dir will call FoFMem   1 times, MxPair=        42
 NAB=    21 NAA=     0 NBB=     0.
 MP4(R+Q)=  0.88787776D-02
 E3=       -0.39929246D-02        EUMP3=      -0.11432031380D+03
 E4(DQ)=   -0.13614440D-02        UMP4(DQ)=   -0.11432167524D+03
 E4(SDQ)=  -0.66387436D-02        UMP4(SDQ)=  -0.11432695254D+03
 DE(Corr)= -0.39772230     E(Corr)=     -114.31143502    
 NORM(A)=   0.10555395D+01
 Iteration Nr.   2
 **********************
 DD1Dir will call FoFMem   1 times, MxPair=        42
 NAB=    21 NAA=     0 NBB=     0.
 DE(Corr)= -0.41169502     E(CORR)=     -114.32540774     Delta=-1.40D-02
 NORM(A)=   0.10616075D+01
 Iteration Nr.   3
 **********************
 DD1Dir will call FoFMem   1 times, MxPair=        42
 NAB=    21 NAA=     0 NBB=     0.
 DE(Corr)= -0.41161834     E(CORR)=     -114.32533106     Delta= 7.67D-05
 NORM(A)=   0.10635009D+01
 Iteration Nr.   4
 **********************
 DD1Dir will call FoFMem   1 times, MxPair=        42
 NAB=    21 NAA=     0 NBB=     0.
 DE(Corr)= -0.41303009     E(CORR)=     -114.32674281     Delta=-1.41D-03
 NORM(A)=   0.10641829D+01
 Iteration Nr.   5
 **********************
 DD1Dir will call FoFMem   1 times, MxPair=        42
 NAB=    21 NAA=     0 NBB=     0.
 DE(Corr)= -0.41321839     E(CORR)=     -114.32693111     Delta=-1.88D-04
 NORM(A)=   0.10643986D+01
 Iteration Nr.   6
 **********************
 DD1Dir will call FoFMem   1 times, MxPair=        42
 NAB=    21 NAA=     0 NBB=     0.
 DE(Corr)= -0.41324443     E(CORR)=     -114.32695715     Delta=-2.60D-05
 NORM(A)=   0.10644241D+01
 Iteration Nr.   7
 **********************
 DD1Dir will call FoFMem   1 times, MxPair=        42
 NAB=    21 NAA=     0 NBB=     0.
 DE(Corr)= -0.41324565     E(CORR)=     -114.32695837     Delta=-1.22D-06
 NORM(A)=   0.10644253D+01
 Iteration Nr.   8
 **********************
 DD1Dir will call FoFMem   1 times, MxPair=        42
 NAB=    21 NAA=     0 NBB=     0.
 DE(Corr)= -0.41324478     E(CORR)=     -114.32695750     Delta= 8.74D-07
 NORM(A)=   0.10644281D+01
 Iteration Nr.   9
 **********************
 DD1Dir will call FoFMem   1 times, MxPair=        42
 NAB=    21 NAA=     0 NBB=     0.
 DE(Corr)= -0.41324366     E(CORR)=     -114.32695638     Delta= 1.12D-06
 NORM(A)=   0.10644284D+01
 Iteration Nr.  10
 **********************
 DD1Dir will call FoFMem   1 times, MxPair=        42
 NAB=    21 NAA=     0 NBB=     0.
 DE(Corr)= -0.41324428     E(CORR)=     -114.32695700     Delta=-6.22D-07
 NORM(A)=   0.10644289D+01
 Iteration Nr.  11
 **********************
 DD1Dir will call FoFMem   1 times, MxPair=        42
 NAB=    21 NAA=     0 NBB=     0.
 DE(Corr)= -0.41324441     E(CORR)=     -114.32695713     Delta=-1.32D-07
 NORM(A)=   0.10644293D+01
 Iteration Nr.  12
 **********************
 DD1Dir will call FoFMem   1 times, MxPair=        42
 NAB=    21 NAA=     0 NBB=     0.
 DE(Corr)= -0.41324457     E(CORR)=     -114.32695729     Delta=-1.56D-07
 NORM(A)=   0.10644295D+01
 Iteration Nr.  13
 **********************
 DD1Dir will call FoFMem   1 times, MxPair=        42
 NAB=    21 NAA=     0 NBB=     0.
 DE(Corr)= -0.41324463     E(CORR)=     -114.32695735     Delta=-6.12D-08
 NORM(A)=   0.10644296D+01
 Iteration Nr.  14
 **********************
 DD1Dir will call FoFMem   1 times, MxPair=        42
 NAB=    21 NAA=     0 NBB=     0.
 DE(Corr)= -0.41324466     E(CORR)=     -114.32695738     Delta=-3.17D-08
 NORM(A)=   0.10644297D+01
 Iteration Nr.  15
 **********************
 DD1Dir will call FoFMem   1 times, MxPair=        42
 NAB=    21 NAA=     0 NBB=     0.
 DE(Corr)= -0.41324466     E(CORR)=     -114.32695738     Delta=-4.90D-09
 NORM(A)=   0.10644297D+01
 Iteration Nr.  16
 **********************
 DD1Dir will call FoFMem   1 times, MxPair=        42
 NAB=    21 NAA=     0 NBB=     0.
 DE(Corr)= -0.41324467     E(CORR)=     -114.32695739     Delta=-3.02D-09
 NORM(A)=   0.10644297D+01
 Largest amplitude= 6.43D-02

 Z-AMPLITUDE ITERATIONS

 Iteration Nr.   1
 **********************
 DD1Dir will call FoFMem   1 times, MxPair=        42
 NAB=    21 NAA=     0 NBB=     0.
 DE(Z)  -0.40119803D+00          E(Z)=    -0.11431491075D+03
 NORM(A)=   0.10644294D+01
 Iteration Nr.   2
 **********************
 DD1Dir will call FoFMem   1 times, MxPair=        42
 NAB=    21 NAA=     0 NBB=     0.
 DE(Z)  -0.40119801D+00          E(Z)=    -0.11431491073D+03
 NORM(A)=   0.10644296D+01
 Iteration Nr.   3
 **********************
 DD1Dir will call FoFMem   1 times, MxPair=        42
 NAB=    21 NAA=     0 NBB=     0.
 DE(Z)  -0.40119802D+00          E(Z)=    -0.11431491074D+03
 NORM(A)=   0.10644294D+01
 Iteration Nr.   4
 **********************
 DD1Dir will call FoFMem   1 times, MxPair=        42
 NAB=    21 NAA=     0 NBB=     0.
 DE(Z)  -0.40119801D+00          E(Z)=    -0.11431491073D+03
 NORM(A)=   0.10644296D+01
 Iteration Nr.   5
 **********************
 DD1Dir will call FoFMem   1 times, MxPair=        42
 NAB=    21 NAA=     0 NBB=     0.
 DE(Z)  -0.40119802D+00          E(Z)=    -0.11431491074D+03
 NORM(A)=   0.10604013D+01
 Iteration Nr.   6
 **********************
 DD1Dir will call FoFMem   1 times, MxPair=        42
 NAB=    21 NAA=     0 NBB=     0.
 DE(Z)  -0.40099402D+00          E(Z)=    -0.11431470674D+03
 NORM(A)=   0.10603766D+01
 Iteration Nr.   7
 **********************
 DD1Dir will call FoFMem   1 times, MxPair=        42
 NAB=    21 NAA=     0 NBB=     0.
 DE(Z)  -0.40098695D+00          E(Z)=    -0.11431469967D+03
 NORM(A)=   0.10603438D+01
 Iteration Nr.   8
 **********************
 DD1Dir will call FoFMem   1 times, MxPair=        42
 NAB=    21 NAA=     0 NBB=     0.
 DE(Z)  -0.40098330D+00          E(Z)=    -0.11431469602D+03
 NORM(A)=   0.10603405D+01
 Iteration Nr.   9
 **********************
 DD1Dir will call FoFMem   1 times, MxPair=        42
 NAB=    21 NAA=     0 NBB=     0.
 DE(Z)  -0.40098316D+00          E(Z)=    -0.11431469588D+03
 NORM(A)=   0.10603398D+01
 Iteration Nr.  10
 **********************
 DD1Dir will call FoFMem   1 times, MxPair=        42
 NAB=    21 NAA=     0 NBB=     0.
 DE(Z)  -0.40098273D+00          E(Z)=    -0.11431469545D+03
 NORM(A)=   0.10603395D+01
 Iteration Nr.  11
 **********************
 DD1Dir will call FoFMem   1 times, MxPair=        42
 NAB=    21 NAA=     0 NBB=     0.
 DE(Z)  -0.40098289D+00          E(Z)=    -0.11431469562D+03
 NORM(A)=   0.10603396D+01
 Iteration Nr.  12
 **********************
 DD1Dir will call FoFMem   1 times, MxPair=        42
 NAB=    21 NAA=     0 NBB=     0.
 DE(Z)  -0.40098283D+00          E(Z)=    -0.11431469555D+03
 NORM(A)=   0.10603396D+01
 Iteration Nr.  13
 **********************
 DD1Dir will call FoFMem   1 times, MxPair=        42
 NAB=    21 NAA=     0 NBB=     0.
 DE(Z)  -0.40098284D+00          E(Z)=    -0.11431469556D+03
 NORM(A)=   0.10603396D+01
 Iteration Nr.  14
 **********************
 DD1Dir will call FoFMem   1 times, MxPair=        42
 NAB=    21 NAA=     0 NBB=     0.
 DE(Z)  -0.40098285D+00          E(Z)=    -0.11431469557D+03
 NORM(A)=   0.10603396D+01
 Iteration Nr.  15
 **********************
 DD1Dir will call FoFMem   1 times, MxPair=        42
 NAB=    21 NAA=     0 NBB=     0.
 DE(Z)  -0.40098285D+00          E(Z)=    -0.11431469557D+03
 NORM(A)=   0.10603396D+01
 Discarding MO integrals.
          Differentiating once with respect to electric field.
                with respect to dipole field.
          Electric field/nuclear overlap derivatives assumed to be zero.
          Keep R1 ints in memory in canonical form, NReq=84894547.
          There are     1 degrees of freedom in the 1st order CPHF.  IDoFFX=0.
 LinEq1:  Iter=  0 NonCon=     1 RMS=3.56D-03 Max=5.57D-02
 AX will form     1 AO Fock derivatives at one time.
 LinEq1:  Iter=  1 NonCon=     1 RMS=8.98D-04 Max=8.58D-03
 LinEq1:  Iter=  2 NonCon=     1 RMS=2.36D-04 Max=3.43D-03
 LinEq1:  Iter=  3 NonCon=     1 RMS=1.16D-04 Max=1.21D-03
 LinEq1:  Iter=  4 NonCon=     1 RMS=4.46D-05 Max=5.33D-04
 LinEq1:  Iter=  5 NonCon=     1 RMS=9.23D-06 Max=8.78D-05
 LinEq1:  Iter=  6 NonCon=     1 RMS=1.51D-06 Max=1.75D-05
 LinEq1:  Iter=  7 NonCon=     1 RMS=2.29D-07 Max=1.68D-06
 LinEq1:  Iter=  8 NonCon=     1 RMS=2.63D-08 Max=2.08D-07
 LinEq1:  Iter=  9 NonCon=     1 RMS=3.16D-09 Max=2.54D-08
 LinEq1:  Iter= 10 NonCon=     1 RMS=2.97D-10 Max=2.35D-09
 LinEq1:  Iter= 11 NonCon=     0 RMS=2.77D-11 Max=2.40D-10
 Linear equations converged to 1.000D-10 1.000D-09 after    11 iterations.
 End of Minotr Frequency-dependent properties file   721 does not exist.
 End of Minotr Frequency-dependent properties file   722 does not exist.

 **********************************************************************

            Population analysis using the QCI/CC density.

 **********************************************************************

     Natural Orbital Coefficients:
                           1         2         3         4         5
     Eigenvalues --     2.00001   2.00000   1.98055   1.96682   1.96526
   1 1   O  1S         -0.52536   0.82667  -0.18954   0.07040  -0.00267
   2        2S          0.01057  -0.01440   0.48985  -0.19989   0.00773
   3        3S         -0.02194   0.03552   0.13778  -0.06049   0.00236
   4        4S          0.00283  -0.00268   0.31074  -0.22297   0.00944
   5        5S          0.00017  -0.00078   0.04366  -0.03127   0.00121
   6        6PX         0.00000   0.00000   0.00000   0.00000   0.00000
   7        6PY         0.00001   0.00000   0.00026   0.01015   0.27286
   8        6PZ         0.00300  -0.00224  -0.00028  -0.13942   0.00635
   9        7PX         0.00000   0.00000   0.00000   0.00000   0.00000
  10        7PY         0.00000   0.00000   0.00031   0.01252   0.33676
  11        7PZ         0.00200   0.00155  -0.00839  -0.16339   0.00745
  12        8PX         0.00000   0.00000   0.00000   0.00000   0.00000
  13        8PY         0.00000   0.00001   0.00035   0.00883   0.24352
  14        8PZ         0.00307   0.00053   0.03922  -0.07678   0.00330
  15        9PX         0.00000   0.00000   0.00000   0.00000   0.00000
  16        9PY         0.00001   0.00000   0.00011   0.00137   0.03743
  17        9PZ         0.00019   0.00005   0.00220  -0.00253   0.00016
  18       10D 0       -0.00015   0.00015   0.00429   0.00549  -0.00026
  19       10D+1        0.00000   0.00000   0.00000   0.00000   0.00000
  20       10D-1        0.00000   0.00000  -0.00001  -0.00034  -0.00818
  21       10D+2        0.00007  -0.00008   0.00008  -0.00001   0.00000
  22       10D-2        0.00000   0.00000   0.00000   0.00000   0.00000
  23       11D 0       -0.00046  -0.00116   0.01226   0.01004  -0.00049
  24       11D+1        0.00000   0.00000   0.00000   0.00000   0.00000
  25       11D-1        0.00000   0.00000  -0.00003  -0.00089  -0.02158
  26       11D+2        0.00008  -0.00014   0.00064   0.00032  -0.00001
  27       11D-2        0.00000   0.00000   0.00000   0.00000   0.00000
  28       12D 0       -0.00067  -0.00031  -0.00885   0.00130  -0.00004
  29       12D+1        0.00000   0.00000   0.00000   0.00000   0.00000
  30       12D-1        0.00000  -0.00001  -0.00008  -0.00052  -0.01371
  31       12D+2        0.00028   0.00018  -0.00024   0.00070  -0.00004
  32       12D-2        0.00000   0.00000   0.00000   0.00000   0.00000
  33       13F 0       -0.00003   0.00003  -0.00271  -0.00185   0.00009
  34       13F+1        0.00000   0.00000   0.00000   0.00000   0.00000
  35       13F-1        0.00000   0.00000   0.00001   0.00020   0.00483
  36       13F+2        0.00005  -0.00001   0.00015  -0.00050   0.00002
  37       13F-2        0.00000   0.00000   0.00000   0.00000   0.00000
  38       13F+3        0.00000   0.00000   0.00000   0.00000   0.00000
  39       13F-3        0.00000   0.00000   0.00000   0.00005   0.00126
  40       14F 0        0.00034   0.00042  -0.00115  -0.00050   0.00003
  41       14F+1        0.00000   0.00000   0.00000   0.00000   0.00000
  42       14F-1        0.00000   0.00000   0.00001   0.00013   0.00330
  43       14F+2       -0.00002   0.00004  -0.00085  -0.00069   0.00002
  44       14F-2        0.00000   0.00000   0.00000   0.00000   0.00000
  45       14F+3        0.00000   0.00000   0.00000   0.00000   0.00000
  46       14F-3        0.00000   0.00000   0.00000   0.00006   0.00143
  47 2   C  1S          0.82826   0.52606  -0.08409  -0.14830   0.00651
  48        2S         -0.01110  -0.00600   0.20274   0.41357  -0.01810
  49        3S          0.03432   0.02190   0.04523   0.09727  -0.00417
  50        4S          0.00355   0.00333   0.12378   0.29885  -0.01451
  51        5S          0.00180   0.00135   0.00578   0.01637  -0.00103
  52        6PX         0.00000   0.00000   0.00000   0.00000   0.00000
  53        6PY        -0.00002  -0.00001   0.00045   0.00908   0.18468
  54        6PZ         0.00093   0.00053   0.04858  -0.05098   0.00185
  55        7PX         0.00000   0.00000   0.00000   0.00000   0.00000
  56        7PY         0.00005   0.00004   0.00100   0.01198   0.24383
  57        7PZ         0.00058   0.00376   0.01559  -0.07312   0.00289
  58        8PX         0.00000   0.00000   0.00000   0.00000   0.00000
  59        8PY         0.00007   0.00001   0.00046   0.00443   0.06170
  60        8PZ        -0.00104  -0.00014  -0.03934  -0.05493   0.00248
  61        9PX         0.00000   0.00000   0.00000   0.00000   0.00000
  62        9PY         0.00000   0.00000  -0.00007  -0.00051  -0.01497
  63        9PZ        -0.00016   0.00002  -0.00248  -0.00021  -0.00003
  64       10D 0        0.00051   0.00069   0.01362   0.00187  -0.00017
  65       10D+1        0.00000   0.00000   0.00000   0.00000   0.00000
  66       10D-1        0.00000   0.00000  -0.00002   0.00019   0.00880
  67       10D+2       -0.00043  -0.00021  -0.00307  -0.00942   0.00035
  68       10D-2        0.00000   0.00000   0.00000   0.00000   0.00000
  69       11D 0       -0.00076   0.00109   0.00299  -0.00133  -0.00019
  70       11D+1        0.00000   0.00000   0.00000   0.00000   0.00000
  71       11D-1       -0.00004  -0.00003  -0.00014  -0.00083  -0.00963
  72       11D+2        0.00031   0.00072  -0.01450  -0.02446   0.00096
  73       11D-2        0.00000   0.00000   0.00000   0.00000   0.00000
  74       12D 0       -0.00047  -0.00139  -0.01745   0.00303   0.00011
  75       12D+1        0.00000   0.00000   0.00000   0.00000   0.00000
  76       12D-1        0.00000   0.00001  -0.00007  -0.00111  -0.01733
  77       12D+2       -0.00051  -0.00087  -0.00936  -0.00206   0.00029
  78       12D-2        0.00000   0.00000   0.00000   0.00000   0.00000
  79       13F 0        0.00069   0.00044   0.00548   0.00540  -0.00026
  80       13F+1        0.00000   0.00000   0.00000   0.00000   0.00000
  81       13F-1        0.00000   0.00000  -0.00001   0.00031   0.00879
  82       13F+2        0.00050   0.00019   0.00363   0.00461  -0.00024
  83       13F-2        0.00000   0.00000   0.00000   0.00000   0.00000
  84       13F+3        0.00000   0.00000   0.00000   0.00000   0.00000
  85       13F-3        0.00000   0.00000  -0.00001  -0.00004  -0.00064
  86       14F 0       -0.00150  -0.00012  -0.00047   0.00365  -0.00015
  87       14F+1        0.00000   0.00000   0.00000   0.00000   0.00000
  88       14F-1        0.00002   0.00000  -0.00008   0.00027   0.00795
  89       14F+2       -0.00086  -0.00036   0.00264   0.00723  -0.00032
  90       14F-2        0.00000   0.00000   0.00000   0.00000   0.00000
  91       14F+3        0.00000   0.00000   0.00000   0.00000   0.00000
  92       14F-3        0.00000   0.00000  -0.00005  -0.00006   0.00034
  93 3   H  1S         -0.00107  -0.00058   0.02539   0.09896   0.06717
  94        2S         -0.00080   0.00033  -0.00008   0.09061   0.05846
  95        3S         -0.00361  -0.00274  -0.04550  -0.03246  -0.01049
  96        4S         -0.00026  -0.00017  -0.00170  -0.00180   0.00769
  97        5PX         0.00000   0.00000   0.00000   0.00000   0.00000
  98        5PY         0.00035   0.00016  -0.00127  -0.00833  -0.00481
  99        5PZ        -0.00024  -0.00010   0.00103   0.00431   0.00607
 100        6PX         0.00000   0.00000   0.00000   0.00000   0.00000
 101        6PY         0.00053  -0.00015   0.00970   0.00113   0.01261
 102        6PZ        -0.00019   0.00029  -0.00938  -0.00431   0.00434
 103        7PX         0.00000   0.00000   0.00000   0.00000   0.00000
 104        7PY         0.00052  -0.00011   0.00689   0.01705   0.00511
 105        7PZ        -0.00072  -0.00103  -0.01807  -0.00588   0.00791
 106        8D 0        0.00007   0.00000   0.00030  -0.00014   0.00182
 107        8D+1        0.00000   0.00000   0.00000   0.00000   0.00000
 108        8D-1        0.00028   0.00013   0.00067  -0.00104  -0.00260
 109        8D+2        0.00018   0.00008   0.00052  -0.00116  -0.00009
 110        8D-2        0.00000   0.00000   0.00000   0.00000   0.00000
 111        9D 0       -0.00024  -0.00003  -0.00185  -0.00105   0.00115
 112        9D+1        0.00000   0.00000   0.00000   0.00000   0.00000
 113        9D-1       -0.00010  -0.00002   0.00386   0.00240   0.00351
 114        9D+2        0.00024   0.00000   0.00178   0.00187   0.00306
 115        9D-2        0.00000   0.00000   0.00000   0.00000   0.00000
 116 4   H  1S         -0.00105  -0.00057   0.02488   0.09096  -0.07446
 117        2S         -0.00065   0.00042   0.00046   0.08408  -0.06540
 118        3S         -0.00342  -0.00268  -0.04433  -0.02894   0.01450
 119        4S         -0.00026  -0.00016  -0.00178  -0.00231  -0.00742
 120        5PX         0.00000   0.00000   0.00000   0.00000   0.00000
 121        5PY        -0.00035  -0.00015   0.00123   0.00771  -0.00533
 122        5PZ        -0.00024  -0.00010   0.00098   0.00375  -0.00632
 123        6PX         0.00000   0.00000   0.00000   0.00000   0.00000
 124        6PY        -0.00046   0.00020  -0.00930   0.00019   0.01262
 125        6PZ        -0.00018   0.00033  -0.00916  -0.00453  -0.00388
 126        7PX         0.00000   0.00000   0.00000   0.00000   0.00000
 127        7PY        -0.00046   0.00013  -0.00650  -0.01575   0.00648
 128        7PZ        -0.00069  -0.00101  -0.01801  -0.00622  -0.00670
 129        8D 0        0.00006   0.00001   0.00027  -0.00030  -0.00183
 130        8D+1        0.00000   0.00000   0.00000   0.00000   0.00000
 131        8D-1       -0.00028  -0.00013  -0.00070   0.00080  -0.00262
 132        8D+2        0.00018   0.00008   0.00052  -0.00113   0.00016
 133        8D-2        0.00000   0.00000   0.00000   0.00000   0.00000
 134        9D 0       -0.00024  -0.00003  -0.00190  -0.00122  -0.00105
 135        9D+1        0.00000   0.00000   0.00000   0.00000   0.00000
 136        9D-1        0.00011   0.00003  -0.00375  -0.00211   0.00377
 137        9D+2        0.00023  -0.00001   0.00168   0.00155  -0.00317
 138        9D-2        0.00000   0.00000   0.00000   0.00000   0.00000
                           6         7         8         9        10
     Eigenvalues --     1.96009   1.95659   1.92264   0.06604   0.02839
   1 1   O  1S          0.00404   0.00025   0.00000   0.00000  -0.00374
   2        2S          0.00868  -0.00046   0.00000   0.00000   0.01432
   3        3S          0.00689  -0.00007   0.00000   0.00000   0.00543
   4        4S          0.11744   0.00105   0.00000   0.00000   0.02870
   5        5S          0.06212   0.00028   0.00000   0.00000   0.01565
   6        6PX         0.00000   0.00000   0.28173  -0.36417   0.00000
   7        6PY        -0.00432   0.23824   0.00000   0.00000  -0.39966
   8        6PZ         0.28153   0.00341   0.00000   0.00000  -0.02228
   9        7PX         0.00000   0.00000   0.35453  -0.43363   0.00000
  10        7PY        -0.00527   0.29379   0.00000   0.00000  -0.30417
  11        7PZ         0.34003   0.00416   0.00000   0.00000  -0.02682
  12        8PX         0.00000   0.00000   0.23373  -0.08004   0.00000
  13        8PY        -0.00425   0.23994   0.00000   0.00000   0.17330
  14        8PZ         0.18323   0.00211   0.00000   0.00000  -0.00599
  15        9PX         0.00000   0.00000   0.02110   0.00306   0.00000
  16        9PY        -0.00080   0.04015   0.00000   0.00000   0.09901
  17        9PZ         0.00374   0.00006   0.00000   0.00000  -0.00156
  18       10D 0       -0.01198  -0.00015   0.00000   0.00000  -0.00129
  19       10D+1        0.00000   0.00000  -0.01006  -0.01304   0.00000
  20       10D-1        0.00001  -0.00092   0.00000   0.00000  -0.03060
  21       10D+2       -0.00014   0.00001   0.00000   0.00000  -0.00055
  22       10D-2        0.00000   0.00000   0.00000  -0.00001   0.00000
  23       11D 0       -0.02900  -0.00039   0.00000   0.00000  -0.00018
  24       11D+1        0.00000   0.00000  -0.02823  -0.01212   0.00000
  25       11D-1        0.00004  -0.00210   0.00000   0.00000  -0.03970
  26       11D+2       -0.00102  -0.00002   0.00000   0.00000  -0.00104
  27       11D-2        0.00000   0.00000   0.00000  -0.00004   0.00000
  28       12D 0       -0.00693  -0.00009   0.00000   0.00000   0.00017
  29       12D+1        0.00000   0.00000  -0.01228   0.01570   0.00000
  30       12D-1        0.00009  -0.00323   0.00000   0.00000   0.01626
  31       12D+2       -0.00132  -0.00005   0.00000   0.00000  -0.00055
  32       12D-2        0.00000   0.00000   0.00001  -0.00005   0.00000
  33       13F 0        0.00476   0.00006   0.00000   0.00000  -0.00010
  34       13F+1        0.00000   0.00000   0.00505   0.00443   0.00000
  35       13F-1        0.00000   0.00044   0.00000   0.00000   0.00696
  36       13F+2        0.00118   0.00001   0.00000   0.00000  -0.00004
  37       13F-2        0.00000   0.00000   0.00000   0.00000   0.00000
  38       13F+3        0.00000   0.00000   0.00155  -0.00359   0.00000
  39       13F-3       -0.00002   0.00124   0.00000   0.00000  -0.00165
  40       14F 0        0.00651   0.00011   0.00000   0.00000   0.00025
  41       14F+1        0.00000   0.00000   0.00347  -0.00357   0.00000
  42       14F-1       -0.00005   0.00166   0.00000   0.00000  -0.00200
  43       14F+2        0.00093   0.00003   0.00000   0.00000   0.00006
  44       14F-2        0.00000   0.00000   0.00000   0.00002   0.00000
  45       14F+3        0.00000   0.00000   0.00121  -0.00306   0.00000
  46       14F-3        0.00001  -0.00005   0.00000   0.00000  -0.00264
  47 2   C  1S          0.01516  -0.00051   0.00000   0.00000   0.01115
  48        2S         -0.02931   0.00154   0.00000   0.00000  -0.04102
  49        3S         -0.00916   0.00026   0.00000   0.00000  -0.01701
  50        4S          0.10645   0.00077   0.00000   0.00000  -0.02177
  51        5S          0.00007   0.00001   0.00000   0.00000  -0.00624
  52        6PX         0.00000   0.00000   0.18991   0.31094   0.00000
  53        6PY         0.00277  -0.16557   0.00000   0.00000   0.33531
  54        6PZ        -0.23942  -0.00403   0.00000   0.00000  -0.00614
  55        7PX         0.00000   0.00000   0.24846   0.48093   0.00000
  56        7PY         0.00374  -0.23114   0.00000   0.00000   0.64151
  57        7PZ        -0.25382  -0.00444   0.00000   0.00000  -0.01967
  58        8PX         0.00000   0.00000   0.12396   0.18956   0.00000
  59        8PY         0.00381  -0.25142   0.00000   0.00000   0.34921
  60        8PZ        -0.08507  -0.00179   0.00000   0.00000  -0.00880
  61        9PX         0.00000   0.00000   0.00176   0.00329   0.00000
  62        9PY         0.00048  -0.02270   0.00000   0.00000  -0.03700
  63        9PZ        -0.00181  -0.00005   0.00000   0.00000  -0.00052
  64       10D 0       -0.01903  -0.00012   0.00000   0.00000   0.00096
  65       10D+1        0.00000   0.00000   0.01986  -0.00024   0.00000
  66       10D-1       -0.00053   0.03301   0.00000   0.00000   0.03711
  67       10D+2       -0.00603  -0.00004   0.00000   0.00000  -0.00034
  68       10D-2        0.00000   0.00000   0.00000   0.00004   0.00000
  69       11D 0       -0.01201   0.00015   0.00000   0.00000  -0.00503
  70       11D+1        0.00000   0.00000   0.02960   0.03802   0.00000
  71       11D-1       -0.00127   0.08288   0.00000   0.00000   0.02683
  72       11D+2       -0.00593   0.00008   0.00000   0.00000  -0.00346
  73       11D-2        0.00000   0.00000   0.00002   0.00000   0.00000
  74       12D 0        0.00123   0.00062   0.00000   0.00000  -0.00226
  75       12D+1        0.00000   0.00000  -0.00419   0.00919   0.00000
  76       12D-1       -0.00099   0.06724   0.00000   0.00000   0.03040
  77       12D+2       -0.00534   0.00022   0.00000   0.00000   0.00005
  78       12D-2        0.00000   0.00000   0.00005   0.00017   0.00000
  79       13F 0       -0.00737  -0.00006   0.00000   0.00000  -0.00041
  80       13F+1        0.00000   0.00000   0.00685   0.00929   0.00000
  81       13F-1       -0.00012   0.00413   0.00000   0.00000   0.02404
  82       13F+2       -0.00151   0.00003   0.00000   0.00000  -0.00029
  83       13F-2        0.00000   0.00000   0.00001   0.00001   0.00000
  84       13F+3        0.00000   0.00000   0.00023  -0.00114   0.00000
  85       13F-3       -0.00006   0.00252   0.00000   0.00000  -0.00389
  86       14F 0        0.01011   0.00012   0.00000   0.00000   0.00014
  87       14F+1        0.00000   0.00000   0.00471   0.01671   0.00000
  88       14F-1       -0.00030   0.00503   0.00000   0.00000   0.10466
  89       14F+2        0.00653   0.00011   0.00000   0.00000   0.00052
  90       14F-2        0.00000   0.00000   0.00001   0.00002   0.00000
  91       14F+3        0.00000   0.00000   0.00233   0.00616   0.00000
  92       14F-3       -0.00012   0.00571   0.00000   0.00000   0.00585
  93 3   H  1S          0.07391  -0.13433   0.00000   0.00000  -0.14168
  94        2S          0.10358  -0.16915   0.00000   0.00000  -0.54160
  95        3S          0.00521   0.08014   0.00000   0.00000  -0.48097
  96        4S          0.00004   0.00938   0.00000   0.00000   0.00578
  97        5PX         0.00000   0.00000   0.00342   0.01210   0.00000
  98        5PY        -0.00812   0.00669   0.00000   0.00000  -0.00486
  99        5PZ         0.00173  -0.00484   0.00000   0.00000   0.01720
 100        6PX         0.00000   0.00000   0.01014   0.02419   0.00000
 101        6PY        -0.01313  -0.00755   0.00000   0.00000   0.13209
 102        6PZ         0.00156   0.00447   0.00000   0.00000   0.02149
 103        7PX         0.00000   0.00000  -0.00416  -0.00709   0.00000
 104        7PY         0.00481  -0.04173   0.00000   0.00000   0.08901
 105        7PZ        -0.00307   0.02022   0.00000   0.00000  -0.03207
 106        8D 0       -0.00210   0.00042   0.00000   0.00000   0.00975
 107        8D+1        0.00000   0.00000   0.00118   0.00378   0.00000
 108        8D-1       -0.00146   0.00100   0.00000   0.00000  -0.00747
 109        8D+2       -0.00217   0.00068   0.00000   0.00000   0.00443
 110        8D-2        0.00000   0.00000  -0.00127  -0.00596   0.00000
 111        9D 0        0.00385  -0.00246   0.00000   0.00000   0.00899
 112        9D+1        0.00000   0.00000   0.00139   0.00158   0.00000
 113        9D-1        0.00020   0.00018   0.00000   0.00000   0.01842
 114        9D+2       -0.00220  -0.00142   0.00000   0.00000   0.01744
 115        9D-2        0.00000   0.00000   0.00104   0.00376   0.00000
 116 4   H  1S          0.06970   0.13739   0.00000   0.00000   0.16127
 117        2S          0.09864   0.17495   0.00000   0.00000   0.56891
 118        3S          0.00750  -0.07680   0.00000   0.00000   0.48470
 119        4S          0.00050  -0.00928   0.00000   0.00000  -0.00471
 120        5PX         0.00000   0.00000   0.00336   0.01193   0.00000
 121        5PY         0.00785   0.00694   0.00000   0.00000  -0.00483
 122        5PZ         0.00172   0.00498   0.00000   0.00000  -0.01784
 123        6PX         0.00000   0.00000   0.01009   0.02419   0.00000
 124        6PY         0.01330  -0.00687   0.00000   0.00000   0.13091
 125        6PZ         0.00206  -0.00439   0.00000   0.00000  -0.02604
 126        7PX         0.00000   0.00000  -0.00407  -0.00668   0.00000
 127        7PY        -0.00362  -0.04172   0.00000   0.00000   0.08847
 128        7PZ        -0.00253  -0.02024   0.00000   0.00000   0.02943
 129        8D 0       -0.00196  -0.00047   0.00000   0.00000  -0.01010
 130        8D+1        0.00000   0.00000   0.00117   0.00383   0.00000
 131        8D-1        0.00158   0.00109   0.00000   0.00000  -0.00806
 132        8D+2       -0.00214  -0.00077   0.00000   0.00000  -0.00439
 133        8D-2        0.00000   0.00000   0.00123   0.00586   0.00000
 134        9D 0        0.00377   0.00249   0.00000   0.00000  -0.01014
 135        9D+1        0.00000   0.00000   0.00144   0.00169   0.00000
 136        9D-1       -0.00019   0.00011   0.00000   0.00000   0.01672
 137        9D+2       -0.00222   0.00140   0.00000   0.00000  -0.01750
 138        9D-2        0.00000   0.00000  -0.00100  -0.00365   0.00000
                          11        12        13        14        15
     Eigenvalues --     0.02657   0.02021   0.01203   0.01187   0.00761
   1 1   O  1S         -0.07195  -0.02754  -0.00196  -0.23662  -0.00033
   2        2S          0.28065   0.11862   0.00643   0.74339   0.00047
   3        3S          0.10799   0.05159   0.00552   0.63307   0.00088
   4        4S          0.60513   0.40056  -0.01175  -1.37421  -0.00497
   5        5S          0.36337   0.28185  -0.00229  -0.58913  -0.00248
   6        6PX         0.00000   0.00000   0.00000   0.00000   0.00000
   7        6PY         0.02373  -0.00808   0.44438  -0.00369   0.13766
   8        6PZ        -0.43588  -0.12514   0.00279   0.26288   0.00027
   9        7PX         0.00000   0.00000   0.00000   0.00000   0.00000
  10        7PY         0.01730  -0.00533   0.19692  -0.00144   0.03028
  11        7PZ        -0.52211  -0.18501   0.00119   0.06827   0.00060
  12        8PX         0.00000   0.00000   0.00000   0.00000   0.00000
  13        8PY        -0.01086   0.00343  -0.41356   0.00453  -0.18625
  14        8PZ        -0.11080  -0.18906   0.00014  -0.11936   0.00282
  15        9PX         0.00000   0.00000   0.00000   0.00000   0.00000
  16        9PY        -0.00549   0.00152  -0.06243   0.00068  -0.04481
  17        9PZ        -0.03956  -0.05444   0.00030   0.04149   0.00109
  18       10D 0       -0.03023  -0.02249   0.00026   0.00615   0.00112
  19       10D+1        0.00000   0.00000   0.00000   0.00000   0.00000
  20       10D-1        0.00180  -0.00074  -0.00951   0.00019  -0.20808
  21       10D+2       -0.01019   0.00239  -0.00006  -0.02463   0.00005
  22       10D-2        0.00000   0.00000   0.00000   0.00000   0.00000
  23       11D 0       -0.01616  -0.03321   0.00002  -0.03087   0.00218
  24       11D+1        0.00000   0.00000   0.00000   0.00000   0.00000
  25       11D-1        0.00226  -0.00081  -0.07478   0.00090  -0.51221
  26       11D+2       -0.02061   0.00928   0.00048   0.00069  -0.00009
  27       11D-2        0.00000   0.00000   0.00000   0.00000   0.00000
  28       12D 0       -0.00085   0.02905  -0.00040  -0.02925  -0.00031
  29       12D+1        0.00000   0.00000   0.00000   0.00000   0.00000
  30       12D-1       -0.00116   0.00089  -0.01581   0.00010  -0.12505
  31       12D+2       -0.00905   0.00152   0.00071   0.00832  -0.00024
  32       12D-2        0.00000   0.00000   0.00000   0.00000   0.00000
  33       13F 0       -0.00024   0.00446  -0.00005  -0.00249  -0.00019
  34       13F+1        0.00000   0.00000   0.00000   0.00000   0.00000
  35       13F-1       -0.00040   0.00015   0.01283  -0.00012   0.03487
  36       13F+2       -0.00075  -0.00159  -0.00002   0.00026  -0.00003
  37       13F-2        0.00000   0.00000   0.00000   0.00000   0.00000
  38       13F+3        0.00000   0.00000   0.00000   0.00000   0.00000
  39       13F-3        0.00009   0.00000  -0.00275   0.00002  -0.00034
  40       14F 0        0.00804   0.01036   0.00004   0.01833  -0.00020
  41       14F+1        0.00000   0.00000   0.00000   0.00000   0.00000
  42       14F-1        0.00011   0.00000   0.00731  -0.00009   0.07589
  43       14F+2        0.00049  -0.00550  -0.00020   0.00736   0.00025
  44       14F-2        0.00000   0.00000   0.00000   0.00000   0.00000
  45       14F+3        0.00000   0.00000   0.00000   0.00000   0.00000
  46       14F-3        0.00017  -0.00015   0.01757  -0.00012   0.00221
  47 2   C  1S          0.16710  -0.11091  -0.00095  -0.00103  -0.00006
  48        2S         -0.62325   0.43718   0.00420   0.07063  -0.00012
  49        3S         -0.25959   0.25235   0.00354   0.06794  -0.00015
  50        4S         -0.21744   0.07798   0.01011  -0.12399  -0.00215
  51        5S         -0.10928  -0.09405   0.00147   0.11539  -0.00028
  52        6PX         0.00000   0.00000   0.00000   0.00000   0.00000
  53        6PY        -0.01845   0.00574   0.41297  -0.00387  -0.12437
  54        6PZ        -0.23054  -0.41045  -0.00038  -0.01494   0.00169
  55        7PX         0.00000   0.00000   0.00000   0.00000   0.00000
  56        7PY        -0.03295   0.00778   0.78227  -0.00872  -0.16259
  57        7PZ        -0.55617  -0.72548   0.00223   0.12797   0.00090
  58        8PX         0.00000   0.00000   0.00000   0.00000   0.00000
  59        8PY        -0.01801   0.00508   0.55834  -0.00617   0.06026
  60        8PZ        -0.30094  -0.23746   0.00139   0.27876   0.00018
  61        9PX         0.00000   0.00000   0.00000   0.00000   0.00000
  62        9PY         0.00168  -0.00071   0.04848  -0.00021  -0.00084
  63        9PZ        -0.01332  -0.00799  -0.00010   0.02000  -0.00020
  64       10D 0        0.01787   0.01375   0.00004   0.01247   0.00160
  65       10D+1        0.00000   0.00000   0.00000   0.00000   0.00000
  66       10D-1       -0.00253   0.00122  -0.10141   0.00073   0.24505
  67       10D+2       -0.00549   0.01375   0.00001  -0.02723   0.00076
  68       10D-2        0.00000   0.00000   0.00000   0.00000   0.00000
  69       11D 0       -0.09044  -0.06884  -0.00180  -0.01452   0.00308
  70       11D+1        0.00000   0.00000   0.00000   0.00000   0.00000
  71       11D-1       -0.00347   0.00434  -0.57511   0.00501   0.09199
  72       11D+2       -0.07333  -0.03625  -0.00102  -0.02058   0.00262
  73       11D-2        0.00000   0.00000   0.00000   0.00000   0.00000
  74       12D 0       -0.06517  -0.03657  -0.00245   0.10606   0.00039
  75       12D+1        0.00000   0.00000   0.00000   0.00000   0.00000
  76       12D-1       -0.00279   0.00164  -0.19438   0.00086  -0.15516
  77       12D+2       -0.02032  -0.02568  -0.00163   0.05752   0.00081
  78       12D-2        0.00000   0.00000   0.00000   0.00000   0.00000
  79       13F 0       -0.00855  -0.01564  -0.00015  -0.00027   0.00006
  80       13F+1        0.00000   0.00000   0.00000   0.00000   0.00000
  81       13F-1       -0.00142   0.00046  -0.00776  -0.00010   0.00717
  82       13F+2       -0.00018   0.01079  -0.00025  -0.00091  -0.00018
  83       13F-2        0.00000   0.00000   0.00000   0.00000   0.00000
  84       13F+3        0.00000   0.00000   0.00000   0.00000   0.00000
  85       13F-3        0.00013   0.00019  -0.02485   0.00016   0.01730
  86       14F 0       -0.00133  -0.00240  -0.00051  -0.03155  -0.00029
  87       14F+1        0.00000   0.00000   0.00000   0.00000   0.00000
  88       14F-1       -0.00652   0.00250  -0.12640   0.00042  -0.09316
  89       14F+2        0.01704   0.01351  -0.00060  -0.01387   0.00013
  90       14F-2        0.00000   0.00000   0.00000   0.00000   0.00000
  91       14F+3        0.00000   0.00000   0.00000   0.00000   0.00000
  92       14F-3       -0.00046   0.00037  -0.08745   0.00052   0.01047
  93 3   H  1S          0.11495  -0.24090  -0.09439   0.06186  -0.12413
  94        2S          0.09489  -0.63343  -0.87549   0.15086   0.07608
  95        3S         -0.06235  -0.20463  -0.72583   0.19899   0.08059
  96        4S          0.00681   0.00770  -0.03578  -0.00596   0.01495
  97        5PX         0.00000   0.00000   0.00000   0.00000   0.00000
  98        5PY        -0.00196  -0.02404  -0.03345  -0.01300   0.06439
  99        5PZ        -0.01343  -0.00782   0.01750   0.00765  -0.01278
 100        6PX         0.00000   0.00000   0.00000   0.00000   0.00000
 101        6PY         0.01758   0.05505   0.12870  -0.04661   0.07743
 102        6PZ        -0.06738  -0.07679  -0.17600   0.02992  -0.01993
 103        7PX         0.00000   0.00000   0.00000   0.00000   0.00000
 104        7PY         0.01254   0.02257   0.14823  -0.01299   0.05583
 105        7PZ        -0.05054  -0.03759  -0.09486   0.09942   0.03091
 106        8D 0       -0.00382  -0.01090  -0.00632  -0.00265   0.01789
 107        8D+1        0.00000   0.00000   0.00000   0.00000   0.00000
 108        8D-1        0.00884  -0.00291  -0.00660  -0.00560   0.00628
 109        8D+2       -0.00045  -0.00982  -0.01212  -0.00685   0.01600
 110        8D-2        0.00000   0.00000   0.00000   0.00000   0.00000
 111        9D 0       -0.00580  -0.00064   0.00756  -0.00704   0.02238
 112        9D+1        0.00000   0.00000   0.00000   0.00000   0.00000
 113        9D-1        0.01895   0.01522   0.01570  -0.02015   0.01024
 114        9D+2       -0.00101   0.00882   0.00692  -0.00335   0.01876
 115        9D-2        0.00000   0.00000   0.00000   0.00000   0.00000
 116 4   H  1S          0.09817  -0.23540   0.09379   0.05909   0.12299
 117        2S          0.03806  -0.62233   0.86750   0.13278  -0.06875
 118        3S         -0.11253  -0.19376   0.71753   0.18398  -0.07639
 119        4S          0.00653   0.00697   0.03532  -0.00602  -0.01500
 120        5PX         0.00000   0.00000   0.00000   0.00000   0.00000
 121        5PY         0.00269   0.02369  -0.03223   0.01333   0.06430
 122        5PZ        -0.01109  -0.00819  -0.01770   0.00815   0.01342
 123        6PX         0.00000   0.00000   0.00000   0.00000   0.00000
 124        6PY        -0.03007  -0.05275   0.12864   0.04215   0.07867
 125        6PZ        -0.06350  -0.08099   0.17889   0.02816   0.02328
 126        7PX         0.00000   0.00000   0.00000   0.00000   0.00000
 127        7PY        -0.02087  -0.02115   0.14851   0.00915   0.05538
 128        7PZ        -0.05414  -0.03774   0.09566   0.09751  -0.02769
 129        8D 0       -0.00290  -0.01121   0.00610  -0.00248  -0.01762
 130        8D+1        0.00000   0.00000   0.00000   0.00000   0.00000
 131        8D-1       -0.00775   0.00255  -0.00621   0.00588   0.00685
 132        8D+2       -0.00007  -0.00971   0.01153  -0.00684  -0.01601
 133        8D-2        0.00000   0.00000   0.00000   0.00000   0.00000
 134        9D 0       -0.00538  -0.00119  -0.00608  -0.00642  -0.02104
 135        9D+1        0.00000   0.00000   0.00000   0.00000   0.00000
 136        9D-1       -0.02056  -0.01558   0.01696   0.01963   0.01100
 137        9D+2        0.00059   0.00861  -0.00723  -0.00280  -0.01823
 138        9D-2        0.00000   0.00000   0.00000   0.00000   0.00000
                          16        17        18        19        20
     Eigenvalues --     0.00747   0.00720   0.00707   0.00700   0.00600
   1 1   O  1S         -0.01282   0.00000   0.00000  -0.02417   0.00000
   2        2S          0.02311   0.00000   0.00000   0.05374   0.00000
   3        3S          0.03526   0.00000   0.00000   0.07393   0.00000
   4        4S         -0.08085   0.00000   0.00000  -0.19242   0.00000
   5        5S          0.11318   0.00000   0.00000  -0.11746   0.00000
   6        6PX         0.00000   0.21028  -0.00275   0.00000  -0.45156
   7        6PY        -0.00070   0.00000   0.00000   0.00011   0.00000
   8        6PZ        -0.05994   0.00000   0.00000   0.14144   0.00000
   9        7PX         0.00000   0.09776  -0.00135   0.00000  -0.16257
  10        7PY        -0.00046   0.00000   0.00000  -0.00007   0.00000
  11        7PZ         0.01336   0.00000   0.00000   0.01920   0.00000
  12        8PX         0.00000  -0.38919   0.00426   0.00000   0.54135
  13        8PY         0.00057   0.00000   0.00000  -0.00169   0.00000
  14        8PZ         0.20497   0.00000   0.00000  -0.26088   0.00000
  15        9PX         0.00000  -0.08181   0.00099   0.00000   0.08400
  16        9PY         0.00053   0.00000   0.00000  -0.00076   0.00000
  17        9PZ         0.00076   0.00000   0.00000  -0.01093   0.00000
  18       10D 0        0.20601   0.00000   0.00000  -0.06838   0.00000
  19       10D+1        0.00000  -0.19791   0.00240   0.00000  -0.09635
  20       10D-1        0.00128   0.00000   0.00000   0.00012   0.00000
  21       10D+2        0.04502   0.00000   0.00000   0.16762   0.00000
  22       10D-2        0.00000   0.00227   0.19712   0.00000  -0.00033
  23       11D 0        0.45235   0.00000   0.00000  -0.15431   0.00000
  24       11D+1        0.00000  -0.46954   0.00583   0.00000  -0.18843
  25       11D-1        0.00317   0.00000   0.00000   0.00033   0.00000
  26       11D+2        0.08992   0.00000   0.00000   0.39580   0.00000
  27       11D-2        0.00000   0.00479   0.43418   0.00000  -0.00058
  28       12D 0        0.05787   0.00000   0.00000   0.04751   0.00000
  29       12D+1        0.00000  -0.00445   0.00036   0.00000  -0.07181
  30       12D-1        0.00052   0.00000   0.00000   0.00043   0.00000
  31       12D+2        0.01594   0.00000   0.00000   0.10282   0.00000
  32       12D-2        0.00000   0.00074   0.07610   0.00000  -0.00003
  33       13F 0       -0.03840   0.00000   0.00000   0.01586   0.00000
  34       13F+1        0.00000   0.04899  -0.00059   0.00000  -0.00703
  35       13F-1       -0.00026   0.00000   0.00000  -0.00002   0.00000
  36       13F+2       -0.00583   0.00000   0.00000  -0.02070   0.00000
  37       13F-2        0.00000  -0.00032  -0.02459   0.00000   0.00003
  38       13F+3        0.00000  -0.00638   0.00007   0.00000   0.01593
  39       13F-3        0.00002   0.00000   0.00000   0.00003   0.00000
  40       14F 0       -0.07143   0.00000   0.00000   0.01074   0.00000
  41       14F+1        0.00000   0.05428  -0.00066   0.00000   0.02554
  42       14F-1       -0.00040   0.00000   0.00000  -0.00002   0.00000
  43       14F+2       -0.00686   0.00000   0.00000  -0.05060   0.00000
  44       14F-2        0.00000  -0.00041  -0.04628   0.00000  -0.00006
  45       14F+3        0.00000   0.00808  -0.00018   0.00000  -0.01044
  46       14F-3       -0.00008   0.00000   0.00000   0.00005   0.00000
  47 2   C  1S         -0.06070   0.00000   0.00000   0.09099   0.00000
  48        2S          0.15891   0.00000   0.00000  -0.28210   0.00000
  49        3S          0.11180   0.00000   0.00000  -0.25298   0.00000
  50        4S          0.11651   0.00000   0.00000  -0.59391   0.00000
  51        5S         -0.01549   0.00000   0.00000  -0.07532   0.00000
  52        6PX         0.00000   0.25606  -0.00308   0.00000  -0.19752
  53        6PY        -0.00076   0.00000   0.00000  -0.00050   0.00000
  54        6PZ         0.24580   0.00000   0.00000   0.05276   0.00000
  55        7PX         0.00000   0.14158  -0.00265   0.00000  -0.33472
  56        7PY         0.00259   0.00000   0.00000  -0.00355   0.00000
  57        7PZ        -0.26044   0.00000   0.00000   0.20730   0.00000
  58        8PX         0.00000  -0.13711   0.00105   0.00000   0.09858
  59        8PY         0.00402   0.00000   0.00000  -0.00190   0.00000
  60        8PZ        -0.08588   0.00000   0.00000   0.29433   0.00000
  61        9PX         0.00000   0.02420  -0.00035   0.00000  -0.01882
  62        9PY        -0.00034   0.00000   0.00000   0.00044   0.00000
  63        9PZ         0.00590   0.00000   0.00000   0.02292   0.00000
  64       10D 0        0.21966   0.00000   0.00000  -0.02806   0.00000
  65       10D+1        0.00000   0.18814  -0.00218   0.00000   0.20923
  66       10D-1       -0.00184   0.00000   0.00000  -0.00028   0.00000
  67       10D+2        0.05781   0.00000   0.00000   0.22260   0.00000
  68       10D-2        0.00000   0.00301   0.24548   0.00000  -0.00033
  69       11D 0        0.15250   0.00000   0.00000   0.03951   0.00000
  70       11D+1        0.00000   0.03343   0.00067   0.00000   0.30944
  71       11D-1       -0.00069   0.00000   0.00000   0.00144   0.00000
  72       11D+2        0.02287   0.00000   0.00000   0.42061   0.00000
  73       11D-2        0.00000   0.00466   0.31280   0.00000  -0.00013
  74       12D 0       -0.03353   0.00000   0.00000   0.08265   0.00000
  75       12D+1        0.00000   0.00638   0.00020   0.00000  -0.05003
  76       12D-1        0.00035   0.00000   0.00000   0.00096   0.00000
  77       12D+2       -0.01720   0.00000   0.00000   0.07266   0.00000
  78       12D-2        0.00000   0.00014   0.01025   0.00000  -0.00006
  79       13F 0        0.05527   0.00000   0.00000  -0.05230   0.00000
  80       13F+1        0.00000   0.04180  -0.00074   0.00000  -0.00585
  81       13F-1       -0.00005   0.00000   0.00000   0.00007   0.00000
  82       13F+2        0.01775   0.00000   0.00000   0.00133   0.00000
  83       13F-2        0.00000  -0.00004   0.00788   0.00000  -0.00024
  84       13F+3        0.00000  -0.00071  -0.00007   0.00000   0.04758
  85       13F-3        0.00005   0.00000   0.00000   0.00032   0.00000
  86       14F 0       -0.04454   0.00000   0.00000  -0.08871   0.00000
  87       14F+1        0.00000  -0.06415   0.00111   0.00000   0.03644
  88       14F-1        0.00127   0.00000   0.00000   0.00095   0.00000
  89       14F+2       -0.02427   0.00000   0.00000  -0.10965   0.00000
  90       14F-2        0.00000   0.00024  -0.01006   0.00000  -0.00034
  91       14F+3        0.00000  -0.05875   0.00101   0.00000   0.03748
  92       14F-3        0.00010   0.00000   0.00000   0.00003   0.00000
  93 3   H  1S         -0.03422   0.00000   0.00000  -0.09581   0.00000
  94        2S         -0.09159   0.00000   0.00000   0.47050   0.00000
  95        3S         -0.07001   0.00000   0.00000   0.42078   0.00000
  96        4S          0.00040   0.00000   0.00000   0.01368   0.00000
  97        5PX         0.00000  -0.01797   0.07028   0.00000  -0.06425
  98        5PY         0.00000   0.00000   0.00000   0.03238   0.00000
  99        5PZ        -0.05628   0.00000   0.00000  -0.04892   0.00000
 100        6PX         0.00000  -0.14628   0.11893   0.00000  -0.04281
 101        6PY         0.05781   0.00000   0.00000  -0.07318   0.00000
 102        6PZ        -0.14775   0.00000   0.00000   0.00644   0.00000
 103        7PX         0.00000  -0.05053   0.00457   0.00000  -0.00174
 104        7PY         0.02031   0.00000   0.00000  -0.05230   0.00000
 105        7PZ        -0.07365   0.00000   0.00000   0.06529   0.00000
 106        8D 0       -0.01349   0.00000   0.00000  -0.01572   0.00000
 107        8D+1        0.00000  -0.00330   0.02592   0.00000  -0.01145
 108        8D-1        0.02843   0.00000   0.00000   0.01441   0.00000
 109        8D+2       -0.00072   0.00000   0.00000   0.01042   0.00000
 110        8D-2        0.00000   0.01613  -0.03842   0.00000   0.03299
 111        9D 0       -0.02180   0.00000   0.00000  -0.01343   0.00000
 112        9D+1        0.00000  -0.05636   0.00273   0.00000   0.03476
 113        9D-1        0.02807   0.00000   0.00000  -0.00930   0.00000
 114        9D+2        0.02236   0.00000   0.00000   0.01908   0.00000
 115        9D-2        0.00000   0.02880  -0.00625   0.00000  -0.01349
 116 4   H  1S         -0.03341   0.00000   0.00000  -0.09399   0.00000
 117        2S         -0.08922   0.00000   0.00000   0.45920   0.00000
 118        3S         -0.06190   0.00000   0.00000   0.41118   0.00000
 119        4S          0.00008   0.00000   0.00000   0.01419   0.00000
 120        5PX         0.00000  -0.01985  -0.06899   0.00000  -0.06396
 121        5PY         0.00039   0.00000   0.00000  -0.03167   0.00000
 122        5PZ        -0.05601   0.00000   0.00000  -0.04889   0.00000
 123        6PX         0.00000  -0.14864  -0.11464   0.00000  -0.04451
 124        6PY        -0.05519   0.00000   0.00000   0.06953   0.00000
 125        6PZ        -0.14820   0.00000   0.00000   0.00687   0.00000
 126        7PX         0.00000  -0.05041  -0.00276   0.00000  -0.00244
 127        7PY        -0.01800   0.00000   0.00000   0.04941   0.00000
 128        7PZ        -0.07213   0.00000   0.00000   0.06621   0.00000
 129        8D 0       -0.01418   0.00000   0.00000  -0.01563   0.00000
 130        8D+1        0.00000  -0.00434  -0.02610   0.00000  -0.01198
 131        8D-1       -0.02838   0.00000   0.00000  -0.01441   0.00000
 132        8D+2       -0.00106   0.00000   0.00000   0.01040   0.00000
 133        8D-2        0.00000  -0.01725  -0.03763   0.00000  -0.03288
 134        9D 0       -0.02209   0.00000   0.00000  -0.01251   0.00000
 135        9D+1        0.00000  -0.05653  -0.00089   0.00000   0.03481
 136        9D-1       -0.02792   0.00000   0.00000   0.00863   0.00000
 137        9D+2        0.02188   0.00000   0.00000   0.01949   0.00000
 138        9D-2        0.00000  -0.02850  -0.00536   0.00000   0.01297
                          21        22        23        24        25
     Eigenvalues --     0.00519   0.00484   0.00338   0.00284   0.00252
   1 1   O  1S         -0.00863   0.00000   0.00158   0.11732   0.00000
   2        2S          0.02038   0.00000  -0.00499  -0.33092   0.00000
   3        3S          0.00605   0.00000  -0.00501  -0.37419   0.00000
   4        4S          0.38772   0.00000  -0.00638  -0.28558   0.00000
   5        5S          0.12947   0.00000  -0.00723  -0.51069   0.00000
   6        6PX         0.00000  -0.00025   0.00000   0.00000  -0.14738
   7        6PY        -0.00017   0.00000   0.18961  -0.00281   0.00000
   8        6PZ        -0.20239   0.00000   0.00488   0.36479   0.00000
   9        7PX         0.00000  -0.00005   0.00000   0.00000   0.03629
  10        7PY         0.00002   0.00000  -0.04179   0.00209   0.00000
  11        7PZ        -0.04806   0.00000   0.00183   0.08679   0.00000
  12        8PX         0.00000   0.00111   0.00000   0.00000  -0.41104
  13        8PY         0.00143   0.00000  -0.70479   0.01731   0.00000
  14        8PZ         0.01510   0.00000  -0.00362  -0.24649   0.00000
  15        9PX         0.00000   0.00030   0.00000   0.00000  -0.06553
  16        9PY         0.00056   0.00000  -0.04284   0.00204   0.00000
  17        9PZ        -0.01818   0.00000   0.00117   0.06575   0.00000
  18       10D 0        0.06042   0.00000  -0.00246  -0.17055   0.00000
  19       10D+1        0.00000  -0.00084   0.00000   0.00000   0.33059
  20       10D-1       -0.00036   0.00000   0.30048  -0.00556   0.00000
  21       10D+2        0.25974   0.00000   0.00117   0.08051   0.00000
  22       10D-2        0.00000   0.27379   0.00000   0.00000   0.00102
  23       11D 0        0.13429   0.00000  -0.00508  -0.34733   0.00000
  24       11D+1        0.00000  -0.00163   0.00000   0.00000   0.55344
  25       11D-1       -0.00096   0.00000   0.46086  -0.00925   0.00000
  26       11D+2        0.50701   0.00000   0.00105   0.06090   0.00000
  27       11D-2        0.00000   0.51365   0.00000   0.00000   0.00154
  28       12D 0        0.02203   0.00000   0.00049   0.03847   0.00000
  29       12D+1        0.00000  -0.00055   0.00000   0.00000   0.18816
  30       12D-1       -0.00027   0.00000   0.17528  -0.00450   0.00000
  31       12D+2        0.07430   0.00000  -0.00152  -0.07718   0.00000
  32       12D-2        0.00000   0.09788   0.00000   0.00000  -0.00003
  33       13F 0       -0.01208   0.00000   0.00019   0.00790   0.00000
  34       13F+1        0.00000   0.00002   0.00000   0.00000   0.03177
  35       13F-1        0.00004   0.00000   0.00423  -0.00018   0.00000
  36       13F+2       -0.01245   0.00000  -0.00009  -0.00060   0.00000
  37       13F-2        0.00000  -0.00024   0.00000   0.00000   0.00012
  38       13F+3        0.00000   0.00000   0.00000   0.00000  -0.01055
  39       13F-3        0.00003   0.00000  -0.00136   0.00000   0.00000
  40       14F 0       -0.01114   0.00000   0.00051   0.02287   0.00000
  41       14F+1        0.00000   0.00011   0.00000   0.00000  -0.02269
  42       14F-1        0.00012   0.00000  -0.02007   0.00038   0.00000
  43       14F+2       -0.03466   0.00000   0.00071   0.03897   0.00000
  44       14F-2        0.00000  -0.02462   0.00000   0.00000   0.00006
  45       14F+3        0.00000   0.00007   0.00000   0.00000  -0.01603
  46       14F-3        0.00001   0.00000  -0.00234   0.00013   0.00000
  47 2   C  1S         -0.03660   0.00000  -0.00081  -0.04260   0.00000
  48        2S          0.12407   0.00000   0.00409   0.16701   0.00000
  49        3S          0.11641   0.00000   0.00334   0.15793   0.00000
  50        4S         -0.24507   0.00000  -0.00160  -0.23242   0.00000
  51        5S         -0.07946   0.00000   0.00011   0.05246   0.00000
  52        6PX         0.00000  -0.00076   0.00000   0.00000   0.51091
  53        6PY        -0.00017   0.00000   0.12240  -0.00440   0.00000
  54        6PZ        -0.15071   0.00000   0.00212   0.23608   0.00000
  55        7PX         0.00000  -0.00020   0.00000   0.00000   0.40869
  56        7PY        -0.00093   0.00000   0.30467  -0.00353   0.00000
  57        7PZ        -0.26287   0.00000   0.00270   0.16552   0.00000
  58        8PX         0.00000   0.00051   0.00000   0.00000   0.14274
  59        8PY        -0.00012   0.00000   1.46551  -0.02728   0.00000
  60        8PZ        -0.09709   0.00000   0.01760   0.71880   0.00000
  61        9PX         0.00000  -0.00009   0.00000   0.00000   0.01418
  62        9PY        -0.00034   0.00000   0.02415  -0.00132   0.00000
  63        9PZ        -0.00347   0.00000   0.00040   0.03436   0.00000
  64       10D 0       -0.08309   0.00000   0.00296   0.28204   0.00000
  65       10D+1        0.00000   0.00040   0.00000   0.00000   0.17999
  66       10D-1        0.00084   0.00000   0.09122  -0.00334   0.00000
  67       10D+2       -0.11534   0.00000  -0.00064  -0.05252   0.00000
  68       10D-2        0.00000  -0.20531   0.00000   0.00000  -0.00125
  69       11D 0       -0.21774   0.00000   0.00813   0.52570   0.00000
  70       11D+1        0.00000  -0.00093   0.00000   0.00000   0.37466
  71       11D-1        0.00045   0.00000   0.28822  -0.00827   0.00000
  72       11D+2       -0.24558   0.00000  -0.00008  -0.10426   0.00000
  73       11D-2        0.00000  -0.26022   0.00000   0.00000  -0.00030
  74       12D 0       -0.00916   0.00000   0.00236   0.24591   0.00000
  75       12D+1        0.00000  -0.00043   0.00000   0.00000   0.03753
  76       12D-1       -0.00118   0.00000  -0.16129  -0.00101   0.00000
  77       12D+2        0.03574   0.00000   0.00238   0.15882   0.00000
  78       12D-2        0.00000   0.04325   0.00000   0.00000   0.00077
  79       13F 0        0.06669   0.00000  -0.00143  -0.03716   0.00000
  80       13F+1        0.00000   0.00042   0.00000   0.00000  -0.00713
  81       13F-1       -0.00018   0.00000  -0.22491   0.00239   0.00000
  82       13F+2        0.09270   0.00000   0.00080   0.07314   0.00000
  83       13F-2        0.00000   0.10320   0.00000   0.00000  -0.00051
  84       13F+3        0.00000   0.00021   0.00000   0.00000   0.03787
  85       13F-3       -0.00010   0.00000  -0.00235  -0.00068   0.00000
  86       14F 0        0.05356   0.00000   0.00290   0.18219   0.00000
  87       14F+1        0.00000  -0.00017   0.00000   0.00000   0.09216
  88       14F-1       -0.00083   0.00000   0.01153  -0.00343   0.00000
  89       14F+2        0.07734   0.00000   0.00182   0.10949   0.00000
  90       14F-2        0.00000   0.00851   0.00000   0.00000  -0.00039
  91       14F+3        0.00000  -0.00007   0.00000   0.00000   0.00379
  92       14F-3       -0.00017   0.00000   0.00384  -0.00033   0.00000
  93 3   H  1S          0.16303   0.00000  -0.29276   0.24722   0.00000
  94        2S         -0.23759   0.00000  -0.13380  -0.08642   0.00000
  95        3S         -0.10313   0.00000  -1.07852   0.32475   0.00000
  96        4S          0.00708   0.00000  -0.01319   0.00256   0.00000
  97        5PX         0.00000  -0.09244   0.00000   0.00000  -0.09027
  98        5PY        -0.01571   0.00000   0.10192  -0.10476   0.00000
  99        5PZ         0.06604   0.00000   0.01619  -0.04033   0.00000
 100        6PX         0.00000  -0.20225   0.00000   0.00000  -0.23584
 101        6PY         0.07076   0.00000   0.14860  -0.07478   0.00000
 102        6PZ         0.03478   0.00000   0.06483  -0.12359   0.00000
 103        7PX         0.00000  -0.06554   0.00000   0.00000  -0.07185
 104        7PY         0.03775   0.00000   0.32625   0.01210   0.00000
 105        7PZ         0.00390   0.00000  -0.16847   0.11306   0.00000
 106        8D 0        0.02129   0.00000   0.00627  -0.03444   0.00000
 107        8D+1        0.00000  -0.02964   0.00000   0.00000  -0.02045
 108        8D-1       -0.02290   0.00000   0.01848   0.00822   0.00000
 109        8D+2       -0.00289   0.00000   0.02568  -0.04795   0.00000
 110        8D-2        0.00000   0.04196   0.00000   0.00000   0.04496
 111        9D 0        0.00162   0.00000   0.01509   0.02302   0.00000
 112        9D+1        0.00000   0.00120   0.00000   0.00000  -0.01698
 113        9D-1        0.00501   0.00000   0.00399   0.02390   0.00000
 114        9D+2       -0.01316   0.00000   0.03132  -0.01378   0.00000
 115        9D-2        0.00000   0.02198   0.00000   0.00000   0.03790
 116 4   H  1S          0.15999   0.00000   0.30055   0.23762   0.00000
 117        2S         -0.23423   0.00000   0.13540  -0.08340   0.00000
 118        3S         -0.10005   0.00000   1.08193   0.28714   0.00000
 119        4S          0.00653   0.00000   0.01327   0.00114   0.00000
 120        5PX         0.00000   0.09139   0.00000   0.00000  -0.08964
 121        5PY         0.01478   0.00000   0.10467   0.10132   0.00000
 122        5PZ         0.06585   0.00000  -0.01546  -0.03813   0.00000
 123        6PX         0.00000   0.20252   0.00000   0.00000  -0.23560
 124        6PY        -0.07103   0.00000   0.15245   0.07334   0.00000
 125        6PZ         0.03455   0.00000  -0.06523  -0.11937   0.00000
 126        7PX         0.00000   0.06533   0.00000   0.00000  -0.07054
 127        7PY        -0.03709   0.00000   0.32529  -0.02165   0.00000
 128        7PZ         0.00305   0.00000   0.17465   0.10588   0.00000
 129        8D 0        0.02143   0.00000  -0.00687  -0.03407   0.00000
 130        8D+1        0.00000   0.02996   0.00000   0.00000  -0.02088
 131        8D-1        0.02228   0.00000   0.01911  -0.00724   0.00000
 132        8D+2       -0.00251   0.00000  -0.02695  -0.04698   0.00000
 133        8D-2        0.00000   0.04150   0.00000   0.00000  -0.04464
 134        9D 0        0.00127   0.00000  -0.01390   0.02288   0.00000
 135        9D+1        0.00000  -0.00052   0.00000   0.00000  -0.01705
 136        9D-1       -0.00523   0.00000   0.00392  -0.02327   0.00000
 137        9D+2       -0.01313   0.00000  -0.03171  -0.01340   0.00000
 138        9D-2        0.00000   0.02197   0.00000   0.00000  -0.03756
                          26        27        28        29        30
     Eigenvalues --     0.00211   0.00163   0.00139   0.00132   0.00108
   1 1   O  1S          0.00028   0.00953   0.04934   0.00052   0.00000
   2        2S         -0.00164  -0.03103  -0.28093  -0.00254   0.00000
   3        3S         -0.00129  -0.02829  -0.27389  -0.00282   0.00000
   4        4S         -0.00412  -0.04178   0.18943   0.00356   0.00000
   5        5S         -0.00411   0.16002  -0.47956  -0.00553   0.00000
   6        6PX         0.00000   0.00000   0.00000   0.00000  -0.03202
   7        6PY        -0.29686  -0.00291   0.00295  -0.44882   0.00000
   8        6PZ         0.00100   0.23388   0.14092   0.00042   0.00000
   9        7PX         0.00000   0.00000   0.00000   0.00000   0.02730
  10        7PY         0.14219   0.00197  -0.00211   0.47314   0.00000
  11        7PZ         0.00152  -0.16884   0.12807   0.00150   0.00000
  12        8PX         0.00000   0.00000   0.00000   0.00000   0.00341
  13        8PY        -0.22467  -0.00654   0.00573  -0.10171   0.00000
  14        8PZ        -0.00026  -0.25891  -1.02634  -0.00889   0.00000
  15        9PX         0.00000   0.00000   0.00000   0.00000  -0.00487
  16        9PY        -0.04578  -0.00180   0.00145  -0.19257   0.00000
  17        9PZ         0.00136  -0.01810   0.05468   0.00038   0.00000
  18       10D 0       -0.00016   0.18874   0.39935   0.00183   0.00000
  19       10D+1        0.00000   0.00000   0.00000   0.00000  -0.00323
  20       10D-1        0.05505   0.00212  -0.00241   0.16612   0.00000
  21       10D+2       -0.00042   0.26003  -0.08824  -0.00331   0.00000
  22       10D-2        0.00000   0.00000   0.00000   0.00000  -0.34447
  23       11D 0       -0.00104   0.17688   0.35435   0.00170   0.00000
  24       11D+1        0.00000   0.00000   0.00000   0.00000   0.00027
  25       11D-1        0.21479   0.00394  -0.00358   0.19157   0.00000
  26       11D+2       -0.00108   0.24736  -0.16034  -0.00356   0.00000
  27       11D-2        0.00000   0.00000   0.00000   0.00000  -0.21653
  28       12D 0        0.00015   0.04351   0.22757   0.00188   0.00000
  29       12D+1        0.00000   0.00000   0.00000   0.00000   0.00815
  30       12D-1        0.14077   0.00246  -0.00168   0.09900   0.00000
  31       12D+2       -0.00092  -0.02911  -0.06650  -0.00005   0.00000
  32       12D-2        0.00000   0.00000   0.00000   0.00000   0.08853
  33       13F 0       -0.00003   0.07461   0.13979  -0.00005   0.00000
  34       13F+1        0.00000   0.00000   0.00000   0.00000   0.00117
  35       13F-1       -0.00368   0.00098  -0.00143   0.15630   0.00000
  36       13F+2       -0.00018   0.06419  -0.05131  -0.00150   0.00000
  37       13F-2        0.00000   0.00000   0.00000   0.00000  -0.21039
  38       13F+3        0.00000   0.00000   0.00000   0.00000   0.00017
  39       13F-3        0.01234  -0.00018   0.00005  -0.01176   0.00000
  40       14F 0        0.00028   0.01689   0.05939   0.00009   0.00000
  41       14F+1        0.00000   0.00000   0.00000   0.00000  -0.00266
  42       14F-1       -0.05165  -0.00003  -0.00036   0.04708   0.00000
  43       14F+2        0.00055   0.04743  -0.01332  -0.00095   0.00000
  44       14F-2        0.00000   0.00000   0.00000   0.00000  -0.13837
  45       14F+3        0.00000   0.00000   0.00000   0.00000  -0.00089
  46       14F-3       -0.01702  -0.00028   0.00019  -0.01258   0.00000
  47 2   C  1S          0.00026   0.07235   0.15334   0.00266   0.00000
  48        2S          0.00017  -0.27963  -0.50092  -0.00857   0.00000
  49        3S         -0.00036  -0.36238  -0.68499  -0.00986   0.00000
  50        4S         -0.00531   1.28662  -1.28015  -0.01972   0.00000
  51        5S         -0.00131   0.05736  -0.07591   0.00070   0.00000
  52        6PX         0.00000   0.00000   0.00000   0.00000   0.00588
  53        6PY         0.30426   0.00369  -0.00242   0.15306   0.00000
  54        6PZ         0.00100  -0.24800  -0.49742   0.00343   0.00000
  55        7PX         0.00000   0.00000   0.00000   0.00000   0.00683
  56        7PY         0.33055   0.00794  -0.01080   0.39631   0.00000
  57        7PZ         0.00490  -0.07550   0.11963   0.00040   0.00000
  58        8PX         0.00000   0.00000   0.00000   0.00000  -0.02333
  59        8PY         1.39707   0.01235  -0.00654  -1.23334   0.00000
  60        8PZ         0.01036  -0.31663   0.87385   0.00335   0.00000
  61        9PX         0.00000   0.00000   0.00000   0.00000   0.00203
  62        9PY         0.04485   0.00154  -0.00081   0.03559   0.00000
  63        9PZ         0.00009  -0.01830  -0.00744   0.00005   0.00000
  64       10D 0        0.00102   0.11451   0.12128   0.00126   0.00000
  65       10D+1        0.00000   0.00000   0.00000   0.00000   0.00003
  66       10D-1       -0.02689   0.00432  -0.00546   0.53922   0.00000
  67       10D+2        0.00040  -0.30403   0.22530   0.00468   0.00000
  68       10D-2        0.00000   0.00000   0.00000   0.00000   0.26351
  69       11D 0        0.00121   0.16602   0.25381   0.00096   0.00000
  70       11D+1        0.00000   0.00000   0.00000   0.00000   0.00012
  71       11D-1        0.08069   0.00172   0.00017  -0.02610   0.00000
  72       11D+2        0.00154  -0.48161   0.26219   0.00624   0.00000
  73       11D-2        0.00000   0.00000   0.00000   0.00000   0.35997
  74       12D 0        0.00127   0.04555   0.49162   0.00616   0.00000
  75       12D+1        0.00000   0.00000   0.00000   0.00000   0.00003
  76       12D-1       -0.41786   0.00031  -0.00241   0.11314   0.00000
  77       12D+2        0.00232  -0.04790   0.31089   0.00335   0.00000
  78       12D-2        0.00000   0.00000   0.00000   0.00000   0.00812
  79       13F 0        0.00169  -0.12402   0.01927   0.00127   0.00000
  80       13F+1        0.00000   0.00000   0.00000   0.00000   0.00845
  81       13F-1        0.24851   0.00176  -0.00147   0.07001   0.00000
  82       13F+2        0.00152  -0.18980   0.09626   0.00266   0.00000
  83       13F-2        0.00000   0.00000   0.00000   0.00000   0.38740
  84       13F+3        0.00000   0.00000   0.00000   0.00000  -0.00862
  85       13F-3        0.13505  -0.00048   0.00051  -0.10663   0.00000
  86       14F 0        0.00068  -0.07490   0.10913   0.00274   0.00000
  87       14F+1        0.00000   0.00000   0.00000   0.00000   0.00428
  88       14F-1        0.14697   0.00217  -0.00262   0.06223   0.00000
  89       14F+2        0.00051  -0.07501   0.06581   0.00197   0.00000
  90       14F-2        0.00000   0.00000   0.00000   0.00000   0.14892
  91       14F+3        0.00000   0.00000   0.00000   0.00000  -0.00155
  92       14F-3        0.02387  -0.00093   0.00013  -0.04241   0.00000
  93 3   H  1S         -0.37762  -0.26586   0.21907   0.31155   0.00000
  94        2S         -0.24930  -0.27811   0.28293  -0.12166   0.00000
  95        3S         -1.10141  -0.31680   0.79810   0.85895   0.00000
  96        4S         -0.01841  -0.01160   0.01065  -0.00723   0.00000
  97        5PX         0.00000   0.00000   0.00000   0.00000  -0.10668
  98        5PY         0.02153   0.02043  -0.05331   0.03003   0.00000
  99        5PZ        -0.15958   0.01978  -0.00638   0.03133   0.00000
 100        6PX         0.00000   0.00000   0.00000   0.00000  -0.27816
 101        6PY        -0.02711   0.05719  -0.10322   0.29572   0.00000
 102        6PZ        -0.31155   0.00197   0.10274  -0.07082   0.00000
 103        7PX         0.00000   0.00000   0.00000   0.00000  -0.05612
 104        7PY         0.29113   0.09995   0.01406  -0.12754   0.00000
 105        7PZ        -0.19218  -0.04403   0.37338   0.07004   0.00000
 106        8D 0       -0.03323   0.01900  -0.02251   0.03473   0.00000
 107        8D+1        0.00000   0.00000   0.00000   0.00000  -0.00335
 108        8D-1        0.05154   0.01089  -0.01510  -0.02409   0.00000
 109        8D+2        0.00608   0.00163  -0.03175   0.01261   0.00000
 110        8D-2        0.00000   0.00000   0.00000   0.00000   0.02456
 111        9D 0       -0.03077  -0.01484   0.02416   0.01327   0.00000
 112        9D+1        0.00000   0.00000   0.00000   0.00000  -0.02272
 113        9D-1        0.03695  -0.01366  -0.03728   0.02700   0.00000
 114        9D+2       -0.00113  -0.00327   0.00879   0.04755   0.00000
 115        9D-2        0.00000   0.00000   0.00000   0.00000   0.04802
 116 4   H  1S          0.37628  -0.26778   0.22145  -0.29971   0.00000
 117        2S          0.26162  -0.26960   0.26823   0.12452   0.00000
 118        3S          1.10887  -0.28572   0.77841  -0.83902   0.00000
 119        4S          0.01859  -0.00916   0.00924   0.00724   0.00000
 120        5PX         0.00000   0.00000   0.00000   0.00000   0.11928
 121        5PY         0.02082  -0.01898   0.05185   0.03473   0.00000
 122        5PZ         0.15978   0.01907  -0.00546  -0.03035   0.00000
 123        6PX         0.00000   0.00000   0.00000   0.00000   0.29061
 124        6PY        -0.02597  -0.05171   0.09193   0.30499   0.00000
 125        6PZ         0.31591   0.00435   0.09974   0.07585   0.00000
 126        7PX         0.00000   0.00000   0.00000   0.00000   0.05397
 127        7PY         0.28961  -0.09245  -0.02069  -0.12456   0.00000
 128        7PZ         0.20118  -0.03819   0.37006  -0.06175   0.00000
 129        8D 0        0.03431   0.01857  -0.02142  -0.03624   0.00000
 130        8D+1        0.00000   0.00000   0.00000   0.00000   0.00671
 131        8D-1        0.05158  -0.01064   0.01560  -0.02161   0.00000
 132        8D+2       -0.00599   0.00096  -0.03071  -0.01473   0.00000
 133        8D-2        0.00000   0.00000   0.00000   0.00000   0.02993
 134        9D 0        0.03188  -0.01427   0.02548  -0.01235   0.00000
 135        9D+1        0.00000   0.00000   0.00000   0.00000   0.02232
 136        9D-1        0.03707   0.01348   0.03545   0.02934   0.00000
 137        9D+2        0.00158  -0.00407   0.01058  -0.04858   0.00000
 138        9D-2        0.00000   0.00000   0.00000   0.00000   0.04371
                          31        32        33        34        35
     Eigenvalues --     0.00105   0.00087   0.00086   0.00081   0.00065
   1 1   O  1S          0.00000   0.00000   0.04816  -0.00034   0.25878
   2        2S          0.00000   0.00000   0.00059  -0.00215   0.20891
   3        3S          0.00000   0.00000  -0.11864  -0.00048  -0.69144
   4        4S          0.00000   0.00000   0.11086  -0.00524  -0.14439
   5        5S          0.00000   0.00000   0.13853  -0.00218  -0.63950
   6        6PX         0.73071  -0.00134   0.00000   0.00000   0.00000
   7        6PY         0.00000   0.00000   0.01563   0.70595  -0.00245
   8        6PZ         0.00000   0.00000   0.23985  -0.00537  -0.73166
   9        7PX        -0.63665  -0.04821   0.00000   0.00000   0.00000
  10        7PY         0.00000   0.00000  -0.02541  -1.11301   0.00305
  11        7PZ         0.00000   0.00000  -0.21468   0.00839   1.21061
  12        8PX        -0.17060   0.43906   0.00000   0.00000   0.00000
  13        8PY         0.00000   0.00000  -0.02146  -0.44468  -0.00564
  14        8PZ         0.00000   0.00000   0.18572  -0.00654  -0.62145
  15        9PX         0.10902   0.03695   0.00000   0.00000   0.00000
  16        9PY         0.00000   0.00000   0.00281   0.17101  -0.00134
  17        9PZ         0.00000   0.00000   0.02815  -0.00218  -0.12768
  18       10D 0        0.00000   0.00000  -0.04694   0.00166  -0.10822
  19       10D+1        0.13776  -0.24641   0.00000   0.00000   0.00000
  20       10D-1        0.00000   0.00000   0.00984   0.21717   0.00195
  21       10D+2        0.00000   0.00000   0.00887  -0.00122   0.15580
[...]
   5        5S          0.00000 -11.41175   1.26337   0.16238  -0.22899
   6        6PX         0.01437   0.00000   0.00000   0.00000   0.00000
   7        6PY         0.00000   0.00033   0.00230   0.00394   0.00008
   8        6PZ         0.00000   0.02287  -0.00250  -0.00003  -0.01652
   9        7PX        -0.06100   0.00000   0.00000   0.00000   0.00000
  10        7PY         0.00000   0.00236   0.02274   0.04316  -0.00012
  11        7PZ         0.00000  -0.13218   0.01259  -0.00053   0.03558
  12        8PX         0.41596   0.00000   0.00000   0.00000   0.00000
  13        8PY         0.00000   0.27106   3.06213   2.46092  -0.06506
  14        8PZ         0.00000   3.65053  -0.37701  -0.04752   0.86593
  15        9PX        -0.68468   0.00000   0.00000   0.00000   0.00000
  16        9PY         0.00000  -0.14858  -0.97354   0.08290  -0.00952
  17        9PZ         0.00000   5.48245  -0.59254  -0.05848  -0.36470
  18       10D 0        0.00000  -0.02910   0.00312   0.00001   0.00966
  19       10D+1        0.00568   0.00000   0.00000   0.00000   0.00000
  20       10D-1        0.00000   0.00099   0.01072   0.00809  -0.00009
  21       10D+2        0.00000   0.03460  -0.00359  -0.00037   0.00760
  22       10D-2       -0.00024   0.00000   0.00000   0.00000   0.00000
  23       11D 0        0.00000   0.05084  -0.00645   0.00071  -0.05538
  24       11D+1       -0.06177   0.00000   0.00000   0.00000   0.00000
  25       11D-1        0.00000  -0.00586  -0.06882  -0.10656   0.00195
  26       11D+2        0.00000  -0.13117   0.01355   0.00170  -0.02827
  27       11D-2        0.00090   0.00000   0.00000   0.00000   0.00000
  28       12D 0        0.00000  -1.74498   0.16555   0.01652  -0.45841
  29       12D+1       -0.07693   0.00000   0.00000   0.00000   0.00000
  30       12D-1        0.00000  -0.12355  -1.43898  -1.08637   0.03132
  31       12D+2        0.00000   0.28181  -0.03062  -0.00327  -0.02483
  32       12D-2       -0.00095   0.00000   0.00000   0.00000   0.00000
  33       13F 0        0.00000  -0.00590   0.00007   0.00026  -0.00828
  34       13F+1       -0.00677   0.00000   0.00000   0.00000   0.00000
  35       13F-1        0.00000  -0.00382  -0.04088  -0.02368   0.00026
  36       13F+2        0.00000   0.00426  -0.00039  -0.00007  -0.00373
  37       13F-2        0.00035   0.00000   0.00000   0.00000   0.00000
  38       13F+3        0.01933   0.00000   0.00000   0.00000   0.00000
  39       13F-3        0.00000   0.00169   0.01297   0.01147   0.00001
  40       14F 0        0.00000   0.13356  -0.01039  -0.00188   0.08236
  41       14F+1        0.07858   0.00000   0.00000   0.00000   0.00000
  42       14F-1        0.00000   0.01392   0.15980   0.12817  -0.00313
  43       14F+2        0.00000  -0.01387   0.00156   0.00015   0.00394
  44       14F-2       -0.00094   0.00000   0.00000   0.00000   0.00000
  45       14F+3       -0.02961   0.00000   0.00000   0.00000   0.00000
  46       14F-3        0.00000  -0.00357  -0.02944  -0.01358   0.00028
  47 2   C  1S          0.00000   0.08176  -0.00777  -0.00037   0.19962
  48        2S          0.00000   0.45292  -0.04247  -0.00232   1.20407
  49        3S          0.00000  -0.08067   0.00892   0.00132  -0.00418
  50        4S          0.00000   5.96351  -0.52262  -0.17595  25.27182
  51        5S          0.00000   8.05463  -0.73608  -0.16953  10.46272
  52        6PX         0.00429   0.00000   0.00000   0.00000   0.00000
  53        6PY         0.00000   0.00389   0.02935  -0.00474  -0.00088
  54        6PZ         0.00000   0.00434   0.00012  -0.00035   0.03712
  55        7PX         0.01966   0.00000   0.00000   0.00000   0.00000
  56        7PY         0.00000  -0.21463  -1.82799   1.34704   0.07430
  57        7PZ         0.00000   0.68016  -0.06391   0.00188  -1.03985
  58        8PX         3.95569   0.00000   0.00000   0.00000   0.00000
  59        8PY         0.00000  -1.52810 -16.36813   8.03409   0.52794
  60        8PZ         0.00000  -2.67955   0.04749   0.07153  -9.45651
  61        9PX         2.26378   0.00000   0.00000   0.00000   0.00000
  62        9PY         0.00000   0.27596   1.64848   5.33242   0.06283
  63        9PZ         0.00000  -2.29241   0.21389   0.05249  -2.05860
  64       10D 0        0.00000  -0.05594   0.00723   0.00036   0.02209
  65       10D+1        0.01516   0.00000   0.00000   0.00000   0.00000
  66       10D-1        0.00000   0.00266   0.01501  -0.01960  -0.00163
  67       10D+2        0.00000   0.02159  -0.00235   0.00015  -0.05235
  68       10D-2       -0.00062   0.00000   0.00000   0.00000   0.00000
  69       11D 0        0.00000   0.70730  -0.07130  -0.02258   0.16302
  70       11D+1       -0.36809   0.00000   0.00000   0.00000   0.00000
  71       11D-1        0.00000   0.17349   1.42584  -1.23662  -0.03017
  72       11D+2        0.00000  -0.29675   0.03404  -0.00542  -0.91447
  73       11D-2        0.00487   0.00000   0.00000   0.00000   0.00000
  74       12D 0        0.00000   1.36710  -0.12991  -0.04080   1.82876
  75       12D+1       -1.39969   0.00000   0.00000   0.00000   0.00000
  76       12D-1        0.00000   0.24188   2.56602  -2.35590  -0.05844
  77       12D+2        0.00000   0.26526  -0.03753  -0.00816  -0.24541
  78       12D-2        0.03264   0.00000   0.00000   0.00000   0.00000
  79       13F 0        0.00000   0.01818  -0.00153  -0.00034   0.02576
  80       13F+1       -0.03858   0.00000   0.00000   0.00000   0.00000
  81       13F-1        0.00000   0.00410   0.04723   0.01898   0.00001
  82       13F+2        0.00000   0.01145  -0.00142  -0.00059   0.04520
  83       13F-2        0.00054   0.00000   0.00000   0.00000   0.00000
  84       13F+3        0.10520   0.00000   0.00000   0.00000   0.00000
  85       13F-3        0.00000   0.01021   0.07587  -0.01522  -0.00117
  86       14F 0        0.00000  -0.04882  -0.01393  -0.00574   0.17360
  87       14F+1        0.05235   0.00000   0.00000   0.00000   0.00000
  88       14F-1        0.00000  -0.19654  -1.94867  -1.18341   0.02614
  89       14F+2        0.00000   0.43148  -0.04639  -0.00579   0.45210
  90       14F-2       -0.00302   0.00000   0.00000   0.00000   0.00000
  91       14F+3       -0.32573   0.00000   0.00000   0.00000   0.00000
  92       14F-3        0.00000  -0.02873  -0.22824  -0.33420  -0.00449
  93 3   H  1S          0.00000   0.01058  -0.06855  -0.01184   0.04918
  94        2S          0.00000  -1.14602   3.19076  -1.57626  -2.93831
  95        3S          0.00000   3.99248  25.51473 -13.71053 -15.43759
  96        4S          0.00000  -1.42566  -1.63390  -4.62678  -1.71081
  97        5PX        -0.08346   0.00000   0.00000   0.00000   0.00000
  98        5PY         0.00000   0.03122   0.10933  -0.07056  -0.09793
  99        5PZ         0.00000  -0.01521   0.03391   0.10508   0.03220
 100        6PX        -0.02743   0.00000   0.00000   0.00000   0.00000
 101        6PY         0.00000  -0.07489  -2.13156   0.68781   1.55779
 102        6PZ         0.00000   0.24619  -0.47149  -1.45941  -0.62005
 103        7PX        -3.09150   0.00000   0.00000   0.00000   0.00000
 104        7PY         0.00000  -1.01414  -9.14413   1.70012   4.97293
 105        7PZ         0.00000   4.22918   1.07260  -2.93834  -0.06137
 106        8D 0        0.00000  -0.05159   0.05777   0.02906  -0.02449
 107        8D+1        0.02753   0.00000   0.00000   0.00000   0.00000
 108        8D-1        0.00000   0.03736  -0.11405   0.00568   0.06699
 109        8D+2        0.00000   0.04624   0.04742   0.04283   0.04488
 110        8D-2       -0.06658   0.00000   0.00000   0.00000   0.00000
 111        9D 0        0.00000   0.46331  -1.25046  -0.52188   0.43061
 112        9D+1       -0.24486   0.00000   0.00000   0.00000   0.00000
 113        9D-1        0.00000  -0.78249   0.37802   0.77348   0.14739
 114        9D+2        0.00000  -0.28473  -1.15167  -0.15328   0.45198
 115        9D-2        0.51416   0.00000   0.00000   0.00000   0.00000
 116 4   H  1S          0.00000   0.02655   0.06519   0.01134   0.04609
 117        2S          0.00000  -1.82362  -2.88648   1.55993  -2.73417
 118        3S          0.00000  -1.10561 -26.12084  13.82370 -14.00416
 119        4S          0.00000  -0.90847   1.84154   4.67064  -1.61438
 120        5PX        -0.08486   0.00000   0.00000   0.00000   0.00000
 121        5PY         0.00000  -0.00842   0.11873  -0.07222   0.09487
 122        5PZ         0.00000  -0.02039  -0.02610  -0.10572   0.03374
 123        6PX        -0.01686   0.00000   0.00000   0.00000   0.00000
 124        6PY         0.00000  -0.40195  -2.12166   0.69678  -1.45710
 125        6PZ         0.00000   0.30346   0.38019   1.45402  -0.61736
 126        7PX        -3.01901   0.00000   0.00000   0.00000   0.00000
 127        7PY         0.00000  -0.91648  -9.23652   1.75797  -4.58821
 128        7PZ         0.00000   3.91553  -2.02619   2.88817   0.06733
 129        8D 0        0.00000  -0.06321  -0.04733  -0.02722  -0.02632
 130        8D+1        0.02605   0.00000   0.00000   0.00000   0.00000
 131        8D-1        0.00000  -0.06343  -0.10184   0.00641  -0.06230
 132        8D+2        0.00000   0.03681  -0.05709  -0.04304   0.04206
 133        8D-2        0.06464   0.00000   0.00000   0.00000   0.00000
 134        9D 0        0.00000   0.72687   1.13710   0.51311   0.40863
 135        9D+1       -0.24133   0.00000   0.00000   0.00000   0.00000
 136        9D-1        0.00000   0.82217   0.17879   0.76114  -0.15335
 137        9D+2        0.00000  -0.02271   1.19733   0.14486   0.42178
 138        9D-2       -0.50150   0.00000   0.00000   0.00000   0.00000
                         136       137       138
     Eigenvalues --     0.00000   0.00000   0.00000
   1 1   O  1S         -0.06134   0.00008   0.00959
   2        2S         -0.29638   0.00030   0.05225
   3        3S          0.03854  -0.00025   0.00100
   4        4S          4.47241  -0.01435  -1.08919
   5        5S         13.20110  -0.00784  -6.80233
   6        6PX         0.00000   0.00000   0.00000
   7        6PY        -0.00006  -0.00507   0.00002
   8        6PZ        -0.00500   0.00007   0.00543
   9        7PX         0.00000   0.00000   0.00000
  10        7PY        -0.00024   0.01303   0.00000
  11        7PZ        -0.07802   0.00007  -0.03070
  12        8PX         0.00000   0.00000   0.00000
  13        8PY        -0.02151  -1.50015   0.00348
  14        8PZ        -1.43306  -0.00381   0.89579
  15        9PX         0.00000   0.00000   0.00000
  16        9PY        -0.00776  -1.55618  -0.00516
  17        9PZ        -1.09248  -0.00871   1.43458
  18       10D 0       -0.01631  -0.00004   0.00150
  19       10D+1        0.00000   0.00000   0.00000
  20       10D-1       -0.00005   0.00223   0.00004
  21       10D+2        0.00363  -0.00009  -0.00165
  22       10D-2        0.00000   0.00000   0.00000
  23       11D 0        0.10984   0.00037  -0.00613
  24       11D+1        0.00000   0.00000   0.00000
  25       11D-1        0.00075   0.01685  -0.00022
  26       11D+2       -0.01197   0.00031   0.00413
  27       11D-2        0.00000   0.00000   0.00000
  28       12D 0       -0.07496   0.00281  -0.20165
  29       12D+1        0.00000   0.00000   0.00000
  30       12D-1        0.00542   0.59523  -0.00080
  31       12D+2        0.32132  -0.00183  -0.04023
  32       12D-2        0.00000   0.00000   0.00000
  33       13F 0       -0.00790   0.00000  -0.00399
  34       13F+1        0.00000   0.00000   0.00000
  35       13F-1        0.00011   0.00511  -0.00002
  36       13F+2        0.01311   0.00008  -0.00221
  37       13F-2        0.00000   0.00000   0.00000
  38       13F+3        0.00000   0.00000   0.00000
  39       13F-3        0.00015   0.00512  -0.00001
  40       14F 0        0.01447  -0.00030   0.01765
  41       14F+1        0.00000   0.00000   0.00000
  42       14F-1       -0.00033  -0.03049   0.00002
  43       14F+2       -0.06256  -0.00004   0.01076
  44       14F-2        0.00000   0.00000   0.00000
  45       14F+3        0.00000   0.00000   0.00000
  46       14F-3       -0.00051  -0.01482   0.00010
  47 2   C  1S         -0.03586  -0.00045   0.00485
  48        2S         -0.20296  -0.00290   0.03386
  49        3S          0.11833  -0.00043   0.02759
  50        4S         -5.36287  -0.06505  10.00047
  51        5S         -4.28953  -0.07618  13.50066
  52        6PX         0.00000   0.00000   0.00000
  53        6PY         0.00015   0.01407  -0.00012
  54        6PZ        -0.02363   0.00024   0.00215
  55        7PX         0.00000   0.00000   0.00000
  56        7PY        -0.00597  -0.01079   0.00506
  57        7PZ         0.21787  -0.00236   0.01197
  58        8PX         0.00000   0.00000   0.00000
  59        8PY         0.01594   7.64293   0.03917
  60        8PZ        -1.54862   0.06585  -0.03994
  61        9PX         0.00000   0.00000   0.00000
  62        9PY         0.00358   5.55607   0.05734
  63        9PZ        -2.33390   0.03959  -0.23694
  64       10D 0        0.01434  -0.00009  -0.00389
  65       10D+1        0.00000   0.00000   0.00000
  66       10D-1        0.00039   0.01413  -0.00007
  67       10D+2       -0.00631   0.00011  -0.00775
  68       10D-2        0.00000   0.00000   0.00000
  69       11D 0       -0.80102   0.00231   0.13148
  70       11D+1        0.00000   0.00000   0.00000
  71       11D-1        0.00149   0.19058  -0.00345
  72       11D+2        0.20417   0.00275  -0.04879
  73       11D-2        0.00000   0.00000   0.00000
  74       12D 0       -6.03880   0.01357   0.71911
  75       12D+1        0.00000   0.00000   0.00000
  76       12D-1        0.04273   0.71609  -0.00489
  77       12D+2       -2.79139   0.01361  -0.30136
  78       12D-2        0.00000   0.00000   0.00000
  79       13F 0       -0.03679   0.00000  -0.00911
  80       13F+1        0.00000   0.00000   0.00000
  81       13F-1        0.00011  -0.01982   0.00012
  82       13F+2       -0.01600   0.00012  -0.00148
  83       13F-2        0.00000   0.00000   0.00000
  84       13F+3        0.00000   0.00000   0.00000
  85       13F-3        0.00017   0.01780  -0.00010
  86       14F 0       -0.17990   0.00233   0.06684
  87       14F+1        0.00000   0.00000   0.00000
  88       14F-1        0.01294   0.54033  -0.00133
  89       14F+2       -0.35067   0.00010   0.05375
  90       14F-2        0.00000   0.00000   0.00000
  91       14F+3        0.00000   0.00000   0.00000
  92       14F-3        0.00397   0.03471  -0.00061
  93 3   H  1S         -0.01650  -0.00852  -0.00294
  94        2S          1.03531   0.09991  -0.19647
  95        3S         -3.57293 -11.43717  -5.36623
  96        4S         -0.30353  -8.33686  -3.16935
  97        5PX         0.00000   0.00000   0.00000
  98        5PY         0.00264  -0.03038  -0.01294
  99        5PZ         0.04054  -0.00184   0.00575
 100        6PX         0.00000   0.00000   0.00000
 101        6PY        -0.42368   0.26305   0.19319
 102        6PZ        -0.17909   0.18800  -0.09032
 103        7PX         0.00000   0.00000   0.00000
 104        7PY        -2.09957   3.65923   1.57008
 105        7PZ        -3.86943  -2.53362  -0.64213
 106        8D 0        0.01088   0.00716   0.00195
 107        8D+1        0.00000   0.00000   0.00000
 108        8D-1       -0.04662  -0.02446  -0.00805
 109        8D+2        0.01116  -0.04186  -0.00399
 110        8D-2        0.00000   0.00000   0.00000
 111        9D 0       -0.30445   0.07657   0.04246
 112        9D+1        0.00000   0.00000   0.00000
 113        9D-1        0.28936   0.08248   0.11463
 114        9D+2       -0.28365   0.34697   0.11377
 115        9D-2        0.00000   0.00000   0.00000
 116 4   H  1S         -0.01695   0.00924  -0.00322
 117        2S          1.02906  -0.08930  -0.18219
 118        3S         -3.49559  11.55296  -5.22243
 119        4S         -0.29125   8.38417  -2.98769
 120        5PX         0.00000   0.00000   0.00000
 121        5PY        -0.00436  -0.03063   0.01276
 122        5PZ         0.04128   0.00174   0.00593
 123        6PX         0.00000   0.00000   0.00000
 124        6PY         0.43584   0.26861  -0.18676
 125        6PZ        -0.18830  -0.18120  -0.08859
 126        7PX         0.00000   0.00000   0.00000
 127        7PY         2.15334   3.67513  -1.53465
 128        7PZ        -3.84563   2.60039  -0.63225
 129        8D 0        0.01235  -0.00801   0.00199
 130        8D+1        0.00000   0.00000   0.00000
 131        8D-1        0.04669  -0.02555   0.00842
 132        8D+2        0.01295   0.04204  -0.00412
 133        8D-2        0.00000   0.00000   0.00000
 134        9D 0       -0.32298  -0.07457   0.04103
 135        9D+1        0.00000   0.00000   0.00000
 136        9D-1       -0.28644   0.09286  -0.11448
 137        9D+2       -0.29748  -0.34803   0.11189
 138        9D-2        0.00000   0.00000   0.00000
          Condensed to atoms (all electrons):
              1          2          3          4
     1  O    8.191266   0.351129  -0.063294  -0.063023
     2  C    0.351129   5.709567   0.207858   0.210799
     3  H   -0.063294   0.207858   0.434538  -0.029250
     4  H   -0.063023   0.210799  -0.029250   0.436189
 Mulliken atomic charges:
              1
     1  O   -0.416078
     2  C   -0.479354
     3  H    0.450148
     4  H    0.445285
 Sum of Mulliken atomic charges =   0.00000
 Mulliken charges with hydrogens summed into heavy atoms:
              1
     1  O   -0.416078
     2  C    0.416078
 Sum of Mulliken charges with hydrogens summed into heavy atoms =   0.00000
 Electronic spatial extent (au):  <R**2>=             60.7196
 Charge=              0.0000 electrons
 Dipole moment (field-independent basis, Debye):
    X=              0.0000    Y=              0.0038    Z=             -2.4396  Tot=              2.4396
 Quadrupole moment (field-independent basis, Debye-Ang):
   XX=            -11.7426   YY=            -11.6370   ZZ=            -12.2621
   XY=              0.0000   XZ=              0.0000   YZ=              0.0042
 Traceless Quadrupole moment (field-independent basis, Debye-Ang):
   XX=              0.1380   YY=              0.2436   ZZ=             -0.3815
   XY=              0.0000   XZ=              0.0000   YZ=              0.0042
 Octapole moment (field-independent basis, Debye-Ang**2):
  XXX=              0.0000  YYY=              0.0204  ZZZ=              0.3350  XYY=              0.0000
  XXY=              0.0064  XXZ=              0.5968  XZZ=              0.0000  YZZ=             -0.0055
  YYZ=             -0.6828  XYZ=              0.0000
 Hexadecapole moment (field-independent basis, Debye-Ang**3):
 XXXX=            -10.5250 YYYY=            -18.3108 ZZZZ=            -46.3305 XXXY=              0.0000
 XXXZ=              0.0000 YYYX=              0.0000 YYYZ=             -0.0294 ZZZX=              0.0000
 ZZZY=             -0.0099 XXYY=             -5.1647 XXZZ=             -9.4198 YYZZ=            -10.4740
 XXYZ=             -0.0135 YYXZ=              0.0000 ZZXY=              0.0000
 N-N= 3.128203110963D+01 E-N=-3.313080891116D+02  KE= 1.142236919431D+02
 1\1\GINC-TRAPISTA\SP\RQCISD-FC\Aug-CC-pVTZ\C1H2O1\BRUNS\20-Nov-2021\0\
 \# qcisd/aug-cc-pvtz nosymm density=current output=wfn\\h2co-wavefunct
 ion\\0,1\O,0,0.,0.,0.679252\C,0,0.,0.,-0.526911\H,0,0.,0.936614,-1.106
 62\H,0,0.,-0.936614,-1.11662\\Version=EM64L-G09RevB.01\HF=-113.9137127
 \MP2=-114.3163209\MP3=-114.3203138\MP4D=-114.330554\MP4DQ=-114.3216752
 \MP4SDQ=-114.3269525\QCISD=-114.3269574\RMSD=2.900e-09\Dipole=0.,0.001
 4981,-0.959827\Quadrupole=0.102564,0.181095,-0.283659,0.,0.,0.0031378\
 PG=CS [SG(C1H2O1)]\\@

 Writing a WFN file to GAUSSIAN.wfn.


 SUCCESS IS NEVER CERTAIN,
 FAILURE IS NEVER FINAL.
 Job cpu time:  0 days  0 hours 21 minutes 56.4 seconds.
 File lengths (MBytes):  RWF=   5787 Int=      0 D2E=      0 Chk=      2 Scr=      1
 Normal termination of Gaussian 09 at Sat Nov 20 19:01:22 2021.
