 h2co-wavefunction
GAUSSIAN            138 MOL ORBITALS    198 PRIMITIVES        4 NUCLEI
  O    1    (CENTRE  1)   0.00000000  0.00000000  1.28360026  CHARGE =  8.0
  C    2    (CENTRE  2)   0.00000000  0.00000000 -0.99571749  CHARGE =  6.0
  H    3    (CENTRE  3)   0.01889726  1.76994395 -2.09120873  CHARGE =  1.0
  H    4    (CENTRE  4)   0.00000000 -1.76994395 -2.09120873  CHARGE =  1.0
CENTRE ASSIGNMENTS    1  1  1  1  1  1  1  1  1  1  1  1  1  1  1  1  1  1  1  1
CENTRE ASSIGNMENTS    1  1  1  1  1  1  1  1  1  1  1  1  1  1  1  1  1  1  1  1
CENTRE ASSIGNMENTS    1  1  1  1  1  1  1  1  1  1  1  1  1  1  1  1  1  1  1  1
CENTRE ASSIGNMENTS    1  1  1  1  1  1  1  1  1  1  1  1  2  2  2  2  2  2  2  2
CENTRE ASSIGNMENTS    2  2  2  2  2  2  2  2  2  2  2  2  2  2  2  2  2  2  2  2
CENTRE ASSIGNMENTS    2  2  2  2  2  2  2  2  2  2  2  2  2  2  2  2  2  2  2  2
CENTRE ASSIGNMENTS    2  2  2  2  2  2  2  2  2  2  2  2  2  2  2  2  2  2  2  2
CENTRE ASSIGNMENTS    2  2  2  2  3  3  3  3  3  3  3  3  3  3  3  3  3  3  3  3
CENTRE ASSIGNMENTS    3  3  3  3  3  3  3  3  3  3  3  4  4  4  4  4  4  4  4  4
CENTRE ASSIGNMENTS    4  4  4  4  4  4  4  4  4  4  4  4  4  4  4  4  4  4
TYPE ASSIGNMENTS      1  1  1  1  1  1  1  1  1  1  1  1  1  1  1  1  2  2  2  3
TYPE ASSIGNMENTS      3  3  4  4  4  2  3  4  2  3  4  2  3  4  5  6  7  8  9 10
TYPE ASSIGNMENTS      5  6  7  8  9 10  5  6  7  8  9 10 11 12 13 17 14 15 18 19
TYPE ASSIGNMENTS     16 20 11 12 13 17 14 15 18 19 16 20  1  1  1  1  1  1  1  1
TYPE ASSIGNMENTS      1  1  1  1  1  1  1  1  2  2  2  3  3  3  4  4  4  2  3  4
TYPE ASSIGNMENTS      2  3  4  2  3  4  5  6  7  8  9 10  5  6  7  8  9 10  5  6
TYPE ASSIGNMENTS      7  8  9 10 11 12 13 17 14 15 18 19 16 20 11 12 13 17 14 15
TYPE ASSIGNMENTS     18 19 16 20  1  1  1  1  1  1  2  3  4  2  3  4  2  3  4  5
TYPE ASSIGNMENTS      6  7  8  9 10  5  6  7  8  9 10  1  1  1  1  1  1  2  3  4
TYPE ASSIGNMENTS      2  3  4  2  3  4  5  6  7  8  9 10  5  6  7  8  9 10
EXPONENTS  0.1533000D+05 0.2299000D+04 0.5224000D+03 0.1473000D+03 0.4755000D+02
EXPONENTS  0.1676000D+02 0.6207000D+01 0.5224000D+03 0.1473000D+03 0.4755000D+02
EXPONENTS  0.1676000D+02 0.6207000D+01 0.6882000D+00 0.1752000D+01 0.2384000D+00
EXPONENTS  0.7376000D-01 0.3446000D+02 0.7749000D+01 0.2280000D+01 0.3446000D+02
EXPONENTS  0.7749000D+01 0.2280000D+01 0.3446000D+02 0.7749000D+01 0.2280000D+01
EXPONENTS  0.7156000D+00 0.7156000D+00 0.7156000D+00 0.2140000D+00 0.2140000D+00
EXPONENTS  0.2140000D+00 0.5974000D-01 0.5974000D-01 0.5974000D-01 0.2314000D+01
EXPONENTS  0.2314000D+01 0.2314000D+01 0.2314000D+01 0.2314000D+01 0.2314000D+01
EXPONENTS  0.6450000D+00 0.6450000D+00 0.6450000D+00 0.6450000D+00 0.6450000D+00
EXPONENTS  0.6450000D+00 0.2140000D+00 0.2140000D+00 0.2140000D+00 0.2140000D+00
EXPONENTS  0.2140000D+00 0.2140000D+00 0.1428000D+01 0.1428000D+01 0.1428000D+01
EXPONENTS  0.1428000D+01 0.1428000D+01 0.1428000D+01 0.1428000D+01 0.1428000D+01
EXPONENTS  0.1428000D+01 0.1428000D+01 0.5000000D+00 0.5000000D+00 0.5000000D+00
EXPONENTS  0.5000000D+00 0.5000000D+00 0.5000000D+00 0.5000000D+00 0.5000000D+00
EXPONENTS  0.5000000D+00 0.5000000D+00 0.8236000D+04 0.1235000D+04 0.2808000D+03
EXPONENTS  0.7927000D+02 0.2559000D+02 0.8997000D+01 0.3319000D+01 0.2808000D+03
EXPONENTS  0.7927000D+02 0.2559000D+02 0.8997000D+01 0.3319000D+01 0.3643000D+00
EXPONENTS  0.9059000D+00 0.1285000D+00 0.4402000D-01 0.1871000D+02 0.4133000D+01
EXPONENTS  0.1200000D+01 0.1871000D+02 0.4133000D+01 0.1200000D+01 0.1871000D+02
EXPONENTS  0.4133000D+01 0.1200000D+01 0.3827000D+00 0.3827000D+00 0.3827000D+00
EXPONENTS  0.1209000D+00 0.1209000D+00 0.1209000D+00 0.3569000D-01 0.3569000D-01
EXPONENTS  0.3569000D-01 0.1097000D+01 0.1097000D+01 0.1097000D+01 0.1097000D+01
EXPONENTS  0.1097000D+01 0.1097000D+01 0.3180000D+00 0.3180000D+00 0.3180000D+00
EXPONENTS  0.3180000D+00 0.3180000D+00 0.3180000D+00 0.1000000D+00 0.1000000D+00
EXPONENTS  0.1000000D+00 0.1000000D+00 0.1000000D+00 0.1000000D+00 0.7610000D+00
EXPONENTS  0.7610000D+00 0.7610000D+00 0.7610000D+00 0.7610000D+00 0.7610000D+00
EXPONENTS  0.7610000D+00 0.7610000D+00 0.7610000D+00 0.7610000D+00 0.2680000D+00
EXPONENTS  0.2680000D+00 0.2680000D+00 0.2680000D+00 0.2680000D+00 0.2680000D+00
EXPONENTS  0.2680000D+00 0.2680000D+00 0.2680000D+00 0.2680000D+00 0.3387000D+02
EXPONENTS  0.5095000D+01 0.1159000D+01 0.3258000D+00 0.1027000D+00 0.2526000D-01
EXPONENTS  0.1407000D+01 0.1407000D+01 0.1407000D+01 0.3880000D+00 0.3880000D+00
EXPONENTS  0.3880000D+00 0.1020000D+00 0.1020000D+00 0.1020000D+00 0.1057000D+01
EXPONENTS  0.1057000D+01 0.1057000D+01 0.1057000D+01 0.1057000D+01 0.1057000D+01
EXPONENTS  0.2470000D+00 0.2470000D+00 0.2470000D+00 0.2470000D+00 0.2470000D+00
EXPONENTS  0.2470000D+00 0.3387000D+02 0.5095000D+01 0.1159000D+01 0.3258000D+00
EXPONENTS  0.1027000D+00 0.2526000D-01 0.1407000D+01 0.1407000D+01 0.1407000D+01
EXPONENTS  0.3880000D+00 0.3880000D+00 0.3880000D+00 0.1020000D+00 0.1020000D+00
EXPONENTS  0.1020000D+00 0.1057000D+01 0.1057000D+01 0.1057000D+01 0.1057000D+01
EXPONENTS  0.1057000D+01 0.1057000D+01 0.2470000D+00 0.2470000D+00 0.2470000D+00
EXPONENTS  0.2470000D+00 0.2470000D+00 0.2470000D+00
MO    1     MO 0.0        OCC NO =    2.0000076  ORB. ENERGY =    0.000000
 -0.26737128D+00 -0.49833611D+00 -0.84499891D+00 -0.12788160D+01 -0.15952222D+01
 -0.13689379D+01 -0.52423050D+00 -0.36273825D-04 -0.38919434D-03 -0.14346436D-02
 -0.41948138D-02 -0.50549546D-02  0.60892285D-02 -0.23745051D-01  0.68488069D-03
  0.15382191D-04  0.11628316D-04  0.11275555D-04  0.76064228D-05 -0.79463618D-07
 -0.77052979D-07 -0.51979485D-07  0.14654251D-01  0.14209694D-01  0.95857754D-02
 -0.48796750D-06 -0.12230907D-07  0.18801695D-02 -0.23455542D-05 -0.83370796D-08
  0.63459436D-03 -0.86562667D-07 -0.30731275D-09  0.80124143D-05  0.92701860D-03
  0.11195533D-03 -0.10389739D-02 -0.87023468D-05 -0.34434840D-05  0.31492931D-08
  0.23037996D-03  0.11955875D-03 -0.34993871D-03 -0.11832387D-05  0.39568408D-05
 -0.39810197D-07  0.63072041D-04  0.10875280D-04 -0.73947321D-04 -0.55735348D-06
  0.95279835D-06  0.32754474D-09 -0.20953683D-06 -0.10029614D-08 -0.10818778D-03
 -0.12424165D-05  0.12103821D-08  0.45197004D-03  0.18710270D-05  0.17985019D-08
 -0.12740669D-03 -0.61858009D-05  0.30605452D-06 -0.22657591D-08  0.10473958D-03
  0.32873525D-06 -0.93611158D-08 -0.17047685D-03 -0.12468988D-05  0.16158393D-07
 -0.14374190D-03  0.28556075D-06  0.27691934D+00  0.51623344D+00  0.87250485D+00
  0.13115375D+01  0.16109889D+01  0.13596178D+01  0.51125181D+00  0.32323238D-04
  0.24159618D-03  0.90290007D-03  0.25189506D-02  0.33746994D-02 -0.39848907D-02
  0.22749307D-01  0.53778772D-03  0.12371565D-03 -0.19104543D-04 -0.17911723D-04
 -0.12754214D-04  0.36180277D-06  0.33921310D-06  0.24153993D-06  0.20481224D-02
  0.19202449D-02  0.13673288D-02  0.68393970D-05 -0.19144798D-06  0.25320278D-03
  0.13396729D-05 -0.14222746D-07 -0.10224340D-03  0.42175555D-07 -0.18842344D-09
 -0.34831572D-05 -0.12228775D-02  0.23796605D-03  0.98491142D-03  0.15595742D-04
 -0.77654287D-05  0.21467500D-06  0.14491737D-03  0.20256040D-04 -0.16517341D-03
 -0.13317569D-05  0.17797511D-05  0.39855606D-07 -0.58752368D-05  0.19126609D-04
 -0.13251372D-04  0.26697404D-06  0.26311618D-06 -0.13909795D-08 -0.33375721D-05
 -0.35038544D-07  0.55126568D-03  0.76437364D-05  0.18246428D-06 -0.50466824D-04
  0.23689800D-05 -0.77348646D-07 -0.16033302D-02 -0.16578109D-04 -0.24901618D-06
 -0.45851878D-08 -0.11434218D-03 -0.25922137D-06  0.48187470D-08  0.43760487D-04
  0.10062699D-05  0.89368163D-08  0.29926604D-03  0.27281822D-05 -0.27397908D-03
 -0.49413256D-03 -0.72859817D-03 -0.22084682D-03 -0.45261182D-03 -0.11970687D-04
  0.96593067D-05  0.77431994D-03 -0.52410656D-03 -0.14051257D-05  0.21964403D-03
 -0.81674532D-04  0.74614433D-06  0.41301180D-04 -0.56724572D-04  0.22052409D-03
 -0.35212724D-03  0.13160315D-03 -0.10716287D-04  0.75736919D-05  0.87895218D-03
  0.46999563D-04 -0.12866093D-04 -0.34133471D-04 -0.55475749D-06 -0.12233552D-06
 -0.26372382D-04 -0.27403489D-03 -0.49423321D-03 -0.72874657D-03 -0.22112603D-03
 -0.45269487D-03 -0.11973217D-04  0.13922490D-05 -0.77447947D-03 -0.52420118D-03
 -0.37506656D-05 -0.21979251D-03 -0.81815430D-04  0.30522670D-06 -0.41320530D-04
 -0.56738921D-04  0.22056064D-03 -0.35214479D-03  0.13158415D-03 -0.15128524D-05
 -0.18107032D-05 -0.87903747D-03  0.47012620D-04 -0.12874879D-04 -0.34137741D-04
 -0.72372588D-06  0.15932535D-06  0.26349114D-04
MO    2     MO 0.0        OCC NO =    2.0000041  ORB. ENERGY =    0.000000
  0.42242419D+00  0.78732924D+00  0.13350274D+01  0.20204219D+01  0.25203171D+01
  0.21628071D+01  0.82824020D+00  0.49614264D-04  0.53232850D-03  0.19622631D-02
  0.57375421D-02  0.69140172D-02 -0.83286664D-02  0.38592390D-01 -0.65416869D-03
 -0.80075760D-04  0.55074836D-05  0.53404064D-05  0.36026066D-05 -0.14080919D-06
 -0.13653755D-06 -0.92107423D-07 -0.10979097D-01 -0.10646031D-01 -0.71817497D-02
  0.14690729D-05 -0.31398566D-07  0.14480419D-02 -0.31163214D-05  0.71285186D-09
  0.10563834D-03 -0.11297566D-06  0.71095130D-09  0.19496124D-05 -0.99450737D-03
 -0.60229308D-04  0.10547367D-02  0.99751224D-05 -0.68757143D-05  0.33779906D-07
  0.34853358D-03  0.53679618D-03 -0.88532976D-03  0.20100812D-05  0.21427250D-05
 -0.19591099D-07  0.34119820D-04 -0.62100318D-06 -0.33498817D-04 -0.37095629D-06
  0.12228524D-05 -0.33576686D-08  0.71701579D-07  0.13929033D-07  0.11039278D-03
 -0.28906457D-05 -0.25671911D-07 -0.23993200D-03  0.26755409D-05 -0.16115190D-07
 -0.91246358D-04  0.15875082D-05  0.16799303D-07 -0.49898125D-08  0.12863695D-03
  0.86007272D-06  0.48446989D-08 -0.16764448D-03 -0.91047063D-06  0.10124739D-07
 -0.21826639D-03 -0.54042715D-06  0.17516843D+00  0.32654925D+00  0.55191272D+00
  0.82962776D+00  0.10190491D+01  0.86004150D+00  0.32339806D+00  0.17391800D-04
  0.12999293D-03  0.48581326D-03  0.13553433D-02  0.18157864D-02 -0.21441052D-02
  0.14455143D-01  0.50691114D-03  0.93228778D-04 -0.10993100D-04 -0.10306730D-04
 -0.73390056D-05  0.21561880D-06  0.20215633D-06  0.14394735D-06  0.11518667D-02
  0.10799482D-02  0.76898749D-03  0.12558731D-05 -0.59743870D-07  0.16066310D-02
  0.11338717D-05  0.19579873D-09 -0.11212303D-04  0.34599994D-07 -0.46343423D-09
  0.51701876D-06 -0.10272222D-02 -0.30902515D-03  0.13362474D-02  0.76673106D-05
 -0.36646685D-05  0.10111935D-06  0.16431009D-04 -0.25916313D-03  0.24273212D-03
 -0.29427462D-05  0.31536402D-05 -0.81850810D-08 -0.18657246D-05  0.42012629D-04
 -0.40146904D-04  0.46850942D-06  0.40681717D-06 -0.39957845D-08 -0.11452874D-05
 -0.19519445D-07  0.34839869D-03  0.34176540D-05  0.83943518D-07 -0.22804796D-03
  0.18208057D-07 -0.25385184D-07 -0.81714812D-03 -0.62889980D-05  0.10111067D-07
  0.31294761D-08 -0.89098642D-05 -0.12900876D-05 -0.13600774D-07 -0.38656191D-04
  0.12597544D-05  0.42123458D-08  0.65385784D-04  0.11109004D-05 -0.14693713D-03
 -0.26500716D-03 -0.39075290D-03  0.11449372D-03 -0.34909222D-03 -0.74569378D-05
  0.38526901D-05  0.34594642D-03 -0.21883294D-03 -0.14662529D-05 -0.74376395D-04
  0.13097987D-03  0.43921874D-06 -0.99687671D-05 -0.83293847D-04  0.12338390D-03
 -0.13457258D-03  0.11188681D-04 -0.55689505D-05  0.36428279D-05  0.41387919D-03
  0.22915151D-05  0.25999776D-05 -0.48914927D-05  0.66825002D-06  0.53357566D-06
 -0.58172180D-05 -0.14696709D-03 -0.26506121D-03 -0.39083260D-03  0.11440332D-03
 -0.34909792D-03 -0.74593810D-05  0.15933930D-06 -0.34602260D-03 -0.21887573D-03
 -0.67246132D-06  0.74320997D-04  0.13090796D-03  0.54568649D-06  0.99671090D-05
 -0.83305051D-04  0.12341391D-03 -0.13458757D-03  0.11173668D-04  0.60099608D-07
 -0.77596939D-06 -0.41393043D-03  0.22911157D-05  0.26035131D-05 -0.48946288D-05
 -0.66167050D-06  0.59573183D-06  0.57929854D-05
MO    3     MO 0.0        OCC NO =    1.9805522  ORB. ENERGY =    0.000000
 -0.96678081D-01 -0.18019205D+00 -0.30554094D+00 -0.46240372D+00 -0.57681219D+00
 -0.49499068D+00 -0.18955513D+00 -0.16853232D-02 -0.18082412D-01 -0.66655174D-01
 -0.19489582D+00 -0.23485894D+00  0.28291248D+00  0.14940128D+00  0.75511288D-01
  0.44172021D-02  0.28117113D-03  0.27264142D-03  0.18392229D-03 -0.20191352D-05
 -0.19578819D-05 -0.13207756D-05 -0.19671218D-02 -0.19074464D-02 -0.12867521D-02
  0.78402997D-04 -0.47301907D-06 -0.80315558D-02  0.77050553D-05 -0.56618635D-07
  0.80817362D-02 -0.35133496D-06 -0.74804351D-08  0.89939077D-04 -0.14825248D-01
 -0.15849569D-01  0.30674816D-01 -0.10936133D-04 -0.60743817D-04  0.80359670D-06
 -0.42669497D-02 -0.51235665D-02  0.93905162D-02 -0.91465298D-05 -0.69668367D-05
  0.34607237D-07  0.46278774D-03  0.51063682D-03 -0.97342456D-03  0.51062774D-06
 -0.25430894D-05  0.46280455D-07 -0.65915582D-05 -0.35193085D-08 -0.89173169D-02
 -0.75454749D-07  0.11753709D-06  0.14289579D-01  0.19850129D-04 -0.10697916D-06
  0.12462372D-01 -0.19509205D-04  0.30925048D-05  0.18145188D-07 -0.35958396D-03
 -0.43002949D-05 -0.10754788D-06  0.23436641D-04 -0.49772196D-05  0.53112313D-07
  0.10553153D-02  0.11017745D-04 -0.28163150D-01 -0.52501785D-01 -0.88735169D-01
 -0.13338551D+00 -0.16384021D+00 -0.13827536D+00 -0.51995145D-01 -0.59174427D-03
 -0.44229218D-02 -0.16529469D-01 -0.46114644D-01 -0.61780909D-01  0.72951734D-01
  0.30047694D-01  0.19105288D-01  0.40775270D-03  0.29426379D-03  0.27589101D-03
  0.19645084D-03 -0.67428738D-05 -0.63218728D-05 -0.45015500D-05  0.10589051D+00
  0.99279086D-01  0.70692623D-01  0.14020047D-03 -0.35902888D-05  0.65691216D-02
  0.20744292D-04 -0.60257210D-06 -0.40016015D-02  0.91494562D-07 -0.15242972D-09
 -0.55086858D-04 -0.18335863D-01 -0.79391514D-02  0.26275015D-01  0.11099244D-03
 -0.66649580D-04  0.19224036D-05 -0.31355191D-02  0.25236650D-02  0.61185403D-03
  0.60415428D-04 -0.30290138D-04  0.10357017D-05  0.16105536D-04  0.49167829D-03
 -0.50778383D-03  0.50774075D-05  0.23279982D-05  0.26362176D-07 -0.24222747D-04
 -0.17222361D-06  0.43567438D-02  0.54762999D-04  0.10809929D-05 -0.95100977D-03
  0.17905242D-04 -0.56432204D-06 -0.12119221D-01 -0.11923662D-03 -0.21964633D-05
 -0.51589567D-07 -0.31722703D-04  0.10902283D-04  0.18983674D-06  0.44137366D-03
 -0.43128927D-05 -0.35068041D-07 -0.34620555D-03 -0.84067384D-05  0.64710964D-02
  0.11670889D-01  0.17208719D-01 -0.11961110D-04 -0.58598294D-02 -0.79644372D-04
 -0.25355215D-04 -0.27825197D-02  0.22522244D-02  0.49568557D-04  0.41855162D-02
 -0.40829425D-02  0.12323186D-04  0.55903165D-03 -0.14797453D-02  0.53289049D-03
 -0.10804941D-02  0.54760359D-03 -0.37946966D-04  0.16605476D-04  0.20688106D-02
  0.34598572D-03 -0.79565547D-04 -0.26642017D-03 -0.12436065D-04  0.10512814D-04
  0.94648005D-03  0.64720183D-02  0.11672551D-01  0.17211170D-01 -0.13825154D-04
 -0.58613756D-02 -0.79660669D-04  0.43535855D-05  0.27830096D-02  0.22527042D-02
  0.48782822D-05 -0.41872615D-02 -0.40839209D-02  0.63544071D-05 -0.55931254D-03
 -0.14799640D-02  0.53308446D-03 -0.10808701D-02  0.54778563D-03  0.34917594D-05
 -0.54841997D-05 -0.20690390D-02  0.34614284D-03 -0.79703853D-04 -0.26643899D-03
  0.33467978D-05  0.40715403D-06 -0.94668711D-03
MO    4     MO 0.0        OCC NO =    1.9668845  ORB. ENERGY =    0.000000
  0.36138713D-01  0.67356618D-01  0.11421261D+00  0.17284864D+00  0.21561506D+00
  0.18502980D+00  0.70856582D-01  0.69153479D-03  0.74197145D-02  0.27350465D-01
  0.79971155D-01  0.96369130D-01 -0.11608683D+00 -0.65931815D-01 -0.54266826D-01
 -0.31083866D-02  0.23013889D-02  0.22315731D-02  0.15054060D-02 -0.33425696D-03
 -0.32411682D-03 -0.21864729D-03 -0.67831099D+00 -0.65773349D+00 -0.44370312D+00
  0.56040708D-03 -0.79057291D-04 -0.15219144D+00  0.89268822D-04 -0.12294845D-04
 -0.15796493D-01  0.21443806D-05 -0.39095547D-06 -0.10786837D-03 -0.19553516D-01
 -0.19332351D-01  0.38885867D-01  0.23633751D-05 -0.26323102D-03  0.29988065D-04
 -0.35697510D-02 -0.40098667D-02  0.75796177D-02 -0.47028246D-05 -0.79319099D-04
  0.84267997D-05  0.23143767D-06 -0.13822950D-03  0.13799806D-03 -0.14822480D-05
 -0.85935932D-05  0.74721616D-06 -0.21290502D-04  0.36228078D-05 -0.60199504D-02
 -0.21212282D-04  0.56933314D-06  0.58924786D-02  0.85083787D-04 -0.11437757D-04
  0.12167373D-01  0.66982031D-04  0.36138702D-05  0.32647118D-06 -0.14471246D-03
 -0.11172782D-04 -0.31672219D-06 -0.20126585D-03  0.33117100D-06 -0.66269133D-06
  0.63540322D-03  0.89391060D-05 -0.49526440D-01 -0.92327261D-01 -0.15604565D+00
 -0.23456572D+00 -0.28812197D+00 -0.24316478D+00 -0.91436307D-01 -0.12030800D-02
 -0.89922777D-02 -0.33606195D-01 -0.93756051D-01 -0.12560726D+00  0.14831875D+00
  0.64388487D-01  0.45907162D-01  0.11155436D-02  0.14692205D-02  0.13774876D-02
  0.98085326D-03 -0.14915124D-03 -0.13983877D-03 -0.99573536D-04 -0.11359694D+00
 -0.10650435D+00 -0.75837441D-01  0.38995884D-03 -0.38891921D-04 -0.31727904D-01
  0.46806723D-04 -0.37798931D-05 -0.56227180D-02  0.18509481D-07  0.72843631D-07
 -0.49161369D-05 -0.17576691D-01  0.14286463D-01  0.32902275D-02  0.34010577D-03
 -0.84212002D-04  0.30977680D-07 -0.45564154D-02  0.49124123D-02 -0.35599687D-03
  0.10106253D-03 -0.40808634D-04  0.36185423D-05 -0.96004996D-04  0.14019393D-04
  0.81985603D-04  0.11756507D-05 -0.38766879D-05  0.47836659D-06 -0.36270140D-04
  0.73669483D-06  0.42746532D-02  0.64382433D-04  0.27644639D-05  0.63377388D-03
  0.44427988D-04 -0.49745484D-05 -0.13457734D-01 -0.15042636D-03 -0.32309642D-05
  0.61316135D-08  0.28225748D-03  0.16675882D-04  0.42057565D-06  0.64609629D-03
 -0.69829897D-05 -0.43897049D-06 -0.14928687D-02 -0.22821836D-04  0.24350441D-01
  0.43917023D-01  0.64755625D-01  0.26890989D-01 -0.40414702D-02 -0.92728439D-04
 -0.16115622D-03 -0.17689855D-01  0.88005960D-02  0.15568148D-04  0.20256219D-03
 -0.19447829D-02  0.11973531D-04  0.13552454D-02 -0.50720081D-03 -0.16302661D-02
  0.20344653D-02 -0.40419918D-03  0.60743302D-04 -0.22195601D-04 -0.29307595D-02
  0.28787549D-03 -0.13065214D-03 -0.15722334D-03 -0.13225925D-04  0.15254142D-05
  0.55700447D-03  0.24366311D-01  0.43945646D-01  0.64797829D-01  0.26906315D-01
 -0.40457274D-02 -0.92576292D-04  0.27699011D-04  0.17700352D-01  0.88109326D-02
  0.13375826D-04 -0.20692737D-03 -0.19443551D-02 -0.24913193D-05 -0.13562196D-02
 -0.50716298D-03 -0.16318580D-02  0.20342000D-02 -0.40234199D-03  0.17502473D-04
  0.90789876D-05  0.29362403D-02  0.28818115D-03 -0.13107767D-03 -0.15710349D-03
  0.42852853D-05 -0.44219707D-05 -0.55750375D-03
MO    5     MO 0.0        OCC NO =    1.9653380  ORB. ENERGY =    0.000000
  0.99050934D-05  0.18461466D-04  0.31304009D-04  0.47375289D-04  0.59096939D-04
  0.50713966D-04  0.19420755D-04  0.19431933D-06  0.20849189D-05  0.76854038D-05
  0.22471670D-04  0.27079455D-04 -0.32620073D-04 -0.18819251D-04 -0.17095303D-04
 -0.12022566D-05  0.71110525D-02  0.68953289D-02  0.46515481D-02  0.13319445D+01
  0.12915381D+01  0.87126398D+00 -0.27585196D-03 -0.26748361D-03 -0.18044286D-03
  0.16806125D-02  0.31478810D+00 -0.62247136D-04  0.26883819D-03  0.50354683D-01
 -0.65820086D-05  0.83838412D-05  0.15703636D-02 -0.34741801D-07 -0.82253079D-05
 -0.82267686D-05  0.16452077D-04 -0.16526242D-04 -0.54054850D-03 -0.10124451D+00
 -0.15246026D-05 -0.18895730D-05  0.34141756D-05  0.94069523D-05 -0.15220824D-03
 -0.28507902D-01  0.78046508D-07 -0.12682704D-06  0.48780532D-07  0.12740152D-04
 -0.14057574D-04 -0.26328087D-02  0.46913886D-06 -0.12965577D-01 -0.26533022D-05
 -0.20860289D-03  0.88290043D-04  0.30023080D-05  0.20719548D-03  0.38808442D-01
  0.49575987D-05  0.55387751D-04  0.22807905D-05 -0.97103335D-03 -0.13332224D-06
 -0.20114248D-04  0.42694864D-03 -0.82399375D-07  0.13271876D-04  0.24861514D-02
  0.48236609D-06 -0.20988739D-04 -0.14813351D-04 -0.27615071D-04 -0.46673232D-04
 -0.70158573D-04 -0.86177241D-04 -0.72730551D-04 -0.27348586D-04 -0.35707582D-06
 -0.26689206D-05 -0.99743655D-05 -0.27826927D-04 -0.37280410D-04  0.44021213D-04
  0.18894814D-04  0.12649557D-04  0.28591349D-06  0.21678563D-02  0.20325031D-02
  0.14472633D-02  0.40602603D+00  0.38067521D+00  0.27106343D+00 -0.11984048D-05
 -0.11235807D-05 -0.80005637D-06  0.56127873D-03  0.10512291D+00 -0.20684348D-05
  0.33483025D-04  0.62696545D-02 -0.12033015D-05 -0.17722106D-05 -0.33198437D-03
 -0.39689409D-09 -0.45334967D-05  0.15540834D-05  0.29794132D-05  0.19553429D-03
  0.15475987D-03  0.28992658D-01 -0.81804634D-06  0.99615930D-06 -0.17811296D-06
  0.77654539D-04 -0.20277584D-04 -0.37970994D-02 -0.41609045D-07  0.30003354D-07
  0.11605691D-07 -0.69773884D-05 -0.47282876D-05 -0.88550156D-03 -0.29219890D-04
 -0.38801593D-02  0.18209834D-05 -0.36982168D-05 -0.54712602D-02 -0.71315562D-06
  0.91357887D-04  0.17111738D-01 -0.47497947D-05 -0.87254009D-04 -0.16803275D-05
 -0.38114036D-03  0.42881373D-07 -0.27393766D-05 -0.31462495D-03 -0.44212315D-07
  0.77803590D-05  0.14580460D-02 -0.84431805D-07 -0.41046335D-04  0.18329736D-01
  0.33058434D-01  0.48744641D-01  0.19330659D-01 -0.15390203D-02  0.34573002D-03
 -0.14482242D-03 -0.11325121D-01  0.13691896D-01  0.11218267D-04  0.55209786D-02
  0.18026767D-02  0.13880973D-04  0.47273778D-03  0.61273006D-03 -0.18585234D-02
 -0.14347222D-02  0.32932456D-02  0.33869980D-04 -0.11753976D-03 -0.83046830D-02
  0.31019467D-03 -0.46642944D-03  0.15623477D-03 -0.14885925D-04  0.83072779D-05
  0.88661010D-03 -0.18318099D-01 -0.33037447D-01 -0.48713696D-01 -0.19316343D-01
  0.15367266D-02 -0.34579302D-03  0.23926339D-04 -0.11317910D-01 -0.13688921D-01
  0.47733212D-04  0.55210490D-02 -0.18038321D-02 -0.88360649D-05  0.47205371D-03
 -0.61306575D-03  0.18580120D-02  0.14355404D-02 -0.32935524D-02  0.24825368D-04
  0.28876996D-04 -0.83044908D-02 -0.31001512D-03  0.46639722D-03 -0.15638210D-03
  0.17008755D-05  0.11553438D-05  0.88630544D-03
MO    6     MO 0.0        OCC NO =    1.9601105  ORB. ENERGY =    0.000000
  0.19856318D-02  0.37008912D-02  0.62753812D-02  0.94971221D-02  0.11846911D-01
  0.10166412D-01  0.38931958D-02 -0.31450045D-04 -0.33743835D-03 -0.12438613D-02
 -0.36369774D-02 -0.43827346D-02  0.52794683D-02  0.76292028D-02  0.28687946D-01
  0.63073250D-02 -0.31238914D-03 -0.30291238D-03 -0.20434290D-03  0.24325292D-03
  0.23587350D-03  0.15911887D-03  0.13821582D+01  0.13402285D+01  0.90411024D+00
 -0.64498926D-04  0.57304738D-04  0.31968776D+00 -0.29028783D-04  0.10074776D-04
  0.38147205D-01 -0.79232638D-06  0.32482137D-06  0.15786062D-03  0.41980143D-01
  0.43770368D-01 -0.85750511D-01  0.19104819D-04 -0.88256493D-04 -0.74067402D-05
  0.10428418D-01  0.11786009D-01 -0.22214427D-01  0.14493209D-04 -0.23199567D-04
 -0.18168279D-05  0.26526736D-03  0.51080533D-03 -0.77607269D-03  0.26227007D-05
  0.73977251D-05 -0.31058757D-06 -0.19057659D-04 -0.11947005D-05  0.15668745D-01
 -0.13356354D-04  0.14520779D-05 -0.15979771D-01  0.70529329D-04  0.21320237D-05
 -0.31026462D-01 -0.16064018D-03  0.30426551D-06 -0.87257619D-07  0.20166229D-02
  0.20929411D-06 -0.70535326D-08 -0.24750525D-02 -0.11220906D-05  0.26882639D-06
 -0.35748162D-02 -0.11744561D-04  0.52038983D-02  0.97011148D-02  0.16396206D-01
  0.24646555D-01  0.30273879D-01  0.25550086D-01  0.96074994D-02  0.88717635D-04
  0.66310936D-03  0.24781911D-02  0.69137672D-02  0.92625420D-02 -0.10937335D-01
 -0.62435406D-02  0.16289376D-01  0.10831167D-04  0.93698324D-03  0.87848135D-03
  0.62553105D-03 -0.35080711D-04 -0.32890396D-04 -0.23419922D-04 -0.52341558D+00
 -0.49073537D+00 -0.34943282D+00  0.17355896D-03 -0.79589434D-05 -0.10881589D+00
  0.33171651D-04 -0.33213431D-05 -0.86475004D-02  0.90108899D-07 -0.85287664D-07
 -0.40772694D-04  0.83615562D-02  0.28583913D-01 -0.36945469D-01  0.21585383D-03
 -0.95978307D-04  0.18599449D-04  0.20227660D-03  0.24875388D-02 -0.26898154D-02
  0.24384579D-04 -0.11498260D-04  0.42823112D-05 -0.15403678D-03  0.12822883D-03
  0.25807955D-04  0.30109907D-05 -0.37886636D-05  0.43382968D-06  0.51579900D-05
 -0.76755107D-06 -0.58760918D-02 -0.14425270D-04 -0.35843154D-06  0.64645690D-02
 -0.10486999D-05  0.26610847D-05  0.11163706D-01  0.50171369D-04  0.90864036D-06
 -0.73570104D-07  0.76947205D-03 -0.39616174D-05  0.42453213D-07 -0.19280680D-03
  0.12356963D-05  0.17825710D-06 -0.21156093D-02 -0.20527526D-04  0.18239869D-01
  0.32896355D-01  0.48505656D-01  0.30882860D-01  0.75385337D-03  0.11770416D-04
 -0.17184264D-03 -0.17427602D-01  0.35824098D-02 -0.38314484D-04 -0.57517443D-02
  0.75595259D-03  0.88107643D-06  0.33750670D-03 -0.24432525D-03 -0.14820522D-02
  0.52629326D-02 -0.37808804D-02  0.12900958D-03 -0.37180907D-04 -0.45467254D-02
 -0.54888303D-03  0.43120222D-05  0.54457101D-03  0.12634444D-04  0.87396417D-06
  0.47478298D-04  0.18248646D-01  0.32912184D-01  0.48528996D-01  0.30896511D-01
  0.75052850D-03  0.11623831D-04  0.14223746D-04  0.17433176D-01  0.35844757D-02
  0.23097605D-04  0.57522962D-02  0.75554062D-03 -0.27236538D-05 -0.33840571D-03
 -0.24484814D-03 -0.14824348D-02  0.52643953D-02 -0.37819605D-02  0.15031524D-04
  0.11370757D-04  0.45469049D-02 -0.54905051D-03  0.43463468D-05  0.54470416D-03
 -0.82161806D-06  0.36761310D-06 -0.47306674D-04
MO    7     MO 0.0        OCC NO =    1.9567304  ORB. ENERGY =    0.000000
 -0.18635987D-05 -0.34734416D-05 -0.58897083D-05 -0.89134473D-05 -0.11118823D-04
 -0.95416042D-05 -0.36539275D-05 -0.27239332D-07 -0.29226016D-06 -0.10773260D-05
 -0.31500380D-05 -0.37959489D-05  0.45726227D-05  0.20359592D-05 -0.13472097D-05
 -0.77459769D-06  0.62696337D-02  0.60794357D-02  0.41011514D-02  0.11744894D+01
  0.11388596D+01  0.76826797D+00 -0.15776268D-03 -0.15297673D-03 -0.10319720D-03
  0.14805245D-02  0.27734685D+00 -0.36756096D-04  0.26752711D-03  0.50115135D-01
 -0.45663879D-05  0.90827556D-05  0.17014387D-02 -0.27244727D-07 -0.49073418D-05
 -0.48202139D-05  0.97275557D-05 -0.49537494D-04 -0.62342974D-04 -0.11683901D-01
 -0.13252365D-05 -0.13621638D-05  0.26874003D-05 -0.23065336D-04 -0.15594584D-04
 -0.29226573D-02 -0.33330342D-07 -0.67583290D-07  0.10091363D-06  0.17645834D-05
 -0.34746157D-05 -0.65071395D-03  0.47021681D-04 -0.41810980D-02 -0.18352224D-05
 -0.16099610D-03  0.88068828D-02  0.21272288D-05  0.19931054D-04  0.37364112D-02
  0.33784385D-05  0.65364306D-04 -0.18958702D-05 -0.30790800D-03 -0.27839451D-06
 -0.11395996D-05 -0.35506294D-03  0.34515167D-06  0.68272101D-05  0.12787869D-02
  0.49003187D-06 -0.29131115D-08  0.17399037D-05  0.32435310D-05  0.54820092D-05
  0.82404823D-05  0.10121957D-04  0.85425743D-05  0.32122310D-05  0.45609409D-07
  0.34090207D-06  0.12740289D-05  0.35543422D-05  0.47618386D-05 -0.56228435D-05
 -0.17280309D-05 -0.30354579D-05 -0.22682357D-07 -0.19289468D-02 -0.18085102D-02
 -0.12877670D-02 -0.36130870D+00 -0.33874988D+00 -0.24121009D+00  0.73497446D-04
  0.68908528D-04  0.49066977D-04 -0.52894978D-03 -0.99079292D-01  0.15566478D-04
 -0.13725404D-03 -0.25710170D-01  0.12738287D-05 -0.27036853D-05 -0.50646349D-03
  0.80813784D-08 -0.30638977D-05 -0.24656061D-05  0.55295038D-05 -0.47863359D-03
  0.59123754D-03  0.11075299D+00 -0.74150742D-06  0.13291695D-06  0.60859047D-06
 -0.15425806D-03  0.16997725D-03  0.31841472D-01 -0.61921134D-07  0.36027073D-07
  0.25894062D-07 -0.16678235D-04  0.18204349D-04  0.34100520D-02  0.14625503D-04
 -0.36571194D-02  0.52116539D-06 -0.87820983D-04  0.27389707D-02 -0.49608385D-06
  0.43944473D-04  0.82323876D-02 -0.10674123D-05  0.95395321D-04  0.42886550D-05
 -0.58784978D-03 -0.10823478D-06 -0.17992534D-04  0.80331573D-03  0.18933118D-06
  0.51265686D-05  0.96023362D-03  0.13537316D-06  0.35411731D-04 -0.34616240D-01
 -0.62431815D-01 -0.92055675D-01 -0.52468661D-01  0.10540768D-01  0.43275926D-03
  0.18921405D-03  0.14959029D-01 -0.10589067D-01 -0.15071680D-04 -0.32077529D-02
  0.19916744D-02 -0.37196530D-04 -0.34748923D-02  0.16652401D-02  0.70842501D-03
 -0.15518013D-02  0.84337633D-03 -0.71116274D-04  0.30071487D-04  0.31502080D-02
  0.48894241D-05  0.35306750D-03 -0.35795692D-03  0.31470464D-05 -0.96306696D-06
  0.45157163D-04  0.34608520D-01  0.62417891D-01  0.92035144D-01  0.52452443D-01
 -0.10543334D-01 -0.43278914D-03 -0.29510850D-04  0.14953567D-01  0.10588221D-01
 -0.19187105D-04 -0.32102227D-02 -0.19921243D-02  0.96747520D-07 -0.34748422D-02
 -0.16651825D-02 -0.70796668D-03  0.15500532D-02 -0.84208651D-03 -0.22853190D-04
  0.35587567D-05  0.31482830D-02 -0.48050977D-05 -0.35302722D-03  0.35783232D-03
 -0.42882790D-05  0.14456265D-05  0.45242678D-04
MO    8     MO 0.0        OCC NO =    1.9226299  ORB. ENERGY =    0.000000
 -0.59229979D-04 -0.11039494D-03 -0.18719014D-03 -0.28329237D-03 -0.35338490D-03
 -0.30325682D-03 -0.11613125D-03 -0.11769594D-05 -0.12628001D-04 -0.46549191D-04
 -0.13610710D-03 -0.16401568D-03  0.19757427D-03  0.11207157D-03  0.79519443D-04
 -0.77877910D-04  0.13795584D+01  0.13377076D+01  0.90240963D+00 -0.73644993D-02
 -0.71410870D-02 -0.48173351D-02  0.34819871D-03  0.33763562D-03  0.22776699D-03
  0.33247751D+00 -0.17748650D-02  0.83928111D-04  0.48482190D-01 -0.25881196D-03
 -0.45603993D-04  0.88704705D-03 -0.47354625D-05  0.60882140D-05  0.82135657D-05
  0.37908944D-04 -0.46122510D-04  0.20572132D-06 -0.12443776D+00  0.66428905D-03
  0.51760375D-05 -0.68395066D-05  0.16634691D-05 -0.20320515D-06 -0.37373687D-01
  0.19951095D-03 -0.73257363D-05 -0.77961865D-06  0.81053550D-05  0.72463906D-07
 -0.23613880D-02  0.12605830D-04 -0.61336313D-02  0.11855167D-03 -0.18271592D-05
 -0.22206920D-01 -0.13887932D-03  0.20072067D-04  0.40607814D-01 -0.21677569D-03
 -0.14590589D-04 -0.35895296D-06 -0.36202403D-03  0.82627293D-05 -0.49040116D-05
 -0.15477596D-02 -0.10728416D-04  0.10992376D-04  0.26338317D-02 -0.14059772D-04
  0.37196589D-05 -0.47623104D-07  0.16644025D-03  0.31027816D-03  0.52441236D-03
  0.78828958D-03  0.96827256D-03  0.81718788D-03  0.30728398D-03  0.41257567D-05
  0.30837476D-04  0.11524669D-03  0.32152031D-03  0.43074858D-03 -0.50863375D-03
 -0.22107133D-03 -0.40523575D-03  0.33726214D-05  0.41538779D+00  0.38945246D+00
  0.27731335D+00 -0.22174807D-02 -0.20790292D-02 -0.14803926D-02  0.87727519D-03
  0.82250125D-03  0.58566989D-03  0.10663988D+00 -0.56928249D-03  0.18222797D-03
  0.12609952D-01 -0.67315690D-04  0.64445594D-04  0.39106019D-04 -0.20865706D-06