 h2co-wavefunction
GAUSSIAN            138 MOL ORBITALS    198 PRIMITIVES        4 NUCLEI
  O    1    (CENTRE  1)   0.01889726  0.00000000  1.28360026  CHARGE =  8.0
  C    2    (CENTRE  2)   0.00000000  0.00000000 -0.99571749  CHARGE =  6.0
  H    3    (CENTRE  3)   0.00000000  1.76994395 -2.09120873  CHARGE =  1.0
  H    4    (CENTRE  4)   0.00000000 -1.76994395 -2.09120873  CHARGE =  1.0
CENTRE ASSIGNMENTS    1  1  1  1  1  1  1  1  1  1  1  1  1  1  1  1  1  1  1  1
CENTRE ASSIGNMENTS    1  1  1  1  1  1  1  1  1  1  1  1  1  1  1  1  1  1  1  1
CENTRE ASSIGNMENTS    1  1  1  1  1  1  1  1  1  1  1  1  1  1  1  1  1  1  1  1
CENTRE ASSIGNMENTS    1  1  1  1  1  1  1  1  1  1  1  1  2  2  2  2  2  2  2  2
CENTRE ASSIGNMENTS    2  2  2  2  2  2  2  2  2  2  2  2  2  2  2  2  2  2  2  2
CENTRE ASSIGNMENTS    2  2  2  2  2  2  2  2  2  2  2  2  2  2  2  2  2  2  2  2
CENTRE ASSIGNMENTS    2  2  2  2  2  2  2  2  2  2  2  2  2  2  2  2  2  2  2  2
CENTRE ASSIGNMENTS    2  2  2  2  3  3  3  3  3  3  3  3  3  3  3  3  3  3  3  3
CENTRE ASSIGNMENTS    3  3  3  3  3  3  3  3  3  3  3  4  4  4  4  4  4  4  4  4
CENTRE ASSIGNMENTS    4  4  4  4  4  4  4  4  4  4  4  4  4  4  4  4  4  4
TYPE ASSIGNMENTS      1  1  1  1  1  1  1  1  1  1  1  1  1  1  1  1  2  2  2  3
TYPE ASSIGNMENTS      3  3  4  4  4  2  3  4  2  3  4  2  3  4  5  6  7  8  9 10
TYPE ASSIGNMENTS      5  6  7  8  9 10  5  6  7  8  9 10 11 12 13 17 14 15 18 19
TYPE ASSIGNMENTS     16 20 11 12 13 17 14 15 18 19 16 20  1  1  1  1  1  1  1  1
TYPE ASSIGNMENTS      1  1  1  1  1  1  1  1  2  2  2  3  3  3  4  4  4  2  3  4
TYPE ASSIGNMENTS      2  3  4  2  3  4  5  6  7  8  9 10  5  6  7  8  9 10  5  6
TYPE ASSIGNMENTS      7  8  9 10 11 12 13 17 14 15 18 19 16 20 11 12 13 17 14 15
TYPE ASSIGNMENTS     18 19 16 20  1  1  1  1  1  1  2  3  4  2  3  4  2  3  4  5
TYPE ASSIGNMENTS      6  7  8  9 10  5  6  7  8  9 10  1  1  1  1  1  1  2  3  4
TYPE ASSIGNMENTS      2  3  4  2  3  4  5  6  7  8  9 10  5  6  7  8  9 10
EXPONENTS  0.1533000D+05 0.2299000D+04 0.5224000D+03 0.1473000D+03 0.4755000D+02
EXPONENTS  0.1676000D+02 0.6207000D+01 0.5224000D+03 0.1473000D+03 0.4755000D+02
EXPONENTS  0.1676000D+02 0.6207000D+01 0.6882000D+00 0.1752000D+01 0.2384000D+00
EXPONENTS  0.7376000D-01 0.3446000D+02 0.7749000D+01 0.2280000D+01 0.3446000D+02
EXPONENTS  0.7749000D+01 0.2280000D+01 0.3446000D+02 0.7749000D+01 0.2280000D+01
EXPONENTS  0.7156000D+00 0.7156000D+00 0.7156000D+00 0.2140000D+00 0.2140000D+00
EXPONENTS  0.2140000D+00 0.5974000D-01 0.5974000D-01 0.5974000D-01 0.2314000D+01
EXPONENTS  0.2314000D+01 0.2314000D+01 0.2314000D+01 0.2314000D+01 0.2314000D+01
EXPONENTS  0.6450000D+00 0.6450000D+00 0.6450000D+00 0.6450000D+00 0.6450000D+00
EXPONENTS  0.6450000D+00 0.2140000D+00 0.2140000D+00 0.2140000D+00 0.2140000D+00
EXPONENTS  0.2140000D+00 0.2140000D+00 0.1428000D+01 0.1428000D+01 0.1428000D+01
EXPONENTS  0.1428000D+01 0.1428000D+01 0.1428000D+01 0.1428000D+01 0.1428000D+01
EXPONENTS  0.1428000D+01 0.1428000D+01 0.5000000D+00 0.5000000D+00 0.5000000D+00
EXPONENTS  0.5000000D+00 0.5000000D+00 0.5000000D+00 0.5000000D+00 0.5000000D+00
EXPONENTS  0.5000000D+00 0.5000000D+00 0.8236000D+04 0.1235000D+04 0.2808000D+03
EXPONENTS  0.7927000D+02 0.2559000D+02 0.8997000D+01 0.3319000D+01 0.2808000D+03
EXPONENTS  0.7927000D+02 0.2559000D+02 0.8997000D+01 0.3319000D+01 0.3643000D+00
EXPONENTS  0.9059000D+00 0.1285000D+00 0.4402000D-01 0.1871000D+02 0.4133000D+01
EXPONENTS  0.1200000D+01 0.1871000D+02 0.4133000D+01 0.1200000D+01 0.1871000D+02
EXPONENTS  0.4133000D+01 0.1200000D+01 0.3827000D+00 0.3827000D+00 0.3827000D+00
EXPONENTS  0.1209000D+00 0.1209000D+00 0.1209000D+00 0.3569000D-01 0.3569000D-01
EXPONENTS  0.3569000D-01 0.1097000D+01 0.1097000D+01 0.1097000D+01 0.1097000D+01
EXPONENTS  0.1097000D+01 0.1097000D+01 0.3180000D+00 0.3180000D+00 0.3180000D+00
EXPONENTS  0.3180000D+00 0.3180000D+00 0.3180000D+00 0.1000000D+00 0.1000000D+00
EXPONENTS  0.1000000D+00 0.1000000D+00 0.1000000D+00 0.1000000D+00 0.7610000D+00
EXPONENTS  0.7610000D+00 0.7610000D+00 0.7610000D+00 0.7610000D+00 0.7610000D+00
EXPONENTS  0.7610000D+00 0.7610000D+00 0.7610000D+00 0.7610000D+00 0.2680000D+00
EXPONENTS  0.2680000D+00 0.2680000D+00 0.2680000D+00 0.2680000D+00 0.2680000D+00
EXPONENTS  0.2680000D+00 0.2680000D+00 0.2680000D+00 0.2680000D+00 0.3387000D+02
EXPONENTS  0.5095000D+01 0.1159000D+01 0.3258000D+00 0.1027000D+00 0.2526000D-01
EXPONENTS  0.1407000D+01 0.1407000D+01 0.1407000D+01 0.3880000D+00 0.3880000D+00
EXPONENTS  0.3880000D+00 0.1020000D+00 0.1020000D+00 0.1020000D+00 0.1057000D+01
EXPONENTS  0.1057000D+01 0.1057000D+01 0.1057000D+01 0.1057000D+01 0.1057000D+01
EXPONENTS  0.2470000D+00 0.2470000D+00 0.2470000D+00 0.2470000D+00 0.2470000D+00
EXPONENTS  0.2470000D+00 0.3387000D+02 0.5095000D+01 0.1159000D+01 0.3258000D+00
EXPONENTS  0.1027000D+00 0.2526000D-01 0.1407000D+01 0.1407000D+01 0.1407000D+01
EXPONENTS  0.3880000D+00 0.3880000D+00 0.3880000D+00 0.1020000D+00 0.1020000D+00
EXPONENTS  0.1020000D+00 0.1057000D+01 0.1057000D+01 0.1057000D+01 0.1057000D+01
EXPONENTS  0.1057000D+01 0.1057000D+01 0.2470000D+00 0.2470000D+00 0.2470000D+00
EXPONENTS  0.2470000D+00 0.2470000D+00 0.2470000D+00
MO    1     MO 0.0        OCC NO =    2.0000076  ORB. ENERGY =    0.000000
 -0.26738092D+00 -0.49835408D+00 -0.84502937D+00 -0.12788621D+01 -0.15952797D+01
 -0.13689873D+01 -0.52424940D+00 -0.36275911D-04 -0.38921672D-03 -0.14347261D-02
 -0.41950550D-02 -0.50552453D-02  0.60895787D-02 -0.23745782D-01  0.68508027D-03
  0.15418085D-04  0.13265989D-03  0.12863547D-03  0.86776729D-04  0.15118412D-12
  0.14659775D-12  0.98893973D-13  0.14652910D-01  0.14208393D-01  0.95848983D-02
  0.15114611D-04  0.31177886D-13  0.18796315D-02  0.30060075D-05 -0.61520530D-13
  0.63445502D-03 -0.16787387D-07  0.12841055D-14  0.80087172D-05  0.92681871D-03
  0.11187549D-03 -0.10386942D-02 -0.28432721D-14 -0.35903179D-04 -0.45658743D-13
  0.23034718D-03  0.11949157D-03 -0.34983875D-03  0.15047503D-14 -0.58171641D-05
  0.22284092D-13  0.63062912D-04  0.10869082D-04 -0.73931994D-04 -0.75503627D-15
 -0.13559253D-05  0.25832528D-13  0.35432654D-05 -0.17180923D-14 -0.10798459D-03
 -0.22521521D-05 -0.98805434D-15  0.45162428D-03 -0.83776442D-05  0.61423311D-14
 -0.12767050D-03 -0.65512559D-14 -0.11190350D-05  0.18501021D-14  0.10471848D-03
 -0.87563584D-06  0.60201608D-14 -0.17044495D-03  0.42327408D-05 -0.11570467D-13
 -0.14371049D-03  0.18999736D-14  0.27691539D+00  0.51622606D+00  0.87249238D+00
  0.13115188D+01  0.16109659D+01  0.13595984D+01  0.51124450D+00  0.32322940D-04
  0.24159395D-03  0.90289175D-03  0.25189274D-02  0.33746682D-02 -0.39848539D-02
  0.22748948D-01  0.53767262D-03  0.12369894D-03 -0.13844984D-05 -0.12980553D-05
 -0.92429267D-06 -0.72694491D-14 -0.68155706D-14 -0.48530923D-14  0.20484289D-02
  0.19205323D-02  0.13675334D-02  0.86727146D-05  0.20226125D-12  0.25290472D-03
  0.43989082D-06  0.22629527D-12 -0.10225591D-03  0.11660763D-07  0.38190291D-14
 -0.34830842D-05 -0.12227671D-02  0.23821157D-03  0.98455555D-03  0.45834206D-15
  0.29135851D-04 -0.52631252D-13  0.14491859D-03  0.20300351D-04 -0.16521894D-03
  0.13845227D-15 -0.34328336D-05 -0.97170304D-13 -0.58728680D-05  0.19122128D-04
 -0.13249260D-04  0.16049659D-15  0.13059713D-06 -0.15844222D-13 -0.36251080D-05
  0.12521383D-16  0.55110479D-03 -0.59423661D-05 -0.24399621D-13 -0.50047123D-04
  0.16817690D-04  0.24362057D-13 -0.16032673D-02 -0.15206658D-14  0.12333377D-06
 -0.66088502D-14 -0.11433780D-03  0.22323648D-05 -0.14820435D-13  0.43741068D-04
 -0.26023661D-05  0.34646986D-13  0.29927234D-03  0.18070729D-14 -0.27402561D-03
 -0.49421648D-03 -0.72872191D-03 -0.22106931D-03 -0.45263879D-03 -0.11970999D-04
  0.96659425D-06  0.77444741D-03 -0.52416419D-03 -0.31559557D-05  0.21978641D-03
 -0.81800025D-04  0.34989910D-07  0.41317744D-04 -0.56730561D-04  0.22056872D-03
 -0.35214995D-03  0.13158123D-03  0.28641508D-05  0.12941206D-05  0.87897369D-03
  0.47009418D-04 -0.12875453D-04 -0.34133965D-04 -0.13743978D-06 -0.13277394D-05
 -0.26347006D-04 -0.27402561D-03 -0.49421648D-03 -0.72872191D-03 -0.22106931D-03
 -0.45263878D-03 -0.11970999D-04  0.96659425D-06 -0.77444741D-03 -0.52416419D-03
 -0.31559558D-05 -0.21978641D-03 -0.81800025D-04  0.34989910D-07 -0.41317744D-04
 -0.56730561D-04  0.22056872D-03 -0.35214995D-03  0.13158123D-03 -0.28641508D-05
  0.12941206D-05 -0.87897369D-03  0.47009418D-04 -0.12875453D-04 -0.34133965D-04
  0.13743978D-06 -0.13277394D-05  0.26347006D-04
MO    2     MO 0.0        OCC NO =    2.0000041  ORB. ENERGY =    0.000000
  0.42241820D+00  0.78731807D+00  0.13350084D+01  0.20203933D+01  0.25202814D+01
  0.21627764D+01  0.82822845D+00  0.49614183D-04  0.53232763D-03  0.19622599D-02
  0.57375328D-02  0.69140060D-02 -0.83286529D-02  0.38591687D-01 -0.65422615D-03
 -0.80086223D-04 -0.85727337D-04 -0.83126680D-04 -0.56076767D-04 -0.29957416D-13
 -0.29048617D-13 -0.19596025D-13 -0.10978820D-01 -0.10645762D-01 -0.71815684D-02
  0.13417134D-04 -0.16008678D-13  0.14479451D-02 -0.21196085D-05 -0.50123072D-13
  0.10563489D-03 -0.92435634D-07 -0.54042454D-15  0.19490725D-05 -0.99430431D-03
 -0.60061098D-04  0.10543654D-02 -0.54698729D-14  0.27362096D-04 -0.39104902D-13
  0.34846815D-03  0.53681428D-03 -0.88528243D-03  0.63319265D-15 -0.18398824D-04
  0.27072331D-13  0.34119639D-04 -0.62419749D-06 -0.33495442D-04 -0.66622275D-15
  0.54370519D-07  0.18839642D-13 -0.19224790D-05 -0.10017796D-14  0.11055203D-03
 -0.35375186D-05  0.32621168D-14 -0.24012719D-03  0.93049556D-05 -0.25677786D-15
 -0.91528915D-04 -0.12941294D-13 -0.13733843D-05  0.22945318D-14  0.12861079D-03
 -0.98276254D-06  0.37178504D-14 -0.16757322D-03  0.51029155D-05 -0.10601446D-13
 -0.21825914D-03  0.20300892D-14  0.17517475D+00  0.32656102D+00  0.55193262D+00
  0.82965766D+00  0.10190858D+01  0.86007250D+00  0.32340972D+00  0.17392710D-04
  0.12999973D-03  0.48583869D-03  0.13554143D-02  0.18158815D-02 -0.21442174D-02
  0.14455457D-01  0.50702088D-03  0.93239836D-04 -0.10191234D-05 -0.95549295D-06
 -0.68036790D-06 -0.49619549D-13 -0.46521481D-13 -0.33126066D-13  0.11519554D-02
  0.10800314D-02  0.76904671D-03  0.14527227D-04  0.10658149D-12  0.16065434D-02
  0.99699366D-06  0.12399838D-12 -0.11204333D-04  0.37548963D-07  0.24056770D-14
  0.51715130D-06 -0.10271662D-02 -0.30892483D-03  0.13360911D-02 -0.53321489D-15
  0.35664996D-04 -0.32871927D-13  0.16454440D-04 -0.25917481D-03  0.24272037D-03
  0.59799825D-15  0.67834784D-05 -0.43210272D-13 -0.18674823D-05  0.42013691D-04
 -0.40146208D-04  0.22283091D-15 -0.24363681D-06 -0.66391681D-14 -0.29920725D-05
 -0.27426462D-14  0.34843643D-03 -0.34897568D-05 -0.11728072D-13 -0.22794538D-03
  0.12465974D-04  0.19956010D-13 -0.81736391D-03 -0.26794565D-15 -0.31061380D-06
 -0.48577875D-14 -0.89222485D-05 -0.69803119D-06 -0.81141640D-14 -0.38625520D-04
  0.16298726D-05  0.22687526D-13  0.65392265D-04  0.16234076D-14 -0.14697955D-03
 -0.26508367D-03 -0.39086572D-03  0.11436339D-03 -0.34913054D-03 -0.74589461D-05
  0.11402074D-06  0.34607335D-03 -0.21890737D-03  0.57959918D-07 -0.74300975D-04
  0.13093190D-03 -0.21721933D-06 -0.99646221D-05 -0.83304304D-04  0.12340112D-03
 -0.13460164D-03  0.11200526D-04  0.72622193D-06 -0.48234609D-06  0.41395133D-03
  0.22995958D-05  0.25985443D-05 -0.48981402D-05  0.59099599D-06  0.42355963D-06
 -0.58084330D-05 -0.14697955D-03 -0.26508367D-03 -0.39086572D-03  0.11436339D-03
 -0.34913054D-03 -0.74589461D-05  0.11402073D-06 -0.34607335D-03 -0.21890737D-03
  0.57959916D-07  0.74300975D-04  0.13093190D-03 -0.21721933D-06  0.99646221D-05
 -0.83304304D-04  0.12340112D-03 -0.13460164D-03  0.11200526D-04 -0.72622193D-06
 -0.48234609D-06 -0.41395133D-03  0.22995958D-05  0.25985443D-05 -0.48981402D-05
 -0.59099599D-06  0.42355963D-06  0.58084330D-05
MO    3     MO 0.0        OCC NO =    1.9805518  ORB. ENERGY =    0.000000
 -0.96677876D-01 -0.18019166D+00 -0.30554029D+00 -0.46240274D+00 -0.57681097D+00
 -0.49498962D+00 -0.18955473D+00 -0.16853295D-02 -0.18082479D-01 -0.66655423D-01
 -0.19489655D+00 -0.23485982D+00  0.28291354D+00  0.14940272D+00  0.75513232D-01
  0.44171581D-02  0.25433609D-03  0.24662046D-03  0.16636870D-03 -0.70015093D-12
 -0.67891089D-12 -0.45798927D-12 -0.19203666D-02 -0.18621096D-02 -0.12561682D-02
  0.88575261D-05 -0.14569769D-12 -0.80214135D-02  0.74406803D-04 -0.28392028D-13
  0.80812711D-02  0.40793302D-06  0.17493247D-14  0.89924217D-04 -0.14819603D-01
 -0.15846632D-01  0.30666234D-01 -0.69407484D-15  0.69588115D-03 -0.10016296D-13
 -0.42656719D-02 -0.51232146D-02  0.93888864D-02  0.18485496D-15  0.21972710D-03
  0.22179215D-13  0.46253160D-03  0.51058769D-03 -0.97311928D-03 -0.63141673D-15
 -0.26252210D-04 -0.73639583D-15  0.11210970D-03 -0.18922032D-14 -0.89147665D-02
  0.10323652D-03  0.26284998D-15  0.14283601D-01 -0.43956563D-03  0.54137595D-14
  0.12460698D-01 -0.14795607D-13  0.31662679D-05  0.41406546D-14 -0.35954658D-03
  0.46157397D-05  0.33959882D-14  0.23267977D-04 -0.14114544D-04 -0.15817952D-13
  0.10553718D-02  0.20262525D-14 -0.28161688D-01 -0.52499060D-01 -0.88730564D-01
 -0.13337859D+00 -0.16383171D+00 -0.13826818D+00 -0.51992446D-01 -0.59172173D-03
 -0.44227533D-02 -0.16528839D-01 -0.46112887D-01 -0.61778556D-01  0.72948955D-01
  0.30046805D-01  0.19105726D-01  0.40776532D-03  0.11605770D-02  0.10881148D-02
  0.77480253D-03  0.20651221D-12  0.19361832D-12  0.13786778D-12  0.10585793D+00
  0.99248539D-01  0.70670873D-01  0.18921505D-03 -0.24193004D-14  0.65644356D-02
 -0.13230038D-04 -0.30138879D-13 -0.40013398D-02 -0.36871220D-06 -0.60501705D-14
 -0.55078698D-04 -0.18332417D-01 -0.79368305D-02  0.26269248D-01  0.69798804D-16
  0.67552297D-03 -0.44471882D-13 -0.31357449D-02  0.25236767D-02  0.61206817D-03
 -0.34922690D-16  0.33023872D-04  0.69329012D-13  0.16059164D-04  0.49163819D-03
 -0.50769735D-03 -0.62768092D-16 -0.64478047D-05  0.94177295D-14 -0.31157423D-04
  0.30903594D-14  0.43555206D-02 -0.47823971D-04 -0.14057862D-14 -0.94845084D-03
  0.14129624D-03 -0.78652921D-14 -0.12118111D-01  0.39887798D-15  0.15464559D-05
  0.60076425D-14 -0.31550224D-04  0.76082494D-05  0.82685341D-14  0.44117209D-03
 -0.12247617D-04 -0.26291462D-13 -0.34652142D-03  0.10720500D-14  0.64722031D-02
  0.11672885D-01  0.17211662D-01 -0.12095456D-04 -0.58602922D-02 -0.79647865D-04
  0.85791142D-05 -0.27836669D-02  0.22529018D-02 -0.76811609D-05  0.41860880D-02
 -0.40833254D-02 -0.32915417D-05  0.55916920D-03 -0.14797899D-02  0.53285176D-03
 -0.10804323D-02  0.54758055D-03 -0.27662501D-05  0.55870959D-05  0.20683050D-02
  0.34602830D-03 -0.79636752D-04 -0.26639154D-03  0.26176148D-06 -0.49064165D-05
  0.94659357D-03  0.64722031D-02  0.11672885D-01  0.17211662D-01 -0.12095456D-04
 -0.58602922D-02 -0.79647865D-04  0.85791142D-05  0.27836669D-02  0.22529018D-02
 -0.76811609D-05 -0.41860880D-02 -0.40833254D-02 -0.32915417D-05 -0.55916920D-03
 -0.14797899D-02  0.53285176D-03 -0.10804323D-02  0.54758055D-03  0.27662501D-05
  0.55870959D-05 -0.20683050D-02  0.34602830D-03 -0.79636752D-04 -0.26639154D-03
 -0.26176148D-06 -0.49064165D-05 -0.94659357D-03
MO    4     MO 0.0        OCC NO =    1.9668847  ORB. ENERGY =    0.000000
  0.36139040D-01  0.67357229D-01  0.11421365D+00  0.17285021D+00  0.21561701D+00
  0.18503147D+00  0.70857225D-01  0.69152803D-03  0.74196419D-02  0.27350197D-01
  0.79970372D-01  0.96368187D-01 -0.11608569D+00 -0.65930687D-01 -0.54260769D-01
 -0.31071692D-02 -0.34079592D-02 -0.33045740D-02 -0.22292461D-02  0.63051061D-11
  0.61138320D-11  0.41243550D-11 -0.67807714D+00 -0.65750673D+00 -0.44355016D+00
 -0.72227670D-03  0.15521598D-11 -0.15213924D+00 -0.45051411D-04  0.11719288D-11
 -0.15791003D-01  0.11688930D-05  0.42354605D-14 -0.10787454D-03 -0.19544440D-01
 -0.19324967D-01  0.38869407D-01 -0.14800251D-13  0.71546288D-03 -0.88832956D-12
 -0.35680919D-02 -0.40082390D-02  0.75763309D-02 -0.33091356D-14  0.10850722D-03
 -0.49384984D-12  0.18568877D-06 -0.13817906D-03  0.13799337D-03 -0.35552706D-14
 -0.59792823D-05 -0.42705994D-12  0.28361992D-04 -0.96360986D-13 -0.60173261D-02
  0.80401048D-04  0.13252085D-13  0.58889563D-02 -0.16548702D-03  0.27583087D-12
  0.12163022D-01  0.69796217D-14  0.18024397D-05 -0.29735923D-13 -0.14443256D-03
 -0.54816605D-05 -0.48536617D-13 -0.20172024D-03  0.74341311D-07  0.13774439D-12
  0.63501792D-03  0.32125318D-14 -0.49526206D-01 -0.92326825D-01 -0.15604491D+00
 -0.23456461D+00 -0.28812061D+00 -0.24316363D+00 -0.91435875D-01 -0.12030774D-02
 -0.89922585D-02 -0.33606123D-01 -0.93755851D-01 -0.12560699D+00  0.14831844D+00
  0.64388666D-01  0.45910945D-01  0.11155114D-02  0.47070932D-03  0.44131991D-03
  0.31424607D-03  0.72851008D-11  0.68302451D-11  0.48635414D-11 -0.11368019D+00
 -0.10658240D+00 -0.75893021D-01  0.11188636D-03  0.15421020D-11 -0.31745309D-01
 -0.16076718D-05 -0.27055166D-11 -0.56240565D-02 -0.23365579D-07 -0.84504859D-13
 -0.49229977D-05 -0.17575559D-01  0.14292965D-01  0.32825935D-02  0.79730160D-14
  0.26489077D-03 -0.52972135D-12 -0.45569341D-02  0.49132891D-02 -0.35635506D-03
 -0.55932230D-14  0.30402741D-04  0.13125880D-13 -0.96044905D-04  0.14054405D-04
  0.81990500D-04 -0.14680397D-14 -0.77746374D-06  0.16594180D-12 -0.29596665D-04
  0.24355949D-13  0.42726437D-02 -0.49663868D-04 -0.14328245D-12  0.63770615D-03
  0.13845386D-03  0.70214602D-13 -0.13455637D-01  0.42567589D-14  0.22487046D-05
  0.78787074D-13  0.28252703D-03  0.36497740D-05  0.15980662D-12  0.64594503D-03
 -0.10395888D-04 -0.39616784D-12 -0.14935261D-02 -0.61745975D-14  0.24361608D-01
  0.43937163D-01  0.64785321D-01  0.26901949D-01 -0.40442361D-02 -0.92652239D-04
  0.88307639D-05 -0.17698801D-01  0.88069189D-02 -0.21979673D-05  0.20426206D-03
 -0.19447346D-02  0.35429557D-06  0.13558724D-02 -0.50730522D-03 -0.16313969D-02
  0.20352610D-02 -0.40386417D-03 -0.35317393D-05  0.14034486D-04 -0.29344303D-02
  0.28789521D-03 -0.13088737D-03 -0.15700783D-03 -0.37979305D-05 -0.87684016D-05
  0.55739424D-03  0.24361608D-01  0.43937163D-01  0.64785321D-01  0.26901949D-01
 -0.40442361D-02 -0.92652239D-04  0.88307638D-05  0.17698801D-01  0.88069189D-02
 -0.21979673D-05 -0.20426206D-03 -0.19447346D-02  0.35429556D-06 -0.13558724D-02
 -0.50730522D-03 -0.16313969D-02  0.20352610D-02 -0.40386417D-03  0.35317393D-05
  0.14034486D-04  0.29344303D-02  0.28789521D-03 -0.13088737D-03 -0.15700783D-03
  0.37979305D-05 -0.87684016D-05 -0.55739424D-03
MO    5     MO 0.0        OCC NO =    1.9653381  ORB. ENERGY =    0.000000
 -0.37028820D-12 -0.69015632D-12 -0.11702570D-11 -0.17710596D-11 -0.22092572D-11
 -0.18958714D-11 -0.72601801D-12 -0.75930259D-14 -0.81468185D-13 -0.30030707D-12
 -0.87808025D-12 -0.10581294D-11  0.12746290D-11  0.73983824D-12  0.83426804D-12
  0.33289626D-12  0.31961253D-12  0.30991665D-12  0.20906794D-12  0.13319005D+01
  0.12914954D+01  0.87123519D+00  0.94088621D-11  0.91234313D-11  0.61546129D-11
  0.79136483D-13  0.31477771D+00  0.20545340D-11 -0.99016203D-15  0.50353174D-01
  0.74953616D-13 -0.78869100D-15  0.15703383D-02 -0.29044241D-13  0.29110815D-12
  0.31010859D-12 -0.60121674D-12 -0.85516498D-03 -0.36490076D-13 -0.10123162D+00
  0.23275142D-13  0.25343413D-13 -0.48618555D-13 -0.22728293D-03 -0.25451219D-14
 -0.28505013D-01 -0.12328173D-13 -0.10006701D-13  0.22334875D-13 -0.95802843D-05
  0.52989420D-14 -0.26327008D-02 -0.51614267D-14 -0.12965283D-01  0.86775042D-13
 -0.45456247D-14  0.93119250D-04 -0.69215938D-13  0.20029905D-13  0.38802729D-01
 -0.19110919D-12  0.69513172D-03  0.20072250D-14 -0.97104172D-03 -0.10395477D-13
  0.31161472D-15  0.42708787D-03  0.15075577D-13 -0.63332898D-14  0.24860373D-02
  0.16110853D-13  0.13962797D-04  0.52799459D-12  0.98428829D-12  0.16635813D-11
  0.25006730D-11  0.30716289D-11  0.25923464D-11  0.97478994D-12  0.13585348D-13
  0.10154206D-12  0.37948585D-12  0.10587064D-11  0.14183747D-11 -0.16748361D-11
 -0.79616034D-12 -0.77062047D-13 -0.94193603D-13  0.61972275D-13  0.58102947D-13
  0.41372760D-13  0.40604541D+00  0.38069338D+00  0.27107636D+00  0.62866849D-12
  0.58941667D-12  0.41969978D-12  0.27629275D-13  0.10512989D+00 -0.84254493D-13
  0.67906305D-14  0.62714922D-02 -0.89658381D-13  0.11517631D-15 -0.33194831D-03
  0.80655567D-15  0.23357580D-12 -0.98809992D-13 -0.13476581D-12  0.42817688D-03
  0.69916558D-14  0.28977417D-01 -0.20807193D-13  0.83541099D-13 -0.62733907D-13
  0.43139245D-04  0.88254726D-14 -0.37991578D-02 -0.79838334D-15  0.18724838D-13
 -0.17926454D-13 -0.14048035D-04  0.54584332D-15 -0.88551363D-03 -0.53775364D-15
 -0.38798976D-02 -0.52018380D-13 -0.37914286D-15 -0.54706491D-02  0.52114216D-13
  0.19924038D-14  0.17110342D-01  0.10394092D-12  0.29061335D-03 -0.72920534D-15
 -0.38112533D-03  0.12970224D-13  0.11607702D-15 -0.31489361D-03 -0.63144360D-14
  0.20715390D-14  0.14582696D-02 -0.32596236D-13 -0.10053711D-04  0.18326574D-01
  0.33052731D-01  0.48736233D-01  0.19326527D-01 -0.15384844D-02  0.34572909D-03
  0.32416733D-04 -0.11323074D-01  0.13691708D-01 -0.25997763D-05  0.55215696D-02
  0.18030881D-02  0.15997298D-04  0.47258284D-03  0.61267674D-03 -0.18583228D-02
 -0.14351115D-02  0.32934343D-02 -0.40648712D-04  0.15051153D-04 -0.83044951D-02
  0.31015865D-03 -0.46644022D-03  0.15628158D-03  0.10138386D-05  0.88535904D-06
  0.88651783D-03 -0.18326574D-01 -0.33052731D-01 -0.48736233D-01 -0.19326527D-01
  0.15384844D-02 -0.34572909D-03 -0.32416733D-04 -0.11323074D-01 -0.13691708D-01
  0.25997763D-05  0.55215696D-02 -0.18030881D-02 -0.15997298D-04  0.47258284D-03
 -0.61267674D-03  0.18583228D-02  0.14351115D-02 -0.32934343D-02 -0.40648712D-04
 -0.15051153D-04 -0.83044951D-02 -0.31015865D-03  0.46644022D-03 -0.15628158D-03
  0.10138386D-05 -0.88535904D-06  0.88651783D-03
MO    6     MO 0.0        OCC NO =    1.9601086  ORB. ENERGY =    0.000000
  0.19822775D-02  0.36946394D-02  0.62647803D-02  0.94810789D-02  0.11826899D-01
  0.10149239D-01  0.38866192D-02 -0.31513705D-04 -0.33812137D-03 -0.12463790D-02
 -0.36443392D-02 -0.43916059D-02  0.52901547D-02  0.76362723D-02  0.28691686D-01
  0.63074087D-02  0.11157375D-01  0.10818901D-01  0.72983664D-02 -0.49959273D-11
 -0.48443689D-11 -0.32679827D-11  0.13821958D+01  0.13402649D+01  0.90413481D+00
  0.25881284D-02 -0.11940674D-11  0.31969951D+00  0.28832228D-03 -0.63249956D-12
  0.38150598D-01  0.54532411D-06  0.11520882D-13  0.15792545D-03  0.41971825D-01
  0.43771563D-01 -0.85743388D-01 -0.71835213D-14 -0.22026055D-02  0.75598319D-13
  0.10426774D-01  0.11786939D-01 -0.22213713D-01  0.29229053D-14 -0.56354218D-03
  0.13824595D-12  0.26546008D-03  0.51095402D-03 -0.77641409D-03  0.15048706D-14
 -0.10162550D-04  0.17353085D-12 -0.15078397D-03  0.42039054D-13  0.15666899D-01
 -0.27005200D-03 -0.64594616D-13 -0.15971844D-01  0.72240392D-03 -0.61522545D-13
 -0.31028854D-01  0.47803662D-15 -0.20226006D-04  0.68674547D-14  0.20164320D-02
 -0.29436240D-04  0.36030923D-13 -0.24742446D-02  0.90114257D-04 -0.56633287D-13
 -0.35750514D-02 -0.22429899D-14  0.52113160D-02  0.97149428D-02  0.16419577D-01
  0.24681687D-01  0.30317031D-01  0.25586505D-01  0.96211940D-02  0.88896775D-04
  0.66444831D-03  0.24831951D-02  0.69277276D-02  0.92812450D-02 -0.10959420D-01
 -0.62533626D-02  0.16282160D-01  0.10900334D-04 -0.34385866D-02 -0.32238935D-02
 -0.22956042D-02  0.32121927D-12  0.30116348D-12  0.21444634D-12 -0.52338411D+00
 -0.49070587D+00 -0.34941181D+00 -0.73528889D-03  0.87482016D-12 -0.10880941D+00
 -0.39795461D-04  0.16790405D-11 -0.86472422D-02 -0.25095881D-06  0.27940713D-13
 -0.40777220D-04  0.83577751D-02  0.28581044D-01 -0.36938819D-01 -0.27619827D-14
 -0.84350093D-03 -0.48470916D-12  0.20261008D-03  0.24872471D-02 -0.26898572D-02
  0.97862703D-15 -0.59038783D-04 -0.55314316D-12 -0.15405269D-03  0.12830472D-03
  0.25747965D-04  0.15878456D-16 -0.66177847D-06 -0.13242596D-12  0.58537879D-04
  0.15468713D-13 -0.58747090D-02  0.78693598D-04 -0.80282056D-13  0.64601276D-02
 -0.25430723D-03  0.33875918D-13  0.11163999D-01 -0.27946475D-14 -0.72328110D-06
 -0.32306386D-13  0.76913776D-03 -0.21341794D-04 -0.99141460D-13 -0.19243424D-03
  0.23511637D-04  0.19606062D-12 -0.21149790D-02  0.26923575D-14  0.18240710D-01
  0.32897871D-01  0.48507891D-01  0.30885102D-01  0.75219726D-03  0.11692580D-04
 -0.46066132D-04 -0.17428268D-01  0.35817136D-02 -0.10524690D-05 -0.57518725D-02
  0.75564889D-03 -0.29105501D-05  0.33773138D-03 -0.24456831D-03 -0.14822399D-02
  0.52635877D-02 -0.37813478D-02  0.17096878D-04 -0.50525890D-04 -0.45457005D-02
 -0.54890804D-03  0.43503291D-05  0.54455771D-03  0.68598777D-05  0.18728146D-04
  0.47208526D-04  0.18240710D-01  0.32897871D-01  0.48507891D-01  0.30885102D-01
  0.75219727D-03  0.11692580D-04 -0.46066132D-04  0.17428268D-01  0.35817136D-02
 -0.10524690D-05  0.57518725D-02  0.75564889D-03 -0.29105501D-05 -0.33773138D-03
 -0.24456831D-03 -0.14822399D-02  0.52635877D-02 -0.37813478D-02 -0.17096878D-04
 -0.50525890D-04  0.45457005D-02 -0.54890804D-03  0.43503292D-05  0.54455771D-03
 -0.68598777D-05  0.18728146D-04 -0.47208526D-04
MO    7     MO 0.0        OCC NO =    1.9567314  ORB. ENERGY =    0.000000
  0.22024419D-12  0.41049896D-12  0.69605867D-12  0.10534108D-11  0.13140469D-11
  0.11276477D-11  0.43182918D-12  0.41522684D-14  0.44551116D-13  0.16422380D-12
  0.48018076D-12  0.57864116D-12 -0.69703460D-12 -0.38877142D-12 -0.55248998D-12
  0.13083473D-12 -0.18852889D-12 -0.18280960D-12 -0.12332228D-12  0.11745869D+01
  0.11389542D+01  0.76833176D+00 -0.10132626D-11 -0.98252390D-12 -0.66280482D-12
 -0.44371622D-13  0.27736945D+00 -0.17188327D-13 -0.15849807D-13  0.50119127D-01
  0.69355718D-13 -0.12285236D-14  0.17015577D-02 -0.23462229D-13 -0.45865578D-13
 -0.40973623D-13  0.86839202D-13 -0.14451735D-03  0.16206576D-13 -0.11688638D-01
  0.32007363D-13  0.40737930D-13 -0.72745293D-13 -0.46409568D-04  0.10328608D-13
 -0.29238845D-02 -0.65509845D-14  0.42346958D-14  0.23162887D-14 -0.37008595D-05
  0.50246499D-14 -0.65103489D-03 -0.64445350D-15 -0.41824397D-02  0.20467935D-13
  0.97284827D-15  0.88086612D-02 -0.45754999D-13  0.96051223D-15  0.37386579D-02
 -0.15648805D-13 -0.21252391D-04  0.11334112D-14 -0.30797988D-03  0.61010251D-14
  0.16553966D-14 -0.35490866D-03 -0.29418734D-15 -0.50556303D-14  0.12788483D-02
 -0.18008888D-13  0.27088483D-04 -0.37380170D-12 -0.69684167D-12 -0.11777574D-11
 -0.17703890D-11 -0.21746058D-11 -0.18352905D-11 -0.69011717D-12 -0.89694436D-14
 -0.67041034D-13 -0.25054765D-12 -0.69898893D-12 -0.93645246D-12  0.11057757D-11
  0.47658128D-12  0.10705395D-11  0.41277161D-13 -0.84106936D-13 -0.78855599D-13
 -0.56149884D-13 -0.36131151D+00 -0.33875251D+00 -0.24121197D+00 -0.23702116D-11
 -0.22222240D-11 -0.15823559D-11 -0.11306291D-13 -0.99078812D-01 -0.40131463D-12
  0.22812196D-14 -0.25711196D-01 -0.88860757D-13  0.17252858D-15 -0.50647735D-03
  0.44625077D-14 -0.11687304D-12  0.14462281D-12 -0.27749772D-13  0.45814206D-03
 -0.10624293D-13  0.11075174D+00 -0.77113036D-13  0.36443604D-13  0.40669431D-13
  0.11570444D-03  0.85748955D-14  0.31841409D-01 -0.57630786D-14  0.22248880D-13
 -0.16485801D-13  0.12238442D-04  0.96212884D-15  0.34100277D-02 -0.61904392D-15
 -0.36574204D-02  0.33379181D-13 -0.78773421D-15  0.27403066D-02 -0.18606988D-13
  0.26448660D-14  0.82319547D-02 -0.81530556D-13  0.18276804D-03 -0.55561304D-15
 -0.58791249D-03  0.16008210D-13 -0.64878451D-15  0.80382629D-03  0.54006213D-14
  0.23156236D-14  0.95991118D-03 -0.53425251D-13  0.36631690D-04 -0.34611345D-01
 -0.62422987D-01 -0.92042657D-01 -0.52456369D-01  0.10545354D-01  0.43285248D-03
  0.17324256D-04  0.14956723D-01 -0.10588804D-01  0.18485052D-04 -0.32090690D-02
  0.19919070D-02 -0.41170436D-05 -0.34750865D-02  0.16653871D-02  0.70831543D-03
 -0.15509430D-02  0.84262759D-03 -0.19040892D-04  0.14964243D-04  0.31491803D-02
  0.48434156D-05  0.35303007D-03 -0.35787349D-03 -0.17313466D-06 -0.71721544D-05
  0.45349234D-04  0.34611345D-01  0.62422987D-01  0.92042657D-01  0.52456369D-01
 -0.10545354D-01 -0.43285248D-03 -0.17324256D-04  0.14956723D-01  0.10588804D-01
 -0.18485052D-04 -0.32090690D-02 -0.19919070D-02  0.41170436D-05 -0.34750865D-02
 -0.16653871D-02 -0.70831543D-03  0.15509430D-02 -0.84262759D-03 -0.19040892D-04
 -0.14964243D-04  0.31491803D-02 -0.48434156D-05 -0.35303007D-03  0.35787349D-03
 -0.17313466D-06  0.71721544D-05  0.45349234D-04
MO    8     MO 0.0        OCC NO =    1.9226238  ORB. ENERGY =    0.000000
 -0.56932856D-04 -0.10611348D-03 -0.17993032D-03 -0.27230541D-03 -0.33967953D-03
 -0.29149558D-03 -0.11162732D-03 -0.11313171D-05 -0.12138290D-04 -0.44744023D-04
 -0.13082890D-03 -0.15765519D-03  0.18991238D-03  0.10772479D-03  0.76444591D-04
 -0.74857046D-04  0.13795296D+01  0.13376797D+01  0.90239079D+00 -0.61497873D-13
 -0.59632251D-13 -0.40227564D-13 -0.11102606D-01 -0.10765793D-01 -0.72625404D-02
  0.33247094D+00 -0.27383258D-13 -0.26757541D-02  0.48481580D-01 -0.12103355D-13
 -0.44579215D-03  0.88714353D-03  0.36678445D-15 -0.15026546D-05 -0.10236430D-02
  0.36442845D-04  0.98720014D-03  0.13825281D-14 -0.12441246D+00  0.20827062D-13
 -0.30484690D-03 -0.65750313D-05  0.31142193D-03  0.45228711D-14 -0.37367324D-01
  0.87855755D-14 -0.26618300D-04 -0.74997223D-06  0.27368272D-04 -0.29379438D-14
 -0.23608827D-02  0.48230990D-14 -0.61287283D-02  0.12340230D-14 -0.33836369D-03
 -0.22207675D-01  0.37693607D-14  0.84500454D-03  0.40593860D-01 -0.74714296D-14
  0.17008654D-03 -0.10571951D-13 -0.36168418D-03  0.33829491D-15 -0.26547525D-04
 -0.15478133D-02 -0.56579188D-15  0.63233235D-04  0.26328658D-02 -0.44909286D-15
  0.16409339D-04  0.24095227D-14  0.15999103D-03  0.29825551D-03  0.50409244D-03
  0.75774496D-03  0.93075396D-03  0.78552351D-03  0.29537735D-03  0.39658599D-05
  0.29642346D-04  0.11078021D-03  0.30905955D-03  0.41405458D-03 -0.48892126D-03
 -0.21250083D-03 -0.38957205D-03  0.32368325D-05  0.41538090D+00  0.38944600D+00
  0.27730875D+00 -0.12923860D-12 -0.12116940D-12 -0.86279831D-13 -0.26005797D-02
 -0.24382088D-02 -0.17361499D-02  0.10663959D+00 -0.50084219D-13 -0.70896904D-03
  0.12611010D-01  0.31358029D-13 -0.42606695D-04  0.39113766D-04  0.10016459D-14