 Entering Gaussian System, Link 0=/home/bruns/programas/chemistry/gaussian/g09/g09
 Input=GAUSSIAN.com
 Output=GAUSSIAN.log
 Initial command:
 /home/bruns/programas/chemistry/gaussian/g09/l1.exe /home/bruns/programas/chemistry/gaussian/work/Gau-80067.inp -scrdir=/home/bruns/programas/chemistry/gaussian/work/
 Entering Link 1 = /home/bruns/programas/chemistry/gaussian/g09/l1.exe PID=     80069.
  
 Copyright (c) 1988,1990,1992,1993,1995,1998,2003,2009,2010,
            Gaussian, Inc.  All Rights Reserved.
  
 This is part of the Gaussian(R) 09 program.  It is based on
 the Gaussian(R) 03 system (copyright 2003, Gaussian, Inc.),
 the Gaussian(R) 98 system (copyright 1998, Gaussian, Inc.),
 the Gaussian(R) 94 system (copyright 1995, Gaussian, Inc.),
 the Gaussian 92(TM) system (copyright 1992, Gaussian, Inc.),
 the Gaussian 90(TM) system (copyright 1990, Gaussian, Inc.),
 the Gaussian 88(TM) system (copyright 1988, Gaussian, Inc.),
 the Gaussian 86(TM) system (copyright 1986, Carnegie Mellon
 University), and the Gaussian 82(TM) system (copyright 1983,
 Carnegie Mellon University). Gaussian is a federally registered
 trademark of Gaussian, Inc.
  
 This software contains proprietary and confidential information,
 including trade secrets, belonging to Gaussian, Inc.
  
 This software is provided under written license and may be
 used, copied, transmitted, or stored only in accord with that
 written license.
  
 The following legend is applicable only to US Government
 contracts under FAR:
  
                    RESTRICTED RIGHTS LEGEND
  
 Use, reproduction and disclosure by the US Government is
 subject to restrictions as set forth in subparagraphs (a)
 and (c) of the Commercial Computer Software - Restricted
 Rights clause in FAR 52.227-19.
  
 Gaussian, Inc.
 340 Quinnipiac St., Bldg. 40, Wallingford CT 06492
  
  
 ---------------------------------------------------------------
 Warning -- This program may not be used in any manner that
 competes with the business of Gaussian, Inc. or will provide
 assistance to any competitor of Gaussian, Inc.  The licensee
 of this program is prohibited from giving any competitor of
 Gaussian, Inc. access to this program.  By using this program,
 the user acknowledges that Gaussian, Inc. is engaged in the
 business of creating and licensing software in the field of
 computational chemistry and represents and warrants to the
 licensee that it is not a competitor of Gaussian, Inc. and that
 it will not use this program in any manner prohibited above.
 ---------------------------------------------------------------
  

 Cite this work as:
 Gaussian 09, Revision B.01,
 M. J. Frisch, G. W. Trucks, H. B. Schlegel, G. E. Scuseria, 
 M. A. Robb, J. R. Cheeseman, G. Scalmani, V. Barone, B. Mennucci, 
 G. A. Petersson, H. Nakatsuji, M. Caricato, X. Li, H. P. Hratchian, 
 A. F. Izmaylov, J. Bloino, G. Zheng, J. L. Sonnenberg, M. Hada, 
 M. Ehara, K. Toyota, R. Fukuda, J. Hasegawa, M. Ishida, T. Nakajima, 
 Y. Honda, O. Kitao, H. Nakai, T. Vreven, J. A. Montgomery, Jr., 
 J. E. Peralta, F. Ogliaro, M. Bearpark, J. J. Heyd, E. Brothers, 
 K. N. Kudin, V. N. Staroverov, T. Keith, R. Kobayashi, J. Normand, 
 K. Raghavachari, A. Rendell, J. C. Burant, S. S. Iyengar, J. Tomasi, 
 M. Cossi, N. Rega, J. M. Millam, M. Klene, J. E. Knox, J. B. Cross, 
 V. Bakken, C. Adamo, J. Jaramillo, R. Gomperts, R. E. Stratmann, 
 O. Yazyev, A. J. Austin, R. Cammi, C. Pomelli, J. W. Ochterski, 
 R. L. Martin, K. Morokuma, V. G. Zakrzewski, G. A. Voth, 
 P. Salvador, J. J. Dannenberg, S. Dapprich, A. D. Daniels, 
 O. Farkas, J. B. Foresman, J. V. Ortiz, J. Cioslowski, 
 and D. J. Fox, Gaussian, Inc., Wallingford CT, 2010.
 
 ******************************************
 Gaussian 09:  EM64L-G09RevB.01 12-Aug-2010
                20-Nov-2021 
 ******************************************
 %nproc=8
 Will use up to    8 processors via shared memory.
 %mem=8GB
 -----------------------------------------------------
 # qcisd/aug-cc-pvtz nosymm density=current output=wfn
 -----------------------------------------------------
 1/30=1,38=1/1;
 2/12=2,15=1,17=6,18=5,40=1/2;
 3/5=16,6=1,7=10,11=9,16=1,25=1,30=1,71=1/1,2,3;
 4//1;
 5/5=2,38=5/2;
 8/6=4,9=120000,10=1/1,4;
 9/5=8,15=1/13;
 11/28=-7,31=1,32=3,42=3/11;
 10/5=6,13=10,31=1/2;
 6/7=2,8=2,9=2,10=2,22=-1,31=1/1;
 99/5=1,6=1100,9=1/99;
 -----------------
 h2co-wavefunction
 -----------------
 Symbolic Z-matrix:
 Charge =  0 Multiplicity = 1
 O                     0.        0.        0.67925 
 C                     0.        0.       -0.52691 
 H                     0.        0.93661  -1.10662 
 H                     0.       -0.93661  -1.09662 
 
                          Input orientation:                          
 ---------------------------------------------------------------------
 Center     Atomic      Atomic             Coordinates (Angstroms)
 Number     Number       Type             X           Y           Z
 ---------------------------------------------------------------------
      1          8           0        0.000000    0.000000    0.679252
      2          6           0        0.000000    0.000000   -0.526911
      3          1           0        0.000000    0.936614   -1.106620
      4          1           0        0.000000   -0.936614   -1.096620
 ---------------------------------------------------------------------
                    Distance matrix (angstroms):
                    1          2          3          4
     1  O    0.000000
     2  C    1.206163   0.000000
     3  H    2.016577   1.101503   0.000000
     4  H    2.007727   1.096273   1.873255   0.000000
 Symmetry turned off by external request.
 Stoichiometry    CH2O
 Framework group  CS[SG(CH2O)]
 Deg. of freedom     5
 Full point group                 CS      NOp   2
 Rotational constants (GHZ):    285.8134875     38.9410220     34.2716389
 Standard basis: Aug-CC-pVTZ (5D, 7F)
 Integral buffers will be    131072 words long.
 Raffenetti 1 integral format.
 Two-electron integral symmetry is turned off.
   138 basis functions,   198 primitive gaussians,   160 cartesian basis functions
     8 alpha electrons        8 beta electrons
       nuclear repulsion energy        31.3280125823 Hartrees.
 NAtoms=    4 NActive=    4 NUniq=    4 SFac= 1.00D+00 NAtFMM=   50 NAOKFM=F Big=F
 One-electron integrals computed using PRISM.
 NBasis=   138 RedAO= T  NBF=   138
 NBsUse=   138 1.00D-06 NBFU=   138
 Harris functional with IExCor=  205 diagonalized for initial guess.
 ExpMin= 2.53D-02 ExpMax= 1.53D+04 ExpMxC= 5.22D+02 IAcc=3 IRadAn=         0 AccDes= 0.00D+00
 HarFok:  IExCor=  205 AccDes= 0.00D+00 IRadAn=         0 IDoV= 1
 ScaDFX=  1.000000  1.000000  1.000000  1.000000
 FoFCou: FMM=F IPFlag=           0 FMFlag=      100000 FMFlg1=           0
         NFxFlg=           0 DoJE=T BraDBF=F KetDBF=T FulRan=T
         Omega=  0.000000  0.000000  1.000000  0.000000  0.000000 ICntrl=     500 IOpCl=  0
         NMat0=    1 NMatS0=    1 NMatT0=    0 NMatD0=    1 NMtDS0=    0 NMtDT0=    0
         I1Cent=           4 NGrid=           0.
 Symmetry not used in FoFCou.
 Requested convergence on RMS density matrix=1.00D-08 within 128 cycles.
 Requested convergence on MAX density matrix=1.00D-06.
 Requested convergence on             energy=1.00D-06.
 No special actions if energy rises.
 Keep R1 ints in memory in canonical form, NReq=85137408.
 SCF Done:  E(RHF) =  -113.913888912     A.U. after   11 cycles
             Convg  =    0.2898D-08             -V/T =  2.0018
 ExpMin= 2.53D-02 ExpMax= 1.53D+04 ExpMxC= 5.22D+02 IAcc=3 IRadAn=         5 AccDes= 0.00D+00
 HarFok:  IExCor=  205 AccDes= 0.00D+00 IRadAn=         5 IDoV=-2
 ScaDFX=  1.000000  1.000000  1.000000  1.000000
 DSYEVD returned Info=          93 IAlg= 4 N=    46 NDim=    46 NE2=    23340785 trying DSYEV.
 Range of M.O.s used for correlation:     3   138
 NBasis=   138 NAE=     8 NBE=     8 NFC=     2 NFV=     0
 NROrb=    136 NOA=     6 NOB=     6 NVA=   130 NVB=   130

 **** Warning!!: The largest alpha MO coefficient is  0.33882120D+02

 Semi-Direct transformation.
 ModeAB=           2 MOrb=             6 LenV=    1073118429
 LASXX=      7286295 LTotXX=     7286295 LenRXX=     7286295
 LTotAB=     7445736 MaxLAS=    10510080 LenRXY=    10510080
 NonZer=    14572590 LenScr=    22628352 LnRSAI=           0
 LnScr1=           0 LExtra=           0 Total=     40424727
 MaxDsk=          -1 SrtSym=           F ITran=            4
 JobTyp=0 Pass  1:  I=   1 to   6.
 (rs|ai) integrals will be sorted in core.
 Spin components of T(2) and E(2):
     alpha-alpha T2 =       0.1374938836D-01 E2=     -0.4803244846D-01
     alpha-beta  T2 =       0.8496674142D-01 E2=     -0.3063669328D+00
     beta-beta   T2 =       0.1374938836D-01 E2=     -0.4803244846D-01
 ANorm=    0.1054734809D+01
 E2 =    -0.4024318297D+00 EUMP2 =    -0.11431632074146D+03
 R2 and R3 integrals will be kept in memory, NReq=   167993840.
 Iterations=  50 Convergence= 0.100D-07
 Iteration Nr.   1
 **********************
 DD1Dir will call FoFMem   1 times, MxPair=        42
 NAB=    21 NAA=     0 NBB=     0.
 MP4(R+Q)=  0.88667273D-02
 E3=       -0.40448023D-02        EUMP3=      -0.11432036554D+03
 E4(DQ)=   -0.13378500D-02        UMP4(DQ)=   -0.11432170339D+03
 E4(SDQ)=  -0.65849252D-02        UMP4(SDQ)=  -0.11432695047D+03
 DE(Corr)= -0.39760990     E(Corr)=     -114.31149882    
 NORM(A)=   0.10554233D+01
 Iteration Nr.   2
 **********************
 DD1Dir will call FoFMem   1 times, MxPair=        42
 NAB=    21 NAA=     0 NBB=     0.
 DE(Corr)= -0.41152265     E(CORR)=     -114.32541156     Delta=-1.39D-02
 NORM(A)=   0.10614637D+01
 Iteration Nr.   3
 **********************
 DD1Dir will call FoFMem   1 times, MxPair=        42
 NAB=    21 NAA=     0 NBB=     0.
 DE(Corr)= -0.41145374     E(CORR)=     -114.32534265     Delta= 6.89D-05
 NORM(A)=   0.10633443D+01
 Iteration Nr.   4
 **********************
 DD1Dir will call FoFMem   1 times, MxPair=        42
 NAB=    21 NAA=     0 NBB=     0.
 DE(Corr)= -0.41285500     E(CORR)=     -114.32674391     Delta=-1.40D-03
 NORM(A)=   0.10640221D+01
 Iteration Nr.   5
 **********************
 DD1Dir will call FoFMem   1 times, MxPair=        42
 NAB=    21 NAA=     0 NBB=     0.
 DE(Corr)= -0.41304175     E(CORR)=     -114.32693066     Delta=-1.87D-04
 NORM(A)=   0.10642366D+01
 Iteration Nr.   6
 **********************
 DD1Dir will call FoFMem   1 times, MxPair=        42
 NAB=    21 NAA=     0 NBB=     0.
 DE(Corr)= -0.41306758     E(CORR)=     -114.32695649     Delta=-2.58D-05
 NORM(A)=   0.10642618D+01
 Iteration Nr.   7
 **********************
 DD1Dir will call FoFMem   1 times, MxPair=        42
 NAB=    21 NAA=     0 NBB=     0.
 DE(Corr)= -0.41306877     E(CORR)=     -114.32695768     Delta=-1.19D-06
 NORM(A)=   0.10642629D+01
 Iteration Nr.   8
 **********************
 DD1Dir will call FoFMem   1 times, MxPair=        42
 NAB=    21 NAA=     0 NBB=     0.
 DE(Corr)= -0.41306790     E(CORR)=     -114.32695681     Delta= 8.76D-07
 NORM(A)=   0.10642657D+01
 Iteration Nr.   9
 **********************
 DD1Dir will call FoFMem   1 times, MxPair=        42
 NAB=    21 NAA=     0 NBB=     0.
 DE(Corr)= -0.41306679     E(CORR)=     -114.32695570     Delta= 1.11D-06
 NORM(A)=   0.10642660D+01
 Iteration Nr.  10
 **********************
 DD1Dir will call FoFMem   1 times, MxPair=        42
 NAB=    21 NAA=     0 NBB=     0.
 DE(Corr)= -0.41306740     E(CORR)=     -114.32695632     Delta=-6.20D-07
 NORM(A)=   0.10642666D+01
 Iteration Nr.  11
 **********************
 DD1Dir will call FoFMem   1 times, MxPair=        42
 NAB=    21 NAA=     0 NBB=     0.
 DE(Corr)= -0.41306754     E(CORR)=     -114.32695645     Delta=-1.32D-07
 NORM(A)=   0.10642669D+01
 Iteration Nr.  12
 **********************
 DD1Dir will call FoFMem   1 times, MxPair=        42
 NAB=    21 NAA=     0 NBB=     0.
 DE(Corr)= -0.41306769     E(CORR)=     -114.32695660     Delta=-1.54D-07
 NORM(A)=   0.10642671D+01
 Iteration Nr.  13
 **********************
 DD1Dir will call FoFMem   1 times, MxPair=        42
 NAB=    21 NAA=     0 NBB=     0.
 DE(Corr)= -0.41306775     E(CORR)=     -114.32695666     Delta=-6.08D-08
 NORM(A)=   0.10642672D+01
 Iteration Nr.  14
 **********************
 DD1Dir will call FoFMem   1 times, MxPair=        42
 NAB=    21 NAA=     0 NBB=     0.
 DE(Corr)= -0.41306778     E(CORR)=     -114.32695669     Delta=-3.14D-08
 NORM(A)=   0.10642673D+01
 Iteration Nr.  15
 **********************
 DD1Dir will call FoFMem   1 times, MxPair=        42
 NAB=    21 NAA=     0 NBB=     0.
 DE(Corr)= -0.41306779     E(CORR)=     -114.32695670     Delta=-4.87D-09
 NORM(A)=   0.10642673D+01
 Iteration Nr.  16
 **********************
 DD1Dir will call FoFMem   1 times, MxPair=        42
 NAB=    21 NAA=     0 NBB=     0.
 DE(Corr)= -0.41306779     E(CORR)=     -114.32695670     Delta=-2.97D-09
 NORM(A)=   0.10642673D+01
 Largest amplitude= 6.46D-02

 Z-AMPLITUDE ITERATIONS

 Iteration Nr.   1
 **********************
 DD1Dir will call FoFMem   1 times, MxPair=        42
 NAB=    21 NAA=     0 NBB=     0.
 DE(Z)  -0.40104564D+00          E(Z)=    -0.11431493455D+03
 NORM(A)=   0.10642671D+01
 Iteration Nr.   2
 **********************
 DD1Dir will call FoFMem   1 times, MxPair=        42
 NAB=    21 NAA=     0 NBB=     0.
 DE(Z)  -0.40104563D+00          E(Z)=    -0.11431493454D+03
 NORM(A)=   0.10642673D+01
 Iteration Nr.   3
 **********************
 DD1Dir will call FoFMem   1 times, MxPair=        42
 NAB=    21 NAA=     0 NBB=     0.
 DE(Z)  -0.40104564D+00          E(Z)=    -0.11431493455D+03
 NORM(A)=   0.10642673D+01
 Iteration Nr.   4
 **********************
 DD1Dir will call FoFMem   1 times, MxPair=        42
 NAB=    21 NAA=     0 NBB=     0.
 DE(Z)  -0.40104564D+00          E(Z)=    -0.11431493455D+03
 NORM(A)=   0.10642673D+01
 Iteration Nr.   5
 **********************
 DD1Dir will call FoFMem   1 times, MxPair=        42
 NAB=    21 NAA=     0 NBB=     0.
 DE(Z)  -0.40104564D+00          E(Z)=    -0.11431493455D+03
 NORM(A)=   0.10602438D+01
 Iteration Nr.   6
 **********************
 DD1Dir will call FoFMem   1 times, MxPair=        42
 NAB=    21 NAA=     0 NBB=     0.
 DE(Z)  -0.40084685D+00          E(Z)=    -0.11431473576D+03
 NORM(A)=   0.10602354D+01
 Iteration Nr.   7
 **********************
 DD1Dir will call FoFMem   1 times, MxPair=        42
 NAB=    21 NAA=     0 NBB=     0.
 DE(Z)  -0.40083765D+00          E(Z)=    -0.11431472656D+03
 NORM(A)=   0.10602030D+01
 Iteration Nr.   8
 **********************
 DD1Dir will call FoFMem   1 times, MxPair=        42
 NAB=    21 NAA=     0 NBB=     0.
 DE(Z)  -0.40083357D+00          E(Z)=    -0.11431472248D+03
 NORM(A)=   0.10601924D+01
 Iteration Nr.   9
 **********************
 DD1Dir will call FoFMem   1 times, MxPair=        42
 NAB=    21 NAA=     0 NBB=     0.
 DE(Z)  -0.40083272D+00          E(Z)=    -0.11431472163D+03
 NORM(A)=   0.10601920D+01
 Iteration Nr.  10
 **********************
 DD1Dir will call FoFMem   1 times, MxPair=        42
 NAB=    21 NAA=     0 NBB=     0.
 DE(Z)  -0.40083191D+00          E(Z)=    -0.11431472082D+03
 NORM(A)=   0.10601915D+01
 Iteration Nr.  11
 **********************
 DD1Dir will call FoFMem   1 times, MxPair=        42
 NAB=    21 NAA=     0 NBB=     0.
 DE(Z)  -0.40083205D+00          E(Z)=    -0.11431472096D+03
 NORM(A)=   0.10601915D+01
 Iteration Nr.  12
 **********************
 DD1Dir will call FoFMem   1 times, MxPair=        42
 NAB=    21 NAA=     0 NBB=     0.
 DE(Z)  -0.40083210D+00          E(Z)=    -0.11431472101D+03
 NORM(A)=   0.10601915D+01
 Iteration Nr.  13
 **********************
 DD1Dir will call FoFMem   1 times, MxPair=        42
 NAB=    21 NAA=     0 NBB=     0.
 DE(Z)  -0.40083206D+00          E(Z)=    -0.11431472097D+03
 NORM(A)=   0.10601915D+01
 Iteration Nr.  14
 **********************
 DD1Dir will call FoFMem   1 times, MxPair=        42
 NAB=    21 NAA=     0 NBB=     0.
 DE(Z)  -0.40083208D+00          E(Z)=    -0.11431472099D+03
 NORM(A)=   0.10601915D+01
 Iteration Nr.  15
 **********************
 DD1Dir will call FoFMem   1 times, MxPair=        42
 NAB=    21 NAA=     0 NBB=     0.
 DE(Z)  -0.40083208D+00          E(Z)=    -0.11431472099D+03
 NORM(A)=   0.10601915D+01
 Discarding MO integrals.
          Differentiating once with respect to electric field.
                with respect to dipole field.
          Electric field/nuclear overlap derivatives assumed to be zero.
          Keep R1 ints in memory in canonical form, NReq=84894547.
          There are     1 degrees of freedom in the 1st order CPHF.  IDoFFX=0.
 LinEq1:  Iter=  0 NonCon=     1 RMS=3.55D-03 Max=5.56D-02
 AX will form     1 AO Fock derivatives at one time.
 LinEq1:  Iter=  1 NonCon=     1 RMS=8.94D-04 Max=8.49D-03
 LinEq1:  Iter=  2 NonCon=     1 RMS=2.34D-04 Max=3.41D-03
 LinEq1:  Iter=  3 NonCon=     1 RMS=1.15D-04 Max=1.20D-03
 LinEq1:  Iter=  4 NonCon=     1 RMS=4.43D-05 Max=5.30D-04
 LinEq1:  Iter=  5 NonCon=     1 RMS=9.18D-06 Max=8.69D-05
 LinEq1:  Iter=  6 NonCon=     1 RMS=1.50D-06 Max=1.73D-05
 LinEq1:  Iter=  7 NonCon=     1 RMS=2.27D-07 Max=1.64D-06
 LinEq1:  Iter=  8 NonCon=     1 RMS=2.60D-08 Max=2.05D-07
 LinEq1:  Iter=  9 NonCon=     1 RMS=3.13D-09 Max=2.50D-08
 LinEq1:  Iter= 10 NonCon=     1 RMS=2.95D-10 Max=2.30D-09
 LinEq1:  Iter= 11 NonCon=     0 RMS=2.75D-11 Max=2.42D-10
 Linear equations converged to 1.000D-10 1.000D-09 after    11 iterations.
 End of Minotr Frequency-dependent properties file   721 does not exist.
 End of Minotr Frequency-dependent properties file   722 does not exist.

 **********************************************************************

            Population analysis using the QCI/CC density.

 **********************************************************************

     Natural Orbital Coefficients:
                           1         2         3         4         5
     Eigenvalues --     2.00001   2.00000   1.98056   1.96695   1.96541
   1 1   O  1S         -0.52231   0.82860  -0.18929   0.07111   0.00271
   2        2S          0.01050  -0.01442   0.48910  -0.20153  -0.00784
   3        3S         -0.02181   0.03560   0.13753  -0.06092  -0.00239
   4        4S          0.00280  -0.00270   0.31035  -0.22300  -0.00948
   5        5S          0.00013  -0.00081   0.04393  -0.03031  -0.00117
   6        6PX         0.00000   0.00000   0.00000   0.00000   0.00000
   7        6PY        -0.00001   0.00000  -0.00026  -0.01015   0.27054
   8        6PZ         0.00298  -0.00225  -0.00053  -0.13723  -0.00626
   9        7PX         0.00000   0.00000   0.00000   0.00000   0.00000
  10        7PY         0.00000   0.00000  -0.00032  -0.01251   0.33385
  11        7PZ         0.00200   0.00154  -0.00873  -0.16073  -0.00734
  12        8PX         0.00000   0.00000   0.00000   0.00000   0.00000
  13        8PY         0.00000  -0.00001  -0.00034  -0.00881   0.24156
  14        8PZ         0.00304   0.00049   0.03869  -0.07535  -0.00324
  15        9PX         0.00000   0.00000   0.00000   0.00000   0.00000
  16        9PY        -0.00001   0.00000  -0.00011  -0.00136   0.03712
  17        9PZ         0.00019   0.00004   0.00207  -0.00258  -0.00016
  18       10D 0       -0.00015   0.00015   0.00430   0.00539   0.00025
  19       10D+1        0.00000   0.00000   0.00000   0.00000   0.00000
  20       10D-1        0.00000   0.00000   0.00001   0.00034  -0.00816
  21       10D+2        0.00007  -0.00008   0.00008  -0.00002   0.00000
  22       10D-2        0.00000   0.00000   0.00000   0.00000   0.00000
  23       11D 0       -0.00046  -0.00116   0.01232   0.00978   0.00048
  24       11D+1        0.00000   0.00000   0.00000   0.00000   0.00000
  25       11D-1        0.00000   0.00000   0.00003   0.00089  -0.02147
  26       11D+2        0.00008  -0.00014   0.00066   0.00034   0.00001
  27       11D-2        0.00000   0.00000   0.00000   0.00000   0.00000
  28       12D 0       -0.00066  -0.00029  -0.00872   0.00118   0.00003
  29       12D+1        0.00000   0.00000   0.00000   0.00000   0.00000
  30       12D-1        0.00000   0.00001   0.00008   0.00051  -0.01369
  31       12D+2        0.00027   0.00018  -0.00026   0.00074   0.00004
  32       12D-2        0.00000   0.00000   0.00000   0.00000   0.00000
  33       13F 0       -0.00003   0.00003  -0.00272  -0.00181  -0.00009
  34       13F+1        0.00000   0.00000   0.00000   0.00000   0.00000
  35       13F-1        0.00000   0.00000  -0.00001  -0.00020   0.00481
  36       13F+2        0.00005  -0.00001   0.00014  -0.00049  -0.00002
  37       13F-2        0.00000   0.00000   0.00000   0.00000   0.00000
  38       13F+3        0.00000   0.00000   0.00000   0.00000   0.00000
  39       13F-3        0.00000   0.00000   0.00000  -0.00005   0.00125
  40       14F 0        0.00034   0.00041  -0.00117  -0.00044  -0.00003
  41       14F+1        0.00000   0.00000   0.00000   0.00000   0.00000
  42       14F-1        0.00000   0.00000  -0.00001  -0.00013   0.00326
  43       14F+2       -0.00002   0.00004  -0.00087  -0.00071  -0.00002
  44       14F-2        0.00000   0.00000   0.00000   0.00000   0.00000
  45       14F+3        0.00000   0.00000   0.00000   0.00000   0.00000
  46       14F-3        0.00000   0.00000   0.00000  -0.00006   0.00143
  47 2   C  1S          0.83020   0.52300  -0.08458  -0.14802  -0.00654
  48        2S         -0.01112  -0.00596   0.20418   0.41290   0.01819
  49        3S          0.03443   0.02178   0.04559   0.09714   0.00419
  50        4S          0.00348   0.00329   0.12603   0.30073   0.01469
  51        5S          0.00181   0.00137   0.00612   0.01615   0.00103
  52        6PX         0.00000   0.00000   0.00000   0.00000   0.00000
  53        6PY         0.00002   0.00001  -0.00046  -0.00918   0.18622
  54        6PZ         0.00094   0.00053   0.04826  -0.05283  -0.00198
  55        7PX         0.00000   0.00000   0.00000   0.00000   0.00000
  56        7PY        -0.00005  -0.00004  -0.00100  -0.01208   0.24561
  57        7PZ         0.00060   0.00373   0.01504  -0.07464  -0.00302
  58        8PX         0.00000   0.00000   0.00000   0.00000   0.00000
  59        8PY        -0.00007  -0.00001  -0.00048  -0.00443   0.06148
  60        8PZ        -0.00098  -0.00008  -0.03943  -0.05560  -0.00252
  61        9PX         0.00000   0.00000   0.00000   0.00000   0.00000
  62        9PY         0.00000   0.00000   0.00007   0.00051  -0.01504
  63        9PZ        -0.00016   0.00003  -0.00251  -0.00024   0.00003
  64       10D 0        0.00051   0.00069   0.01353   0.00152   0.00016
  65       10D+1        0.00000   0.00000   0.00000   0.00000   0.00000
  66       10D-1        0.00000   0.00000   0.00002  -0.00019   0.00850
  67       10D+2       -0.00044  -0.00022  -0.00314  -0.00958  -0.00036
  68       10D-2        0.00000   0.00000   0.00000   0.00000   0.00000
  69       11D 0       -0.00073   0.00110   0.00253  -0.00191   0.00017
  70       11D+1        0.00000   0.00000   0.00000   0.00000   0.00000
  71       11D-1        0.00004   0.00003   0.00013   0.00083  -0.01009
  72       11D+2        0.00034   0.00072  -0.01498  -0.02484  -0.00098
  73       11D-2        0.00000   0.00000   0.00000   0.00000   0.00000
  74       12D 0       -0.00043  -0.00135  -0.01725   0.00257  -0.00013
  75       12D+1        0.00000   0.00000   0.00000   0.00000   0.00000
  76       12D-1        0.00000  -0.00001   0.00007   0.00111  -0.01755
  77       12D+2       -0.00048  -0.00086  -0.00941  -0.00227  -0.00030
  78       12D-2        0.00000   0.00000   0.00000   0.00000   0.00000
  79       13F 0        0.00070   0.00044   0.00546   0.00532   0.00026
  80       13F+1        0.00000   0.00000   0.00000   0.00000   0.00000
  81       13F-1        0.00000   0.00000   0.00001  -0.00031   0.00875
  82       13F+2        0.00051   0.00019   0.00361   0.00452   0.00024
  83       13F-2        0.00000   0.00000   0.00000   0.00000   0.00000
  84       13F+3        0.00000   0.00000   0.00000   0.00000   0.00000
  85       13F-3        0.00000   0.00000   0.00001   0.00004  -0.00062
  86       14F 0       -0.00151  -0.00011  -0.00037   0.00376   0.00016
  87       14F+1        0.00000   0.00000   0.00000   0.00000   0.00000
  88       14F-1       -0.00002   0.00000   0.00008  -0.00026   0.00770
  89       14F+2       -0.00087  -0.00035   0.00270   0.00728   0.00032
  90       14F-2        0.00000   0.00000   0.00000   0.00000   0.00000
  91       14F+3        0.00000   0.00000   0.00000   0.00000   0.00000
  92       14F-3        0.00000   0.00000   0.00004   0.00006   0.00021
  93 3   H  1S         -0.00107  -0.00057   0.02535   0.09179   0.07635
  94        2S         -0.00063   0.00042  -0.00001   0.08420   0.06716
  95        3S         -0.00339  -0.00266  -0.04514  -0.03003  -0.01327
  96        4S         -0.00027  -0.00016  -0.00183  -0.00230   0.00761
  97        5PX         0.00000   0.00000   0.00000   0.00000   0.00000
  98        5PY         0.00036   0.00016  -0.00128  -0.00786  -0.00555
  99        5PZ        -0.00024  -0.00010   0.00103   0.00374   0.00645
 100        6PX         0.00000   0.00000   0.00000   0.00000   0.00000
 101        6PY         0.00047  -0.00019   0.00949  -0.00019   0.01265
 102        6PZ        -0.00018   0.00031  -0.00933  -0.00460   0.00392
 103        7PX         0.00000   0.00000   0.00000   0.00000   0.00000
 104        7PY         0.00048  -0.00013   0.00672   0.01592   0.00636
 105        7PZ        -0.00066  -0.00100  -0.01795  -0.00645   0.00700
 106        8D 0        0.00007   0.00001   0.00030  -0.00031   0.00181
 107        8D+1        0.00000   0.00000   0.00000   0.00000   0.00000
 108        8D-1        0.00028   0.00013   0.00065  -0.00082  -0.00269
 109        8D+2        0.00018   0.00008   0.00051  -0.00117  -0.00018
 110        8D-2        0.00000   0.00000   0.00000   0.00000   0.00000
 111        9D 0       -0.00024  -0.00003  -0.00189  -0.00115   0.00105
 112        9D+1        0.00000   0.00000   0.00000   0.00000   0.00000
 113        9D-1       -0.00011  -0.00003   0.00381   0.00212   0.00367
 114        9D+2        0.00024   0.00000   0.00168   0.00152   0.00323
 115        9D-2        0.00000   0.00000   0.00000   0.00000   0.00000
 116 4   H  1S         -0.00110  -0.00058   0.02587   0.09993  -0.06891
 117        2S         -0.00079   0.00032  -0.00054   0.09085  -0.06011
 118        3S         -0.00358  -0.00271  -0.04635  -0.03350   0.00917
 119        4S         -0.00027  -0.00017  -0.00175  -0.00178  -0.00788
 120        5PX         0.00000   0.00000   0.00000   0.00000   0.00000
 121        5PY        -0.00036  -0.00016   0.00132   0.00849  -0.00502
 122        5PZ        -0.00024  -0.00010   0.00108   0.00432  -0.00619
 123        6PX         0.00000   0.00000   0.00000   0.00000   0.00000
 124        6PY        -0.00054   0.00014  -0.00988  -0.00114   0.01265
 125        6PZ        -0.00020   0.00027  -0.00953  -0.00435  -0.00438
 126        7PX         0.00000   0.00000   0.00000   0.00000   0.00000
 127        7PY        -0.00054   0.00011  -0.00712  -0.01722   0.00497
 128        7PZ        -0.00068  -0.00101  -0.01801  -0.00607  -0.00822
 129        8D 0        0.00008   0.00001   0.00034  -0.00015  -0.00180
 130        8D+1        0.00000   0.00000   0.00000   0.00000   0.00000
 131        8D-1       -0.00027  -0.00013  -0.00061   0.00107  -0.00266
 132        8D+2        0.00018   0.00008   0.00051  -0.00120   0.00011
 133        8D-2        0.00000   0.00000   0.00000   0.00000   0.00000
 134        9D 0       -0.00024  -0.00004  -0.00184  -0.00098  -0.00113
 135        9D+1        0.00000   0.00000   0.00000   0.00000   0.00000
 136        9D-1        0.00010   0.00001  -0.00392  -0.00239   0.00340
 137        9D+2        0.00025   0.00001   0.00177   0.00185  -0.00312
 138        9D-2        0.00000   0.00000   0.00000   0.00000   0.00000
                           6         7         8         9        10
     Eigenvalues --     1.96014   1.95686   1.92262   0.06607   0.02805
   1 1   O  1S          0.00374  -0.00024   0.00000   0.00000   0.00410
   2        2S          0.00960   0.00042   0.00000   0.00000  -0.01572
   3        3S          0.00717   0.00006   0.00000   0.00000  -0.00598
   4        4S          0.11851  -0.00114   0.00000   0.00000  -0.03211
   5        5S          0.06295  -0.00031   0.00000   0.00000  -0.01781
   6        6PX         0.00000   0.00000   0.28149  -0.36416   0.00000
   7        6PY         0.00438   0.24116   0.00000   0.00000  -0.40310
   8        6PZ         0.28270  -0.00353   0.00000   0.00000   0.02442
   9        7PX         0.00000   0.00000   0.35427  -0.43383   0.00000
  10        7PY         0.00534   0.29736   0.00000   0.00000  -0.30491
  11        7PZ         0.34143  -0.00430   0.00000   0.00000   0.02941
  12        8PX         0.00000   0.00000   0.23364  -0.08039   0.00000
  13        8PY         0.00431   0.24309   0.00000   0.00000   0.18148
  14        8PZ         0.18447  -0.00219   0.00000   0.00000   0.00675
  15        9PX         0.00000   0.00000   0.02104   0.00298   0.00000
  16        9PY         0.00081   0.04067   0.00000   0.00000   0.10004
  17        9PZ         0.00375  -0.00007   0.00000   0.00000   0.00185
  18       10D 0       -0.01202   0.00016   0.00000   0.00000   0.00146
  19       10D+1        0.00000   0.00000  -0.01005  -0.01300   0.00000
  20       10D-1       -0.00001  -0.00097   0.00000   0.00000  -0.03086
  21       10D+2       -0.00015  -0.00001   0.00000   0.00000   0.00061
  22       10D-2        0.00000   0.00000   0.00000   0.00001   0.00000
  23       11D 0       -0.02914   0.00041   0.00000   0.00000   0.00029
  24       11D+1        0.00000   0.00000  -0.02825  -0.01205   0.00000
  25       11D-1       -0.00004  -0.00231   0.00000   0.00000  -0.03975
  26       11D+2       -0.00103   0.00002   0.00000   0.00000   0.00114
  27       11D-2        0.00000   0.00000   0.00000   0.00004   0.00000
  28       12D 0       -0.00707   0.00010   0.00000   0.00000  -0.00021
  29       12D+1        0.00000   0.00000  -0.01233   0.01572   0.00000
  30       12D-1       -0.00009  -0.00354   0.00000   0.00000   0.01504
  31       12D+2       -0.00123   0.00005   0.00000   0.00000   0.00059
  32       12D-2        0.00000   0.00000  -0.00001   0.00005   0.00000
  33       13F 0        0.00478  -0.00007   0.00000   0.00000   0.00009
  34       13F+1        0.00000   0.00000   0.00505   0.00443   0.00000
  35       13F-1        0.00000   0.00049   0.00000   0.00000   0.00694
  36       13F+2        0.00119  -0.00001   0.00000   0.00000   0.00004
  37       13F-2        0.00000   0.00000   0.00000   0.00000   0.00000
  38       13F+3        0.00000   0.00000   0.00155  -0.00359   0.00000
  39       13F-3        0.00002   0.00126   0.00000   0.00000  -0.00164
  40       14F 0        0.00651  -0.00011   0.00000   0.00000  -0.00029
  41       14F+1        0.00000   0.00000   0.00348  -0.00357   0.00000
  42       14F-1        0.00005   0.00172   0.00000   0.00000  -0.00199
  43       14F+2        0.00090  -0.00003   0.00000   0.00000  -0.00005
  44       14F-2        0.00000   0.00000   0.00000  -0.00002   0.00000
  45       14F+3        0.00000   0.00000   0.00121  -0.00308   0.00000
  46       14F-3       -0.00001  -0.00005   0.00000   0.00000  -0.00278
  47 2   C  1S          0.01601   0.00047   0.00000   0.00000  -0.01179
  48        2S         -0.03171  -0.00143   0.00000   0.00000   0.04337
  49        3S         -0.00971  -0.00023   0.00000   0.00000   0.01799
  50        4S          0.10656  -0.00076   0.00000   0.00000   0.02210
  51        5S          0.00025  -0.00001   0.00000   0.00000   0.00679
  52        6PX         0.00000   0.00000   0.18999   0.31073   0.00000
  53        6PY        -0.00282  -0.16483   0.00000   0.00000   0.33333
  54        6PZ        -0.23920   0.00409   0.00000   0.00000   0.00771
  55        7PX         0.00000   0.00000   0.24864   0.48066   0.00000
  56        7PY        -0.00385  -0.23065   0.00000   0.00000   0.63965
  57        7PZ        -0.25335   0.00450   0.00000   0.00000   0.02317
  58        8PX         0.00000   0.00000   0.12423   0.18996   0.00000
  59        8PY        -0.00394  -0.25454   0.00000   0.00000   0.33218
  60        8PZ        -0.08509   0.00185   0.00000   0.00000   0.01088
  61        9PX         0.00000   0.00000   0.00178   0.00337   0.00000
  62        9PY        -0.00049  -0.02311   0.00000   0.00000  -0.03841
  63        9PZ        -0.00188   0.00005   0.00000   0.00000   0.00062
  64       10D 0       -0.01915   0.00013   0.00000   0.00000  -0.00104
  65       10D+1        0.00000   0.00000   0.01984  -0.00034   0.00000
  66       10D-1        0.00053   0.03305   0.00000   0.00000   0.03828
  67       10D+2       -0.00603   0.00005   0.00000   0.00000   0.00037
  68       10D-2        0.00000   0.00000   0.00000  -0.00004   0.00000
  69       11D 0       -0.01227  -0.00015   0.00000   0.00000   0.00565
  70       11D+1        0.00000   0.00000   0.02956   0.03792   0.00000
  71       11D-1        0.00129   0.08297   0.00000   0.00000   0.03149
  72       11D+2       -0.00599  -0.00008   0.00000   0.00000   0.00401
  73       11D-2        0.00000   0.00000  -0.00002  -0.00001   0.00000
  74       12D 0        0.00051  -0.00061   0.00000   0.00000   0.00251
  75       12D+1        0.00000   0.00000  -0.00401   0.00928   0.00000
  76       12D-1        0.00101   0.06727   0.00000   0.00000   0.03566
  77       12D+2       -0.00581  -0.00021   0.00000   0.00000   0.00008
  78       12D-2        0.00000   0.00000  -0.00005  -0.00018   0.00000
  79       13F 0       -0.00738   0.00006   0.00000   0.00000   0.00046
  80       13F+1        0.00000   0.00000   0.00683   0.00917   0.00000
  81       13F-1        0.00012   0.00430   0.00000   0.00000   0.02430
  82       13F+2       -0.00154  -0.00003   0.00000   0.00000   0.00028
  83       13F-2        0.00000   0.00000  -0.00001  -0.00001   0.00000
  84       13F+3        0.00000   0.00000   0.00023  -0.00113   0.00000
  85       13F-3        0.00006   0.00256   0.00000   0.00000  -0.00368
  86       14F 0        0.01012  -0.00012   0.00000   0.00000  -0.00013
  87       14F+1        0.00000   0.00000   0.00464   0.01655   0.00000
  88       14F-1        0.00031   0.00527   0.00000   0.00000   0.10361
  89       14F+2        0.00652  -0.00011   0.00000   0.00000  -0.00064
  90       14F-2        0.00000   0.00000  -0.00001  -0.00002   0.00000
  91       14F+3        0.00000   0.00000   0.00231   0.00618   0.00000
  92       14F-3        0.00012   0.00586   0.00000   0.00000   0.00601
  93 3   H  1S          0.06907  -0.13698   0.00000   0.00000  -0.16065
  94        2S          0.09737  -0.17217   0.00000   0.00000  -0.56476
  95        3S          0.00648   0.08295   0.00000   0.00000  -0.46636
  96        4S          0.00048   0.00978   0.00000   0.00000   0.00604
  97        5PX         0.00000   0.00000   0.00342   0.01209   0.00000
  98        5PY        -0.00784   0.00700   0.00000   0.00000  -0.00504
  99        5PZ         0.00155  -0.00486   0.00000   0.00000   0.01846
 100        6PX         0.00000   0.00000   0.01017   0.02421   0.00000
 101        6PY        -0.01323  -0.00715   0.00000   0.00000   0.13084
 102        6PZ         0.00191   0.00465   0.00000   0.00000   0.02749
 103        7PX         0.00000   0.00000  -0.00402  -0.00687   0.00000
 104        7PY         0.00338  -0.04284   0.00000   0.00000   0.08478
 105        7PZ        -0.00288   0.02032   0.00000   0.00000  -0.02722
 106        8D 0       -0.00207   0.00051   0.00000   0.00000   0.00995
 107        8D+1        0.00000   0.00000   0.00118   0.00377   0.00000
 108        8D-1       -0.00143   0.00101   0.00000   0.00000  -0.00854
 109        8D+2       -0.00213   0.00076   0.00000   0.00000   0.00434
 110        8D-2        0.00000   0.00000  -0.00127  -0.00597   0.00000
 111        9D 0        0.00380  -0.00256   0.00000   0.00000   0.00938
 112        9D+1        0.00000   0.00000   0.00138   0.00158   0.00000
 113        9D-1        0.00018   0.00018   0.00000   0.00000   0.01649
 114        9D+2       -0.00229  -0.00140   0.00000   0.00000   0.01785
 115        9D-2        0.00000   0.00000   0.00101   0.00374   0.00000
 116 4   H  1S          0.07333   0.13393   0.00000   0.00000   0.14063
 117        2S          0.10228   0.16640   0.00000   0.00000   0.53888
 118        3S          0.00395  -0.08624   0.00000   0.00000   0.46447
 119        4S          0.00000  -0.00988   0.00000   0.00000  -0.00718
 120        5PX         0.00000   0.00000   0.00349   0.01226   0.00000
 121        5PY         0.00810   0.00675   0.00000   0.00000  -0.00513
 122        5PZ         0.00155   0.00471   0.00000   0.00000  -0.01767
 123        6PX         0.00000   0.00000   0.01022   0.02421   0.00000
 124        6PY         0.01303  -0.00782   0.00000   0.00000   0.13248
 125        6PZ         0.00138  -0.00472   0.00000   0.00000  -0.02204
 126        7PX         0.00000   0.00000  -0.00412  -0.00730   0.00000
 127        7PY        -0.00463  -0.04285   0.00000   0.00000   0.08568
 128        7PZ        -0.00344  -0.02027   0.00000   0.00000   0.03046
 129        8D 0       -0.00221  -0.00046   0.00000   0.00000  -0.00957
 130        8D+1        0.00000   0.00000   0.00119   0.00372   0.00000
 131        8D-1        0.00131   0.00092   0.00000   0.00000  -0.00787
 132        8D+2       -0.00216  -0.00066   0.00000   0.00000  -0.00436
 133        8D-2        0.00000   0.00000   0.00130   0.00607   0.00000
 134        9D 0        0.00387   0.00253   0.00000   0.00000  -0.00817
 135        9D+1        0.00000   0.00000   0.00133   0.00147   0.00000
 136        9D-1       -0.00020   0.00025   0.00000   0.00000   0.01843
 137        9D+2       -0.00226   0.00143   0.00000   0.00000  -0.01779
 138        9D-2        0.00000   0.00000  -0.00105  -0.00385   0.00000
                          11        12        13        14        15
     Eigenvalues --     0.02644   0.02008   0.01203   0.01189   0.00761
   1 1   O  1S         -0.07251  -0.02568   0.00226  -0.23654   0.00033
   2        2S          0.28320   0.11141  -0.00738   0.74359  -0.00043
   3        3S          0.10910   0.04887  -0.00633   0.63273  -0.00087
   4        4S          0.61685   0.38400   0.01373  -1.37182   0.00519
   5        5S          0.37326   0.27203   0.00322  -0.58894   0.00265
   6        6PX         0.00000   0.00000   0.00000   0.00000   0.00000
   7        6PY        -0.02555   0.00830   0.44067   0.00421   0.13782
   8        6PZ        -0.43931  -0.11287  -0.00314   0.26223  -0.00027
   9        7PX         0.00000   0.00000   0.00000   0.00000   0.00000
  10        7PY        -0.01858   0.00544   0.19508   0.00168   0.02882
  11        7PZ        -0.52669  -0.17073  -0.00131   0.06792  -0.00061
  12        8PX         0.00000   0.00000   0.00000   0.00000   0.00000
  13        8PY         0.01215  -0.00365  -0.41728  -0.00505  -0.19808
  14        8PZ        -0.11559  -0.18661   0.00000  -0.11799  -0.00283
  15        9PX         0.00000   0.00000   0.00000   0.00000   0.00000
  16        9PY         0.00597  -0.00154  -0.06133  -0.00075  -0.04613
  17        9PZ        -0.04141  -0.05294  -0.00039   0.04173  -0.00111
  18       10D 0       -0.03085  -0.02131  -0.00028   0.00601  -0.00108
  19       10D+1        0.00000   0.00000   0.00000   0.00000   0.00000
  20       10D-1       -0.00193   0.00075  -0.01010  -0.00021  -0.20846
  21       10D+2       -0.01026   0.00288   0.00009  -0.02484  -0.00003
  22       10D-2        0.00000   0.00000   0.00000   0.00000   0.00000
  23       11D 0       -0.01696  -0.03248   0.00001  -0.03131  -0.00209
  24       11D+1        0.00000   0.00000   0.00000   0.00000   0.00000
  25       11D-1       -0.00241   0.00081  -0.07529  -0.00100  -0.51216
  26       11D+2       -0.02069   0.01054  -0.00049   0.00058   0.00014
  27       11D-2        0.00000   0.00000   0.00000   0.00000   0.00000
  28       12D 0        0.00004   0.02915   0.00041  -0.02997   0.00031
  29       12D+1        0.00000   0.00000   0.00000   0.00000   0.00000
  30       12D-1        0.00110  -0.00087  -0.01251  -0.00011  -0.12106
  31       12D+2       -0.00906   0.00241  -0.00071   0.00856   0.00028
  32       12D-2        0.00000   0.00000   0.00000   0.00000   0.00000
  33       13F 0       -0.00012   0.00444   0.00006  -0.00246   0.00018
  34       13F+1        0.00000   0.00000   0.00000   0.00000   0.00000
  35       13F-1        0.00042  -0.00015   0.01297   0.00014   0.03473
  36       13F+2       -0.00077  -0.00163   0.00002   0.00030   0.00003
  37       13F-2        0.00000   0.00000   0.00000   0.00000   0.00000
  38       13F+3        0.00000   0.00000   0.00000   0.00000   0.00000
  39       13F-3       -0.00009   0.00000  -0.00272  -0.00003  -0.00034
  40       14F 0        0.00823   0.01013  -0.00006   0.01853   0.00018
  41       14F+1        0.00000   0.00000   0.00000   0.00000   0.00000
  42       14F-1       -0.00011   0.00000   0.00717   0.00010   0.07592
  43       14F+2        0.00038  -0.00574   0.00018   0.00726  -0.00027
  44       14F-2        0.00000   0.00000   0.00000   0.00000   0.00000
  45       14F+3        0.00000   0.00000   0.00000   0.00000   0.00000
  46       14F-3       -0.00019   0.00015   0.01754   0.00014   0.00204
  47 2   C  1S          0.16429  -0.11590   0.00096  -0.00095   0.00005
  48        2S         -0.61210   0.45600  -0.00426   0.06938   0.00012
  49        3S         -0.25396   0.26244  -0.00362   0.06743   0.00018
  50        4S         -0.20568   0.06423  -0.00984  -0.12145   0.00158
  51        5S         -0.11082  -0.09458  -0.00165   0.11425   0.00015
  52        6PX         0.00000   0.00000   0.00000   0.00000   0.00000
  53        6PY         0.01966  -0.00578   0.41708   0.00445  -0.12566
  54        6PZ        -0.24142  -0.40318   0.00036  -0.01557  -0.00163
  55        7PX         0.00000   0.00000   0.00000   0.00000   0.00000
  56        7PY         0.03548  -0.00769   0.78889   0.00981  -0.17028
  57        7PZ        -0.57581  -0.70521  -0.00249   0.12813  -0.00082
  58        8PX         0.00000   0.00000   0.00000   0.00000   0.00000
  59        8PY         0.01818  -0.00461   0.59695   0.00707   0.08160
  60        8PZ        -0.31085  -0.22189  -0.00221   0.27452  -0.00033
  61        9PX         0.00000   0.00000   0.00000   0.00000   0.00000
  62        9PY        -0.00193   0.00073   0.04955   0.00028   0.00024
  63        9PZ        -0.01391  -0.00753   0.00006   0.02009   0.00020
  64       10D 0        0.01796   0.01432  -0.00006   0.01217  -0.00157
  65       10D+1        0.00000   0.00000   0.00000   0.00000   0.00000
  66       10D-1        0.00274  -0.00126  -0.10012  -0.00084   0.24539
  67       10D+2       -0.00538   0.01521   0.00001  -0.02771  -0.00074
  68       10D-2        0.00000   0.00000   0.00000   0.00000   0.00000
  69       11D 0       -0.09369  -0.06715   0.00177  -0.01476  -0.00311
  70       11D+1        0.00000   0.00000   0.00000   0.00000   0.00000
  71       11D-1        0.00375  -0.00450  -0.57035  -0.00570   0.09356
  72       11D+2       -0.07618  -0.03183   0.00097  -0.02176  -0.00258
  73       11D-2        0.00000   0.00000   0.00000   0.00000   0.00000
  74       12D 0       -0.06597  -0.03669   0.00233   0.10497  -0.00041
  75       12D+1        0.00000   0.00000   0.00000   0.00000   0.00000
  76       12D-1        0.00322  -0.00184  -0.19920  -0.00112  -0.15620
  77       12D+2       -0.02166  -0.02564   0.00154   0.05773  -0.00081
  78       12D-2        0.00000   0.00000   0.00000   0.00000   0.00000
  79       13F 0       -0.00877  -0.01548   0.00015  -0.00018  -0.00007
  80       13F+1        0.00000   0.00000   0.00000   0.00000   0.00000
  81       13F-1        0.00153  -0.00048  -0.00791   0.00009   0.00865
  82       13F+2        0.00005   0.01046   0.00025  -0.00086   0.00015
  83       13F-2        0.00000   0.00000   0.00000   0.00000   0.00000
  84       13F+3        0.00000   0.00000   0.00000   0.00000   0.00000
  85       13F-3       -0.00014  -0.00020  -0.02462  -0.00019   0.01813
  86       14F 0       -0.00114  -0.00345   0.00054  -0.03149   0.00017
  87       14F+1        0.00000   0.00000   0.00000   0.00000   0.00000
  88       14F-1        0.00683  -0.00257  -0.12494  -0.00058  -0.08440
  89       14F+2        0.01778   0.01144   0.00064  -0.01400  -0.00023
  90       14F-2        0.00000   0.00000   0.00000   0.00000   0.00000
  91       14F+3        0.00000   0.00000   0.00000   0.00000   0.00000
  92       14F-3        0.00049  -0.00040  -0.08826  -0.00064   0.01256
  93 3   H  1S          0.09128  -0.23953  -0.09529   0.05991  -0.12290
  94        2S          0.01658  -0.61949  -0.87975   0.13173   0.07455
  95        3S         -0.12272  -0.18344  -0.76037   0.18178   0.05417
  96        4S          0.00672   0.00732  -0.03656  -0.00604   0.01412
  97        5PX         0.00000   0.00000   0.00000   0.00000   0.00000
  98        5PY        -0.00305  -0.02390  -0.03285  -0.01358   0.06429
  99        5PZ        -0.01146  -0.00831   0.01750   0.00808  -0.01213
 100        6PX         0.00000   0.00000   0.00000   0.00000   0.00000
 101        6PY         0.03290   0.05126   0.13021  -0.04251   0.07809
 102        6PZ        -0.06538  -0.07822  -0.17499   0.02710  -0.01422
 103        7PX         0.00000   0.00000   0.00000   0.00000   0.00000
 104        7PY         0.02231   0.01814   0.15810  -0.00834   0.05981
 105        7PZ        -0.05508  -0.03570  -0.09665   0.09644   0.02776
 106        8D 0       -0.00287  -0.01141  -0.00606  -0.00260   0.01852
 107        8D+1        0.00000   0.00000   0.00000   0.00000   0.00000
 108        8D-1        0.00771  -0.00261  -0.00656  -0.00574   0.00564
 109        8D+2       -0.00022  -0.01006  -0.01186  -0.00698   0.01611
 110        8D-2        0.00000   0.00000   0.00000   0.00000   0.00000
 111        9D 0       -0.00511  -0.00082   0.00806  -0.00658   0.02293
 112        9D+1        0.00000   0.00000   0.00000   0.00000   0.00000
 113        9D-1        0.02101   0.01469   0.01560  -0.01966   0.00899
 114        9D+2        0.00074   0.00866   0.00729  -0.00300   0.01779
 115        9D-2        0.00000   0.00000   0.00000   0.00000   0.00000
 116 4   H  1S          0.10915  -0.24508   0.09575   0.06295   0.12397
 117        2S          0.07760  -0.63026   0.88706   0.15228  -0.08171
 118        3S         -0.07106  -0.19326   0.76792   0.19907  -0.05812
 119        4S          0.00679   0.00807   0.03703  -0.00588  -0.01404
 120        5PX         0.00000   0.00000   0.00000   0.00000   0.00000
 121        5PY         0.00226   0.02426  -0.03412   0.01316   0.06437
 122        5PZ        -0.01400  -0.00790  -0.01731   0.00751   0.01144
 123        6PX         0.00000   0.00000   0.00000   0.00000   0.00000
 124        6PY        -0.01930  -0.05348   0.13005   0.04734   0.07688
 125        6PZ        -0.06940  -0.07388   0.17188   0.02923   0.01080
 126        7PX         0.00000   0.00000   0.00000   0.00000   0.00000
 127        7PY        -0.01376  -0.01929   0.15771   0.01265   0.06034
 128        7PZ        -0.05144  -0.03550   0.09543   0.09856  -0.03102
 129        8D 0       -0.00384  -0.01111   0.00630  -0.00276  -0.01878
 130        8D+1        0.00000   0.00000   0.00000   0.00000   0.00000
 131        8D-1       -0.00891   0.00298  -0.00695   0.00544   0.00507
 132        8D+2       -0.00064  -0.01016   0.01248  -0.00695  -0.01611
 133        8D-2        0.00000   0.00000   0.00000   0.00000   0.00000
 134        9D 0       -0.00548  -0.00034  -0.00951  -0.00723  -0.02425
 135        9D+1        0.00000   0.00000   0.00000   0.00000   0.00000
 136        9D-1       -0.01922  -0.01431   0.01428   0.02020   0.00823
 137        9D+2       -0.00106   0.00886  -0.00698  -0.00358  -0.01831
 138        9D-2        0.00000   0.00000   0.00000   0.00000   0.00000
                          16        17        18        19        20
     Eigenvalues --     0.00747   0.00719   0.00707   0.00701   0.00599
   1 1   O  1S         -0.01356   0.00000   0.00000  -0.02453   0.00000
   2        2S          0.02490   0.00000   0.00000   0.05505   0.00000
   3        3S          0.03730   0.00000   0.00000   0.07520   0.00000
   4        4S         -0.08223   0.00000   0.00000  -0.19677   0.00000
   5        5S          0.11427   0.00000   0.00000  -0.12133   0.00000
   6        6PX         0.00000   0.21175   0.00307   0.00000  -0.45052
   7        6PY         0.00067   0.00000   0.00000  -0.00012   0.00000
   8        6PZ        -0.05926   0.00000   0.00000   0.14278   0.00000
   9        7PX         0.00000   0.09851   0.00150   0.00000  -0.16244
  10        7PY         0.00046   0.00000   0.00000   0.00007   0.00000
  11        7PZ         0.01337   0.00000   0.00000   0.02004   0.00000
  12        8PX         0.00000  -0.38906  -0.00480   0.00000   0.53931
  13        8PY        -0.00051   0.00000   0.00000   0.00170   0.00000
  14        8PZ         0.20189   0.00000   0.00000  -0.25976   0.00000
  15        9PX         0.00000  -0.08155  -0.00110   0.00000   0.08312
  16        9PY        -0.00051   0.00000   0.00000   0.00075   0.00000
  17        9PZ         0.00014   0.00000   0.00000  -0.01024   0.00000
  18       10D 0        0.20614   0.00000   0.00000  -0.06921   0.00000
  19       10D+1        0.00000  -0.19787  -0.00266   0.00000  -0.09782
  20       10D-1       -0.00124   0.00000   0.00000  -0.00009   0.00000
  21       10D+2        0.04549   0.00000   0.00000   0.16602   0.00000
  22       10D-2        0.00000  -0.00253   0.19682   0.00000   0.00036
  23       11D 0        0.45278   0.00000   0.00000  -0.15688   0.00000
  24       11D+1        0.00000  -0.46952  -0.00646   0.00000  -0.19132
  25       11D-1       -0.00307   0.00000   0.00000  -0.00028   0.00000
  26       11D+2        0.09136   0.00000   0.00000   0.39279   0.00000
  27       11D-2        0.00000  -0.00537   0.43347   0.00000   0.00062
  28       12D 0        0.05888   0.00000   0.00000   0.04610   0.00000
  29       12D+1        0.00000  -0.00523  -0.00038   0.00000  -0.07192
  30       12D-1       -0.00050   0.00000   0.00000  -0.00041   0.00000
  31       12D+2        0.01644   0.00000   0.00000   0.10254   0.00000
  32       12D-2        0.00000  -0.00085   0.07609   0.00000   0.00004
  33       13F 0       -0.03840   0.00000   0.00000   0.01610   0.00000
  34       13F+1        0.00000   0.04903   0.00066   0.00000  -0.00692
  35       13F-1        0.00026   0.00000   0.00000   0.00002   0.00000
  36       13F+2       -0.00590   0.00000   0.00000  -0.02057   0.00000
  37       13F-2        0.00000   0.00035  -0.02456   0.00000  -0.00003
  38       13F+3        0.00000  -0.00644  -0.00008   0.00000   0.01600
  39       13F-3       -0.00002   0.00000   0.00000  -0.00003   0.00000
  40       14F 0       -0.07153   0.00000   0.00000   0.01136   0.00000
  41       14F+1        0.00000   0.05435   0.00074   0.00000   0.02566
  42       14F-1        0.00039   0.00000   0.00000   0.00002   0.00000
  43       14F+2       -0.00699   0.00000   0.00000  -0.05034   0.00000
  44       14F-2        0.00000   0.00047  -0.04616   0.00000   0.00006
  45       14F+3        0.00000   0.00820   0.00020   0.00000  -0.01044
  46       14F-3        0.00008   0.00000   0.00000  -0.00005   0.00000
  47 2   C  1S         -0.05900   0.00000   0.00000   0.09224   0.00000
  48        2S          0.15486   0.00000   0.00000  -0.28697   0.00000
  49        3S          0.10802   0.00000   0.00000  -0.25688   0.00000
  50        4S          0.11068   0.00000   0.00000  -0.61698   0.00000
  51        5S         -0.01621   0.00000   0.00000  -0.07771   0.00000
  52        6PX         0.00000   0.25626   0.00344   0.00000  -0.19791
  53        6PY         0.00079   0.00000   0.00000   0.00052   0.00000
  54        6PZ         0.24766   0.00000   0.00000   0.05343   0.00000
  55        7PX         0.00000   0.14390   0.00291   0.00000  -0.33491
  56        7PY        -0.00245   0.00000   0.00000   0.00358   0.00000
  57        7PZ        -0.25709   0.00000   0.00000   0.21515   0.00000
  58        8PX         0.00000  -0.13706  -0.00122   0.00000   0.09701
  59        8PY        -0.00399   0.00000   0.00000   0.00179   0.00000
  60        8PZ        -0.08449   0.00000   0.00000   0.29729   0.00000
  61        9PX         0.00000   0.02423   0.00039   0.00000  -0.01886
  62        9PY         0.00034   0.00000   0.00000  -0.00044   0.00000
  63        9PZ         0.00595   0.00000   0.00000   0.02321   0.00000
  64       10D 0        0.21933   0.00000   0.00000  -0.02820   0.00000
  65       10D+1        0.00000   0.18746   0.00241   0.00000   0.21014
  66       10D-1        0.00178   0.00000   0.00000   0.00027   0.00000
  67       10D+2        0.05856   0.00000   0.00000   0.22303   0.00000
  68       10D-2        0.00000  -0.00336   0.24604   0.00000   0.00032
  69       11D 0        0.14984   0.00000   0.00000   0.04030   0.00000
  70       11D+1        0.00000   0.03163  -0.00065   0.00000   0.30892
  71       11D-1        0.00062   0.00000   0.00000  -0.00139   0.00000
  72       11D+2        0.02321   0.00000   0.00000   0.42317   0.00000
  73       11D-2        0.00000  -0.00502   0.31024   0.00000   0.00014
  74       12D 0       -0.03214   0.00000   0.00000   0.08343   0.00000
  75       12D+1        0.00000   0.00594  -0.00019   0.00000  -0.04867
  76       12D-1       -0.00035   0.00000   0.00000  -0.00090   0.00000
  77       12D+2       -0.01687   0.00000   0.00000   0.07391   0.00000
  78       12D-2        0.00000  -0.00012   0.00925   0.00000   0.00007
  79       13F 0        0.05562   0.00000   0.00000  -0.05235   0.00000
  80       13F+1        0.00000   0.04190   0.00079   0.00000  -0.00496
  81       13F-1        0.00004   0.00000   0.00000  -0.00008   0.00000
  82       13F+2        0.01761   0.00000   0.00000   0.00084   0.00000
  83       13F-2        0.00000   0.00001   0.00842   0.00000   0.00026
  84       13F+3        0.00000  -0.00109   0.00006   0.00000   0.04776
  85       13F-3       -0.00006   0.00000   0.00000  -0.00032   0.00000
  86       14F 0       -0.04558   0.00000   0.00000  -0.09018   0.00000
  87       14F+1        0.00000  -0.06505  -0.00122   0.00000   0.03614
  88       14F-1       -0.00129   0.00000   0.00000  -0.00097   0.00000
  89       14F+2       -0.02542   0.00000   0.00000  -0.11065   0.00000
  90       14F-2        0.00000  -0.00026  -0.00912   0.00000   0.00033
  91       14F+3        0.00000  -0.06001  -0.00111   0.00000   0.03758
  92       14F-3       -0.00011   0.00000   0.00000  -0.00002   0.00000
  93 3   H  1S         -0.03512   0.00000   0.00000  -0.09519   0.00000
  94        2S         -0.08394   0.00000   0.00000   0.47326   0.00000
  95        3S         -0.05838   0.00000   0.00000   0.42223   0.00000
  96        4S          0.00021   0.00000   0.00000   0.01461   0.00000
  97        5PX         0.00000  -0.01956   0.06971   0.00000  -0.06441
  98        5PY         0.00091   0.00000   0.00000   0.03268   0.00000
  99        5PZ        -0.05632   0.00000   0.00000  -0.04867   0.00000
 100        6PX         0.00000  -0.15002   0.11545   0.00000  -0.04307
 101        6PY         0.05606   0.00000   0.00000  -0.07251   0.00000
 102        6PZ        -0.14810   0.00000   0.00000   0.00665   0.00000
 103        7PX         0.00000  -0.05105   0.00362   0.00000  -0.00115
 104        7PY         0.01778   0.00000   0.00000  -0.05164   0.00000
 105        7PZ        -0.07124   0.00000   0.00000   0.06706   0.00000
 106        8D 0       -0.01331   0.00000   0.00000  -0.01556   0.00000
 107        8D+1        0.00000  -0.00396   0.02580   0.00000  -0.01137
 108        8D-1        0.02843   0.00000   0.00000   0.01443   0.00000
 109        8D+2       -0.00065   0.00000   0.00000   0.01056   0.00000
 110        8D-2        0.00000   0.01710  -0.03808   0.00000   0.03312
 111        9D 0       -0.02233   0.00000   0.00000  -0.01318   0.00000
 112        9D+1        0.00000  -0.05671   0.00118   0.00000   0.03453
 113        9D-1        0.02768   0.00000   0.00000  -0.00924   0.00000
 114        9D+2        0.02208   0.00000   0.00000   0.01947   0.00000
 115        9D-2        0.00000   0.02886  -0.00596   0.00000  -0.01350
 116 4   H  1S         -0.03599   0.00000   0.00000  -0.09704   0.00000
 117        2S         -0.08605   0.00000   0.00000   0.48452   0.00000
 118        3S         -0.06630   0.00000   0.00000   0.43161   0.00000
 119        4S          0.00054   0.00000   0.00000   0.01410   0.00000
 120        5PX         0.00000  -0.01745  -0.07103   0.00000  -0.06469
 121        5PY        -0.00133   0.00000   0.00000  -0.03340   0.00000
 122        5PZ        -0.05656   0.00000   0.00000  -0.04870   0.00000
 123        6PX         0.00000  -0.14730  -0.12021   0.00000  -0.04136
 124        6PY        -0.05866   0.00000   0.00000   0.07617   0.00000
 125        6PZ        -0.14761   0.00000   0.00000   0.00608   0.00000
 126        7PX         0.00000  -0.05109  -0.00560   0.00000  -0.00046
 127        7PY        -0.02008   0.00000   0.00000   0.05448   0.00000
 128        7PZ        -0.07274   0.00000   0.00000   0.06606   0.00000
 129        8D 0       -0.01260   0.00000   0.00000  -0.01565   0.00000
 130        8D+1        0.00000  -0.00285  -0.02561   0.00000  -0.01083
 131        8D-1       -0.02844   0.00000   0.00000  -0.01445   0.00000
 132        8D+2       -0.00029   0.00000   0.00000   0.01059   0.00000
 133        8D-2        0.00000  -0.01585  -0.03892   0.00000  -0.03321
 134        9D 0       -0.02204   0.00000   0.00000  -0.01411   0.00000
 135        9D+1        0.00000  -0.05649  -0.00319   0.00000   0.03445
 136        9D-1       -0.02782   0.00000   0.00000   0.00989   0.00000
 137        9D+2        0.02256   0.00000   0.00000   0.01906   0.00000
 138        9D-2        0.00000  -0.02911  -0.00695   0.00000   0.01401
                          21        22        23        24        25
     Eigenvalues --     0.00520   0.00484   0.00335   0.00283   0.00251
   1 1   O  1S         -0.00834   0.00000  -0.00162   0.11764   0.00000
   2        2S          0.01968   0.00000   0.00514  -0.33055   0.00000
   3        3S          0.00524   0.00000   0.00516  -0.37505   0.00000
   4        4S          0.38790   0.00000   0.00680  -0.28281   0.00000
   5        5S          0.12895   0.00000   0.00751  -0.50262   0.00000
   6        6PX         0.00000   0.00027   0.00000   0.00000  -0.15006
   7        6PY         0.00016   0.00000   0.19117   0.00287   0.00000
   8        6PZ        -0.20163   0.00000  -0.00507   0.36708   0.00000
   9        7PX         0.00000   0.00005   0.00000   0.00000   0.03723
  10        7PY        -0.00002   0.00000  -0.04457  -0.00213   0.00000
  11        7PZ        -0.04836   0.00000  -0.00186   0.08516   0.00000
  12        8PX         0.00000  -0.00112   0.00000   0.00000  -0.40949
  13        8PY        -0.00137   0.00000  -0.72207  -0.01761   0.00000
  14        8PZ         0.01391   0.00000   0.00368  -0.24587   0.00000
  15        9PX         0.00000  -0.00029   0.00000   0.00000  -0.06561
  16        9PY        -0.00054   0.00000  -0.04541  -0.00207   0.00000
  17        9PZ        -0.01819   0.00000  -0.00119   0.06406   0.00000
  18       10D 0        0.05969   0.00000   0.00251  -0.17063   0.00000
  19       10D+1        0.00000   0.00085   0.00000   0.00000   0.33025
  20       10D-1        0.00033   0.00000   0.30199   0.00569   0.00000
  21       10D+2        0.26069   0.00000  -0.00118   0.08096   0.00000
  22       10D-2        0.00000   0.27418   0.00000   0.00000  -0.00102
  23       11D 0        0.13311   0.00000   0.00519  -0.34728   0.00000
  24       11D+1        0.00000   0.00165   0.00000   0.00000   0.55259
  25       11D-1        0.00091   0.00000   0.46274   0.00940   0.00000
  26       11D+2        0.50928   0.00000  -0.00101   0.06124   0.00000
  27       11D-2        0.00000   0.51467   0.00000   0.00000  -0.00154
  28       12D 0        0.02233   0.00000  -0.00050   0.03864   0.00000
  29       12D+1        0.00000   0.00055   0.00000   0.00000   0.18824
  30       12D-1        0.00024   0.00000   0.17950   0.00457   0.00000
  31       12D+2        0.07494   0.00000   0.00158  -0.07628   0.00000
  32       12D-2        0.00000   0.09843   0.00000   0.00000   0.00004
  33       13F 0       -0.01200   0.00000  -0.00018   0.00765   0.00000
  34       13F+1        0.00000  -0.00002   0.00000   0.00000   0.03215
  35       13F-1       -0.00004   0.00000   0.00480   0.00019   0.00000
  36       13F+2       -0.01262   0.00000   0.00010  -0.00050   0.00000
  37       13F-2        0.00000  -0.00018   0.00000   0.00000  -0.00012
  38       13F+3        0.00000   0.00000   0.00000   0.00000  -0.01048
  39       13F-3       -0.00003   0.00000  -0.00141  -0.00001   0.00000
  40       14F 0       -0.01123   0.00000  -0.00052   0.02221   0.00000
  41       14F+1        0.00000  -0.00011   0.00000   0.00000  -0.02256
  42       14F-1       -0.00012   0.00000  -0.01957  -0.00038   0.00000
  43       14F+2       -0.03498   0.00000  -0.00074   0.03865   0.00000
  44       14F-2        0.00000  -0.02471   0.00000   0.00000  -0.00006
  45       14F+3        0.00000  -0.00007   0.00000   0.00000  -0.01596
  46       14F-3       -0.00001   0.00000  -0.00241  -0.00012   0.00000
  47 2   C  1S         -0.03662   0.00000   0.00081  -0.04207   0.00000
  48        2S          0.12362   0.00000  -0.00403   0.16479   0.00000
  49        3S          0.11670   0.00000  -0.00331   0.15549   0.00000
  50        4S         -0.22809   0.00000   0.00089  -0.20066   0.00000
  51        5S         -0.07726   0.00000  -0.00023   0.05198   0.00000
  52        6PX         0.00000   0.00077   0.00000   0.00000   0.51143
  53        6PY         0.00017   0.00000   0.12468   0.00447   0.00000
  54        6PZ        -0.15053   0.00000  -0.00229   0.23916   0.00000
  55        7PX         0.00000   0.00019   0.00000   0.00000   0.41038
  56        7PY         0.00109   0.00000   0.31301   0.00362   0.00000
  57        7PZ        -0.26392   0.00000  -0.00278   0.16478   0.00000
  58        8PX         0.00000  -0.00052   0.00000   0.00000   0.14368
  59        8PY         0.00008   0.00000   1.50363   0.02780   0.00000
  60        8PZ        -0.10106   0.00000  -0.01801   0.70325   0.00000
  61        9PX         0.00000   0.00009   0.00000   0.00000   0.01443
  62        9PY         0.00032   0.00000   0.02723   0.00134   0.00000
  63        9PZ        -0.00377   0.00000  -0.00044   0.03449   0.00000
  64       10D 0       -0.08358   0.00000  -0.00312   0.28510   0.00000
  65       10D+1        0.00000  -0.00040   0.00000   0.00000   0.18228
  66       10D-1       -0.00085   0.00000   0.09626   0.00348   0.00000
  67       10D+2       -0.11455   0.00000   0.00061  -0.05307   0.00000
  68       10D-2        0.00000  -0.20639   0.00000   0.00000   0.00124
  69       11D 0       -0.21639   0.00000  -0.00841   0.52471   0.00000
  70       11D+1        0.00000   0.00090   0.00000   0.00000   0.37548
  71       11D-1       -0.00055   0.00000   0.29070   0.00834   0.00000
  72       11D+2       -0.24460   0.00000   0.00008  -0.10962   0.00000
  73       11D-2        0.00000  -0.25821   0.00000   0.00000   0.00029
  74       12D 0       -0.00797   0.00000  -0.00252   0.24278   0.00000
  75       12D+1        0.00000   0.00042   0.00000   0.00000   0.03747
  76       12D-1        0.00117   0.00000  -0.15558   0.00101   0.00000
  77       12D+2        0.03592   0.00000  -0.00245   0.15620   0.00000
  78       12D-2        0.00000   0.04382   0.00000   0.00000  -0.00079
  79       13F 0        0.06589   0.00000   0.00145  -0.03578   0.00000
  80       13F+1        0.00000  -0.00042   0.00000   0.00000  -0.00610
  81       13F-1        0.00020   0.00000  -0.22561  -0.00244   0.00000
  82       13F+2        0.09254   0.00000  -0.00081   0.07314   0.00000
  83       13F-2        0.00000   0.10241   0.00000   0.00000   0.00052
  84       13F+3        0.00000  -0.00021   0.00000   0.00000   0.03776
  85       13F-3        0.00009   0.00000  -0.00302   0.00068   0.00000
  86       14F 0        0.05346   0.00000  -0.00306   0.18145   0.00000
  87       14F+1        0.00000   0.00017   0.00000   0.00000   0.09136
  88       14F-1        0.00085   0.00000   0.01946   0.00347   0.00000
  89       14F+2        0.07741   0.00000  -0.00192   0.10904   0.00000
  90       14F-2        0.00000   0.00701   0.00000   0.00000   0.00036
  91       14F+3        0.00000   0.00006   0.00000   0.00000   0.00299
  92       14F-3        0.00016   0.00000   0.00442   0.00033   0.00000
  93 3   H  1S          0.16155   0.00000  -0.29968   0.23512   0.00000
  94        2S         -0.24132   0.00000  -0.13895  -0.09112   0.00000
  95        3S         -0.10554   0.00000  -1.12575   0.27514   0.00000
  96        4S          0.00622   0.00000  -0.01608   0.00099   0.00000
  97        5PX         0.00000  -0.09206   0.00000   0.00000  -0.09032
  98        5PY        -0.01597   0.00000   0.10595  -0.10085   0.00000
  99        5PZ         0.06542   0.00000   0.01704  -0.04115   0.00000
 100        6PX         0.00000  -0.20240   0.00000   0.00000  -0.23624
 101        6PY         0.07144   0.00000   0.15520  -0.07053   0.00000
 102        6PZ         0.03430   0.00000   0.06960  -0.12136   0.00000
 103        7PX         0.00000  -0.06546   0.00000   0.00000  -0.07122
 104        7PY         0.03893   0.00000   0.33415   0.02417   0.00000
 105        7PZ         0.00319   0.00000  -0.17923   0.10064   0.00000
 106        8D 0        0.02097   0.00000   0.00751  -0.03402   0.00000
 107        8D+1        0.00000  -0.02958   0.00000   0.00000  -0.02025
 108        8D-1       -0.02271   0.00000   0.01849   0.00910   0.00000
 109        8D+2       -0.00286   0.00000   0.02728  -0.04714   0.00000
 110        8D-2        0.00000   0.04191   0.00000   0.00000   0.04504
 111        9D 0        0.00159   0.00000   0.01410   0.02225   0.00000
 112        9D+1        0.00000   0.00114   0.00000   0.00000  -0.01720
 113        9D-1        0.00509   0.00000   0.00301   0.02348   0.00000
 114        9D+2       -0.01308   0.00000   0.03162  -0.01362   0.00000
 115        9D-2        0.00000   0.02236   0.00000   0.00000   0.03786
 116 4   H  1S          0.16456   0.00000   0.29177   0.24478   0.00000
 117        2S         -0.24433   0.00000   0.13765  -0.09408   0.00000
 118        3S         -0.10856   0.00000   1.12233   0.31377   0.00000
 119        4S          0.00675   0.00000   0.01602   0.00245   0.00000
 120        5PX         0.00000   0.09312   0.00000   0.00000  -0.09094
 121        5PY         0.01690   0.00000   0.10311   0.10433   0.00000
 122        5PZ         0.06560   0.00000  -0.01767  -0.04344   0.00000
 123        6PX         0.00000   0.20214   0.00000   0.00000  -0.23647
 124        6PY        -0.07105   0.00000   0.15132   0.07209   0.00000
 125        6PZ         0.03467   0.00000  -0.06916  -0.12570   0.00000
 126        7PX         0.00000   0.06567   0.00000   0.00000  -0.07257
 127        7PY        -0.03958   0.00000   0.33525  -0.01434   0.00000
 128        7PZ         0.00409   0.00000   0.17295   0.10789   0.00000
 129        8D 0        0.02082   0.00000  -0.00688  -0.03438   0.00000
 130        8D+1        0.00000   0.02925   0.00000   0.00000  -0.01981
 131        8D-1        0.02333   0.00000   0.01787  -0.01012   0.00000
 132        8D+2       -0.00324   0.00000  -0.02596  -0.04812   0.00000
 133        8D-2        0.00000   0.04238   0.00000   0.00000  -0.04535
 134        9D 0        0.00194   0.00000  -0.01531   0.02237   0.00000
 135        9D+1        0.00000  -0.00182   0.00000   0.00000  -0.01714
 136        9D-1       -0.00483   0.00000   0.00311  -0.02412   0.00000
 137        9D+2       -0.01313   0.00000  -0.03122  -0.01402   0.00000
 138        9D-2        0.00000   0.02237   0.00000   0.00000  -0.03820
                          26        27        28        29        30
     Eigenvalues --     0.00212   0.00163   0.00139   0.00132   0.00107
   1 1   O  1S         -0.00027   0.00962   0.04996  -0.00054   0.00000
   2        2S          0.00166  -0.03253  -0.28103   0.00255   0.00000
   3        3S          0.00128  -0.02926  -0.27554   0.00287   0.00000
   4        4S          0.00446  -0.03953   0.19491  -0.00376   0.00000
   5        5S          0.00438   0.15615  -0.47633   0.00541   0.00000
   6        6PX         0.00000   0.00000   0.00000   0.00000   0.03985
   7        6PY        -0.29194   0.00297  -0.00308  -0.46237   0.00000
   8        6PZ        -0.00094   0.23413   0.13973  -0.00051   0.00000
   9        7PX         0.00000   0.00000   0.00000   0.00000  -0.03412
  10        7PY         0.13626  -0.00201   0.00225   0.48899   0.00000
  11        7PZ        -0.00157  -0.16802   0.13027  -0.00146   0.00000
  12        8PX         0.00000   0.00000   0.00000   0.00000  -0.00529
  13        8PY        -0.23758   0.00653  -0.00563  -0.08851   0.00000
  14        8PZ         0.00008  -0.26777  -1.01907   0.00886   0.00000
  15        9PX         0.00000   0.00000   0.00000   0.00000   0.00602
  16        9PY        -0.04607   0.00180  -0.00147  -0.19451   0.00000
  17        9PZ        -0.00142  -0.01733   0.05481  -0.00042   0.00000
  18       10D 0        0.00019   0.19233   0.39735  -0.00187   0.00000
  19       10D+1        0.00000   0.00000   0.00000   0.00000   0.00469
  20       10D-1        0.05371  -0.00209   0.00243   0.16288   0.00000
  21       10D+2        0.00043   0.25905  -0.09015   0.00327   0.00000
  22       10D-2        0.00000   0.00000   0.00000   0.00000  -0.34450
  23       11D 0        0.00108   0.18055   0.35097  -0.00168   0.00000
  24       11D+1        0.00000   0.00000   0.00000   0.00000   0.00039
  25       11D-1        0.21362  -0.00393   0.00361   0.18882   0.00000
  26       11D+2        0.00112   0.24637  -0.16251   0.00353   0.00000
  27       11D-2        0.00000   0.00000   0.00000   0.00000  -0.21561
  28       12D 0       -0.00010   0.04580   0.22454  -0.00185   0.00000
  29       12D+1        0.00000   0.00000   0.00000   0.00000  -0.00996
  30       12D-1        0.14325  -0.00245   0.00166   0.09736   0.00000
  31       12D+2        0.00098  -0.02921  -0.06568   0.00001   0.00000
  32       12D-2        0.00000   0.00000   0.00000   0.00000   0.08931
  33       13F 0        0.00003   0.07582   0.13915   0.00002   0.00000
  34       13F+1        0.00000   0.00000   0.00000   0.00000  -0.00106
  35       13F-1       -0.00481  -0.00096   0.00144   0.15610   0.00000
  36       13F+2        0.00018   0.06409  -0.05208   0.00149   0.00000
  37       13F-2        0.00000   0.00000   0.00000   0.00000  -0.21212
  38       13F+3        0.00000   0.00000   0.00000   0.00000  -0.00023
  39       13F-3        0.01256   0.00017  -0.00005  -0.01134   0.00000
  40       14F 0       -0.00030   0.01746   0.05975  -0.00010   0.00000
  41       14F+1        0.00000   0.00000   0.00000   0.00000   0.00346
  42       14F-1       -0.05156   0.00004   0.00036   0.04643   0.00000
  43       14F+2       -0.00058   0.04720  -0.01423   0.00096   0.00000
  44       14F-2        0.00000   0.00000   0.00000   0.00000  -0.13944
  45       14F+3        0.00000   0.00000   0.00000   0.00000   0.00113
  46       14F-3       -0.01729   0.00029  -0.00019  -0.01271   0.00000
  47 2   C  1S         -0.00023   0.07228   0.15226  -0.00264   0.00000
  48        2S         -0.00027  -0.27832  -0.50076   0.00858   0.00000
  49        3S          0.00026  -0.36188  -0.68215   0.00984   0.00000
  50        4S          0.00494   1.26803  -1.29873   0.02020   0.00000
  51        5S          0.00125   0.05563  -0.08591  -0.00046   0.00000
  52        6PX         0.00000   0.00000   0.00000   0.00000  -0.00721
  53        6PY         0.30128  -0.00368   0.00243   0.15033   0.00000
  54        6PZ        -0.00098  -0.25737  -0.49487  -0.00331   0.00000
  55        7PX         0.00000   0.00000   0.00000   0.00000  -0.00804
  56        7PY         0.31968  -0.00803   0.01100   0.40006   0.00000
  57        7PZ        -0.00490  -0.07515   0.12742  -0.00061   0.00000
  58        8PX         0.00000   0.00000   0.00000   0.00000   0.02934
  59        8PY         1.44968  -0.01295   0.00625  -1.24972   0.00000
  60        8PZ        -0.01063  -0.30081   0.86432  -0.00306   0.00000
  61        9PX         0.00000   0.00000   0.00000   0.00000  -0.00260
  62        9PY         0.04682  -0.00155   0.00078   0.03454   0.00000
  63        9PZ        -0.00011  -0.01829  -0.00652  -0.00004   0.00000
  64       10D 0       -0.00095   0.11543   0.12239  -0.00137   0.00000
  65       10D+1        0.00000   0.00000   0.00000   0.00000   0.00123
  66       10D-1       -0.03251  -0.00424   0.00554   0.53665   0.00000
  67       10D+2       -0.00039  -0.30129   0.22892  -0.00469   0.00000
  68       10D-2        0.00000   0.00000   0.00000   0.00000   0.26008
  69       11D 0       -0.00134   0.16490   0.25359  -0.00096   0.00000
  70       11D+1        0.00000   0.00000   0.00000   0.00000   0.00075
  71       11D-1        0.08555  -0.00169  -0.00018  -0.03428   0.00000
  72       11D+2       -0.00163  -0.47920   0.26661  -0.00620   0.00000
  73       11D-2        0.00000   0.00000   0.00000   0.00000   0.35941
  74       12D 0       -0.00135   0.04798   0.48561  -0.00601   0.00000
  75       12D+1        0.00000   0.00000   0.00000   0.00000   0.00005
  76       12D-1       -0.41850  -0.00014   0.00230   0.09620   0.00000
  77       12D+2       -0.00242  -0.04523   0.31197  -0.00334   0.00000
  78       12D-2        0.00000   0.00000   0.00000   0.00000   0.00715
  79       13F 0       -0.00173  -0.12501   0.02160  -0.00129   0.00000
  80       13F+1        0.00000   0.00000   0.00000   0.00000  -0.01033
  81       13F-1        0.24872  -0.00181   0.00152   0.07378   0.00000
  82       13F+2       -0.00157  -0.19087   0.09897  -0.00264   0.00000
  83       13F-2        0.00000   0.00000   0.00000   0.00000   0.38961
  84       13F+3        0.00000   0.00000   0.00000   0.00000   0.01083
  85       13F-3        0.13753   0.00044  -0.00051  -0.10583   0.00000
  86       14F 0       -0.00078  -0.07466   0.10845  -0.00264   0.00000
  87       14F+1        0.00000   0.00000   0.00000   0.00000  -0.00540
  88       14F-1        0.15432  -0.00219   0.00257   0.05739   0.00000
  89       14F+2       -0.00061  -0.07686   0.06611  -0.00189   0.00000
  90       14F-2        0.00000   0.00000   0.00000   0.00000   0.14916
  91       14F+3        0.00000   0.00000   0.00000   0.00000   0.00170
  92       14F-3        0.02650   0.00093  -0.00014  -0.04342   0.00000
  93 3   H  1S         -0.38543  -0.26615   0.22478   0.29608   0.00000
  94        2S         -0.25267  -0.26477   0.27735  -0.13399   0.00000
  95        3S         -1.16044  -0.27778   0.78351   0.85995   0.00000
  96        4S         -0.02055  -0.00901   0.01038  -0.00509   0.00000
  97        5PX         0.00000   0.00000   0.00000   0.00000  -0.12124
  98        5PY         0.02283   0.01986  -0.05266   0.03280   0.00000
  99        5PZ        -0.15907   0.02073  -0.00751   0.02928   0.00000
 100        6PX         0.00000   0.00000   0.00000   0.00000  -0.29080
 101        6PY        -0.02685   0.05345  -0.09604   0.30356   0.00000
 102        6PZ        -0.30327   0.00532   0.09975  -0.08124   0.00000
 103        7PX         0.00000   0.00000   0.00000   0.00000  -0.05194
 104        7PY         0.30120   0.09240   0.01973  -0.12745   0.00000
 105        7PZ        -0.20120  -0.03499   0.36588   0.06566   0.00000
 106        8D 0       -0.03220   0.01858  -0.02225   0.03488   0.00000
 107        8D+1        0.00000   0.00000   0.00000   0.00000  -0.00674
 108        8D-1        0.05142   0.01075  -0.01508  -0.02262   0.00000
 109        8D+2        0.00694   0.00139  -0.03152   0.01381   0.00000
 110        8D-2        0.00000   0.00000   0.00000   0.00000   0.03089
 111        9D 0       -0.03022  -0.01434   0.02453   0.01251   0.00000
 112        9D+1        0.00000   0.00000   0.00000   0.00000  -0.02143
 113        9D-1        0.03533  -0.01403  -0.03606   0.02888   0.00000
 114        9D+2       -0.00235  -0.00348   0.01004   0.04924   0.00000
 115        9D-2        0.00000   0.00000   0.00000   0.00000   0.04305
 116 4   H  1S          0.38674  -0.26448   0.22240  -0.30791   0.00000
 117        2S          0.24017  -0.27369   0.29239   0.13072   0.00000
 118        3S          1.15298  -0.30981   0.80272  -0.88023   0.00000
 119        4S          0.02039  -0.01146   0.01171   0.00504   0.00000
 120        5PX         0.00000   0.00000   0.00000   0.00000   0.10540
 121        5PY         0.02358  -0.02132   0.05410   0.02806   0.00000
 122        5PZ         0.15882   0.02137  -0.00848  -0.03010   0.00000
 123        6PX         0.00000   0.00000   0.00000   0.00000   0.27585
 124        6PY        -0.02798  -0.05886   0.10748   0.29432   0.00000
 125        6PZ         0.29891   0.00284   0.10274   0.07626   0.00000
 126        7PX         0.00000   0.00000   0.00000   0.00000   0.05489
 127        7PY         0.30289  -0.10013  -0.01313  -0.13046   0.00000
 128        7PZ         0.19203  -0.04090   0.36900  -0.07388   0.00000
 129        8D 0        0.03111   0.01897  -0.02333  -0.03331   0.00000
 130        8D+1        0.00000   0.00000   0.00000   0.00000   0.00279
 131        8D-1        0.05137  -0.01099   0.01452  -0.02500   0.00000
 132        8D+2       -0.00706   0.00206  -0.03256  -0.01166   0.00000
 133        8D-2        0.00000   0.00000   0.00000   0.00000   0.02400
 134        9D 0        0.02912  -0.01492   0.02319  -0.01342   0.00000
 135        9D+1        0.00000   0.00000   0.00000   0.00000   0.02197
 136        9D-1        0.03523   0.01422   0.03787   0.02652   0.00000
 137        9D+2        0.00187  -0.00268   0.00820  -0.04821   0.00000
 138        9D-2        0.00000   0.00000   0.00000   0.00000   0.04869
                          31        32        33        34        35
     Eigenvalues --     0.00105   0.00087   0.00085   0.00080   0.00065
   1 1   O  1S          0.00000   0.00000   0.04804   0.00048  -0.26318
   2        2S          0.00000   0.00000   0.00127   0.00219  -0.21122
   3        3S          0.00000   0.00000  -0.11826   0.00015   0.70315
   4        4S          0.00000   0.00000   0.11258   0.00575   0.13459
   5        5S          0.00000   0.00000   0.13672   0.00257   0.63357
   6        6PX         0.72879  -0.00796   0.00000   0.00000   0.00000
   7        6PY         0.00000   0.00000  -0.01763   0.70007  -0.00238
   8        6PZ         0.00000   0.00000   0.23853   0.00608   0.73326
   9        7PX        -0.63517  -0.04119   0.00000   0.00000   0.00000
  10        7PY         0.00000   0.00000   0.02867  -1.10829   0.00298
  11        7PZ         0.00000   0.00000  -0.21446  -0.00908  -1.21945
  12        8PX        -0.17243   0.44106   0.00000   0.00000   0.00000
  13        8PY         0.00000   0.00000   0.02260  -0.43799  -0.00545
  14        8PZ         0.00000   0.00000   0.18761   0.00720   0.62704
  15        9PX         0.10838   0.03647   0.00000   0.00000   0.00000
  16        9PY         0.00000   0.00000  -0.00344   0.17286  -0.00134
  17        9PZ         0.00000   0.00000   0.02703   0.00223   0.13258
  18       10D 0        0.00000   0.00000  -0.04897  -0.00189   0.10808
  19       10D+1        0.13760  -0.24621   0.00000   0.00000   0.00000
  20       10D-1        0.00000   0.00000  -0.01043   0.21440   0.00179
  21       10D+2        0.00000   0.00000   0.00804   0.00122  -0.15850
[...]
   6        6PX         0.01441   0.00000   0.00000   0.00000   0.00000
   7        6PY         0.00000  -0.00028   0.00271  -0.00429  -0.00008
   8        6PZ         0.00000   0.02303   0.00165  -0.00001  -0.01684
   9        7PX        -0.06141   0.00000   0.00000   0.00000   0.00000
  10        7PY         0.00000  -0.00136   0.02109  -0.04029   0.00008
  11        7PZ         0.00000  -0.13220  -0.00766  -0.00049   0.03508
  12        8PX         0.42952   0.00000   0.00000   0.00000   0.00000
  13        8PY         0.00000  -0.17012   3.25735  -2.36972   0.06410
  14        8PZ         0.00000   3.66134   0.23818  -0.04939   0.82267
  15        9PX        -0.67593   0.00000   0.00000   0.00000   0.00000
  16        9PY         0.00000   0.10043  -0.80890  -0.11628   0.01095
  17        9PZ         0.00000   5.51780   0.38588  -0.05887  -0.36847
  18       10D 0        0.00000  -0.02858  -0.00196  -0.00002   0.00904
  19       10D+1        0.00544   0.00000   0.00000   0.00000   0.00000
  20       10D-1        0.00000  -0.00057   0.01049  -0.00766   0.00007
  21       10D+2        0.00000   0.03462   0.00226  -0.00038   0.00760
  22       10D-2        0.00024   0.00000   0.00000   0.00000   0.00000
  23       11D 0        0.00000   0.04747   0.00421   0.00087  -0.05156
  24       11D+1       -0.06130   0.00000   0.00000   0.00000   0.00000
  25       11D-1        0.00000   0.00349  -0.07100   0.10060  -0.00183
  26       11D+2        0.00000  -0.13060  -0.00847   0.00172  -0.02771
  27       11D-2       -0.00090   0.00000   0.00000   0.00000   0.00000
  28       12D 0        0.00000  -1.74010  -0.09838   0.01749  -0.44955
  29       12D+1       -0.09017   0.00000   0.00000   0.00000   0.00000
  30       12D-1        0.00000   0.07638  -1.52942   1.04563  -0.03077
  31       12D+2        0.00000   0.29578   0.02095  -0.00327  -0.02097
  32       12D-2        0.00066   0.00000   0.00000   0.00000   0.00000
  33       13F 0        0.00000  -0.00544   0.00016   0.00028  -0.00775
  34       13F+1       -0.00706   0.00000   0.00000   0.00000   0.00000
  35       13F-1        0.00000   0.00238  -0.04200   0.02332  -0.00023
  36       13F+2        0.00000   0.00463   0.00026  -0.00006  -0.00362
  37       13F-2       -0.00037   0.00000   0.00000   0.00000   0.00000
  38       13F+3        0.01983   0.00000   0.00000   0.00000   0.00000
  39       13F-3        0.00000  -0.00118   0.01267  -0.01144  -0.00002
  40       14F 0        0.00000   0.13135   0.00519  -0.00207   0.07954
  41       14F+1        0.08081   0.00000   0.00000   0.00000   0.00000
  42       14F-1        0.00000  -0.00854   0.16634  -0.12240   0.00297
  43       14F+2        0.00000  -0.01713  -0.00127   0.00018   0.00268
  44       14F-2        0.00103   0.00000   0.00000   0.00000   0.00000
  45       14F+3       -0.03146   0.00000   0.00000   0.00000   0.00000
  46       14F-3        0.00000   0.00242  -0.02861   0.01336  -0.00025
  47 2   C  1S          0.00000   0.07699   0.00419  -0.00069   0.20467
  48        2S          0.00000   0.42753   0.02275  -0.00427   1.23462
  49        3S          0.00000  -0.07472  -0.00531   0.00136   0.00103
  50        4S          0.00000   5.44115   0.23712  -0.20640  25.37270
  51        5S          0.00000   7.99239   0.42624  -0.18627  10.31719
  52        6PX         0.00489   0.00000   0.00000   0.00000   0.00000
  53        6PY         0.00000  -0.00275   0.02840   0.00714   0.00086
  54        6PZ         0.00000   0.00316  -0.00034  -0.00044   0.03626
  55        7PX         0.01056   0.00000   0.00000   0.00000   0.00000
  56        7PY         0.00000   0.14734  -1.82468  -1.46706  -0.07764
  57        7PZ         0.00000   0.70311   0.04007   0.00347  -1.06216
  58        8PX         3.91845   0.00000   0.00000   0.00000   0.00000
  59        8PY         0.00000   0.92840 -16.55914  -8.67429  -0.54853
  60        8PZ         0.00000  -2.67989   0.05989   0.08848  -9.48528
  61        9PX         2.26207   0.00000   0.00000   0.00000   0.00000
  62        9PY         0.00000  -0.20690   1.55389  -5.33148  -0.07138
  63        9PZ         0.00000  -2.27085  -0.12380   0.05506  -2.07840
  64       10D 0        0.00000  -0.05571  -0.00506   0.00029   0.02098
  65       10D+1        0.01558   0.00000   0.00000   0.00000   0.00000
  66       10D-1        0.00000  -0.00215   0.01468   0.02244   0.00168
  67       10D+2        0.00000   0.02186   0.00149   0.00024  -0.05369
  68       10D-2        0.00064   0.00000   0.00000   0.00000   0.00000
  69       11D 0        0.00000   0.71987   0.04511  -0.02302   0.13568
  70       11D+1       -0.37054   0.00000   0.00000   0.00000   0.00000
  71       11D-1        0.00000  -0.11708   1.39459   1.26887   0.03189
  72       11D+2        0.00000  -0.25217  -0.01841  -0.00450  -0.93177
  73       11D-2       -0.00497   0.00000   0.00000   0.00000   0.00000
  74       12D 0        0.00000   1.40142   0.08197  -0.04613   1.78331
  75       12D+1       -1.37957   0.00000   0.00000   0.00000   0.00000
  76       12D-1        0.00000  -0.13440   2.40186   2.41700   0.05975
  77       12D+2        0.00000   0.31895   0.03151  -0.00950  -0.22799
  78       12D-2       -0.03251   0.00000   0.00000   0.00000   0.00000
  79       13F 0        0.00000   0.01951   0.00092  -0.00039   0.02541
  80       13F+1       -0.03852   0.00000   0.00000   0.00000   0.00000
  81       13F-1        0.00000  -0.00259   0.05139  -0.02044   0.00003
  82       13F+2        0.00000   0.00920   0.00084  -0.00067   0.04545
  83       13F-2       -0.00054   0.00000   0.00000   0.00000   0.00000
  84       13F+3        0.10491   0.00000   0.00000   0.00000   0.00000
  85       13F-3        0.00000  -0.00718   0.07306   0.01806   0.00119
  86       14F 0        0.00000  -0.07730   0.01316  -0.00554   0.17897
  87       14F+1        0.05077   0.00000   0.00000   0.00000   0.00000
  88       14F-1        0.00000   0.12780  -2.01944   1.14018  -0.02540
  89       14F+2        0.00000   0.40431   0.02742  -0.00633   0.44940
  90       14F-2        0.00339   0.00000   0.00000   0.00000   0.00000
  91       14F+3       -0.31580   0.00000   0.00000   0.00000   0.00000
  92       14F-3        0.00000   0.02038  -0.23519   0.33842   0.00495
  93 3   H  1S          0.00000   0.02262  -0.06697   0.00828   0.04570
  94        2S          0.00000  -1.58500   2.94516   1.74014  -2.76907
  95        3S          0.00000   0.15659  26.07603  14.71580 -14.01705
  96        4S          0.00000  -0.96821  -1.73730   4.69052  -1.60304
  97        5PX        -0.08389   0.00000   0.00000   0.00000   0.00000
  98        5PY         0.00000   0.01383   0.11801   0.07368  -0.09274
  99        5PZ         0.00000  -0.02264   0.03381  -0.10517   0.03127
 100        6PX        -0.01185   0.00000   0.00000   0.00000   0.00000
 101        6PY         0.00000   0.28749  -2.13884  -0.77689   1.46430
 102        6PZ         0.00000   0.34212  -0.47688   1.46445  -0.60570
 103        7PX        -3.00430   0.00000   0.00000   0.00000   0.00000
 104        7PY         0.00000   0.54168  -9.23442  -2.02798   4.62420
 105        7PZ         0.00000   4.10181   1.81170   2.93615   0.11625
 106        8D 0        0.00000  -0.06143   0.05055  -0.02808  -0.02509
 107        8D+1        0.02565   0.00000   0.00000   0.00000   0.00000
 108        8D-1        0.00000   0.05913  -0.10387  -0.01180   0.06354
 109        8D+2        0.00000   0.03607   0.05434  -0.04543   0.04317
 110        8D-2       -0.06489   0.00000   0.00000   0.00000   0.00000
 111        9D 0        0.00000   0.68326  -1.17425   0.47948   0.41293
 112        9D+1       -0.22805   0.00000   0.00000   0.00000   0.00000
 113        9D-1        0.00000  -0.84317   0.25994  -0.75919   0.14360
 114        9D+2        0.00000  -0.05900  -1.19426   0.11829   0.42277
 115        9D-2        0.49936   0.00000   0.00000   0.00000   0.00000
 116 4   H  1S          0.00000   0.01157   0.06871  -0.00895   0.04883
 117        2S          0.00000  -1.13360  -3.11086  -1.75039  -2.98120
 118        3S          0.00000   3.30824 -25.52206 -14.56885 -15.51117
 119        4S          0.00000  -1.34572   1.62051  -4.64175  -1.71418
 120        5PX        -0.08243   0.00000   0.00000   0.00000   0.00000
 121        5PY         0.00000  -0.02789   0.10993   0.07169   0.09598
 122        5PZ         0.00000  -0.01862  -0.04054   0.10448   0.02990
 123        6PX        -0.02287   0.00000   0.00000   0.00000   0.00000
 124        6PY         0.00000   0.03081  -2.12937  -0.76380  -1.56890
 125        6PZ         0.00000   0.30449   0.55458  -1.46775  -0.61029
 126        7PX        -3.07691   0.00000   0.00000   0.00000   0.00000
 127        7PY         0.00000   0.69343  -9.13587  -1.95522  -5.02100
 128        7PZ         0.00000   4.29125  -1.14934  -2.98994  -0.01954
 129        8D 0        0.00000  -0.05371  -0.05666   0.03001  -0.02315
 130        8D+1        0.02710   0.00000   0.00000   0.00000   0.00000
 131        8D-1        0.00000  -0.04118  -0.11218  -0.01073  -0.06824
 132        8D+2        0.00000   0.04121  -0.04820   0.04510   0.04618
 133        8D-2        0.06684   0.00000   0.00000   0.00000   0.00000
 134        9D 0        0.00000   0.50765   1.24108  -0.48962   0.43421
 135        9D+1       -0.23135   0.00000   0.00000   0.00000   0.00000
 136        9D-1        0.00000   0.81718   0.40222  -0.77130  -0.13852
 137        9D+2        0.00000  -0.23225   1.16125  -0.12832   0.45342
 138        9D-2       -0.51234   0.00000   0.00000   0.00000   0.00000
                         136       137       138
     Eigenvalues --     0.00000   0.00000   0.00000
   1 1   O  1S         -0.06042   0.00008   0.00939
   2        2S         -0.29193   0.00031   0.05128
   3        3S          0.03802  -0.00025   0.00106
   4        4S          4.38967  -0.01350  -1.09536
   5        5S         13.07385  -0.00509  -6.81694
   6        6PX         0.00000   0.00000   0.00000
   7        6PY         0.00006   0.00504  -0.00002
   8        6PZ        -0.00444   0.00007   0.00546
   9        7PX         0.00000   0.00000   0.00000
  10        7PY         0.00023  -0.01322  -0.00001
  11        7PZ        -0.07891   0.00006  -0.03075
  12        8PX         0.00000   0.00000   0.00000
  13        8PY         0.02139   1.45058  -0.00323
  14        8PZ        -1.36178  -0.00417   0.89681
  15        9PX         0.00000   0.00000   0.00000
  16        9PY         0.00730   1.54265   0.00546
  17        9PZ        -1.06008  -0.00912   1.43242
  18       10D 0       -0.01637  -0.00004   0.00144
  19       10D+1        0.00000   0.00000   0.00000
  20       10D-1        0.00005  -0.00230  -0.00004
  21       10D+2        0.00402  -0.00009  -0.00165
  22       10D-2        0.00000   0.00000   0.00000
  23       11D 0        0.10892   0.00037  -0.00565
  24       11D+1        0.00000   0.00000   0.00000
  25       11D-1       -0.00072  -0.01540   0.00022
  26       11D+2       -0.01402   0.00031   0.00411
  27       11D-2        0.00000   0.00000   0.00000
  28       12D 0       -0.09680   0.00280  -0.20145
  29       12D+1        0.00000   0.00000   0.00000
  30       12D-1       -0.00545  -0.57017   0.00068
  31       12D+2        0.32048  -0.00180  -0.04147
  32       12D-2        0.00000   0.00000   0.00000
  33       13F 0       -0.00840   0.00000  -0.00397
  34       13F+1        0.00000   0.00000   0.00000
  35       13F-1       -0.00012  -0.00470   0.00002
  36       13F+2        0.01286   0.00008  -0.00224
  37       13F-2        0.00000   0.00000   0.00000
  38       13F+3        0.00000   0.00000   0.00000
  39       13F-3       -0.00014  -0.00506   0.00001
  40       14F 0        0.01715  -0.00029   0.01730
  41       14F+1        0.00000   0.00000   0.00000
  42       14F-1        0.00034   0.02784  -0.00002
  43       14F+2       -0.06071  -0.00006   0.01091
  44       14F-2        0.00000   0.00000   0.00000
  45       14F+3        0.00000   0.00000   0.00000
  46       14F-3        0.00050   0.01470  -0.00009
  47 2   C  1S         -0.04045  -0.00042   0.00536
  48        2S         -0.23046  -0.00271   0.03662
  49        3S          0.11610  -0.00043   0.02746
  50        4S         -5.33678  -0.06978  10.10138
  51        5S         -4.12938  -0.08088  13.52476
  52        6PX         0.00000   0.00000   0.00000
  53        6PY        -0.00015  -0.01384   0.00012
  54        6PZ        -0.02408   0.00024   0.00229
  55        7PX         0.00000   0.00000   0.00000
  56        7PY         0.00685   0.01648  -0.00520
  57        7PZ         0.25680  -0.00239   0.00752
  58        8PX         0.00000   0.00000   0.00000
  59        8PY        -0.00892  -7.45623  -0.04128
  60        8PZ        -1.37996   0.06472  -0.03510
  61        9PX         0.00000   0.00000   0.00000
  62        9PY        -0.00136  -5.56913  -0.05909
  63        9PZ        -2.32103   0.03952  -0.21327
  64       10D 0        0.01376  -0.00008  -0.00414
  65       10D+1        0.00000   0.00000   0.00000
  66       10D-1       -0.00042  -0.01414   0.00007
  67       10D+2       -0.00475   0.00010  -0.00769
  68       10D-2        0.00000   0.00000   0.00000
  69       11D 0       -0.78556   0.00210   0.13188
  70       11D+1        0.00000   0.00000   0.00000
  71       11D-1       -0.00141  -0.17954   0.00339
  72       11D+2        0.20941   0.00265  -0.05254
  73       11D-2        0.00000   0.00000   0.00000
  74       12D 0       -6.09490   0.01345   0.72465
  75       12D+1        0.00000   0.00000   0.00000
  76       12D-1       -0.04370  -0.75360   0.00479
  77       12D+2       -2.87716   0.01370  -0.29520
  78       12D-2        0.00000   0.00000   0.00000
  79       13F 0       -0.03769   0.00000  -0.00916
  80       13F+1        0.00000   0.00000   0.00000
  81       13F-1       -0.00011   0.01913  -0.00011
  82       13F+2       -0.01716   0.00013  -0.00142
  83       13F-2        0.00000   0.00000   0.00000
  84       13F+3        0.00000   0.00000   0.00000
  85       13F-3       -0.00017  -0.01786   0.00010
  86       14F 0       -0.17292   0.00229   0.06969
  87       14F+1        0.00000   0.00000   0.00000
  88       14F-1       -0.01317  -0.52488   0.00129
  89       14F+2       -0.34022   0.00010   0.05648
  90       14F-2        0.00000   0.00000   0.00000
  91       14F+3        0.00000   0.00000   0.00000
  92       14F-3       -0.00426  -0.03520   0.00063
  93 3   H  1S         -0.01618   0.00875  -0.00308
  94        2S          1.01321  -0.10097  -0.19584
  95        3S         -3.51823  11.34545  -5.25478
  96        4S         -0.30279   8.41380  -2.99009
  97        5PX         0.00000   0.00000   0.00000
  98        5PY         0.00406   0.03067  -0.01291
  99        5PZ         0.04132   0.00166   0.00579
 100        6PX         0.00000   0.00000   0.00000
 101        6PY        -0.44775  -0.26436   0.19122
 102        6PZ        -0.18989  -0.18026  -0.08748
 103        7PX         0.00000   0.00000   0.00000
 104        7PY        -2.25337  -3.61147   1.55384
 105        7PZ        -3.88822   2.55487  -0.61413
 106        8D 0        0.01110  -0.00734   0.00181
 107        8D+1        0.00000   0.00000   0.00000
 108        8D-1       -0.04822   0.02511  -0.00811
 109        8D+2        0.01257   0.04139  -0.00418
 110        8D-2        0.00000   0.00000   0.00000
 111        9D 0       -0.31831  -0.07195   0.04410
 112        9D+1        0.00000   0.00000   0.00000
 113        9D-1        0.28978  -0.09074   0.11203
 114        9D+2       -0.31140  -0.34404   0.11327
 115        9D-2        0.00000   0.00000   0.00000
 116 4   H  1S         -0.01573  -0.00804  -0.00282
 117        2S          1.02153   0.11150  -0.21029
 118        3S         -3.57878 -11.22533  -5.40520
 119        4S         -0.31086  -8.36457  -3.17700
 120        5PX         0.00000   0.00000   0.00000
 121        5PY        -0.00234   0.03040   0.01309
 122        5PZ         0.04045  -0.00176   0.00560
 123        6PX         0.00000   0.00000   0.00000
 124        6PY         0.43606  -0.25874  -0.19782
 125        6PZ        -0.17907   0.18672  -0.08910
 126        7PX         0.00000   0.00000   0.00000
 127        7PY         2.20237  -3.59435  -1.59112
 128        7PZ        -3.90799  -2.48906  -0.62475
 129        8D 0        0.00958   0.00652   0.00178
 130        8D+1        0.00000   0.00000   0.00000
 131        8D-1        0.04814   0.02403   0.00775
 132        8D+2        0.01071  -0.04118  -0.00406
 133        8D-2        0.00000   0.00000   0.00000
 134        9D 0       -0.29903   0.07373   0.04554
 135        9D+1        0.00000   0.00000   0.00000
 136        9D-1       -0.29209  -0.08057  -0.11216
 137        9D+2       -0.29739   0.34284   0.11529
 138        9D-2        0.00000   0.00000   0.00000
          Condensed to atoms (all electrons):
              1          2          3          4
     1  O    8.196109   0.347712  -0.062441  -0.062665
     2  C    0.347712   5.729037   0.207727   0.204615
     3  H   -0.062441   0.207727   0.434818  -0.031603
     4  H   -0.062665   0.204615  -0.031603   0.433344
 Mulliken atomic charges:
              1
     1  O   -0.418716
     2  C   -0.489091
     3  H    0.451498
     4  H    0.456309
 Sum of Mulliken atomic charges =   0.00000
 Mulliken charges with hydrogens summed into heavy atoms:
              1
     1  O   -0.418716
     2  C    0.418716
 Sum of Mulliken charges with hydrogens summed into heavy atoms =   0.00000
 Electronic spatial extent (au):  <R**2>=             60.5444
 Charge=              0.0000 electrons
 Dipole moment (field-independent basis, Debye):
    X=              0.0000    Y=             -0.0036    Z=             -2.4444  Tot=              2.4444
 Quadrupole moment (field-independent basis, Debye-Ang):
   XX=            -11.7331   YY=            -11.6060   ZZ=            -12.2796
   XY=              0.0000   XZ=              0.0000   YZ=             -0.0046
 Traceless Quadrupole moment (field-independent basis, Debye-Ang):
   XX=              0.1398   YY=              0.2669   ZZ=             -0.4067
   XY=              0.0000   XZ=              0.0000   YZ=             -0.0046
 Octapole moment (field-independent basis, Debye-Ang**2):
  XXX=              0.0000  YYY=             -0.0198  ZZZ=              0.2877  XYY=              0.0000
  XXY=             -0.0062  XXZ=              0.5661  XZZ=              0.0000  YZZ=              0.0059
  YYZ=             -0.7213  XYZ=              0.0000
 Hexadecapole moment (field-independent basis, Debye-Ang**3):
 XXXX=            -10.5132 YYYY=            -18.1894 ZZZZ=            -46.1508 XXXY=              0.0000
 XXXZ=              0.0000 YYYX=              0.0000 YYYZ=              0.0282 ZZZX=              0.0000
 ZZZY=              0.0091 XXYY=             -5.1460 XXZZ=             -9.3691 YYZZ=            -10.4370
 XXYZ=              0.0132 YYXZ=              0.0000 ZZXY=              0.0000
 N-N= 3.132801258235D+01 E-N=-3.314159152546D+02  KE= 1.142395961748D+02
 1\1\GINC-TRAPISTA\SP\RQCISD-FC\Aug-CC-pVTZ\C1H2O1\BRUNS\20-Nov-2021\0\
 \# qcisd/aug-cc-pvtz nosymm density=current output=wfn\\h2co-wavefunct
 ion\\0,1\O,0,0.,0.,0.679252\C,0,0.,0.,-0.526911\H,0,0.,0.936614,-1.106
 62\H,0,0.,-0.936614,-1.09662\\Version=EM64L-G09RevB.01\HF=-113.9138889
 \MP2=-114.3163207\MP3=-114.3203655\MP4D=-114.3305701\MP4DQ=-114.321703
 4\MP4SDQ=-114.3269505\QCISD=-114.3269567\RMSD=2.898e-09\Dipole=0.,-0.0
 014168,-0.961716\Quadrupole=0.1039509,0.1984064,-0.3023573,0.,0.,-0.00
 34363\PG=CS [SG(C1H2O1)]\\@

 Writing a WFN file to GAUSSIAN.wfn.


 NATURE WILL TELL YOU A DIRECT LIE IF SHE CAN.

                                -- CHARLES DARWIN
 Job cpu time:  0 days  0 hours 23 minutes 36.7 seconds.
 File lengths (MBytes):  RWF=   5787 Int=      0 D2E=      0 Chk=      2 Scr=      1
 Normal termination of Gaussian 09 at Sat Nov 20 18:57:17 2021.
