 Entering Gaussian System, Link 0=/home/bruns/programas/chemistry/gaussian/g09/g09
 Input=GAUSSIAN.com
 Output=GAUSSIAN.log
 Initial command:
 /home/bruns/programas/chemistry/gaussian/g09/l1.exe /home/bruns/programas/chemistry/gaussian/work/Gau-73685.inp -scrdir=/home/bruns/programas/chemistry/gaussian/work/
 Entering Link 1 = /home/bruns/programas/chemistry/gaussian/g09/l1.exe PID=     73687.
  
 Copyright (c) 1988,1990,1992,1993,1995,1998,2003,2009,2010,
            Gaussian, Inc.  All Rights Reserved.
  
 This is part of the Gaussian(R) 09 program.  It is based on
 the Gaussian(R) 03 system (copyright 2003, Gaussian, Inc.),
 the Gaussian(R) 98 system (copyright 1998, Gaussian, Inc.),
 the Gaussian(R) 94 system (copyright 1995, Gaussian, Inc.),
 the Gaussian 92(TM) system (copyright 1992, Gaussian, Inc.),
 the Gaussian 90(TM) system (copyright 1990, Gaussian, Inc.),
 the Gaussian 88(TM) system (copyright 1988, Gaussian, Inc.),
 the Gaussian 86(TM) system (copyright 1986, Carnegie Mellon
 University), and the Gaussian 82(TM) system (copyright 1983,
 Carnegie Mellon University). Gaussian is a federally registered
 trademark of Gaussian, Inc.
  
 This software contains proprietary and confidential information,
 including trade secrets, belonging to Gaussian, Inc.
  
 This software is provided under written license and may be
 used, copied, transmitted, or stored only in accord with that
 written license.
  
 The following legend is applicable only to US Government
 contracts under FAR:
  
                    RESTRICTED RIGHTS LEGEND
  
 Use, reproduction and disclosure by the US Government is
 subject to restrictions as set forth in subparagraphs (a)
 and (c) of the Commercial Computer Software - Restricted
 Rights clause in FAR 52.227-19.
  
 Gaussian, Inc.
 340 Quinnipiac St., Bldg. 40, Wallingford CT 06492
  
  
 ---------------------------------------------------------------
 Warning -- This program may not be used in any manner that
 competes with the business of Gaussian, Inc. or will provide
 assistance to any competitor of Gaussian, Inc.  The licensee
 of this program is prohibited from giving any competitor of
 Gaussian, Inc. access to this program.  By using this program,
 the user acknowledges that Gaussian, Inc. is engaged in the
 business of creating and licensing software in the field of
 computational chemistry and represents and warrants to the
 licensee that it is not a competitor of Gaussian, Inc. and that
 it will not use this program in any manner prohibited above.
 ---------------------------------------------------------------
  

 Cite this work as:
 Gaussian 09, Revision B.01,
 M. J. Frisch, G. W. Trucks, H. B. Schlegel, G. E. Scuseria, 
 M. A. Robb, J. R. Cheeseman, G. Scalmani, V. Barone, B. Mennucci, 
 G. A. Petersson, H. Nakatsuji, M. Caricato, X. Li, H. P. Hratchian, 
 A. F. Izmaylov, J. Bloino, G. Zheng, J. L. Sonnenberg, M. Hada, 
 M. Ehara, K. Toyota, R. Fukuda, J. Hasegawa, M. Ishida, T. Nakajima, 
 Y. Honda, O. Kitao, H. Nakai, T. Vreven, J. A. Montgomery, Jr., 
 J. E. Peralta, F. Ogliaro, M. Bearpark, J. J. Heyd, E. Brothers, 
 K. N. Kudin, V. N. Staroverov, T. Keith, R. Kobayashi, J. Normand, 
 K. Raghavachari, A. Rendell, J. C. Burant, S. S. Iyengar, J. Tomasi, 
 M. Cossi, N. Rega, J. M. Millam, M. Klene, J. E. Knox, J. B. Cross, 
 V. Bakken, C. Adamo, J. Jaramillo, R. Gomperts, R. E. Stratmann, 
 O. Yazyev, A. J. Austin, R. Cammi, C. Pomelli, J. W. Ochterski, 
 R. L. Martin, K. Morokuma, V. G. Zakrzewski, G. A. Voth, 
 P. Salvador, J. J. Dannenberg, S. Dapprich, A. D. Daniels, 
 O. Farkas, J. B. Foresman, J. V. Ortiz, J. Cioslowski, 
 and D. J. Fox, Gaussian, Inc., Wallingford CT, 2010.
 
 ******************************************
 Gaussian 09:  EM64L-G09RevB.01 12-Aug-2010
                20-Nov-2021 
 ******************************************
 %nproc=8
 Will use up to    8 processors via shared memory.
 %mem=8GB
 -----------------------------------------------------
 # qcisd/aug-cc-pvtz nosymm density=current output=wfn
 -----------------------------------------------------
 1/30=1,38=1/1;
 2/12=2,15=1,17=6,18=5,40=1/2;
 3/5=16,6=1,7=10,11=9,16=1,25=1,30=1,71=1/1,2,3;
 4//1;
 5/5=2,38=5/2;
 8/6=4,9=120000,10=1/1,4;
 9/5=8,15=1/13;
 11/28=-7,31=1,32=3,42=3/11;
 10/5=6,13=10,31=1/2;
 6/7=2,8=2,9=2,10=2,22=-1,31=1/1;
 99/5=1,6=1100,9=1/99;
 -----------------
 h2co-wavefunction
 -----------------
 Symbolic Z-matrix:
 Charge =  0 Multiplicity = 1
 O                     0.        0.        0.68925 
 C                     0.        0.       -0.52691 
 H                     0.        0.93661  -1.10662 
 H                     0.       -0.93661  -1.10662 
 
                          Input orientation:                          
 ---------------------------------------------------------------------
 Center     Atomic      Atomic             Coordinates (Angstroms)
 Number     Number       Type             X           Y           Z
 ---------------------------------------------------------------------
      1          8           0        0.000000    0.000000    0.689252
      2          6           0        0.000000    0.000000   -0.526911
      3          1           0        0.000000    0.936614   -1.106620
      4          1           0        0.000000   -0.936614   -1.106620
 ---------------------------------------------------------------------
                    Distance matrix (angstroms):
                    1          2          3          4
     1  O    0.000000
     2  C    1.216163   0.000000
     3  H    2.025439   1.101503   0.000000
     4  H    2.025439   1.101503   1.873228   0.000000
 Symmetry turned off by external request.
 Stoichiometry    CH2O
 Framework group  C2V[C2(CO),SGV(H2)]
 Deg. of freedom     3
 Full point group                 C2V     NOp   4
 Rotational constants (GHZ):    285.8122027     38.3001629     33.7742558
 Standard basis: Aug-CC-pVTZ (5D, 7F)
 Integral buffers will be    131072 words long.
 Raffenetti 1 integral format.
 Two-electron integral symmetry is turned off.
   138 basis functions,   198 primitive gaussians,   160 cartesian basis functions
     8 alpha electrons        8 beta electrons
       nuclear repulsion energy        31.1134833165 Hartrees.
 NAtoms=    4 NActive=    4 NUniq=    4 SFac= 1.00D+00 NAtFMM=   50 NAOKFM=F Big=F
 One-electron integrals computed using PRISM.
 NBasis=   138 RedAO= T  NBF=   138
 NBsUse=   138 1.00D-06 NBFU=   138
 Harris functional with IExCor=  205 diagonalized for initial guess.
 ExpMin= 2.53D-02 ExpMax= 1.53D+04 ExpMxC= 5.22D+02 IAcc=3 IRadAn=         0 AccDes= 0.00D+00
 HarFok:  IExCor=  205 AccDes= 0.00D+00 IRadAn=         0 IDoV= 1
 ScaDFX=  1.000000  1.000000  1.000000  1.000000
 FoFCou: FMM=F IPFlag=           0 FMFlag=      100000 FMFlg1=           0
         NFxFlg=           0 DoJE=T BraDBF=F KetDBF=T FulRan=T
         Omega=  0.000000  0.000000  1.000000  0.000000  0.000000 ICntrl=     500 IOpCl=  0
         NMat0=    1 NMatS0=    1 NMatT0=    0 NMatD0=    1 NMtDS0=    0 NMtDT0=    0
         I1Cent=           4 NGrid=           0.
 Symmetry not used in FoFCou.
 Requested convergence on RMS density matrix=1.00D-08 within 128 cycles.
 Requested convergence on MAX density matrix=1.00D-06.
 Requested convergence on             energy=1.00D-06.
 No special actions if energy rises.
 Keep R1 ints in memory in canonical form, NReq=85137408.
 SCF Done:  E(RHF) =  -113.912700460     A.U. after   11 cycles
             Convg  =    0.3111D-08             -V/T =  2.0022
 ExpMin= 2.53D-02 ExpMax= 1.53D+04 ExpMxC= 5.22D+02 IAcc=3 IRadAn=         5 AccDes= 0.00D+00
 HarFok:  IExCor=  205 AccDes= 0.00D+00 IRadAn=         5 IDoV=-2
 ScaDFX=  1.000000  1.000000  1.000000  1.000000
 Range of M.O.s used for correlation:     3   138
 NBasis=   138 NAE=     8 NBE=     8 NFC=     2 NFV=     0
 NROrb=    136 NOA=     6 NOB=     6 NVA=   130 NVB=   130

 **** Warning!!: The largest alpha MO coefficient is  0.34179425D+02

 Semi-Direct transformation.
 ModeAB=           2 MOrb=             6 LenV=    1073118457
 LASXX=      7286295 LTotXX=     7286295 LenRXX=     7286295
 LTotAB=     7445736 MaxLAS=    10510080 LenRXY=    10510080
 NonZer=    14572590 LenScr=    22628352 LnRSAI=           0
 LnScr1=           0 LExtra=           0 Total=     40424727
 MaxDsk=          -1 SrtSym=           F ITran=            4
 JobTyp=0 Pass  1:  I=   1 to   6.
 (rs|ai) integrals will be sorted in core.
 Spin components of T(2) and E(2):
     alpha-alpha T2 =       0.1390574637D-01 E2=     -0.4819337550D-01
     alpha-beta  T2 =       0.8588361815D-01 E2=     -0.3073036240D+00
     beta-beta   T2 =       0.1390574637D-01 E2=     -0.4819337550D-01
 ANorm=    0.1055317540D+01
 E2 =    -0.4036903750D+00 EUMP2 =    -0.11431639083475D+03
 R2 and R3 integrals will be kept in memory, NReq=   167993840.
 Iterations=  50 Convergence= 0.100D-07
 Iteration Nr.   1
 **********************
 DD1Dir will call FoFMem   1 times, MxPair=        42
 NAB=    21 NAA=     0 NBB=     0.
 MP4(R+Q)=  0.89710175D-02
 E3=       -0.35914390D-02        EUMP3=      -0.11431998227D+03
 E4(DQ)=   -0.14404776D-02        UMP4(DQ)=   -0.11432142275D+03
 E4(SDQ)=  -0.68578703D-02        UMP4(SDQ)=  -0.11432684014D+03
 DE(Corr)= -0.39831080     E(Corr)=     -114.31101126    
 NORM(A)=   0.10558885D+01
 Iteration Nr.   2
 **********************
 DD1Dir will call FoFMem   1 times, MxPair=        42
 NAB=    21 NAA=     0 NBB=     0.
 DE(Corr)= -0.41257475     E(CORR)=     -114.32527521     Delta=-1.43D-02
 NORM(A)=   0.10620891D+01
 Iteration Nr.   3
 **********************
 DD1Dir will call FoFMem   1 times, MxPair=        42
 NAB=    21 NAA=     0 NBB=     0.
 DE(Corr)= -0.41244738     E(CORR)=     -114.32514784     Delta= 1.27D-04
 NORM(A)=   0.10640679D+01
 Iteration Nr.   4
 **********************
 DD1Dir will call FoFMem   1 times, MxPair=        42
 NAB=    21 NAA=     0 NBB=     0.
 DE(Corr)= -0.41390444     E(CORR)=     -114.32660490     Delta=-1.46D-03
 NORM(A)=   0.10647927D+01
 Iteration Nr.   5
 **********************
 DD1Dir will call FoFMem   1 times, MxPair=        42
 NAB=    21 NAA=     0 NBB=     0.
 DE(Corr)= -0.41410292     E(CORR)=     -114.32680338     Delta=-1.98D-04
 NORM(A)=   0.10650261D+01
 Iteration Nr.   6
 **********************
 DD1Dir will call FoFMem   1 times, MxPair=        42
 NAB=    21 NAA=     0 NBB=     0.
 DE(Corr)= -0.41413064     E(CORR)=     -114.32683110     Delta=-2.77D-05
 NORM(A)=   0.10650538D+01
 Iteration Nr.   7
 **********************
 DD1Dir will call FoFMem   1 times, MxPair=        42
 NAB=    21 NAA=     0 NBB=     0.
 DE(Corr)= -0.41413194     E(CORR)=     -114.32683240     Delta=-1.30D-06
 NORM(A)=   0.10650552D+01
 Iteration Nr.   8
 **********************
 DD1Dir will call FoFMem   1 times, MxPair=        42
 NAB=    21 NAA=     0 NBB=     0.
 DE(Corr)= -0.41413101     E(CORR)=     -114.32683147     Delta= 9.30D-07
 NORM(A)=   0.10650582D+01
 Iteration Nr.   9
 **********************
 DD1Dir will call FoFMem   1 times, MxPair=        42
 NAB=    21 NAA=     0 NBB=     0.
 DE(Corr)= -0.41412979     E(CORR)=     -114.32683025     Delta= 1.22D-06
 NORM(A)=   0.10650585D+01
 Iteration Nr.  10
 **********************
 DD1Dir will call FoFMem   1 times, MxPair=        42
 NAB=    21 NAA=     0 NBB=     0.
 DE(Corr)= -0.41413046     E(CORR)=     -114.32683092     Delta=-6.66D-07
 NORM(A)=   0.10650591D+01
 Iteration Nr.  11
 **********************
 DD1Dir will call FoFMem   1 times, MxPair=        42
 NAB=    21 NAA=     0 NBB=     0.
 DE(Corr)= -0.41413060     E(CORR)=     -114.32683106     Delta=-1.40D-07
 NORM(A)=   0.10650595D+01
 Iteration Nr.  12
 **********************
 DD1Dir will call FoFMem   1 times, MxPair=        42
 NAB=    21 NAA=     0 NBB=     0.
 DE(Corr)= -0.41413076     E(CORR)=     -114.32683122     Delta=-1.66D-07
 NORM(A)=   0.10650597D+01
 Iteration Nr.  13
 **********************
 DD1Dir will call FoFMem   1 times, MxPair=        42
 NAB=    21 NAA=     0 NBB=     0.
 DE(Corr)= -0.41413083     E(CORR)=     -114.32683129     Delta=-6.71D-08
 NORM(A)=   0.10650598D+01
 Iteration Nr.  14
 **********************
 DD1Dir will call FoFMem   1 times, MxPair=        42
 NAB=    21 NAA=     0 NBB=     0.
 DE(Corr)= -0.41413087     E(CORR)=     -114.32683133     Delta=-3.45D-08
 NORM(A)=   0.10650599D+01
 Iteration Nr.  15
 **********************
 DD1Dir will call FoFMem   1 times, MxPair=        42
 NAB=    21 NAA=     0 NBB=     0.
 DE(Corr)= -0.41413087     E(CORR)=     -114.32683133     Delta=-5.25D-09
 NORM(A)=   0.10650599D+01
 Iteration Nr.  16
 **********************
 DD1Dir will call FoFMem   1 times, MxPair=        42
 NAB=    21 NAA=     0 NBB=     0.
 DE(Corr)= -0.41413087     E(CORR)=     -114.32683133     Delta=-3.40D-09
 NORM(A)=   0.10650599D+01
 Largest amplitude= 6.47D-02

 Z-AMPLITUDE ITERATIONS

 Iteration Nr.   1
 **********************
 DD1Dir will call FoFMem   1 times, MxPair=        42
 NAB=    21 NAA=     0 NBB=     0.
 DE(Z)  -0.40190488D+00          E(Z)=    -0.11431460534D+03
 NORM(A)=   0.10650590D+01
 Iteration Nr.   2
 **********************
 DD1Dir will call FoFMem   1 times, MxPair=        42
 NAB=    21 NAA=     0 NBB=     0.
 DE(Z)  -0.40190483D+00          E(Z)=    -0.11431460529D+03
 NORM(A)=   0.10650582D+01
 Iteration Nr.   3
 **********************
 DD1Dir will call FoFMem   1 times, MxPair=        42
 NAB=    21 NAA=     0 NBB=     0.
 DE(Z)  -0.40190481D+00          E(Z)=    -0.11431460527D+03
 NORM(A)=   0.10650538D+01
 Iteration Nr.   4
 **********************
 DD1Dir will call FoFMem   1 times, MxPair=        42
 NAB=    21 NAA=     0 NBB=     0.
 DE(Z)  -0.40190459D+00          E(Z)=    -0.11431460505D+03
 NORM(A)=   0.10650572D+01
 Iteration Nr.   5
 **********************
 DD1Dir will call FoFMem   1 times, MxPair=        42
 NAB=    21 NAA=     0 NBB=     0.
 DE(Z)  -0.40190475D+00          E(Z)=    -0.11431460521D+03
 NORM(A)=   0.10608731D+01
 Iteration Nr.   6
 **********************
 DD1Dir will call FoFMem   1 times, MxPair=        42
 NAB=    21 NAA=     0 NBB=     0.
 DE(Z)  -0.40170325D+00          E(Z)=    -0.11431440371D+03
 NORM(A)=   0.10608695D+01
 Iteration Nr.   7
 **********************
 DD1Dir will call FoFMem   1 times, MxPair=        42
 NAB=    21 NAA=     0 NBB=     0.
 DE(Z)  -0.40170288D+00          E(Z)=    -0.11431440334D+03
 NORM(A)=   0.10608691D+01
 Iteration Nr.   8
 **********************
 DD1Dir will call FoFMem   1 times, MxPair=        42
 NAB=    21 NAA=     0 NBB=     0.
 DE(Z)  -0.40170266D+00          E(Z)=    -0.11431440312D+03
 NORM(A)=   0.10608691D+01
 Iteration Nr.   9
 **********************
 DD1Dir will call FoFMem   1 times, MxPair=        42
 NAB=    21 NAA=     0 NBB=     0.
 DE(Z)  -0.40170268D+00          E(Z)=    -0.11431440314D+03
 NORM(A)=   0.10608691D+01
 Iteration Nr.  10
 **********************
 DD1Dir will call FoFMem   1 times, MxPair=        42
 NAB=    21 NAA=     0 NBB=     0.
 DE(Z)  -0.40170265D+00          E(Z)=    -0.11431440311D+03
 NORM(A)=   0.10608692D+01
 Iteration Nr.  11
 **********************
 DD1Dir will call FoFMem   1 times, MxPair=        42
 NAB=    21 NAA=     0 NBB=     0.
 DE(Z)  -0.40170266D+00          E(Z)=    -0.11431440312D+03
 NORM(A)=   0.10608692D+01
 Iteration Nr.  12
 **********************
 DD1Dir will call FoFMem   1 times, MxPair=        42
 NAB=    21 NAA=     0 NBB=     0.
 DE(Z)  -0.40170266D+00          E(Z)=    -0.11431440312D+03
 NORM(A)=   0.10608692D+01
 Discarding MO integrals.
          Differentiating once with respect to electric field.
                with respect to dipole field.
          Electric field/nuclear overlap derivatives assumed to be zero.
          Keep R1 ints in memory in canonical form, NReq=84894547.
          There are     1 degrees of freedom in the 1st order CPHF.  IDoFFX=0.
 LinEq1:  Iter=  0 NonCon=     1 RMS=3.60D-03 Max=5.66D-02
 AX will form     1 AO Fock derivatives at one time.
 LinEq1:  Iter=  1 NonCon=     1 RMS=9.10D-04 Max=8.60D-03
 LinEq1:  Iter=  2 NonCon=     1 RMS=2.42D-04 Max=3.58D-03
 LinEq1:  Iter=  3 NonCon=     1 RMS=1.19D-04 Max=1.25D-03
 LinEq1:  Iter=  4 NonCon=     1 RMS=4.79D-05 Max=6.08D-04
 LinEq1:  Iter=  5 NonCon=     1 RMS=9.81D-06 Max=9.45D-05
 LinEq1:  Iter=  6 NonCon=     1 RMS=1.59D-06 Max=1.83D-05
 LinEq1:  Iter=  7 NonCon=     1 RMS=2.43D-07 Max=1.77D-06
 LinEq1:  Iter=  8 NonCon=     1 RMS=2.79D-08 Max=2.22D-07
 LinEq1:  Iter=  9 NonCon=     1 RMS=3.35D-09 Max=2.71D-08
 LinEq1:  Iter= 10 NonCon=     1 RMS=3.16D-10 Max=2.48D-09
 LinEq1:  Iter= 11 NonCon=     0 RMS=2.82D-11 Max=2.45D-10
 Linear equations converged to 1.000D-10 1.000D-09 after    11 iterations.
 End of Minotr Frequency-dependent properties file   721 does not exist.
 End of Minotr Frequency-dependent properties file   722 does not exist.

 **********************************************************************

            Population analysis using the QCI/CC density.

 **********************************************************************

     Natural Orbital Coefficients:
                           1         2         3         4         5
     Eigenvalues --     2.00001   2.00000   1.98043   1.96680   1.96521
   1 1   O  1S         -0.53079   0.82326  -0.18952   0.07038   0.00000
   2        2S          0.01072  -0.01438   0.49050  -0.19916   0.00000
   3        3S         -0.02214   0.03533   0.13816  -0.06021   0.00000
   4        4S          0.00300  -0.00274   0.31247  -0.21799   0.00000
   5        5S          0.00023  -0.00083   0.04312  -0.02879   0.00000
   6        6PX         0.00000   0.00000   0.00000   0.00000   0.00000
   7        6PY         0.00000   0.00000   0.00000   0.00000   0.27140
   8        6PZ         0.00297  -0.00223   0.00205  -0.13085   0.00000
   9        7PX         0.00000   0.00000   0.00000   0.00000   0.00000
  10        7PY         0.00000   0.00000   0.00000   0.00000   0.33498
  11        7PZ         0.00189   0.00154  -0.00572  -0.15338   0.00000
  12        8PX         0.00000   0.00000   0.00000   0.00000   0.00000
  13        8PY         0.00000   0.00000   0.00000   0.00000   0.24276
  14        8PZ         0.00293   0.00050   0.03921  -0.07174   0.00000
  15        9PX         0.00000   0.00000   0.00000   0.00000   0.00000
  16        9PY         0.00000   0.00000   0.00000   0.00000   0.03740
  17        9PZ         0.00017   0.00005   0.00222  -0.00251   0.00000
  18       10D 0       -0.00014   0.00014   0.00409   0.00512   0.00000
  19       10D+1        0.00000   0.00000   0.00000   0.00000   0.00000
  20       10D-1        0.00000   0.00000   0.00000   0.00000  -0.00799
  21       10D+2        0.00007  -0.00007   0.00008  -0.00002   0.00000
  22       10D-2        0.00000   0.00000   0.00000   0.00000   0.00000
  23       11D 0       -0.00043  -0.00117   0.01200   0.00931   0.00000
  24       11D+1        0.00000   0.00000   0.00000   0.00000   0.00000
  25       11D-1        0.00000   0.00000   0.00000   0.00000  -0.02121
  26       11D+2        0.00009  -0.00014   0.00063   0.00031   0.00000
  27       11D-2        0.00000   0.00000   0.00000   0.00000   0.00000
  28       12D 0       -0.00064  -0.00029  -0.00849   0.00118   0.00000
  29       12D+1        0.00000   0.00000   0.00000   0.00000   0.00000
  30       12D-1        0.00000   0.00000   0.00000   0.00000  -0.01364
  31       12D+2        0.00027   0.00018  -0.00034   0.00068   0.00000
  32       12D-2        0.00000   0.00000   0.00000   0.00000   0.00000
  33       13F 0       -0.00002   0.00005  -0.00265  -0.00173   0.00000
  34       13F+1        0.00000   0.00000   0.00000   0.00000   0.00000
  35       13F-1        0.00000   0.00000   0.00000   0.00000   0.00475
  36       13F+2        0.00005  -0.00001   0.00015  -0.00047   0.00000
  37       13F-2        0.00000   0.00000   0.00000   0.00000   0.00000
  38       13F+3        0.00000   0.00000   0.00000   0.00000   0.00000
  39       13F-3        0.00000   0.00000   0.00000   0.00000   0.00126
  40       14F 0        0.00033   0.00041  -0.00117  -0.00033   0.00000
  41       14F+1        0.00000   0.00000   0.00000   0.00000   0.00000
  42       14F-1        0.00000   0.00000   0.00000   0.00000   0.00326
  43       14F+2       -0.00003   0.00004  -0.00084  -0.00067   0.00000
  44       14F-2        0.00000   0.00000   0.00000   0.00000   0.00000
  45       14F+3        0.00000   0.00000   0.00000   0.00000   0.00000
  46       14F-3        0.00000   0.00000   0.00000   0.00000   0.00143
  47 2   C  1S          0.82482   0.53149  -0.08289  -0.14842   0.00000
  48        2S         -0.01108  -0.00609   0.20034   0.41407   0.00000
  49        3S          0.03415   0.02204   0.04474   0.09749   0.00000
  50        4S          0.00337   0.00349   0.12357   0.30392   0.00000
  51        5S          0.00175   0.00140   0.00595   0.01620   0.00000
  52        6PX         0.00000   0.00000   0.00000   0.00000   0.00000
  53        6PY         0.00000   0.00000   0.00000   0.00000   0.18531
  54        6PZ         0.00095   0.00053   0.04595  -0.05693   0.00000
  55        7PX         0.00000   0.00000   0.00000   0.00000   0.00000
  56        7PY         0.00000   0.00000   0.00000   0.00000   0.24568
  57        7PZ         0.00046   0.00374   0.01427  -0.07925   0.00000
  58        8PX         0.00000   0.00000   0.00000   0.00000   0.00000
  59        8PY         0.00000   0.00000   0.00000   0.00000   0.06358
  60        8PZ        -0.00103  -0.00010  -0.03836  -0.05697   0.00000
  61        9PX         0.00000   0.00000   0.00000   0.00000   0.00000
  62        9PY         0.00000   0.00000   0.00000   0.00000  -0.01473
  63        9PZ        -0.00016   0.00003  -0.00241  -0.00027   0.00000
  64       10D 0        0.00048   0.00069   0.01324   0.00119   0.00000
  65       10D+1        0.00000   0.00000   0.00000   0.00000   0.00000
  66       10D-1        0.00000   0.00000   0.00000   0.00000   0.00810
  67       10D+2       -0.00044  -0.00022  -0.00310  -0.00966   0.00000
  68       10D-2        0.00000   0.00000   0.00000   0.00000   0.00000
  69       11D 0       -0.00081   0.00113   0.00324  -0.00174   0.00000
  70       11D+1        0.00000   0.00000   0.00000   0.00000   0.00000
  71       11D-1        0.00000   0.00000   0.00000   0.00000  -0.00997
  72       11D+2        0.00029   0.00070  -0.01440  -0.02491   0.00000
  73       11D-2        0.00000   0.00000   0.00000   0.00000   0.00000
  74       12D 0       -0.00043  -0.00136  -0.01676   0.00272   0.00000
  75       12D+1        0.00000   0.00000   0.00000   0.00000   0.00000
  76       12D-1        0.00000   0.00000   0.00000   0.00000  -0.01725
  77       12D+2       -0.00047  -0.00087  -0.00911  -0.00235   0.00000
  78       12D-2        0.00000   0.00000   0.00000   0.00000   0.00000
  79       13F 0        0.00066   0.00046   0.00533   0.00514   0.00000
  80       13F+1        0.00000   0.00000   0.00000   0.00000   0.00000
  81       13F-1        0.00000   0.00000   0.00000   0.00000   0.00868
  82       13F+2        0.00050   0.00020   0.00354   0.00455   0.00000
  83       13F-2        0.00000   0.00000   0.00000   0.00000   0.00000
  84       13F+3        0.00000   0.00000   0.00000   0.00000   0.00000
  85       13F-3        0.00000   0.00000   0.00000   0.00000  -0.00068
  86       14F 0       -0.00150  -0.00012  -0.00014   0.00416   0.00000
  87       14F+1        0.00000   0.00000   0.00000   0.00000   0.00000
  88       14F-1        0.00000   0.00000   0.00000   0.00000   0.00780
  89       14F+2       -0.00087  -0.00035   0.00272   0.00749   0.00000
  90       14F-2        0.00000   0.00000   0.00000   0.00000   0.00000
  91       14F+3        0.00000   0.00000   0.00000   0.00000   0.00000
  92       14F-3        0.00000   0.00000   0.00000   0.00000   0.00029
  93 3   H  1S         -0.00107  -0.00060   0.02552   0.09716   0.07245
  94        2S         -0.00078   0.00031   0.00093   0.08944   0.06384
  95        3S         -0.00347  -0.00276  -0.04386  -0.03169  -0.01224
  96        4S         -0.00026  -0.00017  -0.00172  -0.00205   0.00745
  97        5PX         0.00000   0.00000   0.00000   0.00000   0.00000
  98        5PY         0.00035   0.00016  -0.00132  -0.00829  -0.00519
  99        5PZ        -0.00024  -0.00010   0.00104   0.00408   0.00625
 100        6PX         0.00000   0.00000   0.00000   0.00000   0.00000
 101        6PY         0.00052  -0.00015   0.00925   0.00023   0.01271
 102        6PZ        -0.00022   0.00030  -0.00909  -0.00446   0.00398
 103        7PX         0.00000   0.00000   0.00000   0.00000   0.00000
 104        7PY         0.00051  -0.00011   0.00666   0.01664   0.00598
 105        7PZ        -0.00068  -0.00101  -0.01758  -0.00640   0.00718
 106        8D 0        0.00007   0.00001   0.00028  -0.00027   0.00178
 107        8D+1        0.00000   0.00000   0.00000   0.00000   0.00000
 108        8D-1        0.00028   0.00013   0.00063  -0.00096  -0.00259
 109        8D+2        0.00018   0.00008   0.00049  -0.00121  -0.00011
 110        8D-2        0.00000   0.00000   0.00000   0.00000   0.00000
 111        9D 0       -0.00024  -0.00003  -0.00178  -0.00099   0.00107
 112        9D+1        0.00000   0.00000   0.00000   0.00000   0.00000
 113        9D-1       -0.00010  -0.00003   0.00377   0.00233   0.00368
 114        9D+2        0.00025   0.00000   0.00167   0.00163   0.00316
 115        9D-2        0.00000   0.00000   0.00000   0.00000   0.00000
 116 4   H  1S         -0.00107  -0.00060   0.02552   0.09716  -0.07245
 117        2S         -0.00078   0.00031   0.00093   0.08944  -0.06384
 118        3S         -0.00347  -0.00276  -0.04386  -0.03169   0.01224
 119        4S         -0.00026  -0.00017  -0.00172  -0.00205  -0.00745
 120        5PX         0.00000   0.00000   0.00000   0.00000   0.00000
 121        5PY        -0.00035  -0.00016   0.00132   0.00829  -0.00519
 122        5PZ        -0.00024  -0.00010   0.00104   0.00408  -0.00625
 123        6PX         0.00000   0.00000   0.00000   0.00000   0.00000
 124        6PY        -0.00052   0.00015  -0.00925  -0.00023   0.01271
 125        6PZ        -0.00022   0.00030  -0.00909  -0.00446  -0.00398
 126        7PX         0.00000   0.00000   0.00000   0.00000   0.00000
 127        7PY        -0.00051   0.00011  -0.00666  -0.01664   0.00598
 128        7PZ        -0.00068  -0.00101  -0.01758  -0.00640  -0.00718
 129        8D 0        0.00007   0.00001   0.00028  -0.00027  -0.00178
 130        8D+1        0.00000   0.00000   0.00000   0.00000   0.00000
 131        8D-1       -0.00028  -0.00013  -0.00063   0.00096  -0.00259
 132        8D+2        0.00018   0.00008   0.00049  -0.00121   0.00011
 133        8D-2        0.00000   0.00000   0.00000   0.00000   0.00000
 134        9D 0       -0.00024  -0.00003  -0.00178  -0.00099  -0.00107
 135        9D+1        0.00000   0.00000   0.00000   0.00000   0.00000
 136        9D-1        0.00010   0.00003  -0.00377  -0.00233   0.00368
 137        9D+2        0.00025   0.00000   0.00167   0.00163  -0.00316
 138        9D-2        0.00000   0.00000   0.00000   0.00000   0.00000
                           6         7         8         9        10
     Eigenvalues --     1.95958   1.95672   1.92113   0.06750   0.02826
   1 1   O  1S          0.00300   0.00000   0.00000   0.00000   0.00000
   2        2S          0.01153   0.00000   0.00000   0.00000   0.00000
   3        3S          0.00796   0.00000   0.00000   0.00000   0.00000
   4        4S          0.11945   0.00000   0.00000   0.00000   0.00000
   5        5S          0.06227   0.00000   0.00000   0.00000   0.00000
   6        6PX         0.00000   0.00000   0.28157  -0.36237   0.00000
   7        6PY         0.00000   0.24057   0.00000   0.00000  -0.40202
   8        6PZ         0.28427   0.00000   0.00000   0.00000   0.00000
   9        7PX         0.00000   0.00000   0.35441  -0.43170   0.00000
  10        7PY         0.00000   0.29655   0.00000   0.00000  -0.30312
  11        7PZ         0.34415   0.00000   0.00000   0.00000   0.00000
  12        8PX         0.00000   0.00000   0.23462  -0.07921   0.00000
  13        8PY         0.00000   0.24220   0.00000   0.00000   0.18515
  14        8PZ         0.18748   0.00000   0.00000   0.00000   0.00000
  15        9PX         0.00000   0.00000   0.02147   0.00359   0.00000
  16        9PY         0.00000   0.04052   0.00000   0.00000   0.10128
  17        9PZ         0.00402   0.00000   0.00000   0.00000   0.00000
  18       10D 0       -0.01200   0.00000   0.00000   0.00000   0.00000
  19       10D+1        0.00000   0.00000  -0.00985  -0.01259   0.00000
  20       10D-1        0.00000  -0.00097   0.00000   0.00000  -0.03031
  21       10D+2       -0.00014   0.00000   0.00000   0.00000   0.00000
  22       10D-2        0.00000   0.00000   0.00000   0.00000   0.00000
  23       11D 0       -0.02940   0.00000   0.00000   0.00000   0.00000
  24       11D+1        0.00000   0.00000  -0.02790  -0.01213   0.00000
  25       11D-1        0.00000  -0.00225   0.00000   0.00000  -0.04019
  26       11D+2       -0.00104   0.00000   0.00000   0.00000   0.00000
  27       11D-2        0.00000   0.00000   0.00000   0.00000   0.00000
  28       12D 0       -0.00760   0.00000   0.00000   0.00000   0.00000
  29       12D+1        0.00000   0.00000  -0.01233   0.01454   0.00000
  30       12D-1        0.00000  -0.00352   0.00000   0.00000   0.01427
  31       12D+2       -0.00122   0.00000   0.00000   0.00000   0.00000
  32       12D-2        0.00000   0.00000   0.00000   0.00000   0.00000
  33       13F 0        0.00485   0.00000   0.00000   0.00000   0.00000
  34       13F+1        0.00000   0.00000   0.00496   0.00444   0.00000
  35       13F-1        0.00000   0.00049   0.00000   0.00000   0.00699
  36       13F+2        0.00121   0.00000   0.00000   0.00000   0.00000
  37       13F-2        0.00000   0.00000   0.00000   0.00000   0.00000
  38       13F+3        0.00000   0.00000   0.00156  -0.00365   0.00000
  39       13F-3        0.00000   0.00126   0.00000   0.00000  -0.00169
  40       14F 0        0.00663   0.00000   0.00000   0.00000   0.00000
  41       14F+1        0.00000   0.00000   0.00347  -0.00339   0.00000
  42       14F-1        0.00000   0.00169   0.00000   0.00000  -0.00193
  43       14F+2        0.00096   0.00000   0.00000   0.00000   0.00000
  44       14F-2        0.00000   0.00000   0.00000   0.00000   0.00000
  45       14F+3        0.00000   0.00000   0.00122  -0.00313   0.00000
  46       14F-3        0.00000  -0.00003   0.00000   0.00000  -0.00279
  47 2   C  1S          0.01912   0.00000   0.00000   0.00000   0.00000
  48        2S         -0.04020   0.00000   0.00000   0.00000   0.00000
  49        3S         -0.01184   0.00000   0.00000   0.00000   0.00000
  50        4S          0.09774   0.00000   0.00000   0.00000   0.00000
  51        5S          0.00040   0.00000   0.00000   0.00000   0.00000
  52        6PX         0.00000   0.00000   0.18930   0.31037   0.00000
  53        6PY         0.00000  -0.16599   0.00000   0.00000   0.33290
  54        6PZ        -0.23747   0.00000   0.00000   0.00000   0.00000
  55        7PX         0.00000   0.00000   0.24862   0.47834   0.00000
  56        7PY         0.00000  -0.23103   0.00000   0.00000   0.63736
  57        7PZ        -0.25232   0.00000   0.00000   0.00000   0.00000
  58        8PX         0.00000   0.00000   0.12551   0.18977   0.00000
  59        8PY         0.00000  -0.25224   0.00000   0.00000   0.33159
  60        8PZ        -0.08519   0.00000   0.00000   0.00000   0.00000
  61        9PX         0.00000   0.00000   0.00185   0.00326   0.00000
  62        9PY         0.00000  -0.02265   0.00000   0.00000  -0.03816
  63        9PZ        -0.00186   0.00000   0.00000   0.00000   0.00000
  64       10D 0       -0.01871   0.00000   0.00000   0.00000   0.00000
  65       10D+1        0.00000   0.00000   0.01946  -0.00040   0.00000
  66       10D-1        0.00000   0.03268   0.00000   0.00000   0.03789
  67       10D+2       -0.00582   0.00000   0.00000   0.00000   0.00000
  68       10D-2        0.00000   0.00000   0.00000   0.00000   0.00000
  69       11D 0       -0.01245   0.00000   0.00000   0.00000   0.00000
  70       11D+1        0.00000   0.00000   0.02959   0.03625   0.00000
  71       11D-1        0.00000   0.08234   0.00000   0.00000   0.02872
  72       11D+2       -0.00552   0.00000   0.00000   0.00000   0.00000
  73       11D-2        0.00000   0.00000   0.00000   0.00000   0.00000
  74       12D 0        0.00060   0.00000   0.00000   0.00000   0.00000
  75       12D+1        0.00000   0.00000  -0.00391   0.00878   0.00000
  76       12D-1        0.00000   0.06674   0.00000   0.00000   0.03402
  77       12D+2       -0.00567   0.00000   0.00000   0.00000   0.00000
  78       12D-2        0.00000   0.00000   0.00000   0.00000   0.00000
  79       13F 0       -0.00720   0.00000   0.00000   0.00000   0.00000
  80       13F+1        0.00000   0.00000   0.00680   0.00890   0.00000
  81       13F-1        0.00000   0.00416   0.00000   0.00000   0.02382
  82       13F+2       -0.00158   0.00000   0.00000   0.00000   0.00000
  83       13F-2        0.00000   0.00000   0.00000   0.00000   0.00000
  84       13F+3        0.00000   0.00000   0.00023  -0.00104   0.00000
  85       13F-3        0.00000   0.00250   0.00000   0.00000  -0.00381
  86       14F 0        0.00937   0.00000   0.00000   0.00000   0.00000
  87       14F+1        0.00000   0.00000   0.00476   0.01581   0.00000
  88       14F-1        0.00000   0.00498   0.00000   0.00000   0.10325
  89       14F+2        0.00621   0.00000   0.00000   0.00000   0.00000
  90       14F-2        0.00000   0.00000   0.00000   0.00000   0.00000
  91       14F+3        0.00000   0.00000   0.00240   0.00607   0.00000
  92       14F-3        0.00000   0.00577   0.00000   0.00000   0.00621
  93 3   H  1S          0.06914  -0.13516   0.00000   0.00000  -0.15174
  94        2S          0.09838  -0.16987   0.00000   0.00000  -0.55285
  95        3S          0.00636   0.08231   0.00000   0.00000  -0.46359
  96        4S          0.00024   0.00958   0.00000   0.00000   0.00641
  97        5PX         0.00000   0.00000   0.00343   0.01196   0.00000
  98        5PY        -0.00775   0.00686   0.00000   0.00000  -0.00472
  99        5PZ         0.00149  -0.00487   0.00000   0.00000   0.01763
 100        6PX         0.00000   0.00000   0.01034   0.02389   0.00000
 101        6PY        -0.01307  -0.00721   0.00000   0.00000   0.13182
 102        6PZ         0.00169   0.00437   0.00000   0.00000   0.02391
 103        7PX         0.00000   0.00000  -0.00392  -0.00680   0.00000
 104        7PY         0.00366  -0.04204   0.00000   0.00000   0.08508
 105        7PZ        -0.00285   0.02019   0.00000   0.00000  -0.02836
 106        8D 0       -0.00205   0.00044   0.00000   0.00000   0.00990
 107        8D+1        0.00000   0.00000   0.00118   0.00374   0.00000
 108        8D-1       -0.00141   0.00104   0.00000   0.00000  -0.00790
 109        8D+2       -0.00212   0.00073   0.00000   0.00000   0.00443
 110        8D-2        0.00000   0.00000  -0.00127  -0.00589   0.00000
 111        9D 0        0.00375  -0.00252   0.00000   0.00000   0.00921
 112        9D+1        0.00000   0.00000   0.00146   0.00146   0.00000
 113        9D-1        0.00007   0.00026   0.00000   0.00000   0.01767
 114        9D+2       -0.00221  -0.00138   0.00000   0.00000   0.01769
 115        9D-2        0.00000   0.00000   0.00096   0.00363   0.00000
 116 4   H  1S          0.06914   0.13516   0.00000   0.00000   0.15174
 117        2S          0.09838   0.16987   0.00000   0.00000   0.55285
 118        3S          0.00636  -0.08231   0.00000   0.00000   0.46359
 119        4S          0.00024  -0.00958   0.00000   0.00000  -0.00641
 120        5PX         0.00000   0.00000   0.00343   0.01196   0.00000
 121        5PY         0.00775   0.00686   0.00000   0.00000  -0.00472
 122        5PZ         0.00149   0.00487   0.00000   0.00000  -0.01763
 123        6PX         0.00000   0.00000   0.01034   0.02389   0.00000
 124        6PY         0.01307  -0.00721   0.00000   0.00000   0.13182
 125        6PZ         0.00169  -0.00437   0.00000   0.00000  -0.02391
 126        7PX         0.00000   0.00000  -0.00392  -0.00680   0.00000
 127        7PY        -0.00366  -0.04204   0.00000   0.00000   0.08508
 128        7PZ        -0.00285  -0.02019   0.00000   0.00000   0.02836
 129        8D 0       -0.00205  -0.00044   0.00000   0.00000  -0.00990
 130        8D+1        0.00000   0.00000   0.00118   0.00374   0.00000
 131        8D-1        0.00141   0.00104   0.00000   0.00000  -0.00790
 132        8D+2       -0.00212  -0.00073   0.00000   0.00000  -0.00443
 133        8D-2        0.00000   0.00000   0.00127   0.00589   0.00000
 134        9D 0        0.00375   0.00252   0.00000   0.00000  -0.00921
 135        9D+1        0.00000   0.00000   0.00146   0.00146   0.00000
 136        9D-1       -0.00007   0.00026   0.00000   0.00000   0.01767
 137        9D+2       -0.00221   0.00138   0.00000   0.00000  -0.01769
 138        9D-2        0.00000   0.00000  -0.00096  -0.00363   0.00000
                          11        12        13        14        15
     Eigenvalues --     0.02715   0.02014   0.01215   0.01186   0.00760
   1 1   O  1S         -0.07255  -0.02527   0.00000  -0.23697   0.00000
   2        2S          0.28116   0.10757   0.00000   0.74214   0.00000
   3        3S          0.10747   0.04769   0.00000   0.63368   0.00000
   4        4S          0.61202   0.37040   0.00000  -1.37906   0.00000
   5        5S          0.36924   0.26425   0.00000  -0.58817   0.00000
   6        6PX         0.00000   0.00000   0.00000   0.00000   0.00000
   7        6PY         0.00000   0.00000   0.44013   0.00000   0.14137
   8        6PZ        -0.43826  -0.10655   0.00000   0.26153   0.00000
   9        7PX         0.00000   0.00000   0.00000   0.00000   0.00000
  10        7PY         0.00000   0.00000   0.19467   0.00000   0.03005
  11        7PZ        -0.52908  -0.16417   0.00000   0.06882   0.00000
  12        8PX         0.00000   0.00000   0.00000   0.00000   0.00000
  13        8PY         0.00000   0.00000  -0.42196   0.00000  -0.19638
  14        8PZ        -0.12131  -0.18554   0.00000  -0.11631   0.00000
  15        9PX         0.00000   0.00000   0.00000   0.00000   0.00000
  16        9PY         0.00000   0.00000  -0.06395   0.00000  -0.04686
  17        9PZ        -0.04152  -0.05237   0.00000   0.04193   0.00000
  18       10D 0       -0.03045  -0.02081   0.00000   0.00569   0.00000
  19       10D+1        0.00000   0.00000   0.00000   0.00000   0.00000
  20       10D-1        0.00000   0.00000  -0.00853   0.00000  -0.20760
  21       10D+2       -0.00994   0.00292   0.00000  -0.02456   0.00000
  22       10D-2        0.00000   0.00000   0.00000   0.00000   0.00000
  23       11D 0       -0.01581  -0.03100   0.00000  -0.03090   0.00000
  24       11D+1        0.00000   0.00000   0.00000   0.00000   0.00000
  25       11D-1        0.00000   0.00000  -0.07094   0.00000  -0.51217
  26       11D+2       -0.01967   0.01065   0.00000   0.00134   0.00000
  27       11D-2        0.00000   0.00000   0.00000   0.00000   0.00000
  28       12D 0        0.00087   0.02914   0.00000  -0.02921   0.00000
  29       12D+1        0.00000   0.00000   0.00000   0.00000   0.00000
  30       12D-1        0.00000   0.00000  -0.01121   0.00000  -0.12345
  31       12D+2       -0.00863   0.00247   0.00000   0.00848   0.00000
  32       12D-2        0.00000   0.00000   0.00000   0.00000   0.00000
  33       13F 0       -0.00003   0.00422   0.00000  -0.00247   0.00000
  34       13F+1        0.00000   0.00000   0.00000   0.00000   0.00000
  35       13F-1        0.00000   0.00000   0.01209   0.00000   0.03448
  36       13F+2       -0.00090  -0.00158   0.00000   0.00023   0.00000
  37       13F-2        0.00000   0.00000   0.00000   0.00000   0.00000
  38       13F+3        0.00000   0.00000   0.00000   0.00000   0.00000
  39       13F-3        0.00000   0.00000  -0.00265   0.00000  -0.00039
  40       14F 0        0.00793   0.00969   0.00000   0.01858   0.00000
  41       14F+1        0.00000   0.00000   0.00000   0.00000   0.00000
  42       14F-1        0.00000   0.00000   0.00691   0.00000   0.07600
  43       14F+2        0.00000  -0.00569   0.00000   0.00739   0.00000
  44       14F-2        0.00000   0.00000   0.00000   0.00000   0.00000
  45       14F+3        0.00000   0.00000   0.00000   0.00000   0.00000
  46       14F-3        0.00000   0.00000   0.01729   0.00000   0.00246
  47 2   C  1S          0.16271  -0.11828   0.00000  -0.00127   0.00000
  48        2S         -0.60307   0.46551   0.00000   0.07002   0.00000
  49        3S         -0.24724   0.26682   0.00000   0.06556   0.00000
  50        4S         -0.22043   0.07412   0.00000  -0.11256   0.00000
  51        5S         -0.11196  -0.09069   0.00000   0.11535   0.00000
  52        6PX         0.00000   0.00000   0.00000   0.00000   0.00000
  53        6PY         0.00000   0.00000   0.41750   0.00000  -0.12565
  54        6PZ        -0.24464  -0.39991   0.00000  -0.01419   0.00000
  55        7PX         0.00000   0.00000   0.00000   0.00000   0.00000
  56        7PY         0.00000   0.00000   0.79322   0.00000  -0.15162
  57        7PZ        -0.57756  -0.69918   0.00000   0.13236   0.00000
  58        8PX         0.00000   0.00000   0.00000   0.00000   0.00000
  59        8PY         0.00000   0.00000   0.58493   0.00000   0.07404
  60        8PZ        -0.30745  -0.22143   0.00000   0.27892   0.00000
  61        9PX         0.00000   0.00000   0.00000   0.00000   0.00000
  62        9PY         0.00000   0.00000   0.04958   0.00000   0.00039
  63        9PZ        -0.01368  -0.00761   0.00000   0.02009   0.00000
  64       10D 0        0.01739   0.01321   0.00000   0.01128   0.00000
  65       10D+1        0.00000   0.00000   0.00000   0.00000   0.00000
  66       10D-1        0.00000   0.00000  -0.10034   0.00000   0.24314
  67       10D+2       -0.00530   0.01439   0.00000  -0.02794   0.00000
  68       10D-2        0.00000   0.00000   0.00000   0.00000   0.00000
  69       11D 0       -0.09491  -0.06622   0.00000  -0.01255   0.00000
  70       11D+1        0.00000   0.00000   0.00000   0.00000   0.00000
  71       11D-1        0.00000   0.00000  -0.56387   0.00000   0.09401
  72       11D+2       -0.07487  -0.03117   0.00000  -0.02248   0.00000
  73       11D-2        0.00000   0.00000   0.00000   0.00000   0.00000
  74       12D 0       -0.06488  -0.03476   0.00000   0.10668   0.00000
  75       12D+1        0.00000   0.00000   0.00000   0.00000   0.00000
  76       12D-1        0.00000   0.00000  -0.19402   0.00000  -0.15424
  77       12D+2       -0.02039  -0.02466   0.00000   0.05761   0.00000
  78       12D-2        0.00000   0.00000   0.00000   0.00000   0.00000
  79       13F 0       -0.00989  -0.01551   0.00000   0.00032   0.00000
  80       13F+1        0.00000   0.00000   0.00000   0.00000   0.00000
  81       13F-1        0.00000   0.00000  -0.00816   0.00000   0.00743
  82       13F+2       -0.00011   0.01052   0.00000  -0.00076   0.00000
  83       13F-2        0.00000   0.00000   0.00000   0.00000   0.00000
  84       13F+3        0.00000   0.00000   0.00000   0.00000   0.00000
  85       13F-3        0.00000   0.00000  -0.02478   0.00000   0.01694
  86       14F 0       -0.00226  -0.00352   0.00000  -0.03001   0.00000
  87       14F+1        0.00000   0.00000   0.00000   0.00000   0.00000
  88       14F-1        0.00000   0.00000  -0.12199   0.00000  -0.09189
  89       14F+2        0.01639   0.01183   0.00000  -0.01337   0.00000
  90       14F-2        0.00000   0.00000   0.00000   0.00000   0.00000
  91       14F+3        0.00000   0.00000   0.00000   0.00000   0.00000
  92       14F-3        0.00000   0.00000  -0.08719   0.00000   0.01025
  93 3   H  1S          0.09801  -0.24258  -0.09566   0.06139  -0.12289
  94        2S          0.04632  -0.62587  -0.87773   0.14027   0.06937
  95        3S         -0.09073  -0.18981  -0.75063   0.18799   0.06322
  96        4S          0.00695   0.00722  -0.03688  -0.00606   0.01347
  97        5PX         0.00000   0.00000   0.00000   0.00000   0.00000
  98        5PY        -0.00326  -0.02381  -0.03281  -0.01310   0.06416
  99        5PZ        -0.01218  -0.00766   0.01754   0.00821  -0.01238
 100        6PX         0.00000   0.00000   0.00000   0.00000   0.00000
 101        6PY         0.02485   0.05271   0.13049  -0.04390   0.07824
 102        6PZ        -0.06746  -0.07524  -0.17464   0.02950  -0.02136
 103        7PX         0.00000   0.00000   0.00000   0.00000   0.00000
 104        7PY         0.01706   0.01998   0.15462  -0.00986   0.05784
 105        7PZ        -0.05203  -0.03459  -0.09776   0.09809   0.02771
 106        8D 0       -0.00371  -0.01108  -0.00620  -0.00243   0.01788
 107        8D+1        0.00000   0.00000   0.00000   0.00000   0.00000
 108        8D-1        0.00801  -0.00307  -0.00646  -0.00574   0.00639
 109        8D+2       -0.00059  -0.00990  -0.01177  -0.00679   0.01608
 110        8D-2        0.00000   0.00000   0.00000   0.00000   0.00000
 111        9D 0       -0.00571  -0.00061   0.00744  -0.00650   0.02206
 112        9D+1        0.00000   0.00000   0.00000   0.00000   0.00000
 113        9D-1        0.02014   0.01416   0.01579  -0.02001   0.01064
 114        9D+2        0.00000   0.00885   0.00733  -0.00319   0.01852
 115        9D-2        0.00000   0.00000   0.00000   0.00000   0.00000
 116 4   H  1S          0.09801  -0.24258   0.09566   0.06139   0.12289
 117        2S          0.04632  -0.62587   0.87773   0.14027  -0.06937
 118        3S         -0.09073  -0.18981   0.75063   0.18799  -0.06322
 119        4S          0.00695   0.00722   0.03688  -0.00606  -0.01347
 120        5PX         0.00000   0.00000   0.00000   0.00000   0.00000
 121        5PY         0.00326   0.02381  -0.03281   0.01310   0.06416
 122        5PZ        -0.01218  -0.00766  -0.01754   0.00821   0.01238
 123        6PX         0.00000   0.00000   0.00000   0.00000   0.00000
 124        6PY        -0.02485  -0.05271   0.13049   0.04390   0.07824
 125        6PZ        -0.06746  -0.07524   0.17464   0.02950   0.02136
 126        7PX         0.00000   0.00000   0.00000   0.00000   0.00000
 127        7PY        -0.01706  -0.01998   0.15462   0.00986   0.05784
 128        7PZ        -0.05203  -0.03459   0.09776   0.09809  -0.02771
 129        8D 0       -0.00371  -0.01108   0.00620  -0.00243  -0.01788
 130        8D+1        0.00000   0.00000   0.00000   0.00000   0.00000
 131        8D-1       -0.00801   0.00307  -0.00646   0.00574   0.00639
 132        8D+2       -0.00059  -0.00990   0.01177  -0.00679  -0.01608
 133        8D-2        0.00000   0.00000   0.00000   0.00000   0.00000
 134        9D 0       -0.00571  -0.00061  -0.00744  -0.00650  -0.02206
 135        9D+1        0.00000   0.00000   0.00000   0.00000   0.00000
 136        9D-1       -0.02014  -0.01416   0.01579   0.02001   0.01064
 137        9D+2        0.00000   0.00885  -0.00733  -0.00319  -0.01852
 138        9D-2        0.00000   0.00000   0.00000   0.00000   0.00000
                          16        17        18        19        20
     Eigenvalues --     0.00746   0.00718   0.00706   0.00699   0.00607
   1 1   O  1S         -0.01347   0.00000   0.00000  -0.02487   0.00000
   2        2S          0.02720   0.00000   0.00000   0.05405   0.00000
   3        3S          0.03730   0.00000   0.00000   0.07579   0.00000
   4        4S         -0.08507   0.00000   0.00000  -0.20271   0.00000
   5        5S          0.11270   0.00000   0.00000  -0.12358   0.00000
   6        6PX         0.00000   0.21491   0.00000   0.00000  -0.44844
   7        6PY         0.00000   0.00000   0.00000   0.00000   0.00000
   8        6PZ        -0.05671   0.00000   0.00000   0.14230   0.00000
   9        7PX         0.00000   0.09994   0.00000   0.00000  -0.16321
  10        7PY         0.00000   0.00000   0.00000   0.00000   0.00000
  11        7PZ         0.00938   0.00000   0.00000   0.02205   0.00000
  12        8PX         0.00000  -0.39784   0.00000   0.00000   0.53984
  13        8PY         0.00000   0.00000   0.00000   0.00000   0.00000
  14        8PZ         0.19881   0.00000   0.00000  -0.25661   0.00000
  15        9PX         0.00000  -0.08367   0.00000   0.00000   0.08341
  16        9PY         0.00000   0.00000   0.00000   0.00000   0.00000
  17        9PZ         0.00040   0.00000   0.00000  -0.00921   0.00000
  18       10D 0        0.20416   0.00000   0.00000  -0.07006   0.00000
  19       10D+1        0.00000  -0.19590   0.00000   0.00000  -0.09878
  20       10D-1        0.00000   0.00000   0.00000   0.00000   0.00000
  21       10D+2        0.04544   0.00000   0.00000   0.16601   0.00000
  22       10D-2        0.00000   0.00000   0.19648   0.00000   0.00000
  23       11D 0        0.45211   0.00000   0.00000  -0.16047   0.00000
  24       11D+1        0.00000  -0.46735   0.00000   0.00000  -0.19576
  25       11D-1        0.00000   0.00000   0.00000   0.00000   0.00000
  26       11D+2        0.09176   0.00000   0.00000   0.39277   0.00000
  27       11D-2        0.00000   0.00000   0.43305   0.00000   0.00000
  28       12D 0        0.05935   0.00000   0.00000   0.04467   0.00000
  29       12D+1        0.00000  -0.00365   0.00000   0.00000  -0.07276
  30       12D-1        0.00000   0.00000   0.00000   0.00000   0.00000
  31       12D+2        0.01649   0.00000   0.00000   0.10266   0.00000
  32       12D-2        0.00000   0.00000   0.07659   0.00000   0.00000
  33       13F 0       -0.03772   0.00000   0.00000   0.01599   0.00000
  34       13F+1        0.00000   0.04812   0.00000   0.00000  -0.00580
  35       13F-1        0.00000   0.00000   0.00000   0.00000   0.00000
  36       13F+2       -0.00599   0.00000   0.00000  -0.01996   0.00000
  37       13F-2        0.00000   0.00000  -0.02395   0.00000   0.00000
  38       13F+3        0.00000  -0.00654   0.00000   0.00000   0.01588
  39       13F-3        0.00000   0.00000   0.00000   0.00000   0.00000
  40       14F 0       -0.07222   0.00000   0.00000   0.01232   0.00000
  41       14F+1        0.00000   0.05406   0.00000   0.00000   0.02669
  42       14F-1        0.00000   0.00000   0.00000   0.00000   0.00000
  43       14F+2       -0.00711   0.00000   0.00000  -0.05022   0.00000
  44       14F-2        0.00000   0.00000  -0.04605   0.00000   0.00000
  45       14F+3        0.00000   0.00810   0.00000   0.00000  -0.00998
  46       14F-3        0.00000   0.00000   0.00000   0.00000   0.00000
  47 2   C  1S         -0.05739   0.00000   0.00000   0.09210   0.00000
  48        2S          0.15105   0.00000   0.00000  -0.28609   0.00000
  49        3S          0.10684   0.00000   0.00000  -0.25686   0.00000
  50        4S          0.10328   0.00000   0.00000  -0.59636   0.00000
  51        5S         -0.01774   0.00000   0.00000  -0.07344   0.00000
  52        6PX         0.00000   0.25667   0.00000   0.00000  -0.19725
  53        6PY         0.00000   0.00000   0.00000   0.00000   0.00000
  54        6PZ         0.24504   0.00000   0.00000   0.05096   0.00000
  55        7PX         0.00000   0.15236   0.00000   0.00000  -0.33390
  56        7PY         0.00000   0.00000   0.00000   0.00000   0.00000
  57        7PZ        -0.25331   0.00000   0.00000   0.21554   0.00000
  58        8PX         0.00000  -0.13832   0.00000   0.00000   0.09569
  59        8PY         0.00000   0.00000   0.00000   0.00000   0.00000
  60        8PZ        -0.08359   0.00000   0.00000   0.29587   0.00000
  61        9PX         0.00000   0.02397   0.00000   0.00000  -0.01814
  62        9PY         0.00000   0.00000   0.00000   0.00000   0.00000
  63        9PZ         0.00615   0.00000   0.00000   0.02248   0.00000
  64       10D 0        0.21847   0.00000   0.00000  -0.02881   0.00000
  65       10D+1        0.00000   0.18551   0.00000   0.00000   0.20923
  66       10D-1        0.00000   0.00000   0.00000   0.00000   0.00000
  67       10D+2        0.06033   0.00000   0.00000   0.22204   0.00000
  68       10D-2        0.00000   0.00000   0.24562   0.00000   0.00000
  69       11D 0        0.15455   0.00000   0.00000   0.04136   0.00000
  70       11D+1        0.00000   0.03699   0.00000   0.00000   0.30609
  71       11D-1        0.00000   0.00000   0.00000   0.00000   0.00000
  72       11D+2        0.02762   0.00000   0.00000   0.42554   0.00000
  73       11D-2        0.00000   0.00000   0.31412   0.00000   0.00000
  74       12D 0       -0.03242   0.00000   0.00000   0.08446   0.00000
  75       12D+1        0.00000   0.00690   0.00000   0.00000  -0.04798
  76       12D-1        0.00000   0.00000   0.00000   0.00000   0.00000
  77       12D+2       -0.01656   0.00000   0.00000   0.07417   0.00000
  78       12D-2        0.00000   0.00000   0.01019   0.00000   0.00000
  79       13F 0        0.05342   0.00000   0.00000  -0.05205   0.00000
  80       13F+1        0.00000   0.04206   0.00000   0.00000  -0.00471
  81       13F-1        0.00000   0.00000   0.00000   0.00000   0.00000
  82       13F+2        0.01688   0.00000   0.00000   0.00042   0.00000
  83       13F-2        0.00000   0.00000   0.00746   0.00000   0.00000
  84       13F+3        0.00000  -0.00142   0.00000   0.00000   0.04706
  85       13F-3        0.00000   0.00000   0.00000   0.00000   0.00000
  86       14F 0       -0.04411   0.00000   0.00000  -0.08927   0.00000
  87       14F+1        0.00000  -0.06327   0.00000   0.00000   0.03463
  88       14F-1        0.00000   0.00000   0.00000   0.00000   0.00000
  89       14F+2       -0.02527   0.00000   0.00000  -0.10848   0.00000
  90       14F-2        0.00000   0.00000  -0.00809   0.00000   0.00000
  91       14F+3        0.00000  -0.05918   0.00000   0.00000   0.03632
  92       14F-3        0.00000   0.00000   0.00000   0.00000   0.00000
  93 3   H  1S         -0.03551   0.00000   0.00000  -0.09524   0.00000
  94        2S         -0.08169   0.00000   0.00000   0.47432   0.00000
  95        3S         -0.05877   0.00000   0.00000   0.42008   0.00000
  96        4S          0.00061   0.00000   0.00000   0.01373   0.00000
  97        5PX         0.00000  -0.01831   0.07009   0.00000  -0.06343
  98        5PY         0.00057   0.00000   0.00000   0.03240   0.00000
  99        5PZ        -0.05697   0.00000   0.00000  -0.04848   0.00000
 100        6PX         0.00000  -0.14694   0.11754   0.00000  -0.04300
 101        6PY         0.05479   0.00000   0.00000  -0.07395   0.00000
 102        6PZ        -0.14776   0.00000   0.00000   0.01006   0.00000
 103        7PX         0.00000  -0.05072   0.00391   0.00000  -0.00147
 104        7PY         0.01796   0.00000   0.00000  -0.05126   0.00000
 105        7PZ        -0.07205   0.00000   0.00000   0.06797   0.00000
 106        8D 0       -0.01375   0.00000   0.00000  -0.01552   0.00000
 107        8D+1        0.00000  -0.00359   0.02595   0.00000  -0.01129
 108        8D-1        0.02859   0.00000   0.00000   0.01418   0.00000
 109        8D+2       -0.00077   0.00000   0.00000   0.01048   0.00000
 110        8D-2        0.00000   0.01643  -0.03832   0.00000   0.03273
 111        9D 0       -0.02197   0.00000   0.00000  -0.01271   0.00000
 112        9D+1        0.00000  -0.05663   0.00162   0.00000   0.03377
 113        9D-1        0.02793   0.00000   0.00000  -0.01014   0.00000
 114        9D+2        0.02192   0.00000   0.00000   0.01934   0.00000
 115        9D-2        0.00000   0.02867  -0.00610   0.00000  -0.01324
 116 4   H  1S         -0.03551   0.00000   0.00000  -0.09524   0.00000
 117        2S         -0.08169   0.00000   0.00000   0.47432   0.00000
 118        3S         -0.05877   0.00000   0.00000   0.42008   0.00000
 119        4S          0.00061   0.00000   0.00000   0.01373   0.00000
 120        5PX         0.00000  -0.01831  -0.07009   0.00000  -0.06343
 121        5PY        -0.00057   0.00000   0.00000  -0.03240   0.00000
 122        5PZ        -0.05697   0.00000   0.00000  -0.04848   0.00000
 123        6PX         0.00000  -0.14694  -0.11754   0.00000  -0.04300
 124        6PY        -0.05479   0.00000   0.00000   0.07395   0.00000
 125        6PZ        -0.14776   0.00000   0.00000   0.01006   0.00000
 126        7PX         0.00000  -0.05072  -0.00391   0.00000  -0.00147
 127        7PY        -0.01796   0.00000   0.00000   0.05126   0.00000
 128        7PZ        -0.07205   0.00000   0.00000   0.06797   0.00000
 129        8D 0       -0.01375   0.00000   0.00000  -0.01552   0.00000
 130        8D+1        0.00000  -0.00359  -0.02595   0.00000  -0.01129
 131        8D-1       -0.02859   0.00000   0.00000  -0.01418   0.00000
 132        8D+2       -0.00077   0.00000   0.00000   0.01048   0.00000
 133        8D-2        0.00000  -0.01643  -0.03832   0.00000  -0.03273
 134        9D 0       -0.02197   0.00000   0.00000  -0.01271   0.00000
 135        9D+1        0.00000  -0.05663  -0.00162   0.00000   0.03377
 136        9D-1       -0.02793   0.00000   0.00000   0.01014   0.00000
 137        9D+2        0.02192   0.00000   0.00000   0.01934   0.00000
 138        9D-2        0.00000  -0.02867  -0.00610   0.00000   0.01324
                          21        22        23        24        25
     Eigenvalues --     0.00519   0.00485   0.00338   0.00285   0.00252
   1 1   O  1S         -0.00748   0.00000   0.00000   0.11612   0.00000
   2        2S          0.01781   0.00000   0.00000  -0.32597   0.00000
   3        3S          0.00299   0.00000   0.00000  -0.36875   0.00000
   4        4S          0.38984   0.00000   0.00000  -0.28322   0.00000
   5        5S          0.13092   0.00000   0.00000  -0.49839   0.00000
   6        6PX         0.00000   0.00000   0.00000   0.00000  -0.14863
   7        6PY         0.00000   0.00000   0.19120   0.00000   0.00000
   8        6PZ        -0.20200   0.00000   0.00000   0.36590   0.00000
   9        7PX         0.00000   0.00000   0.00000   0.00000   0.03793
  10        7PY         0.00000   0.00000  -0.04572   0.00000   0.00000
  11        7PZ        -0.04861   0.00000   0.00000   0.08667   0.00000
  12        8PX         0.00000   0.00000   0.00000   0.00000  -0.40172
  13        8PY         0.00000   0.00000  -0.71161   0.00000   0.00000
  14        8PZ         0.01555   0.00000   0.00000  -0.24709   0.00000
  15        9PX         0.00000   0.00000   0.00000   0.00000  -0.06433
  16        9PY         0.00000   0.00000  -0.04437   0.00000   0.00000
  17        9PZ        -0.01864   0.00000   0.00000   0.06399   0.00000
  18       10D 0        0.06120   0.00000   0.00000  -0.16887   0.00000
  19       10D+1        0.00000   0.00000   0.00000   0.00000   0.32920
  20       10D-1        0.00000   0.00000   0.30023   0.00000   0.00000
  21       10D+2        0.26067   0.00000   0.00000   0.08180   0.00000
  22       10D-2        0.00000   0.27420   0.00000   0.00000   0.00000
  23       11D 0        0.13714   0.00000   0.00000  -0.34697   0.00000
  24       11D+1        0.00000   0.00000   0.00000   0.00000   0.55236
  25       11D-1        0.00000   0.00000   0.46487   0.00000   0.00000
  26       11D+2        0.50937   0.00000   0.00000   0.06405   0.00000
  27       11D-2        0.00000   0.51504   0.00000   0.00000   0.00000
  28       12D 0        0.02290   0.00000   0.00000   0.03849   0.00000
  29       12D+1        0.00000   0.00000   0.00000   0.00000   0.18755
  30       12D-1        0.00000   0.00000   0.17953   0.00000   0.00000
  31       12D+2        0.07534   0.00000   0.00000  -0.07555   0.00000
  32       12D-2        0.00000   0.09784   0.00000   0.00000   0.00000
  33       13F 0       -0.01213   0.00000   0.00000   0.00774   0.00000
  34       13F+1        0.00000   0.00000   0.00000   0.00000   0.03139
  35       13F-1        0.00000   0.00000   0.00480   0.00000   0.00000
  36       13F+2       -0.01218   0.00000   0.00000  -0.00084   0.00000
  37       13F-2        0.00000  -0.00003   0.00000   0.00000   0.00000
  38       13F+3        0.00000   0.00000   0.00000   0.00000  -0.01017
  39       13F-3        0.00000   0.00000  -0.00147   0.00000   0.00000
  40       14F 0       -0.01208   0.00000   0.00000   0.02245   0.00000
  41       14F+1        0.00000   0.00000   0.00000   0.00000  -0.02386
  42       14F-1        0.00000   0.00000  -0.02122   0.00000   0.00000
  43       14F+2       -0.03510   0.00000   0.00000   0.03864   0.00000
  44       14F-2        0.00000  -0.02490   0.00000   0.00000   0.00000
  45       14F+3        0.00000   0.00000   0.00000   0.00000  -0.01577
  46       14F-3        0.00000   0.00000  -0.00238   0.00000   0.00000
  47 2   C  1S         -0.03706   0.00000   0.00000  -0.04169   0.00000
  48        2S          0.12518   0.00000   0.00000   0.16162   0.00000
  49        3S          0.11890   0.00000   0.00000   0.15120   0.00000
  50        4S         -0.23981   0.00000   0.00000  -0.21225   0.00000
  51        5S         -0.07975   0.00000   0.00000   0.05071   0.00000
  52        6PX         0.00000   0.00000   0.00000   0.00000   0.50683
  53        6PY         0.00000   0.00000   0.11871   0.00000   0.00000
  54        6PZ        -0.14726   0.00000   0.00000   0.23002   0.00000
  55        7PX         0.00000   0.00000   0.00000   0.00000   0.40424
  56        7PY         0.00000   0.00000   0.30184   0.00000   0.00000
  57        7PZ        -0.26236   0.00000   0.00000   0.15974   0.00000
  58        8PX         0.00000   0.00000   0.00000   0.00000   0.13839
  59        8PY         0.00000   0.00000   1.46448   0.00000   0.00000
  60        8PZ        -0.10138   0.00000   0.00000   0.70503   0.00000
  61        9PX         0.00000   0.00000   0.00000   0.00000   0.01370
  62        9PY         0.00000   0.00000   0.02453   0.00000   0.00000
  63        9PZ        -0.00346   0.00000   0.00000   0.03403   0.00000
  64       10D 0       -0.08365   0.00000   0.00000   0.28429   0.00000
  65       10D+1        0.00000   0.00000   0.00000   0.00000   0.18335
  66       10D-1        0.00000   0.00000   0.09953   0.00000   0.00000
  67       10D+2       -0.11578   0.00000   0.00000  -0.05415   0.00000
  68       10D-2        0.00000  -0.20673   0.00000   0.00000   0.00000
  69       11D 0       -0.21785   0.00000   0.00000   0.52489   0.00000
  70       11D+1        0.00000   0.00000   0.00000   0.00000   0.37706
  71       11D-1        0.00000   0.00000   0.29514   0.00000   0.00000
  72       11D+2       -0.24363   0.00000   0.00000  -0.11014   0.00000
  73       11D-2        0.00000  -0.25888   0.00000   0.00000   0.00000
  74       12D 0       -0.00931   0.00000   0.00000   0.24450   0.00000
  75       12D+1        0.00000   0.00000   0.00000   0.00000   0.03636
  76       12D-1        0.00000   0.00000  -0.14993   0.00000   0.00000
  77       12D+2        0.03603   0.00000   0.00000   0.15642   0.00000
  78       12D-2        0.00000   0.04439   0.00000   0.00000   0.00000
  79       13F 0        0.06547   0.00000   0.00000  -0.03564   0.00000
  80       13F+1        0.00000   0.00000   0.00000   0.00000  -0.00592
  81       13F-1        0.00000   0.00000  -0.22244   0.00000   0.00000
  82       13F+2        0.09138   0.00000   0.00000   0.07231   0.00000
  83       13F-2        0.00000   0.10166   0.00000   0.00000   0.00000
  84       13F+3        0.00000   0.00000   0.00000   0.00000   0.03736
  85       13F-3        0.00000   0.00000  -0.00275   0.00000   0.00000
  86       14F 0        0.05236   0.00000   0.00000   0.18083   0.00000
  87       14F+1        0.00000   0.00000   0.00000   0.00000   0.09135
  88       14F-1        0.00000   0.00000   0.01857   0.00000   0.00000
  89       14F+2        0.07699   0.00000   0.00000   0.10874   0.00000
  90       14F-2        0.00000   0.00835   0.00000   0.00000   0.00000
  91       14F+3        0.00000   0.00000   0.00000   0.00000   0.00363
  92       14F-3        0.00000   0.00000   0.00489   0.00000   0.00000
  93 3   H  1S          0.16055   0.00000  -0.29256   0.23972   0.00000
  94        2S         -0.23798   0.00000  -0.12786  -0.08967   0.00000
  95        3S         -0.10270   0.00000  -1.08204   0.29526   0.00000
  96        4S          0.00683   0.00000  -0.01421   0.00182   0.00000
  97        5PX         0.00000  -0.09177   0.00000   0.00000  -0.08998
  98        5PY        -0.01572   0.00000   0.10405  -0.10236   0.00000
  99        5PZ         0.06546   0.00000   0.01662  -0.03995   0.00000
 100        6PX         0.00000  -0.20054   0.00000   0.00000  -0.23437
 101        6PY         0.07085   0.00000   0.15186  -0.07113   0.00000
 102        6PZ         0.03388   0.00000   0.06963  -0.12078   0.00000
 103        7PX         0.00000  -0.06550   0.00000   0.00000  -0.07115
 104        7PY         0.03813   0.00000   0.32526   0.01940   0.00000
 105        7PZ         0.00302   0.00000  -0.17230   0.10647   0.00000
 106        8D 0        0.02115   0.00000   0.00750  -0.03396   0.00000
 107        8D+1        0.00000  -0.02967   0.00000   0.00000  -0.02017
 108        8D-1       -0.02262   0.00000   0.01819   0.00845   0.00000
 109        8D+2       -0.00273   0.00000   0.02676  -0.04745   0.00000
 110        8D-2        0.00000   0.04186   0.00000   0.00000   0.04509
 111        9D 0        0.00145   0.00000   0.01471   0.02262   0.00000
 112        9D+1        0.00000   0.00086   0.00000   0.00000  -0.01682
 113        9D-1        0.00538   0.00000   0.00322   0.02336   0.00000
 114        9D+2       -0.01287   0.00000   0.03184  -0.01341   0.00000
 115        9D-2        0.00000   0.02199   0.00000   0.00000   0.03780
 116 4   H  1S          0.16055   0.00000   0.29256   0.23972   0.00000
 117        2S         -0.23798   0.00000   0.12786  -0.08967   0.00000
 118        3S         -0.10270   0.00000   1.08204   0.29526   0.00000
 119        4S          0.00683   0.00000   0.01421   0.00182   0.00000
 120        5PX         0.00000   0.09177   0.00000   0.00000  -0.08998
 121        5PY         0.01572   0.00000   0.10405   0.10236   0.00000
 122        5PZ         0.06546   0.00000  -0.01662  -0.03995   0.00000
 123        6PX         0.00000   0.20054   0.00000   0.00000  -0.23437
 124        6PY        -0.07085   0.00000   0.15186   0.07113   0.00000
 125        6PZ         0.03388   0.00000  -0.06963  -0.12078   0.00000
 126        7PX         0.00000   0.06550   0.00000   0.00000  -0.07115
 127        7PY        -0.03813   0.00000   0.32526  -0.01940   0.00000
 128        7PZ         0.00302   0.00000   0.17230   0.10647   0.00000
 129        8D 0        0.02115   0.00000  -0.00750  -0.03396   0.00000
 130        8D+1        0.00000   0.02967   0.00000   0.00000  -0.02017
 131        8D-1        0.02262   0.00000   0.01819  -0.00845   0.00000
 132        8D+2       -0.00273   0.00000  -0.02676  -0.04745   0.00000
 133        8D-2        0.00000   0.04186   0.00000   0.00000  -0.04509
 134        9D 0        0.00145   0.00000  -0.01471   0.02262   0.00000
 135        9D+1        0.00000  -0.00086   0.00000   0.00000  -0.01682
 136        9D-1       -0.00538   0.00000   0.00322  -0.02336   0.00000
 137        9D+2       -0.01287   0.00000  -0.03184  -0.01341   0.00000
 138        9D-2        0.00000   0.02199   0.00000   0.00000  -0.03780
                          26        27        28        29        30
     Eigenvalues --     0.00210   0.00164   0.00141   0.00132   0.00107
   1 1   O  1S          0.00000   0.01102   0.04912   0.00000   0.00000
   2        2S          0.00000  -0.04415  -0.27886   0.00000   0.00000
   3        3S          0.00000  -0.03907  -0.27054   0.00000   0.00000
   4        4S          0.00000  -0.02014   0.20803   0.00000   0.00000
   5        5S          0.00000   0.15174  -0.45554   0.00000   0.00000
   6        6PX         0.00000   0.00000   0.00000   0.00000   0.00000
   7        6PY        -0.29473   0.00000   0.00000  -0.45982   0.00000
   8        6PZ         0.00000   0.24138   0.13615   0.00000   0.00000
   9        7PX         0.00000   0.00000   0.00000   0.00000   0.00000
  10        7PY         0.14573   0.00000   0.00000   0.48603   0.00000
  11        7PZ         0.00000  -0.16365   0.13208   0.00000   0.00000
  12        8PX         0.00000   0.00000   0.00000   0.00000   0.00000
  13        8PY        -0.22362   0.00000   0.00000  -0.08996   0.00000
  14        8PZ         0.00000  -0.30921  -1.01254   0.00000   0.00000
  15        9PX         0.00000   0.00000   0.00000   0.00000   0.00000
  16        9PY        -0.04985   0.00000   0.00000  -0.19729   0.00000
  17        9PZ         0.00000  -0.01712   0.05206   0.00000   0.00000
  18       10D 0        0.00000   0.20533   0.38776   0.00000   0.00000
  19       10D+1        0.00000   0.00000   0.00000   0.00000   0.00000
  20       10D-1        0.05512   0.00000   0.00000   0.16272   0.00000
  21       10D+2        0.00000   0.25321  -0.09978   0.00000   0.00000
  22       10D-2        0.00000   0.00000   0.00000   0.00000  -0.34562
  23       11D 0        0.00000   0.19600   0.34840   0.00000   0.00000
  24       11D+1        0.00000   0.00000   0.00000   0.00000   0.00000
  25       11D-1        0.21179   0.00000   0.00000   0.18564   0.00000
  26       11D+2        0.00000   0.23665  -0.16989   0.00000   0.00000
  27       11D-2        0.00000   0.00000   0.00000   0.00000  -0.21251
  28       12D 0        0.00000   0.05349   0.22552   0.00000   0.00000
  29       12D+1        0.00000   0.00000   0.00000   0.00000   0.00000
  30       12D-1        0.14029   0.00000   0.00000   0.09611   0.00000
  31       12D+2        0.00000  -0.03302  -0.06336   0.00000   0.00000
  32       12D-2        0.00000   0.00000   0.00000   0.00000   0.09355
  33       13F 0        0.00000   0.07802   0.13086   0.00000   0.00000
  34       13F+1        0.00000   0.00000   0.00000   0.00000   0.00000
  35       13F-1       -0.00328   0.00000   0.00000   0.15397   0.00000
  36       13F+2        0.00000   0.06030  -0.05389   0.00000   0.00000
  37       13F-2        0.00000   0.00000   0.00000   0.00000  -0.20969
  38       13F+3        0.00000   0.00000   0.00000   0.00000   0.00000
  39       13F-3        0.01260   0.00000   0.00000  -0.01069   0.00000
  40       14F 0        0.00000   0.01906   0.05696   0.00000   0.00000
  41       14F+1        0.00000   0.00000   0.00000   0.00000   0.00000
  42       14F-1       -0.05117   0.00000   0.00000   0.04741   0.00000
  43       14F+2        0.00000   0.04697  -0.01575   0.00000   0.00000
  44       14F-2        0.00000   0.00000   0.00000   0.00000  -0.14148
  45       14F+3        0.00000   0.00000   0.00000   0.00000   0.00000
  46       14F-3       -0.01670   0.00000   0.00000  -0.01274   0.00000
  47 2   C  1S          0.00000   0.07768   0.14834   0.00000   0.00000
  48        2S          0.00000  -0.30028  -0.49576   0.00000   0.00000
  49        3S          0.00000  -0.38476  -0.66167   0.00000   0.00000
  50        4S          0.00000   1.22845  -1.30561   0.00000   0.00000
  51        5S          0.00000   0.04938  -0.08589   0.00000   0.00000
  52        6PX         0.00000   0.00000   0.00000   0.00000   0.00000
  53        6PY         0.30332   0.00000   0.00000   0.14236   0.00000
  54        6PZ         0.00000  -0.27599  -0.48475   0.00000   0.00000
  55        7PX         0.00000   0.00000   0.00000   0.00000   0.00000
  56        7PY         0.31529   0.00000   0.00000   0.40700   0.00000
  57        7PZ         0.00000  -0.08150   0.09798   0.00000   0.00000
  58        8PX         0.00000   0.00000   0.00000   0.00000   0.00000
  59        8PY         1.41223   0.00000   0.00000  -1.25739   0.00000
  60        8PZ         0.00000  -0.28750   0.85343   0.00000   0.00000
  61        9PX         0.00000   0.00000   0.00000   0.00000   0.00000
  62        9PY         0.04651   0.00000   0.00000   0.03381   0.00000
  63        9PZ         0.00000  -0.01965  -0.00841   0.00000   0.00000
  64       10D 0        0.00000   0.11608   0.11241   0.00000   0.00000
  65       10D+1        0.00000   0.00000   0.00000   0.00000   0.00000
  66       10D-1       -0.02940   0.00000   0.00000   0.53352   0.00000
  67       10D+2        0.00000  -0.29096   0.23690   0.00000   0.00000
  68       10D-2        0.00000   0.00000   0.00000   0.00000   0.25595
  69       11D 0        0.00000   0.17333   0.23797   0.00000   0.00000
  70       11D+1        0.00000   0.00000   0.00000   0.00000   0.00000
  71       11D-1        0.08057   0.00000   0.00000  -0.02860   0.00000
  72       11D+2        0.00000  -0.46902   0.27908   0.00000   0.00000
  73       11D-2        0.00000   0.00000   0.00000   0.00000   0.36010
  74       12D 0        0.00000   0.06400   0.48198   0.00000   0.00000
  75       12D+1        0.00000   0.00000   0.00000   0.00000   0.00000
  76       12D-1       -0.42115   0.00000   0.00000   0.10035   0.00000
  77       12D+2        0.00000  -0.03563   0.30972   0.00000   0.00000
  78       12D-2        0.00000   0.00000   0.00000   0.00000   0.00802
  79       13F 0        0.00000  -0.12268   0.02828   0.00000   0.00000
  80       13F+1        0.00000   0.00000   0.00000   0.00000   0.00000
  81       13F-1        0.24617   0.00000   0.00000   0.07354   0.00000
  82       13F+2        0.00000  -0.18535   0.10626   0.00000   0.00000
  83       13F-2        0.00000   0.00000   0.00000   0.00000   0.38838
  84       13F+3        0.00000   0.00000   0.00000   0.00000   0.00000
  85       13F-3        0.13685   0.00000   0.00000  -0.10686   0.00000
  86       14F 0        0.00000  -0.06985   0.11360   0.00000   0.00000
  87       14F+1        0.00000   0.00000   0.00000   0.00000   0.00000
  88       14F-1        0.14923   0.00000   0.00000   0.06373   0.00000
  89       14F+2        0.00000  -0.07281   0.07195   0.00000   0.00000
  90       14F-2        0.00000   0.00000   0.00000   0.00000   0.14973
  91       14F+3        0.00000   0.00000   0.00000   0.00000   0.00000
  92       14F-3        0.02540   0.00000   0.00000  -0.04170   0.00000
  93 3   H  1S         -0.38253  -0.25977   0.23182   0.30450   0.00000
  94        2S         -0.24680  -0.26371   0.27633  -0.13034   0.00000
  95        3S         -1.12089  -0.27218   0.77719   0.86780   0.00000
  96        4S         -0.01985  -0.00981   0.01050  -0.00460   0.00000
  97        5PX         0.00000   0.00000   0.00000   0.00000  -0.11362
  98        5PY         0.02311   0.01969  -0.05329   0.03084   0.00000
  99        5PZ        -0.15943   0.02001  -0.00707   0.03166   0.00000
 100        6PX         0.00000   0.00000   0.00000   0.00000  -0.28328
 101        6PY        -0.02718   0.05533  -0.09705   0.30241   0.00000
 102        6PZ        -0.30555   0.00871   0.10104  -0.07281   0.00000
 103        7PX         0.00000   0.00000   0.00000   0.00000  -0.05333
 104        7PY         0.29413   0.09886   0.01785  -0.12806   0.00000
 105        7PZ        -0.19329  -0.02639   0.36673   0.07011   0.00000
 106        8D 0       -0.03289   0.01851  -0.02260   0.03563   0.00000
 107        8D+1        0.00000   0.00000   0.00000   0.00000  -0.00514
 108        8D-1        0.05172   0.01018  -0.01572  -0.02357   0.00000
 109        8D+2        0.00661   0.00100  -0.03124   0.01386   0.00000
 110        8D-2        0.00000   0.00000   0.00000   0.00000   0.02793
 111        9D 0       -0.03051  -0.01306   0.02549   0.01304   0.00000
 112        9D+1        0.00000   0.00000   0.00000   0.00000  -0.02216
 113        9D-1        0.03565  -0.01493  -0.03574   0.02883   0.00000
 114        9D+2       -0.00177  -0.00242   0.00993   0.04918   0.00000
 115        9D-2        0.00000   0.00000   0.00000   0.00000   0.04611
 116 4   H  1S          0.38253  -0.25977   0.23182  -0.30450   0.00000
 117        2S          0.24680  -0.26371   0.27633   0.13034   0.00000
 118        3S          1.12089  -0.27218   0.77719  -0.86780   0.00000
 119        4S          0.01985  -0.00981   0.01050   0.00460   0.00000
 120        5PX         0.00000   0.00000   0.00000   0.00000   0.11362
 121        5PY         0.02311  -0.01969   0.05329   0.03084   0.00000
 122        5PZ         0.15943   0.02001  -0.00707  -0.03166   0.00000
 123        6PX         0.00000   0.00000   0.00000   0.00000   0.28328
 124        6PY        -0.02718  -0.05533   0.09705   0.30241   0.00000
 125        6PZ         0.30555   0.00871   0.10104   0.07281   0.00000
 126        7PX         0.00000   0.00000   0.00000   0.00000   0.05333
 127        7PY         0.29413  -0.09886  -0.01785  -0.12806   0.00000
 128        7PZ         0.19329  -0.02639   0.36673  -0.07011   0.00000
 129        8D 0        0.03289   0.01851  -0.02260  -0.03563   0.00000
 130        8D+1        0.00000   0.00000   0.00000   0.00000   0.00514
 131        8D-1        0.05172  -0.01018   0.01572  -0.02357   0.00000
 132        8D+2       -0.00661   0.00100  -0.03124  -0.01386   0.00000
 133        8D-2        0.00000   0.00000   0.00000   0.00000   0.02793
 134        9D 0        0.03051  -0.01306   0.02549  -0.01304   0.00000
 135        9D+1        0.00000   0.00000   0.00000   0.00000   0.02216
 136        9D-1        0.03565   0.01493   0.03574   0.02883   0.00000
 137        9D+2        0.00177  -0.00242   0.00993  -0.04918   0.00000
 138        9D-2        0.00000   0.00000   0.00000   0.00000   0.04611
                          31        32        33        34        35
     Eigenvalues --     0.00107   0.00087   0.00085   0.00081   0.00065
   1 1   O  1S          0.00000   0.00000   0.04784   0.00000   0.26185
   2        2S          0.00000   0.00000   0.00422   0.00000   0.22098
   3        3S          0.00000   0.00000  -0.11642   0.00000  -0.69557
   4        4S          0.00000   0.00000   0.12408   0.00000  -0.05526
   5        5S          0.00000   0.00000   0.14707   0.00000  -0.58550
   6        6PX         0.72472   0.01321   0.00000   0.00000   0.00000
   7        6PY         0.00000   0.00000   0.00000   0.69617   0.00000
   8        6PZ         0.00000   0.00000   0.24042   0.00000  -0.73105
   9        7PX        -0.62393  -0.06198   0.00000   0.00000   0.00000
  10        7PY         0.00000   0.00000   0.00000  -1.09041   0.00000
  11        7PZ         0.00000   0.00000  -0.22071   0.00000   1.19979
  12        8PX        -0.19675   0.43543   0.00000   0.00000   0.00000
  13        8PY         0.00000   0.00000   0.00000  -0.44920   0.00000
  14        8PZ         0.00000   0.00000   0.18581   0.00000  -0.65061
  15        9PX         0.10624   0.03904   0.00000   0.00000   0.00000
  16        9PY         0.00000   0.00000   0.00000   0.17377   0.00000
  17        9PZ         0.00000   0.00000   0.02580   0.00000  -0.13887
  18       10D 0        0.00000   0.00000  -0.04870   0.00000  -0.10126
  19       10D+1        0.14169  -0.24200   0.00000   0.00000   0.00000
  20       10D-1        0.00000   0.00000   0.00000   0.22400   0.00000
  21       10D+2        0.00000   0.00000   0.00792   0.00000   0.16326
  22       10D-2        0.00000   0.00000   0.00000   0.00000   0.00000
  23       11D 0        0.00000   0.00000  -0.07224   0.00000  -0.05887
  24       11D+1        0.06455  -0.14848   0.00000   0.00000   0.00000
  25       11D-1        0.00000   0.00000   0.00000   0.31908   0.00000
  26       11D+2        0.00000   0.00000   0.00398   0.00000  -0.02645
  27       11D-2        0.00000   0.00000   0.00000   0.00000   0.00000
  28       12D 0        0.00000   0.00000  -0.06809   0.00000   0.36381
  29       12D+1       -0.15986  -0.10436   0.00000   0.00000   0.00000
  30       12D-1        0.00000   0.00000   0.00000   0.13783   0.00000
  31       12D+2        0.00000   0.00000   0.01871   0.00000  -0.09728
  32       12D-2        0.00000   0.00000   0.00000   0.00000   0.00000
[...]
   7        6PY         0.00000   0.00000   0.00265  -0.00411   0.00000
   8        6PZ         0.00000   0.02361   0.00000   0.00000  -0.01625
   9        7PX        -0.06247   0.00000   0.00000   0.00000   0.00000
  10        7PY         0.00000   0.00000   0.02137  -0.03911   0.00000
  11        7PZ         0.00000  -0.13584   0.00000   0.00000   0.03357
  12        8PX         0.43165   0.00000   0.00000   0.00000   0.00000
  13        8PY         0.00000   0.00000   3.21490  -2.29350   0.00000
  14        8PZ         0.00000   3.63239   0.00000   0.00000   0.92515
  15        9PX        -0.77419   0.00000   0.00000   0.00000   0.00000
  16        9PY         0.00000   0.00000  -0.82799  -0.07498   0.00000
  17        9PZ         0.00000   5.49259   0.00000   0.00000  -0.29383
  18       10D 0        0.00000  -0.03013   0.00000   0.00000   0.01042
  19       10D+1        0.00540   0.00000   0.00000   0.00000   0.00000
  20       10D-1        0.00000   0.00000   0.01073  -0.00745   0.00000
  21       10D+2        0.00000   0.03503   0.00000   0.00000   0.00772
  22       10D-2        0.00000   0.00000   0.00000   0.00000   0.00000
  23       11D 0        0.00000   0.05413   0.00000   0.00000  -0.05903
  24       11D+1       -0.05896   0.00000   0.00000   0.00000   0.00000
  25       11D-1        0.00000   0.00000  -0.07551   0.10163   0.00000
  26       11D+2        0.00000  -0.13149   0.00000   0.00000  -0.02838
  27       11D-2        0.00000   0.00000   0.00000   0.00000   0.00000
  28       12D 0        0.00000  -1.74489   0.00000   0.00000  -0.48021
  29       12D+1       -0.08457   0.00000   0.00000   0.00000   0.00000
  30       12D-1        0.00000   0.00000  -1.52691   1.02495   0.00000
  31       12D+2        0.00000   0.29280   0.00000   0.00000  -0.02162
  32       12D-2        0.00000   0.00000   0.00000   0.00000   0.00000
  33       13F 0        0.00000  -0.00593   0.00000   0.00000  -0.00881
  34       13F+1       -0.00715   0.00000   0.00000   0.00000   0.00000
  35       13F-1        0.00000   0.00000  -0.04279   0.02264   0.00000
  36       13F+2        0.00000   0.00479   0.00000   0.00000  -0.00359
  37       13F-2        0.00000   0.00000   0.00000   0.00000   0.00000
  38       13F+3        0.01871   0.00000   0.00000   0.00000   0.00000
  39       13F-3        0.00000   0.00000   0.01312  -0.01149   0.00000
  40       14F 0        0.00000   0.13295   0.00000   0.00000   0.08726
  41       14F+1        0.07801   0.00000   0.00000   0.00000   0.00000
  42       14F-1        0.00000   0.00000   0.17294  -0.12348   0.00000
  43       14F+2        0.00000  -0.01668   0.00000   0.00000   0.00326
  44       14F-2        0.00000   0.00000   0.00000   0.00000   0.00000
  45       14F+3       -0.02965   0.00000   0.00000   0.00000   0.00000
  46       14F-3        0.00000   0.00000  -0.02930   0.01372   0.00000
  47 2   C  1S          0.00000   0.07306   0.00000   0.00000   0.20787
  48        2S          0.00000   0.40337   0.00000   0.00000   1.25148
  49        3S          0.00000  -0.08130   0.00000   0.00000  -0.00501
  50        4S          0.00000   5.59756   0.00000   0.00000  25.58348
  51        5S          0.00000   7.95568   0.00000   0.00000  10.53828
  52        6PX         0.00649   0.00000   0.00000   0.00000   0.00000
  53        6PY         0.00000   0.00000   0.03017   0.00595   0.00000
  54        6PZ         0.00000   0.00290   0.00000   0.00000   0.03640
  55        7PX        -0.02292   0.00000   0.00000   0.00000   0.00000
  56        7PY         0.00000   0.00000  -1.84414  -1.42687   0.00000
  57        7PZ         0.00000   0.69834   0.00000   0.00000  -1.03008
  58        8PX         3.58056   0.00000   0.00000   0.00000   0.00000
  59        8PY         0.00000   0.00000 -16.35158  -8.75683   0.00000
  60        8PZ         0.00000  -2.54018   0.00000   0.00000  -9.42347
  61        9PX         2.30968   0.00000   0.00000   0.00000   0.00000
  62        9PY         0.00000   0.00000   1.63479  -5.33115   0.00000
  63        9PZ         0.00000  -2.28028   0.00000   0.00000  -2.06101
  64       10D 0        0.00000  -0.05727   0.00000   0.00000   0.02289
  65       10D+1        0.01515   0.00000   0.00000   0.00000   0.00000
  66       10D-1        0.00000   0.00000   0.01582   0.02057   0.00000
  67       10D+2        0.00000   0.02282   0.00000   0.00000  -0.05365
  68       10D-2        0.00000   0.00000   0.00000   0.00000   0.00000
  69       11D 0        0.00000   0.72475   0.00000   0.00000   0.16032
  70       11D+1       -0.33533   0.00000   0.00000   0.00000   0.00000
  71       11D-1        0.00000   0.00000   1.41157   1.24099   0.00000
  72       11D+2        0.00000  -0.27262   0.00000   0.00000  -0.93404
  73       11D-2        0.00000   0.00000   0.00000   0.00000   0.00000
  74       12D 0        0.00000   1.31447   0.00000   0.00000   1.82044
  75       12D+1       -1.24540   0.00000   0.00000   0.00000   0.00000
  76       12D-1        0.00000   0.00000   2.38903   2.37893   0.00000
  77       12D+2        0.00000   0.24943   0.00000   0.00000  -0.23506
  78       12D-2        0.00000   0.00000   0.00000   0.00000   0.00000
  79       13F 0        0.00000   0.01708   0.00000   0.00000   0.02701
  80       13F+1       -0.03621   0.00000   0.00000   0.00000   0.00000
  81       13F-1        0.00000   0.00000   0.04667  -0.01768   0.00000
  82       13F+2        0.00000   0.00768   0.00000   0.00000   0.04643
  83       13F-2        0.00000   0.00000   0.00000   0.00000   0.00000
  84       13F+3        0.10026   0.00000   0.00000   0.00000   0.00000
  85       13F-3        0.00000   0.00000   0.07490   0.01714   0.00000
  86       14F 0        0.00000  -0.05545   0.00000   0.00000   0.17753
  87       14F+1        0.03462   0.00000   0.00000   0.00000   0.00000
  88       14F-1        0.00000   0.00000  -2.03055   1.12473   0.00000
  89       14F+2        0.00000   0.41534   0.00000   0.00000   0.45401
  90       14F-2        0.00000   0.00000   0.00000   0.00000   0.00000
  91       14F+3       -0.29525   0.00000   0.00000   0.00000   0.00000
  92       14F-3        0.00000   0.00000  -0.23694   0.33033   0.00000
  93 3   H  1S          0.00000   0.01744  -0.06803   0.00962   0.04828
  94        2S          0.00000  -1.40933   3.05448   1.67032  -2.88461
  95        3S          0.00000   1.58675  25.58605  14.74405 -14.76693
  96        4S          0.00000  -1.15599  -1.73375   4.64729  -1.67223
  97        5PX        -0.08919   0.00000   0.00000   0.00000   0.00000
  98        5PY         0.00000   0.01894   0.11407   0.07409  -0.09491
  99        5PZ         0.00000  -0.01714   0.03486  -0.10425   0.03177
 100        6PX         0.03056   0.00000   0.00000   0.00000   0.00000
 101        6PY         0.00000   0.14153  -2.15413  -0.75288   1.52000
 102        6PZ         0.00000   0.29394  -0.49131   1.44693  -0.62022
 103        7PX        -2.84869   0.00000   0.00000   0.00000   0.00000
 104        7PY         0.00000  -0.11896  -9.17792  -2.04597   4.81425
 105        7PZ         0.00000   4.07885   1.47628   3.01532   0.03328
 106        8D 0        0.00000  -0.05781   0.05292  -0.02757  -0.02511
 107        8D+1        0.02280   0.00000   0.00000   0.00000   0.00000
 108        8D-1        0.00000   0.04794  -0.11021  -0.00883   0.06619
 109        8D+2        0.00000   0.04016   0.05090  -0.04189   0.04495
 110        8D-2       -0.05597   0.00000   0.00000   0.00000   0.00000
 111        9D 0        0.00000   0.59149  -1.21505   0.48486   0.42432
 112        9D+1       -0.21209   0.00000   0.00000   0.00000   0.00000
 113        9D-1        0.00000  -0.81123   0.31964  -0.76479   0.14555
 114        9D+2        0.00000  -0.15504  -1.19121   0.11656   0.43728
 115        9D-2        0.43819   0.00000   0.00000   0.00000   0.00000
 116 4   H  1S          0.00000   0.01744   0.06803  -0.00962   0.04828
 117        2S          0.00000  -1.40933  -3.05448  -1.67032  -2.88461
 118        3S          0.00000   1.58675 -25.58605 -14.74405 -14.76693
 119        4S          0.00000  -1.15599   1.73375  -4.64729  -1.67223
 120        5PX        -0.08919   0.00000   0.00000   0.00000   0.00000
 121        5PY         0.00000  -0.01894   0.11407   0.07409   0.09491
 122        5PZ         0.00000  -0.01714  -0.03486   0.10425   0.03177
 123        6PX         0.03056   0.00000   0.00000   0.00000   0.00000
 124        6PY         0.00000  -0.14153  -2.15413  -0.75288  -1.52000
 125        6PZ         0.00000   0.29394   0.49131  -1.44693  -0.62022
 126        7PX        -2.84869   0.00000   0.00000   0.00000   0.00000
 127        7PY         0.00000   0.11896  -9.17792  -2.04597  -4.81425
 128        7PZ         0.00000   4.07885  -1.47628  -3.01532   0.03328
 129        8D 0        0.00000  -0.05781  -0.05292   0.02757  -0.02511
 130        8D+1        0.02280   0.00000   0.00000   0.00000   0.00000
 131        8D-1        0.00000  -0.04794  -0.11021  -0.00883  -0.06619
 132        8D+2        0.00000   0.04016  -0.05090   0.04189   0.04495
 133        8D-2        0.05597   0.00000   0.00000   0.00000   0.00000
 134        9D 0        0.00000   0.59149   1.21505  -0.48486   0.42432
 135        9D+1       -0.21209   0.00000   0.00000   0.00000   0.00000
 136        9D-1        0.00000   0.81123   0.31964  -0.76479  -0.14555
 137        9D+2        0.00000  -0.15504   1.19121  -0.11656   0.43728
 138        9D-2       -0.43819   0.00000   0.00000   0.00000   0.00000
                         136       137       138
     Eigenvalues --     0.00000   0.00000   0.00000
   1 1   O  1S         -0.06156   0.00000   0.00930
   2        2S         -0.29790   0.00000   0.05081
   3        3S          0.03741   0.00000   0.00123
   4        4S          4.36776   0.00000  -1.08372
   5        5S         13.09183   0.00000  -6.78292
   6        6PX         0.00000   0.00000   0.00000
   7        6PY         0.00000   0.00483   0.00000
   8        6PZ        -0.00530   0.00000   0.00553
   9        7PX         0.00000   0.00000   0.00000
  10        7PY         0.00000  -0.01308   0.00000
  11        7PZ        -0.07229   0.00000  -0.03077
  12        8PX         0.00000   0.00000   0.00000
  13        8PY         0.00000   1.41680   0.00000
  14        8PZ        -1.45294   0.00000   0.90562
  15        9PX         0.00000   0.00000   0.00000
  16        9PY         0.00000   1.51515   0.00000
  17        9PZ        -1.15693   0.00000   1.44305
  18       10D 0       -0.01614   0.00000   0.00141
  19       10D+1        0.00000   0.00000   0.00000
  20       10D-1        0.00000  -0.00226   0.00000
  21       10D+2        0.00367   0.00000  -0.00169
  22       10D-2        0.00000   0.00000   0.00000
  23       11D 0        0.10981   0.00000  -0.00600
  24       11D+1        0.00000   0.00000   0.00000
  25       11D-1        0.00000  -0.01593   0.00000
  26       11D+2       -0.01260   0.00000   0.00426
  27       11D-2        0.00000   0.00000   0.00000
  28       12D 0       -0.05450   0.00000  -0.20602
  29       12D+1        0.00000   0.00000   0.00000
  30       12D-1        0.00000  -0.56596   0.00000
  31       12D+2        0.31566   0.00000  -0.04039
  32       12D-2        0.00000   0.00000   0.00000
  33       13F 0       -0.00799   0.00000  -0.00410
  34       13F+1        0.00000   0.00000   0.00000
  35       13F-1        0.00000  -0.00471   0.00000
  36       13F+2        0.01317   0.00000  -0.00222
  37       13F-2        0.00000   0.00000   0.00000
  38       13F+3        0.00000   0.00000   0.00000
  39       13F-3        0.00000  -0.00504   0.00000
  40       14F 0        0.01206   0.00000   0.01805
  41       14F+1        0.00000   0.00000   0.00000
  42       14F-1        0.00000   0.02910   0.00000
  43       14F+2       -0.06176   0.00000   0.01079
  44       14F-2        0.00000   0.00000   0.00000
  45       14F+3        0.00000   0.00000   0.00000
  46       14F-3        0.00000   0.01465   0.00000
  47 2   C  1S         -0.03939   0.00000   0.00511
  48        2S         -0.22280   0.00000   0.03529
  49        3S          0.11827   0.00000   0.02654
  50        4S         -5.25705   0.00000  10.09732
  51        5S         -4.14380   0.00000  13.52016
  52        6PX         0.00000   0.00000   0.00000
  53        6PY         0.00000  -0.01401   0.00000
  54        6PZ        -0.02369   0.00000   0.00227
  55        7PX         0.00000   0.00000   0.00000
  56        7PY         0.00000   0.01745   0.00000
  57        7PZ         0.22834   0.00000   0.00849
  58        8PX         0.00000   0.00000   0.00000
  59        8PY         0.00000  -7.36777   0.00000
  60        8PZ        -1.40612   0.00000  -0.04052
  61        9PX         0.00000   0.00000   0.00000
  62        9PY         0.00000  -5.52881   0.00000
  63        9PZ        -2.31004   0.00000  -0.22079
  64       10D 0        0.01362   0.00000  -0.00385
  65       10D+1        0.00000   0.00000   0.00000
  66       10D-1        0.00000  -0.01454   0.00000
  67       10D+2       -0.00649   0.00000  -0.00781
  68       10D-2        0.00000   0.00000   0.00000
  69       11D 0       -0.78662   0.00000   0.13426
  70       11D+1        0.00000   0.00000   0.00000
  71       11D-1        0.00000  -0.17546   0.00000
  72       11D+2        0.21264   0.00000  -0.05355
  73       11D-2        0.00000   0.00000   0.00000
  74       12D 0       -6.03769   0.00000   0.71707
  75       12D+1        0.00000   0.00000   0.00000
  76       12D-1        0.00000  -0.72597   0.00000
  77       12D+2       -2.83159   0.00000  -0.30674
  78       12D-2        0.00000   0.00000   0.00000
  79       13F 0       -0.03771   0.00000  -0.00904
  80       13F+1        0.00000   0.00000   0.00000
  81       13F-1        0.00000   0.01857   0.00000
  82       13F+2       -0.01715   0.00000  -0.00140
  83       13F-2        0.00000   0.00000   0.00000
  84       13F+3        0.00000   0.00000   0.00000
  85       13F-3        0.00000  -0.01746   0.00000
  86       14F 0       -0.17683   0.00000   0.07063
  87       14F+1        0.00000   0.00000   0.00000
  88       14F-1        0.00000  -0.51927   0.00000
  89       14F+2       -0.34702   0.00000   0.05592
  90       14F-2        0.00000   0.00000   0.00000
  91       14F+3        0.00000   0.00000   0.00000
  92       14F-3        0.00000  -0.03519   0.00000
  93 3   H  1S         -0.01656   0.00896  -0.00290
  94        2S          1.03333  -0.10551  -0.20332
  95        3S         -3.58393  11.20218  -5.35255
  96        4S         -0.30815   8.35418  -3.08102
  97        5PX         0.00000   0.00000   0.00000
  98        5PY         0.00170   0.02997  -0.01318
  99        5PZ         0.04175   0.00169   0.00586
 100        6PX         0.00000   0.00000   0.00000
 101        6PY        -0.42737  -0.26032   0.19552
 102        6PZ        -0.18760  -0.17924  -0.09105
 103        7PX         0.00000   0.00000   0.00000
 104        7PY        -2.16430  -3.58461   1.56652
 105        7PZ        -3.89245   2.51444  -0.64183
 106        8D 0        0.01177  -0.00747   0.00199
 107        8D+1        0.00000   0.00000   0.00000
 108        8D-1       -0.04760   0.02470  -0.00808
 109        8D+2        0.01199   0.04130  -0.00394
 110        8D-2        0.00000   0.00000   0.00000
 111        9D 0       -0.31466  -0.07106   0.04330
 112        9D+1        0.00000   0.00000   0.00000
 113        9D-1        0.29369  -0.08891   0.11489
 114        9D+2       -0.29227  -0.34246   0.11383
 115        9D-2        0.00000   0.00000   0.00000
 116 4   H  1S         -0.01656  -0.00896  -0.00290
 117        2S          1.03333   0.10551  -0.20332
 118        3S         -3.58393 -11.20218  -5.35255
 119        4S         -0.30815  -8.35418  -3.08102
 120        5PX         0.00000   0.00000   0.00000
 121        5PY        -0.00170   0.02997   0.01318
 122        5PZ         0.04175  -0.00169   0.00586
 123        6PX         0.00000   0.00000   0.00000
 124        6PY         0.42737  -0.26032  -0.19552
 125        6PZ        -0.18760   0.17924  -0.09105
 126        7PX         0.00000   0.00000   0.00000
 127        7PY         2.16430  -3.58461  -1.56652
 128        7PZ        -3.89245  -2.51444  -0.64183
 129        8D 0        0.01177   0.00747   0.00199
 130        8D+1        0.00000   0.00000   0.00000
 131        8D-1        0.04760   0.02470   0.00808
 132        8D+2        0.01199  -0.04130  -0.00394
 133        8D-2        0.00000   0.00000   0.00000
 134        9D 0       -0.31466   0.07106   0.04330
 135        9D+1        0.00000   0.00000   0.00000
 136        9D-1       -0.29369  -0.08891  -0.11489
 137        9D+2       -0.29227   0.34246   0.11383
 138        9D-2        0.00000   0.00000   0.00000
          Condensed to atoms (all electrons):
              1          2          3          4
     1  O    8.192957   0.346085  -0.060683  -0.060683
     2  C    0.346085   5.722200   0.208347   0.208347
     3  H   -0.060683   0.208347   0.431674  -0.030666
     4  H   -0.060683   0.208347  -0.030666   0.431674
 Mulliken atomic charges:
              1
     1  O   -0.417676
     2  C   -0.484979
     3  H    0.451328
     4  H    0.451328
 Sum of Mulliken atomic charges =   0.00000
 Mulliken charges with hydrogens summed into heavy atoms:
              1
     1  O   -0.417676
     2  C    0.417676
 Sum of Mulliken charges with hydrogens summed into heavy atoms =   0.00000
 Electronic spatial extent (au):  <R**2>=             61.0435
 Charge=              0.0000 electrons
 Dipole moment (field-independent basis, Debye):
    X=              0.0000    Y=              0.0000    Z=             -2.4832  Tot=              2.4832
 Quadrupole moment (field-independent basis, Debye-Ang):
   XX=            -11.7671   YY=            -11.6227   ZZ=            -12.2685
   XY=              0.0000   XZ=              0.0000   YZ=              0.0000
 Traceless Quadrupole moment (field-independent basis, Debye-Ang):
   XX=              0.1190   YY=              0.2633   ZZ=             -0.3824
   XY=              0.0000   XZ=              0.0000   YZ=              0.0000
 Octapole moment (field-independent basis, Debye-Ang**2):
  XXX=              0.0000  YYY=              0.0000  ZZZ=              0.0528  XYY=              0.0000
  XXY=              0.0000  XXZ=              0.5149  XZZ=              0.0000  YZZ=              0.0000
  YYZ=             -0.8185  XYZ=              0.0000
 Hexadecapole moment (field-independent basis, Debye-Ang**3):
 XXXX=            -10.5862 YYYY=            -18.2118 ZZZZ=            -46.6184 XXXY=              0.0000
 XXXZ=              0.0000 YYYX=              0.0000 YYYZ=              0.0000 ZZZX=              0.0000
 ZZZY=              0.0000 XXYY=             -5.1646 XXZZ=             -9.4738 YYZZ=            -10.4850
 XXYZ=              0.0000 YYXZ=              0.0000 ZZXY=              0.0000
 N-N= 3.111348331648D+01 E-N=-3.309577600580D+02  KE= 1.141932679140D+02
 1\1\GINC-TRAPISTA\SP\RQCISD-FC\Aug-CC-pVTZ\C1H2O1\BRUNS\20-Nov-2021\0\
 \# qcisd/aug-cc-pvtz nosymm density=current output=wfn\\h2co-wavefunct
 ion\\0,1\O,0,0.,0.,0.689252\C,0,0.,0.,-0.526911\H,0,0.,0.936614,-1.106
 62\H,0,0.,-0.936614,-1.10662\\Version=EM64L-G09RevB.01\HF=-113.9127005
 \MP2=-114.3163908\MP3=-114.3199823\MP4D=-114.3303938\MP4DQ=-114.321422
 8\MP4SDQ=-114.3268401\QCISD=-114.3268313\RMSD=3.111e-09\Dipole=0.,0.,-
 0.9769508\Quadrupole=0.0884935,0.1957883,-0.2842817,0.,0.,0.\PG=C02V [
 C2(C1O1),SGV(H2)]\\@

 Writing a WFN file to GAUSSIAN.wfn.


 NO SCIENCE HAS EVER MADE MORE RAPID PROGRESS IN A
 SHORTER TIME THAN CHEMISTRY.
   -- MARTIN HEINRICH KLOPROTH, 1791
 (FIRST PROFESSOR OF CHEMISTRY AT THE UNIVERSITY OF BERLIN)
 Job cpu time:  0 days  0 hours 24 minutes 16.9 seconds.
 File lengths (MBytes):  RWF=   5787 Int=      0 D2E=      0 Chk=      2 Scr=      1
 Normal termination of Gaussian 09 at Sat Nov 20 17:39:57 2021.
