 h2co-wavefunction
GAUSSIAN            138 MOL ORBITALS    198 PRIMITIVES        4 NUCLEI
  O    1    (CENTRE  1)   0.00000000  0.00000000  1.28360026  CHARGE =  8.0
  C    2    (CENTRE  2)   0.00000000  0.00000000 -0.99571749  CHARGE =  6.0
  H    3    (CENTRE  3)   0.00000000  1.76994395 -2.09120873  CHARGE =  1.0
  H    4    (CENTRE  4)   0.01889726 -1.76994395 -2.09120873  CHARGE =  1.0
CENTRE ASSIGNMENTS    1  1  1  1  1  1  1  1  1  1  1  1  1  1  1  1  1  1  1  1
CENTRE ASSIGNMENTS    1  1  1  1  1  1  1  1  1  1  1  1  1  1  1  1  1  1  1  1
CENTRE ASSIGNMENTS    1  1  1  1  1  1  1  1  1  1  1  1  1  1  1  1  1  1  1  1
CENTRE ASSIGNMENTS    1  1  1  1  1  1  1  1  1  1  1  1  2  2  2  2  2  2  2  2
CENTRE ASSIGNMENTS    2  2  2  2  2  2  2  2  2  2  2  2  2  2  2  2  2  2  2  2
CENTRE ASSIGNMENTS    2  2  2  2  2  2  2  2  2  2  2  2  2  2  2  2  2  2  2  2
CENTRE ASSIGNMENTS    2  2  2  2  2  2  2  2  2  2  2  2  2  2  2  2  2  2  2  2
CENTRE ASSIGNMENTS    2  2  2  2  3  3  3  3  3  3  3  3  3  3  3  3  3  3  3  3
CENTRE ASSIGNMENTS    3  3  3  3  3  3  3  3  3  3  3  4  4  4  4  4  4  4  4  4
CENTRE ASSIGNMENTS    4  4  4  4  4  4  4  4  4  4  4  4  4  4  4  4  4  4
TYPE ASSIGNMENTS      1  1  1  1  1  1  1  1  1  1  1  1  1  1  1  1  2  2  2  3
TYPE ASSIGNMENTS      3  3  4  4  4  2  3  4  2  3  4  2  3  4  5  6  7  8  9 10
TYPE ASSIGNMENTS      5  6  7  8  9 10  5  6  7  8  9 10 11 12 13 17 14 15 18 19
TYPE ASSIGNMENTS     16 20 11 12 13 17 14 15 18 19 16 20  1  1  1  1  1  1  1  1
TYPE ASSIGNMENTS      1  1  1  1  1  1  1  1  2  2  2  3  3  3  4  4  4  2  3  4
TYPE ASSIGNMENTS      2  3  4  2  3  4  5  6  7  8  9 10  5  6  7  8  9 10  5  6
TYPE ASSIGNMENTS      7  8  9 10 11 12 13 17 14 15 18 19 16 20 11 12 13 17 14 15
TYPE ASSIGNMENTS     18 19 16 20  1  1  1  1  1  1  2  3  4  2  3  4  2  3  4  5
TYPE ASSIGNMENTS      6  7  8  9 10  5  6  7  8  9 10  1  1  1  1  1  1  2  3  4
TYPE ASSIGNMENTS      2  3  4  2  3  4  5  6  7  8  9 10  5  6  7  8  9 10
EXPONENTS  0.1533000D+05 0.2299000D+04 0.5224000D+03 0.1473000D+03 0.4755000D+02
EXPONENTS  0.1676000D+02 0.6207000D+01 0.5224000D+03 0.1473000D+03 0.4755000D+02
EXPONENTS  0.1676000D+02 0.6207000D+01 0.6882000D+00 0.1752000D+01 0.2384000D+00
EXPONENTS  0.7376000D-01 0.3446000D+02 0.7749000D+01 0.2280000D+01 0.3446000D+02
EXPONENTS  0.7749000D+01 0.2280000D+01 0.3446000D+02 0.7749000D+01 0.2280000D+01
EXPONENTS  0.7156000D+00 0.7156000D+00 0.7156000D+00 0.2140000D+00 0.2140000D+00
EXPONENTS  0.2140000D+00 0.5974000D-01 0.5974000D-01 0.5974000D-01 0.2314000D+01
EXPONENTS  0.2314000D+01 0.2314000D+01 0.2314000D+01 0.2314000D+01 0.2314000D+01
EXPONENTS  0.6450000D+00 0.6450000D+00 0.6450000D+00 0.6450000D+00 0.6450000D+00
EXPONENTS  0.6450000D+00 0.2140000D+00 0.2140000D+00 0.2140000D+00 0.2140000D+00
EXPONENTS  0.2140000D+00 0.2140000D+00 0.1428000D+01 0.1428000D+01 0.1428000D+01
EXPONENTS  0.1428000D+01 0.1428000D+01 0.1428000D+01 0.1428000D+01 0.1428000D+01
EXPONENTS  0.1428000D+01 0.1428000D+01 0.5000000D+00 0.5000000D+00 0.5000000D+00
EXPONENTS  0.5000000D+00 0.5000000D+00 0.5000000D+00 0.5000000D+00 0.5000000D+00
EXPONENTS  0.5000000D+00 0.5000000D+00 0.8236000D+04 0.1235000D+04 0.2808000D+03
EXPONENTS  0.7927000D+02 0.2559000D+02 0.8997000D+01 0.3319000D+01 0.2808000D+03
EXPONENTS  0.7927000D+02 0.2559000D+02 0.8997000D+01 0.3319000D+01 0.3643000D+00
EXPONENTS  0.9059000D+00 0.1285000D+00 0.4402000D-01 0.1871000D+02 0.4133000D+01
EXPONENTS  0.1200000D+01 0.1871000D+02 0.4133000D+01 0.1200000D+01 0.1871000D+02
EXPONENTS  0.4133000D+01 0.1200000D+01 0.3827000D+00 0.3827000D+00 0.3827000D+00
EXPONENTS  0.1209000D+00 0.1209000D+00 0.1209000D+00 0.3569000D-01 0.3569000D-01
EXPONENTS  0.3569000D-01 0.1097000D+01 0.1097000D+01 0.1097000D+01 0.1097000D+01
EXPONENTS  0.1097000D+01 0.1097000D+01 0.3180000D+00 0.3180000D+00 0.3180000D+00
EXPONENTS  0.3180000D+00 0.3180000D+00 0.3180000D+00 0.1000000D+00 0.1000000D+00
EXPONENTS  0.1000000D+00 0.1000000D+00 0.1000000D+00 0.1000000D+00 0.7610000D+00
EXPONENTS  0.7610000D+00 0.7610000D+00 0.7610000D+00 0.7610000D+00 0.7610000D+00
EXPONENTS  0.7610000D+00 0.7610000D+00 0.7610000D+00 0.7610000D+00 0.2680000D+00
EXPONENTS  0.2680000D+00 0.2680000D+00 0.2680000D+00 0.2680000D+00 0.2680000D+00
EXPONENTS  0.2680000D+00 0.2680000D+00 0.2680000D+00 0.2680000D+00 0.3387000D+02
EXPONENTS  0.5095000D+01 0.1159000D+01 0.3258000D+00 0.1027000D+00 0.2526000D-01
EXPONENTS  0.1407000D+01 0.1407000D+01 0.1407000D+01 0.3880000D+00 0.3880000D+00
EXPONENTS  0.3880000D+00 0.1020000D+00 0.1020000D+00 0.1020000D+00 0.1057000D+01
EXPONENTS  0.1057000D+01 0.1057000D+01 0.1057000D+01 0.1057000D+01 0.1057000D+01
EXPONENTS  0.2470000D+00 0.2470000D+00 0.2470000D+00 0.2470000D+00 0.2470000D+00
EXPONENTS  0.2470000D+00 0.3387000D+02 0.5095000D+01 0.1159000D+01 0.3258000D+00
EXPONENTS  0.1027000D+00 0.2526000D-01 0.1407000D+01 0.1407000D+01 0.1407000D+01
EXPONENTS  0.3880000D+00 0.3880000D+00 0.3880000D+00 0.1020000D+00 0.1020000D+00
EXPONENTS  0.1020000D+00 0.1057000D+01 0.1057000D+01 0.1057000D+01 0.1057000D+01
EXPONENTS  0.1057000D+01 0.1057000D+01 0.2470000D+00 0.2470000D+00 0.2470000D+00
EXPONENTS  0.2470000D+00 0.2470000D+00 0.2470000D+00
MO    1     MO 0.0        OCC NO =    2.0000076  ORB. ENERGY =    0.000000
 -0.26737128D+00 -0.49833611D+00 -0.84499891D+00 -0.12788160D+01 -0.15952222D+01
 -0.13689379D+01 -0.52423050D+00 -0.36273825D-04 -0.38919434D-03 -0.14346436D-02
 -0.41948138D-02 -0.50549546D-02  0.60892285D-02 -0.23745051D-01  0.68488070D-03
  0.15382191D-04  0.11628318D-04  0.11275557D-04  0.76064244D-05  0.79463609D-07
  0.77052971D-07  0.51979479D-07  0.14654251D-01  0.14209694D-01  0.95857754D-02
 -0.48796703D-06  0.12230924D-07  0.18801695D-02 -0.23455541D-05  0.83371324D-08
  0.63459436D-03 -0.86562664D-07  0.30731646D-09  0.80124142D-05  0.92701860D-03
  0.11195533D-03 -0.10389739D-02  0.87023468D-05 -0.34434842D-05 -0.31493023D-08
  0.23037996D-03  0.11955875D-03 -0.34993871D-03  0.11832387D-05  0.39568408D-05
  0.39810187D-07  0.63072040D-04  0.10875280D-04 -0.73947321D-04  0.55735348D-06
  0.95279834D-06 -0.32756394D-09 -0.20953683D-06  0.10029767D-08 -0.10818778D-03
 -0.12424165D-05 -0.12103749D-08  0.45197003D-03  0.18710270D-05 -0.17985552D-08
 -0.12740669D-03  0.61858009D-05  0.30605452D-06  0.22657579D-08  0.10473958D-03
  0.32873524D-06  0.93611207D-08 -0.17047685D-03 -0.12468988D-05 -0.16158394D-07
 -0.14374190D-03 -0.28556075D-06  0.27691934D+00  0.51623344D+00  0.87250485D+00
  0.13115375D+01  0.16109889D+01  0.13596178D+01  0.51125181D+00  0.32323238D-04
  0.24159618D-03  0.90290007D-03  0.25189506D-02  0.33746994D-02 -0.39848907D-02
  0.22749307D-01  0.53778771D-03  0.12371565D-03 -0.19104542D-04 -0.17911723D-04
 -0.12754214D-04 -0.36180287D-06 -0.33921318D-06 -0.24153999D-06  0.20481224D-02
  0.19202449D-02  0.13673288D-02  0.68393971D-05  0.19144831D-06  0.25320278D-03
  0.13396729D-05  0.14222768D-07 -0.10224340D-03  0.42175555D-07  0.18842181D-09
 -0.34831572D-05 -0.12228775D-02  0.23796605D-03  0.98491142D-03 -0.15595742D-04
 -0.77654286D-05 -0.21467512D-06  0.14491737D-03  0.20256040D-04 -0.16517341D-03
  0.13317569D-05  0.17797511D-05 -0.39855779D-07 -0.58752368D-05  0.19126609D-04
 -0.13251372D-04 -0.26697404D-06  0.26311617D-06  0.13909713D-08 -0.33375721D-05
  0.35038559D-07  0.55126568D-03  0.76437364D-05 -0.18246436D-06 -0.50466823D-04
  0.23689800D-05  0.77348682D-07 -0.16033302D-02  0.16578109D-04 -0.24901618D-06
  0.45851947D-08 -0.11434218D-03 -0.25922137D-06 -0.48187493D-08  0.43760487D-04
  0.10062699D-05 -0.89368349D-08  0.29926604D-03 -0.27281822D-05 -0.27403489D-03
 -0.49423321D-03 -0.72874658D-03 -0.22112603D-03 -0.45269487D-03 -0.11973217D-04
  0.13922490D-05  0.77447947D-03 -0.52420118D-03 -0.37506656D-05  0.21979251D-03
 -0.81815430D-04  0.30522670D-06  0.41320530D-04 -0.56738921D-04  0.22056064D-03
 -0.35214479D-03  0.13158415D-03  0.15128524D-05 -0.18107032D-05  0.87903747D-03
  0.47012620D-04 -0.12874879D-04 -0.34137741D-04  0.72372588D-06  0.15932535D-06
 -0.26349114D-04 -0.27397908D-03 -0.49413256D-03 -0.72859817D-03 -0.22084682D-03
 -0.45261182D-03 -0.11970687D-04  0.96593067D-05 -0.77431994D-03 -0.52410656D-03
 -0.14051257D-05 -0.21964403D-03 -0.81674532D-04  0.74614433D-06 -0.41301180D-04
 -0.56724571D-04  0.22052409D-03 -0.35212724D-03  0.13160315D-03  0.10716287D-04
  0.75736919D-05 -0.87895218D-03  0.46999563D-04 -0.12866093D-04 -0.34133471D-04
  0.55475749D-06 -0.12233552D-06  0.26372383D-04
MO    2     MO 0.0        OCC NO =    2.0000041  ORB. ENERGY =    0.000000
  0.42242419D+00  0.78732924D+00  0.13350274D+01  0.20204219D+01  0.25203171D+01
  0.21628071D+01  0.82824020D+00  0.49614264D-04  0.53232850D-03  0.19622631D-02
  0.57375421D-02  0.69140172D-02 -0.83286665D-02  0.38592390D-01 -0.65416869D-03
 -0.80075760D-04  0.55074816D-05  0.53404046D-05  0.36026054D-05  0.14080907D-06
  0.13653744D-06  0.92107347D-07 -0.10979097D-01 -0.10646031D-01 -0.71817497D-02
  0.14690726D-05  0.31398556D-07  0.14480419D-02 -0.31163215D-05 -0.71281742D-09
  0.10563833D-03 -0.11297566D-06 -0.71094904D-09  0.19496124D-05 -0.99450737D-03
 -0.60229309D-04  0.10547367D-02 -0.99751224D-05 -0.68757141D-05 -0.33779865D-07
  0.34853358D-03  0.53679618D-03 -0.88532976D-03 -0.20100812D-05  0.21427251D-05
  0.19591083D-07  0.34119820D-04 -0.62100321D-06 -0.33498817D-04  0.37095629D-06
  0.12228524D-05  0.33576557D-08  0.71701585D-07 -0.13929031D-07  0.11039278D-03
 -0.28906457D-05  0.25671923D-07 -0.23993200D-03  0.26755409D-05  0.16115169D-07
 -0.91246357D-04 -0.15875082D-05  0.16799300D-07  0.49898115D-08  0.12863695D-03
  0.86007271D-06 -0.48446964D-08 -0.16764448D-03 -0.91047062D-06 -0.10124738D-07
 -0.21826639D-03  0.54042715D-06  0.17516843D+00  0.32654925D+00  0.55191272D+00
  0.82962776D+00  0.10190491D+01  0.86004150D+00  0.32339806D+00  0.17391800D-04
  0.12999293D-03  0.48581326D-03  0.13553433D-02  0.18157864D-02 -0.21441052D-02
  0.14455143D-01  0.50691114D-03  0.93228778D-04 -0.10993100D-04 -0.10306730D-04
 -0.73390058D-05 -0.21561886D-06 -0.20215638D-06 -0.14394739D-06  0.11518667D-02
  0.10799483D-02  0.76898749D-03  0.12558729D-05  0.59744046D-07  0.16066310D-02
  0.11338717D-05 -0.19579464D-09 -0.11212302D-04  0.34599995D-07  0.46343305D-09
  0.51701875D-06 -0.10272222D-02 -0.30902515D-03  0.13362474D-02 -0.76673106D-05
 -0.36646685D-05 -0.10111941D-06  0.16431009D-04 -0.25916313D-03  0.24273212D-03
  0.29427463D-05  0.31536402D-05  0.81849822D-08 -0.18657246D-05  0.42012629D-04
 -0.40146904D-04 -0.46850942D-06  0.40681717D-06  0.39957795D-08 -0.11452874D-05
  0.19519456D-07  0.34839869D-03  0.34176540D-05 -0.83943564D-07 -0.22804796D-03
  0.18208015D-07  0.25385196D-07 -0.81714812D-03  0.62889980D-05  0.10111068D-07
 -0.31294712D-08 -0.89098642D-05 -0.12900876D-05  0.13600775D-07 -0.38656191D-04
  0.12597544D-05 -0.42123609D-08  0.65385784D-04 -0.11109004D-05 -0.14696710D-03
 -0.26506121D-03 -0.39083260D-03  0.11440332D-03 -0.34909792D-03 -0.74593811D-05
  0.15933930D-06  0.34602260D-03 -0.21887573D-03 -0.67246133D-06 -0.74320997D-04
  0.13090796D-03  0.54568649D-06 -0.99671091D-05 -0.83305051D-04  0.12341390D-03
 -0.13458757D-03  0.11173668D-04 -0.60099604D-07 -0.77596939D-06  0.41393043D-03
  0.22911156D-05  0.26035131D-05 -0.48946287D-05  0.66167050D-06  0.59573183D-06
 -0.57929854D-05 -0.14693713D-03 -0.26500716D-03 -0.39075290D-03  0.11449372D-03
 -0.34909222D-03 -0.74569378D-05  0.38526901D-05 -0.34594642D-03 -0.21883294D-03
 -0.14662529D-05  0.74376395D-04  0.13097987D-03  0.43921874D-06  0.99687672D-05
 -0.83293847D-04  0.12338390D-03 -0.13457258D-03  0.11188681D-04  0.55689505D-05
  0.36428279D-05 -0.41387919D-03  0.22915150D-05  0.25999777D-05 -0.48914927D-05
 -0.66825002D-06  0.53357566D-06  0.58172180D-05
MO    3     MO 0.0        OCC NO =    1.9805522  ORB. ENERGY =    0.000000
 -0.96678081D-01 -0.18019205D+00 -0.30554094D+00 -0.46240372D+00 -0.57681219D+00
 -0.49499068D+00 -0.18955513D+00 -0.16853232D-02 -0.18082412D-01 -0.66655174D-01
 -0.19489582D+00 -0.23485894D+00  0.28291248D+00  0.14940128D+00  0.75511288D-01
  0.44172020D-02  0.28117127D-03  0.27264155D-03  0.18392238D-03  0.20191367D-05
  0.19578834D-05  0.13207766D-05 -0.19671166D-02 -0.19074414D-02 -0.12867487D-02
  0.78403031D-04  0.47301945D-06 -0.80315547D-02  0.77050607D-05  0.56619754D-07
  0.80817363D-02 -0.35133482D-06  0.74804217D-08  0.89939077D-04 -0.14825248D-01
 -0.15849568D-01  0.30674816D-01  0.10936132D-04 -0.60743830D-04 -0.80359656D-06
 -0.42669497D-02 -0.51235665D-02  0.93905162D-02  0.91465297D-05 -0.69668406D-05
 -0.34607515D-07  0.46278774D-03  0.51063682D-03 -0.97342457D-03 -0.51062777D-06
 -0.25430896D-05 -0.46280896D-07 -0.65915588D-05  0.35193080D-08 -0.89173168D-02
 -0.75456825D-07 -0.11753695D-06  0.14289579D-01  0.19850133D-04  0.10697902D-06
  0.12462372D-01  0.19509206D-04  0.30925048D-05 -0.18145215D-07 -0.35958396D-03
 -0.43002951D-05  0.10754779D-06  0.23436633D-04 -0.49772193D-05 -0.53112149D-07
  0.10553152D-02 -0.11017745D-04 -0.28163150D-01 -0.52501785D-01 -0.88735169D-01
 -0.13338551D+00 -0.16384021D+00 -0.13827536D+00 -0.51995145D-01 -0.59174427D-03
 -0.44229218D-02 -0.16529469D-01 -0.46114644D-01 -0.61780909D-01  0.72951734D-01
  0.30047694D-01  0.19105288D-01  0.40775269D-03  0.29426383D-03  0.27589104D-03
  0.19645086D-03  0.67428742D-05  0.63218732D-05  0.45015503D-05  0.10589051D+00
  0.99279084D-01  0.70692622D-01  0.14020048D-03  0.35902881D-05  0.65691213D-02
  0.20744293D-04  0.60256869D-06 -0.40016015D-02  0.91494550D-07  0.15235177D-09
 -0.55086857D-04 -0.18335863D-01 -0.79391513D-02  0.26275014D-01 -0.11099244D-03
 -0.66649574D-04 -0.19224035D-05 -0.31355191D-02  0.25236650D-02  0.61185403D-03
 -0.60415428D-04 -0.30290136D-04 -0.10357013D-05  0.16105536D-04  0.49167829D-03
 -0.50778382D-03 -0.50774075D-05  0.23279982D-05 -0.26361939D-07 -0.24222747D-04
  0.17222364D-06  0.43567437D-02  0.54762998D-04 -0.10809929D-05 -0.95100975D-03
  0.17905243D-04  0.56432198D-06 -0.12119221D-01  0.11923662D-03 -0.21964633D-05
  0.51589634D-07 -0.31722704D-04  0.10902282D-04 -0.18983653D-06  0.44137367D-03
 -0.43128926D-05  0.35067630D-07 -0.34620555D-03  0.84067384D-05  0.64720183D-02
  0.11672552D-01  0.17211170D-01 -0.13825036D-04 -0.58613755D-02 -0.79660667D-04
  0.43535861D-05 -0.27830096D-02  0.22527042D-02  0.48782825D-05  0.41872615D-02
 -0.40839209D-02  0.63544070D-05  0.55931254D-03 -0.14799640D-02  0.53308446D-03
 -0.10808701D-02  0.54778562D-03 -0.34917597D-05 -0.54841994D-05  0.20690390D-02
  0.34614284D-03 -0.79703854D-04 -0.26643899D-03 -0.33467977D-05  0.40715404D-06
  0.94668711D-03  0.64710965D-02  0.11670889D-01  0.17208719D-01 -0.11960995D-04
 -0.58598294D-02 -0.79644370D-04 -0.25355215D-04  0.27825197D-02  0.22522244D-02
  0.49568557D-04 -0.41855162D-02 -0.40829425D-02  0.12323186D-04 -0.55903165D-03
 -0.14797453D-02  0.53289048D-03 -0.10804941D-02  0.54760358D-03  0.37946966D-04
  0.16605476D-04 -0.20688106D-02  0.34598572D-03 -0.79565549D-04 -0.26642017D-03
  0.12436065D-04  0.10512814D-04 -0.94648004D-03
MO    4     MO 0.0        OCC NO =    1.9668845  ORB. ENERGY =    0.000000
  0.36138712D-01  0.67356618D-01  0.11421261D+00  0.17284864D+00  0.21561506D+00
  0.18502980D+00  0.70856582D-01  0.69153479D-03  0.74197145D-02  0.27350465D-01
  0.79971155D-01  0.96369130D-01 -0.11608683D+00 -0.65931815D-01 -0.54266825D-01
 -0.31083866D-02  0.23013887D-02  0.22315729D-02  0.15054059D-02  0.33425691D-03
  0.32411677D-03  0.21864726D-03 -0.67831097D+00 -0.65773347D+00 -0.44370312D+00
  0.56040702D-03  0.79057279D-04 -0.15219144D+00  0.89268812D-04  0.12294843D-04
 -0.15796493D-01  0.21443803D-05  0.39095542D-06 -0.10786836D-03 -0.19553516D-01
 -0.19332350D-01  0.38885866D-01 -0.23633749D-05 -0.26323100D-03 -0.29988061D-04
 -0.35697509D-02 -0.40098666D-02  0.75796175D-02  0.47028245D-05 -0.79319092D-04
 -0.84267989D-05  0.23144231D-06 -0.13822949D-03  0.13799805D-03  0.14822480D-05
 -0.85935926D-05 -0.74721624D-06 -0.21290501D-04 -0.36228074D-05 -0.60199502D-02
 -0.21212279D-04 -0.56933319D-06  0.58924784D-02  0.85083781D-04  0.11437755D-04
  0.12167372D-01 -0.66982029D-04  0.36138703D-05 -0.32647115D-06 -0.14471244D-03
 -0.11172781D-04  0.31672217D-06 -0.20126587D-03  0.33117048D-06  0.66269129D-06
  0.63540319D-03 -0.89391059D-05 -0.49526440D-01 -0.92327261D-01 -0.15604565D+00
 -0.23456572D+00 -0.28812197D+00 -0.24316478D+00 -0.91436307D-01 -0.12030800D-02
 -0.89922777D-02 -0.33606195D-01 -0.93756051D-01 -0.12560726D+00  0.14831875D+00
  0.64388487D-01  0.45907163D-01  0.11155436D-02  0.14692205D-02  0.13774876D-02
  0.98085322D-03  0.14915123D-03  0.13983876D-03  0.99573527D-04 -0.11359694D+00
 -0.10650435D+00 -0.75837444D-01  0.38995883D-03  0.38891918D-04 -0.31727905D-01
  0.46806721D-04  0.37798920D-05 -0.56227181D-02  0.18509492D-07 -0.72843650D-07
 -0.49161380D-05 -0.17576690D-01  0.14286463D-01  0.32902272D-02 -0.34010577D-03
 -0.84212015D-04 -0.30979153D-07 -0.45564154D-02  0.49124123D-02 -0.35599690D-03
 -0.10106253D-03 -0.40808636D-04 -0.36185424D-05 -0.96004997D-04  0.14019399D-04
  0.81985599D-04 -0.11756508D-05 -0.38766879D-05 -0.47836654D-06 -0.36270140D-04
 -0.73669465D-06  0.42746532D-02  0.64382434D-04 -0.27644638D-05  0.63377395D-03
  0.44427986D-04  0.49745477D-05 -0.13457733D-01  0.15042636D-03 -0.32309641D-05
 -0.61315618D-08  0.28225749D-03  0.16675882D-04 -0.42057559D-06  0.64609629D-03
 -0.69829898D-05  0.43897027D-06 -0.14928688D-02  0.22821837D-04  0.24366311D-01
  0.43945646D-01  0.64797829D-01  0.26906316D-01 -0.40457274D-02 -0.92576294D-04
  0.27699010D-04 -0.17700352D-01  0.88109326D-02  0.13375826D-04  0.20692732D-03
 -0.19443551D-02 -0.24913192D-05  0.13562196D-02 -0.50716300D-03 -0.16318580D-02
  0.20342000D-02 -0.40234202D-03 -0.17502472D-04  0.90789870D-05 -0.29362403D-02
  0.28818115D-03 -0.13107766D-03 -0.15710348D-03 -0.42852853D-05 -0.44219707D-05
  0.55750375D-03  0.24350441D-01  0.43917023D-01  0.64755625D-01  0.26890989D-01
 -0.40414703D-02 -0.92728441D-04 -0.16115622D-03  0.17689855D-01  0.88005960D-02
  0.15568147D-04 -0.20256214D-03 -0.19447829D-02  0.11973532D-04 -0.13552454D-02
 -0.50720082D-03 -0.16302661D-02  0.20344653D-02 -0.40419921D-03 -0.60743304D-04
 -0.22195602D-04  0.29307595D-02  0.28787548D-03 -0.13065214D-03 -0.15722334D-03
  0.13225925D-04  0.15254143D-05 -0.55700448D-03
MO    5     MO 0.0        OCC NO =    1.9653380  ORB. ENERGY =    0.000000
 -0.99050921D-05 -0.18461463D-04 -0.31304005D-04 -0.47375283D-04 -0.59096931D-04
 -0.50713959D-04 -0.19420752D-04 -0.19431931D-06 -0.20849187D-05 -0.76854028D-05
 -0.22471667D-04 -0.27079451D-04  0.32620069D-04  0.18819248D-04  0.17095301D-04
  0.12022564D-05 -0.71110525D-02 -0.68953289D-02 -0.46515482D-02  0.13319445D+01
  0.12915381D+01  0.87126399D+00  0.27585193D-03  0.26748358D-03  0.18044285D-03
 -0.16806125D-02  0.31478810D+00  0.62247130D-04 -0.26883819D-03  0.50354683D-01
  0.65820078D-05 -0.83838412D-05  0.15703636D-02  0.34741804D-07  0.82253071D-05
  0.82267678D-05 -0.16452075D-04 -0.16526245D-04  0.54054850D-03 -0.10124451D+00
  0.15246024D-05  0.18895728D-05 -0.34141752D-05  0.94069513D-05  0.15220824D-03
 -0.28507902D-01 -0.78046517D-07  0.12682702D-06 -0.48780506D-07  0.12740152D-04
  0.14057574D-04 -0.26328087D-02 -0.46913903D-06 -0.12965577D-01  0.26533020D-05
  0.20860289D-03  0.88290075D-04 -0.30023077D-05 -0.20719548D-03  0.38808442D-01
 -0.49575981D-05  0.55387750D-04 -0.22807905D-05 -0.97103335D-03  0.13332222D-06
  0.20114248D-04  0.42694863D-03  0.82399380D-07 -0.13271876D-04  0.24861514D-02
 -0.48236604D-06 -0.20988739D-04  0.14813350D-04  0.27615068D-04  0.46673227D-04
  0.70158565D-04  0.86177231D-04  0.72730543D-04  0.27348583D-04  0.35707578D-06
  0.26689203D-05  0.99743644D-05  0.27826924D-04  0.37280406D-04 -0.44021208D-04
 -0.18894812D-04 -0.12649557D-04 -0.28591350D-06 -0.21678563D-02 -0.20325031D-02
 -0.14472633D-02  0.40602602D+00  0.38067521D+00  0.27106342D+00  0.11984030D-05
  0.11235790D-05  0.80005517D-06 -0.56127873D-03  0.10512291D+00  0.20684341D-05
 -0.33483024D-04  0.62696543D-02  0.12033014D-05  0.17722105D-05 -0.33198436D-03
  0.39689746D-09  0.45334961D-05 -0.15540830D-05 -0.29794130D-05  0.19553429D-03
 -0.15475988D-03  0.28992658D-01  0.81804630D-06 -0.99615923D-06  0.17811292D-06
  0.77654538D-04  0.20277583D-04 -0.37970993D-02  0.41609053D-07 -0.30003387D-07
 -0.11605666D-07 -0.69773885D-05  0.47282875D-05 -0.88550154D-03  0.29219890D-04
 -0.38801593D-02 -0.18209833D-05  0.36982171D-05 -0.54712601D-02  0.71315563D-06
 -0.91357887D-04  0.17111738D-01  0.47497943D-05 -0.87254008D-04  0.16803275D-05
 -0.38114036D-03 -0.42881387D-07  0.27393766D-05 -0.31462494D-03  0.44212323D-07
 -0.77803590D-05  0.14580460D-02  0.84431837D-07 -0.41046335D-04  0.18318099D-01
  0.33037446D-01  0.48713695D-01  0.19316343D-01 -0.15367265D-02  0.34579301D-03
 -0.23926339D-04 -0.11317910D-01  0.13688920D-01 -0.47733212D-04  0.55210489D-02
  0.18038321D-02  0.88360649D-05  0.47205368D-03  0.61306578D-03 -0.18580120D-02
 -0.14355404D-02  0.32935524D-02  0.24825368D-04 -0.28876996D-04 -0.83044908D-02
  0.31001512D-03 -0.46639722D-03  0.15638210D-03  0.17008754D-05 -0.11553438D-05
  0.88630543D-03 -0.18329736D-01 -0.33058433D-01 -0.48744641D-01 -0.19330659D-01
  0.15390202D-02 -0.34573001D-03  0.14482242D-03 -0.11325121D-01 -0.13691896D-01
 -0.11218267D-04  0.55209785D-02 -0.18026768D-02 -0.13880972D-04  0.47273775D-03
 -0.61273008D-03  0.18585234D-02  0.14347222D-02 -0.32932456D-02  0.33869979D-04
  0.11753976D-03 -0.83046829D-02 -0.31019467D-03  0.46642944D-03 -0.15623477D-03
 -0.14885925D-04 -0.83072779D-05  0.88661009D-03
MO    6     MO 0.0        OCC NO =    1.9601105  ORB. ENERGY =    0.000000
  0.19856318D-02  0.37008912D-02  0.62753812D-02  0.94971221D-02  0.11846911D-01
  0.10166412D-01  0.38931958D-02 -0.31450046D-04 -0.33743835D-03 -0.12438613D-02
 -0.36369775D-02 -0.43827348D-02  0.52794685D-02  0.76292029D-02  0.28687947D-01
  0.63073249D-02 -0.31238875D-03 -0.30291201D-03 -0.20434265D-03 -0.24325291D-03
 -0.23587350D-03 -0.15911887D-03  0.13821582D+01  0.13402285D+01  0.90411025D+00
 -0.64498833D-04 -0.57304737D-04  0.31968776D+00 -0.29028769D-04 -0.10074775D-04
  0.38147205D-01 -0.79232603D-06 -0.32482139D-06  0.15786062D-03  0.41980143D-01
  0.43770369D-01 -0.85750511D-01 -0.19104819D-04 -0.88256528D-04  0.74067398D-05
  0.10428418D-01  0.11786009D-01 -0.22214427D-01 -0.14493209D-04 -0.23199577D-04
  0.18168277D-05  0.26526735D-03  0.51080533D-03 -0.77607269D-03 -0.26227007D-05
  0.73977244D-05  0.31058725D-06 -0.19057660D-04  0.11947005D-05  0.15668745D-01
 -0.13356359D-04 -0.14520778D-05 -0.15979771D-01  0.70529339D-04 -0.21320237D-05
 -0.31026463D-01  0.16064018D-03  0.30426539D-06  0.87257604D-07  0.20166229D-02
  0.20929379D-06  0.70534802D-08 -0.24750525D-02 -0.11220900D-05 -0.26882629D-06
 -0.35748162D-02  0.11744561D-04  0.52038989D-02  0.97011158D-02  0.16396207D-01
  0.24646558D-01  0.30273882D-01  0.25550088D-01  0.96075004D-02  0.88717648D-04
  0.66310945D-03  0.24781914D-02  0.69137682D-02  0.92625433D-02 -0.10937337D-01
 -0.62435413D-02  0.16289375D-01  0.10831143D-04  0.93698333D-03  0.87848143D-03
  0.62553111D-03  0.35080712D-04  0.32890398D-04  0.23419922D-04 -0.52341558D+00
 -0.49073537D+00 -0.34943282D+00  0.17355898D-03  0.79589430D-05 -0.10881589D+00
  0.33171654D-04  0.33213404D-05 -0.86475003D-02  0.90108880D-07  0.85287596D-07
 -0.40772693D-04  0.83615564D-02  0.28583913D-01 -0.36945469D-01 -0.21585383D-03
 -0.95978286D-04 -0.18599448D-04  0.20227665D-03  0.24875388D-02 -0.26898154D-02
 -0.24384578D-04 -0.11498255D-04 -0.42823106D-05 -0.15403678D-03  0.12822882D-03
  0.25807963D-04 -0.30109906D-05 -0.37886636D-05 -0.43382947D-06  0.51579894D-05
  0.76755105D-06 -0.58760918D-02 -0.14425272D-04  0.35843156D-06  0.64645690D-02
 -0.10486959D-05 -0.26610847D-05  0.11163707D-01 -0.50171371D-04  0.90864035D-06
  0.73570156D-07  0.76947204D-03 -0.39616177D-05 -0.42453057D-07 -0.19280681D-03
  0.12356967D-05 -0.17825741D-06 -0.21156093D-02  0.20527526D-04  0.18248645D-01
  0.32912184D-01  0.48528995D-01  0.30896511D-01  0.75052861D-03  0.11623835D-04
  0.14223747D-04 -0.17433176D-01  0.35844756D-02  0.23097606D-04 -0.57522962D-02
  0.75554066D-03 -0.27236540D-05  0.33840570D-03 -0.24484811D-03 -0.14824348D-02
  0.52643953D-02 -0.37819605D-02 -0.15031525D-04  0.11370758D-04 -0.45469049D-02
 -0.54905051D-03  0.43463456D-05  0.54470417D-03  0.82161817D-06  0.36761317D-06
  0.47306659D-04  0.18239869D-01  0.32896355D-01  0.48505656D-01  0.30882860D-01
  0.75385347D-03  0.11770420D-04 -0.17184264D-03  0.17427602D-01  0.35824097D-02
 -0.38314483D-04  0.57517443D-02  0.75595264D-03  0.88107616D-06 -0.33750670D-03
 -0.24432522D-03 -0.14820521D-02  0.52629326D-02 -0.37808804D-02 -0.12900957D-03
 -0.37180906D-04  0.45467253D-02 -0.54888303D-03  0.43120209D-05  0.54457101D-03
 -0.12634444D-04  0.87396407D-06 -0.47478282D-04
MO    7     MO 0.0        OCC NO =    1.9567304  ORB. ENERGY =    0.000000
  0.18635989D-05  0.34734419D-05  0.58897088D-05  0.89134481D-05  0.11118824D-04
  0.95416051D-05  0.36539278D-05  0.27239336D-07  0.29226020D-06  0.10773261D-05
  0.31500384D-05  0.37959494D-05 -0.45726233D-05 -0.20359595D-05  0.13472092D-05
  0.77459821D-06 -0.62696337D-02 -0.60794357D-02 -0.41011514D-02  0.11744894D+01
  0.11388596D+01  0.76826796D+00  0.15776268D-03  0.15297673D-03  0.10319720D-03
 -0.14805245D-02  0.27734685D+00  0.36756096D-04 -0.26752711D-03  0.50115134D-01
  0.45663882D-05 -0.90827555D-05  0.17014387D-02  0.27244668D-07  0.49073418D-05
  0.48202137D-05 -0.97275555D-05 -0.49537497D-04  0.62342971D-04 -0.11683901D-01
  0.13252364D-05  0.13621639D-05 -0.26874003D-05 -0.23065337D-04  0.15594583D-04
 -0.29226572D-02  0.33330378D-07  0.67583328D-07 -0.10091371D-06  0.17645832D-05
  0.34746156D-05 -0.65071393D-03 -0.47021681D-04 -0.41810979D-02  0.18352224D-05
  0.16099610D-03  0.88068828D-02 -0.21272288D-05 -0.19931053D-04  0.37364110D-02
 -0.33784384D-05  0.65364304D-04  0.18958702D-05 -0.30790799D-03  0.27839454D-06
  0.11395994D-05 -0.35506295D-03 -0.34515170D-06 -0.68272100D-05  0.12787869D-02
 -0.49003191D-06 -0.29130854D-08 -0.17399038D-05 -0.32435312D-05 -0.54820096D-05
 -0.82404829D-05 -0.10121957D-04 -0.85425749D-05 -0.32122312D-05 -0.45609413D-07
 -0.34090211D-06 -0.12740290D-05 -0.35543426D-05 -0.47618391D-05  0.56228441D-05
  0.17280308D-05  0.30354636D-05  0.22682795D-07  0.19289468D-02  0.18085103D-02
  0.12877670D-02 -0.36130871D+00 -0.33874988D+00 -0.24121009D+00 -0.73497446D-04
 -0.68908528D-04 -0.49066977D-04  0.52894979D-03 -0.99079292D-01 -0.15566479D-04
  0.13725405D-03 -0.25710170D-01 -0.12738295D-05  0.27036852D-05 -0.50646347D-03
 -0.80813897D-08  0.30638978D-05  0.24656060D-05 -0.55295038D-05 -0.47863359D-03
 -0.59123754D-03  0.11075299D+00  0.74150692D-06 -0.13291637D-06 -0.60859055D-06
 -0.15425806D-03 -0.16997725D-03  0.31841472D-01  0.61921092D-07 -0.36026907D-07
 -0.25894185D-07 -0.16678235D-04 -0.18204349D-04  0.34100520D-02 -0.14625503D-04
 -0.36571194D-02 -0.52116532D-06  0.87820983D-04  0.27389707D-02  0.49608396D-06
 -0.43944473D-04  0.82323875D-02  0.10674120D-05  0.95395322D-04 -0.42886550D-05
 -0.58784978D-03  0.10823485D-06  0.17992533D-04  0.80331573D-03 -0.18933110D-06
 -0.51265685D-05  0.96023362D-03 -0.13537346D-06  0.35411732D-04 -0.34608520D-01
 -0.62417891D-01 -0.92035144D-01 -0.52452443D-01  0.10543334D-01  0.43278912D-03
  0.29510850D-04  0.14953567D-01 -0.10588221D-01  0.19187105D-04 -0.32102227D-02
  0.19921243D-02 -0.96747571D-07 -0.34748422D-02  0.16651825D-02  0.70796669D-03
 -0.15500532D-02  0.84208648D-03 -0.22853190D-04 -0.35587565D-05  0.31482831D-02
  0.48050947D-05  0.35302722D-03 -0.35783232D-03 -0.42882790D-05 -0.14456265D-05
  0.45242667D-04  0.34616240D-01  0.62431815D-01  0.92055675D-01  0.52468661D-01
 -0.10540768D-01 -0.43275924D-03 -0.18921405D-03  0.14959029D-01  0.10589067D-01
  0.15071680D-04 -0.32077529D-02 -0.19916744D-02  0.37196530D-04 -0.34748923D-02
 -0.16652401D-02 -0.70842502D-03  0.15518013D-02 -0.84337631D-03 -0.71116274D-04
 -0.30071487D-04  0.31502080D-02 -0.48894212D-05 -0.35306750D-03  0.35795692D-03
  0.31470465D-05  0.96306705D-06  0.45157151D-04
MO    8     MO 0.0        OCC NO =    1.9226299  ORB. ENERGY =    0.000000
 -0.59229963D-04 -0.11039491D-03 -0.18719009D-03 -0.28329229D-03 -0.35338481D-03
 -0.30325674D-03 -0.11613122D-03 -0.11769591D-05 -0.12627998D-04 -0.46549180D-04
 -0.13610707D-03 -0.16401564D-03  0.19757422D-03  0.11207154D-03  0.79519418D-04
 -0.77877913D-04  0.13795584D+01  0.13377076D+01  0.90240963D+00  0.73644993D-02
  0.71410870D-02  0.48173351D-02  0.34819819D-03  0.33763512D-03  0.22776666D-03
  0.33247752D+00  0.17748650D-02  0.83927994D-04  0.48482190D-01  0.25881196D-03
 -0.45604008D-04  0.88704705D-03  0.47354625D-05  0.60882140D-05  0.82135490D-05
  0.37908931D-04 -0.46122480D-04 -0.20572134D-06 -0.12443776D+00 -0.66428905D-03
  0.51760336D-05 -0.68395097D-05  0.16634761D-05  0.20320514D-06 -0.37373687D-01
 -0.19951095D-03 -0.73257365D-05 -0.77961884D-06  0.81053553D-05 -0.72463901D-07
 -0.23613880D-02 -0.12605830D-04 -0.61336313D-02 -0.11855167D-03 -0.18271634D-05
 -0.22206920D-01  0.13887932D-03  0.20072069D-04  0.40607814D-01  0.21677569D-03
 -0.14590579D-04  0.35895289D-06 -0.36202403D-03 -0.82627293D-05 -0.49040121D-05
 -0.15477596D-02  0.10728416D-04  0.10992376D-04  0.26338317D-02  0.14059771D-04
  0.37196600D-05  0.47623090D-07  0.16644024D-03  0.31027814D-03  0.52441233D-03
  0.78828955D-03  0.96827252D-03  0.81718785D-03  0.30728397D-03  0.41257566D-05
  0.30837474D-04  0.11524668D-03  0.32152030D-03  0.43074856D-03 -0.50863373D-03
 -0.22107132D-03 -0.40523575D-03  0.33726217D-05  0.41538779D+00  0.38945246D+00
  0.27731335D+00  0.22174807D-02  0.20790292D-02  0.14803926D-02  0.87727531D-03
  0.82250136D-03  0.58566997D-03  0.10663988D+00  0.56928249D-03  0.18222799D-03
  0.12609952D-01  0.67315690D-04  0.64445596D-04  0.39106017D-04  0.20865705D-06