 Entering Gaussian System, Link 0=/home/bruns/programas/chemistry/gaussian/g09/g09
 Input=GAUSSIAN.com
 Output=GAUSSIAN.log
 Initial command:
 /home/bruns/programas/chemistry/gaussian/g09/l1.exe /home/bruns/programas/chemistry/gaussian/work/Gau-72294.inp -scrdir=/home/bruns/programas/chemistry/gaussian/work/
 Entering Link 1 = /home/bruns/programas/chemistry/gaussian/g09/l1.exe PID=     72296.
  
 Copyright (c) 1988,1990,1992,1993,1995,1998,2003,2009,2010,
            Gaussian, Inc.  All Rights Reserved.
  
 This is part of the Gaussian(R) 09 program.  It is based on
 the Gaussian(R) 03 system (copyright 2003, Gaussian, Inc.),
 the Gaussian(R) 98 system (copyright 1998, Gaussian, Inc.),
 the Gaussian(R) 94 system (copyright 1995, Gaussian, Inc.),
 the Gaussian 92(TM) system (copyright 1992, Gaussian, Inc.),
 the Gaussian 90(TM) system (copyright 1990, Gaussian, Inc.),
 the Gaussian 88(TM) system (copyright 1988, Gaussian, Inc.),
 the Gaussian 86(TM) system (copyright 1986, Carnegie Mellon
 University), and the Gaussian 82(TM) system (copyright 1983,
 Carnegie Mellon University). Gaussian is a federally registered
 trademark of Gaussian, Inc.
  
 This software contains proprietary and confidential information,
 including trade secrets, belonging to Gaussian, Inc.
  
 This software is provided under written license and may be
 used, copied, transmitted, or stored only in accord with that
 written license.
  
 The following legend is applicable only to US Government
 contracts under FAR:
  
                    RESTRICTED RIGHTS LEGEND
  
 Use, reproduction and disclosure by the US Government is
 subject to restrictions as set forth in subparagraphs (a)
 and (c) of the Commercial Computer Software - Restricted
 Rights clause in FAR 52.227-19.
  
 Gaussian, Inc.
 340 Quinnipiac St., Bldg. 40, Wallingford CT 06492
  
  
 ---------------------------------------------------------------
 Warning -- This program may not be used in any manner that
 competes with the business of Gaussian, Inc. or will provide
 assistance to any competitor of Gaussian, Inc.  The licensee
 of this program is prohibited from giving any competitor of
 Gaussian, Inc. access to this program.  By using this program,
 the user acknowledges that Gaussian, Inc. is engaged in the
 business of creating and licensing software in the field of
 computational chemistry and represents and warrants to the
 licensee that it is not a competitor of Gaussian, Inc. and that
 it will not use this program in any manner prohibited above.
 ---------------------------------------------------------------
  

 Cite this work as:
 Gaussian 09, Revision B.01,
 M. J. Frisch, G. W. Trucks, H. B. Schlegel, G. E. Scuseria, 
 M. A. Robb, J. R. Cheeseman, G. Scalmani, V. Barone, B. Mennucci, 
 G. A. Petersson, H. Nakatsuji, M. Caricato, X. Li, H. P. Hratchian, 
 A. F. Izmaylov, J. Bloino, G. Zheng, J. L. Sonnenberg, M. Hada, 
 M. Ehara, K. Toyota, R. Fukuda, J. Hasegawa, M. Ishida, T. Nakajima, 
 Y. Honda, O. Kitao, H. Nakai, T. Vreven, J. A. Montgomery, Jr., 
 J. E. Peralta, F. Ogliaro, M. Bearpark, J. J. Heyd, E. Brothers, 
 K. N. Kudin, V. N. Staroverov, T. Keith, R. Kobayashi, J. Normand, 
 K. Raghavachari, A. Rendell, J. C. Burant, S. S. Iyengar, J. Tomasi, 
 M. Cossi, N. Rega, J. M. Millam, M. Klene, J. E. Knox, J. B. Cross, 
 V. Bakken, C. Adamo, J. Jaramillo, R. Gomperts, R. E. Stratmann, 
 O. Yazyev, A. J. Austin, R. Cammi, C. Pomelli, J. W. Ochterski, 
 R. L. Martin, K. Morokuma, V. G. Zakrzewski, G. A. Voth, 
 P. Salvador, J. J. Dannenberg, S. Dapprich, A. D. Daniels, 
 O. Farkas, J. B. Foresman, J. V. Ortiz, J. Cioslowski, 
 and D. J. Fox, Gaussian, Inc., Wallingford CT, 2010.
 
 ******************************************
 Gaussian 09:  EM64L-G09RevB.01 12-Aug-2010
                20-Nov-2021 
 ******************************************
 %nproc=8
 Will use up to    8 processors via shared memory.
 %mem=8GB
 -----------------------------------------------------
 # qcisd/aug-cc-pvtz nosymm density=current output=wfn
 -----------------------------------------------------
 1/30=1,38=1/1;
 2/12=2,15=1,17=6,18=5,40=1/2;
 3/5=16,6=1,7=10,11=9,16=1,25=1,30=1,71=1/1,2,3;
 4//1;
 5/5=2,38=5/2;
 8/6=4,9=120000,10=1/1,4;
 9/5=8,15=1/13;
 11/28=-7,31=1,32=3,42=3/11;
 10/5=6,13=10,31=1/2;
 6/7=2,8=2,9=2,10=2,22=-1,31=1/1;
 99/5=1,6=1100,9=1/99;
 -----------------
 h2co-wavefunction
 -----------------
 Symbolic Z-matrix:
 Charge =  0 Multiplicity = 1
 O                     0.01      0.        0.67925 
 C                     0.        0.       -0.52691 
 H                     0.        0.93661  -1.10662 
 H                     0.       -0.93661  -1.10662 
 
                          Input orientation:                          
 ---------------------------------------------------------------------
 Center     Atomic      Atomic             Coordinates (Angstroms)
 Number     Number       Type             X           Y           Z
 ---------------------------------------------------------------------
      1          8           0        0.010000    0.000000    0.679252
      2          6           0        0.000000    0.000000   -0.526911
      3          1           0        0.000000    0.936614   -1.106620
      4          1           0        0.000000   -0.936614   -1.106620
 ---------------------------------------------------------------------
                    Distance matrix (angstroms):
                    1          2          3          4
     1  O    0.000000
     2  C    1.206204   0.000000
     3  H    2.016602   1.101503   0.000000
     4  H    2.016602   1.101503   1.873228   0.000000
 Symmetry turned off by external request.
 Stoichiometry    CH2O
 Framework group  CS[SG(CO),X(H2)]
 Deg. of freedom     4
 Full point group                 CS      NOp   2
 Rotational constants (GHZ):    285.8068171     38.8676491     34.2148532
 Standard basis: Aug-CC-pVTZ (5D, 7F)
 Integral buffers will be    131072 words long.
 Raffenetti 1 integral format.
 Two-electron integral symmetry is turned off.
   138 basis functions,   198 primitive gaussians,   160 cartesian basis functions
     8 alpha electrons        8 beta electrons
       nuclear repulsion energy        31.3042356955 Hartrees.
 NAtoms=    4 NActive=    4 NUniq=    4 SFac= 1.00D+00 NAtFMM=   50 NAOKFM=F Big=F
 One-electron integrals computed using PRISM.
 NBasis=   138 RedAO= T  NBF=   138
 NBsUse=   138 1.00D-06 NBFU=   138
 Harris functional with IExCor=  205 diagonalized for initial guess.
 ExpMin= 2.53D-02 ExpMax= 1.53D+04 ExpMxC= 5.22D+02 IAcc=3 IRadAn=         0 AccDes= 0.00D+00
 HarFok:  IExCor=  205 AccDes= 0.00D+00 IRadAn=         0 IDoV= 1
 ScaDFX=  1.000000  1.000000  1.000000  1.000000
 FoFCou: FMM=F IPFlag=           0 FMFlag=      100000 FMFlg1=           0
         NFxFlg=           0 DoJE=T BraDBF=F KetDBF=T FulRan=T
         Omega=  0.000000  0.000000  1.000000  0.000000  0.000000 ICntrl=     500 IOpCl=  0
         NMat0=    1 NMatS0=    1 NMatT0=    0 NMatD0=    1 NMtDS0=    0 NMtDT0=    0
         I1Cent=           4 NGrid=           0.
 Symmetry not used in FoFCou.
 Requested convergence on RMS density matrix=1.00D-08 within 128 cycles.
 Requested convergence on MAX density matrix=1.00D-06.
 Requested convergence on             energy=1.00D-06.
 No special actions if energy rises.
 Keep R1 ints in memory in canonical form, NReq=85137408.
 SCF Done:  E(RHF) =  -113.913818595     A.U. after   11 cycles
             Convg  =    0.2892D-08             -V/T =  2.0018
 ExpMin= 2.53D-02 ExpMax= 1.53D+04 ExpMxC= 5.22D+02 IAcc=3 IRadAn=         5 AccDes= 0.00D+00
 HarFok:  IExCor=  205 AccDes= 0.00D+00 IRadAn=         5 IDoV=-2
 ScaDFX=  1.000000  1.000000  1.000000  1.000000
 DSYEVD returned Info=          93 IAlg= 4 N=    46 NDim=    46 NE2=    23340785 trying DSYEV.
 DSYEVD returned Info=          93 IAlg= 4 N=    46 NDim=    46 NE2=    23340785 trying DSYEV.
 Range of M.O.s used for correlation:     3   138
 NBasis=   138 NAE=     8 NBE=     8 NFC=     2 NFV=     0
 NROrb=    136 NOA=     6 NOB=     6 NVA=   130 NVB=   130

 **** Warning!!: The largest alpha MO coefficient is  0.33807543D+02

 Semi-Direct transformation.
 ModeAB=           2 MOrb=             6 LenV=    1073118443
 LASXX=      7286295 LTotXX=     7286295 LenRXX=     7286295
 LTotAB=     7445736 MaxLAS=    10510080 LenRXY=    10510080
 NonZer=    14572590 LenScr=    22628352 LnRSAI=           0
 LnScr1=           0 LExtra=           0 Total=     40424727
 MaxDsk=          -1 SrtSym=           F ITran=            4
 JobTyp=0 Pass  1:  I=   1 to   6.
 (rs|ai) integrals will be sorted in core.
 Spin components of T(2) and E(2):
     alpha-alpha T2 =       0.1376133536D-01 E2=     -0.4804252034D-01
     alpha-beta  T2 =       0.8505843444D-01 E2=     -0.3064384810D+00
     beta-beta   T2 =       0.1376133536D-01 E2=     -0.4804252034D-01
 ANorm=    0.1054789602D+01
 E2 =    -0.4025235216D+00 EUMP2 =    -0.11431634211665D+03
 R2 and R3 integrals will be kept in memory, NReq=   167993840.
 Iterations=  50 Convergence= 0.100D-07
 Iteration Nr.   1
 **********************
 DD1Dir will call FoFMem   1 times, MxPair=        42
 NAB=    21 NAA=     0 NBB=     0.
 MP4(R+Q)=  0.88730748D-02
 E3=       -0.40174000D-02        EUMP3=      -0.11432035952D+03
 E4(DQ)=   -0.13498736D-02        UMP4(DQ)=   -0.11432170939D+03
 E4(SDQ)=  -0.66125041D-02        UMP4(SDQ)=  -0.11432697202D+03
 DE(Corr)= -0.39766785     E(Corr)=     -114.31148644    
 NORM(A)=   0.10554825D+01
 Iteration Nr.   2
 **********************
 DD1Dir will call FoFMem   1 times, MxPair=        42
 NAB=    21 NAA=     0 NBB=     0.
 DE(Corr)= -0.41161151     E(CORR)=     -114.32543011     Delta=-1.39D-02
 NORM(A)=   0.10615370D+01
 Iteration Nr.   3
 **********************
 DD1Dir will call FoFMem   1 times, MxPair=        42
 NAB=    21 NAA=     0 NBB=     0.
 DE(Corr)= -0.41153856     E(CORR)=     -114.32535715     Delta= 7.30D-05
 NORM(A)=   0.10634243D+01
 Iteration Nr.   4
 **********************
 DD1Dir will call FoFMem   1 times, MxPair=        42
 NAB=    21 NAA=     0 NBB=     0.
 DE(Corr)= -0.41294519     E(CORR)=     -114.32676378     Delta=-1.41D-03
 NORM(A)=   0.10641044D+01
 Iteration Nr.   5
 **********************
 DD1Dir will call FoFMem   1 times, MxPair=        42
 NAB=    21 NAA=     0 NBB=     0.
 DE(Corr)= -0.41313274     E(CORR)=     -114.32695134     Delta=-1.88D-04
 NORM(A)=   0.10643195D+01
 Iteration Nr.   6
 **********************
 DD1Dir will call FoFMem   1 times, MxPair=        42
 NAB=    21 NAA=     0 NBB=     0.
 DE(Corr)= -0.41315868     E(CORR)=     -114.32697727     Delta=-2.59D-05
 NORM(A)=   0.10643449D+01
 Iteration Nr.   7
 **********************
 DD1Dir will call FoFMem   1 times, MxPair=        42
 NAB=    21 NAA=     0 NBB=     0.
 DE(Corr)= -0.41315989     E(CORR)=     -114.32697848     Delta=-1.21D-06
 NORM(A)=   0.10643460D+01
 Iteration Nr.   8
 **********************
 DD1Dir will call FoFMem   1 times, MxPair=        42
 NAB=    21 NAA=     0 NBB=     0.
 DE(Corr)= -0.41315901     E(CORR)=     -114.32697761     Delta= 8.76D-07
 NORM(A)=   0.10643488D+01
 Iteration Nr.   9
 **********************
 DD1Dir will call FoFMem   1 times, MxPair=        42
 NAB=    21 NAA=     0 NBB=     0.
 DE(Corr)= -0.41315790     E(CORR)=     -114.32697649     Delta= 1.12D-06
 NORM(A)=   0.10643491D+01
 Iteration Nr.  10
 **********************
 DD1Dir will call FoFMem   1 times, MxPair=        42
 NAB=    21 NAA=     0 NBB=     0.
 DE(Corr)= -0.41315852     E(CORR)=     -114.32697711     Delta=-6.21D-07
 NORM(A)=   0.10643497D+01
 Iteration Nr.  11
 **********************
 DD1Dir will call FoFMem   1 times, MxPair=        42
 NAB=    21 NAA=     0 NBB=     0.
 DE(Corr)= -0.41315865     E(CORR)=     -114.32697724     Delta=-1.32D-07
 NORM(A)=   0.10643501D+01
 Iteration Nr.  12
 **********************
 DD1Dir will call FoFMem   1 times, MxPair=        42
 NAB=    21 NAA=     0 NBB=     0.
 DE(Corr)= -0.41315881     E(CORR)=     -114.32697740     Delta=-1.55D-07
 NORM(A)=   0.10643503D+01
 Iteration Nr.  13
 **********************
 DD1Dir will call FoFMem   1 times, MxPair=        42
 NAB=    21 NAA=     0 NBB=     0.
 DE(Corr)= -0.41315887     E(CORR)=     -114.32697746     Delta=-6.11D-08
 NORM(A)=   0.10643504D+01
 Iteration Nr.  14
 **********************
 DD1Dir will call FoFMem   1 times, MxPair=        42
 NAB=    21 NAA=     0 NBB=     0.
 DE(Corr)= -0.41315890     E(CORR)=     -114.32697749     Delta=-3.16D-08
 NORM(A)=   0.10643504D+01
 Iteration Nr.  15
 **********************
 DD1Dir will call FoFMem   1 times, MxPair=        42
 NAB=    21 NAA=     0 NBB=     0.
 DE(Corr)= -0.41315890     E(CORR)=     -114.32697750     Delta=-4.82D-09
 NORM(A)=   0.10643504D+01
 Iteration Nr.  16
 **********************
 DD1Dir will call FoFMem   1 times, MxPair=        42
 NAB=    21 NAA=     0 NBB=     0.
 DE(Corr)= -0.41315891     E(CORR)=     -114.32697750     Delta=-3.07D-09
 NORM(A)=   0.10643504D+01
 Largest amplitude= 6.44D-02

 Z-AMPLITUDE ITERATIONS

 Iteration Nr.   1
 **********************
 DD1Dir will call FoFMem   1 times, MxPair=        42
 NAB=    21 NAA=     0 NBB=     0.
 DE(Z)  -0.40112388D+00          E(Z)=    -0.11431494248D+03
 NORM(A)=   0.10643497D+01
 Iteration Nr.   2
 **********************
 DD1Dir will call FoFMem   1 times, MxPair=        42
 NAB=    21 NAA=     0 NBB=     0.
 DE(Z)  -0.40112384D+00          E(Z)=    -0.11431494244D+03
 NORM(A)=   0.10643512D+01
 Iteration Nr.   3
 **********************
 DD1Dir will call FoFMem   1 times, MxPair=        42
 NAB=    21 NAA=     0 NBB=     0.
 DE(Z)  -0.40112392D+00          E(Z)=    -0.11431494251D+03
 NORM(A)=   0.10643501D+01
 Iteration Nr.   4
 **********************
 DD1Dir will call FoFMem   1 times, MxPair=        42
 NAB=    21 NAA=     0 NBB=     0.
 DE(Z)  -0.40112387D+00          E(Z)=    -0.11431494246D+03
 NORM(A)=   0.10643501D+01
 Iteration Nr.   5
 **********************
 DD1Dir will call FoFMem   1 times, MxPair=        42
 NAB=    21 NAA=     0 NBB=     0.
 DE(Z)  -0.40112387D+00          E(Z)=    -0.11431494246D+03
 NORM(A)=   0.10602979D+01
 Iteration Nr.   6
 **********************
 DD1Dir will call FoFMem   1 times, MxPair=        42
 NAB=    21 NAA=     0 NBB=     0.
 DE(Z)  -0.40091267D+00          E(Z)=    -0.11431473126D+03
 NORM(A)=   0.10601071D+01
 Iteration Nr.   7
 **********************
 DD1Dir will call FoFMem   1 times, MxPair=        42
 NAB=    21 NAA=     0 NBB=     0.
 DE(Z)  -0.40089321D+00          E(Z)=    -0.11431471180D+03
 NORM(A)=   0.10602688D+01
 Iteration Nr.   8
 **********************
 DD1Dir will call FoFMem   1 times, MxPair=        42
 NAB=    21 NAA=     0 NBB=     0.
 DE(Z)  -0.40091010D+00          E(Z)=    -0.11431472869D+03
 NORM(A)=   0.10602673D+01
 Iteration Nr.   9
 **********************
 DD1Dir will call FoFMem   1 times, MxPair=        42
 NAB=    21 NAA=     0 NBB=     0.
 DE(Z)  -0.40090952D+00          E(Z)=    -0.11431472812D+03
 NORM(A)=   0.10602671D+01
 Iteration Nr.  10
 **********************
 DD1Dir will call FoFMem   1 times, MxPair=        42
 NAB=    21 NAA=     0 NBB=     0.
 DE(Z)  -0.40090962D+00          E(Z)=    -0.11431472821D+03
 NORM(A)=   0.10602671D+01
 Iteration Nr.  11
 **********************
 DD1Dir will call FoFMem   1 times, MxPair=        42
 NAB=    21 NAA=     0 NBB=     0.
 DE(Z)  -0.40090958D+00          E(Z)=    -0.11431472818D+03
 NORM(A)=   0.10602671D+01
 Iteration Nr.  12
 **********************
 DD1Dir will call FoFMem   1 times, MxPair=        42
 NAB=    21 NAA=     0 NBB=     0.
 DE(Z)  -0.40090957D+00          E(Z)=    -0.11431472816D+03
 NORM(A)=   0.10602671D+01
 Iteration Nr.  13
 **********************
 DD1Dir will call FoFMem   1 times, MxPair=        42
 NAB=    21 NAA=     0 NBB=     0.
 DE(Z)  -0.40090958D+00          E(Z)=    -0.11431472818D+03
 NORM(A)=   0.10602672D+01
 Iteration Nr.  14
 **********************
 DD1Dir will call FoFMem   1 times, MxPair=        42
 NAB=    21 NAA=     0 NBB=     0.
 DE(Z)  -0.40090958D+00          E(Z)=    -0.11431472817D+03
 NORM(A)=   0.10602672D+01
 Discarding MO integrals.
          Differentiating once with respect to electric field.
                with respect to dipole field.
          Electric field/nuclear overlap derivatives assumed to be zero.
          Keep R1 ints in memory in canonical form, NReq=84894547.
          There are     1 degrees of freedom in the 1st order CPHF.  IDoFFX=0.
 LinEq1:  Iter=  0 NonCon=     1 RMS=3.55D-03 Max=5.57D-02
 AX will form     1 AO Fock derivatives at one time.
 LinEq1:  Iter=  1 NonCon=     1 RMS=8.96D-04 Max=8.54D-03
 LinEq1:  Iter=  2 NonCon=     1 RMS=2.35D-04 Max=3.42D-03
 LinEq1:  Iter=  3 NonCon=     1 RMS=1.15D-04 Max=1.21D-03
 LinEq1:  Iter=  4 NonCon=     1 RMS=4.45D-05 Max=5.32D-04
 LinEq1:  Iter=  5 NonCon=     1 RMS=9.21D-06 Max=8.74D-05
 LinEq1:  Iter=  6 NonCon=     1 RMS=1.50D-06 Max=1.74D-05
 LinEq1:  Iter=  7 NonCon=     1 RMS=2.28D-07 Max=1.66D-06
 LinEq1:  Iter=  8 NonCon=     1 RMS=2.61D-08 Max=2.07D-07
 LinEq1:  Iter=  9 NonCon=     1 RMS=3.14D-09 Max=2.52D-08
 LinEq1:  Iter= 10 NonCon=     1 RMS=2.96D-10 Max=2.32D-09
 LinEq1:  Iter= 11 NonCon=     0 RMS=2.73D-11 Max=2.37D-10
 Linear equations converged to 1.000D-10 1.000D-09 after    11 iterations.
 End of Minotr Frequency-dependent properties file   721 does not exist.
 End of Minotr Frequency-dependent properties file   722 does not exist.

 **********************************************************************

            Population analysis using the QCI/CC density.

 **********************************************************************

     Natural Orbital Coefficients:
                           1         2         3         4         5
     Eigenvalues --     2.00001   2.00000   1.98055   1.96688   1.96534
   1 1   O  1S         -0.52387   0.82762  -0.18942   0.07081   0.00000
   2        2S          0.01054  -0.01441   0.48948  -0.20085   0.00000
   3        3S         -0.02188   0.03556   0.13766  -0.06075   0.00000
   4        4S          0.00282  -0.00269   0.31055  -0.22315   0.00000
   5        5S          0.00015  -0.00079   0.04379  -0.03080   0.00000
   6        6PX         0.00003  -0.00002   0.00005  -0.00070   0.00000
   7        6PY         0.00000   0.00000   0.00000   0.00000   0.27188
   8        6PZ         0.00299  -0.00224  -0.00039  -0.13841   0.00000
   9        7PX         0.00002   0.00001   0.00001  -0.00077   0.00000
  10        7PY         0.00000   0.00000   0.00000   0.00000   0.33553
  11        7PZ         0.00200   0.00154  -0.00855  -0.16217   0.00000
  12        8PX         0.00001  -0.00001   0.00036  -0.00022   0.00000
  13        8PY         0.00000   0.00000   0.00000   0.00000   0.24270
  14        8PZ         0.00306   0.00051   0.03895  -0.07611   0.00000
  15        9PX         0.00000   0.00000   0.00001   0.00003   0.00000
  16        9PY         0.00000   0.00000   0.00000   0.00000   0.03730
  17        9PZ         0.00019   0.00005   0.00214  -0.00256   0.00000
  18       10D 0       -0.00015   0.00015   0.00429   0.00544   0.00000
  19       10D+1        0.00000   0.00000   0.00006   0.00006   0.00000
  20       10D-1        0.00000   0.00000   0.00000   0.00000  -0.00818
  21       10D+2        0.00007  -0.00008   0.00008  -0.00002   0.00000
  22       10D-2        0.00000   0.00000   0.00000   0.00000  -0.00007
  23       11D 0       -0.00046  -0.00116   0.01229   0.00992   0.00000
  24       11D+1        0.00000  -0.00001   0.00017   0.00008   0.00000
  25       11D-1        0.00000   0.00000   0.00000   0.00000  -0.02154
  26       11D+2        0.00008  -0.00014   0.00065   0.00033   0.00000
  27       11D-2        0.00000   0.00000   0.00000   0.00000  -0.00017
  28       12D 0       -0.00067  -0.00030  -0.00878   0.00125   0.00000
  29       12D+1       -0.00001   0.00000  -0.00014  -0.00003   0.00000
  30       12D-1        0.00000   0.00000   0.00000   0.00000  -0.01372
  31       12D+2        0.00027   0.00018  -0.00025   0.00072   0.00000
  32       12D-2        0.00000   0.00000   0.00000   0.00000  -0.00005
  33       13F 0       -0.00003   0.00003  -0.00272  -0.00183   0.00000
  34       13F+1        0.00000   0.00000  -0.00005  -0.00002   0.00000
  35       13F-1        0.00000   0.00000   0.00000   0.00000   0.00483
  36       13F+2        0.00005  -0.00001   0.00014  -0.00049   0.00000
  37       13F-2        0.00000   0.00000   0.00000   0.00000   0.00005
  38       13F+3        0.00000   0.00000   0.00000  -0.00001   0.00000
  39       13F-3        0.00000   0.00000   0.00000   0.00000   0.00126
  40       14F 0        0.00034   0.00042  -0.00116  -0.00047   0.00000
  41       14F+1        0.00001   0.00001  -0.00002   0.00000   0.00000
  42       14F-1        0.00000   0.00000   0.00000   0.00000   0.00328
  43       14F+2       -0.00002   0.00004  -0.00086  -0.00070   0.00000
  44       14F-2        0.00000   0.00000   0.00000   0.00000   0.00001
  45       14F+3        0.00000   0.00000   0.00000   0.00001   0.00000
  46       14F-3        0.00000   0.00000   0.00000   0.00000   0.00143
  47 2   C  1S          0.82922   0.52456  -0.08433  -0.14831   0.00000
  48        2S         -0.01111  -0.00598   0.20345   0.41364   0.00000
  49        3S          0.03437   0.02184   0.04540   0.09729   0.00000
  50        4S          0.00352   0.00331   0.12490   0.30014   0.00000
  51        5S          0.00181   0.00136   0.00595   0.01629   0.00000
  52        6PX         0.00000   0.00000   0.00053   0.00022   0.00000
  53        6PY         0.00000   0.00000   0.00000   0.00000   0.18568
  54        6PZ         0.00094   0.00053   0.04841  -0.05198   0.00000
  55        7PX         0.00002   0.00003   0.00044   0.00026   0.00000
  56        7PY         0.00000   0.00000   0.00000   0.00000   0.24503
  57        7PZ         0.00059   0.00374   0.01530  -0.07399   0.00000
  58        8PX         0.00000   0.00001  -0.00013  -0.00002   0.00000
  59        8PY         0.00000   0.00000   0.00000   0.00000   0.06172
  60        8PZ        -0.00101  -0.00011  -0.03938  -0.05534   0.00000
  61        9PX         0.00000   0.00000  -0.00002   0.00000   0.00000
  62        9PY         0.00000   0.00000   0.00000   0.00000  -0.01501
  63        9PZ        -0.00016   0.00002  -0.00249  -0.00022   0.00000
  64       10D 0        0.00051   0.00069   0.01357   0.00170   0.00000
  65       10D+1        0.00001   0.00001   0.00020   0.00008   0.00000
  66       10D-1        0.00000   0.00000   0.00000   0.00000   0.00864
  67       10D+2       -0.00044  -0.00021  -0.00310  -0.00951   0.00000
  68       10D-2        0.00000   0.00000   0.00000   0.00000   0.00013
  69       11D 0       -0.00075   0.00110   0.00276  -0.00161   0.00000
  70       11D+1       -0.00001   0.00002   0.00009   0.00008   0.00000
  71       11D-1        0.00000   0.00000   0.00000   0.00000  -0.00990
  72       11D+2        0.00032   0.00072  -0.01474  -0.02467   0.00000
  73       11D-2        0.00000   0.00000   0.00000   0.00000   0.00011
  74       12D 0       -0.00045  -0.00137  -0.01735   0.00280   0.00000
  75       12D+1        0.00000   0.00000  -0.00013  -0.00002   0.00000
  76       12D-1        0.00000   0.00000   0.00000   0.00000  -0.01747
  77       12D+2       -0.00049  -0.00087  -0.00938  -0.00217   0.00000
  78       12D-2        0.00000   0.00000   0.00000   0.00000  -0.00028
  79       13F 0        0.00069   0.00044   0.00547   0.00537   0.00000
  80       13F+1        0.00001   0.00001   0.00007   0.00007   0.00000
  81       13F-1        0.00000   0.00000   0.00000   0.00000   0.00877
  82       13F+2        0.00050   0.00019   0.00362   0.00457   0.00000
  83       13F-2        0.00000   0.00000   0.00000   0.00000   0.00009
  84       13F+3        0.00000   0.00000   0.00001   0.00001   0.00000
  85       13F-3        0.00000   0.00000   0.00000   0.00000  -0.00063
  86       14F 0       -0.00150  -0.00012  -0.00041   0.00371   0.00000
  87       14F+1       -0.00001   0.00001  -0.00007  -0.00006   0.00000
  88       14F-1        0.00000   0.00000   0.00000   0.00000   0.00783
  89       14F+2       -0.00087  -0.00035   0.00267   0.00726   0.00000
  90       14F-2        0.00000   0.00000   0.00000   0.00000  -0.00003
  91       14F+3       -0.00001   0.00000  -0.00003  -0.00001   0.00000
  92       14F-3        0.00000   0.00000   0.00000   0.00000   0.00028
  93 3   H  1S         -0.00107  -0.00058   0.02537   0.09550   0.07184
  94        2S         -0.00072   0.00037  -0.00004   0.08753   0.06288
  95        3S         -0.00350  -0.00270  -0.04532  -0.03128  -0.01190
  96        4S         -0.00027  -0.00017  -0.00176  -0.00205   0.00766
  97        5PX         0.00000   0.00000   0.00000   0.00000   0.00001
  98        5PY         0.00035   0.00016  -0.00127  -0.00810  -0.00518
  99        5PZ        -0.00024  -0.00010   0.00103   0.00403   0.00627
 100        6PX        -0.00001   0.00000  -0.00002  -0.00001  -0.00001
 101        6PY         0.00050  -0.00017   0.00959   0.00047   0.01265
 102        6PZ        -0.00019   0.00030  -0.00935  -0.00446   0.00413
 103        7PX         0.00000   0.00000  -0.00004   0.00000   0.00019
 104        7PY         0.00050  -0.00012   0.00681   0.01650   0.00575
 105        7PZ        -0.00069  -0.00101  -0.01801  -0.00617   0.00746
 106        8D 0        0.00007   0.00001   0.00030  -0.00022   0.00182
 107        8D+1        0.00000   0.00000   0.00000   0.00000   0.00000
 108        8D-1        0.00028   0.00013   0.00066  -0.00093  -0.00264
 109        8D+2        0.00018   0.00008   0.00051  -0.00117  -0.00013
 110        8D-2        0.00000   0.00000   0.00000   0.00000  -0.00001
 111        9D 0       -0.00024  -0.00003  -0.00187  -0.00110   0.00110
 112        9D+1       -0.00001   0.00000  -0.00002  -0.00004   0.00000
 113        9D-1       -0.00011  -0.00002   0.00384   0.00226   0.00359
 114        9D+2        0.00024   0.00000   0.00173   0.00170   0.00315
 115        9D-2        0.00000   0.00000   0.00000  -0.00002   0.00000
 116 4   H  1S         -0.00107  -0.00058   0.02537   0.09550  -0.07184
 117        2S         -0.00072   0.00037  -0.00004   0.08753  -0.06288
 118        3S         -0.00350  -0.00270  -0.04532  -0.03128   0.01190
 119        4S         -0.00027  -0.00017  -0.00176  -0.00205  -0.00766
 120        5PX         0.00000   0.00000   0.00000   0.00000  -0.00001
 121        5PY        -0.00035  -0.00016   0.00127   0.00810  -0.00518
 122        5PZ        -0.00024  -0.00010   0.00103   0.00403  -0.00627
 123        6PX        -0.00001   0.00000  -0.00002  -0.00001   0.00001
 124        6PY        -0.00050   0.00017  -0.00959  -0.00047   0.01265
 125        6PZ        -0.00019   0.00030  -0.00935  -0.00446  -0.00413
 126        7PX         0.00000   0.00000  -0.00004   0.00000  -0.00019
 127        7PY        -0.00050   0.00012  -0.00681  -0.01650   0.00575
 128        7PZ        -0.00069  -0.00101  -0.01801  -0.00617  -0.00746
 129        8D 0        0.00007   0.00001   0.00030  -0.00022  -0.00182
 130        8D+1        0.00000   0.00000   0.00000   0.00000   0.00000
 131        8D-1       -0.00028  -0.00013  -0.00066   0.00093  -0.00264
 132        8D+2        0.00018   0.00008   0.00051  -0.00117   0.00013
 133        8D-2        0.00000   0.00000   0.00000   0.00000  -0.00001
 134        9D 0       -0.00024  -0.00003  -0.00187  -0.00110  -0.00110
 135        9D+1       -0.00001   0.00000  -0.00002  -0.00004   0.00000
 136        9D-1        0.00011   0.00002  -0.00384  -0.00226   0.00359
 137        9D+2        0.00024   0.00000   0.00173   0.00170  -0.00315
 138        9D-2        0.00000   0.00000   0.00000   0.00002   0.00000
                           6         7         8         9        10
     Eigenvalues --     1.96011   1.95673   1.92262   0.06606   0.02821
   1 1   O  1S          0.00388   0.00000  -0.00011  -0.00008   0.00000
   2        2S          0.00915   0.00000   0.00033   0.00023   0.00000
   3        3S          0.00704   0.00000   0.00010   0.00005   0.00000
   4        4S          0.11800   0.00000   0.00031   0.00024   0.00000
   5        5S          0.06253   0.00000  -0.00074  -0.00015   0.00000
   6        6PX         0.00228   0.00000   0.28160  -0.36415   0.00000
   7        6PY         0.00000   0.23977   0.00000   0.00000  -0.40220
   8        6PZ         0.28215   0.00000  -0.00227   0.00256   0.00000
   9        7PX         0.00276   0.00000   0.35439  -0.43371   0.00000
  10        7PY         0.00000   0.29565   0.00000   0.00000  -0.30510
  11        7PZ         0.34077   0.00000  -0.00285   0.00296   0.00000
  12        8PX         0.00139   0.00000   0.23368  -0.08021   0.00000
  13        8PY         0.00000   0.24157   0.00000   0.00000   0.17780
  14        8PZ         0.18388   0.00000  -0.00215   0.00048   0.00000
  15        9PX         0.00001   0.00000   0.02107   0.00302   0.00000
  16        9PY         0.00000   0.04042   0.00000   0.00000   0.09970
  17        9PZ         0.00375   0.00000  -0.00004  -0.00001   0.00000
  18       10D 0       -0.01200   0.00000   0.00014   0.00020   0.00000
  19       10D+1       -0.00018   0.00000  -0.01005  -0.01301   0.00000
  20       10D-1        0.00000  -0.00094   0.00000   0.00000  -0.03079
  21       10D+2       -0.00015   0.00000  -0.00009  -0.00014   0.00000
  22       10D-2        0.00000  -0.00001   0.00000   0.00000  -0.00029
  23       11D 0       -0.02907   0.00000   0.00041   0.00027   0.00000
  24       11D+1       -0.00043   0.00000  -0.02824  -0.01208   0.00000
  25       11D-1        0.00000  -0.00221   0.00000   0.00000  -0.03980
  26       11D+2       -0.00103   0.00000  -0.00023  -0.00016   0.00000
  27       11D-2        0.00000  -0.00004   0.00000   0.00000  -0.00040
  28       12D 0       -0.00701   0.00000   0.00025  -0.00021   0.00000
  29       12D+1       -0.00005   0.00000  -0.01230   0.01570   0.00000
  30       12D-1        0.00000  -0.00339   0.00000   0.00000   0.01569
  31       12D+2       -0.00128   0.00000  -0.00013   0.00008   0.00000
  32       12D-2        0.00000  -0.00002   0.00000   0.00000   0.00033
  33       13F 0        0.00477   0.00000  -0.00010  -0.00010   0.00000
  34       13F+1        0.00009   0.00000   0.00505   0.00443   0.00000
  35       13F-1        0.00000   0.00047   0.00000   0.00000   0.00696
  36       13F+2        0.00118   0.00000   0.00005   0.00009   0.00000
  37       13F-2        0.00000   0.00000   0.00000   0.00000   0.00013
  38       13F+3        0.00001   0.00000   0.00155  -0.00359   0.00000
  39       13F-3        0.00000   0.00125   0.00000   0.00000  -0.00165
  40       14F 0        0.00652   0.00000  -0.00009   0.00005   0.00000
  41       14F+1        0.00012   0.00000   0.00347  -0.00357   0.00000
  42       14F-1        0.00000   0.00169   0.00000   0.00000  -0.00199
  43       14F+2        0.00092   0.00000   0.00004  -0.00001   0.00000
  44       14F-2        0.00000   0.00002   0.00000   0.00000  -0.00008
  45       14F+3        0.00001   0.00000   0.00121  -0.00307   0.00000
  46       14F-3        0.00000  -0.00005   0.00000   0.00000  -0.00272
  47 2   C  1S          0.01561   0.00000   0.00048   0.00063   0.00000
  48        2S         -0.03056   0.00000  -0.00136  -0.00209   0.00000
  49        3S         -0.00945   0.00000  -0.00032  -0.00080   0.00000
  50        4S          0.10644   0.00000  -0.00255  -0.00132   0.00000
  51        5S          0.00016   0.00000   0.00005   0.00010   0.00000
  52        6PX        -0.00157   0.00000   0.18994   0.31083   0.00000
  53        6PY         0.00000  -0.16522   0.00000   0.00000   0.33493
  54        6PZ        -0.23933   0.00000  -0.00119  -0.00180   0.00000
  55        7PX        -0.00171   0.00000   0.24855   0.48077   0.00000
  56        7PY         0.00000  -0.23092   0.00000   0.00000   0.64158
  57        7PZ        -0.25360   0.00000  -0.00165  -0.00311   0.00000
  58        8PX        -0.00039   0.00000   0.12410   0.18975   0.00000
  59        8PY         0.00000  -0.25302   0.00000   0.00000   0.34128
  60        8PZ        -0.08510   0.00000  -0.00042  -0.00124   0.00000
  61        9PX        -0.00001   0.00000   0.00177   0.00333   0.00000
  62        9PY         0.00000  -0.02291   0.00000   0.00000  -0.03774
  63        9PZ        -0.00184   0.00000  -0.00002  -0.00003   0.00000
  64       10D 0       -0.01909   0.00000  -0.00027   0.00005   0.00000
  65       10D+1       -0.00025   0.00000   0.01985  -0.00029   0.00000
  66       10D-1        0.00000   0.03304   0.00000   0.00000   0.03779
  67       10D+2       -0.00603   0.00000   0.00016  -0.00011   0.00000
  68       10D-2        0.00000   0.00014   0.00000   0.00000   0.00014
  69       11D 0       -0.01214   0.00000  -0.00035  -0.00045   0.00000
  70       11D+1       -0.00015   0.00000   0.02957   0.03796   0.00000
  71       11D-1        0.00000   0.08294   0.00000   0.00000   0.02932
  72       11D+2       -0.00595   0.00000   0.00034   0.00016   0.00000
  73       11D-2        0.00000   0.00030   0.00000   0.00000   0.00077
  74       12D 0        0.00088   0.00000   0.00066  -0.00006   0.00000
  75       12D+1       -0.00001   0.00000  -0.00410   0.00923   0.00000
  76       12D-1        0.00000   0.06726   0.00000   0.00000   0.03318
  77       12D+2       -0.00557   0.00000   0.00043   0.00023   0.00000
  78       12D-2        0.00000   0.00024   0.00000   0.00000   0.00044
  79       13F 0       -0.00738   0.00000  -0.00015  -0.00016   0.00000
  80       13F+1       -0.00013   0.00000   0.00684   0.00922   0.00000
  81       13F-1        0.00000   0.00422   0.00000   0.00000   0.02422
  82       13F+2       -0.00153   0.00000   0.00008   0.00008   0.00000
  83       13F-2        0.00000   0.00006   0.00000   0.00000   0.00031
  84       13F+3       -0.00001   0.00000   0.00023  -0.00113   0.00000
  85       13F-3        0.00000   0.00254   0.00000   0.00000  -0.00378
  86       14F 0        0.01011   0.00000  -0.00013  -0.00035   0.00000
  87       14F+1        0.00013   0.00000   0.00468   0.01662   0.00000
  88       14F-1        0.00000   0.00515   0.00000   0.00000   0.10437
  89       14F+2        0.00652   0.00000  -0.00002   0.00010   0.00000
  90       14F-2        0.00000   0.00012   0.00000   0.00000   0.00070
  91       14F+3        0.00009   0.00000   0.00232   0.00617   0.00000
  92       14F-3        0.00000   0.00578   0.00000   0.00000   0.00596
  93 3   H  1S          0.07150  -0.13567  -0.00002   0.00074  -0.15135
  94        2S          0.10049  -0.17068   0.00020   0.00098  -0.55440
  95        3S          0.00582   0.08156   0.00095   0.00019  -0.47492
  96        4S          0.00026   0.00959  -0.00001  -0.00003   0.00591
  97        5PX        -0.00002   0.00001   0.00342   0.01209   0.00004
  98        5PY        -0.00798   0.00685  -0.00001  -0.00008  -0.00498
  99        5PZ         0.00164  -0.00485  -0.00001  -0.00002   0.01784
 100        6PX         0.00000   0.00004   0.01016   0.02420   0.00038
 101        6PY        -0.01318  -0.00735   0.00000   0.00004   0.13176
 102        6PZ         0.00173   0.00456   0.00000  -0.00011   0.02438
 103        7PX        -0.00004  -0.00005  -0.00409  -0.00698   0.00007
 104        7PY         0.00411  -0.04229   0.00012   0.00009   0.08711
 105        7PZ        -0.00298   0.02027   0.00056   0.00009  -0.02984
 106        8D 0       -0.00208   0.00046   0.00000  -0.00002   0.00986
 107        8D+1       -0.00002   0.00000   0.00118   0.00378  -0.00002
 108        8D-1       -0.00145   0.00100  -0.00001   0.00001  -0.00801
 109        8D+2       -0.00215   0.00072   0.00000  -0.00001   0.00439
 110        8D-2        0.00001  -0.00001  -0.00127  -0.00596  -0.00006
 111        9D 0        0.00382  -0.00251  -0.00001  -0.00002   0.00917
 112        9D+1        0.00008  -0.00003   0.00138   0.00158  -0.00009
 113        9D-1        0.00019   0.00018  -0.00001   0.00001   0.01753
 114        9D+2       -0.00224  -0.00141   0.00006   0.00005   0.01766
 115        9D-2        0.00003   0.00000   0.00102   0.00375  -0.00008
 116 4   H  1S          0.07150   0.13567  -0.00002   0.00074   0.15135
 117        2S          0.10049   0.17068   0.00020   0.00098   0.55440
 118        3S          0.00582  -0.08156   0.00095   0.00019   0.47492
 119        4S          0.00026  -0.00959  -0.00001  -0.00003  -0.00591
 120        5PX        -0.00002  -0.00001   0.00342   0.01209  -0.00004
 121        5PY         0.00798   0.00685   0.00001   0.00008  -0.00498
 122        5PZ         0.00164   0.00485  -0.00001  -0.00002  -0.01784
 123        6PX         0.00000  -0.00004   0.01016   0.02420  -0.00038
 124        6PY         0.01318  -0.00735   0.00000  -0.00004   0.13176
 125        6PZ         0.00173  -0.00456   0.00000  -0.00011  -0.02438
 126        7PX        -0.00004   0.00005  -0.00409  -0.00698  -0.00007
 127        7PY        -0.00411  -0.04229  -0.00012  -0.00009   0.08711
 128        7PZ        -0.00298  -0.02027   0.00056   0.00009   0.02984
 129        8D 0       -0.00208  -0.00046   0.00000  -0.00002  -0.00986
 130        8D+1       -0.00002   0.00000   0.00118   0.00378   0.00002
 131        8D-1        0.00145   0.00100   0.00001  -0.00001  -0.00801
 132        8D+2       -0.00215  -0.00072   0.00000  -0.00001  -0.00439
 133        8D-2       -0.00001  -0.00001   0.00127   0.00596  -0.00006
 134        9D 0        0.00382   0.00251  -0.00001  -0.00002  -0.00917
 135        9D+1        0.00008   0.00003   0.00138   0.00158   0.00009
 136        9D-1       -0.00019   0.00018   0.00001  -0.00001   0.01753
 137        9D+2       -0.00224   0.00141   0.00006   0.00005  -0.01766
 138        9D-2       -0.00003   0.00000  -0.00102  -0.00375  -0.00008
                          11        12        13        14        15
     Eigenvalues --     0.02651   0.02014   0.01203   0.01188   0.00761
   1 1   O  1S         -0.07234  -0.02661   0.00000  -0.23659   0.00000
   2        2S          0.28234   0.11502   0.00000   0.74351   0.00000
   3        3S          0.10870   0.05023   0.00000   0.63294   0.00000
   4        4S          0.61175   0.39239   0.00000  -1.37310   0.00000
   5        5S          0.36867   0.27707   0.00000  -0.58904   0.00000
   6        6PX        -0.00279  -0.00200   0.00000   0.00208   0.00000
   7        6PY         0.00000   0.00000   0.44256   0.00000   0.13776
   8        6PZ        -0.43823  -0.11901   0.00000   0.26256   0.00000
   9        7PX        -0.00362  -0.00248   0.00000   0.00056   0.00000
  10        7PY         0.00000   0.00000   0.19601   0.00000   0.02954
  11        7PZ        -0.52519  -0.17788   0.00000   0.06810   0.00000
  12        8PX        -0.00108  -0.00154   0.00000  -0.00014   0.00000
  13        8PY         0.00000   0.00000  -0.41547   0.00000  -0.19227
  14        8PZ        -0.11341  -0.18784   0.00000  -0.11868   0.00000
  15        9PX        -0.00041  -0.00040   0.00000   0.00044   0.00000
  16        9PY         0.00000   0.00000  -0.06186   0.00000  -0.04546
  17        9PZ        -0.04052  -0.05370   0.00000   0.04161   0.00000
  18       10D 0       -0.03057  -0.02190   0.00000   0.00607   0.00000
  19       10D+1       -0.00030  -0.00057   0.00000   0.00033   0.00000
  20       10D-1        0.00000   0.00000  -0.00980   0.00000  -0.20827
  21       10D+2       -0.01025   0.00263   0.00000  -0.02473   0.00000
  22       10D-2        0.00000   0.00000  -0.00016   0.00000  -0.00169
  23       11D 0       -0.01654  -0.03284   0.00000  -0.03109   0.00000
  24       11D+1        0.00005  -0.00098   0.00000  -0.00027   0.00000
  25       11D-1        0.00000   0.00000  -0.07502   0.00000  -0.51216
  26       11D+2       -0.02068   0.00990   0.00000   0.00064   0.00000
  27       11D-2        0.00000   0.00000  -0.00080   0.00000  -0.00424
  28       12D 0       -0.00039   0.02910   0.00000  -0.02960   0.00000
  29       12D+1       -0.00002   0.00043   0.00000  -0.00064   0.00000
  30       12D-1        0.00000   0.00000  -0.01414   0.00000  -0.12302
  31       12D+2       -0.00908   0.00197   0.00000   0.00844   0.00000
  32       12D-2        0.00000   0.00000  -0.00001   0.00000  -0.00122
  33       13F 0       -0.00018   0.00445   0.00000  -0.00248   0.00000
  34       13F+1       -0.00001   0.00016   0.00000  -0.00008   0.00000
  35       13F-1        0.00000   0.00000   0.01290   0.00000   0.03480
  36       13F+2       -0.00076  -0.00161   0.00000   0.00028   0.00000
  37       13F-2        0.00000   0.00000   0.00021   0.00000   0.00045
  38       13F+3       -0.00001  -0.00002   0.00000   0.00000   0.00000
  39       13F-3        0.00000   0.00000  -0.00273   0.00000  -0.00033
  40       14F 0        0.00813   0.01024   0.00000   0.01843   0.00000
  41       14F+1        0.00013   0.00030   0.00000   0.00028   0.00000
  42       14F-1        0.00000   0.00000   0.00724   0.00000   0.07590
  43       14F+2        0.00044  -0.00562   0.00000   0.00731   0.00000
  44       14F-2        0.00000   0.00000  -0.00001   0.00000   0.00108
  45       14F+3        0.00006  -0.00006   0.00000   0.00013   0.00000
  46       14F-3        0.00000   0.00000   0.01755   0.00000   0.00213
  47 2   C  1S          0.16610  -0.11343   0.00000  -0.00100   0.00000
  48        2S         -0.61914   0.44673   0.00000   0.07005   0.00000
  49        3S         -0.25739   0.25746   0.00000   0.06772   0.00000
  50        4S         -0.21242   0.07137   0.00000  -0.12265   0.00000
  51        5S         -0.11022  -0.09433   0.00000   0.11482   0.00000
  52        6PX        -0.00269  -0.00145   0.00000  -0.00031   0.00000
  53        6PY         0.00000   0.00000   0.41505   0.00000  -0.12501
  54        6PZ        -0.23599  -0.40691   0.00000  -0.01525   0.00000
  55        7PX        -0.00527  -0.00249   0.00000   0.00039   0.00000
  56        7PY         0.00000   0.00000   0.78576   0.00000  -0.16641
  57        7PZ        -0.56634  -0.71551   0.00000   0.12809   0.00000
  58        8PX        -0.00279  -0.00051   0.00000   0.00143   0.00000
  59        8PY         0.00000   0.00000   0.57779   0.00000   0.07117
  60        8PZ        -0.30600  -0.22986   0.00000   0.27667   0.00000
  61        9PX        -0.00014  -0.00014   0.00000   0.00023   0.00000
  62        9PY         0.00000   0.00000   0.04899   0.00000  -0.00031
  63        9PZ        -0.01362  -0.00777   0.00000   0.02004   0.00000
  64       10D 0        0.01794   0.01402   0.00000   0.01232   0.00000
  65       10D+1        0.00022   0.00028   0.00000   0.00028   0.00000
  66       10D-1        0.00000   0.00000  -0.10077   0.00000   0.24522
  67       10D+2       -0.00545   0.01447   0.00000  -0.02747   0.00000
  68       10D-2        0.00000   0.00000  -0.00099   0.00000   0.00132
  69       11D 0       -0.09222  -0.06804   0.00000  -0.01465   0.00000
  70       11D+1       -0.00124  -0.00068   0.00000  -0.00009   0.00000
  71       11D-1        0.00000   0.00000  -0.57279   0.00000   0.09290
  72       11D+2       -0.07488  -0.03408   0.00000  -0.02119   0.00000
  73       11D-2        0.00000   0.00000  -0.00252   0.00000  -0.00006
  74       12D 0       -0.06557  -0.03668   0.00000   0.10550   0.00000
  75       12D+1       -0.00066  -0.00028   0.00000   0.00076   0.00000
  76       12D-1        0.00000   0.00000  -0.19689   0.00000  -0.15571
  77       12D+2       -0.02095  -0.02569   0.00000   0.05762   0.00000
  78       12D-2        0.00000   0.00000  -0.00093   0.00000  -0.00119
  79       13F 0       -0.00867  -0.01556   0.00000  -0.00022   0.00000
  80       13F+1       -0.00013  -0.00029   0.00000   0.00000   0.00000
  81       13F-1        0.00000   0.00000  -0.00784   0.00000   0.00789
  82       13F+2       -0.00008   0.01062   0.00000  -0.00089   0.00000
  83       13F-2        0.00000   0.00000   0.00003   0.00000   0.00029
  84       13F+3       -0.00005   0.00019   0.00000  -0.00002   0.00000
  85       13F-3        0.00000   0.00000  -0.02474   0.00000   0.01771
  86       14F 0       -0.00121  -0.00293   0.00000  -0.03151   0.00000
  87       14F+1       -0.00060  -0.00016   0.00000  -0.00067   0.00000
  88       14F-1        0.00000   0.00000  -0.12564   0.00000  -0.08876
  89       14F+2        0.01742   0.01248   0.00000  -0.01393   0.00000
  90       14F-2        0.00000   0.00000  -0.00186   0.00000  -0.00083
  91       14F+3       -0.00009  -0.00012   0.00000  -0.00042   0.00000
  92       14F-3        0.00000   0.00000  -0.08788   0.00000   0.01150
  93 3   H  1S          0.10381  -0.24028  -0.09481   0.06095  -0.12351
  94        2S          0.05744  -0.62658  -0.87762   0.14186   0.07527
  95        3S         -0.09196  -0.19394  -0.74311   0.19094   0.06710
  96        4S          0.00673   0.00751  -0.03616  -0.00598   0.01453
  97        5PX        -0.00017  -0.00005  -0.00022  -0.00006   0.00022
  98        5PY        -0.00249  -0.02397  -0.03316  -0.01327   0.06434
  99        5PZ        -0.01249  -0.00806   0.01751   0.00785  -0.01245
 100        6PX        -0.00045  -0.00017  -0.00095  -0.00037   0.00032
 101        6PY         0.02496   0.05316   0.12947  -0.04465   0.07774
 102        6PZ        -0.06648  -0.07748  -0.17549   0.02862  -0.01707
 103        7PX        -0.00016  -0.00010   0.00026   0.00031   0.00069
 104        7PY         0.01738   0.02031   0.15319  -0.01078   0.05788
 105        7PZ        -0.05281  -0.03666  -0.09569   0.09799   0.02930
 106        8D 0       -0.00336  -0.01115  -0.00619  -0.00262   0.01820
 107        8D+1       -0.00002  -0.00001  -0.00006  -0.00005   0.00012
 108        8D-1        0.00831  -0.00276  -0.00658  -0.00567   0.00596
 109        8D+2       -0.00034  -0.00994  -0.01199  -0.00691   0.01605
 110        8D-2        0.00009   0.00005   0.00018   0.00007  -0.00016
 111        9D 0       -0.00547  -0.00074   0.00781  -0.00681   0.02266
 112        9D+1       -0.00006   0.00001   0.00050  -0.00036   0.00027
 113        9D-1        0.01996   0.01495   0.01565  -0.01992   0.00962
 114        9D+2       -0.00019   0.00874   0.00712  -0.00319   0.01827
 115        9D-2        0.00005   0.00004   0.00023  -0.00017  -0.00011
 116 4   H  1S          0.10381  -0.24028   0.09481   0.06095   0.12351
 117        2S          0.05744  -0.62658   0.87762   0.14186  -0.07527
 118        3S         -0.09196  -0.19394   0.74311   0.19094  -0.06710
 119        4S          0.00673   0.00751   0.03616  -0.00598  -0.01453
 120        5PX        -0.00017  -0.00005   0.00022  -0.00006  -0.00022
 121        5PY         0.00249   0.02397  -0.03316   0.01327   0.06434
 122        5PZ        -0.01249  -0.00806  -0.01751   0.00785   0.01245
 123        6PX        -0.00045  -0.00017   0.00095  -0.00037  -0.00032
 124        6PY        -0.02496  -0.05316   0.12947   0.04465   0.07774
 125        6PZ        -0.06648  -0.07748   0.17549   0.02862   0.01707
 126        7PX        -0.00016  -0.00010  -0.00026   0.00031  -0.00069
 127        7PY        -0.01738  -0.02031   0.15319   0.01078   0.05788
 128        7PZ        -0.05281  -0.03666   0.09569   0.09799  -0.02930
 129        8D 0       -0.00336  -0.01115   0.00619  -0.00262  -0.01820
 130        8D+1       -0.00002  -0.00001   0.00006  -0.00005  -0.00012
 131        8D-1       -0.00831   0.00276  -0.00658   0.00567   0.00596
 132        8D+2       -0.00034  -0.00994   0.01199  -0.00691  -0.01605
 133        8D-2       -0.00009  -0.00005   0.00018  -0.00007  -0.00016
 134        9D 0       -0.00547  -0.00074  -0.00781  -0.00681  -0.02266
 135        9D+1       -0.00006   0.00001  -0.00050  -0.00036  -0.00027
 136        9D-1       -0.01996  -0.01495   0.01565   0.01992   0.00962
 137        9D+2       -0.00019   0.00874  -0.00712  -0.00319  -0.01827
 138        9D-2       -0.00005  -0.00004   0.00023   0.00017  -0.00011
                          16        17        18        19        20
     Eigenvalues --     0.00747   0.00719   0.00707   0.00701   0.00600
   1 1   O  1S         -0.01319   0.00017   0.00000  -0.02435  -0.00005
   2        2S          0.02401  -0.00031   0.00000   0.05439   0.00042
   3        3S          0.03628  -0.00052   0.00000   0.07457   0.00024
   4        4S         -0.08153   0.00024   0.00000  -0.19459  -0.00110
   5        5S          0.11374   0.00327   0.00000  -0.11932  -0.00505
   6        6PX        -0.00010   0.21100   0.00000   0.00427  -0.45101
   7        6PY         0.00000   0.00000   0.00028   0.00000   0.00000
   8        6PZ        -0.05960  -0.00347   0.00000   0.14206   0.00394
   9        7PX         0.00011   0.09814   0.00000   0.00138  -0.16251
  10        7PY         0.00000   0.00000   0.00012   0.00000   0.00000
  11        7PZ         0.01335  -0.00111   0.00000   0.01961   0.00129
  12        8PX         0.00140  -0.38909   0.00000  -0.00804   0.54030
  13        8PY         0.00000   0.00000  -0.00244   0.00000   0.00000
  14        8PZ         0.20341   0.00773   0.00000  -0.26021  -0.00563
  15        9PX        -0.00003  -0.08169   0.00000  -0.00119   0.08357
  16        9PY         0.00000   0.00000  -0.00007   0.00000   0.00000
  17        9PZ         0.00044   0.00032   0.00000  -0.01058   0.00036
  18       10D 0        0.20605   0.00410   0.00000  -0.06872   0.00163
  19       10D+1        0.00279  -0.19782   0.00000  -0.00533  -0.09707
  20       10D-1        0.00000   0.00000  -0.00207   0.00000   0.00000
  21       10D+2        0.04526  -0.00382   0.00000   0.16677  -0.00089
  22       10D-2        0.00000   0.00000   0.19697   0.00000   0.00000
  23       11D 0        0.45254   0.00962   0.00000  -0.15542   0.00336
  24       11D+1        0.00642  -0.46936   0.00000  -0.01230  -0.18986
  25       11D-1        0.00000   0.00000  -0.00467   0.00000   0.00000
  26       11D+2        0.09066  -0.00914   0.00000   0.39418  -0.00173
  27       11D-2        0.00000   0.00000   0.43382   0.00000   0.00000
  28       12D 0        0.05838  -0.00043   0.00000   0.04680   0.00157
  29       12D+1        0.00061  -0.00484   0.00000  -0.00022  -0.07185
  30       12D-1        0.00000   0.00000   0.00021   0.00000   0.00000
  31       12D+2        0.01619  -0.00138   0.00000   0.10267  -0.00076
  32       12D-2        0.00000   0.00000   0.07610   0.00000   0.00000
  33       13F 0       -0.03839  -0.00125   0.00000   0.01596   0.00011
  34       13F+1       -0.00077   0.04898   0.00000   0.00129  -0.00697
  35       13F-1        0.00000   0.00000   0.00046   0.00000   0.00000
  36       13F+2       -0.00587   0.00097   0.00000  -0.02062  -0.00023
  37       13F-2        0.00000   0.00000  -0.02457   0.00000   0.00000
  38       13F+3       -0.00006  -0.00640   0.00000  -0.00025   0.01597
  39       13F-3        0.00000   0.00000  -0.00024   0.00000   0.00000
  40       14F 0       -0.07148  -0.00144   0.00000   0.01102  -0.00073
  41       14F+1       -0.00147   0.05428   0.00000   0.00171   0.02559
  42       14F-1        0.00000   0.00000   0.00080   0.00000   0.00000
  43       14F+2       -0.00694   0.00133   0.00000  -0.05044   0.00058
  44       14F-2        0.00000   0.00000  -0.04621   0.00000   0.00000
  45       14F+3       -0.00009   0.00815   0.00000  -0.00056  -0.01043
  46       14F-3        0.00000   0.00000  -0.00044   0.00000   0.00000
  47 2   C  1S         -0.05985  -0.00099   0.00000   0.09161   0.00022
  48        2S          0.15690   0.00245   0.00000  -0.28451  -0.00108
  49        3S          0.10991   0.00208   0.00000  -0.25491  -0.00079
  50        4S          0.11362   0.02623   0.00000  -0.60514  -0.01583
  51        5S         -0.01585   0.00273   0.00000  -0.07651  -0.00014
  52        6PX         0.00183   0.25615   0.00000   0.00365  -0.19770
  53        6PY         0.00000   0.00000   0.00117   0.00000   0.00000
  54        6PZ         0.24671  -0.00173   0.00000   0.05307   0.00212
  55        7PX        -0.00072   0.14278   0.00000   0.00258  -0.33480
  56        7PY         0.00000   0.00000  -0.00105   0.00000   0.00000
  57        7PZ        -0.25880  -0.00433   0.00000   0.21119   0.00272
  58        8PX        -0.00075  -0.13708   0.00000  -0.00135   0.09778
  59        8PY         0.00000   0.00000   0.00739   0.00000   0.00000
  60        8PZ        -0.08521  -0.00557   0.00000   0.29578   0.00125
  61        9PX        -0.00004   0.02421   0.00000   0.00045  -0.01884
  62        9PY         0.00000   0.00000   0.00057   0.00000   0.00000
  63        9PZ         0.00593  -0.00043   0.00000   0.02306   0.00003
  64       10D 0        0.21949  -0.00219   0.00000  -0.02814  -0.00250
  65       10D+1        0.00207   0.18780   0.00000   0.00042   0.20966
  66       10D-1        0.00000   0.00000  -0.00143   0.00000   0.00000
  67       10D+2        0.05819  -0.00165   0.00000   0.22281   0.00141
  68       10D-2        0.00000   0.00000   0.24578   0.00000   0.00000
  69       11D 0        0.15117  -0.00148   0.00000   0.03990  -0.00269
  70       11D+1        0.00118   0.03255   0.00000  -0.00174   0.30914
  71       11D-1        0.00000   0.00000  -0.00240   0.00000   0.00000
  72       11D+2        0.02303  -0.00696   0.00000   0.42185   0.00415
  73       11D-2        0.00000   0.00000   0.31158   0.00000   0.00000
  74       12D 0       -0.03285  -0.00291   0.00000   0.08298   0.00547
  75       12D+1        0.00006   0.00614   0.00000   0.00075  -0.04932
  76       12D-1        0.00000   0.00000  -0.00086   0.00000   0.00000
  77       12D+2       -0.01705  -0.00266   0.00000   0.07325   0.00300
  78       12D-2        0.00000   0.00000   0.00976   0.00000   0.00000
  79       13F 0        0.05543  -0.00009   0.00000  -0.05231  -0.00008
  80       13F+1        0.00114   0.04186   0.00000  -0.00049  -0.00540
  81       13F-1        0.00000   0.00000  -0.00038   0.00000   0.00000
  82       13F+2        0.01769   0.00052   0.00000   0.00108  -0.00036
  83       13F-2        0.00000   0.00000   0.00814   0.00000   0.00000
  84       13F+3        0.00017  -0.00090   0.00000   0.00029   0.04767
  85       13F-3        0.00000   0.00000   0.00036   0.00000   0.00000
  86       14F 0       -0.04506   0.00310   0.00000  -0.08942  -0.00198
  87       14F+1       -0.00045  -0.06459   0.00000  -0.00077   0.03627
  88       14F-1        0.00000   0.00000   0.00114   0.00000   0.00000
  89       14F+2       -0.02484   0.00187   0.00000  -0.11013  -0.00083
  90       14F-2        0.00000   0.00000  -0.00957   0.00000   0.00000
  91       14F+3       -0.00025  -0.05938   0.00000  -0.00108   0.03753
  92       14F-3        0.00000   0.00000  -0.00021   0.00000   0.00000
  93 3   H  1S         -0.03469   0.00108   0.00103  -0.09551  -0.00124
  94        2S         -0.08775  -0.00987  -0.00169   0.47177   0.00538
  95        3S         -0.06417  -0.01238  -0.00902   0.42130   0.00933
  96        4S          0.00031  -0.00040  -0.00041   0.01414   0.00005
  97        5PX        -0.00019  -0.01872   0.07001   0.00009  -0.06433
  98        5PY         0.00046  -0.00020  -0.00064   0.03253   0.00074
  99        5PZ        -0.05630   0.00084   0.00001  -0.04880   0.00011
 100        6PX        -0.00061  -0.14805   0.11732  -0.00203  -0.04293
 101        6PY         0.05694   0.00190  -0.00063  -0.07282   0.00005
 102        6PZ        -0.14792  -0.00003   0.00057   0.00655   0.00133
 103        7PX        -0.00012  -0.05077   0.00413  -0.00068  -0.00143
 104        7PY         0.01904   0.00136   0.00144  -0.05195   0.00057
 105        7PZ        -0.07246  -0.00285  -0.00066   0.06613   0.00435
 106        8D 0       -0.01340   0.00029  -0.00011  -0.01564   0.00021
 107        8D+1        0.00008  -0.00361   0.02587  -0.00002  -0.01141
 108        8D-1        0.02843  -0.00033  -0.00010   0.01442  -0.00002
 109        8D+2       -0.00068   0.00002  -0.00031   0.01049   0.00045
 110        8D-2        0.00014   0.01659  -0.03827  -0.00002   0.03305
 111        9D 0       -0.02207   0.00067   0.00012  -0.01330  -0.00040
 112        9D+1       -0.00025  -0.05652   0.00200  -0.00092   0.03463
 113        9D-1        0.02788   0.00019  -0.00049  -0.00927  -0.00027
 114        9D+2        0.02222  -0.00055  -0.00027   0.01927   0.00067
 115        9D-2       -0.00001   0.02882  -0.00613   0.00044  -0.01350
 116 4   H  1S         -0.03469   0.00108  -0.00103  -0.09551  -0.00124
 117        2S         -0.08775  -0.00987   0.00169   0.47177   0.00538
 118        3S         -0.06417  -0.01238   0.00902   0.42130   0.00933
 119        4S          0.00031  -0.00040   0.00041   0.01414   0.00005
 120        5PX        -0.00019  -0.01872  -0.07001   0.00009  -0.06433
 121        5PY        -0.00046   0.00020  -0.00064  -0.03253  -0.00074
 122        5PZ        -0.05630   0.00084  -0.00001  -0.04880   0.00011
 123        6PX        -0.00061  -0.14805  -0.11732  -0.00203  -0.04293
 124        6PY        -0.05694  -0.00190  -0.00063   0.07282  -0.00005
 125        6PZ        -0.14792  -0.00003  -0.00057   0.00655   0.00133
 126        7PX        -0.00012  -0.05077  -0.00413  -0.00068  -0.00143
 127        7PY        -0.01904  -0.00136   0.00144   0.05195  -0.00057
 128        7PZ        -0.07246  -0.00285   0.00066   0.06613   0.00435
 129        8D 0       -0.01340   0.00029   0.00011  -0.01564   0.00021
 130        8D+1        0.00008  -0.00361  -0.02587  -0.00002  -0.01141
 131        8D-1       -0.02843   0.00033  -0.00010  -0.01442   0.00002
 132        8D+2       -0.00068   0.00002   0.00031   0.01049   0.00045
 133        8D-2       -0.00014  -0.01659  -0.03827   0.00002  -0.03305
 134        9D 0       -0.02207   0.00067  -0.00012  -0.01330  -0.00040
 135        9D+1       -0.00025  -0.05652  -0.00200  -0.00092   0.03463
 136        9D-1       -0.02788  -0.00019  -0.00049   0.00927   0.00027
 137        9D+2        0.02222  -0.00055   0.00027   0.01927   0.00067
 138        9D-2        0.00001  -0.02882  -0.00613  -0.00044   0.01350
                          21        22        23        24        25
     Eigenvalues --     0.00519   0.00484   0.00337   0.00283   0.00252
   1 1   O  1S         -0.00848   0.00000   0.00000   0.11748  -0.00019
   2        2S          0.02002   0.00000   0.00000  -0.33077   0.00048
   3        3S          0.00563   0.00000   0.00000  -0.37463   0.00071
   4        4S          0.38781   0.00000   0.00000  -0.28432  -0.00127
   5        5S          0.12919   0.00000   0.00000  -0.50672   0.00307
   6        6PX        -0.00233   0.00000   0.00000   0.00227  -0.14870
   7        6PY         0.00000   0.00001   0.19042   0.00000   0.00000
   8        6PZ        -0.20199   0.00000   0.00000   0.36597   0.00207
   9        7PX        -0.00045   0.00000   0.00000   0.00101   0.03675
  10        7PY         0.00000  -0.00003  -0.04322   0.00000   0.00000
  11        7PZ        -0.04821   0.00000   0.00000   0.08600  -0.00106
  12        8PX         0.00176   0.00000   0.00000  -0.00019  -0.41023
  13        8PY         0.00000  -0.00058  -0.71373   0.00000   0.00000
  14        8PZ         0.01449   0.00000   0.00000  -0.24620   0.00356
  15        9PX         0.00010   0.00000   0.00000   0.00066  -0.06556
  16        9PY         0.00000  -0.00001  -0.04418   0.00000   0.00000
  17        9PZ        -0.01819   0.00000   0.00000   0.06492  -0.00014
  18       10D 0        0.06006   0.00000   0.00000  -0.17058  -0.00420
  19       10D+1       -0.00141   0.00000   0.00000  -0.00313   0.33037
  20       10D-1        0.00000  -0.00110   0.30128   0.00000   0.00000
  21       10D+2        0.26021   0.00000   0.00000   0.08073   0.00375
  22       10D-2        0.00000   0.27399   0.00127   0.00000   0.00000
  23       11D 0        0.13372   0.00000   0.00000  -0.34731  -0.00710
  24       11D+1       -0.00262   0.00000   0.00000  -0.00559   0.55293
  25       11D-1        0.00000  -0.00188   0.46191   0.00000   0.00000
  26       11D+2        0.50814   0.00000   0.00000   0.06106   0.00622
  27       11D-2        0.00000   0.51417   0.00157   0.00000   0.00000
  28       12D 0        0.02219   0.00000   0.00000   0.03855  -0.00257
  29       12D+1       -0.00055   0.00000   0.00000   0.00092   0.18817
  30       12D-1        0.00000  -0.00051   0.17751   0.00000   0.00000
  31       12D+2        0.07461   0.00000   0.00000  -0.07674   0.00203
  32       12D-2        0.00000   0.09814  -0.00005   0.00000   0.00000
  33       13F 0       -0.01204   0.00000   0.00000   0.00778  -0.00049
  34       13F+1       -0.00008   0.00000   0.00000   0.00018   0.03195
  35       13F-1        0.00000  -0.00014   0.00452   0.00000   0.00000
  36       13F+2       -0.01253   0.00000   0.00000  -0.00055   0.00060
  37       13F-2        0.00000  -0.00021  -0.00009   0.00000   0.00000
  38       13F+3       -0.00013   0.00000   0.00000  -0.00007  -0.01051
  39       13F-3        0.00000   0.00001  -0.00139   0.00000   0.00000
  40       14F 0       -0.01119   0.00000   0.00000   0.02254   0.00037
  41       14F+1        0.00023   0.00000   0.00000  -0.00008  -0.02263
  42       14F-1        0.00000   0.00001  -0.01984   0.00000   0.00000
  43       14F+2       -0.03482   0.00000   0.00000   0.03881  -0.00024
  44       14F-2        0.00000  -0.02467   0.00033   0.00000   0.00000
  45       14F+3       -0.00023   0.00000   0.00000   0.00052  -0.01599
  46       14F-3        0.00000  -0.00033  -0.00237   0.00000   0.00000
  47 2   C  1S         -0.03662   0.00000   0.00000  -0.04234   0.00071
  48        2S          0.12387   0.00000   0.00000   0.16589  -0.00241
  49        3S          0.11657   0.00000   0.00000   0.15669  -0.00312
  50        4S         -0.23657   0.00000   0.00000  -0.21637   0.01530
  51        5S         -0.07835   0.00000   0.00000   0.05226   0.00141
  52        6PX        -0.00142   0.00000   0.00000   0.00264   0.51113
  53        6PY         0.00000  -0.00032   0.12359   0.00000   0.00000
  54        6PZ        -0.15061   0.00000   0.00000   0.23760  -0.00408
  55        7PX        -0.00224   0.00000   0.00000   0.00155   0.40950
  56        7PY         0.00000   0.00147   0.30887   0.00000   0.00000
  57        7PZ        -0.26338   0.00000   0.00000   0.16516  -0.00331
  58        8PX        -0.00026   0.00000   0.00000   0.00501   0.14318
  59        8PY         0.00000   0.00249   1.48510   0.00000   0.00000
  60        8PZ        -0.09910   0.00000   0.00000   0.71115  -0.00603
  61        9PX         0.00002   0.00000   0.00000   0.00043   0.01430
  62        9PY         0.00000  -0.00021   0.02576   0.00000   0.00000
  63        9PZ        -0.00362   0.00000   0.00000   0.03443  -0.00019
  64       10D 0       -0.08335   0.00000   0.00000   0.28357  -0.00263
  65       10D+1       -0.00002   0.00000   0.00000   0.00449   0.18112
  66       10D-1        0.00000   0.00101   0.09377   0.00000   0.00000
  67       10D+2       -0.11496   0.00000   0.00000  -0.05277   0.00008
  68       10D-2        0.00000  -0.20584   0.00198   0.00000   0.00000
  69       11D 0       -0.21706   0.00000   0.00000   0.52524  -0.00524
  70       11D+1       -0.00137   0.00000   0.00000   0.00784   0.37503
  71       11D-1        0.00000   0.00271   0.28962   0.00000   0.00000
  72       11D+2       -0.24511   0.00000   0.00000  -0.10690   0.00086
  73       11D-2        0.00000  -0.25919   0.00411   0.00000   0.00000
  74       12D 0       -0.00852   0.00000   0.00000   0.24436  -0.00180
  75       12D+1       -0.00085   0.00000   0.00000   0.00156   0.03748
  76       12D-1        0.00000  -0.00149  -0.15842   0.00000   0.00000
  77       12D+2        0.03584   0.00000   0.00000   0.15753  -0.00117
  78       12D-2        0.00000   0.04353   0.00164   0.00000   0.00000
  79       13F 0        0.06628   0.00000   0.00000  -0.03648  -0.00022
  80       13F+1       -0.00004   0.00000   0.00000  -0.00099  -0.00661
  81       13F-1        0.00000  -0.00154  -0.22527   0.00000   0.00000
  82       13F+2        0.09262   0.00000   0.00000   0.07314  -0.00078
  83       13F-2        0.00000   0.10279  -0.00227   0.00000   0.00000
  84       13F+3        0.00047   0.00000   0.00000   0.00070   0.03781
  85       13F-3        0.00000   0.00056  -0.00268   0.00000   0.00000
  86       14F 0        0.05352   0.00000   0.00000   0.18186  -0.00271
  87       14F+1       -0.00043   0.00000   0.00000   0.00172   0.09173
  88       14F-1        0.00000  -0.00042   0.01556   0.00000   0.00000
  89       14F+2        0.07738   0.00000   0.00000   0.10930   0.00045
  90       14F-2        0.00000   0.00777   0.00207   0.00000   0.00000
  91       14F+3        0.00009   0.00000   0.00000   0.00058   0.00339
  92       14F-3        0.00000   0.00022   0.00415   0.00000   0.00000
  93 3   H  1S          0.16228  -0.00268  -0.29623   0.24122  -0.00298
  94        2S         -0.23941   0.00025  -0.13639  -0.08875  -0.00176
  95        3S         -0.10431   0.00029  -1.10254   0.30016  -0.00527
  96        4S          0.00664   0.00023  -0.01470   0.00178  -0.00019
  97        5PX        -0.00005  -0.09224   0.00124  -0.00148  -0.09029
  98        5PY        -0.01584   0.00090   0.10393  -0.10283   0.00096
  99        5PZ         0.06574   0.00004   0.01659  -0.04074   0.00054
 100        6PX         0.00011  -0.20230   0.00329  -0.00224  -0.23601
 101        6PY         0.07107   0.00103   0.15187  -0.07271   0.00123
 102        6PZ         0.03455   0.00055   0.06719  -0.12250   0.00148
 103        7PX        -0.00027  -0.06549  -0.00071  -0.00035  -0.07154
 104        7PY         0.03834   0.00067   0.33030   0.01809   0.00062
 105        7PZ         0.00357   0.00037  -0.17392   0.10690  -0.00123
 106        8D 0        0.02113   0.00008   0.00688  -0.03424   0.00033
 107        8D+1       -0.00001  -0.02961   0.00026  -0.00020  -0.02035
 108        8D-1       -0.02281   0.00017   0.01849   0.00866  -0.00012
 109        8D+2       -0.00287   0.00033   0.02647  -0.04755   0.00050
 110        8D-2       -0.00002   0.04193  -0.00055   0.00082   0.04500
 111        9D 0        0.00161  -0.00002   0.01460   0.02264  -0.00028
 112        9D+1        0.00002   0.00116  -0.00044   0.00005  -0.01709
 113        9D-1        0.00504   0.00022   0.00350   0.02369  -0.00040
 114        9D+2       -0.01312   0.00046   0.03146  -0.01371   0.00019
 115        9D-2        0.00002   0.02217  -0.00056   0.00024   0.03787
 116 4   H  1S          0.16228   0.00268   0.29623   0.24122  -0.00298
 117        2S         -0.23941  -0.00025   0.13639  -0.08875  -0.00176
 118        3S         -0.10431  -0.00029   1.10254   0.30016  -0.00527
 119        4S          0.00664  -0.00023   0.01470   0.00178  -0.00019
 120        5PX        -0.00005   0.09224  -0.00124  -0.00148  -0.09029
 121        5PY         0.01584   0.00090   0.10393   0.10283  -0.00096
 122        5PZ         0.06574  -0.00004  -0.01659  -0.04074   0.00054
 123        6PX         0.00011   0.20230  -0.00329  -0.00224  -0.23601
 124        6PY        -0.07107   0.00103   0.15187   0.07271  -0.00123
 125        6PZ         0.03455  -0.00055  -0.06719  -0.12250   0.00148
 126        7PX        -0.00027   0.06549   0.00071  -0.00035  -0.07154
 127        7PY        -0.03834   0.00067   0.33030  -0.01809  -0.00062
 128        7PZ         0.00357  -0.00037   0.17392   0.10690  -0.00123
 129        8D 0        0.02113  -0.00008  -0.00688  -0.03424   0.00033
 130        8D+1       -0.00001   0.02961  -0.00026  -0.00020  -0.02035
 131        8D-1        0.02281   0.00017   0.01849  -0.00866   0.00012
 132        8D+2       -0.00287  -0.00033  -0.02647  -0.04755   0.00050
 133        8D-2        0.00002   0.04193  -0.00055  -0.00082  -0.04500
 134        9D 0        0.00161   0.00002  -0.01460   0.02264  -0.00028
 135        9D+1        0.00002  -0.00116   0.00044   0.00005  -0.01709
 136        9D-1       -0.00504   0.00022   0.00350  -0.02369   0.00040
 137        9D+2       -0.01312  -0.00046  -0.03146  -0.01371   0.00019
 138        9D-2       -0.00002   0.02217  -0.00056  -0.00024  -0.03787
                          26        27        28        29        30
     Eigenvalues --     0.00211   0.00163   0.00139   0.00132   0.00107
   1 1   O  1S          0.00000   0.00958   0.04965   0.00000   0.00000
   2        2S          0.00000  -0.03181  -0.28098   0.00000   0.00000
   3        3S          0.00000  -0.02879  -0.27470   0.00000   0.00000
   4        4S          0.00000  -0.04053   0.19231   0.00000   0.00000
   5        5S          0.00000   0.15808  -0.47782   0.00000   0.00000
   6        6PX         0.00000   0.00632  -0.00252   0.00000   0.00000
   7        6PY        -0.29442   0.00000   0.00000  -0.45567  -0.00663
   8        6PZ         0.00000   0.23397   0.14036   0.00000   0.00000
   9        7PX         0.00000  -0.00403   0.00379   0.00000   0.00000
  10        7PY         0.13927   0.00000   0.00000   0.48112   0.00873
  11        7PZ         0.00000  -0.16840   0.12913   0.00000   0.00000
  12        8PX         0.00000  -0.00116  -0.00630   0.00000   0.00000
  13        8PY        -0.23113   0.00000   0.00000  -0.09513   0.00521
  14        8PZ         0.00000  -0.26349  -1.02272   0.00000   0.00000
  15        9PX         0.00000   0.00096   0.00014   0.00000   0.00000
  16        9PY        -0.04595   0.00000   0.00000  -0.19354  -0.00169
  17        9PZ         0.00000  -0.01772   0.05473   0.00000   0.00000
  18       10D 0        0.00000   0.19060   0.39828   0.00000   0.00000
  19       10D+1        0.00000  -0.00087   0.00660   0.00000   0.00000
  20       10D-1        0.05436   0.00000   0.00000   0.16453   0.00169
  21       10D+2        0.00000   0.25951  -0.08921   0.00000   0.00000
  22       10D-2        0.00002   0.00000   0.00000   0.00273  -0.34492
  23       11D 0        0.00000   0.17880   0.35261   0.00000   0.00000
  24       11D+1        0.00000  -0.00147   0.00666   0.00000   0.00000
  25       11D-1        0.21419   0.00000   0.00000   0.19024   0.00040
  26       11D+2        0.00000   0.24682  -0.16144   0.00000   0.00000
  27       11D-2        0.00131   0.00000   0.00000   0.00289  -0.21631
  28       12D 0        0.00000   0.04471   0.22603   0.00000   0.00000
  29       12D+1        0.00000  -0.00109   0.00441   0.00000   0.00000
  30       12D-1        0.14204   0.00000   0.00000   0.09815  -0.00153
  31       12D+2        0.00000  -0.02918  -0.06607   0.00000   0.00000
  32       12D-2        0.00010   0.00000   0.00000   0.00189   0.08905
  33       13F 0        0.00000   0.07523   0.13939   0.00000   0.00000
  34       13F+1        0.00000   0.00010   0.00372   0.00000   0.00000
  35       13F-1       -0.00425   0.00000   0.00000   0.15620   0.00272
  36       13F+2        0.00000   0.06412  -0.05168   0.00000   0.00000
  37       13F-2       -0.00034   0.00000   0.00000   0.00296  -0.21149
  38       13F+3        0.00000   0.00048  -0.00050   0.00000   0.00000
  39       13F-3        0.01245   0.00000   0.00000  -0.01153  -0.00218
  40       14F 0        0.00000   0.01717   0.05955   0.00000   0.00000
  41       14F+1        0.00000   0.00005   0.00116   0.00000   0.00000
  42       14F-1       -0.05161   0.00000   0.00000   0.04676   0.00175
  43       14F+2        0.00000   0.04731  -0.01378   0.00000   0.00000
  44       14F-2       -0.00040   0.00000   0.00000   0.00079  -0.13908
  45       14F+3        0.00000   0.00052  -0.00013   0.00000   0.00000
  46       14F-3       -0.01715   0.00000   0.00000  -0.01265  -0.00151
  47 2   C  1S          0.00000   0.07231   0.15281   0.00000   0.00000
  48        2S          0.00000  -0.27897  -0.50087   0.00000   0.00000
  49        3S          0.00000  -0.36213  -0.68353   0.00000   0.00000
  50        4S          0.00000   1.27704  -1.28964   0.00000   0.00000
  51        5S          0.00000   0.05645  -0.08096   0.00000   0.00000
  52        6PX         0.00000  -0.00493  -0.00300   0.00000   0.00000
  53        6PY         0.30276   0.00000   0.00000   0.15172  -0.00040
  54        6PZ         0.00000  -0.25278  -0.49608   0.00000   0.00000
  55        7PX         0.00000  -0.00174   0.00021   0.00000   0.00000
  56        7PY         0.32509   0.00000   0.00000   0.39849   0.00125
  57        7PZ         0.00000  -0.07540   0.12345   0.00000   0.00000
  58        8PX         0.00000   0.00282   0.00064   0.00000   0.00000
  59        8PY         1.42353   0.00000   0.00000  -1.24156  -0.01383
  60        8PZ         0.00000  -0.30873   0.86905   0.00000   0.00000
  61        9PX         0.00000  -0.00066   0.00027   0.00000   0.00000
  62        9PY         0.04586   0.00000   0.00000   0.03503  -0.00040
  63        9PZ         0.00000  -0.01830  -0.00698   0.00000   0.00000
  64       10D 0        0.00000   0.11497   0.12180   0.00000   0.00000
  65       10D+1        0.00000   0.00186   0.00063   0.00000   0.00000
  66       10D-1       -0.02973   0.00000   0.00000   0.53803  -0.00290
  67       10D+2        0.00000  -0.30263   0.22716   0.00000   0.00000
  68       10D-2        0.00086   0.00000   0.00000   0.00227   0.26204
  69       11D 0        0.00000   0.16548   0.25358   0.00000   0.00000
  70       11D+1        0.00000   0.00215   0.00287   0.00000   0.00000
  71       11D-1        0.08322   0.00000   0.00000  -0.03026  -0.00545
  72       11D+2        0.00000  -0.48040   0.26449   0.00000   0.00000
  73       11D-2        0.00182   0.00000   0.00000  -0.00116   0.36015
  74       12D 0        0.00000   0.04681   0.48859   0.00000   0.00000
  75       12D+1        0.00000  -0.00003   0.00333   0.00000   0.00000
  76       12D-1       -0.41823   0.00000   0.00000   0.10470  -0.00316
  77       12D+2        0.00000  -0.04654   0.31145   0.00000   0.00000
  78       12D-2       -0.00066   0.00000   0.00000  -0.00198   0.00763
  79       13F 0        0.00000  -0.12451   0.02046   0.00000   0.00000
  80       13F+1        0.00000  -0.00035  -0.00010   0.00000   0.00000
  81       13F-1        0.24861   0.00000   0.00000   0.07197  -0.00557
  82       13F+2        0.00000  -0.19033   0.09765   0.00000   0.00000
  83       13F-2        0.00146   0.00000   0.00000   0.00074   0.38893
  84       13F+3        0.00000  -0.00107  -0.00005   0.00000   0.00000
  85       13F-3        0.13630   0.00000   0.00000  -0.10623   0.00138
  86       14F 0        0.00000  -0.07477   0.10881   0.00000   0.00000
  87       14F+1        0.00000  -0.00081   0.00090   0.00000   0.00000
  88       14F-1        0.15055   0.00000   0.00000   0.05990  -0.00450
  89       14F+2        0.00000  -0.07593   0.06599   0.00000   0.00000
  90       14F-2        0.00317   0.00000   0.00000  -0.00136   0.14914
  91       14F+3        0.00000  -0.00139   0.00022   0.00000   0.00000
  92       14F-3        0.02518   0.00000   0.00000  -0.04293   0.00090
  93 3   H  1S         -0.38155  -0.26609   0.22200   0.30381  -0.00069
  94        2S         -0.25092  -0.27151   0.28019  -0.12795  -0.00202
  95        3S         -1.13099  -0.29741   0.79069   0.85946   0.01145
  96        4S         -0.01951  -0.01031   0.01050  -0.00612   0.00094
  97        5PX         0.00016  -0.00002   0.00022   0.00000  -0.11331
  98        5PY         0.02218   0.02017  -0.05300   0.03143   0.00024
  99        5PZ        -0.15934   0.02023  -0.00694   0.03028   0.00165
 100        6PX         0.00124   0.00029   0.00059  -0.00051  -0.28417
 101        6PY        -0.02705   0.05536  -0.09968   0.29977   0.00173
 102        6PZ        -0.30747   0.00362   0.10128  -0.07609   0.00007
 103        7PX         0.00005   0.00027   0.00104   0.00091  -0.05429
 104        7PY         0.29620   0.09624   0.01690  -0.12745  -0.00128
 105        7PZ        -0.19668  -0.03950   0.36961   0.06779   0.00218
 106        8D 0       -0.03272   0.01878  -0.02239   0.03481  -0.00008
 107        8D+1        0.00016  -0.00009   0.00019  -0.00001  -0.00488
 108        8D-1        0.05149   0.01083  -0.01510  -0.02334  -0.00025
 109        8D+2        0.00650   0.00152  -0.03164   0.01322   0.00008
 110        8D-2       -0.00028   0.00038  -0.00007  -0.00018   0.02740
 111        9D 0       -0.03049  -0.01459   0.02435   0.01288   0.00007
 112        9D+1       -0.00045  -0.00001  -0.00058   0.00029  -0.02213
 113        9D-1        0.03615  -0.01384  -0.03668   0.02796   0.00032
 114        9D+2       -0.00175  -0.00336   0.00940   0.04842   0.00024
 115        9D-2       -0.00039  -0.00063  -0.00024  -0.00008   0.04592
 116 4   H  1S          0.38155  -0.26609   0.22200  -0.30381   0.00069
 117        2S          0.25092  -0.27151   0.28019   0.12795   0.00202
 118        3S          1.13099  -0.29741   0.79069  -0.85946  -0.01145
 119        4S          0.01951  -0.01031   0.01050   0.00612  -0.00094
 120        5PX        -0.00016  -0.00002   0.00022   0.00000   0.11331
 121        5PY         0.02218  -0.02017   0.05300   0.03143   0.00024
 122        5PZ         0.15934   0.02023  -0.00694  -0.03028  -0.00165
 123        6PX        -0.00124   0.00029   0.00059   0.00051   0.28417
 124        6PY        -0.02705  -0.05536   0.09968   0.29977   0.00173
 125        6PZ         0.30747   0.00362   0.10128   0.07609  -0.00007
 126        7PX        -0.00005   0.00027   0.00104  -0.00091   0.05429
 127        7PY         0.29620  -0.09624  -0.01690  -0.12745  -0.00128
 128        7PZ         0.19668  -0.03950   0.36961  -0.06779  -0.00218
 129        8D 0        0.03272   0.01878  -0.02239  -0.03481   0.00008
 130        8D+1       -0.00016  -0.00009   0.00019   0.00001   0.00488
 131        8D-1        0.05149  -0.01083   0.01510  -0.02334  -0.00025
 132        8D+2       -0.00650   0.00152  -0.03164  -0.01322  -0.00008
 133        8D-2       -0.00028  -0.00038   0.00007  -0.00018   0.02740
 134        9D 0        0.03049  -0.01459   0.02435  -0.01288  -0.00007
 135        9D+1        0.00045  -0.00001  -0.00058  -0.00029   0.02213
 136        9D-1        0.03615   0.01384   0.03668   0.02796   0.00032
 137        9D+2        0.00175  -0.00336   0.00940  -0.04842  -0.00024
 138        9D-2       -0.00039   0.00063   0.00024  -0.00008   0.04592
                          31        32        33        34        35
     Eigenvalues --     0.00105   0.00087   0.00086   0.00080   0.00065
   1 1   O  1S          0.00063  -0.00423   0.04790   0.00000   0.26106
   2        2S         -0.00146  -0.00087   0.00096   0.00000   0.21016
   3        3S         -0.00230   0.00995  -0.11794   0.00000  -0.69750
   4        4S          0.00142  -0.01419   0.11106   0.00000  -0.13900
   5        5S          0.00058  -0.01997   0.13647   0.00000  -0.63626
   6        6PX         0.73057  -0.00429  -0.00285   0.00000  -0.00627
   7        6PY         0.00000   0.00000   0.00000   0.70314   0.00000
   8        6PZ        -0.00549  -0.02233   0.23828   0.00000  -0.73248
   9        7PX        -0.63653  -0.04489  -0.00098   0.00000   0.00987
  10        7PY         0.00000   0.00000   0.00000  -1.11087   0.00000
  11        7PZ         0.00718   0.02204  -0.21374   0.00000   1.21510
  12        8PX        -0.17170   0.43836   0.03842   0.00000  -0.00777
  13        8PY         0.00000   0.00000   0.00000  -0.44195   0.00000
  14        8PZ        -0.00090  -0.02051   0.18576   0.00000  -0.62439
  15        9PX         0.10881   0.03669   0.00233   0.00000  -0.00126
  16        9PY         0.00000   0.00000   0.00000   0.17194   0.00000
  17        9PZ        -0.00111  -0.00129   0.02764   0.00000  -0.13019
  18       10D 0       -0.00146   0.00797  -0.04748   0.00000  -0.10813
  19       10D+1        0.13776  -0.24518  -0.02281   0.00000  -0.00224
  20       10D-1        0.00000   0.00000   0.00000   0.21609   0.00000
  21       10D+2       -0.00135  -0.00416   0.00814   0.00000   0.15721
  22       10D-2        0.00000   0.00000   0.00000  -0.00058   0.00000
  23       11D 0       -0.00099   0.00857  -0.07200   0.00000  -0.05942
[...]
   6        6PX         0.01439   0.00043   0.00000   0.00000   0.00005
   7        6PY         0.00000   0.00000   0.00253  -0.00412   0.00000
   8        6PZ         0.00004   0.02305   0.00000   0.00000  -0.01668
   9        7PX        -0.06120  -0.00253   0.00000   0.00000  -0.00062
  10        7PY         0.00000   0.00000   0.02200  -0.04169   0.00000
  11        7PZ         0.00017  -0.13259   0.00000   0.00000   0.03533
  12        8PX         0.42327   0.01719   0.00000   0.00000   0.00791
  13        8PY         0.00000   0.00000   3.17093  -2.41412   0.00000
  14        8PZ         0.00475   3.67010   0.00000   0.00000   0.84511
  15        9PX        -0.68063   0.04717   0.00000   0.00000   0.00490
  16        9PY         0.00000   0.00000  -0.89804  -0.09942   0.00000
  17        9PZ         0.02441   5.52283   0.00000   0.00000  -0.36603
  18       10D 0        0.00002  -0.02896   0.00000   0.00000   0.00936
  19       10D+1        0.00557  -0.00079   0.00000   0.00000  -0.00001
  20       10D-1        0.00000   0.00000   0.01063  -0.00786   0.00000
  21       10D+2       -0.00033   0.03475   0.00000   0.00000   0.00760
  22       10D-2        0.00000   0.00000   0.00022  -0.00022   0.00000
  23       11D 0        0.00190   0.04943   0.00000   0.00000  -0.05353
  24       11D+1       -0.06152   0.00258   0.00000   0.00000  -0.00010
  25       11D-1        0.00000   0.00000  -0.07018   0.10351   0.00000
  26       11D+2        0.00078  -0.13139   0.00000   0.00000  -0.02801
  27       11D-2        0.00000   0.00000  -0.00133   0.00152   0.00000
  28       12D 0        0.00621  -1.74812   0.00000   0.00000  -0.45449
  29       12D+1       -0.08359  -0.01691   0.00000   0.00000  -0.00488
  30       12D-1        0.00000   0.00000  -1.48928   1.06548   0.00000
  31       12D+2       -0.00976   0.29002   0.00000   0.00000  -0.02289
  32       12D-2        0.00000   0.00000  -0.01557   0.00897   0.00000
  33       13F 0       -0.00007  -0.00565   0.00000   0.00000  -0.00803
  34       13F+1       -0.00692   0.00031   0.00000   0.00000   0.00001
  35       13F-1        0.00000   0.00000  -0.04158   0.02349   0.00000
  36       13F+2       -0.00060   0.00447   0.00000   0.00000  -0.00367
  37       13F-2        0.00000   0.00000  -0.00108   0.00050   0.00000
  38       13F+3        0.01957  -0.00011   0.00000   0.00000  -0.00015
  39       13F-3        0.00000   0.00000   0.01290  -0.01146   0.00000
  40       14F 0       -0.00191   0.13271   0.00000   0.00000   0.08104
  41       14F+1        0.07967   0.00074   0.00000   0.00000   0.00095
  42       14F-1        0.00000   0.00000   0.16368  -0.12521   0.00000
  43       14F+2        0.00269  -0.01559   0.00000   0.00000   0.00330
  44       14F-2        0.00000   0.00000   0.00401  -0.00238   0.00000
  45       14F+3       -0.03050   0.00038   0.00000   0.00000   0.00041
  46       14F-3        0.00000   0.00000  -0.02916   0.01346   0.00000
  47 2   C  1S         -0.00140   0.07965   0.00000   0.00000   0.20218
  48        2S         -0.00889   0.44173   0.00000   0.00000   1.21950
  49        3S         -0.00163  -0.07804   0.00000   0.00000  -0.00170
  50        4S          0.16203   5.72197   0.00000   0.00000  25.32376
  51        5S          0.05954   8.04545   0.00000   0.00000  10.39226
  52        6PX         0.00461  -0.00031   0.00000   0.00000   0.00022
  53        6PY         0.00000   0.00000   0.02911   0.00595   0.00000
  54        6PZ        -0.00001   0.00370   0.00000   0.00000   0.03671
  55        7PX         0.01476   0.00922   0.00000   0.00000   0.00151
  56        7PY         0.00000   0.00000  -1.83722  -1.40685   0.00000
  57        7PZ        -0.00399   0.69376   0.00000   0.00000  -1.05097
  58        8PX         3.93475   0.00651   0.00000   0.00000  -0.02207
  59        8PY         0.00000   0.00000 -16.52625  -8.35869   0.00000
  60        8PZ         0.04003  -2.67237   0.00000   0.00000  -9.47562
  61        9PX         2.26329  -0.01211   0.00000   0.00000  -0.00820
  62        9PY         0.00000   0.00000   1.61521  -5.33249   0.00000
  63        9PZ        -0.00699  -2.28879   0.00000   0.00000  -2.06931
  64       10D 0       -0.00080  -0.05617   0.00000   0.00000   0.02157
  65       10D+1        0.01535  -0.00080   0.00000   0.00000   0.00047
  66       10D-1        0.00000   0.00000   0.01506   0.02100   0.00000
  67       10D+2        0.00125   0.02182   0.00000   0.00000  -0.05301
  68       10D-2        0.00000   0.00000  -0.00003  -0.00027   0.00000
  69       11D 0        0.00472   0.71591   0.00000   0.00000   0.14976
  70       11D+1       -0.36907   0.01483   0.00000   0.00000   0.00372
  71       11D-1        0.00000   0.00000   1.41800   1.25274   0.00000
  72       11D+2       -0.01422  -0.27627   0.00000   0.00000  -0.92303
  73       11D-2        0.00000   0.00000   0.00272   0.00106   0.00000
  74       12D 0        0.04738   1.38792   0.00000   0.00000   1.80677
  75       12D+1       -1.38858  -0.00787   0.00000   0.00000   0.00226
  76       12D-1        0.00000   0.00000   2.49258   2.38724   0.00000
  77       12D+2        0.02048   0.29329   0.00000   0.00000  -0.23667
  78       12D-2        0.00000   0.00000   0.00780   0.00747   0.00000
  79       13F 0       -0.00131   0.01889   0.00000   0.00000   0.02561
  80       13F+1       -0.03856  -0.00025   0.00000   0.00000   0.00012
  81       13F-1        0.00000   0.00000   0.04939  -0.01972   0.00000
  82       13F+2       -0.00149   0.01037   0.00000   0.00000   0.04536
  83       13F-2        0.00000   0.00000   0.00034  -0.00020   0.00000
  84       13F+3        0.10499  -0.00009   0.00000   0.00000  -0.00037
  85       13F-3        0.00000   0.00000   0.07497   0.01663   0.00000
  86       14F 0        0.01815  -0.06147   0.00000   0.00000   0.17611
  87       14F+1        0.05152   0.00235   0.00000   0.00000   0.00017
  88       14F-1        0.00000   0.00000  -1.99238   1.16122   0.00000
  89       14F+2        0.01204   0.41996   0.00000   0.00000   0.45086
  90       14F-2        0.00000   0.00000  -0.01258   0.01161   0.00000
  91       14F+3       -0.32052   0.00468   0.00000   0.00000   0.00358
  92       14F-3        0.00000   0.00000  -0.23290   0.33633   0.00000
  93 3   H  1S         -0.00093   0.01786  -0.06776   0.01012   0.04747
  94        2S         -0.02965  -1.42909   3.04995   1.65658  -2.85583
  95        3S         -0.00661   1.60390  25.91180  14.21060 -14.74364
  96        4S         -0.00458  -1.16498  -1.72068   4.65761  -1.66094
  97        5PX        -0.08369  -0.00017   0.00089  -0.00064  -0.00035
  98        5PY        -0.00031   0.02065   0.11442   0.07208  -0.09542
  99        5PZ         0.00159  -0.01950   0.03371  -0.10511   0.03178
 100        6PX        -0.01943   0.00480  -0.01018   0.00696   0.00377
 101        6PY         0.00387   0.14583  -2.14120  -0.73144   1.51221
 102        6PZ        -0.00981   0.30180  -0.47130   1.46136  -0.61361
 103        7PX        -3.04646   0.01518  -0.01751   0.00053   0.01186
 104        7PY         0.02264  -0.06574  -9.22782  -1.86193   4.80213
 105        7PZ         0.02108   4.15389   1.52188   2.93917   0.02514
 106        8D 0        0.00031  -0.05764   0.05329  -0.02859  -0.02478
 107        8D+1        0.02656  -0.00086   0.00075  -0.00028  -0.00010
 108        8D-1       -0.00086   0.05052  -0.10865  -0.00866   0.06529
 109        8D+2       -0.00065   0.04028   0.05184  -0.04407   0.04408
 110        8D-2       -0.06566  -0.00037  -0.00057  -0.00003   0.00026
 111        9D 0        0.00042   0.59731  -1.20649   0.50093   0.42175
 112        9D+1       -0.23626   0.00853  -0.00456   0.00021   0.00309
 113        9D-1        0.00539  -0.82080   0.30533  -0.76626   0.14583
 114        9D+2       -0.00176  -0.15089  -1.18165   0.13605   0.43757
 115        9D-2        0.50637  -0.00300   0.00915  -0.00459  -0.00297
 116 4   H  1S         -0.00093   0.01786   0.06776  -0.01012   0.04747
 117        2S         -0.02965  -1.42909  -3.04995  -1.65658  -2.85583
 118        3S         -0.00661   1.60390 -25.91180 -14.21060 -14.74364
 119        4S         -0.00458  -1.16498   1.72068  -4.65761  -1.66094
 120        5PX        -0.08369  -0.00017  -0.00089   0.00064  -0.00035
 121        5PY         0.00031  -0.02065   0.11442   0.07208   0.09542
 122        5PZ         0.00159  -0.01950  -0.03371   0.10511   0.03178
 123        6PX        -0.01943   0.00480   0.01018  -0.00696   0.00377
 124        6PY        -0.00387  -0.14583  -2.14120  -0.73144  -1.51221
 125        6PZ        -0.00981   0.30180   0.47130  -1.46136  -0.61361
 126        7PX        -3.04646   0.01518   0.01751  -0.00053   0.01186
 127        7PY        -0.02264   0.06574  -9.22782  -1.86193  -4.80213
 128        7PZ         0.02108   4.15389  -1.52188  -2.93917   0.02514
 129        8D 0        0.00031  -0.05764  -0.05329   0.02859  -0.02478
 130        8D+1        0.02656  -0.00086  -0.00075   0.00028  -0.00010
 131        8D-1        0.00086  -0.05052  -0.10865  -0.00866  -0.06529
 132        8D+2       -0.00065   0.04028  -0.05184   0.04407   0.04408
 133        8D-2        0.06566   0.00037  -0.00057  -0.00003  -0.00026
 134        9D 0        0.00042   0.59731   1.20649  -0.50093   0.42175
 135        9D+1       -0.23626   0.00853   0.00456  -0.00021   0.00309
 136        9D-1       -0.00539   0.82080   0.30533  -0.76626  -0.14583
 137        9D+2       -0.00176  -0.15089   1.18165  -0.13605   0.43757
 138        9D-2       -0.50637   0.00300   0.00915  -0.00459   0.00297
                         136       137       138
     Eigenvalues --     0.00000   0.00000   0.00000
   1 1   O  1S         -0.06087   0.00000   0.00949
   2        2S         -0.29412   0.00000   0.05177
   3        3S          0.03828   0.00000   0.00103
   4        4S          4.43216   0.00000  -1.09236
   5        5S         13.13865   0.00000  -6.80988
   6        6PX        -0.00022   0.00000   0.00007
   7        6PY         0.00000   0.00505   0.00000
   8        6PZ        -0.00472   0.00000   0.00544
   9        7PX         0.00038   0.00000  -0.00036
  10        7PY         0.00000  -0.01313   0.00000
  11        7PZ        -0.07850   0.00000  -0.03072
  12        8PX        -0.01544   0.00000   0.00753
  13        8PY         0.00000   1.47540   0.00000
  14        8PZ        -1.39820   0.00000   0.89634
  15        9PX        -0.01792   0.00000   0.01149
  16        9PY         0.00000   1.54974   0.00000
  17        9PZ        -1.07657   0.00000   1.43357
  18       10D 0       -0.01635   0.00000   0.00147
  19       10D+1       -0.00025   0.00000   0.00002
  20       10D-1        0.00000  -0.00227   0.00000
  21       10D+2        0.00382   0.00000  -0.00165
  22       10D-2        0.00000  -0.00001   0.00000
  23       11D 0        0.10941   0.00000  -0.00590
  24       11D+1        0.00157   0.00000  -0.00004
  25       11D-1        0.00000  -0.01612   0.00000
  26       11D+2       -0.01297   0.00000   0.00412
  27       11D-2        0.00000  -0.00023   0.00000
  28       12D 0       -0.08567   0.00000  -0.20157
  29       12D+1       -0.00463   0.00000  -0.00233
  30       12D-1        0.00000  -0.58270   0.00000
  31       12D+2        0.32092   0.00000  -0.04088
  32       12D-2        0.00000  -0.00518   0.00000
  33       13F 0       -0.00815   0.00000  -0.00398
  34       13F+1       -0.00048   0.00000  -0.00003
  35       13F-1        0.00000  -0.00490   0.00000
  36       13F+2        0.01298   0.00000  -0.00223
  37       13F-2        0.00000  -0.00014   0.00000
  38       13F+3        0.00049   0.00000  -0.00002
  39       13F-3        0.00000  -0.00509   0.00000
  40       14F 0        0.01578   0.00000   0.01748
  41       14F+1        0.00157   0.00000   0.00009
  42       14F-1        0.00000   0.02916   0.00000
  43       14F+2       -0.06163   0.00000   0.01084
  44       14F-2        0.00000   0.00068   0.00000
  45       14F+3       -0.00151   0.00000   0.00008
  46       14F-3        0.00000   0.01477   0.00000
  47 2   C  1S         -0.03813   0.00000   0.00511
  48        2S         -0.21655   0.00000   0.03524
  49        3S          0.11733   0.00000   0.02750
  50        4S         -5.35308   0.00000  10.05123
  51        5S         -4.21085   0.00000  13.51314
  52        6PX        -0.00011   0.00000   0.00011
  53        6PY         0.00000  -0.01396   0.00000
  54        6PZ        -0.02385   0.00000   0.00222
  55        7PX        -0.00091   0.00000   0.00075
  56        7PY         0.00000   0.01370   0.00000
  57        7PZ         0.23732   0.00000   0.00970
  58        8PX        -0.01459   0.00000   0.01448
  59        8PY         0.00000  -7.55008   0.00000
  60        8PZ        -1.46429   0.00000  -0.03788
  61        9PX        -0.01243   0.00000   0.00877
  62        9PY         0.00000  -5.56355   0.00000
  63        9PZ        -2.32751   0.00000  -0.22544
  64       10D 0        0.01404   0.00000  -0.00401
  65       10D+1        0.00037   0.00000  -0.00004
  66       10D-1        0.00000  -0.01414   0.00000
  67       10D+2       -0.00556   0.00000  -0.00772
  68       10D-2        0.00000   0.00000   0.00000
  69       11D 0       -0.79348   0.00000   0.13173
  70       11D+1       -0.01166   0.00000   0.00220
  71       11D-1        0.00000  -0.18509   0.00000
  72       11D+2        0.20695   0.00000  -0.05065
  73       11D-2        0.00000  -0.00048   0.00000
  74       12D 0       -6.06679   0.00000   0.72201
  75       12D+1       -0.04152   0.00000   0.00944
  76       12D-1        0.00000  -0.73506   0.00000
  77       12D+2       -2.83394   0.00000  -0.29822
  78       12D-2        0.00000  -0.02487   0.00000
  79       13F 0       -0.03725   0.00000  -0.00914
  80       13F+1       -0.00045   0.00000  -0.00007
  81       13F-1        0.00000   0.01946   0.00000
  82       13F+2       -0.01660   0.00000  -0.00145
  83       13F-2        0.00000   0.00011   0.00000
  84       13F+3        0.00038   0.00000  -0.00006
  85       13F-3        0.00000  -0.01783   0.00000
  86       14F 0       -0.17671   0.00000   0.06828
  87       14F+1       -0.00072   0.00000   0.00056
  88       14F-1        0.00000  -0.53257   0.00000
  89       14F+2       -0.34574   0.00000   0.05514
  90       14F-2        0.00000  -0.00567   0.00000
  91       14F+3       -0.00283   0.00000   0.00066
  92       14F-3        0.00000  -0.03497   0.00000
  93 3   H  1S         -0.01635   0.00863  -0.00301
  94        2S          1.02546  -0.10040  -0.19623
  95        3S         -3.54035  11.39070  -5.31233
  96        4S         -0.30205   8.37589  -3.08111
  97        5PX         0.00037   0.00031  -0.00006
  98        5PY         0.00335   0.03053  -0.01293
  99        5PZ         0.04092   0.00175   0.00577
 100        6PX        -0.00406  -0.00285   0.00058
 101        6PY        -0.43586  -0.26367   0.19228
 102        6PZ        -0.18417  -0.18410  -0.08892
 103        7PX        -0.01854   0.01675   0.00229
 104        7PY        -2.17703  -3.63495   1.56251
 105        7PZ        -3.87779   2.54438  -0.62841
 106        8D 0        0.01099  -0.00725   0.00188
 107        8D+1       -0.00071  -0.00018   0.00010
 108        8D-1       -0.04742   0.02479  -0.00808
 109        8D+2        0.01185   0.04161  -0.00409
 110        8D-2       -0.00067   0.00023   0.00003
 111        9D 0       -0.31130  -0.07421   0.04330
 112        9D+1        0.00258   0.00193  -0.00008
 113        9D-1        0.28947  -0.08662   0.11335
 114        9D+2       -0.29738  -0.34542   0.11357
 115        9D-2        0.00604   0.00083  -0.00056
 116 4   H  1S         -0.01635  -0.00863  -0.00301
 117        2S          1.02546   0.10040  -0.19623
 118        3S         -3.54035 -11.39070  -5.31233
 119        4S         -0.30205  -8.37589  -3.08111
 120        5PX         0.00037  -0.00031  -0.00006
 121        5PY        -0.00335   0.03053   0.01293
 122        5PZ         0.04092  -0.00175   0.00577
 123        6PX        -0.00406   0.00285   0.00058
 124        6PY         0.43586  -0.26367  -0.19228
 125        6PZ        -0.18417   0.18410  -0.08892
 126        7PX        -0.01854  -0.01675   0.00229
 127        7PY         2.17703  -3.63495  -1.56251
 128        7PZ        -3.87779  -2.54438  -0.62841
 129        8D 0        0.01099   0.00725   0.00188
 130        8D+1       -0.00071   0.00018   0.00010
 131        8D-1        0.04742   0.02479   0.00808
 132        8D+2        0.01185  -0.04161  -0.00409
 133        8D-2        0.00067   0.00023  -0.00003
 134        9D 0       -0.31130   0.07421   0.04330
 135        9D+1        0.00258  -0.00193  -0.00008
 136        9D-1       -0.28947  -0.08662  -0.11335
 137        9D+2       -0.29738   0.34542   0.11357
 138        9D-2       -0.00604   0.00083   0.00056
          Condensed to atoms (all electrons):
              1          2          3          4
     1  O    8.193691   0.349431  -0.062854  -0.062854
     2  C    0.349431   5.719241   0.207781   0.207781
     3  H   -0.062854   0.207781   0.434653  -0.030405
     4  H   -0.062854   0.207781  -0.030405   0.434653
 Mulliken atomic charges:
              1
     1  O   -0.417415
     2  C   -0.484234
     3  H    0.450824
     4  H    0.450824
 Sum of Mulliken atomic charges =   0.00000
 Mulliken charges with hydrogens summed into heavy atoms:
              1
     1  O   -0.417415
     2  C    0.417415
 Sum of Mulliken charges with hydrogens summed into heavy atoms =   0.00000
 Electronic spatial extent (au):  <R**2>=             60.6346
 Charge=              0.0000 electrons
 Dipole moment (field-independent basis, Debye):
    X=             -0.0159    Y=              0.0000    Z=             -2.4422  Tot=              2.4422
 Quadrupole moment (field-independent basis, Debye-Ang):
   XX=            -11.7381   YY=            -11.6215   ZZ=            -12.2707
   XY=              0.0000   XZ=             -0.0189   YZ=              0.0000
 Traceless Quadrupole moment (field-independent basis, Debye-Ang):
   XX=              0.1386   YY=              0.2553   ZZ=             -0.3939
   XY=              0.0000   XZ=             -0.0189   YZ=              0.0000
 Octapole moment (field-independent basis, Debye-Ang**2):
  XXX=             -0.1601  YYY=              0.0000  ZZZ=              0.3110  XYY=             -0.0547
  XXY=              0.0000  XXZ=              0.5811  XZZ=             -0.0594  YZZ=              0.0000
  YYZ=             -0.7025  XYZ=              0.0000
 Hexadecapole moment (field-independent basis, Debye-Ang**3):
 XXXX=            -10.5225 YYYY=            -18.2496 ZZZZ=            -46.2394 XXXY=              0.0000
 XXXZ=             -0.1122 YYYX=              0.0000 YYYZ=              0.0000 ZZZX=             -0.1321
 ZZZY=              0.0000 XXYY=             -5.1559 XXZZ=             -9.3949 YYZZ=            -10.4549
 XXYZ=              0.0000 YYXZ=             -0.0482 ZZXY=              0.0000
 N-N= 3.130423569553D+01 E-N=-3.313603740441D+02  KE= 1.142314675320D+02
 1\1\GINC-TRAPISTA\SP\RQCISD-FC\Aug-CC-pVTZ\C1H2O1\BRUNS\20-Nov-2021\0\
 \# qcisd/aug-cc-pvtz nosymm density=current output=wfn\\h2co-wavefunct
 ion\\0,1\O,0,0.01,0.,0.679252\C,0,0.,0.,-0.526911\H,0,0.,0.936614,-1.1
 0662\H,0,0.,-0.936614,-1.10662\\Version=EM64L-G09RevB.01\HF=-113.91381
 86\MP2=-114.3163421\MP3=-114.3203595\MP4D=-114.3305825\MP4DQ=-114.3217
 094\MP4SDQ=-114.326972\QCISD=-114.3269775\RMSD=2.892e-09\Dipole=-0.006
 25,0.,-0.9608328\Quadrupole=0.103066,0.189805,-0.292871,0.,-0.014031,0
 .\PG=CS [SG(C1O1),X(H2)]\\@

 Writing a WFN file to GAUSSIAN.wfn.


 THERE IS MUCH PLEASURE TO BE GAINED FROM USELESS KNOWLEDGE

                                       -- BERTRAND RUSSELL
 Job cpu time:  0 days  0 hours 22 minutes 43.8 seconds.
 File lengths (MBytes):  RWF=   5787 Int=      0 D2E=      0 Chk=      2 Scr=      1
 Normal termination of Gaussian 09 at Sat Nov 20 17:21:58 2021.
