 Entering Gaussian System, Link 0=/home/bruns/programas/chemistry/gaussian/g09/g09
 Input=GAUSSIAN.com
 Output=GAUSSIAN.log
 Initial command:
 /home/bruns/programas/chemistry/gaussian/g09/l1.exe /home/bruns/programas/chemistry/gaussian/work/Gau-76159.inp -scrdir=/home/bruns/programas/chemistry/gaussian/work/
 Entering Link 1 = /home/bruns/programas/chemistry/gaussian/g09/l1.exe PID=     76161.
  
 Copyright (c) 1988,1990,1992,1993,1995,1998,2003,2009,2010,
            Gaussian, Inc.  All Rights Reserved.
  
 This is part of the Gaussian(R) 09 program.  It is based on
 the Gaussian(R) 03 system (copyright 2003, Gaussian, Inc.),
 the Gaussian(R) 98 system (copyright 1998, Gaussian, Inc.),
 the Gaussian(R) 94 system (copyright 1995, Gaussian, Inc.),
 the Gaussian 92(TM) system (copyright 1992, Gaussian, Inc.),
 the Gaussian 90(TM) system (copyright 1990, Gaussian, Inc.),
 the Gaussian 88(TM) system (copyright 1988, Gaussian, Inc.),
 the Gaussian 86(TM) system (copyright 1986, Carnegie Mellon
 University), and the Gaussian 82(TM) system (copyright 1983,
 Carnegie Mellon University). Gaussian is a federally registered
 trademark of Gaussian, Inc.
  
 This software contains proprietary and confidential information,
 including trade secrets, belonging to Gaussian, Inc.
  
 This software is provided under written license and may be
 used, copied, transmitted, or stored only in accord with that
 written license.
  
 The following legend is applicable only to US Government
 contracts under FAR:
  
                    RESTRICTED RIGHTS LEGEND
  
 Use, reproduction and disclosure by the US Government is
 subject to restrictions as set forth in subparagraphs (a)
 and (c) of the Commercial Computer Software - Restricted
 Rights clause in FAR 52.227-19.
  
 Gaussian, Inc.
 340 Quinnipiac St., Bldg. 40, Wallingford CT 06492
  
  
 ---------------------------------------------------------------
 Warning -- This program may not be used in any manner that
 competes with the business of Gaussian, Inc. or will provide
 assistance to any competitor of Gaussian, Inc.  The licensee
 of this program is prohibited from giving any competitor of
 Gaussian, Inc. access to this program.  By using this program,
 the user acknowledges that Gaussian, Inc. is engaged in the
 business of creating and licensing software in the field of
 computational chemistry and represents and warrants to the
 licensee that it is not a competitor of Gaussian, Inc. and that
 it will not use this program in any manner prohibited above.
 ---------------------------------------------------------------
  

 Cite this work as:
 Gaussian 09, Revision B.01,
 M. J. Frisch, G. W. Trucks, H. B. Schlegel, G. E. Scuseria, 
 M. A. Robb, J. R. Cheeseman, G. Scalmani, V. Barone, B. Mennucci, 
 G. A. Petersson, H. Nakatsuji, M. Caricato, X. Li, H. P. Hratchian, 
 A. F. Izmaylov, J. Bloino, G. Zheng, J. L. Sonnenberg, M. Hada, 
 M. Ehara, K. Toyota, R. Fukuda, J. Hasegawa, M. Ishida, T. Nakajima, 
 Y. Honda, O. Kitao, H. Nakai, T. Vreven, J. A. Montgomery, Jr., 
 J. E. Peralta, F. Ogliaro, M. Bearpark, J. J. Heyd, E. Brothers, 
 K. N. Kudin, V. N. Staroverov, T. Keith, R. Kobayashi, J. Normand, 
 K. Raghavachari, A. Rendell, J. C. Burant, S. S. Iyengar, J. Tomasi, 
 M. Cossi, N. Rega, J. M. Millam, M. Klene, J. E. Knox, J. B. Cross, 
 V. Bakken, C. Adamo, J. Jaramillo, R. Gomperts, R. E. Stratmann, 
 O. Yazyev, A. J. Austin, R. Cammi, C. Pomelli, J. W. Ochterski, 
 R. L. Martin, K. Morokuma, V. G. Zakrzewski, G. A. Voth, 
 P. Salvador, J. J. Dannenberg, S. Dapprich, A. D. Daniels, 
 O. Farkas, J. B. Foresman, J. V. Ortiz, J. Cioslowski, 
 and D. J. Fox, Gaussian, Inc., Wallingford CT, 2010.
 
 ******************************************
 Gaussian 09:  EM64L-G09RevB.01 12-Aug-2010
                20-Nov-2021 
 ******************************************
 %nproc=8
 Will use up to    8 processors via shared memory.
 %mem=8GB
 -----------------------------------------------------
 # qcisd/aug-cc-pvtz nosymm density=current output=wfn
 -----------------------------------------------------
 1/30=1,38=1/1;
 2/12=2,15=1,17=6,18=5,40=1/2;
 3/5=16,6=1,7=10,11=9,16=1,25=1,30=1,71=1/1,2,3;
 4//1;
 5/5=2,38=5/2;
 8/6=4,9=120000,10=1/1,4;
 9/5=8,15=1/13;
 11/28=-7,31=1,32=3,42=3/11;
 10/5=6,13=10,31=1/2;
 6/7=2,8=2,9=2,10=2,22=-1,31=1/1;
 99/5=1,6=1100,9=1/99;
 -----------------
 h2co-wavefunction
 -----------------
 Symbolic Z-matrix:
 Charge =  0 Multiplicity = 1
 O                     0.        0.        0.67925 
 C                     0.        0.       -0.53691 
 H                     0.        0.93661  -1.10662 
 H                     0.       -0.93661  -1.10662 
 
                          Input orientation:                          
 ---------------------------------------------------------------------
 Center     Atomic      Atomic             Coordinates (Angstroms)
 Number     Number       Type             X           Y           Z
 ---------------------------------------------------------------------
      1          8           0        0.000000    0.000000    0.679252
      2          6           0        0.000000    0.000000   -0.536911
      3          1           0        0.000000    0.936614   -1.106620
      4          1           0        0.000000   -0.936614   -1.106620
 ---------------------------------------------------------------------
                    Distance matrix (angstroms):
                    1          2          3          4
     1  O    0.000000
     2  C    1.216163   0.000000
     3  H    2.016577   1.096273   0.000000
     4  H    2.016577   1.096273   1.873228   0.000000
 Symmetry turned off by external request.
 Stoichiometry    CH2O
 Framework group  C2V[C2(CO),SGV(H2)]
 Deg. of freedom     3
 Full point group                 C2V     NOp   4
 Rotational constants (GHZ):    285.8122027     38.4392425     33.8823611
 Standard basis: Aug-CC-pVTZ (5D, 7F)
 Integral buffers will be    131072 words long.
 Raffenetti 1 integral format.
 Two-electron integral symmetry is turned off.
   138 basis functions,   198 primitive gaussians,   160 cartesian basis functions
     8 alpha electrons        8 beta electrons
       nuclear repulsion energy        31.1593547742 Hartrees.
 NAtoms=    4 NActive=    4 NUniq=    4 SFac= 1.00D+00 NAtFMM=   50 NAOKFM=F Big=F
 One-electron integrals computed using PRISM.
 NBasis=   138 RedAO= T  NBF=   138
 NBsUse=   138 1.00D-06 NBFU=   138
 Harris functional with IExCor=  205 diagonalized for initial guess.
 ExpMin= 2.53D-02 ExpMax= 1.53D+04 ExpMxC= 5.22D+02 IAcc=3 IRadAn=         0 AccDes= 0.00D+00
 HarFok:  IExCor=  205 AccDes= 0.00D+00 IRadAn=         0 IDoV= 1
 ScaDFX=  1.000000  1.000000  1.000000  1.000000
 FoFCou: FMM=F IPFlag=           0 FMFlag=      100000 FMFlg1=           0
         NFxFlg=           0 DoJE=T BraDBF=F KetDBF=T FulRan=T
         Omega=  0.000000  0.000000  1.000000  0.000000  0.000000 ICntrl=     500 IOpCl=  0
         NMat0=    1 NMatS0=    1 NMatT0=    0 NMatD0=    1 NMtDS0=    0 NMtDT0=    0
         I1Cent=           4 NGrid=           0.
 Symmetry not used in FoFCou.
 Requested convergence on RMS density matrix=1.00D-08 within 128 cycles.
 Requested convergence on MAX density matrix=1.00D-06.
 Requested convergence on             energy=1.00D-06.
 No special actions if energy rises.
 Keep R1 ints in memory in canonical form, NReq=85137408.
 SCF Done:  E(RHF) =  -113.912852357     A.U. after   11 cycles
             Convg  =    0.3111D-08             -V/T =  2.0021
 ExpMin= 2.53D-02 ExpMax= 1.53D+04 ExpMxC= 5.22D+02 IAcc=3 IRadAn=         5 AccDes= 0.00D+00
 HarFok:  IExCor=  205 AccDes= 0.00D+00 IRadAn=         5 IDoV=-2
 ScaDFX=  1.000000  1.000000  1.000000  1.000000
 Range of M.O.s used for correlation:     3   138
 NBasis=   138 NAE=     8 NBE=     8 NFC=     2 NFV=     0
 NROrb=    136 NOA=     6 NOB=     6 NVA=   130 NVB=   130

 **** Warning!!: The largest alpha MO coefficient is  0.34329523D+02

 Semi-Direct transformation.
 ModeAB=           2 MOrb=             6 LenV=    1073118457
 LASXX=      7286295 LTotXX=     7286295 LenRXX=     7286295
 LTotAB=     7445736 MaxLAS=    10510080 LenRXY=    10510080
 NonZer=    14572590 LenScr=    22628352 LnRSAI=           0
 LnScr1=           0 LExtra=           0 Total=     40424727
 MaxDsk=          -1 SrtSym=           F ITran=            4
 JobTyp=0 Pass  1:  I=   1 to   6.
 (rs|ai) integrals will be sorted in core.
 Spin components of T(2) and E(2):
     alpha-alpha T2 =       0.1388299841D-01 E2=     -0.4817451244D-01
     alpha-beta  T2 =       0.8570790730D-01 E2=     -0.3071681184D+00
     beta-beta   T2 =       0.1388299841D-01 E2=     -0.4817451244D-01
 ANorm=    0.1055212729D+01
 E2 =    -0.4035171433D+00 EUMP2 =    -0.11431636950011D+03
 R2 and R3 integrals will be kept in memory, NReq=   167993840.
 Iterations=  50 Convergence= 0.100D-07
 Iteration Nr.   1
 **********************
 DD1Dir will call FoFMem   1 times, MxPair=        42
 NAB=    21 NAA=     0 NBB=     0.
 MP4(R+Q)=  0.89595490D-02
 E3=       -0.36435446D-02        EUMP3=      -0.11432001304D+03
 E4(DQ)=   -0.14164367D-02        UMP4(DQ)=   -0.11432142948D+03
 E4(SDQ)=  -0.68031770D-02        UMP4(SDQ)=  -0.11432681622D+03
 DE(Corr)= -0.39820114     E(Corr)=     -114.31105350    
 NORM(A)=   0.10557739D+01
 Iteration Nr.   2
 **********************
 DD1Dir will call FoFMem   1 times, MxPair=        42
 NAB=    21 NAA=     0 NBB=     0.
 DE(Corr)= -0.41240482     E(CORR)=     -114.32525718     Delta=-1.42D-02
 NORM(A)=   0.10619471D+01
 Iteration Nr.   3
 **********************
 DD1Dir will call FoFMem   1 times, MxPair=        42
 NAB=    21 NAA=     0 NBB=     0.
 DE(Corr)= -0.41228565     E(CORR)=     -114.32513801     Delta= 1.19D-04
 NORM(A)=   0.10639128D+01
 Iteration Nr.   4
 **********************
 DD1Dir will call FoFMem   1 times, MxPair=        42
 NAB=    21 NAA=     0 NBB=     0.
 DE(Corr)= -0.41373204     E(CORR)=     -114.32658439     Delta=-1.45D-03
 NORM(A)=   0.10646331D+01
 Iteration Nr.   5
 **********************
 DD1Dir will call FoFMem   1 times, MxPair=        42
 NAB=    21 NAA=     0 NBB=     0.
 DE(Corr)= -0.41392888     E(CORR)=     -114.32678124     Delta=-1.97D-04
 NORM(A)=   0.10648651D+01
 Iteration Nr.   6
 **********************
 DD1Dir will call FoFMem   1 times, MxPair=        42
 NAB=    21 NAA=     0 NBB=     0.
 DE(Corr)= -0.41395636     E(CORR)=     -114.32680872     Delta=-2.75D-05
 NORM(A)=   0.10648925D+01
 Iteration Nr.   7
 **********************
 DD1Dir will call FoFMem   1 times, MxPair=        42
 NAB=    21 NAA=     0 NBB=     0.
 DE(Corr)= -0.41395764     E(CORR)=     -114.32680999     Delta=-1.27D-06
 NORM(A)=   0.10648939D+01
 Iteration Nr.   8
 **********************
 DD1Dir will call FoFMem   1 times, MxPair=        42
 NAB=    21 NAA=     0 NBB=     0.
 DE(Corr)= -0.41395670     E(CORR)=     -114.32680906     Delta= 9.34D-07
 NORM(A)=   0.10648968D+01
 Iteration Nr.   9
 **********************
 DD1Dir will call FoFMem   1 times, MxPair=        42
 NAB=    21 NAA=     0 NBB=     0.
 DE(Corr)= -0.41395549     E(CORR)=     -114.32680785     Delta= 1.21D-06
 NORM(A)=   0.10648971D+01
 Iteration Nr.  10
 **********************
 DD1Dir will call FoFMem   1 times, MxPair=        42
 NAB=    21 NAA=     0 NBB=     0.
 DE(Corr)= -0.41395616     E(CORR)=     -114.32680851     Delta=-6.63D-07
 NORM(A)=   0.10648978D+01
 Iteration Nr.  11
 **********************
 DD1Dir will call FoFMem   1 times, MxPair=        42
 NAB=    21 NAA=     0 NBB=     0.
 DE(Corr)= -0.41395630     E(CORR)=     -114.32680865     Delta=-1.40D-07
 NORM(A)=   0.10648982D+01
 Iteration Nr.  12
 **********************
 DD1Dir will call FoFMem   1 times, MxPair=        42
 NAB=    21 NAA=     0 NBB=     0.
 DE(Corr)= -0.41395646     E(CORR)=     -114.32680882     Delta=-1.65D-07
 NORM(A)=   0.10648984D+01
 Iteration Nr.  13
 **********************
 DD1Dir will call FoFMem   1 times, MxPair=        42
 NAB=    21 NAA=     0 NBB=     0.
 DE(Corr)= -0.41395653     E(CORR)=     -114.32680889     Delta=-6.66D-08
 NORM(A)=   0.10648985D+01
 Iteration Nr.  14
 **********************
 DD1Dir will call FoFMem   1 times, MxPair=        42
 NAB=    21 NAA=     0 NBB=     0.
 DE(Corr)= -0.41395656     E(CORR)=     -114.32680892     Delta=-3.41D-08
 NORM(A)=   0.10648985D+01
 Iteration Nr.  15
 **********************
 DD1Dir will call FoFMem   1 times, MxPair=        42
 NAB=    21 NAA=     0 NBB=     0.
 DE(Corr)= -0.41395657     E(CORR)=     -114.32680892     Delta=-5.25D-09
 NORM(A)=   0.10648986D+01
 Iteration Nr.  16
 **********************
 DD1Dir will call FoFMem   1 times, MxPair=        42
 NAB=    21 NAA=     0 NBB=     0.
 DE(Corr)= -0.41395657     E(CORR)=     -114.32680893     Delta=-3.40D-09
 NORM(A)=   0.10648986D+01
 Largest amplitude= 6.50D-02

 Z-AMPLITUDE ITERATIONS

 Iteration Nr.   1
 **********************
 DD1Dir will call FoFMem   1 times, MxPair=        42
 NAB=    21 NAA=     0 NBB=     0.
 DE(Z)  -0.40175451D+00          E(Z)=    -0.11431460687D+03
 NORM(A)=   0.10648984D+01
 Iteration Nr.   2
 **********************
 DD1Dir will call FoFMem   1 times, MxPair=        42
 NAB=    21 NAA=     0 NBB=     0.
 DE(Z)  -0.40175450D+00          E(Z)=    -0.11431460685D+03
 NORM(A)=   0.10648986D+01
 Iteration Nr.   3
 **********************
 DD1Dir will call FoFMem   1 times, MxPair=        42
 NAB=    21 NAA=     0 NBB=     0.
 DE(Z)  -0.40175451D+00          E(Z)=    -0.11431460687D+03
 NORM(A)=   0.10648983D+01
 Iteration Nr.   4
 **********************
 DD1Dir will call FoFMem   1 times, MxPair=        42
 NAB=    21 NAA=     0 NBB=     0.
 DE(Z)  -0.40175450D+00          E(Z)=    -0.11431460686D+03
 NORM(A)=   0.10648985D+01
 Iteration Nr.   5
 **********************
 DD1Dir will call FoFMem   1 times, MxPair=        42
 NAB=    21 NAA=     0 NBB=     0.
 DE(Z)  -0.40175451D+00          E(Z)=    -0.11431460686D+03
 NORM(A)=   0.10608574D+01
 Iteration Nr.   6
 **********************
 DD1Dir will call FoFMem   1 times, MxPair=        42
 NAB=    21 NAA=     0 NBB=     0.
 DE(Z)  -0.40158633D+00          E(Z)=    -0.11431443869D+03
 NORM(A)=   0.10608759D+01
 Iteration Nr.   7
 **********************
 DD1Dir will call FoFMem   1 times, MxPair=        42
 NAB=    21 NAA=     0 NBB=     0.
 DE(Z)  -0.40157681D+00          E(Z)=    -0.11431442917D+03
 NORM(A)=   0.10608338D+01
 Iteration Nr.   8
 **********************
 DD1Dir will call FoFMem   1 times, MxPair=        42
 NAB=    21 NAA=     0 NBB=     0.
 DE(Z)  -0.40156294D+00          E(Z)=    -0.11431441530D+03
 NORM(A)=   0.10607471D+01
 Iteration Nr.   9
 **********************
 DD1Dir will call FoFMem   1 times, MxPair=        42
 NAB=    21 NAA=     0 NBB=     0.
 DE(Z)  -0.40156070D+00          E(Z)=    -0.11431441306D+03
 NORM(A)=   0.10607288D+01
 Iteration Nr.  10
 **********************
 DD1Dir will call FoFMem   1 times, MxPair=        42
 NAB=    21 NAA=     0 NBB=     0.
 DE(Z)  -0.40155316D+00          E(Z)=    -0.11431440552D+03
 NORM(A)=   0.10607229D+01
 Iteration Nr.  11
 **********************
 DD1Dir will call FoFMem   1 times, MxPair=        42
 NAB=    21 NAA=     0 NBB=     0.
 DE(Z)  -0.40155365D+00          E(Z)=    -0.11431440601D+03
 NORM(A)=   0.10607216D+01
 Iteration Nr.  12
 **********************
 DD1Dir will call FoFMem   1 times, MxPair=        42
 NAB=    21 NAA=     0 NBB=     0.
 DE(Z)  -0.40155420D+00          E(Z)=    -0.11431440656D+03
 NORM(A)=   0.10607218D+01
 Iteration Nr.  13
 **********************
 DD1Dir will call FoFMem   1 times, MxPair=        42
 NAB=    21 NAA=     0 NBB=     0.
 DE(Z)  -0.40155378D+00          E(Z)=    -0.11431440613D+03
 NORM(A)=   0.10607217D+01
 Iteration Nr.  14
 **********************
 DD1Dir will call FoFMem   1 times, MxPair=        42
 NAB=    21 NAA=     0 NBB=     0.
 DE(Z)  -0.40155393D+00          E(Z)=    -0.11431440629D+03
 NORM(A)=   0.10607218D+01
 Iteration Nr.  15
 **********************
 DD1Dir will call FoFMem   1 times, MxPair=        42
 NAB=    21 NAA=     0 NBB=     0.
 DE(Z)  -0.40155392D+00          E(Z)=    -0.11431440628D+03
 NORM(A)=   0.10607218D+01
 Iteration Nr.  16
 **********************
 DD1Dir will call FoFMem   1 times, MxPair=        42
 NAB=    21 NAA=     0 NBB=     0.
 DE(Z)  -0.40155392D+00          E(Z)=    -0.11431440627D+03
 NORM(A)=   0.10607218D+01
 Iteration Nr.  17
 **********************
 DD1Dir will call FoFMem   1 times, MxPair=        42
 NAB=    21 NAA=     0 NBB=     0.
 DE(Z)  -0.40155392D+00          E(Z)=    -0.11431440628D+03
 NORM(A)=   0.10607218D+01
 Iteration Nr.  18
 **********************
 DD1Dir will call FoFMem   1 times, MxPair=        42
 NAB=    21 NAA=     0 NBB=     0.
 DE(Z)  -0.40155392D+00          E(Z)=    -0.11431440628D+03
 NORM(A)=   0.10607218D+01
 Discarding MO integrals.
          Differentiating once with respect to electric field.
                with respect to dipole field.
          Electric field/nuclear overlap derivatives assumed to be zero.
          Keep R1 ints in memory in canonical form, NReq=84894547.
          There are     1 degrees of freedom in the 1st order CPHF.  IDoFFX=0.
 LinEq1:  Iter=  0 NonCon=     1 RMS=3.59D-03 Max=5.65D-02
 AX will form     1 AO Fock derivatives at one time.
 LinEq1:  Iter=  1 NonCon=     1 RMS=9.05D-04 Max=8.51D-03
 LinEq1:  Iter=  2 NonCon=     1 RMS=2.40D-04 Max=3.56D-03
 LinEq1:  Iter=  3 NonCon=     1 RMS=1.18D-04 Max=1.24D-03
 LinEq1:  Iter=  4 NonCon=     1 RMS=4.75D-05 Max=6.05D-04
 LinEq1:  Iter=  5 NonCon=     1 RMS=9.76D-06 Max=9.35D-05
 LinEq1:  Iter=  6 NonCon=     1 RMS=1.57D-06 Max=1.80D-05
 LinEq1:  Iter=  7 NonCon=     1 RMS=2.40D-07 Max=1.74D-06
 LinEq1:  Iter=  8 NonCon=     1 RMS=2.76D-08 Max=2.19D-07
 LinEq1:  Iter=  9 NonCon=     1 RMS=3.32D-09 Max=2.66D-08
 LinEq1:  Iter= 10 NonCon=     1 RMS=3.14D-10 Max=2.44D-09
 LinEq1:  Iter= 11 NonCon=     0 RMS=2.79D-11 Max=2.45D-10
 Linear equations converged to 1.000D-10 1.000D-09 after    11 iterations.
 End of Minotr Frequency-dependent properties file   721 does not exist.
 End of Minotr Frequency-dependent properties file   722 does not exist.

 **********************************************************************

            Population analysis using the QCI/CC density.

 **********************************************************************

     Natural Orbital Coefficients:
                           1         2         3         4         5
     Eigenvalues --     2.00001   2.00000   1.98044   1.96693   1.96537
   1 1   O  1S         -0.52759   0.82530  -0.18927   0.07109   0.00000
   2        2S          0.01066  -0.01441   0.48975  -0.20084   0.00000
   3        3S         -0.02201   0.03542   0.13791  -0.06065   0.00000
   4        4S          0.00297  -0.00276   0.31206  -0.21819   0.00000
   5        5S          0.00019  -0.00086   0.04338  -0.02788   0.00000
   6        6PX         0.00000   0.00000   0.00000   0.00000   0.00000
   7        6PY         0.00000   0.00000   0.00000   0.00000   0.26899
   8        6PZ         0.00295  -0.00224   0.00180  -0.12899   0.00000
   9        7PX         0.00000   0.00000   0.00000   0.00000   0.00000
  10        7PY         0.00000   0.00000   0.00000   0.00000   0.33197
  11        7PZ         0.00189   0.00153  -0.00606  -0.15111   0.00000
  12        8PX         0.00000   0.00000   0.00000   0.00000   0.00000
  13        8PY         0.00000   0.00000   0.00000   0.00000   0.24070
  14        8PZ         0.00290   0.00046   0.03871  -0.07050   0.00000
  15        9PX         0.00000   0.00000   0.00000   0.00000   0.00000
  16        9PY         0.00000   0.00000   0.00000   0.00000   0.03707
  17        9PZ         0.00017   0.00004   0.00210  -0.00257   0.00000
  18       10D 0       -0.00014   0.00014   0.00410   0.00503   0.00000
  19       10D+1        0.00000   0.00000   0.00000   0.00000   0.00000
  20       10D-1        0.00000   0.00000   0.00000   0.00000  -0.00797
  21       10D+2        0.00007  -0.00008   0.00008  -0.00002   0.00000
  22       10D-2        0.00000   0.00000   0.00000   0.00000   0.00000
  23       11D 0       -0.00043  -0.00116   0.01206   0.00908   0.00000
  24       11D+1        0.00000   0.00000   0.00000   0.00000   0.00000
  25       11D-1        0.00000   0.00000   0.00000   0.00000  -0.02110
  26       11D+2        0.00009  -0.00014   0.00066   0.00032   0.00000
  27       11D-2        0.00000   0.00000   0.00000   0.00000   0.00000
  28       12D 0       -0.00064  -0.00027  -0.00837   0.00107   0.00000
  29       12D+1        0.00000   0.00000   0.00000   0.00000   0.00000
  30       12D-1        0.00000   0.00000   0.00000   0.00000  -0.01361
  31       12D+2        0.00026   0.00017  -0.00037   0.00072   0.00000
  32       12D-2        0.00000   0.00000   0.00000   0.00000   0.00000
  33       13F 0       -0.00002   0.00005  -0.00266  -0.00170   0.00000
  34       13F+1        0.00000   0.00000   0.00000   0.00000   0.00000
  35       13F-1        0.00000   0.00000   0.00000   0.00000   0.00473
  36       13F+2        0.00005  -0.00001   0.00014  -0.00047   0.00000
  37       13F-2        0.00000   0.00000   0.00000   0.00000   0.00000
  38       13F+3        0.00000   0.00000   0.00000   0.00000   0.00000
  39       13F-3        0.00000   0.00000   0.00000   0.00000   0.00126
  40       14F 0        0.00033   0.00041  -0.00120  -0.00028   0.00000
  41       14F+1        0.00000   0.00000   0.00000   0.00000   0.00000
  42       14F-1        0.00000   0.00000   0.00000   0.00000   0.00322
  43       14F+2       -0.00003   0.00005  -0.00085  -0.00070   0.00000
  44       14F-2        0.00000   0.00000   0.00000   0.00000   0.00000
  45       14F+3        0.00000   0.00000   0.00000   0.00000   0.00000
  46       14F-3        0.00000   0.00000   0.00000   0.00000   0.00143
  47 2   C  1S          0.82687   0.52828  -0.08338  -0.14814   0.00000
  48        2S         -0.01110  -0.00605   0.20180   0.41339   0.00000
  49        3S          0.03426   0.02192   0.04511   0.09736   0.00000
  50        4S          0.00330   0.00344   0.12583   0.30574   0.00000
  51        5S          0.00176   0.00142   0.00629   0.01601   0.00000
  52        6PX         0.00000   0.00000   0.00000   0.00000   0.00000
  53        6PY         0.00000   0.00000   0.00000   0.00000   0.18691
  54        6PZ         0.00096   0.00053   0.04563  -0.05847   0.00000
  55        7PX         0.00000   0.00000   0.00000   0.00000   0.00000
  56        7PY         0.00000   0.00000   0.00000   0.00000   0.24754
  57        7PZ         0.00048   0.00371   0.01373  -0.08046   0.00000
  58        8PX         0.00000   0.00000   0.00000   0.00000   0.00000
  59        8PY         0.00000   0.00000   0.00000   0.00000   0.06348
  60        8PZ        -0.00098  -0.00004  -0.03846  -0.05754   0.00000
  61        9PX         0.00000   0.00000   0.00000   0.00000   0.00000
  62        9PY         0.00000   0.00000   0.00000   0.00000  -0.01479
  63        9PZ        -0.00015   0.00003  -0.00243  -0.00031   0.00000
  64       10D 0        0.00047   0.00068   0.01315   0.00086   0.00000
  65       10D+1        0.00000   0.00000   0.00000   0.00000   0.00000
  66       10D-1        0.00000   0.00000   0.00000   0.00000   0.00780
  67       10D+2       -0.00045  -0.00023  -0.00317  -0.00982   0.00000
  68       10D-2        0.00000   0.00000   0.00000   0.00000   0.00000
  69       11D 0       -0.00078   0.00114   0.00279  -0.00232   0.00000
  70       11D+1        0.00000   0.00000   0.00000   0.00000   0.00000
  71       11D-1        0.00000   0.00000   0.00000   0.00000  -0.01043
  72       11D+2        0.00032   0.00071  -0.01487  -0.02529   0.00000
  73       11D-2        0.00000   0.00000   0.00000   0.00000   0.00000
  74       12D 0       -0.00039  -0.00132  -0.01656   0.00222   0.00000
  75       12D+1        0.00000   0.00000   0.00000   0.00000   0.00000
  76       12D-1        0.00000   0.00000   0.00000   0.00000  -0.01750
  77       12D+2       -0.00044  -0.00085  -0.00916  -0.00258   0.00000
  78       12D-2        0.00000   0.00000   0.00000   0.00000   0.00000
  79       13F 0        0.00067   0.00046   0.00531   0.00506   0.00000
  80       13F+1        0.00000   0.00000   0.00000   0.00000   0.00000
  81       13F-1        0.00000   0.00000   0.00000   0.00000   0.00864
  82       13F+2        0.00050   0.00020   0.00351   0.00446   0.00000
  83       13F-2        0.00000   0.00000   0.00000   0.00000   0.00000
  84       13F+3        0.00000   0.00000   0.00000   0.00000   0.00000
  85       13F-3        0.00000   0.00000   0.00000   0.00000  -0.00066
  86       14F 0       -0.00151  -0.00012  -0.00005   0.00425   0.00000
  87       14F+1        0.00000   0.00000   0.00000   0.00000   0.00000
  88       14F-1        0.00000   0.00000   0.00000   0.00000   0.00755
  89       14F+2       -0.00088  -0.00034   0.00278   0.00753   0.00000
  90       14F-2        0.00000   0.00000   0.00000   0.00000   0.00000
  91       14F+3        0.00000   0.00000   0.00000   0.00000   0.00000
  92       14F-3        0.00000   0.00000   0.00000   0.00000   0.00016
  93 3   H  1S         -0.00109  -0.00060   0.02601   0.09796   0.07429
  94        2S         -0.00076   0.00030   0.00048   0.08944   0.06554
  95        3S         -0.00343  -0.00273  -0.04469  -0.03282  -0.01108
  96        4S         -0.00026  -0.00017  -0.00177  -0.00204   0.00764
  97        5PX         0.00000   0.00000   0.00000   0.00000   0.00000
  98        5PY         0.00036   0.00017  -0.00138  -0.00843  -0.00540
  99        5PZ        -0.00023  -0.00010   0.00109   0.00408   0.00637
 100        6PX         0.00000   0.00000   0.00000   0.00000   0.00000
 101        6PY         0.00053  -0.00014   0.00943   0.00026   0.01275
 102        6PZ        -0.00023   0.00029  -0.00925  -0.00452   0.00401
 103        7PX         0.00000   0.00000   0.00000   0.00000   0.00000
 104        7PY         0.00053  -0.00010   0.00688   0.01679   0.00588
 105        7PZ        -0.00065  -0.00099  -0.01752  -0.00663   0.00747
 106        8D 0        0.00008   0.00001   0.00031  -0.00028   0.00176
 107        8D+1        0.00000   0.00000   0.00000   0.00000   0.00000
 108        8D-1        0.00027   0.00013   0.00059  -0.00098  -0.00266
 109        8D+2        0.00018   0.00008   0.00047  -0.00124  -0.00014
 110        8D-2        0.00000   0.00000   0.00000   0.00000   0.00000
 111        9D 0       -0.00024  -0.00004  -0.00177  -0.00092   0.00106
 112        9D+1        0.00000   0.00000   0.00000   0.00000   0.00000
 113        9D-1       -0.00010  -0.00002   0.00382   0.00233   0.00357
 114        9D+2        0.00026   0.00001   0.00166   0.00160   0.00323
 115        9D-2        0.00000   0.00000   0.00000   0.00000   0.00000
 116 4   H  1S         -0.00109  -0.00060   0.02601   0.09796  -0.07429
 117        2S         -0.00076   0.00030   0.00048   0.08944  -0.06554
 118        3S         -0.00343  -0.00273  -0.04469  -0.03282   0.01108
 119        4S         -0.00026  -0.00017  -0.00177  -0.00204  -0.00764
 120        5PX         0.00000   0.00000   0.00000   0.00000   0.00000
 121        5PY        -0.00036  -0.00017   0.00138   0.00843  -0.00540
 122        5PZ        -0.00023  -0.00010   0.00109   0.00408  -0.00637
 123        6PX         0.00000   0.00000   0.00000   0.00000   0.00000
 124        6PY        -0.00053   0.00014  -0.00943  -0.00026   0.01275
 125        6PZ        -0.00023   0.00029  -0.00925  -0.00452  -0.00401
 126        7PX         0.00000   0.00000   0.00000   0.00000   0.00000
 127        7PY        -0.00053   0.00010  -0.00688  -0.01679   0.00588
 128        7PZ        -0.00065  -0.00099  -0.01752  -0.00663  -0.00747
 129        8D 0        0.00008   0.00001   0.00031  -0.00028  -0.00176
 130        8D+1        0.00000   0.00000   0.00000   0.00000   0.00000
 131        8D-1       -0.00027  -0.00013  -0.00059   0.00098  -0.00266
 132        8D+2        0.00018   0.00008   0.00047  -0.00124   0.00014
 133        8D-2        0.00000   0.00000   0.00000   0.00000   0.00000
 134        9D 0       -0.00024  -0.00004  -0.00177  -0.00092  -0.00106
 135        9D+1        0.00000   0.00000   0.00000   0.00000   0.00000
 136        9D-1        0.00010   0.00002  -0.00382  -0.00233   0.00357
 137        9D+2        0.00026   0.00001   0.00166   0.00160  -0.00323
 138        9D-2        0.00000   0.00000   0.00000   0.00000   0.00000
                           6         7         8         9        10
     Eigenvalues --     1.95962   1.95699   1.92112   0.06753   0.02792
   1 1   O  1S          0.00277   0.00000   0.00000   0.00000   0.00000
   2        2S          0.01225   0.00000   0.00000   0.00000   0.00000
   3        3S          0.00818   0.00000   0.00000   0.00000   0.00000
   4        4S          0.12024   0.00000   0.00000   0.00000   0.00000
   5        5S          0.06300   0.00000   0.00000   0.00000   0.00000
   6        6PX         0.00000   0.00000   0.28132  -0.36236   0.00000
   7        6PY         0.00000   0.24353   0.00000   0.00000  -0.40567
   8        6PZ         0.28522   0.00000   0.00000   0.00000   0.00000
   9        7PX         0.00000   0.00000   0.35415  -0.43190   0.00000
  10        7PY         0.00000   0.30017   0.00000   0.00000  -0.30398
  11        7PZ         0.34530   0.00000   0.00000   0.00000   0.00000
  12        8PX         0.00000   0.00000   0.23453  -0.07955   0.00000
  13        8PY         0.00000   0.24539   0.00000   0.00000   0.19355
  14        8PZ         0.18859   0.00000   0.00000   0.00000   0.00000
  15        9PX         0.00000   0.00000   0.02142   0.00352   0.00000
  16        9PY         0.00000   0.04106   0.00000   0.00000   0.10240
  17        9PZ         0.00403   0.00000   0.00000   0.00000   0.00000
  18       10D 0       -0.01203   0.00000   0.00000   0.00000   0.00000
  19       10D+1        0.00000   0.00000  -0.00984  -0.01255   0.00000
  20       10D-1        0.00000  -0.00103   0.00000   0.00000  -0.03057
  21       10D+2       -0.00014   0.00000   0.00000   0.00000   0.00000
  22       10D-2        0.00000   0.00000   0.00000   0.00000   0.00000
  23       11D 0       -0.02952   0.00000   0.00000   0.00000   0.00000
  24       11D+1        0.00000   0.00000  -0.02791  -0.01206   0.00000
  25       11D-1        0.00000  -0.00246   0.00000   0.00000  -0.04025
  26       11D+2       -0.00104   0.00000   0.00000   0.00000   0.00000
  27       11D-2        0.00000   0.00000   0.00000   0.00000   0.00000
  28       12D 0       -0.00773   0.00000   0.00000   0.00000   0.00000
  29       12D+1        0.00000   0.00000  -0.01237   0.01455   0.00000
  30       12D-1        0.00000  -0.00383   0.00000   0.00000   0.01303
  31       12D+2       -0.00114   0.00000   0.00000   0.00000   0.00000
  32       12D-2        0.00000   0.00000   0.00000   0.00000   0.00000
  33       13F 0        0.00487   0.00000   0.00000   0.00000   0.00000
  34       13F+1        0.00000   0.00000   0.00495   0.00443   0.00000
  35       13F-1        0.00000   0.00053   0.00000   0.00000   0.00697
  36       13F+2        0.00122   0.00000   0.00000   0.00000   0.00000
  37       13F-2        0.00000   0.00000   0.00000   0.00000   0.00000
  38       13F+3        0.00000   0.00000   0.00157  -0.00365   0.00000
  39       13F-3        0.00000   0.00128   0.00000   0.00000  -0.00168
  40       14F 0        0.00663   0.00000   0.00000   0.00000   0.00000
  41       14F+1        0.00000   0.00000   0.00347  -0.00339   0.00000
  42       14F-1        0.00000   0.00175   0.00000   0.00000  -0.00191
  43       14F+2        0.00092   0.00000   0.00000   0.00000   0.00000
  44       14F-2        0.00000   0.00000   0.00000   0.00000   0.00000
  45       14F+3        0.00000   0.00000   0.00121  -0.00315   0.00000
  46       14F-3        0.00000  -0.00003   0.00000   0.00000  -0.00293
  47 2   C  1S          0.01979   0.00000   0.00000   0.00000   0.00000
  48        2S         -0.04207   0.00000   0.00000   0.00000   0.00000
  49        3S         -0.01227   0.00000   0.00000   0.00000   0.00000
  50        4S          0.09813   0.00000   0.00000   0.00000   0.00000
  51        5S          0.00062   0.00000   0.00000   0.00000   0.00000
  52        6PX         0.00000   0.00000   0.18938   0.31016   0.00000
  53        6PY         0.00000  -0.16519   0.00000   0.00000   0.33085
  54        6PZ        -0.23728   0.00000   0.00000   0.00000   0.00000
  55        7PX         0.00000   0.00000   0.24879   0.47806   0.00000
  56        7PY         0.00000  -0.23044   0.00000   0.00000   0.63530
  57        7PZ        -0.25192   0.00000   0.00000   0.00000   0.00000
  58        8PX         0.00000   0.00000   0.12579   0.19016   0.00000
  59        8PY         0.00000  -0.25529   0.00000   0.00000   0.31407
  60        8PZ        -0.08523   0.00000   0.00000   0.00000   0.00000
  61        9PX         0.00000   0.00000   0.00187   0.00334   0.00000
  62        9PY         0.00000  -0.02307   0.00000   0.00000  -0.03964
  63        9PZ        -0.00193   0.00000   0.00000   0.00000   0.00000
  64       10D 0       -0.01881   0.00000   0.00000   0.00000   0.00000
  65       10D+1        0.00000   0.00000   0.01944  -0.00050   0.00000
  66       10D-1        0.00000   0.03271   0.00000   0.00000   0.03908
  67       10D+2       -0.00583   0.00000   0.00000   0.00000   0.00000
  68       10D-2        0.00000   0.00000   0.00000   0.00000   0.00000
  69       11D 0       -0.01270   0.00000   0.00000   0.00000   0.00000
  70       11D+1        0.00000   0.00000   0.02955   0.03614   0.00000
  71       11D-1        0.00000   0.08241   0.00000   0.00000   0.03356
  72       11D+2       -0.00560   0.00000   0.00000   0.00000   0.00000
  73       11D-2        0.00000   0.00000   0.00000   0.00000   0.00000
  74       12D 0       -0.00008   0.00000   0.00000   0.00000   0.00000
  75       12D+1        0.00000   0.00000  -0.00374   0.00887   0.00000
  76       12D-1        0.00000   0.06674   0.00000   0.00000   0.03927
  77       12D+2       -0.00614   0.00000   0.00000   0.00000   0.00000
  78       12D-2        0.00000   0.00000   0.00000   0.00000   0.00000
  79       13F 0       -0.00721   0.00000   0.00000   0.00000   0.00000
  80       13F+1        0.00000   0.00000   0.00678   0.00879   0.00000
  81       13F-1        0.00000   0.00433   0.00000   0.00000   0.02409
  82       13F+2       -0.00161   0.00000   0.00000   0.00000   0.00000
  83       13F-2        0.00000   0.00000   0.00000   0.00000   0.00000
  84       13F+3        0.00000   0.00000   0.00023  -0.00103   0.00000
  85       13F-3        0.00000   0.00254   0.00000   0.00000  -0.00359
  86       14F 0        0.00938   0.00000   0.00000   0.00000   0.00000
  87       14F+1        0.00000   0.00000   0.00469   0.01565   0.00000
  88       14F-1        0.00000   0.00523   0.00000   0.00000   0.10221
  89       14F+2        0.00620   0.00000   0.00000   0.00000   0.00000
  90       14F-2        0.00000   0.00000   0.00000   0.00000   0.00000
  91       14F+3        0.00000   0.00000   0.00238   0.00608   0.00000
  92       14F-3        0.00000   0.00592   0.00000   0.00000   0.00638
  93 3   H  1S          0.06861  -0.13471   0.00000   0.00000  -0.15090
  94        2S          0.09718  -0.16710   0.00000   0.00000  -0.54918
  95        3S          0.00524   0.08837   0.00000   0.00000  -0.44558
  96        4S          0.00021   0.01008   0.00000   0.00000   0.00784
  97        5PX         0.00000   0.00000   0.00350   0.01211   0.00000
  98        5PY        -0.00774   0.00692   0.00000   0.00000  -0.00496
  99        5PZ         0.00133  -0.00474   0.00000   0.00000   0.01819
 100        6PX         0.00000   0.00000   0.01042   0.02390   0.00000
 101        6PY        -0.01298  -0.00747   0.00000   0.00000   0.13192
 102        6PZ         0.00152   0.00462   0.00000   0.00000   0.02491
 103        7PX         0.00000   0.00000  -0.00388  -0.00699   0.00000
 104        7PY         0.00346  -0.04315   0.00000   0.00000   0.08144
 105        7PZ        -0.00320   0.02024   0.00000   0.00000  -0.02644
 106        8D 0       -0.00215   0.00048   0.00000   0.00000   0.00973
 107        8D+1        0.00000   0.00000   0.00119   0.00368   0.00000
 108        8D-1       -0.00126   0.00097   0.00000   0.00000  -0.00834
 109        8D+2       -0.00211   0.00071   0.00000   0.00000   0.00437
 110        8D-2        0.00000   0.00000  -0.00130  -0.00600   0.00000
 111        9D 0        0.00377  -0.00258   0.00000   0.00000   0.00841
 112        9D+1        0.00000   0.00000   0.00140   0.00135   0.00000
 113        9D-1        0.00007   0.00033   0.00000   0.00000   0.01756
 114        9D+2       -0.00227  -0.00138   0.00000   0.00000   0.01804
 115        9D-2        0.00000   0.00000   0.00096   0.00372   0.00000
 116 4   H  1S          0.06861   0.13471   0.00000   0.00000   0.15090
 117        2S          0.09718   0.16710   0.00000   0.00000   0.54918
 118        3S          0.00524  -0.08837   0.00000   0.00000   0.44558
 119        4S          0.00021  -0.01008   0.00000   0.00000  -0.00784
 120        5PX         0.00000   0.00000   0.00350   0.01211   0.00000
 121        5PY         0.00774   0.00692   0.00000   0.00000  -0.00496
 122        5PZ         0.00133   0.00474   0.00000   0.00000  -0.01819
 123        6PX         0.00000   0.00000   0.01042   0.02390   0.00000
 124        6PY         0.01298  -0.00747   0.00000   0.00000   0.13192
 125        6PZ         0.00152  -0.00462   0.00000   0.00000  -0.02491
 126        7PX         0.00000   0.00000  -0.00388  -0.00699   0.00000
 127        7PY        -0.00346  -0.04315   0.00000   0.00000   0.08144
 128        7PZ        -0.00320  -0.02024   0.00000   0.00000   0.02644
 129        8D 0       -0.00215  -0.00048   0.00000   0.00000  -0.00973
 130        8D+1        0.00000   0.00000   0.00119   0.00368   0.00000
 131        8D-1        0.00126   0.00097   0.00000   0.00000  -0.00834
 132        8D+2       -0.00211  -0.00071   0.00000   0.00000  -0.00437
 133        8D-2        0.00000   0.00000   0.00130   0.00600   0.00000
 134        9D 0        0.00377   0.00258   0.00000   0.00000  -0.00841
 135        9D+1        0.00000   0.00000   0.00140   0.00135   0.00000
 136        9D-1       -0.00007   0.00033   0.00000   0.00000   0.01756
 137        9D+2       -0.00227   0.00138   0.00000   0.00000  -0.01804
 138        9D-2        0.00000   0.00000  -0.00096  -0.00372   0.00000
                          11        12        13        14        15
     Eigenvalues --     0.02703   0.02000   0.01215   0.01187   0.00760
   1 1   O  1S         -0.07301  -0.02359   0.00000  -0.23689   0.00000
   2        2S          0.28325   0.10108   0.00000   0.74231   0.00000
   3        3S          0.10841   0.04525   0.00000   0.63333   0.00000
   4        4S          0.62214   0.35523   0.00000  -1.37656   0.00000
   5        5S          0.37800   0.25514   0.00000  -0.58779   0.00000
   6        6PX         0.00000   0.00000   0.00000   0.00000   0.00000
   7        6PY         0.00000   0.00000   0.43629   0.00000   0.14154
   8        6PZ        -0.44103  -0.09538   0.00000   0.26089   0.00000
   9        7PX         0.00000   0.00000   0.00000   0.00000   0.00000
  10        7PY         0.00000   0.00000   0.19278   0.00000   0.02865
  11        7PZ        -0.53282  -0.15114   0.00000   0.06845   0.00000
  12        8PX         0.00000   0.00000   0.00000   0.00000   0.00000
  13        8PY         0.00000   0.00000  -0.42532   0.00000  -0.20799
  14        8PZ        -0.12553  -0.18317   0.00000  -0.11499   0.00000
  15        9PX         0.00000   0.00000   0.00000   0.00000   0.00000
  16        9PY         0.00000   0.00000  -0.06288   0.00000  -0.04820
  17        9PZ        -0.04316  -0.05093   0.00000   0.04213   0.00000
  18       10D 0       -0.03097  -0.01970   0.00000   0.00555   0.00000
  19       10D+1        0.00000   0.00000   0.00000   0.00000   0.00000
  20       10D-1        0.00000   0.00000  -0.00913   0.00000  -0.20798
  21       10D+2       -0.00999   0.00338   0.00000  -0.02477   0.00000
  22       10D-2        0.00000   0.00000   0.00000   0.00000   0.00000
  23       11D 0       -0.01648  -0.03029   0.00000  -0.03134   0.00000
  24       11D+1        0.00000   0.00000   0.00000   0.00000   0.00000
  25       11D-1        0.00000   0.00000  -0.07145   0.00000  -0.51212
  26       11D+2       -0.01972   0.01185   0.00000   0.00123   0.00000
  27       11D-2        0.00000   0.00000   0.00000   0.00000   0.00000
  28       12D 0        0.00167   0.02922   0.00000  -0.02993   0.00000
  29       12D+1        0.00000   0.00000   0.00000   0.00000   0.00000
  30       12D-1        0.00000   0.00000  -0.00800   0.00000  -0.11949
  31       12D+2       -0.00859   0.00332   0.00000   0.00872   0.00000
  32       12D-2        0.00000   0.00000   0.00000   0.00000   0.00000
  33       13F 0        0.00006   0.00419   0.00000  -0.00244   0.00000
  34       13F+1        0.00000   0.00000   0.00000   0.00000   0.00000
  35       13F-1        0.00000   0.00000   0.01223   0.00000   0.03435
  36       13F+2       -0.00092  -0.00161   0.00000   0.00028   0.00000
  37       13F-2        0.00000   0.00000   0.00000   0.00000   0.00000
  38       13F+3        0.00000   0.00000   0.00000   0.00000   0.00000
  39       13F-3        0.00000   0.00000  -0.00261   0.00000  -0.00039
  40       14F 0        0.00808   0.00948   0.00000   0.01879   0.00000
  41       14F+1        0.00000   0.00000   0.00000   0.00000   0.00000
  42       14F-1        0.00000   0.00000   0.00675   0.00000   0.07601
  43       14F+2       -0.00012  -0.00591   0.00000   0.00730   0.00000
  44       14F-2        0.00000   0.00000   0.00000   0.00000   0.00000
  45       14F+3        0.00000   0.00000   0.00000   0.00000   0.00000
  46       14F-3        0.00000   0.00000   0.01726   0.00000   0.00229
  47 2   C  1S          0.16005  -0.12273   0.00000  -0.00123   0.00000
  48        2S         -0.59250   0.48214   0.00000   0.06888   0.00000
  49        3S         -0.24189   0.27591   0.00000   0.06511   0.00000
  50        4S         -0.20978   0.05949   0.00000  -0.10964   0.00000
  51        5S         -0.11331  -0.09142   0.00000   0.11418   0.00000
  52        6PX         0.00000   0.00000   0.00000   0.00000   0.00000
  53        6PY         0.00000   0.00000   0.42170   0.00000  -0.12687
  54        6PZ        -0.25425  -0.39288   0.00000  -0.01485   0.00000
  55        7PX         0.00000   0.00000   0.00000   0.00000   0.00000
  56        7PY         0.00000   0.00000   0.79995   0.00000  -0.15907
  57        7PZ        -0.59462  -0.67986   0.00000   0.13239   0.00000
  58        8PX         0.00000   0.00000   0.00000   0.00000   0.00000
  59        8PY         0.00000   0.00000   0.62288   0.00000   0.09513
  60        8PZ        -0.31624  -0.20640   0.00000   0.27463   0.00000
  61        9PX         0.00000   0.00000   0.00000   0.00000   0.00000
  62        9PY         0.00000   0.00000   0.05068   0.00000   0.00149
  63        9PZ        -0.01423  -0.00716   0.00000   0.02018   0.00000
  64       10D 0        0.01746   0.01385   0.00000   0.01097   0.00000
  65       10D+1        0.00000   0.00000   0.00000   0.00000   0.00000
  66       10D-1        0.00000   0.00000  -0.09904   0.00000   0.24345
  67       10D+2       -0.00517   0.01586   0.00000  -0.02844   0.00000
  68       10D-2        0.00000   0.00000   0.00000   0.00000   0.00000
  69       11D 0       -0.09798  -0.06455   0.00000  -0.01282   0.00000
  70       11D+1        0.00000   0.00000   0.00000   0.00000   0.00000
  71       11D-1        0.00000   0.00000  -0.55911   0.00000   0.09524
  72       11D+2       -0.07745  -0.02682   0.00000  -0.02370   0.00000
  73       11D-2        0.00000   0.00000   0.00000   0.00000   0.00000
  74       12D 0       -0.06562  -0.03499   0.00000   0.10545   0.00000
  75       12D+1        0.00000   0.00000   0.00000   0.00000   0.00000
  76       12D-1        0.00000   0.00000  -0.19849   0.00000  -0.15518
  77       12D+2       -0.02164  -0.02463   0.00000   0.05774   0.00000
  78       12D-2        0.00000   0.00000   0.00000   0.00000   0.00000
  79       13F 0       -0.01008  -0.01535   0.00000   0.00041   0.00000
  80       13F+1        0.00000   0.00000   0.00000   0.00000   0.00000
  81       13F-1        0.00000   0.00000  -0.00829   0.00000   0.00892
  82       13F+2        0.00007   0.01019   0.00000  -0.00071   0.00000
  83       13F-2        0.00000   0.00000   0.00000   0.00000   0.00000
  84       13F+3        0.00000   0.00000   0.00000   0.00000   0.00000
  85       13F-3        0.00000   0.00000  -0.02456   0.00000   0.01776
  86       14F 0       -0.00214  -0.00454   0.00000  -0.02994   0.00000
  87       14F+1        0.00000   0.00000   0.00000   0.00000   0.00000
  88       14F-1        0.00000   0.00000  -0.12058   0.00000  -0.08316
  89       14F+2        0.01699   0.00983   0.00000  -0.01348   0.00000
  90       14F-2        0.00000   0.00000   0.00000   0.00000   0.00000
  91       14F+3        0.00000   0.00000   0.00000   0.00000   0.00000
  92       14F-3        0.00000   0.00000  -0.08800   0.00000   0.01233
  93 3   H  1S          0.09220  -0.24626  -0.09712   0.06234  -0.12273
  94        2S          0.02886  -0.62209  -0.88969   0.14027   0.07471
  95        3S         -0.09912  -0.17894  -0.79244   0.18665   0.04104
  96        4S          0.00703   0.00758  -0.03815  -0.00603   0.01257
  97        5PX         0.00000   0.00000   0.00000   0.00000   0.00000
  98        5PY        -0.00355  -0.02401  -0.03345  -0.01331   0.06414
  99        5PZ        -0.01264  -0.00779   0.01736   0.00811  -0.01107
 100        6PX         0.00000   0.00000   0.00000   0.00000   0.00000
 101        6PY         0.02691   0.05117   0.13195  -0.04442   0.07783
 102        6PZ        -0.06912  -0.07258  -0.17061   0.02862  -0.01230
 103        7PX         0.00000   0.00000   0.00000   0.00000   0.00000
 104        7PY         0.01820   0.01683   0.16401  -0.00929   0.06229
 105        7PZ        -0.05275  -0.03269  -0.09842   0.09701   0.02786
 106        8D 0       -0.00370  -0.01129  -0.00617  -0.00255   0.01877
 107        8D+1        0.00000   0.00000   0.00000   0.00000   0.00000
 108        8D-1        0.00803  -0.00308  -0.00681  -0.00559   0.00517
 109        8D+2       -0.00076  -0.01024  -0.01211  -0.00691   0.01619
 110        8D-2        0.00000   0.00000   0.00000   0.00000   0.00000
 111        9D 0       -0.00541  -0.00031   0.00935  -0.00668   0.02393
 112        9D+1        0.00000   0.00000   0.00000   0.00000   0.00000
 113        9D-1        0.02042   0.01331   0.01441  -0.02004   0.00863
 114        9D+2        0.00004   0.00889   0.00740  -0.00341   0.01809
 115        9D-2        0.00000   0.00000   0.00000   0.00000   0.00000
 116 4   H  1S          0.09220  -0.24626   0.09712   0.06234   0.12273
 117        2S          0.02886  -0.62209   0.88969   0.14027  -0.07471
 118        3S         -0.09912  -0.17894   0.79244   0.18665  -0.04104
 119        4S          0.00703   0.00758   0.03815  -0.00603  -0.01257
 120        5PX         0.00000   0.00000   0.00000   0.00000   0.00000
 121        5PY         0.00355   0.02401  -0.03345   0.01331   0.06414
 122        5PZ        -0.01264  -0.00779  -0.01736   0.00811   0.01107
 123        6PX         0.00000   0.00000   0.00000   0.00000   0.00000
 124        6PY        -0.02691  -0.05117   0.13195   0.04442   0.07783
 125        6PZ        -0.06912  -0.07258   0.17061   0.02862   0.01230
 126        7PX         0.00000   0.00000   0.00000   0.00000   0.00000
 127        7PY        -0.01820  -0.01683   0.16401   0.00929   0.06229
 128        7PZ        -0.05275  -0.03269   0.09842   0.09701  -0.02786
 129        8D 0       -0.00370  -0.01129   0.00617  -0.00255  -0.01877
 130        8D+1        0.00000   0.00000   0.00000   0.00000   0.00000
 131        8D-1       -0.00803   0.00308  -0.00681   0.00559   0.00517
 132        8D+2       -0.00076  -0.01024   0.01211  -0.00691  -0.01619
 133        8D-2        0.00000   0.00000   0.00000   0.00000   0.00000
 134        9D 0       -0.00541  -0.00031  -0.00935  -0.00668  -0.02393
 135        9D+1        0.00000   0.00000   0.00000   0.00000   0.00000
 136        9D-1       -0.02042  -0.01331   0.01441   0.02004   0.00863
 137        9D+2        0.00004   0.00889  -0.00740  -0.00341  -0.01809
 138        9D-2        0.00000   0.00000   0.00000   0.00000   0.00000
                          16        17        18        19        20
     Eigenvalues --     0.00746   0.00718   0.00706   0.00701   0.00606
   1 1   O  1S         -0.01423   0.00000   0.00000  -0.02523   0.00000
   2        2S          0.02904   0.00000   0.00000   0.05534   0.00000
   3        3S          0.03940   0.00000   0.00000   0.07705   0.00000
   4        4S         -0.08678   0.00000   0.00000  -0.20707   0.00000
   5        5S          0.11359   0.00000   0.00000  -0.12753   0.00000
   6        6PX         0.00000   0.21646   0.00000   0.00000  -0.44736
   7        6PY         0.00000   0.00000   0.00000   0.00000   0.00000
   8        6PZ        -0.05600   0.00000   0.00000   0.14364   0.00000
   9        7PX         0.00000   0.10072   0.00000   0.00000  -0.16304
  10        7PY         0.00000   0.00000   0.00000   0.00000   0.00000
  11        7PZ         0.00943   0.00000   0.00000   0.02288   0.00000
  12        8PX         0.00000  -0.39784   0.00000   0.00000   0.53774
  13        8PY         0.00000   0.00000   0.00000   0.00000   0.00000
  14        8PZ         0.19587   0.00000   0.00000  -0.25557   0.00000
  15        9PX         0.00000  -0.08343   0.00000   0.00000   0.08252
  16        9PY         0.00000   0.00000   0.00000   0.00000   0.00000
  17        9PZ        -0.00016   0.00000   0.00000  -0.00850   0.00000
  18       10D 0        0.20428   0.00000   0.00000  -0.07095   0.00000
  19       10D+1        0.00000  -0.19585   0.00000   0.00000  -0.10026
  20       10D-1        0.00000   0.00000   0.00000   0.00000   0.00000
  21       10D+2        0.04593   0.00000   0.00000   0.16439   0.00000
  22       10D-2        0.00000   0.00000   0.19618   0.00000   0.00000
  23       11D 0        0.45247   0.00000   0.00000  -0.16318   0.00000
  24       11D+1        0.00000  -0.46728   0.00000   0.00000  -0.19870
  25       11D-1        0.00000   0.00000   0.00000   0.00000   0.00000
  26       11D+2        0.09325   0.00000   0.00000   0.38971   0.00000
  27       11D-2        0.00000   0.00000   0.43235   0.00000   0.00000
  28       12D 0        0.06030   0.00000   0.00000   0.04323   0.00000
  29       12D+1        0.00000  -0.00441   0.00000   0.00000  -0.07289
  30       12D-1        0.00000   0.00000   0.00000   0.00000   0.00000
  31       12D+2        0.01701   0.00000   0.00000   0.10235   0.00000
  32       12D-2        0.00000   0.00000   0.07658   0.00000   0.00000
  33       13F 0       -0.03771   0.00000   0.00000   0.01624   0.00000
  34       13F+1        0.00000   0.04816   0.00000   0.00000  -0.00568
  35       13F-1        0.00000   0.00000   0.00000   0.00000   0.00000
  36       13F+2       -0.00606   0.00000   0.00000  -0.01983   0.00000
  37       13F-2        0.00000   0.00000  -0.02392   0.00000   0.00000
  38       13F+3        0.00000  -0.00661   0.00000   0.00000   0.01596
  39       13F-3        0.00000   0.00000   0.00000   0.00000   0.00000
  40       14F 0       -0.07231   0.00000   0.00000   0.01298   0.00000
  41       14F+1        0.00000   0.05413   0.00000   0.00000   0.02682
  42       14F-1        0.00000   0.00000   0.00000   0.00000   0.00000
  43       14F+2       -0.00724   0.00000   0.00000  -0.04995   0.00000
  44       14F-2        0.00000   0.00000  -0.04594   0.00000   0.00000
  45       14F+3        0.00000   0.00823   0.00000   0.00000  -0.00997
  46       14F-3        0.00000   0.00000   0.00000   0.00000   0.00000
  47 2   C  1S         -0.05563   0.00000   0.00000   0.09334   0.00000
  48        2S          0.14673   0.00000   0.00000  -0.29101   0.00000
  49        3S          0.10285   0.00000   0.00000  -0.26082   0.00000
  50        4S          0.09718   0.00000   0.00000  -0.61933   0.00000
  51        5S         -0.01844   0.00000   0.00000  -0.07586   0.00000
  52        6PX         0.00000   0.25691   0.00000   0.00000  -0.19757
  53        6PY         0.00000   0.00000   0.00000   0.00000   0.00000
  54        6PZ         0.24694   0.00000   0.00000   0.05155   0.00000
  55        7PX         0.00000   0.15474   0.00000   0.00000  -0.33403
  56        7PY         0.00000   0.00000   0.00000   0.00000   0.00000
  57        7PZ        -0.24961   0.00000   0.00000   0.22329   0.00000
  58        8PX         0.00000  -0.13820   0.00000   0.00000   0.09406
  59        8PY         0.00000   0.00000   0.00000   0.00000   0.00000
  60        8PZ        -0.08214   0.00000   0.00000   0.29885   0.00000
  61        9PX         0.00000   0.02401   0.00000   0.00000  -0.01817
  62        9PY         0.00000   0.00000   0.00000   0.00000   0.00000
  63        9PZ         0.00620   0.00000   0.00000   0.02278   0.00000
  64       10D 0        0.21814   0.00000   0.00000  -0.02900   0.00000
  65       10D+1        0.00000   0.18479   0.00000   0.00000   0.21014
  66       10D-1        0.00000   0.00000   0.00000   0.00000   0.00000
  67       10D+2        0.06115   0.00000   0.00000   0.22243   0.00000
  68       10D-2        0.00000   0.00000   0.24619   0.00000   0.00000
  69       11D 0        0.15199   0.00000   0.00000   0.04218   0.00000
  70       11D+1        0.00000   0.03518   0.00000   0.00000   0.30559
  71       11D-1        0.00000   0.00000   0.00000   0.00000   0.00000
  72       11D+2        0.02817   0.00000   0.00000   0.42806   0.00000
  73       11D-2        0.00000   0.00000   0.31156   0.00000   0.00000
  74       12D 0       -0.03101   0.00000   0.00000   0.08530   0.00000
  75       12D+1        0.00000   0.00645   0.00000   0.00000  -0.04664
  76       12D-1        0.00000   0.00000   0.00000   0.00000   0.00000
  77       12D+2       -0.01618   0.00000   0.00000   0.07548   0.00000
  78       12D-2        0.00000   0.00000   0.00917   0.00000   0.00000
  79       13F 0        0.05375   0.00000   0.00000  -0.05211   0.00000
  80       13F+1        0.00000   0.04214   0.00000   0.00000  -0.00384
  81       13F-1        0.00000   0.00000   0.00000   0.00000   0.00000
  82       13F+2        0.01672   0.00000   0.00000  -0.00005   0.00000
  83       13F-2        0.00000   0.00000   0.00800   0.00000   0.00000
  84       13F+3        0.00000  -0.00181   0.00000   0.00000   0.04724
  85       13F-3        0.00000   0.00000   0.00000   0.00000   0.00000
  86       14F 0       -0.04519   0.00000   0.00000  -0.09065   0.00000
  87       14F+1        0.00000  -0.06416   0.00000   0.00000   0.03430
  88       14F-1        0.00000   0.00000   0.00000   0.00000   0.00000
  89       14F+2       -0.02646   0.00000   0.00000  -0.10944   0.00000
  90       14F-2        0.00000   0.00000  -0.00716   0.00000   0.00000
  91       14F+3        0.00000  -0.06045   0.00000   0.00000   0.03639
  92       14F-3        0.00000   0.00000   0.00000   0.00000   0.00000
  93 3   H  1S         -0.03727   0.00000   0.00000  -0.09641   0.00000
  94        2S         -0.07578   0.00000   0.00000   0.48834   0.00000
  95        3S         -0.05492   0.00000   0.00000   0.43103   0.00000
  96        4S          0.00075   0.00000   0.00000   0.01415   0.00000
  97        5PX         0.00000  -0.01789   0.07083   0.00000  -0.06386
  98        5PY         0.00191   0.00000   0.00000   0.03341   0.00000
  99        5PZ        -0.05725   0.00000   0.00000  -0.04822   0.00000
 100        6PX         0.00000  -0.14817   0.11858   0.00000  -0.04161
 101        6PY         0.05554   0.00000   0.00000  -0.07696   0.00000
 102        6PZ        -0.14758   0.00000   0.00000   0.00972   0.00000
 103        7PX         0.00000  -0.05134   0.00487   0.00000  -0.00021
 104        7PY         0.01769   0.00000   0.00000  -0.05343   0.00000
 105        7PZ        -0.07111   0.00000   0.00000   0.06878   0.00000
 106        8D 0       -0.01287   0.00000   0.00000  -0.01546   0.00000
 107        8D+1        0.00000  -0.00318   0.02564   0.00000  -0.01067
 108        8D-1        0.02861   0.00000   0.00000   0.01421   0.00000
 109        8D+2       -0.00034   0.00000   0.00000   0.01064   0.00000
 110        8D-2        0.00000   0.01620  -0.03880   0.00000   0.03295
 111        9D 0       -0.02220   0.00000   0.00000  -0.01339   0.00000
 112        9D+1        0.00000  -0.05678   0.00198   0.00000   0.03344
 113        9D-1        0.02767   0.00000   0.00000  -0.01073   0.00000
 114        9D+2        0.02212   0.00000   0.00000   0.01931   0.00000
 115        9D-2        0.00000   0.02902  -0.00675   0.00000  -0.01375
 116 4   H  1S         -0.03727   0.00000   0.00000  -0.09641   0.00000
 117        2S         -0.07578   0.00000   0.00000   0.48834   0.00000
 118        3S         -0.05492   0.00000   0.00000   0.43103   0.00000
 119        4S          0.00075   0.00000   0.00000   0.01415   0.00000
 120        5PX         0.00000  -0.01789  -0.07083   0.00000  -0.06386
 121        5PY        -0.00191   0.00000   0.00000  -0.03341   0.00000
 122        5PZ        -0.05725   0.00000   0.00000  -0.04822   0.00000
 123        6PX         0.00000  -0.14817  -0.11858   0.00000  -0.04161
 124        6PY        -0.05554   0.00000   0.00000   0.07696   0.00000
 125        6PZ        -0.14758   0.00000   0.00000   0.00972   0.00000
 126        7PX         0.00000  -0.05134  -0.00487   0.00000  -0.00021
 127        7PY        -0.01769   0.00000   0.00000   0.05343   0.00000
 128        7PZ        -0.07111   0.00000   0.00000   0.06878   0.00000
 129        8D 0       -0.01287   0.00000   0.00000  -0.01546   0.00000
 130        8D+1        0.00000  -0.00318  -0.02564   0.00000  -0.01067
 131        8D-1       -0.02861   0.00000   0.00000  -0.01421   0.00000
 132        8D+2       -0.00034   0.00000   0.00000   0.01064   0.00000
 133        8D-2        0.00000  -0.01620  -0.03880   0.00000  -0.03295
 134        9D 0       -0.02220   0.00000   0.00000  -0.01339   0.00000
 135        9D+1        0.00000  -0.05678  -0.00198   0.00000   0.03344
 136        9D-1       -0.02767   0.00000   0.00000   0.01073   0.00000
 137        9D+2        0.02212   0.00000   0.00000   0.01931   0.00000
 138        9D-2        0.00000  -0.02902  -0.00675   0.00000   0.01375
                          21        22        23        24        25
     Eigenvalues --     0.00520   0.00485   0.00336   0.00284   0.00252
   1 1   O  1S         -0.00720   0.00000   0.00000   0.11645   0.00000
   2        2S          0.01712   0.00000   0.00000  -0.32560   0.00000
   3        3S          0.00221   0.00000   0.00000  -0.36960   0.00000
   4        4S          0.39008   0.00000   0.00000  -0.28044   0.00000
   5        5S          0.13046   0.00000   0.00000  -0.49030   0.00000
   6        6PX         0.00000   0.00000   0.00000   0.00000  -0.15128
   7        6PY         0.00000   0.00000   0.19283   0.00000   0.00000
   8        6PZ        -0.20124   0.00000   0.00000   0.36819   0.00000
   9        7PX         0.00000   0.00000   0.00000   0.00000   0.03888
  10        7PY         0.00000   0.00000  -0.04845   0.00000   0.00000
  11        7PZ        -0.04887   0.00000   0.00000   0.08501   0.00000
  12        8PX         0.00000   0.00000   0.00000   0.00000  -0.40020
  13        8PY         0.00000   0.00000  -0.72835   0.00000   0.00000
  14        8PZ         0.01435   0.00000   0.00000  -0.24651   0.00000
  15        9PX         0.00000   0.00000   0.00000   0.00000  -0.06443
  16        9PY         0.00000   0.00000  -0.04694   0.00000   0.00000
  17        9PZ        -0.01865   0.00000   0.00000   0.06229   0.00000
  18       10D 0        0.06047   0.00000   0.00000  -0.16891   0.00000
  19       10D+1        0.00000   0.00000   0.00000   0.00000   0.32888
  20       10D-1        0.00000   0.00000   0.30170   0.00000   0.00000
  21       10D+2        0.26161   0.00000   0.00000   0.08227   0.00000
  22       10D-2        0.00000   0.27458   0.00000   0.00000   0.00000
  23       11D 0        0.13594   0.00000   0.00000  -0.34684   0.00000
  24       11D+1        0.00000   0.00000   0.00000   0.00000   0.55147
  25       11D-1        0.00000   0.00000   0.46667   0.00000   0.00000
  26       11D+2        0.51162   0.00000   0.00000   0.06443   0.00000
  27       11D-2        0.00000   0.51604   0.00000   0.00000   0.00000
  28       12D 0        0.02320   0.00000   0.00000   0.03865   0.00000
  29       12D+1        0.00000   0.00000   0.00000   0.00000   0.18762
  30       12D-1        0.00000   0.00000   0.18358   0.00000   0.00000
  31       12D+2        0.07599   0.00000   0.00000  -0.07467   0.00000
  32       12D-2        0.00000   0.09836   0.00000   0.00000   0.00000
  33       13F 0       -0.01205   0.00000   0.00000   0.00750   0.00000
  34       13F+1        0.00000   0.00000   0.00000   0.00000   0.03178
  35       13F-1        0.00000   0.00000   0.00537   0.00000   0.00000
  36       13F+2       -0.01234   0.00000   0.00000  -0.00073   0.00000
  37       13F-2        0.00000   0.00004   0.00000   0.00000   0.00000
  38       13F+3        0.00000   0.00000   0.00000   0.00000  -0.01010
  39       13F-3        0.00000   0.00000  -0.00153   0.00000   0.00000
  40       14F 0       -0.01216   0.00000   0.00000   0.02180   0.00000
  41       14F+1        0.00000   0.00000   0.00000   0.00000  -0.02372
  42       14F-1        0.00000   0.00000  -0.02072   0.00000   0.00000
  43       14F+2       -0.03541   0.00000   0.00000   0.03833   0.00000
  44       14F-2        0.00000  -0.02499   0.00000   0.00000   0.00000
  45       14F+3        0.00000   0.00000   0.00000   0.00000  -0.01569
  46       14F-3        0.00000   0.00000  -0.00245   0.00000   0.00000
  47 2   C  1S         -0.03707   0.00000   0.00000  -0.04114   0.00000
  48        2S          0.12478   0.00000   0.00000   0.15938   0.00000
  49        3S          0.11920   0.00000   0.00000   0.14872   0.00000
  50        4S         -0.22319   0.00000   0.00000  -0.18086   0.00000
  51        5S         -0.07762   0.00000   0.00000   0.05023   0.00000
  52        6PX         0.00000   0.00000   0.00000   0.00000   0.50733
  53        6PY         0.00000   0.00000   0.12080   0.00000   0.00000
  54        6PZ        -0.14707   0.00000   0.00000   0.23295   0.00000
  55        7PX         0.00000   0.00000   0.00000   0.00000   0.40596
  56        7PY         0.00000   0.00000   0.31011   0.00000   0.00000
  57        7PZ        -0.26341   0.00000   0.00000   0.15912   0.00000
  58        8PX         0.00000   0.00000   0.00000   0.00000   0.13925
  59        8PY         0.00000   0.00000   1.50044   0.00000   0.00000
  60        8PZ        -0.10525   0.00000   0.00000   0.68984   0.00000
  61        9PX         0.00000   0.00000   0.00000   0.00000   0.01396
  62        9PY         0.00000   0.00000   0.02754   0.00000   0.00000
  63        9PZ        -0.00375   0.00000   0.00000   0.03416   0.00000
  64       10D 0       -0.08412   0.00000   0.00000   0.28733   0.00000
  65       10D+1        0.00000   0.00000   0.00000   0.00000   0.18562
  66       10D-1        0.00000   0.00000   0.10457   0.00000   0.00000
  67       10D+2       -0.11497   0.00000   0.00000  -0.05474   0.00000
  68       10D-2        0.00000  -0.20778   0.00000   0.00000   0.00000
  69       11D 0       -0.21653   0.00000   0.00000   0.52396   0.00000
  70       11D+1        0.00000   0.00000   0.00000   0.00000   0.37791
  71       11D-1        0.00000   0.00000   0.29734   0.00000   0.00000
  72       11D+2       -0.24258   0.00000   0.00000  -0.11547   0.00000
  73       11D-2        0.00000  -0.25682   0.00000   0.00000   0.00000
  74       12D 0       -0.00818   0.00000   0.00000   0.24126   0.00000
  75       12D+1        0.00000   0.00000   0.00000   0.00000   0.03634
  76       12D-1        0.00000   0.00000  -0.14369   0.00000   0.00000
  77       12D+2        0.03620   0.00000   0.00000   0.15375   0.00000
  78       12D-2        0.00000   0.04500   0.00000   0.00000   0.00000
  79       13F 0        0.06469   0.00000   0.00000  -0.03428   0.00000
  80       13F+1        0.00000   0.00000   0.00000   0.00000  -0.00488
  81       13F-1        0.00000   0.00000  -0.22309   0.00000   0.00000
  82       13F+2        0.09122   0.00000   0.00000   0.07228   0.00000
  83       13F-2        0.00000   0.10086   0.00000   0.00000   0.00000
  84       13F+3        0.00000   0.00000   0.00000   0.00000   0.03724
  85       13F-3        0.00000   0.00000  -0.00345   0.00000   0.00000
  86       14F 0        0.05223   0.00000   0.00000   0.18004   0.00000
  87       14F+1        0.00000   0.00000   0.00000   0.00000   0.09054
  88       14F-1        0.00000   0.00000   0.02638   0.00000   0.00000
  89       14F+2        0.07702   0.00000   0.00000   0.10823   0.00000
  90       14F-2        0.00000   0.00688   0.00000   0.00000   0.00000
  91       14F+3        0.00000   0.00000   0.00000   0.00000   0.00281
  92       14F-3        0.00000   0.00000   0.00547   0.00000   0.00000
  93 3   H  1S          0.16206   0.00000  -0.29144   0.23720   0.00000
  94        2S         -0.24473   0.00000  -0.13149  -0.09710   0.00000
  95        3S         -0.10807   0.00000  -1.12371   0.28380   0.00000
  96        4S          0.00651   0.00000  -0.01695   0.00169   0.00000
  97        5PX         0.00000  -0.09244   0.00000   0.00000  -0.09064
  98        5PY        -0.01689   0.00000   0.10524  -0.10187   0.00000
  99        5PZ         0.06501   0.00000   0.01823  -0.04298   0.00000
 100        6PX         0.00000  -0.20045   0.00000   0.00000  -0.23500
 101        6PY         0.07122   0.00000   0.15463  -0.06843   0.00000
 102        6PZ         0.03374   0.00000   0.07406  -0.12272   0.00000
 103        7PX         0.00000  -0.06568   0.00000   0.00000  -0.07183
 104        7PY         0.03993   0.00000   0.33372   0.02169   0.00000
 105        7PZ         0.00319   0.00000  -0.17667   0.10124   0.00000
 106        8D 0        0.02069   0.00000   0.00813  -0.03388   0.00000
 107        8D+1        0.00000  -0.02927   0.00000   0.00000  -0.01952
 108        8D-1       -0.02304   0.00000   0.01751   0.01032   0.00000
 109        8D+2       -0.00307   0.00000   0.02706  -0.04760   0.00000
 110        8D-2        0.00000   0.04228   0.00000   0.00000   0.04547
 111        9D 0        0.00177   0.00000   0.01487   0.02196   0.00000
 112        9D+1        0.00000   0.00146   0.00000   0.00000  -0.01700
 113        9D-1        0.00521   0.00000   0.00232   0.02355   0.00000
 114        9D+2       -0.01281   0.00000   0.03177  -0.01363   0.00000
 115        9D-2        0.00000   0.02239   0.00000   0.00000   0.03809
 116 4   H  1S          0.16206   0.00000   0.29144   0.23720   0.00000
 117        2S         -0.24473   0.00000   0.13149  -0.09710   0.00000
 118        3S         -0.10807   0.00000   1.12371   0.28380   0.00000
 119        4S          0.00651   0.00000   0.01695   0.00169   0.00000
 120        5PX         0.00000   0.09244   0.00000   0.00000  -0.09064
 121        5PY         0.01689   0.00000   0.10524   0.10187   0.00000
 122        5PZ         0.06501   0.00000  -0.01823  -0.04298   0.00000
 123        6PX         0.00000   0.20045   0.00000   0.00000  -0.23500
 124        6PY        -0.07122   0.00000   0.15463   0.06843   0.00000
 125        6PZ         0.03374   0.00000  -0.07406  -0.12272   0.00000
 126        7PX         0.00000   0.06568   0.00000   0.00000  -0.07183
 127        7PY        -0.03993   0.00000   0.33372  -0.02169   0.00000
 128        7PZ         0.00319   0.00000   0.17667   0.10124   0.00000
 129        8D 0        0.02069   0.00000  -0.00813  -0.03388   0.00000
 130        8D+1        0.00000   0.02927   0.00000   0.00000  -0.01952
 131        8D-1        0.02304   0.00000   0.01751  -0.01032   0.00000
 132        8D+2       -0.00307   0.00000  -0.02706  -0.04760   0.00000
 133        8D-2        0.00000   0.04228   0.00000   0.00000  -0.04547
 134        9D 0        0.00177   0.00000  -0.01487   0.02196   0.00000
 135        9D+1        0.00000  -0.00146   0.00000   0.00000  -0.01700
 136        9D-1       -0.00521   0.00000   0.00232  -0.02355   0.00000
 137        9D+2       -0.01281   0.00000  -0.03177  -0.01363   0.00000
 138        9D-2        0.00000   0.02239   0.00000   0.00000  -0.03809
                          26        27        28        29        30
     Eigenvalues --     0.00212   0.00164   0.00141   0.00132   0.00107
   1 1   O  1S          0.00000   0.01113   0.04972   0.00000   0.00000
   2        2S          0.00000  -0.04572  -0.27884   0.00000   0.00000
   3        3S          0.00000  -0.04010  -0.27207   0.00000   0.00000
   4        4S          0.00000  -0.01740   0.21345   0.00000   0.00000
   5        5S          0.00000   0.14822  -0.45181   0.00000   0.00000
   6        6PX         0.00000   0.00000   0.00000   0.00000   0.00000
   7        6PY        -0.28957   0.00000   0.00000  -0.47334   0.00000
   8        6PZ         0.00000   0.24153   0.13482   0.00000   0.00000
   9        7PX         0.00000   0.00000   0.00000   0.00000   0.00000
  10        7PY         0.13962   0.00000   0.00000   0.50186   0.00000
  11        7PZ         0.00000  -0.16268   0.13422   0.00000   0.00000
  12        8PX         0.00000   0.00000   0.00000   0.00000   0.00000
  13        8PY        -0.23688   0.00000   0.00000  -0.07683   0.00000
  14        8PZ         0.00000  -0.31810  -1.00487   0.00000   0.00000
  15        9PX         0.00000   0.00000   0.00000   0.00000   0.00000
  16        9PY        -0.05022   0.00000   0.00000  -0.19937   0.00000
  17        9PZ         0.00000  -0.01640   0.05206   0.00000   0.00000
  18       10D 0        0.00000   0.20898   0.38557   0.00000   0.00000
  19       10D+1        0.00000   0.00000   0.00000   0.00000   0.00000
  20       10D-1        0.05398   0.00000   0.00000   0.15947   0.00000
  21       10D+2        0.00000   0.25210  -0.10173   0.00000   0.00000
  22       10D-2        0.00000   0.00000   0.00000   0.00000  -0.34588
  23       11D 0        0.00000   0.19973   0.34480   0.00000   0.00000
  24       11D+1        0.00000   0.00000   0.00000   0.00000   0.00000
  25       11D-1        0.21092   0.00000   0.00000   0.18281   0.00000
  26       11D+2        0.00000   0.23550  -0.17207   0.00000   0.00000
  27       11D-2        0.00000   0.00000   0.00000   0.00000  -0.21170
  28       12D 0        0.00000   0.05575   0.22238   0.00000   0.00000
  29       12D+1        0.00000   0.00000   0.00000   0.00000   0.00000
  30       12D-1        0.14283   0.00000   0.00000   0.09446   0.00000
  31       12D+2        0.00000  -0.03310  -0.06251   0.00000   0.00000
  32       12D-2        0.00000   0.00000   0.00000   0.00000   0.09441
  33       13F 0        0.00000   0.07921   0.13016   0.00000   0.00000
  34       13F+1        0.00000   0.00000   0.00000   0.00000   0.00000
  35       13F-1       -0.00438   0.00000   0.00000   0.15368   0.00000
  36       13F+2        0.00000   0.06016  -0.05466   0.00000   0.00000
  37       13F-2        0.00000   0.00000   0.00000   0.00000  -0.21152
  38       13F+3        0.00000   0.00000   0.00000   0.00000   0.00000
  39       13F-3        0.01281   0.00000   0.00000  -0.01026   0.00000
  40       14F 0        0.00000   0.01966   0.05731   0.00000   0.00000
  41       14F+1        0.00000   0.00000   0.00000   0.00000   0.00000
  42       14F-1       -0.05111   0.00000   0.00000   0.04677   0.00000
  43       14F+2        0.00000   0.04670  -0.01666   0.00000   0.00000
  44       14F-2        0.00000   0.00000   0.00000   0.00000  -0.14264
  45       14F+3        0.00000   0.00000   0.00000   0.00000   0.00000
  46       14F-3       -0.01697   0.00000   0.00000  -0.01286   0.00000
  47 2   C  1S          0.00000   0.07765   0.14726   0.00000   0.00000
  48        2S          0.00000  -0.29932  -0.49565   0.00000   0.00000
  49        3S          0.00000  -0.38444  -0.65891   0.00000   0.00000
  50        4S          0.00000   1.20875  -1.32298   0.00000   0.00000
  51        5S          0.00000   0.04712  -0.09582   0.00000   0.00000
  52        6PX         0.00000   0.00000   0.00000   0.00000   0.00000
  53        6PY         0.30051   0.00000   0.00000   0.13964   0.00000
  54        6PZ         0.00000  -0.28533  -0.48162   0.00000   0.00000
  55        7PX         0.00000   0.00000   0.00000   0.00000   0.00000
  56        7PY         0.30445   0.00000   0.00000   0.41059   0.00000
  57        7PZ         0.00000  -0.08094   0.10563   0.00000   0.00000
  58        8PX         0.00000   0.00000   0.00000   0.00000   0.00000
  59        8PY         1.46483   0.00000   0.00000  -1.27304   0.00000
  60        8PZ         0.00000  -0.27207   0.84352   0.00000   0.00000
  61        9PX         0.00000   0.00000   0.00000   0.00000   0.00000
  62        9PY         0.04858   0.00000   0.00000   0.03276   0.00000
  63        9PZ         0.00000  -0.01962  -0.00749   0.00000   0.00000
  64       10D 0        0.00000   0.11689   0.11336   0.00000   0.00000
  65       10D+1        0.00000   0.00000   0.00000   0.00000   0.00000
  66       10D-1       -0.03487   0.00000   0.00000   0.53066   0.00000
  67       10D+2        0.00000  -0.28800   0.24042   0.00000   0.00000
  68       10D-2        0.00000   0.00000   0.00000   0.00000   0.25259
  69       11D 0        0.00000   0.17204   0.23775   0.00000   0.00000
  70       11D+1        0.00000   0.00000   0.00000   0.00000   0.00000
  71       11D-1        0.08531   0.00000   0.00000  -0.03653   0.00000
  72       11D+2        0.00000  -0.46630   0.28353   0.00000   0.00000
  73       11D-2        0.00000   0.00000   0.00000   0.00000   0.35981
  74       12D 0        0.00000   0.06625   0.47553   0.00000   0.00000
  75       12D+1        0.00000   0.00000   0.00000   0.00000   0.00000
  76       12D-1       -0.42127   0.00000   0.00000   0.08293   0.00000
  77       12D+2        0.00000  -0.03287   0.31045   0.00000   0.00000
  78       12D-2        0.00000   0.00000   0.00000   0.00000   0.00704
  79       13F 0        0.00000  -0.12352   0.03070   0.00000   0.00000
  80       13F+1        0.00000   0.00000   0.00000   0.00000   0.00000
  81       13F-1        0.24630   0.00000   0.00000   0.07707   0.00000
  82       13F+2        0.00000  -0.18623   0.10911   0.00000   0.00000
  83       13F-2        0.00000   0.00000   0.00000   0.00000   0.39073
  84       13F+3        0.00000   0.00000   0.00000   0.00000   0.00000
  85       13F-3        0.13934   0.00000   0.00000  -0.10602   0.00000
  86       14F 0        0.00000  -0.06958   0.11296   0.00000   0.00000
  87       14F+1        0.00000   0.00000   0.00000   0.00000   0.00000
  88       14F-1        0.15671   0.00000   0.00000   0.05889   0.00000
  89       14F+2        0.00000  -0.07458   0.07241   0.00000   0.00000
  90       14F-2        0.00000   0.00000   0.00000   0.00000   0.15005
  91       14F+3        0.00000   0.00000   0.00000   0.00000   0.00000
  92       14F-3        0.02807   0.00000   0.00000  -0.04267   0.00000
  93 3   H  1S         -0.39167  -0.25799   0.23518   0.30071   0.00000
  94        2S         -0.23759  -0.25869   0.28534  -0.13940   0.00000
  95        3S         -1.17233  -0.26449   0.78127   0.88812   0.00000
  96        4S         -0.02192  -0.00961   0.01160  -0.00246   0.00000
  97        5PX         0.00000   0.00000   0.00000   0.00000  -0.11402
  98        5PY         0.02521   0.02050  -0.05418   0.02891   0.00000
  99        5PZ        -0.15863   0.02161  -0.00922   0.03053   0.00000
 100        6PX         0.00000   0.00000   0.00000   0.00000  -0.28236
 101        6PY        -0.02793   0.05669  -0.10137   0.30098   0.00000
 102        6PZ        -0.29281   0.00973   0.10106  -0.07805   0.00000
 103        7PX         0.00000   0.00000   0.00000   0.00000  -0.05174
 104        7PY         0.30576   0.09886   0.01676  -0.13078   0.00000
 105        7PZ        -0.19324  -0.02334   0.36210   0.07411   0.00000
 106        8D 0       -0.03076   0.01845  -0.02341   0.03421   0.00000
 107        8D+1        0.00000   0.00000   0.00000   0.00000  -0.00487
 108        8D-1        0.05154   0.01026  -0.01519  -0.02450   0.00000
 109        8D+2        0.00762   0.00138  -0.03208   0.01294   0.00000
 110        8D-2        0.00000   0.00000   0.00000   0.00000   0.02816
 111        9D 0       -0.02892  -0.01317   0.02453   0.01320   0.00000
 112        9D+1        0.00000   0.00000   0.00000   0.00000  -0.02137
 113        9D-1        0.03389  -0.01555  -0.03632   0.02832   0.00000
 114        9D+2       -0.00252  -0.00188   0.00932   0.04984   0.00000
 115        9D-2        0.00000   0.00000   0.00000   0.00000   0.04614
 116 4   H  1S          0.39167  -0.25799   0.23518  -0.30071   0.00000
 117        2S          0.23759  -0.25869   0.28534   0.13940   0.00000
 118        3S          1.17233  -0.26449   0.78127  -0.88812   0.00000
 119        4S          0.02192  -0.00961   0.01160   0.00246   0.00000
 120        5PX         0.00000   0.00000   0.00000   0.00000   0.11402
 121        5PY         0.02521  -0.02050   0.05418   0.02891   0.00000
 122        5PZ         0.15863   0.02161  -0.00922  -0.03053   0.00000
 123        6PX         0.00000   0.00000   0.00000   0.00000   0.28236
 124        6PY        -0.02793  -0.05669   0.10137   0.30098   0.00000
 125        6PZ         0.29281   0.00973   0.10106   0.07805   0.00000
 126        7PX         0.00000   0.00000   0.00000   0.00000   0.05174
 127        7PY         0.30576  -0.09886  -0.01676  -0.13078   0.00000
 128        7PZ         0.19324  -0.02334   0.36210  -0.07411   0.00000
 129        8D 0        0.03076   0.01845  -0.02341  -0.03421   0.00000
 130        8D+1        0.00000   0.00000   0.00000   0.00000   0.00487
 131        8D-1        0.05154  -0.01026   0.01519  -0.02450   0.00000
 132        8D+2       -0.00762   0.00138  -0.03208  -0.01294   0.00000
 133        8D-2        0.00000   0.00000   0.00000   0.00000   0.02816
 134        9D 0        0.02892  -0.01317   0.02453  -0.01320   0.00000
 135        9D+1        0.00000   0.00000   0.00000   0.00000   0.02137
 136        9D-1        0.03389   0.01555   0.03632   0.02832   0.00000
 137        9D+2        0.00252  -0.00188   0.00932  -0.04984   0.00000
 138        9D-2        0.00000   0.00000   0.00000   0.00000   0.04614
                          31        32        33        34        35
     Eigenvalues --     0.00107   0.00088   0.00084   0.00081   0.00065
   1 1   O  1S          0.00000   0.00000   0.04779   0.00000   0.26589
   2        2S          0.00000   0.00000   0.00496   0.00000   0.22320
   3        3S          0.00000   0.00000  -0.11619   0.00000  -0.70627
   4        4S          0.00000   0.00000   0.12584   0.00000  -0.04565
   5        5S          0.00000   0.00000   0.14466   0.00000  -0.57976
   6        6PX         0.72331   0.00682   0.00000   0.00000   0.00000
   7        6PY         0.00000   0.00000   0.00000   0.69012   0.00000
   8        6PZ         0.00000   0.00000   0.23885   0.00000  -0.73238
   9        7PX        -0.62287  -0.05517   0.00000   0.00000   0.00000
  10        7PY         0.00000   0.00000   0.00000  -1.08549   0.00000
  11        7PZ         0.00000   0.00000  -0.22017   0.00000   1.20758
  12        8PX        -0.19889   0.43732   0.00000   0.00000   0.00000
  13        8PY         0.00000   0.00000   0.00000  -0.44255   0.00000
[...]
  14        8PZ         0.00000   3.62819   0.00000   0.00000   0.88455
  15        9PX        -0.76689   0.00000   0.00000   0.00000   0.00000
  16        9PY         0.00000   0.00000  -0.66335  -0.10385   0.00000
  17        9PZ         0.00000   5.50884   0.00000   0.00000  -0.29756
  18       10D 0        0.00000  -0.02951   0.00000   0.00000   0.00984
  19       10D+1        0.00516   0.00000   0.00000   0.00000   0.00000
  20       10D-1        0.00000   0.00000   0.01043  -0.00699   0.00000
  21       10D+2        0.00000   0.03492   0.00000   0.00000   0.00773
  22       10D-2        0.00000   0.00000   0.00000   0.00000   0.00000
  23       11D 0        0.00000   0.05061   0.00000   0.00000  -0.05543
  24       11D+1       -0.05847   0.00000   0.00000   0.00000   0.00000
  25       11D-1        0.00000   0.00000  -0.07713   0.09531   0.00000
  26       11D+2        0.00000  -0.13048   0.00000   0.00000  -0.02782
  27       11D-2        0.00000   0.00000   0.00000   0.00000   0.00000
  28       12D 0        0.00000  -1.73466   0.00000   0.00000  -0.47125
  29       12D+1       -0.09671   0.00000   0.00000   0.00000   0.00000
  30       12D-1        0.00000   0.00000  -1.60867   0.97563   0.00000
  31       12D+2        0.00000   0.30565   0.00000   0.00000  -0.01802
  32       12D-2        0.00000   0.00000   0.00000   0.00000   0.00000
  33       13F 0        0.00000  -0.00551   0.00000   0.00000  -0.00826
  34       13F+1       -0.00740   0.00000   0.00000   0.00000   0.00000
  35       13F-1        0.00000   0.00000  -0.04372   0.02209   0.00000
  36       13F+2        0.00000   0.00518   0.00000   0.00000  -0.00349
  37       13F-2        0.00000   0.00000   0.00000   0.00000   0.00000
  38       13F+3        0.01916   0.00000   0.00000   0.00000   0.00000
  39       13F-3        0.00000   0.00000   0.01282  -0.01143   0.00000
  40       14F 0        0.00000   0.13052   0.00000   0.00000   0.08438
  41       14F+1        0.08010   0.00000   0.00000   0.00000   0.00000
  42       14F-1        0.00000   0.00000   0.17847  -0.11678   0.00000
  43       14F+2        0.00000  -0.01993   0.00000   0.00000   0.00207
  44       14F-2        0.00000   0.00000   0.00000   0.00000   0.00000
  45       14F+3       -0.03136   0.00000   0.00000   0.00000   0.00000
  46       14F-3        0.00000   0.00000  -0.02843   0.01346   0.00000
  47 2   C  1S          0.00000   0.06783   0.00000   0.00000   0.21303
  48        2S          0.00000   0.37542   0.00000   0.00000   1.28270
  49        3S          0.00000  -0.07475   0.00000   0.00000   0.00040
  50        4S          0.00000   5.02851   0.00000   0.00000  25.69650
  51        5S          0.00000   7.86847   0.00000   0.00000  10.39703
  52        6PX         0.00711   0.00000   0.00000   0.00000   0.00000
  53        6PY         0.00000   0.00000   0.02889   0.00841   0.00000
  54        6PZ         0.00000   0.00179   0.00000   0.00000   0.03551
  55        7PX        -0.03263   0.00000   0.00000   0.00000   0.00000
  56        7PY         0.00000   0.00000  -1.82339  -1.55456   0.00000
  57        7PZ         0.00000   0.71942   0.00000   0.00000  -1.05136
  58        8PX         3.53831   0.00000   0.00000   0.00000   0.00000
  59        8PY         0.00000   0.00000 -16.39370  -9.46245   0.00000
  60        8PZ         0.00000  -2.54296   0.00000   0.00000  -9.44772
  61        9PX         2.30772   0.00000   0.00000   0.00000   0.00000
  62        9PY         0.00000   0.00000   1.55650  -5.33029   0.00000
  63        9PZ         0.00000  -2.25338   0.00000   0.00000  -2.07751
  64       10D 0        0.00000  -0.05673   0.00000   0.00000   0.02172
  65       10D+1        0.01559   0.00000   0.00000   0.00000   0.00000
  66       10D-1        0.00000   0.00000   0.01510   0.02357   0.00000
  67       10D+2        0.00000   0.02301   0.00000   0.00000  -0.05500
  68       10D-2        0.00000   0.00000   0.00000   0.00000   0.00000
  69       11D 0        0.00000   0.73524   0.00000   0.00000   0.13366
  70       11D+1       -0.33729   0.00000   0.00000   0.00000   0.00000
  71       11D-1        0.00000   0.00000   1.37246   1.27765   0.00000
  72       11D+2        0.00000  -0.22424   0.00000   0.00000  -0.95139
  73       11D-2        0.00000   0.00000   0.00000   0.00000   0.00000
  74       12D 0        0.00000   1.34736   0.00000   0.00000   1.77891
  75       12D+1       -1.22430   0.00000   0.00000   0.00000   0.00000
  76       12D-1        0.00000   0.00000   2.20428   2.43907   0.00000
  77       12D+2        0.00000   0.30435   0.00000   0.00000  -0.21585
  78       12D-2        0.00000   0.00000   0.00000   0.00000   0.00000
  79       13F 0        0.00000   0.01836   0.00000   0.00000   0.02668
  80       13F+1       -0.03625   0.00000   0.00000   0.00000   0.00000
  81       13F-1        0.00000   0.00000   0.05086  -0.01890   0.00000
  82       13F+2        0.00000   0.00531   0.00000   0.00000   0.04666
  83       13F-2        0.00000   0.00000   0.00000   0.00000   0.00000
  84       13F+3        0.09983   0.00000   0.00000   0.00000   0.00000
  85       13F-3        0.00000   0.00000   0.07167   0.02012   0.00000
  86       14F 0        0.00000  -0.08580   0.00000   0.00000   0.18287
  87       14F+1        0.03399   0.00000   0.00000   0.00000   0.00000
  88       14F-1        0.00000   0.00000  -2.09275   1.07139   0.00000
  89       14F+2        0.00000   0.38585   0.00000   0.00000   0.45141
  90       14F-2        0.00000   0.00000   0.00000   0.00000   0.00000
  91       14F+3       -0.28478   0.00000   0.00000   0.00000   0.00000
  92       14F-3        0.00000   0.00000  -0.24429   0.33347   0.00000
  93 3   H  1S          0.00000   0.01597  -0.06860   0.00634   0.04787
  94        2S          0.00000  -1.27247   3.01708   1.85956  -2.92389
  95        3S          0.00000   1.87444  25.36160  15.70970 -14.80942
  96        4S          0.00000  -1.14269  -1.68670   4.66350  -1.66775
  97        5PX        -0.08827   0.00000   0.00000   0.00000   0.00000
  98        5PY         0.00000   0.01973   0.11324   0.07579  -0.09285
  99        5PZ         0.00000  -0.01978   0.04217  -0.10327   0.02934
 100        6PX         0.03616   0.00000   0.00000   0.00000   0.00000
 101        6PY         0.00000   0.10496  -2.14759  -0.83987   1.52942
 102        6PZ         0.00000   0.34114  -0.58404   1.45106  -0.60897
 103        7PX        -2.83027   0.00000   0.00000   0.00000   0.00000
 104        7PY         0.00000  -0.14511  -9.11747  -2.34100   4.85834
 105        7PZ         0.00000   4.19079   1.38577   3.06843   0.08010
 106        8D 0        0.00000  -0.05794   0.05393  -0.02835  -0.02379
 107        8D+1        0.02242   0.00000   0.00000   0.00000   0.00000
 108        8D-1        0.00000   0.04753  -0.10950  -0.01442   0.06741
 109        8D+2        0.00000   0.03705   0.05011  -0.04419   0.04611
 110        8D-2       -0.05612   0.00000   0.00000   0.00000   0.00000
 111        9D 0        0.00000   0.59001  -1.22385   0.44729   0.42836
 112        9D+1       -0.19873   0.00000   0.00000   0.00000   0.00000
 113        9D-1        0.00000  -0.83607   0.37326  -0.75987   0.13601
 114        9D+2        0.00000  -0.14579  -1.19011   0.08629   0.43881
 115        9D-2        0.43530   0.00000   0.00000   0.00000   0.00000
 116 4   H  1S          0.00000   0.01597   0.06860  -0.00634   0.04787
 117        2S          0.00000  -1.27247  -3.01708  -1.85956  -2.92389
 118        3S          0.00000   1.87444 -25.36160 -15.70970 -14.80942
 119        4S          0.00000  -1.14269   1.68670  -4.66350  -1.66775
 120        5PX        -0.08827   0.00000   0.00000   0.00000   0.00000
 121        5PY         0.00000  -0.01973   0.11324   0.07579   0.09285
 122        5PZ         0.00000  -0.01978  -0.04217   0.10327   0.02934
 123        6PX         0.03616   0.00000   0.00000   0.00000   0.00000
 124        6PY         0.00000  -0.10496  -2.14759  -0.83987  -1.52942
 125        6PZ         0.00000   0.34114   0.58404  -1.45106  -0.60897
 126        7PX        -2.83027   0.00000   0.00000   0.00000   0.00000
 127        7PY         0.00000   0.14511  -9.11747  -2.34100  -4.85834
 128        7PZ         0.00000   4.19079  -1.38577  -3.06843   0.08010
 129        8D 0        0.00000  -0.05794  -0.05393   0.02835  -0.02379
 130        8D+1        0.02242   0.00000   0.00000   0.00000   0.00000
 131        8D-1        0.00000  -0.04753  -0.10950  -0.01442  -0.06741
 132        8D+2        0.00000   0.03705  -0.05011   0.04419   0.04611
 133        8D-2        0.05612   0.00000   0.00000   0.00000   0.00000
 134        9D 0        0.00000   0.59001   1.22385  -0.44729   0.42836
 135        9D+1       -0.19873   0.00000   0.00000   0.00000   0.00000
 136        9D-1        0.00000   0.83607   0.37326  -0.75987  -0.13601
 137        9D+2        0.00000  -0.14579   1.19011  -0.08629   0.43881
 138        9D-2       -0.43530   0.00000   0.00000   0.00000   0.00000
                         136       137       138
     Eigenvalues --     0.00000   0.00000   0.00000
   1 1   O  1S         -0.06067   0.00000   0.00910
   2        2S         -0.29358   0.00000   0.04983
   3        3S          0.03688   0.00000   0.00130
   4        4S          4.28110   0.00000  -1.08968
   5        5S         12.96199   0.00000  -6.79627
   6        6PX         0.00000   0.00000   0.00000
   7        6PY         0.00000   0.00479   0.00000
   8        6PZ        -0.00476   0.00000   0.00556
   9        7PX         0.00000   0.00000   0.00000
  10        7PY         0.00000  -0.01320   0.00000
  11        7PZ        -0.07296   0.00000  -0.03081
  12        8PX         0.00000   0.00000   0.00000
  13        8PY         0.00000   1.36624   0.00000
  14        8PZ        -1.38087   0.00000   0.90690
  15        9PX         0.00000   0.00000   0.00000
  16        9PY         0.00000   1.49988   0.00000
  17        9PZ        -1.12576   0.00000   1.44091
  18       10D 0       -0.01620   0.00000   0.00135
  19       10D+1        0.00000   0.00000   0.00000
  20       10D-1        0.00000  -0.00233   0.00000
  21       10D+2        0.00407   0.00000  -0.00169
  22       10D-2        0.00000   0.00000   0.00000
  23       11D 0        0.10890   0.00000  -0.00554
  24       11D+1        0.00000   0.00000   0.00000
  25       11D-1        0.00000  -0.01446   0.00000
  26       11D+2       -0.01469   0.00000   0.00424
  27       11D-2        0.00000   0.00000   0.00000
  28       12D 0       -0.07638   0.00000  -0.20592
  29       12D+1        0.00000   0.00000   0.00000
  30       12D-1        0.00000  -0.54041   0.00000
  31       12D+2        0.31445   0.00000  -0.04156
  32       12D-2        0.00000   0.00000   0.00000
  33       13F 0       -0.00849   0.00000  -0.00407
  34       13F+1        0.00000   0.00000   0.00000
  35       13F-1        0.00000  -0.00430   0.00000
  36       13F+2        0.01290   0.00000  -0.00225
  37       13F-2        0.00000   0.00000   0.00000
  38       13F+3        0.00000   0.00000   0.00000
  39       13F-3        0.00000  -0.00497   0.00000
  40       14F 0        0.01475   0.00000   0.01771
  41       14F+1        0.00000   0.00000   0.00000
  42       14F-1        0.00000   0.02639   0.00000
  43       14F+2       -0.05980   0.00000   0.01093
  44       14F-2        0.00000   0.00000   0.00000
  45       14F+3        0.00000   0.00000   0.00000
  46       14F-3        0.00000   0.01452   0.00000
  47 2   C  1S         -0.04406   0.00000   0.00564
  48        2S         -0.25078   0.00000   0.03819
  49        3S          0.11563   0.00000   0.02647
  50        4S         -5.19481   0.00000  10.20047
  51        5S         -3.96839   0.00000  13.54414
  52        6PX         0.00000   0.00000   0.00000
  53        6PY         0.00000  -0.01378   0.00000
  54        6PZ        -0.02409   0.00000   0.00240
  55        7PX         0.00000   0.00000   0.00000
  56        7PY         0.00000   0.02313   0.00000
  57        7PZ         0.26534   0.00000   0.00415
  58        8PX         0.00000   0.00000   0.00000
  59        8PY         0.00000  -7.17710   0.00000
  60        8PZ        -1.24557   0.00000  -0.03548
  61        9PX         0.00000   0.00000   0.00000
  62        9PY         0.00000  -5.53988   0.00000
  63        9PZ        -2.29847   0.00000  -0.19727
  64       10D 0        0.01305   0.00000  -0.00410
  65       10D+1        0.00000   0.00000   0.00000
  66       10D-1        0.00000  -0.01454   0.00000
  67       10D+2       -0.00488   0.00000  -0.00774
  68       10D-2        0.00000   0.00000   0.00000
  69       11D 0       -0.77020   0.00000   0.13452
  70       11D+1        0.00000   0.00000   0.00000
  71       11D-1        0.00000  -0.16479   0.00000
  72       11D+2        0.21606   0.00000  -0.05743
  73       11D-2        0.00000   0.00000   0.00000
  74       12D 0       -6.08968   0.00000   0.72158
  75       12D+1        0.00000   0.00000   0.00000
  76       12D-1        0.00000  -0.76093   0.00000
  77       12D+2       -2.91844   0.00000  -0.30113
  78       12D-2        0.00000   0.00000   0.00000
  79       13F 0       -0.03863   0.00000  -0.00910
  80       13F+1        0.00000   0.00000   0.00000
  81       13F-1        0.00000   0.01790   0.00000
  82       13F+2       -0.01832   0.00000  -0.00134
  83       13F-2        0.00000   0.00000   0.00000
  84       13F+3        0.00000   0.00000   0.00000
  85       13F-3        0.00000  -0.01751   0.00000
  86       14F 0       -0.16830   0.00000   0.07352
  87       14F+1        0.00000   0.00000   0.00000
  88       14F-1        0.00000  -0.50303   0.00000
  89       14F+2       -0.33511   0.00000   0.05864
  90       14F-2        0.00000   0.00000   0.00000
  91       14F+3        0.00000   0.00000   0.00000
  92       14F-3        0.00000  -0.03559   0.00000
  93 3   H  1S         -0.01572   0.00850  -0.00278
  94        2S          1.01264  -0.11742  -0.21730
  95        3S         -3.61705  10.98760  -5.38974
  96        4S         -0.31956   8.38129  -3.08609
  97        5PX         0.00000   0.00000   0.00000
  98        5PY         0.00122   0.02995  -0.01332
  99        5PZ         0.04176   0.00158   0.00571
 100        6PX         0.00000   0.00000   0.00000
 101        6PY        -0.43744  -0.25552   0.20008
 102        6PZ        -0.18921  -0.17754  -0.08981
 103        7PX         0.00000   0.00000   0.00000
 104        7PY        -2.26050  -3.51873   1.58655
 105        7PZ        -3.93299   2.46891  -0.62468
 106        8D 0        0.01045  -0.00682   0.00181
 107        8D+1        0.00000   0.00000   0.00000
 108        8D-1       -0.04909   0.02427  -0.00778
 109        8D+2        0.01157   0.04064  -0.00401
 110        8D-2        0.00000   0.00000   0.00000
 111        9D 0       -0.30886  -0.06826   0.04637
 112        9D+1        0.00000   0.00000   0.00000
 113        9D-1        0.29724  -0.08710   0.11243
 114        9D+2       -0.30576  -0.33815   0.11523
 115        9D-2        0.00000   0.00000   0.00000
 116 4   H  1S         -0.01572  -0.00850  -0.00278
 117        2S          1.01264   0.11742  -0.21730
 118        3S         -3.61705 -10.98760  -5.38974
 119        4S         -0.31956  -8.38129  -3.08609
 120        5PX         0.00000   0.00000   0.00000
 121        5PY        -0.00122   0.02995   0.01332
 122        5PZ         0.04176  -0.00158   0.00571
 123        6PX         0.00000   0.00000   0.00000
 124        6PY         0.43744  -0.25552  -0.20008
 125        6PZ        -0.18921   0.17754  -0.08981
 126        7PX         0.00000   0.00000   0.00000
 127        7PY         2.26050  -3.51873  -1.58655
 128        7PZ        -3.93299  -2.46891  -0.62468
 129        8D 0        0.01045   0.00682   0.00181
 130        8D+1        0.00000   0.00000   0.00000
 131        8D-1        0.04909   0.02427   0.00778
 132        8D+2        0.01157  -0.04064  -0.00401
 133        8D-2        0.00000   0.00000   0.00000
 134        9D 0       -0.30886   0.06826   0.04637
 135        9D+1        0.00000   0.00000   0.00000
 136        9D-1       -0.29724  -0.08710  -0.11243
 137        9D+2       -0.30576   0.33815   0.11523
 138        9D-2        0.00000   0.00000   0.00000
          Condensed to atoms (all electrons):
              1          2          3          4
     1  O    8.197651   0.342662  -0.060035  -0.060035
     2  C    0.342662   5.741813   0.205094   0.205094
     3  H   -0.060035   0.205094   0.430645  -0.033157
     4  H   -0.060035   0.205094  -0.033157   0.430645
 Mulliken atomic charges:
              1
     1  O   -0.420243
     2  C   -0.494662
     3  H    0.457452
     4  H    0.457452
 Sum of Mulliken atomic charges =   0.00000
 Mulliken charges with hydrogens summed into heavy atoms:
              1
     1  O   -0.420243
     2  C    0.420243
 Sum of Mulliken charges with hydrogens summed into heavy atoms =   0.00000
 Electronic spatial extent (au):  <R**2>=             60.8272
 Charge=              0.0000 electrons
 Dipole moment (field-independent basis, Debye):
    X=              0.0000    Y=              0.0000    Z=             -2.4875  Tot=              2.4875
 Quadrupole moment (field-independent basis, Debye-Ang):
   XX=            -11.7576   YY=            -11.5922   ZZ=            -12.2368
   XY=              0.0000   XZ=              0.0000   YZ=              0.0000
 Traceless Quadrupole moment (field-independent basis, Debye-Ang):
   XX=              0.1046   YY=              0.2700   ZZ=             -0.3746
   XY=              0.0000   XZ=              0.0000   YZ=              0.0000
 Octapole moment (field-independent basis, Debye-Ang**2):
  XXX=              0.0000  YYY=              0.0000  ZZZ=              0.3746  XYY=              0.0000
  XXY=              0.0000  XXZ=              0.6021  XZZ=              0.0000  YZZ=              0.0000
  YYZ=             -0.7399  XYZ=              0.0000
 Hexadecapole moment (field-independent basis, Debye-Ang**3):
 XXXX=            -10.5748 YYYY=            -18.0926 ZZZZ=            -46.4505 XXXY=              0.0000
 XXXZ=              0.0000 YYYX=              0.0000 YYYZ=              0.0000 ZZZX=              0.0000
 ZZZY=              0.0000 XXYY=             -5.1462 XXZZ=             -9.4347 YYZZ=            -10.4343
 XXYZ=              0.0000 YYXZ=              0.0000 ZZXY=              0.0000
 N-N= 3.115935477422D+01 E-N=-3.310651724461D+02  KE= 1.142091648435D+02
 1\1\GINC-TRAPISTA\SP\RQCISD-FC\Aug-CC-pVTZ\C1H2O1\BRUNS\20-Nov-2021\0\
 \# qcisd/aug-cc-pvtz nosymm density=current output=wfn\\h2co-wavefunct
 ion\\0,1\O,0,0.,0.,0.679252\C,0,0.,0.,-0.536911\H,0,0.,0.936614,-1.106
 62\H,0,0.,-0.936614,-1.10662\\Version=EM64L-G09RevB.01\HF=-113.9128524
 \MP2=-114.3163695\MP3=-114.320013\MP4D=-114.330389\MP4DQ=-114.3214295\
 MP4SDQ=-114.3268162\QCISD=-114.3268089\RMSD=3.111e-09\Dipole=0.,0.,-0.
 978672\Quadrupole=0.0777536,0.200753,-0.2785066,0.,0.,0.\PG=C02V [C2(C
 1O1),SGV(H2)]\\@

 Writing a WFN file to GAUSSIAN.wfn.


 LORD, MAN... WERE YE BUT WHYLES WHERE I AM, 
 THE GENTILES YE WAD NE'ER ENVY 'EM.         
 IT'S TRUE, THEY NEEDNA STARVE OR SWEAT,     
 THRO' WINTER'S CAULD OR SIMMER'S HEAT...    
 THEY'VE NAE SAIR WARK TO CRAZE THEIR BANES, 
 AND FILL AULD AGE WITH GRIPS AN' GRANES...  
                                             
 BUT HUMAN BODIES ARE SIC FOOLS              
 FOR A' THEIR COLLEGES AND SCHOOLS,          
 THAT WHEN NAE REAL ILLS PERPLEX THEM,       
 THEY MAK ENOW THEMSELVES TO VEX THEM,       
 AN' AYE THE LESS THEY HAE TO STURT THEM,    
 IN LIKE PROPORTION LESS WILL HURT THEM....  
                                             
                (ROBERT BURNS 'THE TWA DOGS')
 Job cpu time:  0 days  0 hours 23 minutes 16.7 seconds.
 File lengths (MBytes):  RWF=   5787 Int=      0 D2E=      0 Chk=      2 Scr=      1
 Normal termination of Gaussian 09 at Sat Nov 20 18:09:34 2021.
