 h2co-wavefunction
GAUSSIAN            138 MOL ORBITALS    198 PRIMITIVES        4 NUCLEI
  O    1    (CENTRE  1)   0.00000000  0.00000000  1.28360026  CHARGE =  8.0
  C    2    (CENTRE  2)   0.00000000  0.00000000 -0.97682023  CHARGE =  6.0
  H    3    (CENTRE  3)   0.00000000  1.76994395 -2.09120873  CHARGE =  1.0
  H    4    (CENTRE  4)   0.00000000 -1.76994395 -2.09120873  CHARGE =  1.0
CENTRE ASSIGNMENTS    1  1  1  1  1  1  1  1  1  1  1  1  1  1  1  1  1  1  1  1
CENTRE ASSIGNMENTS    1  1  1  1  1  1  1  1  1  1  1  1  1  1  1  1  1  1  1  1
CENTRE ASSIGNMENTS    1  1  1  1  1  1  1  1  1  1  1  1  1  1  1  1  1  1  1  1
CENTRE ASSIGNMENTS    1  1  1  1  1  1  1  1  1  1  1  1  2  2  2  2  2  2  2  2
CENTRE ASSIGNMENTS    2  2  2  2  2  2  2  2  2  2  2  2  2  2  2  2  2  2  2  2
CENTRE ASSIGNMENTS    2  2  2  2  2  2  2  2  2  2  2  2  2  2  2  2  2  2  2  2
CENTRE ASSIGNMENTS    2  2  2  2  2  2  2  2  2  2  2  2  2  2  2  2  2  2  2  2
CENTRE ASSIGNMENTS    2  2  2  2  3  3  3  3  3  3  3  3  3  3  3  3  3  3  3  3
CENTRE ASSIGNMENTS    3  3  3  3  3  3  3  3  3  3  3  4  4  4  4  4  4  4  4  4
CENTRE ASSIGNMENTS    4  4  4  4  4  4  4  4  4  4  4  4  4  4  4  4  4  4
TYPE ASSIGNMENTS      1  1  1  1  1  1  1  1  1  1  1  1  1  1  1  1  2  2  2  3
TYPE ASSIGNMENTS      3  3  4  4  4  2  3  4  2  3  4  2  3  4  5  6  7  8  9 10
TYPE ASSIGNMENTS      5  6  7  8  9 10  5  6  7  8  9 10 11 12 13 17 14 15 18 19
TYPE ASSIGNMENTS     16 20 11 12 13 17 14 15 18 19 16 20  1  1  1  1  1  1  1  1
TYPE ASSIGNMENTS      1  1  1  1  1  1  1  1  2  2  2  3  3  3  4  4  4  2  3  4
TYPE ASSIGNMENTS      2  3  4  2  3  4  5  6  7  8  9 10  5  6  7  8  9 10  5  6
TYPE ASSIGNMENTS      7  8  9 10 11 12 13 17 14 15 18 19 16 20 11 12 13 17 14 15
TYPE ASSIGNMENTS     18 19 16 20  1  1  1  1  1  1  2  3  4  2  3  4  2  3  4  5
TYPE ASSIGNMENTS      6  7  8  9 10  5  6  7  8  9 10  1  1  1  1  1  1  2  3  4
TYPE ASSIGNMENTS      2  3  4  2  3  4  5  6  7  8  9 10  5  6  7  8  9 10
EXPONENTS  0.1533000D+05 0.2299000D+04 0.5224000D+03 0.1473000D+03 0.4755000D+02
EXPONENTS  0.1676000D+02 0.6207000D+01 0.5224000D+03 0.1473000D+03 0.4755000D+02
EXPONENTS  0.1676000D+02 0.6207000D+01 0.6882000D+00 0.1752000D+01 0.2384000D+00
EXPONENTS  0.7376000D-01 0.3446000D+02 0.7749000D+01 0.2280000D+01 0.3446000D+02
EXPONENTS  0.7749000D+01 0.2280000D+01 0.3446000D+02 0.7749000D+01 0.2280000D+01
EXPONENTS  0.7156000D+00 0.7156000D+00 0.7156000D+00 0.2140000D+00 0.2140000D+00
EXPONENTS  0.2140000D+00 0.5974000D-01 0.5974000D-01 0.5974000D-01 0.2314000D+01
EXPONENTS  0.2314000D+01 0.2314000D+01 0.2314000D+01 0.2314000D+01 0.2314000D+01
EXPONENTS  0.6450000D+00 0.6450000D+00 0.6450000D+00 0.6450000D+00 0.6450000D+00
EXPONENTS  0.6450000D+00 0.2140000D+00 0.2140000D+00 0.2140000D+00 0.2140000D+00
EXPONENTS  0.2140000D+00 0.2140000D+00 0.1428000D+01 0.1428000D+01 0.1428000D+01
EXPONENTS  0.1428000D+01 0.1428000D+01 0.1428000D+01 0.1428000D+01 0.1428000D+01
EXPONENTS  0.1428000D+01 0.1428000D+01 0.5000000D+00 0.5000000D+00 0.5000000D+00
EXPONENTS  0.5000000D+00 0.5000000D+00 0.5000000D+00 0.5000000D+00 0.5000000D+00
EXPONENTS  0.5000000D+00 0.5000000D+00 0.8236000D+04 0.1235000D+04 0.2808000D+03
EXPONENTS  0.7927000D+02 0.2559000D+02 0.8997000D+01 0.3319000D+01 0.2808000D+03
EXPONENTS  0.7927000D+02 0.2559000D+02 0.8997000D+01 0.3319000D+01 0.3643000D+00
EXPONENTS  0.9059000D+00 0.1285000D+00 0.4402000D-01 0.1871000D+02 0.4133000D+01
EXPONENTS  0.1200000D+01 0.1871000D+02 0.4133000D+01 0.1200000D+01 0.1871000D+02
EXPONENTS  0.4133000D+01 0.1200000D+01 0.3827000D+00 0.3827000D+00 0.3827000D+00
EXPONENTS  0.1209000D+00 0.1209000D+00 0.1209000D+00 0.3569000D-01 0.3569000D-01
EXPONENTS  0.3569000D-01 0.1097000D+01 0.1097000D+01 0.1097000D+01 0.1097000D+01
EXPONENTS  0.1097000D+01 0.1097000D+01 0.3180000D+00 0.3180000D+00 0.3180000D+00
EXPONENTS  0.3180000D+00 0.3180000D+00 0.3180000D+00 0.1000000D+00 0.1000000D+00
EXPONENTS  0.1000000D+00 0.1000000D+00 0.1000000D+00 0.1000000D+00 0.7610000D+00
EXPONENTS  0.7610000D+00 0.7610000D+00 0.7610000D+00 0.7610000D+00 0.7610000D+00
EXPONENTS  0.7610000D+00 0.7610000D+00 0.7610000D+00 0.7610000D+00 0.2680000D+00
EXPONENTS  0.2680000D+00 0.2680000D+00 0.2680000D+00 0.2680000D+00 0.2680000D+00
EXPONENTS  0.2680000D+00 0.2680000D+00 0.2680000D+00 0.2680000D+00 0.3387000D+02
EXPONENTS  0.5095000D+01 0.1159000D+01 0.3258000D+00 0.1027000D+00 0.2526000D-01
EXPONENTS  0.1407000D+01 0.1407000D+01 0.1407000D+01 0.3880000D+00 0.3880000D+00
EXPONENTS  0.3880000D+00 0.1020000D+00 0.1020000D+00 0.1020000D+00 0.1057000D+01
EXPONENTS  0.1057000D+01 0.1057000D+01 0.1057000D+01 0.1057000D+01 0.1057000D+01
EXPONENTS  0.2470000D+00 0.2470000D+00 0.2470000D+00 0.2470000D+00 0.2470000D+00
EXPONENTS  0.2470000D+00 0.3387000D+02 0.5095000D+01 0.1159000D+01 0.3258000D+00
EXPONENTS  0.1027000D+00 0.2526000D-01 0.1407000D+01 0.1407000D+01 0.1407000D+01
EXPONENTS  0.3880000D+00 0.3880000D+00 0.3880000D+00 0.1020000D+00 0.1020000D+00
EXPONENTS  0.1020000D+00 0.1057000D+01 0.1057000D+01 0.1057000D+01 0.1057000D+01
EXPONENTS  0.1057000D+01 0.1057000D+01 0.2470000D+00 0.2470000D+00 0.2470000D+00
EXPONENTS  0.2470000D+00 0.2470000D+00 0.2470000D+00
MO    1     MO 0.0        OCC NO =    2.0000076  ORB. ENERGY =    0.000000
 -0.26530049D+00 -0.49447649D+00 -0.83845438D+00 -0.12689115D+01 -0.15828671D+01
 -0.13583355D+01 -0.52017033D+00 -0.35817240D-04 -0.38429548D-03 -0.14165855D-02
 -0.41420129D-02 -0.49913269D-02  0.60125822D-02 -0.23592054D-01  0.64762371D-03
  0.11469007D-04 -0.23731960D-13 -0.23012019D-13 -0.15523772D-13 -0.88897647D-13
 -0.86200814D-13 -0.58150560D-13  0.14865775D-01  0.14414801D-01  0.97241398D-02
 -0.97705109D-15 -0.42107021D-14  0.19927652D-02  0.12944410D-13  0.11869774D-12
  0.66777735D-03  0.91258203D-15  0.13462315D-14  0.87268342D-05  0.93873271D-03
  0.12525067D-03 -0.10639834D-02 -0.39098547D-14  0.15504442D-13  0.10177156D-12
  0.23721504D-03  0.13500849D-03 -0.37222353D-03  0.42636429D-15 -0.11213216D-13
 -0.56376888D-13  0.65692752D-04  0.11628685D-04 -0.77321437D-04 -0.16283238D-15
 -0.69579076D-14 -0.47626347D-13  0.37711989D-14  0.72614220D-14 -0.14898698D-03
  0.19719568D-14  0.11934176D-13  0.51687600D-03 -0.13285553D-13 -0.33718442D-13
 -0.69915059D-04 -0.33918091D-14 -0.24812539D-14 -0.66603891D-14  0.10675993D-03
 -0.21787881D-14 -0.10231655D-13 -0.17109471D-03  0.96225498D-14  0.30212822D-13
 -0.14918509D-03  0.84249503D-15  0.27776395D+00  0.51780795D+00  0.87516598D+00
  0.13155377D+01  0.16159024D+01  0.13637647D+01  0.51281112D+00  0.32363942D-04
  0.24190042D-03  0.90403709D-03  0.25221227D-02  0.33789491D-02 -0.39899088D-02
  0.22829754D-01  0.56944055D-03  0.12650617D-03  0.28075634D-14  0.26322691D-14
  0.18743324D-14 -0.26628022D-13 -0.24965463D-13 -0.17776897D-13  0.19974868D-02
  0.18727708D-02  0.13335244D-02 -0.17614683D-13 -0.11958726D-12  0.30380782D-03
 -0.91035205D-14 -0.26421969D-12 -0.10539350D-03 -0.24340161D-15 -0.50648011D-14
 -0.35831133D-05 -0.12389059D-02  0.18150403D-03  0.10574018D-02 -0.12862374D-14
 -0.22570612D-14  0.16347738D-13  0.14361611D-03  0.14755682D-04 -0.15837179D-03
  0.10962172D-14 -0.11277489D-13  0.15600095D-13 -0.61460421D-05  0.21171354D-04
 -0.15025312D-04  0.10038819D-15 -0.46180862D-15  0.13331797D-13  0.10682488D-14
  0.10046244D-13  0.56968274D-03  0.24761950D-14  0.25399418D-14 -0.80079420D-04
 -0.56809416D-14 -0.32678675D-13 -0.16289688D-02 -0.65522821D-15  0.90772646D-15
  0.89429426D-14 -0.11410904D-03 -0.28048491D-15  0.18628249D-13  0.44438461D-04
 -0.24426945D-14 -0.45457077D-13  0.29788865D-03  0.37883795D-16 -0.26917541D-03
 -0.48546893D-03 -0.71582366D-03 -0.20541640D-03 -0.46026154D-03 -0.12133943D-04
 -0.16313352D-14  0.76049350D-03 -0.53597312D-03  0.21745433D-14  0.20548230D-03
 -0.64199713D-04  0.15626195D-14  0.39092626D-04 -0.59800759D-04  0.22243160D-03
 -0.34162923D-03  0.11919763D-03  0.43967546D-16 -0.12550914D-14  0.89784945D-03
  0.45143343D-04 -0.11554761D-04 -0.33588582D-04 -0.11576550D-14  0.52511010D-15
 -0.29149506D-04 -0.26917541D-03 -0.48546893D-03 -0.71582366D-03 -0.20541641D-03
 -0.46026154D-03 -0.12133943D-04 -0.21126545D-14 -0.76049350D-03 -0.53597312D-03
  0.33951721D-14 -0.20548230D-03 -0.64199713D-04  0.19635397D-14 -0.39092626D-04
 -0.59800759D-04  0.22243160D-03 -0.34162923D-03  0.11919763D-03 -0.40318788D-15
  0.12640943D-14 -0.89784945D-03  0.45143343D-04 -0.11554761D-04 -0.33588582D-04
  0.14659010D-14  0.10380137D-14  0.29149506D-04
MO    2     MO 0.0        OCC NO =    2.0000040  ORB. ENERGY =    0.000000
  0.42370252D+00  0.78971183D+00  0.13390674D+01  0.20265361D+01  0.25279441D+01
  0.21693521D+01  0.83074660D+00  0.49611459D-04  0.53229840D-03  0.19621521D-02
  0.57372177D-02  0.69136263D-02 -0.83281955D-02  0.38746220D-01 -0.63152442D-03
 -0.72512388D-04 -0.30181856D-13 -0.29266248D-13 -0.19742838D-13 -0.53054075D-13
 -0.51444606D-13 -0.34704227D-13 -0.10958985D-01 -0.10626529D-01 -0.71685935D-02
 -0.27840343D-14 -0.32459447D-15  0.14543389D-02  0.12455869D-13  0.89514160D-13
  0.11499485D-03  0.74925609D-15  0.53113026D-15  0.21965366D-05 -0.10315189D-02
 -0.98959162D-04  0.11304780D-02 -0.22482344D-14  0.26411930D-13  0.50597485D-13
  0.34818461D-03  0.53458287D-03 -0.88276749D-03 -0.62651631D-15 -0.12995488D-13
 -0.40991598D-13  0.36535593D-04  0.35559553D-07 -0.36571152D-04 -0.45491608D-15
 -0.63430072D-14 -0.36179799D-13  0.35760511D-14  0.64825568D-14  0.59960480D-04
  0.53544443D-14  0.92185980D-14 -0.16189610D-03 -0.16082598D-13 -0.28666268D-13
 -0.17985341D-04 -0.32159935D-14 -0.23143520D-14 -0.47488421D-14  0.13165265D-03
 -0.15881862D-14 -0.70664410D-14 -0.17431864D-03  0.85312421D-14  0.21312967D-13
 -0.22063932D-03  0.15009314D-14  0.17381234D+00  0.32402123D+00  0.54764002D+00
  0.82320509D+00  0.10111600D+01  0.85338337D+00  0.32089443D+00  0.17190484D-04
  0.12848822D-03  0.48018982D-03  0.13396548D-02  0.17947681D-02 -0.21192865D-02
  0.14396951D-01  0.48340056D-03  0.88394367D-04  0.18836311D-14  0.17660239D-14
  0.12575142D-14  0.18602131D-13  0.17440680D-13  0.12418803D-13  0.11474114D-02
  0.10757711D-02  0.76601313D-03 -0.17566944D-13 -0.78969902D-13  0.16163621D-02
 -0.75970717D-14 -0.20587838D-12 -0.18956226D-04 -0.16714596D-15 -0.37953389D-14
  0.37304295D-06 -0.10132909D-02 -0.33349341D-03  0.13467843D-02 -0.85854681D-15
 -0.48013807D-14  0.12729658D-13  0.23775552D-04 -0.25502944D-03  0.23125389D-03
  0.34120645D-15 -0.11378055D-13  0.15225281D-13 -0.12793360D-05  0.42985690D-04
 -0.41706354D-04  0.12832537D-15 -0.62583970D-15  0.11290894D-13  0.14822039D-14
  0.69404459D-14  0.32595637D-03  0.24085157D-14  0.50887318D-16 -0.21056901D-03
 -0.68551275D-14 -0.20872225D-13 -0.76730010D-03 -0.57152022D-15  0.88378540D-15
  0.71669036D-14 -0.90324774D-05 -0.26166714D-15  0.14399957D-13 -0.40245922D-04
 -0.23896891D-14 -0.35900668D-13  0.67343354D-04  0.77592178D-15 -0.14091024D-03
 -0.25413742D-03 -0.37472547D-03  0.13641134D-03 -0.34423185D-03 -0.71536140D-05
 -0.23098720D-14  0.32337168D-03 -0.21098551D-03  0.30072643D-14 -0.87391159D-04
  0.13619022D-03  0.97881596D-15 -0.11395756D-04 -0.84771266D-04  0.12386039D-03
 -0.12650343D-03  0.26430357D-05 -0.29891050D-14  0.30154480D-15  0.40709727D-03
  0.99776606D-06  0.35214741D-05 -0.45192402D-05 -0.94472940D-15  0.49011725D-15
 -0.62123374D-05 -0.14091024D-03 -0.25413742D-03 -0.37472547D-03  0.13641134D-03
 -0.34423185D-03 -0.71536140D-05 -0.16919999D-14 -0.32337168D-03 -0.21098551D-03
  0.17986546D-14  0.87391159D-04  0.13619022D-03  0.14032634D-14  0.11395756D-04
 -0.84771266D-04  0.12386039D-03 -0.12650343D-03  0.26430357D-05  0.22394344D-14
 -0.11406436D-15 -0.40709727D-03  0.99776606D-06  0.35214741D-05 -0.45192401D-05
  0.82276358D-15  0.93445768D-15  0.62123374D-05
MO    3     MO 0.0        OCC NO =    1.9806631  ORB. ENERGY =    0.000000
 -0.96750416D-01 -0.18032687D+00 -0.30576954D+00 -0.46274969D+00 -0.57724376D+00
 -0.49536103D+00 -0.18969696D+00 -0.16842411D-02 -0.18070801D-01 -0.66612377D-01
 -0.19477068D+00 -0.23470814D+00  0.28273083D+00  0.14910856D+00  0.75095959D-01
  0.44551257D-02  0.61744106D-14  0.59871014D-14  0.40388632D-14 -0.29975077D-12
 -0.29065741D-12 -0.19607577D-12 -0.13365029D-01 -0.12959583D-01 -0.87424579D-02
  0.80032211D-15 -0.61519671D-13 -0.10467908D-01 -0.13180444D-14  0.21978156D-13
  0.81519519D-02  0.43160064D-15  0.66763662D-14  0.92352014D-04 -0.15518129D-01
 -0.16565672D-01  0.32083801D-01 -0.50997573D-14 -0.11102954D-13  0.10113293D-12
 -0.43590755D-02 -0.52008255D-02  0.95599010D-02  0.20373656D-15  0.53854842D-14
 -0.80213202D-14  0.49994274D-03  0.52390273D-03 -0.10238455D-02 -0.10691731D-14
  0.40745742D-15 -0.63130677D-14  0.19881091D-14  0.66845622D-14 -0.91001361D-02
 -0.17311047D-14  0.16223070D-14  0.14581689D-01 -0.42332227D-14 -0.21675994D-13
  0.12718719D-01 -0.11384780D-13  0.90091088D-16 -0.27942134D-14 -0.34743112D-03
  0.92201636D-15 -0.33175465D-15  0.19007202D-05 -0.11922896D-14  0.87143950D-14
  0.10403927D-02  0.30024971D-14 -0.28499841D-01 -0.53129445D-01 -0.89796000D-01
 -0.13498014D+00 -0.16579892D+00 -0.13992844D+00 -0.52616748D-01 -0.59699067D-03
 -0.44621354D-02 -0.16676019D-01 -0.46523496D-01 -0.62328658D-01  0.73598523D-01
  0.30262743D-01  0.18973337D-01  0.38609673D-03  0.31028357D-14  0.29091057D-14
  0.20714566D-14 -0.47223741D-12 -0.44275259D-12 -0.31526622D-12  0.11216501D+00
  0.10516182D+00  0.74881484D-01  0.16587804D-14 -0.26028068D-12  0.72834893D-02
  0.98274554D-15  0.48943521D-14 -0.41022645D-02 -0.80393213D-16 -0.29151985D-14
 -0.56466554D-04 -0.18649173D-01 -0.84861251D-02  0.27135298D-01  0.80331090D-15
  0.15944059D-14  0.97725501D-13 -0.31053876D-02  0.25005515D-02  0.60483610D-03
  0.71145061D-16  0.31609844D-14  0.50251486D-13  0.22227528D-04  0.50983445D-03
 -0.53206197D-03  0.47358826D-15 -0.44020623D-15 -0.93884741D-14 -0.20705145D-15
  0.39928090D-14  0.44927074D-02 -0.26454302D-14  0.25328679D-13 -0.98556378D-03
  0.32665846D-14 -0.37307106D-13 -0.12492559D-01 -0.32123726D-15 -0.26308543D-16
  0.50159928D-14 -0.61614817D-04 -0.32212091D-15  0.16935340D-14  0.46990558D-03
  0.40104654D-15 -0.16741512D-13 -0.28506113D-03  0.15790371D-14  0.63104834D-02
  0.11381217D-01  0.16781597D-01 -0.16530143D-03 -0.59493875D-02 -0.79558906D-04
 -0.45503586D-15 -0.25602252D-02  0.21173697D-02  0.21796214D-14  0.42549132D-02
 -0.41234743D-02 -0.11920930D-14  0.55283693D-03 -0.15210456D-02  0.60546479D-03
 -0.11351392D-02  0.52967444D-03 -0.31439869D-14  0.15098995D-14  0.23078762D-02
  0.36104197D-03 -0.80854218D-04 -0.28018776D-03  0.79591020D-16 -0.26666879D-15
  0.94827403D-03  0.63104834D-02  0.11381217D-01  0.16781597D-01 -0.16530143D-03
 -0.59493875D-02 -0.79558906D-04  0.89808660D-16  0.25602252D-02  0.21173697D-02
  0.27645925D-17 -0.42549132D-02 -0.41234743D-02  0.18803949D-15 -0.55283693D-03
 -0.15210456D-02  0.60546479D-03 -0.11351392D-02  0.52967444D-03  0.15684940D-14
  0.12144605D-14 -0.23078762D-02  0.36104197D-03 -0.80854218D-04 -0.28018776D-03
 -0.18684044D-15  0.88824910D-15 -0.94827403D-03
MO    4     MO 0.0        OCC NO =    1.9668463  ORB. ENERGY =    0.000000
  0.35995910D-01  0.67090458D-01  0.11376130D+00  0.17216563D+00  0.21476305D+00
  0.18429865D+00  0.70576592D-01  0.69197510D-03  0.74244387D-02  0.27367879D-01
  0.80022073D-01  0.96430489D-01 -0.11616074D+00 -0.66082922D-01 -0.55645085D-01
 -0.34316961D-02 -0.61510847D-13 -0.59644831D-13 -0.40236050D-13  0.19834089D-10
  0.19232394D-10  0.12974060D-10 -0.73078524D+00 -0.70861586D+00 -0.47802808D+00
 -0.24295468D-13  0.47141836D-11 -0.16394772D+00 -0.15153333D-13  0.11815187D-11
 -0.17092772D-01 -0.66204199D-15  0.44269567D-15 -0.10797771D-03 -0.21179556D-01
 -0.21042130D-01  0.42221686D-01 -0.10207352D-13 -0.18236784D-13 -0.12495675D-11
 -0.39224609D-02 -0.43769675D-02  0.82994284D-02  0.66030919D-15  0.20731790D-13
 -0.45827421D-12 -0.70724954D-05 -0.14900102D-03  0.15607351D-03 -0.30285811D-15
  0.56581499D-14 -0.20840427D-12  0.20240110D-15 -0.19017130D-12 -0.65244999D-02
 -0.10887554D-14  0.82066440D-13  0.64674025D-02  0.48155211D-15  0.48844745D-12
  0.13106097D-01 -0.48170795D-14  0.20804557D-14 -0.17254716D-13 -0.21014294D-03
  0.18703170D-14 -0.40193577D-13 -0.10601410D-03 -0.81116842D-14  0.91957725D-13
  0.73644292D-03  0.83216872D-15 -0.49553374D-01 -0.92377473D-01 -0.15613051D+00
 -0.23469328D+00 -0.28827866D+00 -0.24329702D+00 -0.91486034D-01 -0.12030443D-02
 -0.89920104D-02 -0.33605196D-01 -0.93753265D-01 -0.12560353D+00  0.14831435D+00
  0.64306398D-01  0.44940012D-01  0.11390975D-02 -0.30067042D-13 -0.28189763D-13
 -0.20072791D-13  0.44819851D-11  0.42021459D-11  0.29921782D-11 -0.96681356D-01
 -0.90644917D-01 -0.64544581D-01  0.79561298D-14  0.25878891D-12 -0.28406038D-01
  0.39457553D-14 -0.17526499D-11 -0.53605882D-02  0.55125356D-16 -0.38476043D-13
 -0.30192761D-05 -0.17915700D-01  0.12788406D-01  0.51272944D-02  0.33500939D-15
 -0.40376753D-15  0.79852664D-12 -0.45106195D-02  0.47081856D-02 -0.19756611D-03
  0.86112486D-15  0.12925581D-13  0.60771035D-12 -0.93588117D-04 -0.27797403D-05
  0.96367857D-04  0.47003937D-15  0.83206047D-15  0.15672146D-12 -0.16372005D-14
 -0.55326112D-13  0.45585149D-02 -0.40868260D-14  0.22177936D-13  0.38561194D-03
  0.89984276D-14  0.14380040D-12 -0.14061157D-01 -0.69718059D-15 -0.68193738D-15
  0.27748834D-13  0.23358806D-03 -0.34093833D-15  0.11082100D-12  0.67225443D-03
  0.23867505D-14 -0.19406750D-12 -0.13730186D-02 -0.21802699D-15  0.23615110D-01
  0.42590823D-01  0.62800143D-01  0.26115751D-01 -0.38609195D-02 -0.93454652D-04
  0.17007006D-14 -0.16874814D-01  0.86536568D-02 -0.11885727D-14  0.33121585D-03
 -0.19215055D-02 -0.84697691D-15  0.13276774D-02 -0.47146270D-03 -0.15547090D-02
  0.18381147D-02 -0.28340572D-03  0.22164584D-14  0.11342204D-14 -0.27381208D-02
  0.31606771D-03 -0.12998244D-03 -0.18608527D-03  0.12419293D-15 -0.44826430D-15
  0.53882756D-03  0.23615110D-01  0.42590823D-01  0.62800143D-01  0.26115751D-01
 -0.38609195D-02 -0.93454653D-04  0.61402826D-15  0.16874814D-01  0.86536568D-02
  0.17466654D-15 -0.33121585D-03 -0.19215055D-02  0.60730965D-15 -0.13276774D-02
 -0.47146271D-03 -0.15547090D-02  0.18381147D-02 -0.28340572D-03 -0.63406293D-15
 -0.11035765D-16  0.27381208D-02  0.31606771D-03 -0.12998244D-03 -0.18608527D-03
  0.45903339D-15  0.30742058D-15 -0.53882756D-03
MO    5     MO 0.0        OCC NO =    1.9653095  ORB. ENERGY =    0.000000
 -0.53789803D-12 -0.10025535D-11 -0.16999703D-11 -0.25727243D-11 -0.32092708D-11
 -0.27540318D-11 -0.10546479D-11 -0.10098518D-13 -0.10835047D-12 -0.39940022D-12
 -0.11678228D-11 -0.14072833D-11  0.16952219D-11  0.96359704D-12  0.75468326D-12
  0.10078001D-12  0.26644575D-13  0.25836275D-13  0.17428999D-13  0.13452107D+01
  0.13044019D+01  0.87994179D+00  0.12246169D-10  0.11874664D-10  0.80105783D-11
  0.90233423D-14  0.31790872D+00  0.27794596D-11  0.12663006D-13  0.50719306D-01
  0.38556759D-12  0.47109761D-15  0.15785305D-02  0.71818772D-14  0.34866248D-12
  0.33792333D-12 -0.68658581D-12 -0.28366291D-14  0.17437199D-13 -0.10390888D+00
  0.74741887D-13  0.93354736D-13 -0.16809662D-12  0.52650173D-15 -0.13671382D-13
 -0.29093553D-01  0.86391418D-14  0.14835370D-13 -0.23474512D-13  0.26109252D-15
 -0.53461332D-14 -0.26496893D-02 -0.34212938D-15 -0.13164203D-01  0.97923569D-13
  0.55622266D-14 -0.95735602D-04 -0.11393422D-12 -0.45358385D-14  0.39588346D-01
 -0.17983649D-12  0.85525341D-14 -0.12777635D-14 -0.98234141D-03  0.17051617D-13
 -0.25015319D-14  0.41734048D-03 -0.85493446D-14  0.63348224D-14  0.25296837D-02
 -0.42605507D-13 -0.14739421D-14  0.65899656D-12  0.12285023D-11  0.20763363D-11
  0.31211208D-11  0.38337378D-11  0.32355395D-11  0.12166473D-11  0.15305475D-13
  0.11439894D-12  0.42753497D-12  0.11927560D-11  0.15979642D-11 -0.18868977D-11
 -0.80252332D-12 -0.60991778D-12 -0.13677588D-12  0.10106264D-13  0.94752650D-14
  0.67469532D-14  0.40368324D+00  0.37847869D+00  0.26949938D+00  0.21566323D-12
  0.20219799D-12  0.14397701D-12 -0.54023610D-14  0.10409534D+00  0.26053807D-12
 -0.44791370D-14  0.61135173D-02  0.42303509D-13 -0.67277111D-16 -0.33643566D-03
 -0.40199764D-14  0.22930398D-12 -0.10618608D-12 -0.12311790D-12 -0.97675716D-15
  0.38375484D-14  0.31846877D-01  0.62039498D-13 -0.95502029D-13  0.33462530D-13
  0.19656080D-14 -0.13012944D-13 -0.35993618D-02  0.29915150D-14  0.36560070D-14
 -0.66475219D-14  0.24859366D-15 -0.49426729D-15 -0.88668680D-03  0.41884981D-15
 -0.39622408D-02 -0.67530126D-13  0.35470017D-14 -0.54779423D-02 -0.16363335D-14
 -0.48035512D-14  0.17364665D-01  0.20422671D-12 -0.20634336D-14  0.37306294D-15
 -0.40074845D-03 -0.23410591D-14  0.12303116D-14 -0.30831824D-03 -0.27277639D-14
 -0.23495004D-14  0.15105636D-02  0.97509411D-14 -0.14761131D-14  0.17713938D-01
  0.31947817D-01  0.47107037D-01  0.18511189D-01 -0.16729624D-02  0.34599017D-03
  0.30438349D-14 -0.10857692D-01  0.13458139D-01 -0.55631197D-14  0.54761443D-02
  0.18549521D-02  0.57716238D-16  0.46588207D-03  0.60952049D-03 -0.19070003D-02
 -0.14885381D-02  0.33955384D-02  0.49386271D-14 -0.17562413D-14 -0.82607926D-02
  0.29695994D-03 -0.45893320D-03  0.16197326D-03  0.97291386D-15 -0.10161952D-14
  0.89048914D-03 -0.17713938D-01 -0.31947817D-01 -0.47107037D-01 -0.18511189D-01
  0.16729624D-02 -0.34599017D-03 -0.61427160D-15 -0.10857692D-01 -0.13458139D-01
 -0.42335684D-15  0.54761443D-02 -0.18549521D-02  0.10137741D-14  0.46588207D-03
 -0.60952049D-03  0.19070003D-02  0.14885381D-02 -0.33955384D-02 -0.20775382D-14
 -0.13420134D-14 -0.82607926D-02 -0.29695994D-03  0.45893320D-03 -0.16197326D-03
  0.43683942D-15 -0.32429348D-15  0.89048914D-03
MO    6     MO 0.0        OCC NO =    1.9605659  ORB. ENERGY =    0.000000
  0.27036221D-02  0.50391070D-02  0.85445141D-02  0.12931214D-01  0.16130670D-01
  0.13842514D-01  0.53009476D-02 -0.17845900D-04 -0.19147479D-03 -0.70581213D-03
 -0.20637533D-02 -0.24869231D-02  0.29957624D-02  0.60910493D-02  0.27871290D-01
  0.62298343D-02  0.33160496D-13  0.32154527D-13  0.21691254D-13 -0.12977613D-10
 -0.12583919D-10 -0.84890376D-11  0.13621419D+01  0.13208194D+01  0.89101698D+00
  0.91706542D-14 -0.30302437D-11  0.31428192D+00  0.92664068D-14 -0.32829848D-12
  0.37020371D-01  0.57640770D-15 -0.51053355D-14  0.14536165D-03  0.41704330D-01
  0.43488802D-01 -0.85193133D-01  0.51789151D-14  0.22766831D-15  0.40228883D-12
  0.10227054D-01  0.11560700D-01 -0.21787754D-01 -0.80791812D-15 -0.66869283D-14
  0.93046007D-15  0.20811987D-03  0.48117451D-03 -0.68929438D-03  0.16270915D-15
 -0.45955457D-14 -0.62946753D-13  0.21131907D-14  0.67044806D-13  0.15318750D-01
  0.39871380D-14 -0.80570973D-13 -0.15727924D-01 -0.10326710D-13 -0.12056344D-12
 -0.30228325D-01 -0.18447903D-14 -0.16808030D-14 -0.48034068D-14  0.19759807D-02
 -0.95887538D-15 -0.17251305D-14 -0.24191686D-02  0.60012845D-14  0.16135351D-13
 -0.35087734D-02 -0.41476017D-15  0.35586054D-02  0.66339574D-02  0.11212292D-01
  0.16854166D-01  0.20702324D-01  0.17472031D-01  0.65699400D-02  0.49381592D-04
  0.36909681D-03  0.13793990D-02  0.38483085D-02  0.51556725D-02 -0.60878878D-02
 -0.40712003D-02  0.17742336D-01 -0.13457218D-04  0.16968186D-13  0.15908753D-13
  0.11327980D-13  0.22160358D-11  0.20776745D-11  0.14794280D-11 -0.52799261D+00
 -0.49502663D+00 -0.35248845D+00 -0.85458703D-14  0.57543686D-12 -0.10964344D+00
 -0.50766827D-14  0.31717798D-13 -0.86497698D-02 -0.13926155D-15  0.17325536D-14
 -0.38688190D-04  0.82156653D-02  0.29218520D-01 -0.37434185D-01 -0.51137637D-15
 -0.14569607D-14 -0.10060112D-11  0.47640828D-04  0.25106715D-02 -0.25583123D-02
  0.10532507D-14 -0.51165294D-14 -0.34096509D-12 -0.15458683D-03  0.97478773D-04
  0.57108055D-04  0.13925835D-15 -0.23500289D-15 -0.44592649D-13  0.75717795D-15
  0.53309841D-13 -0.59856045D-02 -0.53824412D-15 -0.14352567D-13  0.68036080D-02
 -0.17332897D-14 -0.14557696D-12  0.11153206D-01 -0.57548009D-15  0.53173585D-15
  0.28513986D-13  0.82536556D-03 -0.12845708D-15  0.72133814D-14 -0.22565563D-03
 -0.14667505D-14 -0.92755340D-13 -0.22504410D-02 -0.52006415D-15  0.19068818D-01
  0.34391398D-01  0.50710097D-01  0.31993383D-01  0.82317958D-03  0.13427640D-04
 -0.79368248D-16 -0.17992760D-01  0.42978452D-02  0.12504142D-14 -0.58207317D-02
  0.82659281D-03  0.72769536D-15  0.39775369D-03 -0.22393586D-03 -0.16147997D-02
  0.52599322D-02 -0.36451325D-02 -0.81847640D-15  0.25403401D-14 -0.51234451D-02
 -0.54557368D-03 -0.38457533D-05  0.54941943D-03 -0.73743425D-15 -0.70756962D-17
  0.81671277D-04  0.19068818D-01  0.34391398D-01  0.50710097D-01  0.31993383D-01
  0.82317958D-03  0.13427640D-04 -0.16469562D-14  0.17992760D-01  0.42978452D-02
  0.38006337D-14  0.58207317D-02  0.82659281D-03  0.14341599D-14 -0.39775369D-03
 -0.22393586D-03 -0.16147997D-02  0.52599322D-02 -0.36451325D-02  0.22255158D-14
  0.16052165D-14  0.51234451D-02 -0.54557368D-03 -0.38457533D-05  0.54941943D-03
  0.15550499D-14  0.72871962D-15 -0.81671277D-04
MO    7     MO 0.0        OCC NO =    1.9564606  ORB. ENERGY =    0.000000
  0.19008961D-13  0.35429579D-13  0.60075829D-13  0.90918379D-13  0.11341351D-12
  0.97325666D-13  0.37270560D-13 -0.97522298D-15 -0.10463503D-13 -0.38570441D-13
 -0.11277771D-12 -0.13590262D-12  0.16370911D-12  0.13172051D-12  0.35482621D-12
 -0.14292184D-12  0.80333693D-13  0.77896660D-13  0.52548627D-13  0.11565478D+01
  0.11214623D+01  0.75653183D+00  0.13325549D-10  0.12921301D-10  0.87166330D-11
  0.18929567D-13  0.27322206D+00  0.31104298D-11  0.56005362D-14  0.49335911D-01
  0.23428442D-12  0.58567079D-15  0.16755968D-02  0.33553202D-13  0.38171096D-12
  0.46130826D-12 -0.84301921D-12  0.75943139D-14 -0.11420141D-13 -0.10689519D-01
  0.12142778D-12  0.10467251D-12 -0.22610029D-12 -0.37339519D-15  0.16108095D-15
 -0.25885873D-02 -0.66573204D-14 -0.12550754D-13  0.19208075D-13  0.91791179D-15
 -0.15419429D-14 -0.56599013D-03  0.40005759D-16 -0.39692437D-02  0.16049457D-12
  0.67399248D-15  0.86942060D-02 -0.14387394D-12 -0.79400976D-15  0.32135251D-02
 -0.33760978D-12  0.50667276D-14  0.30443463D-16 -0.29077332D-03  0.12624535D-13
 -0.29448591D-15 -0.35825222D-03 -0.25463108D-13  0.20315552D-15  0.12305722D-02
 -0.12410499D-13 -0.18703258D-14  0.16532205D-12  0.30819361D-12  0.52088918D-12
  0.78299359D-12  0.96176739D-12  0.81169775D-12  0.30521955D-12  0.39659346D-14
  0.29642904D-13  0.11078230D-12  0.30906537D-12  0.41406239D-12 -0.48893047D-12
 -0.16059355D-12 -0.23407603D-11 -0.35492168D-12  0.23449926D-13  0.21985796D-13
  0.15655197D-13 -0.36101416D+00 -0.33847372D+00 -0.24101345D+00 -0.42950958D-11
 -0.40269253D-11 -0.28674107D-11  0.48588562D-14 -0.99188296D-01 -0.61885950D-12
 -0.15250895D-14 -0.25463616D-01  0.39250800D-12 -0.17254044D-15 -0.50331408D-03
  0.42504022D-14  0.50325680D-13  0.27535648D-12 -0.32568216D-12 -0.15989637D-15
  0.63640386D-14  0.11181100D+00  0.19154232D-12 -0.18886640D-12 -0.26759199D-14
 -0.13259140D-15 -0.29370221D-15  0.32035817D-01  0.18461440D-13 -0.54215040D-13
  0.35753600D-13 -0.53292519D-15 -0.37379414D-15  0.34341684D-02 -0.91394098D-15
 -0.36048302D-02 -0.79026931D-13 -0.39268401D-15  0.27815528D-02  0.11609228D-13
  0.31345070D-14  0.80329379D-02  0.22547156D-12 -0.31209209D-15  0.24220828D-15
 -0.57700985D-03 -0.20011854D-13 -0.91459160D-17  0.78232011D-03 -0.41497362D-13
 -0.71747893D-15  0.94870943D-03  0.10153292D-12 -0.10057509D-14 -0.34839438D-01
 -0.62834361D-01 -0.92649229D-01 -0.53550233D-01  0.96405704D-02  0.41029083D-03
 -0.62880009D-15  0.14792491D-01 -0.10802118D-01 -0.12022456D-15 -0.31488936D-02
  0.19641587D-02  0.10973150D-14 -0.34026932D-02  0.16655021D-02  0.72923125D-03
 -0.15460136D-02  0.81678235D-03  0.26169029D-14 -0.96661758D-15  0.32632751D-02
 -0.38372916D-05  0.35079862D-03 -0.34696133D-03 -0.56080730D-15  0.65869650D-15
  0.97130544D-05  0.34839438D-01  0.62834361D-01  0.92649229D-01  0.53550233D-01
 -0.96405704D-02 -0.41029083D-03  0.32533116D-15  0.14792491D-01  0.10802118D-01
  0.13311328D-14 -0.31488936D-02 -0.19641587D-02 -0.59457575D-15 -0.34026932D-02
 -0.16655021D-02 -0.72923125D-03  0.15460136D-02 -0.81678235D-03  0.31040604D-14
  0.12599063D-14  0.32632751D-02  0.38372916D-05 -0.35079862D-03  0.34696133D-03
 -0.16202092D-15 -0.35115042D-15  0.97130545D-05
MO    8     MO 0.0        OCC NO =    1.9241067  ORB. ENERGY =    0.000000
  0.43088753D-14  0.80310351D-14  0.13617749D-13  0.20609014D-13  0.25708121D-13
  0.22061393D-13  0.84483413D-14  0.11306021D-15  0.12130618D-14  0.44715743D-14
  0.13074621D-13  0.15755554D-13 -0.18979235D-13 -0.12097391D-14  0.40645652D-13
  0.27303491D-13  0.13810763D+01  0.13391794D+01  0.90340252D+00 -0.94228750D-13
 -0.91370191D-13 -0.61637791D-13 -0.64683832D-13 -0.62721559D-13 -0.42311593D-13
  0.33272680D+00 -0.21287745D-13 -0.24455906D-13  0.48306057D-01  0.53763093D-14
 -0.25573064D-13  0.87259586D-03  0.26826046D-14 -0.29753016D-14 -0.70732408D-14
  0.87075861D-14 -0.16343453D-14  0.55924251D-15 -0.12712223D+00 -0.24103230D-14
 -0.15946929D-14 -0.68572476D-14  0.84519406D-14 -0.16652662D-14 -0.37807199D-01
  0.12403667D-14 -0.20493464D-14 -0.83305236D-15  0.28823987D-14  0.71374310D-15
 -0.23483060D-02 -0.46336198D-14 -0.63755724D-02  0.56650280D-14 -0.45369382D-14
 -0.22259587D-01  0.10941598D-14  0.66552618D-14  0.41386304D-01 -0.18089244D-13
  0.69555529D-14  0.14826714D-13 -0.36226739D-03 -0.10759283D-14 -0.13413394D-14
 -0.15477129D-02  0.71997394D-15  0.25813154D-14  0.26345151D-02  0.25078110D-14
  0.14427028D-14  0.88100723D-15 -0.26657643D-14 -0.49695217D-14 -0.83991687D-14
 -0.12625517D-13 -0.15508187D-13 -0.13088362D-13 -0.49215660D-14  0.26471409D-15
  0.19785738D-14  0.73943821D-14  0.20629175D-13  0.27637407D-13 -0.32634624D-13
  0.15711467D-13 -0.12556888D-12 -0.24941258D-13  0.41668556D+00  0.39066920D+00
  0.27817974D+00 -0.96935077D-15 -0.90882796D-15 -0.64713965D-15  0.18814843D-14
  0.17640111D-14  0.12560810D-14  0.10652846D+00  0.53073414D-13  0.16171122D-13
  0.12434190D-01  0.15867427D-13  0.90434171D-14  0.36873782D-04 -0.15074072D-14