 h2co-wavefunction
GAUSSIAN            138 MOL ORBITALS    198 PRIMITIVES        4 NUCLEI
  O    1    (CENTRE  1)   0.00000000 -0.01889726  1.28360026  CHARGE =  8.0
  C    2    (CENTRE  2)   0.00000000  0.00000000 -0.99571749  CHARGE =  6.0
  H    3    (CENTRE  3)   0.00000000  1.76994395 -2.09120873  CHARGE =  1.0
  H    4    (CENTRE  4)   0.00000000 -1.76994395 -2.09120873  CHARGE =  1.0
CENTRE ASSIGNMENTS    1  1  1  1  1  1  1  1  1  1  1  1  1  1  1  1  1  1  1  1
CENTRE ASSIGNMENTS    1  1  1  1  1  1  1  1  1  1  1  1  1  1  1  1  1  1  1  1
CENTRE ASSIGNMENTS    1  1  1  1  1  1  1  1  1  1  1  1  1  1  1  1  1  1  1  1
CENTRE ASSIGNMENTS    1  1  1  1  1  1  1  1  1  1  1  1  2  2  2  2  2  2  2  2
CENTRE ASSIGNMENTS    2  2  2  2  2  2  2  2  2  2  2  2  2  2  2  2  2  2  2  2
CENTRE ASSIGNMENTS    2  2  2  2  2  2  2  2  2  2  2  2  2  2  2  2  2  2  2  2
CENTRE ASSIGNMENTS    2  2  2  2  2  2  2  2  2  2  2  2  2  2  2  2  2  2  2  2
CENTRE ASSIGNMENTS    2  2  2  2  3  3  3  3  3  3  3  3  3  3  3  3  3  3  3  3
CENTRE ASSIGNMENTS    3  3  3  3  3  3  3  3  3  3  3  4  4  4  4  4  4  4  4  4
CENTRE ASSIGNMENTS    4  4  4  4  4  4  4  4  4  4  4  4  4  4  4  4  4  4
TYPE ASSIGNMENTS      1  1  1  1  1  1  1  1  1  1  1  1  1  1  1  1  2  2  2  3
TYPE ASSIGNMENTS      3  3  4  4  4  2  3  4  2  3  4  2  3  4  5  6  7  8  9 10
TYPE ASSIGNMENTS      5  6  7  8  9 10  5  6  7  8  9 10 11 12 13 17 14 15 18 19
TYPE ASSIGNMENTS     16 20 11 12 13 17 14 15 18 19 16 20  1  1  1  1  1  1  1  1
TYPE ASSIGNMENTS      1  1  1  1  1  1  1  1  2  2  2  3  3  3  4  4  4  2  3  4
TYPE ASSIGNMENTS      2  3  4  2  3  4  5  6  7  8  9 10  5  6  7  8  9 10  5  6
TYPE ASSIGNMENTS      7  8  9 10 11 12 13 17 14 15 18 19 16 20 11 12 13 17 14 15
TYPE ASSIGNMENTS     18 19 16 20  1  1  1  1  1  1  2  3  4  2  3  4  2  3  4  5
TYPE ASSIGNMENTS      6  7  8  9 10  5  6  7  8  9 10  1  1  1  1  1  1  2  3  4
TYPE ASSIGNMENTS      2  3  4  2  3  4  5  6  7  8  9 10  5  6  7  8  9 10
EXPONENTS  0.1533000D+05 0.2299000D+04 0.5224000D+03 0.1473000D+03 0.4755000D+02
EXPONENTS  0.1676000D+02 0.6207000D+01 0.5224000D+03 0.1473000D+03 0.4755000D+02
EXPONENTS  0.1676000D+02 0.6207000D+01 0.6882000D+00 0.1752000D+01 0.2384000D+00
EXPONENTS  0.7376000D-01 0.3446000D+02 0.7749000D+01 0.2280000D+01 0.3446000D+02
EXPONENTS  0.7749000D+01 0.2280000D+01 0.3446000D+02 0.7749000D+01 0.2280000D+01
EXPONENTS  0.7156000D+00 0.7156000D+00 0.7156000D+00 0.2140000D+00 0.2140000D+00
EXPONENTS  0.2140000D+00 0.5974000D-01 0.5974000D-01 0.5974000D-01 0.2314000D+01
EXPONENTS  0.2314000D+01 0.2314000D+01 0.2314000D+01 0.2314000D+01 0.2314000D+01
EXPONENTS  0.6450000D+00 0.6450000D+00 0.6450000D+00 0.6450000D+00 0.6450000D+00
EXPONENTS  0.6450000D+00 0.2140000D+00 0.2140000D+00 0.2140000D+00 0.2140000D+00
EXPONENTS  0.2140000D+00 0.2140000D+00 0.1428000D+01 0.1428000D+01 0.1428000D+01
EXPONENTS  0.1428000D+01 0.1428000D+01 0.1428000D+01 0.1428000D+01 0.1428000D+01
EXPONENTS  0.1428000D+01 0.1428000D+01 0.5000000D+00 0.5000000D+00 0.5000000D+00
EXPONENTS  0.5000000D+00 0.5000000D+00 0.5000000D+00 0.5000000D+00 0.5000000D+00
EXPONENTS  0.5000000D+00 0.5000000D+00 0.8236000D+04 0.1235000D+04 0.2808000D+03
EXPONENTS  0.7927000D+02 0.2559000D+02 0.8997000D+01 0.3319000D+01 0.2808000D+03
EXPONENTS  0.7927000D+02 0.2559000D+02 0.8997000D+01 0.3319000D+01 0.3643000D+00
EXPONENTS  0.9059000D+00 0.1285000D+00 0.4402000D-01 0.1871000D+02 0.4133000D+01
EXPONENTS  0.1200000D+01 0.1871000D+02 0.4133000D+01 0.1200000D+01 0.1871000D+02
EXPONENTS  0.4133000D+01 0.1200000D+01 0.3827000D+00 0.3827000D+00 0.3827000D+00
EXPONENTS  0.1209000D+00 0.1209000D+00 0.1209000D+00 0.3569000D-01 0.3569000D-01
EXPONENTS  0.3569000D-01 0.1097000D+01 0.1097000D+01 0.1097000D+01 0.1097000D+01
EXPONENTS  0.1097000D+01 0.1097000D+01 0.3180000D+00 0.3180000D+00 0.3180000D+00
EXPONENTS  0.3180000D+00 0.3180000D+00 0.3180000D+00 0.1000000D+00 0.1000000D+00
EXPONENTS  0.1000000D+00 0.1000000D+00 0.1000000D+00 0.1000000D+00 0.7610000D+00
EXPONENTS  0.7610000D+00 0.7610000D+00 0.7610000D+00 0.7610000D+00 0.7610000D+00
EXPONENTS  0.7610000D+00 0.7610000D+00 0.7610000D+00 0.7610000D+00 0.2680000D+00
EXPONENTS  0.2680000D+00 0.2680000D+00 0.2680000D+00 0.2680000D+00 0.2680000D+00
EXPONENTS  0.2680000D+00 0.2680000D+00 0.2680000D+00 0.2680000D+00 0.3387000D+02
EXPONENTS  0.5095000D+01 0.1159000D+01 0.3258000D+00 0.1027000D+00 0.2526000D-01
EXPONENTS  0.1407000D+01 0.1407000D+01 0.1407000D+01 0.3880000D+00 0.3880000D+00
EXPONENTS  0.3880000D+00 0.1020000D+00 0.1020000D+00 0.1020000D+00 0.1057000D+01
EXPONENTS  0.1057000D+01 0.1057000D+01 0.1057000D+01 0.1057000D+01 0.1057000D+01
EXPONENTS  0.2470000D+00 0.2470000D+00 0.2470000D+00 0.2470000D+00 0.2470000D+00
EXPONENTS  0.2470000D+00 0.3387000D+02 0.5095000D+01 0.1159000D+01 0.3258000D+00
EXPONENTS  0.1027000D+00 0.2526000D-01 0.1407000D+01 0.1407000D+01 0.1407000D+01
EXPONENTS  0.3880000D+00 0.3880000D+00 0.3880000D+00 0.1020000D+00 0.1020000D+00
EXPONENTS  0.1020000D+00 0.1057000D+01 0.1057000D+01 0.1057000D+01 0.1057000D+01
EXPONENTS  0.1057000D+01 0.1057000D+01 0.2470000D+00 0.2470000D+00 0.2470000D+00
EXPONENTS  0.2470000D+00 0.2470000D+00 0.2470000D+00
MO    1     MO 0.0        OCC NO =    2.0000076  ORB. ENERGY =    0.000000
 -0.26738329D+00 -0.49835850D+00 -0.84503686D+00 -0.12788734D+01 -0.15952938D+01
 -0.13689994D+01 -0.52425405D+00 -0.36275847D-04 -0.38921603D-03 -0.14347236D-02
 -0.41950476D-02 -0.50552363D-02  0.60895678D-02 -0.23745998D-01  0.68507343D-03
  0.15410028D-04 -0.20784290D-13 -0.20153769D-13 -0.13595614D-13 -0.16642895D-03
 -0.16138010D-03 -0.10886606D-03  0.14652700D-01  0.14208190D-01  0.95847610D-02
 -0.78795885D-14 -0.17995082D-04  0.18795327D-02 -0.99754635D-14 -0.24203425D-05
  0.63441560D-03 -0.48493094D-15 -0.40219009D-06  0.80100409D-05  0.92703167D-03
  0.11174895D-03 -0.10387806D-02  0.38443439D-14 -0.23665306D-13  0.10035008D-04
  0.23031693D-03  0.11945566D-03 -0.34977259D-03 -0.42262423D-15  0.12983215D-13
  0.14026923D-04  0.63049001D-04  0.10881835D-04 -0.73930836D-04  0.16705908D-15
  0.48135715D-14  0.17447277D-05 -0.91515900D-15  0.27610966D-05 -0.10805288D-03
  0.60945741D-15 -0.64377323D-05  0.45168104D-03  0.21360196D-14 -0.18455574D-05
 -0.12752239D-03 -0.27781151D-15  0.19607020D-14  0.21047688D-05  0.10469702D-03
  0.16416594D-14  0.37742703D-05 -0.17045507D-03 -0.75237655D-14 -0.10088577D-04
 -0.14363600D-03 -0.60565507D-15  0.27691441D+00  0.51622424D+00  0.87248929D+00
  0.13115141D+01  0.16109602D+01  0.13595936D+01  0.51124269D+00  0.32322556D-04
  0.24159108D-03  0.90288102D-03  0.25188975D-02  0.33746281D-02 -0.39848066D-02
  0.22748977D-01  0.53734391D-03  0.12367008D-03 -0.14033411D-13 -0.13157215D-13
 -0.93687211D-14 -0.30686466D-08 -0.28770512D-08 -0.20486319D-08  0.20484595D-02
  0.19205610D-02  0.13675538D-02  0.12779510D-13 -0.62125036D-05  0.25292579D-03
  0.58172889D-14 -0.85003330D-05 -0.10219407D-03  0.10939909D-15  0.16418703D-06
 -0.34830075D-05 -0.12229127D-02  0.23830603D-03  0.98460666D-03  0.88432428D-15
  0.16569692D-14 -0.24252141D-04  0.14497502D-03  0.20209817D-04 -0.16518484D-03
 -0.26525416D-14  0.79677473D-14  0.17396893D-04 -0.58694365D-05  0.19110342D-04
 -0.13240905D-04 -0.37990367D-15  0.19836213D-15  0.71691502D-06 -0.10238046D-14
  0.71581296D-05  0.55113994D-03 -0.32196727D-14 -0.60758681D-06 -0.50222100D-04
  0.62910864D-14 -0.20866802D-04 -0.16031977D-02  0.29560816D-14 -0.66436134D-15
  0.25907179D-06 -0.11434467D-03  0.40511252D-15  0.70606895D-06  0.43755031D-04
  0.15879715D-14 -0.14832843D-05  0.29927899D-03  0.30728706D-15 -0.27414383D-03
 -0.49442969D-03 -0.72903629D-03 -0.20983756D-03 -0.44063427D-03 -0.12213156D-04
  0.87897114D-15  0.77443813D-03 -0.52656580D-03 -0.10161266D-14  0.21251539D-03
 -0.87047340D-04 -0.65028733D-15  0.39264358D-04 -0.56238846D-04  0.22324692D-03
 -0.34701813D-03  0.12377120D-03  0.27724100D-15 -0.33474232D-14  0.88881243D-03
  0.47201745D-04 -0.12102260D-04 -0.35099485D-04  0.30453473D-15  0.10048319D-15
 -0.25744806D-04 -0.27388435D-03 -0.49396171D-03 -0.72834625D-03 -0.23199092D-03
 -0.46437394D-03 -0.11725265D-04  0.41775537D-14 -0.77434943D-03 -0.52165426D-03
 -0.51662049D-14 -0.22705516D-03 -0.76478086D-04 -0.20702802D-14 -0.43364853D-04
 -0.57181576D-04  0.21790552D-03 -0.35729525D-03  0.13938973D-03 -0.36886737D-14
 -0.26815942D-14 -0.86921386D-03  0.46832101D-04 -0.13663473D-04 -0.33168628D-04
 -0.16754506D-14 -0.13932225D-14  0.26931006D-04
MO    2     MO 0.0        OCC NO =    2.0000041  ORB. ENERGY =    0.000000
  0.42241672D+00  0.78731531D+00  0.13350037D+01  0.20203862D+01  0.25202726D+01
  0.21627688D+01  0.82822555D+00  0.49613644D-04  0.53232184D-03  0.19622385D-02
  0.57374704D-02  0.69139308D-02 -0.83285623D-02  0.38591562D-01 -0.65406964D-03
 -0.80025984D-04  0.22334265D-13  0.21656724D-13  0.14609498D-13  0.12041356D-03
  0.11676065D-03  0.78766044D-04 -0.10978338D-01 -0.10645295D-01 -0.71812531D-02
  0.31028025D-14 -0.14722498D-04  0.14478660D-02 -0.49291187D-14 -0.20009235D-05
  0.10558966D-03 -0.22197513D-15 -0.21191902D-06  0.19447184D-05 -0.99445376D-03
 -0.59997233D-04  0.10544510D-02 -0.12376772D-13 -0.38131889D-13 -0.15783788D-04
  0.34856511D-03  0.53664437D-03 -0.88520948D-03  0.36574505D-15  0.82218602D-14
  0.30285272D-04  0.34118372D-04 -0.63416428D-06 -0.33484208D-04  0.15921082D-15
  0.30071435D-14  0.22862454D-05  0.42381704D-15  0.16135606D-05  0.11054102D-03
 -0.37154361D-15  0.26336754D-05 -0.24024505D-03 -0.89990750D-15 -0.74743573D-05
 -0.91378007D-04 -0.36793715D-15  0.13772501D-14  0.25435446D-05  0.12858960D-03
  0.10248987D-14  0.19399972D-05 -0.16764755D-03 -0.51566491D-14 -0.95706310D-05
 -0.21812124D-03 -0.16880833D-15  0.17517630D+00  0.32656391D+00  0.55193749D+00
  0.82966500D+00  0.10190948D+01  0.86008010D+00  0.32341258D+00  0.17392576D-04
  0.12999873D-03  0.48583494D-03  0.13554038D-02  0.18158674D-02 -0.21442009D-02
  0.14455624D-01  0.50694631D-03  0.93215724D-04  0.14806157D-14  0.13881714D-14
  0.98846071D-15  0.31163265D-05  0.29217542D-05  0.20804630D-05  0.11520047D-02
  0.10800776D-02  0.76907963D-03  0.10333434D-13 -0.30420888D-04  0.16065212D-02
  0.39157234D-14 -0.20316230D-05 -0.11231162D-04  0.66836594D-16  0.53221708D-07
  0.51705586D-06 -0.10273420D-02 -0.30881241D-03  0.13361544D-02  0.11473831D-14
  0.41802522D-14 -0.24296231D-04  0.16429626D-04 -0.25911967D-03  0.24269005D-03
 -0.15613387D-14  0.55520973D-14  0.75626284D-05 -0.18651023D-05  0.42015801D-04
 -0.40150698D-04 -0.19997785D-15  0.30112676D-16  0.86230742D-06 -0.11297279D-14
  0.58872157D-06  0.34847304D-03 -0.11612502D-14  0.49700287D-05 -0.22806085D-03
  0.45504340D-14 -0.67361935D-05 -0.81735827D-03  0.30379523D-14 -0.37584159D-15
  0.56417306D-07 -0.89212083D-05  0.28362932D-15  0.86207332D-06 -0.38645017D-04
  0.84389544D-15 -0.10313252D-05  0.65408642D-04 -0.91341816D-16 -0.14795985D-03
 -0.26685169D-03 -0.39347266D-03  0.12813806D-03 -0.34437772D-03 -0.74960447D-05
  0.11521159D-14  0.34607858D-03 -0.21826360D-03 -0.52921605D-15 -0.83979538D-04
  0.13645173D-03 -0.39224694D-15 -0.10979118D-04 -0.83327909D-04  0.12147441D-03
 -0.13530991D-03  0.13835502D-04  0.89982426D-15 -0.92054292D-15  0.40966271D-03
  0.18063261D-05  0.30293953D-05 -0.48357213D-05  0.14895255D-15  0.19075748D-15
 -0.68696291D-05 -0.14600494D-03 -0.26332593D-03 -0.38827393D-03  0.10056171D-03
 -0.35390975D-03 -0.74192649D-05  0.21246672D-14 -0.34615468D-03 -0.21961886D-03
 -0.23380042D-14  0.64650664D-04  0.12530981D-03 -0.12244767D-14  0.89533382D-05
 -0.83303553D-04  0.12533867D-03 -0.13386548D-03  0.85268135D-05 -0.18430874D-14
 -0.32441720D-14 -0.41832654D-03  0.27907708D-05  0.21820190D-05 -0.49727898D-05
 -0.10825259D-14 -0.80501658D-15  0.47449245D-05
MO    3     MO 0.0        OCC NO =    1.9805518  ORB. ENERGY =    0.000000
 -0.96677842D-01 -0.18019160D+00 -0.30554018D+00 -0.46240258D+00 -0.57681077D+00
 -0.49498945D+00 -0.18955466D+00 -0.16853297D-02 -0.18082481D-01 -0.66655430D-01
 -0.19489657D+00 -0.23485984D+00  0.28291357D+00  0.14940282D+00  0.75514293D-01
  0.44178059D-02  0.15713525D-12  0.15236833D-12  0.10278678D-12 -0.18765454D-02
 -0.18196178D-02 -0.12275034D-02 -0.19362517D-02 -0.18775128D-02 -0.12665591D-02
  0.36603279D-13 -0.38410028D-03 -0.80253101D-02  0.94614958D-14 -0.17599198D-03
  0.80810135D-02  0.40894147D-15 -0.62163818D-05  0.89890304D-04 -0.14822307D-01
 -0.15845214D-01  0.30667521D-01 -0.75957712D-14 -0.39675464D-14 -0.59929847D-03
 -0.42665688D-02 -0.51225972D-02  0.93891660D-02  0.14606509D-14 -0.93698289D-14
 -0.18173190D-03  0.46278208D-03  0.51041269D-03 -0.97319477D-03  0.27412301D-16
 -0.22221405D-14  0.42327516D-04 -0.84328936D-15 -0.78336509D-04 -0.89154660D-02
 -0.17622680D-15 -0.11968771D-03  0.14287834D-01  0.27060949D-14  0.35469723D-03
  0.12458564D-01 -0.56553658D-14 -0.95230582D-15 -0.57321481D-05 -0.35952595D-03
 -0.71588336D-15  0.24297960D-05  0.23448162D-04  0.35728008D-14  0.14766648D-04
  0.10551297D-02  0.13619508D-15 -0.28161474D-01 -0.52498662D-01 -0.88729891D-01
 -0.13337757D+00 -0.16383046D+00 -0.13826713D+00 -0.51992052D-01 -0.59171619D-03
 -0.44227119D-02 -0.16528684D-01 -0.46112456D-01 -0.61777978D-01  0.72948272D-01
  0.30046811D-01  0.19106456D-01  0.40748804D-03  0.53412632D-13  0.50077738D-13
  0.35658333D-13 -0.14917184D-02 -0.13985808D-02 -0.99587288D-03  0.10585712D+00
  0.99247782D-01  0.70670333D-01  0.51872737D-14 -0.20906127D-03  0.65654020D-02
 -0.14640973D-14  0.47861544D-04 -0.40020552D-02 -0.10465383D-15  0.27270898D-05
 -0.55088183D-04 -0.18335151D-01 -0.79339801D-02  0.26269132D-01  0.80858448D-15
  0.49249140D-14 -0.74781064D-03 -0.31357623D-02  0.25235818D-02  0.61218049D-03
 -0.53383422D-15 -0.87075771D-15 -0.45657767D-04  0.16127107D-04  0.49165470D-03
 -0.50778181D-03 -0.26457958D-16 -0.17923241D-15  0.14842812D-04  0.91793395D-15
  0.55323863D-04  0.43553250D-02 -0.47786704D-15  0.18301757D-04 -0.95016590D-03
 -0.22759348D-14 -0.18427335D-03 -0.12115809D-01  0.29841913D-15  0.34590062D-15
 -0.81476118D-05 -0.31547431D-04 -0.80749094D-15 -0.34317397D-05  0.44139351D-03
 -0.23021092D-15  0.27874575D-04 -0.34675121D-03 -0.24783425D-15  0.64533723D-02
  0.11638923D-01  0.17161585D-01 -0.51498653D-04 -0.58801198D-02 -0.83911640D-04
 -0.28932061D-15 -0.27644575D-02  0.21886482D-02  0.35448280D-14  0.42166609D-02
 -0.40648341D-02  0.87022406D-15  0.56258859D-03 -0.14912696D-02  0.55368224D-03
 -0.10808160D-02  0.52713380D-03 -0.26139914D-14  0.15449627D-14  0.21440730D-02
  0.34613303D-03 -0.80318706D-04 -0.26581432D-03 -0.89363723D-15  0.13412936D-14
  0.94264961D-03  0.64911035D-02  0.11706973D-01  0.17261924D-01  0.27533441D-04
 -0.58418366D-02 -0.75366981D-04 -0.61620478D-15  0.28036856D-02  0.23175376D-02
  0.32086139D-14 -0.41551820D-02 -0.41007337D-02  0.65243831D-15 -0.55594553D-03
 -0.14686768D-02  0.51180486D-03 -0.10801420D-02  0.56833710D-03  0.30956346D-14
  0.75844573D-15 -0.19920794D-02  0.34585689D-03 -0.78929934D-04 -0.26692695D-03
  0.68651950D-15  0.82039730D-15 -0.95047011D-03
MO    4     MO 0.0        OCC NO =    1.9668848  ORB. ENERGY =    0.000000
  0.36137239D-01  0.67353871D-01  0.11420795D+00  0.17284159D+00  0.21560626D+00
  0.18502225D+00  0.70853693D-01  0.69149515D-03  0.74192892D-02  0.27348897D-01
  0.79966570D-01  0.96363606D-01 -0.11608017D+00 -0.65927359D-01 -0.54258926D-01
 -0.31080689D-02 -0.47077611D-13 -0.45649447D-13 -0.30794847D-13 -0.13852248D-01
 -0.13432021D-01 -0.90611617D-02 -0.67825196D+00 -0.65767625D+00 -0.44366451D+00
 -0.12856069D-13 -0.33306951D-02 -0.15217939D+00  0.51568263D-14 -0.59151333D-03
 -0.15797369D-01  0.56831191D-15 -0.20201614D-04 -0.10794825D-03 -0.19546824D-01
 -0.19334861D-01  0.38881685D-01 -0.49952486D-14  0.11077854D-13  0.51865909D-03
 -0.35682860D-02 -0.40108154D-02  0.75791015D-02  0.12807879D-14 -0.35901022D-14
  0.19378145D-03  0.26068059D-06 -0.13835518D-03  0.13809450D-03  0.36815842D-15
 -0.29852071D-14  0.23376970D-04  0.33248052D-15  0.80582283D-04 -0.60210568D-02
  0.37953103D-14 -0.64325450D-04  0.58892173D-02 -0.47927519D-14 -0.17742140D-03
  0.12173953D-01 -0.49066260D-15 -0.10445422D-14  0.69372655D-05 -0.14463767D-03
 -0.64727912D-15 -0.34957873D-05 -0.20158952D-03  0.37809056D-14 -0.17316009D-04
  0.63550254D-03 -0.49197077D-15 -0.49520959D-01 -0.92317044D-01 -0.15602838D+00
 -0.23453976D+00 -0.28809009D+00 -0.24313787D+00 -0.91426188D-01 -0.12029470D-02
 -0.89912832D-02 -0.33602478D-01 -0.93745683D-01 -0.12559337D+00  0.14830235D+00
  0.64382487D-01  0.45901088D-01  0.11150828D-02 -0.12934598D-13 -0.12127008D-13
 -0.86351522D-14 -0.47037461D-02 -0.44100609D-02 -0.31402261D-02 -0.11366513D+00
 -0.10656828D+00 -0.75882964D-01 -0.12801166D-13 -0.11454211D-02 -0.31739759D-01
 -0.33392375D-14 -0.18243270D-04 -0.56229057D-02 -0.12338891D-15  0.44269681D-05
 -0.49018541D-05 -0.17575942D-01  0.14296664D-01  0.32792781D-02  0.84788186D-15
  0.40774960D-15 -0.71539212D-03 -0.45561896D-02  0.49132540D-02 -0.35706439D-03
  0.17958366D-14 -0.54313438D-14 -0.28977607D-04 -0.95956959D-04  0.13785767D-04
  0.82171193D-04 -0.28882761D-15 -0.63631969D-15  0.40756357D-05  0.35963770D-15
  0.11340795D-03  0.42709882D-02  0.19326016D-14  0.73867042D-04  0.63488146D-03
 -0.30115146D-14 -0.41409089D-03 -0.13447846D-01 -0.12583313D-14  0.35397517D-15
  0.86998371D-05  0.28229168D-03 -0.59387955D-15 -0.31533450D-05  0.64597272D-03
 -0.46804598D-15 -0.22946166D-04 -0.14928477D-02 -0.14670101D-14  0.24186339D-01
  0.43621058D-01  0.64319225D-01  0.26702915D-01 -0.40737939D-02 -0.97044790D-04
  0.32161136D-16 -0.17585511D-01  0.86271103D-02 -0.17491360D-14  0.14808975D-03
 -0.19847848D-02  0.72559634D-15  0.13603133D-02 -0.51515448D-03 -0.16005983D-02
  0.20868918D-02 -0.48629345D-03  0.23754323D-14 -0.23203559D-14 -0.27763335D-02
  0.28517485D-03 -0.12471720D-03 -0.16045765D-03  0.36711697D-15  0.12409757D-14
  0.55011744D-03  0.24531375D-01  0.44243345D-01  0.65236787D-01  0.27097433D-01
 -0.40104789D-02 -0.88201346D-04 -0.30590365D-14  0.17810183D-01  0.89873465D-02
  0.35884002D-14 -0.25949878D-03 -0.19041488D-02 -0.20048982D-15 -0.13513764D-02
 -0.49842836D-03 -0.16620233D-02  0.19836094D-02 -0.32158609D-03  0.20505936D-14
  0.20517231D-14  0.30924568D-02  0.29078839D-03 -0.13705038D-03 -0.15373801D-03
  0.29314540D-15  0.60758715D-15 -0.56445586D-03
MO    5     MO 0.0        OCC NO =    1.9653377  ORB. ENERGY =    0.000000
  0.35715810D-03  0.66568397D-03  0.11287607D-02  0.17082593D-02  0.21309188D-02
  0.18286454D-02  0.70027404D-03  0.67506555D-05  0.72430104D-04  0.26699100D-03
  0.78066602D-03  0.94074052D-03 -0.11332216D-02 -0.62981930D-03 -0.50540538D-03
  0.28994373D-04  0.71456246D-14  0.69288522D-14  0.46741627D-14  0.13316764D+01
  0.12912781D+01  0.87108860D+00  0.12646810D-01  0.12263152D-01  0.82726497D-02
  0.75802758D-15  0.31472324D+00  0.30131607D-02 -0.76986297D-14  0.50342781D-01
  0.54559945D-03 -0.15592654D-15  0.15701570D-02  0.85788933D-05  0.46843414D-04
  0.92791258D-03 -0.97475599D-03 -0.29940567D-14 -0.56457782D-14 -0.10120177D+00
  0.38926136D-05  0.26987402D-03 -0.27376664D-03 -0.15614196D-14  0.69403442D-14
 -0.28496134D-01  0.62875450D-06  0.24209113D-04 -0.24837867D-04 -0.79424547D-15
  0.39085408D-14 -0.26313343D-02 -0.27977472D-14 -0.12958425D-01  0.36092535D-03
 -0.22501746D-14  0.90237924D-04 -0.17283927D-04  0.10643416D-13  0.38785037D-01
 -0.10654921D-02 -0.83682302D-14  0.14147597D-14 -0.97047533D-03  0.30380004D-04
  0.14791642D-14  0.42703355D-03 -0.13184275D-05 -0.57234433D-14  0.24843924D-02
 -0.89821584D-04  0.30668961D-14 -0.72698461D-03 -0.13552458D-02 -0.22905500D-02
 -0.34431239D-02 -0.42292610D-02 -0.35693471D-02 -0.13421677D-02 -0.17907818D-04
 -0.13384984D-03 -0.50022743D-03 -0.13955566D-02 -0.18696612D-02  0.22077212D-02
  0.90342747D-03  0.11996829D-02  0.58526673D-04 -0.19608064D-15 -0.18383806D-15
 -0.13090365D-15  0.40601569D+00  0.38066552D+00  0.27105653D+00 -0.29363651D-02
 -0.27530290D-02 -0.19603206D-02  0.55497529D-14  0.10512124D+00 -0.73044961D-03
  0.11683506D-14  0.62748421D-02 -0.12670972D-03 -0.48683493D-16 -0.33184743D-03
 -0.16727419D-05 -0.17305915D-03 -0.33413292D-04  0.20647244D-03  0.35030831D-14
 -0.10246311D-14  0.28971125D-01 -0.98106248D-04  0.35205980D-04  0.62900268D-04
 -0.55370011D-14  0.97232330D-14 -0.37996139D-02 -0.81980876D-05  0.23073409D-04
 -0.14875321D-04  0.97724961D-16  0.57288955D-15 -0.88546942D-03 -0.37709027D-16
 -0.38780135D-02  0.13936017D-03 -0.25759975D-14 -0.54713628D-02  0.79890768D-04
  0.26891246D-14  0.17105403D-01 -0.49797127D-03  0.30701558D-14 -0.59669911D-16
 -0.38089344D-03  0.22637799D-04 -0.10018158D-14 -0.31526339D-03  0.11845063D-04
  0.11808255D-14  0.14579437D-02 -0.79758461D-04  0.24512069D-14  0.18741351D-01
  0.33800799D-01  0.49839258D-01  0.19709005D-01 -0.17442878D-02  0.34150490D-03
 -0.55913370D-14 -0.11595394D-01  0.13762538D-01  0.83084141D-14  0.55291178D-02
  0.17949526D-02  0.79362779D-15  0.48376782D-03  0.56849734D-03 -0.18819211D-02
 -0.13931265D-02  0.32750476D-02 -0.49329224D-14  0.31095149D-14 -0.83471378D-02
  0.30277160D-03 -0.46968860D-03  0.16691700D-03 -0.22384345D-14  0.11376636D-14
  0.89596691D-03 -0.17909590D-01 -0.32300683D-01 -0.47627338D-01 -0.18939435D-01
  0.13418144D-02 -0.34960277D-03  0.10144478D-14 -0.11048709D-01 -0.13618838D-01
 -0.20985703D-14  0.55115144D-02 -0.18105307D-02  0.30043001D-15  0.46233683D-03
 -0.65575231D-03  0.18346849D-02  0.14760235D-02 -0.33107084D-02 -0.28548035D-14
 -0.19214689D-14 -0.82593136D-02 -0.31741027D-03  0.46299735D-03 -0.14558708D-03
 -0.37928688D-15  0.40994237D-15  0.87603851D-03
MO    6     MO 0.0        OCC NO =    1.9601081  ORB. ENERGY =    0.000000
  0.19815777D-02  0.36933351D-02  0.62625687D-02  0.94777318D-02  0.11822723D-01
  0.10145656D-01  0.38852471D-02 -0.31533293D-04 -0.33833154D-03 -0.12471538D-02
 -0.36466044D-02 -0.43943356D-02  0.52934429D-02  0.76381097D-02  0.28694819D-01
  0.63073455D-02  0.17605034D-12  0.17070961D-12  0.11515969D-12 -0.21864101D-01
 -0.21200823D-01 -0.14301950D-01  0.13820852D+01  0.13401577D+01  0.90406248D+00
  0.44903508D-13 -0.51754637D-02  0.31967318D+00  0.14349170D-13 -0.72331938D-03
  0.38145258D-01  0.96357804D-15 -0.62287050D-05  0.15781934D-03  0.41980347D-01
  0.43753418D-01 -0.85733765D-01  0.18317833D-14 -0.12333975D-14  0.32834098D-02
  0.10429621D-01  0.11781636D-01 -0.22211257D-01 -0.77522338D-15 -0.13624976D-13
  0.83649874D-03  0.26549999D-03  0.51043994D-03 -0.77593993D-03  0.24508904D-15
 -0.41108382D-14  0.43759305D-04 -0.45860656D-15  0.38654160D-03  0.15662926D-01
  0.36631376D-15  0.17954424D-03 -0.15980221D-01  0.10095059D-14 -0.13391690D-02
 -0.31008557D-01  0.51355914D-15 -0.11249392D-14  0.33520389D-04  0.20161197D-02
 -0.19143945D-14  0.61471216D-07 -0.24753366D-02  0.52892122D-14 -0.10062264D-03
 -0.35730224D-02 -0.22859754D-15  0.52139887D-02  0.97199253D-02  0.16427998D-01
  0.24694345D-01  0.30332580D-01  0.25599627D-01  0.96261284D-02  0.88964013D-04
  0.66495088D-03  0.24850733D-02  0.69329675D-02  0.92882650D-02 -0.10967709D-01
 -0.62572485D-02  0.16275838D-01  0.10466505D-04  0.57951992D-13  0.54333676D-13
  0.38688814D-13  0.24887241D-03  0.23333371D-03  0.16614750D-03 -0.52338580D+00
 -0.49070745D+00 -0.34941294D+00  0.67843746D-14 -0.35989507D-03 -0.10881108D+00
 -0.17874599D-15  0.25822642D-04 -0.86473101D-02 -0.14854616D-15 -0.11187613D-05
 -0.40754930D-04  0.83615080D-02  0.28580044D-01 -0.36941552D-01  0.77411406D-15
  0.72970423D-14  0.58566639D-03  0.20302004D-03  0.24879215D-02 -0.26909416D-02
 -0.13842775D-14 -0.57398160D-14  0.91150035D-04 -0.15401367D-03  0.12810177D-03
  0.25911893D-04 -0.40945454D-15 -0.11099807D-14  0.59256140D-05  0.54447682D-16
 -0.88579791D-04 -0.58755075D-02 -0.93995582D-16  0.46085514D-04  0.64625785D-02
 -0.69347463D-16  0.21965386D-03  0.11163944D-01  0.39049317D-16  0.25303353D-15
  0.13047150D-05  0.76901737D-03  0.56170205D-15 -0.44793240D-05 -0.19263366D-03
 -0.13208026D-14  0.56517908D-06 -0.21144184D-02  0.61400037D-15  0.18190464D-01
  0.32807250D-01  0.48374272D-01  0.30937165D-01  0.69638240D-03  0.15046692D-04
  0.82168120D-15 -0.17429369D-01  0.36123329D-02  0.39340326D-15 -0.58630104D-02
  0.84390417D-03  0.25597961D-15  0.34367065D-03 -0.25317301D-03 -0.15260607D-02
  0.52445546D-02 -0.37184939D-02 -0.16724404D-14 -0.10711168D-14 -0.47037174D-02
 -0.55547966D-03  0.72547390D-05  0.54822492D-03  0.10186477D-15  0.51499793D-15
  0.18990981D-04  0.18288435D-01  0.32983946D-01  0.48634809D-01  0.30830629D-01
  0.81033617D-03  0.84212112D-05  0.28881259D-14  0.17424239D-01  0.35498497D-02
 -0.24397062D-14  0.56407441D-02  0.66595939D-03 -0.11288425D-14 -0.33193897D-03
 -0.23539060D-03 -0.14382402D-02  0.52823000D-02 -0.38440598D-02  0.69629512D-15
 -0.42331614D-16  0.43878074D-02 -0.54218571D-03  0.16996578D-05  0.54048605D-03
 -0.84965255D-15 -0.23421667D-15 -0.75329878D-04
MO    7     MO 0.0        OCC NO =    1.9567309  ORB. ENERGY =    0.000000
  0.13756851D-03  0.25640508D-03  0.43477085D-03  0.65797945D-03  0.82077750D-03
  0.70434921D-03  0.26972833D-03  0.25523850D-05  0.27385416D-04  0.10094780D-03
  0.29516545D-03  0.35568872D-03 -0.42846476D-03 -0.25422375D-03 -0.17173207D-03
  0.93399171D-04  0.42993833D-13  0.41689556D-13  0.28123528D-13  0.11745102D+01
  0.11388799D+01  0.76828162D+00  0.11735068D-01  0.11379068D-01  0.76762523D-02
  0.10586043D-13  0.27735217D+00  0.27534061D-02 -0.34367104D-14  0.50116400D-01
  0.54503276D-03 -0.56721677D-15  0.17016703D-02  0.14685592D-04 -0.84701803D-04
  0.19583240D-03 -0.11113060D-03  0.34660484D-14 -0.12836002D-13 -0.11682037D-01
  0.25402627D-06  0.32583501D-04 -0.32837527D-04 -0.16276568D-14  0.29554023D-14
 -0.29232319D-02  0.68554388D-05  0.73641828D-06 -0.75918571D-05 -0.12743933D-16
  0.23679949D-14 -0.65080470D-03 -0.33832823D-14 -0.41813715D-02  0.31727869D-04
  0.43809903D-15  0.88074614D-02  0.11635766D-03  0.97117480D-14  0.37366532D-02
 -0.21154127D-03  0.61431784D-14  0.90382136D-15 -0.30789405D-03  0.84048495D-05
  0.60793991D-15 -0.35485426D-03 -0.11490198D-04 -0.33194040D-14  0.12785364D-02
 -0.13724351D-04 -0.40388606D-15 -0.60694844D-04 -0.11314742D-03 -0.19123455D-03
 -0.28746120D-03 -0.35309459D-03 -0.29799938D-03 -0.11205555D-03 -0.15062478D-05
 -0.11258269D-04 -0.42074721D-04 -0.11738192D-03 -0.15725941D-03  0.18569404D-03
  0.62202695D-04  0.36462610D-03  0.30069765D-05  0.11967374D-13  0.11220174D-13
  0.79894320D-14 -0.36131191D+00 -0.33875288D+00 -0.24121223D+00 -0.24480707D-02
 -0.22952218D-02 -0.16343347D-02  0.68673419D-14 -0.99079168D-01 -0.64682660D-03
  0.25128507D-14 -0.25710262D-01 -0.15472440D-03  0.10828689D-15 -0.50651162D-03
 -0.39979956D-05  0.27224141D-04 -0.31496759D-03  0.28774345D-03  0.11264717D-14
  0.33327590D-14  0.11075053D+00 -0.13376134D-04 -0.89446266D-04  0.10282240D-03
  0.50599925D-15  0.47539781D-14  0.31840248D-01  0.57139921D-06  0.38184807D-05
 -0.43898799D-05  0.45101985D-16  0.57757734D-15  0.34100343D-02 -0.55787214D-15
 -0.36569703D-02  0.50574582D-04 -0.39296288D-15  0.27397578D-02  0.11134548D-04
  0.20665793D-14  0.82311532D-02 -0.16285829D-03  0.27000053D-15 -0.23961081D-15
 -0.58774368D-03  0.13301207D-04 -0.71292304D-16  0.80355566D-03  0.29416066D-05
  0.79012473D-15  0.95967538D-03 -0.42845228D-04  0.13401557D-15 -0.34520955D-01
 -0.62259964D-01 -0.91802281D-01 -0.52377211D-01  0.10441705D-01  0.43216103D-03
  0.34687275D-15  0.14864938D-01 -0.10630674D-01  0.88747468D-15 -0.32204598D-02
  0.19794101D-02 -0.30578873D-15 -0.34654750D-02  0.16332224D-02  0.70288100D-03
 -0.15217531D-02  0.81887212D-03 -0.15460231D-15  0.37146648D-15  0.31361736D-02
  0.21126897D-06  0.34923904D-03 -0.34945031D-03 -0.14021763D-15 -0.20687852D-16
  0.52148034D-04  0.34701786D-01  0.62586101D-01  0.92283169D-01  0.52537542D-01
 -0.10645860D-01 -0.43356549D-03 -0.12285388D-14  0.15048664D-01  0.10546548D-01
  0.17243889D-15 -0.31980382D-02 -0.20040046D-02  0.27545945D-15 -0.34842652D-02
 -0.16973363D-02 -0.71313430D-03  0.15801833D-02 -0.86704899D-03 -0.83285459D-16
  0.16488318D-15  0.31625946D-02 -0.94686312D-05 -0.35677844D-03  0.36624707D-03
  0.37190486D-15 -0.15021059D-15  0.38241015D-04
MO    8     MO 0.0        OCC NO =    1.9226247  ORB. ENERGY =    0.000000
  0.10646947D-14  0.19844159D-14  0.33648560D-14  0.50923517D-14  0.63523074D-14
  0.54512248D-14  0.20875295D-14  0.28373096D-15  0.30442470D-14  0.11221668D-13
  0.32811498D-13  0.39539450D-13 -0.47629458D-13 -0.33843025D-13 -0.47081186D-12
 -0.79224379D-13  0.13795788D+01  0.13377273D+01  0.90242296D+00 -0.48107514D-13
 -0.46648106D-13 -0.31468537D-13 -0.23691495D-12 -0.22972781D-12 -0.15497302D-12
  0.33248275D+00 -0.32387119D-14  0.14387549D-13  0.48483503D-01  0.48963227D-13
  0.23424987D-12  0.88711395D-03  0.25884903D-14  0.22935006D-14  0.73503620D-16
 -0.11448569D-13  0.11375065D-13  0.10849944D-02 -0.12442478D+00  0.25219117D-13
  0.80417125D-15  0.21273570D-13 -0.22077741D-13  0.33124649D-03 -0.37370882D-01
 -0.24275420D-13  0.31047485D-14  0.20789044D-13 -0.23893792D-13  0.16159201D-04
 -0.23613800D-02 -0.19857181D-13 -0.61323586D-02  0.19476953D-14 -0.26878796D-14
 -0.22203235D-01  0.76538959D-14 -0.86517785D-14  0.40600311D-01 -0.13496982D-13
  0.16715417D-13 -0.11146278D-02 -0.36198735D-03 -0.26716060D-14  0.44520363D-14
 -0.15474895D-02 -0.32671469D-14  0.59908206D-14  0.26334516D-02  0.11281965D-13
 -0.19346929D-13 -0.82432150D-04 -0.66897947D-14 -0.12471125D-13 -0.21077900D-13
 -0.31684016D-13 -0.38918138D-13 -0.32845536D-13 -0.12350779D-13  0.54900334D-15
  0.41034598D-14  0.15335566D-13  0.42783842D-13  0.57318553D-13 -0.67682524D-13
 -0.10168208D-12  0.21993819D-11  0.21910830D-12  0.41538966D+00  0.38945421D+00
  0.27731460D+00  0.10913323D-13  0.10231934D-13  0.72857463D-14  0.46919712D-13
  0.43990212D-13  0.31323652D-13  0.10664259D+00  0.68874020D-14 -0.37949622D-13
  0.12611365D-01 -0.76905599D-13 -0.19701818D-12  0.39109922D-04 -0.25793157D-14