 h2co-wavefunction
GAUSSIAN            138 MOL ORBITALS    198 PRIMITIVES        4 NUCLEI
  O    1    (CENTRE  1)   0.00000000  0.00000000  1.28360026  CHARGE =  8.0
  C    2    (CENTRE  2)   0.00000000  0.00000000 -0.99571749  CHARGE =  6.0
  H    3    (CENTRE  3)   0.00000000  1.76994395 -2.09120873  CHARGE =  1.0
  H    4    (CENTRE  4)   0.00000000 -1.76994395 -2.09120873  CHARGE =  1.0
CENTRE ASSIGNMENTS    1  1  1  1  1  1  1  1  1  1  1  1  1  1  1  1  1  1  1  1
CENTRE ASSIGNMENTS    1  1  1  1  1  1  1  1  1  1  1  1  1  1  1  1  1  1  1  1
CENTRE ASSIGNMENTS    1  1  1  1  1  1  1  1  1  1  1  1  1  1  1  1  1  1  1  1
CENTRE ASSIGNMENTS    1  1  1  1  1  1  1  1  1  1  1  1  2  2  2  2  2  2  2  2
CENTRE ASSIGNMENTS    2  2  2  2  2  2  2  2  2  2  2  2  2  2  2  2  2  2  2  2
CENTRE ASSIGNMENTS    2  2  2  2  2  2  2  2  2  2  2  2  2  2  2  2  2  2  2  2
CENTRE ASSIGNMENTS    2  2  2  2  2  2  2  2  2  2  2  2  2  2  2  2  2  2  2  2
CENTRE ASSIGNMENTS    2  2  2  2  3  3  3  3  3  3  3  3  3  3  3  3  3  3  3  3
CENTRE ASSIGNMENTS    3  3  3  3  3  3  3  3  3  3  3  4  4  4  4  4  4  4  4  4
CENTRE ASSIGNMENTS    4  4  4  4  4  4  4  4  4  4  4  4  4  4  4  4  4  4
TYPE ASSIGNMENTS      1  1  1  1  1  1  1  1  1  1  1  1  1  1  1  1  2  2  2  3
TYPE ASSIGNMENTS      3  3  4  4  4  2  3  4  2  3  4  2  3  4  5  6  7  8  9 10
TYPE ASSIGNMENTS      5  6  7  8  9 10  5  6  7  8  9 10 11 12 13 17 14 15 18 19
TYPE ASSIGNMENTS     16 20 11 12 13 17 14 15 18 19 16 20  1  1  1  1  1  1  1  1
TYPE ASSIGNMENTS      1  1  1  1  1  1  1  1  2  2  2  3  3  3  4  4  4  2  3  4
TYPE ASSIGNMENTS      2  3  4  2  3  4  5  6  7  8  9 10  5  6  7  8  9 10  5  6
TYPE ASSIGNMENTS      7  8  9 10 11 12 13 17 14 15 18 19 16 20 11 12 13 17 14 15
TYPE ASSIGNMENTS     18 19 16 20  1  1  1  1  1  1  2  3  4  2  3  4  2  3  4  5
TYPE ASSIGNMENTS      6  7  8  9 10  5  6  7  8  9 10  1  1  1  1  1  1  2  3  4
TYPE ASSIGNMENTS      2  3  4  2  3  4  5  6  7  8  9 10  5  6  7  8  9 10
EXPONENTS  0.1533000D+05 0.2299000D+04 0.5224000D+03 0.1473000D+03 0.4755000D+02
EXPONENTS  0.1676000D+02 0.6207000D+01 0.5224000D+03 0.1473000D+03 0.4755000D+02
EXPONENTS  0.1676000D+02 0.6207000D+01 0.6882000D+00 0.1752000D+01 0.2384000D+00
EXPONENTS  0.7376000D-01 0.3446000D+02 0.7749000D+01 0.2280000D+01 0.3446000D+02
EXPONENTS  0.7749000D+01 0.2280000D+01 0.3446000D+02 0.7749000D+01 0.2280000D+01
EXPONENTS  0.7156000D+00 0.7156000D+00 0.7156000D+00 0.2140000D+00 0.2140000D+00
EXPONENTS  0.2140000D+00 0.5974000D-01 0.5974000D-01 0.5974000D-01 0.2314000D+01
EXPONENTS  0.2314000D+01 0.2314000D+01 0.2314000D+01 0.2314000D+01 0.2314000D+01
EXPONENTS  0.6450000D+00 0.6450000D+00 0.6450000D+00 0.6450000D+00 0.6450000D+00
EXPONENTS  0.6450000D+00 0.2140000D+00 0.2140000D+00 0.2140000D+00 0.2140000D+00
EXPONENTS  0.2140000D+00 0.2140000D+00 0.1428000D+01 0.1428000D+01 0.1428000D+01
EXPONENTS  0.1428000D+01 0.1428000D+01 0.1428000D+01 0.1428000D+01 0.1428000D+01
EXPONENTS  0.1428000D+01 0.1428000D+01 0.5000000D+00 0.5000000D+00 0.5000000D+00
EXPONENTS  0.5000000D+00 0.5000000D+00 0.5000000D+00 0.5000000D+00 0.5000000D+00
EXPONENTS  0.5000000D+00 0.5000000D+00 0.8236000D+04 0.1235000D+04 0.2808000D+03
EXPONENTS  0.7927000D+02 0.2559000D+02 0.8997000D+01 0.3319000D+01 0.2808000D+03
EXPONENTS  0.7927000D+02 0.2559000D+02 0.8997000D+01 0.3319000D+01 0.3643000D+00
EXPONENTS  0.9059000D+00 0.1285000D+00 0.4402000D-01 0.1871000D+02 0.4133000D+01
EXPONENTS  0.1200000D+01 0.1871000D+02 0.4133000D+01 0.1200000D+01 0.1871000D+02
EXPONENTS  0.4133000D+01 0.1200000D+01 0.3827000D+00 0.3827000D+00 0.3827000D+00
EXPONENTS  0.1209000D+00 0.1209000D+00 0.1209000D+00 0.3569000D-01 0.3569000D-01
EXPONENTS  0.3569000D-01 0.1097000D+01 0.1097000D+01 0.1097000D+01 0.1097000D+01
EXPONENTS  0.1097000D+01 0.1097000D+01 0.3180000D+00 0.3180000D+00 0.3180000D+00
EXPONENTS  0.3180000D+00 0.3180000D+00 0.3180000D+00 0.1000000D+00 0.1000000D+00
EXPONENTS  0.1000000D+00 0.1000000D+00 0.1000000D+00 0.1000000D+00 0.7610000D+00
EXPONENTS  0.7610000D+00 0.7610000D+00 0.7610000D+00 0.7610000D+00 0.7610000D+00
EXPONENTS  0.7610000D+00 0.7610000D+00 0.7610000D+00 0.7610000D+00 0.2680000D+00
EXPONENTS  0.2680000D+00 0.2680000D+00 0.2680000D+00 0.2680000D+00 0.2680000D+00
EXPONENTS  0.2680000D+00 0.2680000D+00 0.2680000D+00 0.2680000D+00 0.3387000D+02
EXPONENTS  0.5095000D+01 0.1159000D+01 0.3258000D+00 0.1027000D+00 0.2526000D-01
EXPONENTS  0.1407000D+01 0.1407000D+01 0.1407000D+01 0.3880000D+00 0.3880000D+00
EXPONENTS  0.3880000D+00 0.1020000D+00 0.1020000D+00 0.1020000D+00 0.1057000D+01
EXPONENTS  0.1057000D+01 0.1057000D+01 0.1057000D+01 0.1057000D+01 0.1057000D+01
EXPONENTS  0.2470000D+00 0.2470000D+00 0.2470000D+00 0.2470000D+00 0.2470000D+00
EXPONENTS  0.2470000D+00 0.3387000D+02 0.5095000D+01 0.1159000D+01 0.3258000D+00
EXPONENTS  0.1027000D+00 0.2526000D-01 0.1407000D+01 0.1407000D+01 0.1407000D+01
EXPONENTS  0.3880000D+00 0.3880000D+00 0.3880000D+00 0.1020000D+00 0.1020000D+00
EXPONENTS  0.1020000D+00 0.1057000D+01 0.1057000D+01 0.1057000D+01 0.1057000D+01
EXPONENTS  0.1057000D+01 0.1057000D+01 0.2470000D+00 0.2470000D+00 0.2470000D+00
EXPONENTS  0.2470000D+00 0.2470000D+00 0.2470000D+00
MO    1     MO 0.0        OCC NO =    2.0000076  ORB. ENERGY =    0.000000
 -0.26736556D+00 -0.49832544D+00 -0.84498081D+00 -0.12787886D+01 -0.15951880D+01
 -0.13689086D+01 -0.52421928D+00 -0.36273194D-04 -0.38918757D-03 -0.14346187D-02
 -0.41947408D-02 -0.50548667D-02  0.60891226D-02 -0.23744528D-01  0.68491551D-03
  0.15378833D-04  0.52430278D-13  0.50839733D-13  0.34296184D-13 -0.98969848D-14
 -0.95967461D-14 -0.64739082D-14  0.14654028D-01  0.14209478D-01  0.95856300D-02
  0.26959719D-14  0.25005318D-14  0.18801816D-02 -0.15825252D-13  0.19920821D-13
  0.63457748D-03 -0.79173614D-15  0.14182055D-14  0.80126691D-05  0.92703411D-03
  0.11192271D-03 -0.10389568D-02  0.61554157D-14 -0.44413807D-13  0.87748984D-14
  0.23038880D-03  0.11957228D-03 -0.34996108D-03 -0.22278274D-14  0.21733286D-13
 -0.13706778D-13  0.63071750D-04  0.10874269D-04 -0.73946019D-04  0.21865782D-16
  0.78209159D-14 -0.65809710D-14 -0.12895969D-16  0.84428039D-15 -0.10816330D-03
 -0.67887207D-14  0.40101160D-14  0.45195701D-03  0.68274086D-14 -0.65429572D-14
 -0.12746711D-03 -0.33864884D-14  0.21887463D-14 -0.14416075D-14  0.10474247D-03
  0.42609814D-14 -0.49516918D-15 -0.17047005D-03 -0.10827220D-13  0.48199917D-14
 -0.14375737D-03  0.48939553D-15  0.27692172D+00  0.51623788D+00  0.87251234D+00
  0.13115488D+01  0.16110028D+01  0.13596295D+01  0.51125620D+00  0.32323388D-04
  0.24159730D-03  0.90290428D-03  0.25189623D-02  0.33747151D-02 -0.39849092D-02
  0.22749589D-01  0.53763348D-03  0.12371377D-03  0.77811211D-14  0.72952956D-14
  0.51946851D-14 -0.50788664D-14 -0.47617600D-14 -0.33906568D-14  0.20482555D-02
  0.19203698D-02  0.13674177D-02  0.14422703D-13  0.10665254D-14  0.25321347D-03
  0.25712298D-14 -0.22963994D-13 -0.10223398D-03  0.28341634D-16 -0.12216826D-14
 -0.34833441D-05 -0.12230518D-02  0.23809456D-03  0.98495719D-03  0.13231011D-14
  0.16510964D-14  0.26237712D-14  0.14493687D-03  0.20226323D-04 -0.16516319D-03
 -0.24547628D-14  0.22835628D-13 -0.13645103D-13 -0.58741398D-05  0.19123657D-04
 -0.13249517D-04 -0.22071222D-15  0.15841027D-14 -0.18235686D-14 -0.18660315D-14
  0.16799115D-14  0.55129049D-03 -0.54928606D-14 -0.40348652D-15 -0.50360188D-04
  0.11090955D-13 -0.46362479D-14 -0.16035113D-02  0.10428722D-14 -0.27062641D-15
  0.18830804D-14 -0.11435164D-03 -0.24553277D-14  0.12174493D-14  0.43758390D-04
  0.32672069D-14 -0.68666905D-14  0.29929653D-03  0.15119718D-14 -0.27403133D-03
 -0.49422678D-03 -0.72873710D-03 -0.22092136D-03 -0.45261744D-03 -0.11971913D-04
 -0.53276832D-14  0.77448185D-03 -0.52421373D-03  0.10811119D-13  0.21972875D-03
 -0.81721690D-04  0.19008132D-14  0.41309274D-04 -0.56724507D-04  0.22054440D-03
 -0.35215161D-03  0.13160720D-03 -0.17834729D-14  0.49025233D-14  0.87902732D-03
  0.47011329D-04 -0.12874797D-04 -0.34136532D-04 -0.29007997D-14  0.16495104D-14
 -0.26364932D-04 -0.27403133D-03 -0.49422678D-03 -0.72873710D-03 -0.22092136D-03
 -0.45261744D-03 -0.11971913D-04 -0.18051908D-14 -0.77448185D-03 -0.52421373D-03
  0.47979459D-14 -0.21972875D-03 -0.81721690D-04  0.90115422D-15 -0.41309274D-04
 -0.56724507D-04  0.22054440D-03 -0.35215161D-03  0.13160720D-03  0.12850354D-14
  0.40509743D-14 -0.87902732D-03  0.47011329D-04 -0.12874797D-04 -0.34136532D-04
  0.13997647D-14  0.12667566D-14  0.26364932D-04
MO    2     MO 0.0        OCC NO =    2.0000041  ORB. ENERGY =    0.000000
  0.42242781D+00  0.78733598D+00  0.13350388D+01  0.20204393D+01  0.25203387D+01
  0.21628256D+01  0.82824730D+00  0.49614564D-04  0.53233171D-03  0.19622749D-02
  0.57375768D-02  0.69140590D-02 -0.83287168D-02  0.38592731D-01 -0.65411247D-03
 -0.80033217D-04 -0.14069533D-13 -0.13642715D-13 -0.92032947D-14 -0.24315833D-13
 -0.23578179D-13 -0.15905700D-13 -0.10979353D-01 -0.10646279D-01 -0.71819168D-02
 -0.88182355D-14 -0.41661039D-14  0.14479880D-02 -0.12182639D-13  0.19491776D-13
  0.10564817D-03 -0.59278084D-15  0.26620886D-15  0.19469274D-05 -0.99455173D-03
 -0.60223745D-04  0.10547755D-02  0.67591621D-15 -0.31732340D-13  0.48880391D-14
  0.34853093D-03  0.53681311D-03 -0.88534404D-03 -0.76302113D-15  0.15524228D-13
 -0.82300618D-14  0.34124014D-04 -0.62078489D-06 -0.33503230D-04 -0.24516428D-15
  0.52893283D-14 -0.72439653D-14 -0.15493486D-14 -0.16933988D-14  0.11040790D-03
 -0.10238400D-14  0.34906750D-15 -0.23995934D-03  0.56718857D-14  0.47311288D-14
 -0.91264366D-04 -0.43865393D-14  0.19670395D-14 -0.46512681D-15  0.12864028D-03
  0.21285815D-14 -0.14579301D-14 -0.16764619D-03 -0.80297001D-14  0.28533105D-14
 -0.21827466D-03  0.61726599D-15  0.17516468D+00  0.32654226D+00  0.55190090D+00
  0.82960999D+00  0.10190273D+01  0.86002308D+00  0.32339114D+00  0.17391278D-04
  0.12998903D-03  0.48579867D-03  0.13553027D-02  0.18157319D-02 -0.21440408D-02
  0.14454883D-01  0.50692233D-03  0.93221340D-04 -0.11754038D-13 -0.11020158D-13
 -0.78470090D-14 -0.14378157D-13 -0.13480436D-13 -0.95988737D-14  0.11519378D-02
  0.10800149D-02  0.76903494D-03  0.65955083D-14 -0.18783871D-13  0.16066645D-02
  0.16038390D-14 -0.53734783D-13 -0.11219107D-04  0.34754153D-16 -0.15315663D-14
  0.51698304D-06 -0.10272849D-02 -0.30898306D-03  0.13362679D-02  0.11222061D-14
  0.19960844D-15  0.42706911D-14  0.16447591D-04 -0.25915371D-03  0.24270612D-03
 -0.82403047D-15  0.14147030D-13  0.87795906D-14 -0.18659492D-05  0.42024264D-04
 -0.40158315D-04 -0.76364222D-16  0.10569722D-14  0.28143204D-14 -0.13600039D-14
  0.12415412D-14  0.34840469D-03 -0.28550226D-14  0.26233821D-15 -0.22801293D-03
  0.69350344D-14 -0.39869618D-14 -0.81720115D-03 -0.72204361D-16 -0.19879851D-15
  0.21056095D-14 -0.89127932D-05 -0.12813140D-14  0.32909124D-14 -0.38653658D-04
  0.18777095D-14 -0.96077408D-14  0.65392038D-04  0.82777150D-15 -0.14695964D-03
 -0.26504777D-03 -0.39081278D-03  0.11444882D-03 -0.34913407D-03 -0.74577984D-05
 -0.31342644D-14  0.34602456D-03 -0.21886702D-03  0.50413934D-14 -0.74365261D-04
  0.13092054D-03  0.88907566D-15 -0.99784734D-05 -0.83322127D-04  0.12339907D-03
 -0.13457041D-03  0.11171341D-04 -0.17220198D-14  0.10380813D-14  0.41392077D-03
  0.22925274D-05  0.26054405D-05 -0.48979680D-05 -0.14037079D-14  0.52498762D-15
 -0.57990750D-05 -0.14695964D-03 -0.26504777D-03 -0.39081278D-03  0.11444882D-03
 -0.34913407D-03 -0.74577984D-05 -0.22217250D-14 -0.34602456D-03 -0.21886702D-03
  0.29969416D-14  0.74365261D-04  0.13092054D-03  0.61713905D-15  0.99784734D-05
 -0.83322127D-04  0.12339907D-03 -0.13457041D-03  0.11171341D-04  0.14237017D-14
  0.22827331D-14 -0.41392077D-03  0.22925274D-05  0.26054405D-05 -0.48979680D-05
  0.10131746D-14  0.58693591D-15  0.57990750D-05
MO    3     MO 0.0        OCC NO =    1.9805523  ORB. ENERGY =    0.000000
 -0.96677783D-01 -0.18019149D+00 -0.30554000D+00 -0.46240230D+00 -0.57681041D+00
 -0.49498915D+00 -0.18955455D+00 -0.16853162D-02 -0.18082337D-01 -0.66654900D-01
 -0.19489502D+00 -0.23485797D+00  0.28291132D+00  0.14940064D+00  0.75511510D-01
  0.44177343D-02 -0.95117170D-13 -0.92231659D-13 -0.62218932D-13  0.15430539D-11
  0.14962432D-11  0.10093568D-11 -0.19653716D-02 -0.19057494D-02 -0.12856073D-02
 -0.27982142D-13  0.40071052D-12 -0.80315276D-02 -0.14833631D-13  0.31960056D-12
  0.80818196D-02 -0.74743263D-15 -0.37011049D-14  0.89901062D-04 -0.14825145D-01
 -0.15849556D-01  0.30674701D-01 -0.88151530D-14 -0.74641526D-14 -0.10022823D-12
 -0.42669735D-02 -0.51235915D-02  0.93905649D-02  0.50901938D-15  0.15549573D-13
 -0.13827882D-12  0.46280449D-03  0.51064930D-03 -0.97345379D-03 -0.14747866D-14
  0.54473923D-14 -0.99704573D-13 -0.76853478D-15 -0.23611027D-13 -0.89173670D-02
 -0.93509330D-16  0.52727437D-14  0.14289736D-01  0.23991137D-14  0.65560336D-13
  0.12462365D-01 -0.10454201D-13  0.16173284D-14 -0.64150508D-14 -0.35955449D-03
  0.20823669D-14 -0.82735860D-14  0.23360401D-04 -0.69343522D-14  0.27518738D-13
  0.10553031D-02  0.31289404D-14 -0.28163611D-01 -0.52502644D-01 -0.88736621D-01
 -0.13338769D+00 -0.16384289D+00 -0.13827762D+00 -0.51995995D-01 -0.59175812D-03
 -0.44230253D-02 -0.16529855D-01 -0.46115723D-01 -0.61782355D-01  0.72953441D-01
  0.30048599D-01  0.19107305D-01  0.40775057D-03 -0.37516407D-13 -0.35174016D-13
 -0.25045995D-13  0.10637776D-11  0.99735912D-12  0.71017911D-12  0.10588565D+00
  0.99274531D-01  0.70689380D-01  0.18239011D-14  0.15594386D-12  0.65674608D-02
  0.45302998D-14 -0.61865663D-12 -0.40020038D-02  0.15415218D-15 -0.60143963D-14
 -0.55091071D-04 -0.18336671D-01 -0.79381841D-02  0.26274855D-01  0.74500388D-15
 -0.37352728D-14 -0.83192966D-14 -0.31359590D-02  0.25241248D-02  0.61183427D-03
 -0.14074595D-14  0.10527038D-13  0.81253032D-14  0.16087018D-04  0.49179163D-03
 -0.50787864D-03  0.55293853D-15  0.63024544D-15  0.29420793D-13 -0.81702223D-15
  0.78817947D-14  0.43566123D-02 -0.26663729D-14 -0.13637282D-13 -0.95024190D-03
  0.51174396D-14 -0.10008102D-13 -0.12119595D-01 -0.18317166D-14 -0.55664886D-15
  0.25393951D-13 -0.31691702D-04 -0.35837479D-15  0.36523940D-13  0.44142748D-03
  0.20283214D-14 -0.11270579D-12 -0.34635238D-03  0.25055299D-14  0.64719729D-02
  0.11672470D-01  0.17211050D-01 -0.13502421D-04 -0.58615589D-02 -0.79656012D-04
 -0.24011396D-14 -0.27831198D-02  0.22526708D-02  0.28568046D-14  0.41867109D-02
 -0.40836783D-02 -0.15541561D-14  0.55916226D-03 -0.14801071D-02  0.53295704D-03
 -0.10807355D-02  0.54777842D-03 -0.16838996D-14  0.10481063D-14  0.20687415D-02
  0.34607450D-03 -0.79626708D-04 -0.26644779D-03 -0.12447723D-15 -0.65441231D-15
  0.94662459D-03  0.64719729D-02  0.11672470D-01  0.17211050D-01 -0.13502422D-04
 -0.58615589D-02 -0.79656012D-04 -0.26563770D-15  0.27831198D-02  0.22526708D-02
 -0.24975356D-14 -0.41867109D-02 -0.40836783D-02 -0.10196700D-15 -0.55916226D-03
 -0.14801071D-02  0.53295704D-03 -0.10807355D-02  0.54777842D-03 -0.13252693D-14
  0.55036929D-16 -0.20687415D-02  0.34607450D-03 -0.79626708D-04 -0.26644779D-03
 -0.51604690D-15  0.25418007D-15 -0.94662459D-03
MO    4     MO 0.0        OCC NO =    1.9668851  ORB. ENERGY =    0.000000
  0.36139674D-01  0.67358410D-01  0.11421565D+00  0.17285324D+00  0.21562079D+00
  0.18503472D+00  0.70858467D-01  0.69154726D-03  0.74198483D-02  0.27350958D-01
  0.79972597D-01  0.96370868D-01 -0.11608892D+00 -0.65932554D-01 -0.54265766D-01
 -0.31081307D-02  0.18553421D-12  0.17990578D-12  0.12136337D-12 -0.16226085D-10
 -0.15733844D-10 -0.10613959D-10 -0.67821577D+00 -0.65764116D+00 -0.44364084D+00
  0.41444358D-13 -0.37751713D-11 -0.15216940D+00 -0.89622380D-14  0.32851638D-12
 -0.15793945D-01 -0.10377387D-14 -0.47456232D-13 -0.10785370D-03 -0.19550492D-01
 -0.19329194D-01  0.38879686D-01  0.49352387D-14 -0.37017361D-13  0.12089492D-11
 -0.35690014D-02 -0.40090539D-02  0.75780553D-02 -0.14497218D-14  0.87265982D-14
  0.94107526D-13  0.24165830D-06 -0.13817842D-03  0.13793676D-03 -0.39142292D-15
  0.71118525D-14 -0.35806215D-12 -0.48433330D-14  0.13326753D-12 -0.60188936D-02
 -0.67495739D-14  0.73241849D-13  0.58911807D-02  0.21279573D-13 -0.47304445D-12
  0.12165500D-01 -0.89732626D-14  0.25299040D-14 -0.41574089D-14 -0.14454983D-03
  0.19933591D-14 -0.71758404D-13 -0.20149440D-03 -0.95830710D-14  0.84230631D-13
  0.63514388D-03  0.27557956D-14 -0.49526181D-01 -0.92326780D-01 -0.15604484D+00
 -0.23456449D+00 -0.28812047D+00 -0.24316351D+00 -0.91435830D-01 -0.12030764D-02
 -0.89922506D-02 -0.33606094D-01 -0.93755768D-01 -0.12560688D+00  0.14831831D+00
  0.64388340D-01  0.45909229D-01  0.11156067D-02  0.50608957D-13  0.47449114D-13
  0.33786596D-13 -0.29410581D-11 -0.27574289D-11 -0.19634537D-11 -0.11363761D+00
 -0.10654248D+00 -0.75864595D-01  0.27114488D-13 -0.17351282D-11 -0.31736344D-01
  0.72470249D-14 -0.31932357D-11 -0.56234248D-02  0.21320872D-15 -0.54210772D-13
 -0.49190720D-05 -0.17578016D-01  0.14290193D-01  0.32878230D-02  0.20131037D-14
  0.89663869D-14 -0.43985657D-12 -0.45570062D-02  0.49130015D-02 -0.35599533D-03
 -0.33346482D-14  0.16445674D-13  0.62209157D-12 -0.96026554D-04  0.13997723D-04
  0.82028831D-04 -0.71865990D-15  0.12622956D-14  0.24154428D-12 -0.17743868D-14
  0.72476851D-13  0.42740442D-02 -0.17563943D-14  0.95309673D-13  0.63499972D-03
  0.70795546D-14 -0.31274023D-12 -0.13457132D-01  0.13599619D-14 -0.64434447D-15
  0.88194542D-13  0.28236178D-03 -0.10038796D-14  0.19140442D-12  0.64615559D-03
  0.29369131D-14 -0.45598804D-12 -0.14932409D-02  0.26819343D-14  0.24360059D-01
  0.43934370D-01  0.64781204D-01  0.26899781D-01 -0.40439628D-02 -0.92657032D-04
 -0.79372717D-15 -0.17697297D-01  0.88064277D-02  0.63911171D-14  0.20470376D-03
 -0.19446068D-02  0.15303349D-14  0.13558703D-02 -0.50716754D-03 -0.16313723D-02
  0.20348586D-02 -0.40348629D-03 -0.22599527D-14  0.97193558D-15 -0.29340156D-02
  0.28799158D-03 -0.13090041D-03 -0.15709117D-03 -0.19349711D-14  0.11275920D-14
  0.55728644D-03  0.24360059D-01  0.43934370D-01  0.64781204D-01  0.26899781D-01
 -0.40439628D-02 -0.92657032D-04  0.25117161D-14  0.17697297D-01  0.88064277D-02
 -0.20883882D-14 -0.20470376D-03 -0.19446068D-02 -0.14108702D-14 -0.13558703D-02
 -0.50716754D-03 -0.16313723D-02  0.20348586D-02 -0.40348629D-03 -0.21045060D-14
  0.92468935D-15  0.29340156D-02  0.28799158D-03 -0.13090041D-03 -0.15709117D-03
 -0.81909023D-15 -0.17793198D-15 -0.55728644D-03
MO    5     MO 0.0        OCC NO =    1.9653386  ORB. ENERGY =    0.000000
  0.55433233D-12  0.10331843D-11  0.17519092D-11  0.26513283D-11  0.33073230D-11
  0.28381752D-11  0.10868703D-11  0.99635742D-14  0.10690261D-12  0.39406316D-12
  0.11522176D-11  0.13884782D-11 -0.16725691D-11 -0.93057981D-12 -0.95520835D-12
 -0.20519273D-12  0.37338144D-13  0.36205440D-13  0.24423976D-13  0.13318953D+01
  0.12914904D+01  0.87123177D+00 -0.34272541D-11 -0.33232836D-11 -0.22418675D-11
  0.22377525D-14  0.31477598D+00 -0.60303688D-12 -0.54614393D-14  0.50351755D-01
 -0.12183024D-12  0.26695410D-15  0.15702458D-02  0.96687502D-14 -0.51588810D-13
 -0.35237879D-13  0.86826689D-13  0.15225933D-14 -0.13971166D-13 -0.10124532D+00
  0.12339496D-14 -0.17467427D-14  0.51279312D-15  0.62964583D-15  0.87962050D-14
 -0.28507341D-01 -0.19773633D-13 -0.14584484D-13  0.34358117D-13 -0.59385568D-15
  0.26988698D-14 -0.26325593D-02 -0.60762982D-16 -0.12965690D-01  0.12086885D-13
 -0.50923048D-14  0.88904966D-04 -0.26070349D-13  0.52745938D-14  0.38808165D-01
 -0.10190307D-13 -0.22946973D-14  0.90448566D-15 -0.97106238D-03 -0.12069578D-13
  0.15384621D-14  0.42716078D-03  0.15571660D-13 -0.42519190D-14  0.24860264D-02
  0.20637072D-13  0.10113442D-14 -0.42374084D-12 -0.78993828D-12 -0.13351033D-11
 -0.20069093D-11 -0.24651286D-11 -0.20804816D-11 -0.78231541D-12 -0.10382406D-13
 -0.77602054D-13 -0.29001659D-12 -0.80910114D-12 -0.10839725D-11  0.12799694D-11
  0.51530993D-12  0.27989971D-12 -0.42090288D-13  0.88925089D-14  0.83372923D-14
  0.59366488D-14  0.40605426D+00  0.38070168D+00  0.27108227D+00 -0.26200931D-11
 -0.24565038D-11 -0.17491770D-11  0.48564560D-14  0.10513025D+00 -0.61773934D-12
 -0.67065334D-15  0.62718476D-02  0.10730308D-12 -0.19652615D-15 -0.33191470D-03
 -0.11032939D-14 -0.13846251D-12  0.26633324D-12 -0.12787073D-12 -0.69982368D-15
  0.26576326D-15  0.28985254D-01 -0.61819603D-13  0.25698295D-14  0.59249773D-13
  0.14565757D-14  0.10643592D-13 -0.37991898D-02 -0.29254403D-14 -0.39582071D-13
  0.42507512D-13  0.47230359D-15  0.33732842D-15 -0.88564095D-03 -0.99934231D-15
 -0.38802688D-02  0.37346375D-13 -0.21793571D-14 -0.54716942D-02  0.14605871D-13
  0.51773840D-14  0.17112501D-01 -0.12664499D-12  0.84918085D-15  0.61493922D-16
 -0.38120931D-03  0.13879864D-13 -0.19197333D-14 -0.31486709D-03 -0.16530815D-13
  0.17352515D-14  0.14584950D-02 -0.25108776D-13  0.23144417D-15  0.18326327D-01
  0.33052285D-01  0.48735575D-01  0.19325673D-01 -0.15392443D-02  0.34568021D-03
 -0.49708558D-15 -0.11323030D-01  0.13691963D-01  0.41097029D-14  0.55216780D-02
  0.18036476D-02  0.23747988D-15  0.47259914D-03  0.61274054D-03 -0.18585421D-02
 -0.14353063D-02  0.32938484D-02 -0.16421622D-14  0.22061567D-14 -0.83054146D-02
  0.31010461D-03 -0.46644008D-03  0.15633547D-03 -0.77859620D-15  0.10760438D-14
  0.88635875D-03 -0.18326327D-01 -0.33052285D-01 -0.48735575D-01 -0.19325673D-01
  0.15392443D-02 -0.34568021D-03 -0.41316354D-14 -0.11323030D-01 -0.13691963D-01
  0.63086696D-14  0.55216780D-02 -0.18036476D-02  0.17417229D-14  0.47259914D-03
 -0.61274054D-03  0.18585421D-02  0.14353063D-02 -0.32938484D-02  0.18921069D-14
 -0.36938319D-15 -0.83054146D-02 -0.31010461D-03  0.46644008D-03 -0.15633547D-03
  0.16002121D-14  0.21659587D-14  0.88635875D-03
MO    6     MO 0.0        OCC NO =    1.9601108  ORB. ENERGY =    0.000000
  0.19836056D-02  0.36971147D-02  0.62689775D-02  0.94874308D-02  0.11834822D-01
  0.10156038D-01  0.38892230D-02 -0.31490443D-04 -0.33787179D-03 -0.12454590D-02
 -0.36416492D-02 -0.43883644D-02  0.52862499D-02  0.76331428D-02  0.28691198D-01
  0.63077669D-02 -0.12327853D-12 -0.11953871D-12 -0.80640105D-13 -0.21532163D-12
 -0.20878955D-12 -0.14084819D-12  0.13822037D+01  0.13402726D+01  0.90414001D+00
 -0.29063218D-13 -0.42913452D-13  0.31969798D+00 -0.28324390D-14  0.69832556D-13
  0.38148623D-01  0.18800717D-16 -0.46811640D-14  0.15785345D-03  0.41981418D-01
  0.43771870D-01 -0.85753288D-01  0.11734670D-14  0.11755641D-13  0.26873540D-12
  0.10428722D-01  0.11786417D-01 -0.22215138D-01 -0.16773873D-14  0.25328286D-14
  0.21875191D-13  0.26531445D-03  0.51085191D-03 -0.77616636D-03 -0.61401686D-15
  0.94067024D-16 -0.14359695D-13  0.25720130D-15  0.20378390D-13  0.15669199D-01
  0.32530274D-14  0.34135520D-13 -0.15979798D-01 -0.40246313D-14 -0.95270689D-13
 -0.31027800D-01 -0.95739753D-14  0.38426703D-15 -0.14679479D-14  0.20166782D-02
 -0.21613792D-15 -0.11704180D-13 -0.24751465D-02 -0.93666318D-15  0.16108024D-13
 -0.35748882D-02  0.31624989D-14  0.52072891D-02  0.97074360D-02  0.16406889D-01
  0.24662615D-01  0.30293605D-01  0.25566734D-01  0.96137596D-02  0.88802096D-04
  0.66374065D-03  0.24805504D-02  0.69203492D-02  0.92713601D-02 -0.10947747D-01
 -0.62479323D-02  0.16287300D-01  0.10715289D-04 -0.40701159D-13 -0.38159924D-13
 -0.27172139D-13 -0.19127093D-11 -0.17932866D-11 -0.12769269D-11 -0.52341062D+00
 -0.49073072D+00 -0.34942951D+00 -0.69100916D-14 -0.74873321D-12 -0.10881355D+00
 -0.17325487D-16 -0.32335838D-12 -0.86471720D-02 -0.18338538D-16  0.20914636D-14
 -0.40768924D-04  0.83616516D-02  0.28583567D-01 -0.36945219D-01 -0.30598175D-14
 -0.34282849D-14  0.27669121D-12  0.20240549D-03  0.24874185D-02 -0.26898240D-02
  0.81719125D-15 -0.33719080D-14  0.21579975D-12 -0.15405366D-03  0.12832175D-03
  0.25731915D-04  0.72764220D-16 -0.31570288D-15  0.27404224D-13 -0.34003379D-15
  0.48028652D-14 -0.58764793D-02  0.16201064D-15  0.42295016D-13  0.64641296D-02
  0.85809073D-15 -0.56703612D-13  0.11165308D-01  0.32216490D-14 -0.10918777D-15
  0.46805208D-14  0.76948744D-03  0.11146785D-14  0.21148469D-13 -0.19278388D-03
 -0.78711519D-15 -0.35190031D-13 -0.21156784D-02  0.12461917D-14  0.18242905D-01
  0.32901831D-01  0.48513730D-01  0.30887221D-01  0.75169311D-03  0.11703952D-04
  0.15947970D-14 -0.17430293D-01  0.35831083D-02 -0.35301206D-14 -0.57521578D-02
  0.75562072D-03 -0.85265206D-15  0.33785147D-03 -0.24475220D-03 -0.14822248D-02
  0.52638885D-02 -0.37816637D-02  0.15441077D-14 -0.13712737D-14 -0.45465813D-02
 -0.54902329D-03  0.43569920D-05  0.54466630D-03  0.71077716D-15 -0.13356845D-14
  0.47431397D-04  0.18242905D-01  0.32901831D-01  0.48513730D-01  0.30887221D-01
  0.75169311D-03  0.11703952D-04  0.17096685D-14  0.17430293D-01  0.35831083D-02
 -0.38673108D-14  0.57521578D-02  0.75562072D-03 -0.46214570D-15 -0.33785147D-03
 -0.24475220D-03 -0.14822248D-02  0.52638885D-02 -0.37816637D-02 -0.32517045D-14
 -0.78817304D-15  0.45465813D-02 -0.54902329D-03  0.43569919D-05  0.54466630D-03
 -0.85420925D-15 -0.39244426D-15 -0.47431397D-04
MO    7     MO 0.0        OCC NO =    1.9567316  ORB. ENERGY =    0.000000
  0.83889883D-14  0.15635695D-13  0.26512518D-13  0.40123876D-13  0.50051373D-13
  0.42951525D-13  0.16448152D-13  0.39791490D-15  0.42693658D-14  0.15737686D-13
  0.46016071D-13  0.55451603D-13 -0.66797332D-13 -0.64998507D-13 -0.10885830D-11
 -0.15567200D-12 -0.13801390D-13 -0.13382706D-13 -0.90278944D-14  0.11745852D+01
  0.11389525D+01  0.76833065D+00 -0.53930913D-11 -0.52294844D-11 -0.35277793D-11
 -0.58771029D-14  0.27736929D+00 -0.10139788D-11 -0.68940406D-14  0.50118801D-01
  0.18567709D-12 -0.10311087D-15  0.17015023D-02 -0.24743594D-14 -0.18836157D-12
 -0.23113022D-12  0.41949179D-12 -0.10135900D-14 -0.74267598D-14 -0.11690093D-01
 -0.28239943D-14  0.19637381D-13 -0.16813386D-13  0.84009705D-15  0.65346627D-14
 -0.29242278D-02 -0.74210960D-14  0.22307504D-13 -0.14886408D-13 -0.18003481D-14
  0.38390730D-14 -0.65093339D-03 -0.18950299D-14 -0.41822626D-02 -0.45323117D-13
 -0.15409454D-14  0.88084083D-02  0.13471581D-14  0.72260349D-14  0.37383795D-02
  0.13462219D-12 -0.62877828D-14  0.16299129D-14 -0.30793587D-03  0.41191286D-14
  0.11233138D-14 -0.35515904D-03  0.12321213D-13 -0.60130526D-14  0.12789667D-02
 -0.24678599D-13  0.31575533D-14 -0.13932766D-12 -0.25973483D-12 -0.43898726D-12
 -0.65987972D-12 -0.81054405D-12 -0.68407058D-12 -0.25722840D-12 -0.42191306D-14
 -0.31535388D-13 -0.11785494D-12 -0.32879694D-12 -0.44049725D-12  0.52014512D-12
  0.14950842D-13  0.27440596D-11  0.18972567D-12 -0.10950333D-13 -0.10266633D-13
 -0.73104543D-14 -0.36129834D+00 -0.33874016D+00 -0.24120318D+00  0.12601463D-11
  0.11814673D-11  0.84127509D-12  0.94172790D-14 -0.99076784D-01  0.19079612D-12
  0.46618872D-14 -0.25711298D-01 -0.15533267D-12  0.55443314D-16 -0.50647911D-03
 -0.79157039D-14 -0.17863490D-13 -0.10310029D-12  0.12096378D-12 -0.25992620D-15
 -0.48675672D-15  0.11075904D+00 -0.32078285D-12  0.20680184D-12  0.11398101D-12
  0.64206515D-15  0.54042706D-14  0.31842672D-01 -0.25323865D-13  0.14284108D-13
  0.11039757D-13  0.10957031D-14 -0.25068763D-15  0.34102169D-02 -0.11145525D-14
 -0.36577793D-02  0.80800880D-13 -0.26206437D-15  0.27397108D-02 -0.49983035D-14
  0.36057219D-14  0.82336270D-02 -0.23740434D-12 -0.24925638D-14 -0.45908407D-15
 -0.58800189D-03  0.54500374D-13  0.43799464D-15  0.80364556D-03  0.27159507D-13
  0.93925757D-15  0.96036010D-03 -0.19066063D-12  0.24367158D-14 -0.34611712D-01
 -0.62423647D-01 -0.92043631D-01 -0.52457309D-01  0.10544899D-01  0.43280922D-03
  0.21474929D-15  0.14956503D-01 -0.10588471D-01 -0.48371474D-15 -0.32089680D-02
  0.19925863D-02 -0.30030395D-14 -0.34751300D-02  0.16653748D-02  0.70809802D-03
 -0.15511124D-02  0.84301436D-03  0.18870871D-15 -0.10782572D-14  0.31484465D-02
  0.48670129D-05  0.35300197D-03 -0.35786898D-03  0.11665793D-14 -0.14797244D-14
  0.45279022D-04  0.34611712D-01  0.62423647D-01  0.92043631D-01  0.52457309D-01
 -0.10544899D-01 -0.43280922D-03  0.29786965D-14  0.14956503D-01  0.10588471D-01
 -0.40797775D-14 -0.32089680D-02 -0.19925863D-02  0.35020268D-15 -0.34751300D-02
 -0.16653748D-02 -0.70809802D-03  0.15511124D-02 -0.84301436D-03 -0.17905342D-14
 -0.33307495D-14  0.31484465D-02 -0.48670129D-05 -0.35300197D-03  0.35786898D-03
 -0.10275843D-14  0.80199604D-15  0.45279022D-04
MO    8     MO 0.0        OCC NO =    1.9226308  ORB. ENERGY =    0.000000
  0.20594475D-14  0.38384715D-14  0.65086678D-14  0.98501767D-14  0.12287319D-13
  0.10544348D-13  0.40379250D-14 -0.18946674D-15 -0.20328537D-14 -0.74934817D-14
 -0.21910501D-13 -0.26403219D-13  0.31805475D-13  0.20673694D-13  0.37780073D-13
  0.15861597D-13  0.13795806D+01  0.13377291D+01  0.90242415D+00 -0.12994705D-13
 -0.12600492D-13 -0.85002176D-14  0.23053551D-12  0.22354190D-12  0.15080004D-12
  0.33248310D+00 -0.70354974D-14  0.32170230D-13  0.48482542D-01 -0.28074132D-13
 -0.13358816D-13  0.88702829D-03 -0.13168057D-14 -0.15199229D-14  0.45098512D-14
  0.12595463D-13 -0.17105315D-13 -0.13911886D-13 -0.12444018D+00 -0.17722281D-13
 -0.31529938D-14 -0.46853721D-14  0.78383660D-14  0.23343639D-14 -0.37374331D-01
  0.17114894D-13 -0.21150016D-14 -0.17235353D-14  0.38385369D-14 -0.16166840D-15
 -0.23613237D-02  0.11068400D-13 -0.61333316D-02 -0.43877281D-14  0.32080400D-14
 -0.22208711D-01  0.12571730D-14 -0.26266551D-15  0.40608705D-01  0.11906011D-13
 -0.93614546D-14  0.74536588D-14 -0.36198456D-03  0.23233405D-14 -0.23164098D-14
 -0.15478788D-02  0.12263466D-14  0.29047046D-14  0.26338325D-02 -0.81963681D-14
  0.40445247D-14 -0.14591605D-14  0.40175286D-14  0.74894827D-14  0.12658246D-13
  0.19027705D-13  0.23372127D-13  0.19725251D-13  0.74172095D-14 -0.10358238D-15
 -0.77421410D-15 -0.28934149D-14 -0.80721770D-14 -0.10814492D-13  0.12769898D-13
 -0.24970076D-13  0.57308271D-13 -0.24793868D-14  0.41539572D+00  0.38945989D+00
  0.27731864D+00 -0.80207850D-14 -0.75199958D-14 -0.53546850D-14 -0.40346026D-14
 -0.37826964D-14 -0.26935052D-14  0.10664218D+00 -0.25536992D-13 -0.78333995D-13
  0.12610707D-01  0.22003967D-13 -0.12658358D-13  0.39105697D-04  0.54849347D-15