 h2co-wavefunction
GAUSSIAN            138 MOL ORBITALS    198 PRIMITIVES        4 NUCLEI
  O    1    (CENTRE  1)   0.00000000  0.00000000  1.28360026  CHARGE =  8.0
  C    2    (CENTRE  2)   0.00000000  0.00000000 -0.99571749  CHARGE =  6.0
  H    3    (CENTRE  3)   0.00000000  1.76994395 -2.11010599  CHARGE =  1.0
  H    4    (CENTRE  4)   0.00000000 -1.76994395 -2.09120873  CHARGE =  1.0
CENTRE ASSIGNMENTS    1  1  1  1  1  1  1  1  1  1  1  1  1  1  1  1  1  1  1  1
CENTRE ASSIGNMENTS    1  1  1  1  1  1  1  1  1  1  1  1  1  1  1  1  1  1  1  1
CENTRE ASSIGNMENTS    1  1  1  1  1  1  1  1  1  1  1  1  1  1  1  1  1  1  1  1
CENTRE ASSIGNMENTS    1  1  1  1  1  1  1  1  1  1  1  1  2  2  2  2  2  2  2  2
CENTRE ASSIGNMENTS    2  2  2  2  2  2  2  2  2  2  2  2  2  2  2  2  2  2  2  2
CENTRE ASSIGNMENTS    2  2  2  2  2  2  2  2  2  2  2  2  2  2  2  2  2  2  2  2
CENTRE ASSIGNMENTS    2  2  2  2  2  2  2  2  2  2  2  2  2  2  2  2  2  2  2  2
CENTRE ASSIGNMENTS    2  2  2  2  3  3  3  3  3  3  3  3  3  3  3  3  3  3  3  3
CENTRE ASSIGNMENTS    3  3  3  3  3  3  3  3  3  3  3  4  4  4  4  4  4  4  4  4
CENTRE ASSIGNMENTS    4  4  4  4  4  4  4  4  4  4  4  4  4  4  4  4  4  4
TYPE ASSIGNMENTS      1  1  1  1  1  1  1  1  1  1  1  1  1  1  1  1  2  2  2  3
TYPE ASSIGNMENTS      3  3  4  4  4  2  3  4  2  3  4  2  3  4  5  6  7  8  9 10
TYPE ASSIGNMENTS      5  6  7  8  9 10  5  6  7  8  9 10 11 12 13 17 14 15 18 19
TYPE ASSIGNMENTS     16 20 11 12 13 17 14 15 18 19 16 20  1  1  1  1  1  1  1  1
TYPE ASSIGNMENTS      1  1  1  1  1  1  1  1  2  2  2  3  3  3  4  4  4  2  3  4
TYPE ASSIGNMENTS      2  3  4  2  3  4  5  6  7  8  9 10  5  6  7  8  9 10  5  6
TYPE ASSIGNMENTS      7  8  9 10 11 12 13 17 14 15 18 19 16 20 11 12 13 17 14 15
TYPE ASSIGNMENTS     18 19 16 20  1  1  1  1  1  1  2  3  4  2  3  4  2  3  4  5
TYPE ASSIGNMENTS      6  7  8  9 10  5  6  7  8  9 10  1  1  1  1  1  1  2  3  4
TYPE ASSIGNMENTS      2  3  4  2  3  4  5  6  7  8  9 10  5  6  7  8  9 10
EXPONENTS  0.1533000D+05 0.2299000D+04 0.5224000D+03 0.1473000D+03 0.4755000D+02
EXPONENTS  0.1676000D+02 0.6207000D+01 0.5224000D+03 0.1473000D+03 0.4755000D+02
EXPONENTS  0.1676000D+02 0.6207000D+01 0.6882000D+00 0.1752000D+01 0.2384000D+00
EXPONENTS  0.7376000D-01 0.3446000D+02 0.7749000D+01 0.2280000D+01 0.3446000D+02
EXPONENTS  0.7749000D+01 0.2280000D+01 0.3446000D+02 0.7749000D+01 0.2280000D+01
EXPONENTS  0.7156000D+00 0.7156000D+00 0.7156000D+00 0.2140000D+00 0.2140000D+00
EXPONENTS  0.2140000D+00 0.5974000D-01 0.5974000D-01 0.5974000D-01 0.2314000D+01
EXPONENTS  0.2314000D+01 0.2314000D+01 0.2314000D+01 0.2314000D+01 0.2314000D+01
EXPONENTS  0.6450000D+00 0.6450000D+00 0.6450000D+00 0.6450000D+00 0.6450000D+00
EXPONENTS  0.6450000D+00 0.2140000D+00 0.2140000D+00 0.2140000D+00 0.2140000D+00
EXPONENTS  0.2140000D+00 0.2140000D+00 0.1428000D+01 0.1428000D+01 0.1428000D+01
EXPONENTS  0.1428000D+01 0.1428000D+01 0.1428000D+01 0.1428000D+01 0.1428000D+01
EXPONENTS  0.1428000D+01 0.1428000D+01 0.5000000D+00 0.5000000D+00 0.5000000D+00
EXPONENTS  0.5000000D+00 0.5000000D+00 0.5000000D+00 0.5000000D+00 0.5000000D+00
EXPONENTS  0.5000000D+00 0.5000000D+00 0.8236000D+04 0.1235000D+04 0.2808000D+03
EXPONENTS  0.7927000D+02 0.2559000D+02 0.8997000D+01 0.3319000D+01 0.2808000D+03
EXPONENTS  0.7927000D+02 0.2559000D+02 0.8997000D+01 0.3319000D+01 0.3643000D+00
EXPONENTS  0.9059000D+00 0.1285000D+00 0.4402000D-01 0.1871000D+02 0.4133000D+01
EXPONENTS  0.1200000D+01 0.1871000D+02 0.4133000D+01 0.1200000D+01 0.1871000D+02
EXPONENTS  0.4133000D+01 0.1200000D+01 0.3827000D+00 0.3827000D+00 0.3827000D+00
EXPONENTS  0.1209000D+00 0.1209000D+00 0.1209000D+00 0.3569000D-01 0.3569000D-01
EXPONENTS  0.3569000D-01 0.1097000D+01 0.1097000D+01 0.1097000D+01 0.1097000D+01
EXPONENTS  0.1097000D+01 0.1097000D+01 0.3180000D+00 0.3180000D+00 0.3180000D+00
EXPONENTS  0.3180000D+00 0.3180000D+00 0.3180000D+00 0.1000000D+00 0.1000000D+00
EXPONENTS  0.1000000D+00 0.1000000D+00 0.1000000D+00 0.1000000D+00 0.7610000D+00
EXPONENTS  0.7610000D+00 0.7610000D+00 0.7610000D+00 0.7610000D+00 0.7610000D+00
EXPONENTS  0.7610000D+00 0.7610000D+00 0.7610000D+00 0.7610000D+00 0.2680000D+00
EXPONENTS  0.2680000D+00 0.2680000D+00 0.2680000D+00 0.2680000D+00 0.2680000D+00
EXPONENTS  0.2680000D+00 0.2680000D+00 0.2680000D+00 0.2680000D+00 0.3387000D+02
EXPONENTS  0.5095000D+01 0.1159000D+01 0.3258000D+00 0.1027000D+00 0.2526000D-01
EXPONENTS  0.1407000D+01 0.1407000D+01 0.1407000D+01 0.3880000D+00 0.3880000D+00
EXPONENTS  0.3880000D+00 0.1020000D+00 0.1020000D+00 0.1020000D+00 0.1057000D+01
EXPONENTS  0.1057000D+01 0.1057000D+01 0.1057000D+01 0.1057000D+01 0.1057000D+01
EXPONENTS  0.2470000D+00 0.2470000D+00 0.2470000D+00 0.2470000D+00 0.2470000D+00
EXPONENTS  0.2470000D+00 0.3387000D+02 0.5095000D+01 0.1159000D+01 0.3258000D+00
EXPONENTS  0.1027000D+00 0.2526000D-01 0.1407000D+01 0.1407000D+01 0.1407000D+01
EXPONENTS  0.3880000D+00 0.3880000D+00 0.3880000D+00 0.1020000D+00 0.1020000D+00
EXPONENTS  0.1020000D+00 0.1057000D+01 0.1057000D+01 0.1057000D+01 0.1057000D+01
EXPONENTS  0.1057000D+01 0.1057000D+01 0.2470000D+00 0.2470000D+00 0.2470000D+00
EXPONENTS  0.2470000D+00 0.2470000D+00 0.2470000D+00
MO    1     MO 0.0        OCC NO =    2.0000076  ORB. ENERGY =    0.000000
 -0.26814602D+00 -0.49978008D+00 -0.84744736D+00 -0.12825215D+01 -0.15998444D+01
 -0.13729045D+01 -0.52574951D+00 -0.36379736D-04 -0.39033070D-03 -0.14388324D-02
 -0.42070617D-02 -0.50697139D-02  0.61070076D-02 -0.23815105D-01  0.68895159D-03
  0.17352500D-04  0.75812383D-13  0.73512509D-13  0.49591105D-13 -0.30892997D-04
 -0.29955815D-04 -0.20208016D-04  0.14702487D-01  0.14256466D-01  0.96173281D-02
  0.19353479D-13 -0.32020910D-05  0.18791453D-02  0.60617661D-14 -0.51920565D-06
  0.63745120D-03 -0.87750308D-17 -0.30218401D-06  0.79831046D-05  0.92682144D-03
  0.11367312D-03 -0.10404946D-02  0.68668607D-14  0.83495255D-14 -0.73498077D-05
  0.23023614D-03  0.11879547D-03 -0.34903161D-03 -0.98610603D-15 -0.74181066D-14
  0.16780156D-05  0.63624722D-04  0.10683996D-04 -0.74308719D-04  0.58464007D-15
 -0.18545609D-14  0.82973442D-06  0.54121423D-15  0.19783988D-06 -0.10736186D-03
  0.25508768D-15 -0.48209085D-06  0.45250784D-03 -0.18787304D-14 -0.11142880D-06
 -0.13042228D-03  0.76755502D-14 -0.80065813D-15  0.52044337D-06  0.10442800D-03
 -0.10590911D-14  0.58262934D-06 -0.17150716D-03  0.34610655D-14 -0.21439594D-05
 -0.14177683D-03 -0.18460059D-14  0.27659720D+00  0.51563290D+00  0.87148985D+00
  0.13100118D+01  0.16091148D+01  0.13580362D+01  0.51065706D+00  0.32293192D-04
  0.24137161D-03  0.90206080D-03  0.25166092D-02  0.33715625D-02 -0.39811866D-02
  0.22714540D-01  0.54258847D-03  0.12319811D-03  0.27021164D-13  0.25334059D-13
  0.18039359D-13  0.41120221D-04  0.38552821D-04  0.27451905D-04  0.20352791D-02
  0.19082035D-02  0.13587546D-02 -0.48975510D-15 -0.20923035D-04  0.25047809D-03
 -0.25744178D-14 -0.69587378D-05 -0.10527198D-03 -0.34686829D-16  0.86857413D-07
 -0.35217188D-05 -0.12141667D-02  0.22607455D-03  0.98809215D-03 -0.31268139D-14
  0.18061123D-14  0.12807635D-04  0.14421052D-03  0.24864598D-04 -0.16907512D-03
  0.16826509D-14 -0.18069013D-14  0.14888167D-04 -0.59026917D-05  0.19760761D-04
 -0.13858069D-04 -0.14814010D-16  0.30822215D-15  0.11372673D-06  0.76906957D-15
 -0.32789167D-05  0.54798469D-03  0.53365927D-15  0.50089604D-05 -0.51222657D-04
 -0.28408680D-14  0.48277897D-05 -0.15927314D-02 -0.89355040D-15  0.31562559D-15
  0.10604119D-05 -0.11416238D-03 -0.55270832D-15  0.11154418D-05  0.44064630D-04
 -0.39416845D-15 -0.42966774D-05  0.29842250D-03 -0.12931500D-14 -0.26775648D-03
 -0.48290985D-03 -0.71205029D-03 -0.19986822D-03 -0.44198748D-03 -0.11928983D-04
  0.64282125D-15  0.75489833D-03 -0.52563483D-03  0.32569930D-15  0.20230396D-03
 -0.77259820D-04  0.99822883D-15  0.38203578D-04 -0.57046689D-04  0.22557169D-03
 -0.33937264D-03  0.11380094D-03  0.99379727D-15 -0.30037308D-15  0.89471395D-03
  0.45672284D-04 -0.11320357D-04 -0.34351927D-04 -0.17409939D-15  0.45081353D-15
 -0.27631564D-04 -0.27403647D-03 -0.49423606D-03 -0.72875078D-03 -0.24676286D-03
 -0.46715136D-03 -0.11926311D-04 -0.61225836D-15 -0.77244534D-03 -0.52575690D-03
  0.46083154D-14 -0.23294652D-03 -0.84929342D-04  0.13542782D-14 -0.43059372D-04
 -0.58944930D-04  0.22089253D-03 -0.35185802D-03  0.13096549D-03  0.17528519D-15
  0.66008950D-15 -0.87921610D-03  0.47055944D-04 -0.13142474D-04 -0.33913470D-04
  0.17741452D-14  0.82292844D-15  0.25191582D-04
MO    2     MO 0.0        OCC NO =    2.0000041  ORB. ENERGY =    0.000000
  0.42193396D+00  0.78641552D+00  0.13334780D+01  0.20180772D+01  0.25173922D+01
  0.21602971D+01  0.82727901D+00  0.49564126D-04  0.53179055D-03  0.19602801D-02
  0.57317440D-02  0.69070302D-02 -0.83202498D-02  0.38546716D-01 -0.65178863D-03
 -0.78682316D-04 -0.31526915D-13 -0.30570503D-13 -0.20622681D-13  0.57892222D-05
  0.56135981D-05  0.37869001D-05 -0.10949734D-01 -0.10617559D-01 -0.71625427D-02
 -0.75390777D-14 -0.44765671D-05  0.14529700D-02 -0.20912434D-17 -0.24865272D-05
  0.11011594D-03  0.48323172D-17 -0.10660496D-06  0.20723960D-05 -0.99206629D-03
 -0.61867594D-04  0.10539339D-02  0.10435231D-13  0.12479832D-13  0.14210399D-05
  0.35005981D-03  0.53762149D-03 -0.88768130D-03 -0.16740300D-14 -0.89660068D-15
  0.32604599D-05  0.34871480D-04 -0.53059216D-06 -0.34340888D-04  0.23119397D-15
 -0.72275465D-15  0.14670000D-05 -0.10397613D-14  0.34974368D-06  0.11061591D-03
  0.57027108D-14  0.11029247D-05 -0.23831906D-03 -0.25834268D-14 -0.21521557D-05
 -0.93528682D-04  0.49016096D-14 -0.28010816D-15  0.41840473D-06  0.12919957D-03
 -0.32310305D-16 -0.11843527D-06 -0.16932077D-03  0.87263477D-15 -0.11367789D-05
 -0.21827793D-03 -0.90274582D-15  0.17567673D+00  0.32749682D+00  0.55351424D+00
  0.83203513D+00  0.10220061D+01  0.86253712D+00  0.32433648D+00  0.17448147D-04
  0.13041409D-03  0.48738724D-03  0.13597345D-02  0.18216694D-02 -0.21510518D-02
  0.14493580D-01  0.50950075D-03  0.92327364D-04 -0.76711392D-14 -0.71921806D-14
 -0.51212610D-14  0.26494840D-04  0.24840596D-04  0.17687984D-04  0.11491249D-02
  0.10773777D-02  0.76715708D-03 -0.55406052D-14 -0.17113545D-04  0.16129470D-02
 -0.19767974D-14 -0.74556766D-06 -0.14256480D-04 -0.39614942D-16 -0.37943619D-09
  0.47081562D-06 -0.10246611D-02 -0.31790746D-03  0.13425686D-02 -0.10036358D-14
 -0.30679108D-14  0.11582360D-04  0.16927373D-04 -0.25789888D-03  0.24097150D-03
  0.13298769D-14 -0.71230613D-15  0.11261848D-04 -0.17336110D-05  0.42457759D-04
 -0.40724148D-04  0.88185473D-16  0.16262814D-15 -0.54395728D-06  0.41505531D-15
 -0.40221546D-05  0.34786938D-03  0.12499876D-14  0.53996850D-05 -0.22984419D-03
 -0.24951536D-14  0.66667788D-05 -0.81376394D-03 -0.22802512D-15  0.12985621D-15
 -0.37985901D-07 -0.91403939D-05 -0.43704625D-15  0.38647130D-06 -0.38694185D-04
  0.47477630D-16 -0.27251360D-06  0.66115367D-04 -0.84948514D-15 -0.14545003D-03
 -0.26232512D-03 -0.38679824D-03  0.12946857D-03 -0.34684963D-03 -0.72784218D-05
 -0.58675833D-16  0.33689288D-03 -0.21895105D-03 -0.17590164D-15 -0.85938279D-04
  0.14214466D-03  0.34716436D-15 -0.11050257D-04 -0.83373172D-04  0.12185586D-03
 -0.13147555D-03  0.96196907D-05  0.69399659D-15 -0.11040508D-14  0.41177783D-03
  0.11480993D-05  0.32084414D-05 -0.43565407D-05  0.61461179D-16  0.16978808D-15
 -0.85203255D-05 -0.14765104D-03 -0.26629473D-03 -0.39265142D-03  0.10123923D-03
 -0.35386573D-03 -0.75294740D-05 -0.20479988D-14 -0.34576688D-03 -0.22117052D-03
  0.25847169D-14  0.67131957D-04  0.12586695D-03  0.91705065D-15  0.92526167D-05
 -0.84802999D-04  0.12443423D-03 -0.13346555D-03  0.90313202D-05  0.65807000D-16
 -0.97693473D-15 -0.41863214D-03  0.25532809D-05  0.23269100D-05 -0.48801910D-05
  0.11466894D-14  0.75088796D-15  0.48687042D-05
MO    3     MO 0.0        OCC NO =    1.9805473  ORB. ENERGY =    0.000000
 -0.96741136D-01 -0.18030957D+00 -0.30574022D+00 -0.46270531D+00 -0.57718840D+00
 -0.49531352D+00 -0.18967876D+00 -0.16865866D-02 -0.18095968D-01 -0.66705145D-01
 -0.19504193D+00 -0.23503501D+00  0.28312458D+00  0.14953146D+00  0.75558488D-01
  0.44038835D-02 -0.16036987D-12 -0.15550483D-12 -0.10490264D-12 -0.12650411D-02
 -0.12266643D-02 -0.82750052D-03 -0.13629185D-02 -0.13215725D-02 -0.89152497D-03
 -0.36775268D-13 -0.29444024D-03 -0.78724011D-02 -0.12816345D-13 -0.72573540D-04
  0.81366328D-02 -0.61546275D-16 -0.45911286D-05  0.92533990D-04 -0.14800403D-01
 -0.15845747D-01  0.30646150D-01  0.54043793D-14  0.33358515D-14  0.16490863D-03
 -0.42645491D-02 -0.51058548D-02  0.93704039D-02 -0.31969124D-15  0.97701034D-14
  0.38256439D-04  0.46776284D-03  0.51297058D-03 -0.98073342D-03 -0.30727195D-15
  0.32797509D-14  0.15664963D-04 -0.62561660D-15  0.15692025D-04 -0.89066695D-02
 -0.17239521D-14  0.11850935D-05  0.14286956D-01  0.36008019D-14 -0.48261168D-04
  0.12433053D-01  0.44524511D-14  0.97594788D-15  0.14436426D-05 -0.35630143D-03
  0.11865219D-14  0.11925456D-06  0.23256252D-04 -0.41143656D-14 -0.44501825D-05
  0.10456480D-02 -0.85946069D-15 -0.28082962D-01 -0.52352299D-01 -0.88482517D-01
 -0.13300573D+00 -0.16337371D+00 -0.13788165D+00 -0.51847101D-01 -0.58967279D-03
 -0.44074388D-02 -0.16471605D-01 -0.45953213D-01 -0.61564636D-01  0.72696356D-01
  0.29930488D-01  0.18933444D-01  0.39598968D-03 -0.52992798D-13 -0.49684117D-13
 -0.35378051D-13 -0.98687085D-03 -0.92525415D-03 -0.65883608D-03  0.10623690D+00
  0.99603847D-01  0.70923873D-01 -0.76842091D-14 -0.42948900D-03  0.66899531D-02
  0.13287979D-14 -0.46580028D-04 -0.39972507D-02 -0.50037517D-16  0.14906333D-05
 -0.54809686D-04 -0.18315016D-01 -0.80402875D-02  0.26355303D-01  0.50959861D-15
 -0.87656240D-14  0.69092751D-04 -0.31145121D-02  0.24525050D-02  0.66200713D-03
  0.72054258D-15  0.47157940D-14  0.54518474D-04  0.18261808D-04  0.49258447D-03
 -0.51084628D-03  0.58814792D-15  0.92285485D-16  0.33118984D-05  0.29725934D-15
 -0.15891306D-04  0.43638538D-02  0.10542331D-14  0.20447608D-04 -0.94259771D-03
 -0.19460111D-14  0.27226310D-04 -0.12148964D-01 -0.53025297D-15 -0.41386331D-15
 -0.64380814D-05 -0.35402767D-04 -0.54147121D-15  0.45578572D-05  0.44222573D-03
  0.17830611D-14  0.14756387D-04 -0.33601743D-03 -0.34503412D-15  0.63467645D-02
  0.11446651D-01  0.16878080D-01  0.14231233D-03 -0.57313217D-02 -0.80404046D-04
 -0.24174068D-15 -0.26810372D-02  0.21438815D-02 -0.12555990D-14  0.40589403D-02
 -0.39993755D-02 -0.14206581D-14  0.53388692D-03 -0.14796164D-02  0.57352200D-03
 -0.10549749D-02  0.48145290D-03  0.65630228D-15 -0.11971850D-14  0.22010742D-02
  0.34242313D-03 -0.72191737D-04 -0.27023140D-03  0.78413157D-15 -0.10474520D-15
  0.92570007D-03  0.64768797D-02  0.11681319D-01  0.17224099D-01 -0.24760503D-04
 -0.58833919D-02 -0.76849231D-04 -0.20288724D-14  0.27706633D-02  0.22503463D-02
  0.36192413D-15 -0.42323776D-02 -0.40953034D-02  0.42016765D-15 -0.56602229D-03
 -0.14847902D-02  0.54434396D-03 -0.10949507D-02  0.55060671D-03  0.27461578D-15
 -0.25343098D-14 -0.20930185D-02  0.35086941D-03 -0.87482156D-04 -0.26338726D-03
 -0.84339225D-16  0.10546955D-14 -0.95259607D-03
MO    4     MO 0.0        OCC NO =    1.9668215  ORB. ENERGY =    0.000000
  0.35933020D-01  0.66973241D-01  0.11356254D+00  0.17186483D+00  0.21438783D+00
  0.18397665D+00  0.70453285D-01  0.68823242D-03  0.73842822D-02  0.27219855D-01
  0.79589258D-01  0.95908926D-01 -0.11553247D+00 -0.65656629D-01 -0.54217901D-01
 -0.31541856D-02  0.40781389D-13  0.39544229D-13  0.26676303D-13 -0.49730102D-01
 -0.48221470D-01 -0.32529919D-01 -0.68298789D+00 -0.66226851D+00 -0.44676243D+00
  0.10906605D-13 -0.11745010D-01 -0.15328322D+00  0.94322795D-14 -0.18309969D-02
 -0.15929383D-01  0.22727742D-15 -0.57496340D-04 -0.10655480D-03 -0.19691678D-01
 -0.19513118D-01  0.39204796D-01  0.27410860D-14  0.10969765D-13  0.42487493D-02
 -0.36212038D-02 -0.40497335D-02  0.76709373D-02 -0.53987143D-15 -0.10399348D-13
  0.11737410D-02 -0.49370721D-05 -0.13962529D-03  0.14456237D-03  0.13378041D-14
 -0.35261603D-14  0.99233914D-04  0.74700091D-15  0.52196703D-03 -0.60769153D-02
 -0.24277237D-14  0.43671482D-04  0.59694327D-02  0.18672100D-15 -0.16095726D-02
  0.12261313D-01  0.58368628D-14 -0.11559040D-14  0.38770407D-04 -0.15356960D-03
 -0.12576152D-14 -0.19473703D-04 -0.18082123D-03  0.47253272D-14 -0.96837519D-04
  0.64153003D-03 -0.34590832D-14 -0.49525565D-01 -0.92325630D-01 -0.15604289D+00
 -0.23456157D+00 -0.28811688D+00 -0.24316048D+00 -0.91434692D-01 -0.12028803D-02
 -0.89907848D-02 -0.33600615D-01 -0.93740485D-01 -0.12558641D+00  0.14829413D+00
  0.64371707D-01  0.45713358D-01  0.11213298D-02  0.19133064D-13  0.17938463D-13
  0.12773254D-13 -0.19866032D-01 -0.18625668D-01 -0.13262585D-01 -0.11147992D+00
 -0.10451951D+00 -0.74424116D-01 -0.32461186D-14 -0.51407134D-02 -0.31370875D-01
 -0.39038378D-14 -0.45006207D-03 -0.55821032D-02 -0.16217418D-16  0.11191618D-04
 -0.45968470D-05 -0.17593480D-01  0.13978614D-01  0.36148660D-02  0.32823861D-15
  0.40618169D-15 -0.62742611D-03 -0.45479404D-02  0.48418724D-02 -0.29393198D-03
  0.86880373D-15 -0.72351844D-14  0.31956438D-03 -0.96588095D-04  0.77871122D-05
  0.88800983D-04 -0.38457679D-15 -0.30800740D-15  0.56378393D-04  0.69890655D-15
  0.12470142D-03  0.43039149D-02  0.13811500D-14  0.22548748D-03  0.64967368D-03
 -0.34778696D-14 -0.59959173D-03 -0.13561418D-01 -0.13084308D-14  0.42969720D-15
  0.88689306D-05  0.27789135D-03  0.31309252D-15  0.23324833D-04  0.64792343D-03
 -0.16021841D-14 -0.49931625D-04 -0.14815975D-02 -0.28393925D-14  0.23205818D-01
  0.41852649D-01  0.61711706D-01  0.25841195D-01 -0.37423095D-02 -0.10419608D-03
  0.20018306D-14 -0.16846061D-01  0.81857480D-02 -0.23824878D-14 -0.84770654D-04
 -0.19783675D-02  0.12028459D-14  0.12945016D-02 -0.51104724D-03 -0.15078533D-02
  0.20482485D-02 -0.54039515D-03  0.11630325D-14 -0.57612910D-15 -0.25093207D-02
  0.27839794D-03 -0.10443435D-03 -0.17396359D-03  0.10552677D-15  0.63147608D-15
  0.52071092D-03  0.25244773D-01  0.45529988D-01  0.67133941D-01  0.27849815D-01
 -0.41976024D-02 -0.81262397D-04 -0.79738816D-15  0.18193619D-01  0.94135577D-02
  0.34049018D-14 -0.49310939D-03 -0.18792280D-02  0.30029870D-15 -0.14012416D-02
 -0.48302779D-03 -0.17041039D-02  0.19542516D-02 -0.25014764D-03  0.17504658D-14
  0.81072109D-15  0.32760282D-02  0.30623780D-03 -0.15624294D-03 -0.14999485D-03
  0.10442308D-14 -0.36380581D-15 -0.59140993D-03
MO    5     MO 0.0        OCC NO =    1.9652559  ORB. ENERGY =    0.000000
  0.13631916D-02  0.25407650D-02  0.43082241D-02  0.65200391D-02  0.81332349D-02
  0.69795255D-02  0.26727875D-02  0.26616065D-04  0.28557291D-03  0.10526755D-02
  0.30779615D-02  0.37090932D-02 -0.44679959D-02 -0.25643387D-02 -0.22962455D-02
 -0.12223642D-03  0.28081709D-14  0.27229811D-14  0.18369070D-14  0.13367062D+01
  0.12961554D+01  0.87437876D+00 -0.31092696D-01 -0.30149456D-01 -0.20338645D-01
  0.19886147D-14  0.31593525D+00 -0.69908647D-02  0.51066609D-14  0.50524289D-01
 -0.68484297D-03  0.12553719D-15  0.15757431D-02 -0.67993618D-05 -0.91783283D-03
 -0.91292560D-03  0.18307584D-02 -0.38284491D-14  0.37922507D-14 -0.10128323D+00
 -0.18206401D-03 -0.19299825D-03  0.37506225D-03  0.13908066D-14 -0.59394910D-14
 -0.28556588D-01  0.14814788D-05 -0.54400230D-05  0.39585442D-05 -0.84078588D-16
 -0.19684731D-14 -0.26320716D-02  0.11561760D-14 -0.12983964D-01 -0.28403638D-03
  0.75451917D-15  0.93848223D-04  0.30517653D-03 -0.42230472D-14  0.38858044D-01
  0.54693261D-03 -0.88619293D-14 -0.71576495D-15 -0.97412328D-03 -0.96922103D-05
 -0.93830818D-15  0.42362330D-03  0.13964697D-05  0.30856030D-14  0.24987465D-02
  0.27680161D-04  0.10797648D-14 -0.21747063D-02 -0.40540906D-02 -0.68519655D-02
 -0.10299782D-01 -0.12651438D-01 -0.10677367D-01 -0.40149688D-02 -0.52657236D-04
 -0.39358022D-03 -0.14708991D-02 -0.41035796D-02 -0.54976653D-02  0.64917176D-02
  0.27578964D-02  0.22201618D-02  0.70793070D-04  0.31575646D-14  0.29604175D-14
  0.21079936D-14  0.40386826D+00  0.37865216D+00  0.26962290D+00 -0.40395744D-02
 -0.37873577D-02 -0.26968243D-02 -0.16814428D-14  0.10461760D+00 -0.12389054D-02
  0.31823127D-15  0.62698594D-02 -0.25214950D-03  0.50010212D-16 -0.33095044D-03
  0.64247739D-06 -0.75504318D-03  0.41754431D-03  0.33749887D-03 -0.23143793D-14
  0.13385662D-14  0.29505315D-01 -0.20482190D-03  0.16212124D-03  0.42700659D-04
  0.40357485D-14 -0.65863926D-14 -0.36987521D-02 -0.57662518D-05  0.90886783D-05
 -0.33224265D-05  0.12157059D-15 -0.55016891D-15 -0.87853595D-03  0.42358575D-15
 -0.38816076D-02  0.21049570D-03  0.59697699D-15 -0.54954061D-02  0.51694237D-04
 -0.18677342D-14  0.17140229D-01 -0.68318134D-03 -0.25790121D-15 -0.38979371D-16
 -0.39084657D-03  0.11289406D-04  0.92864974D-15 -0.30853658D-03  0.29501557D-04
 -0.81171163D-15  0.14810763D-02 -0.63369776D-04 -0.48716274D-15  0.18996374D-01
  0.34260743D-01  0.50517445D-01  0.20099003D-01 -0.18748059D-02  0.33488996D-03
  0.28958322D-14 -0.11632879D-01  0.13815215D-01 -0.53252409D-14  0.55066239D-02
  0.16937728D-02 -0.11958898D-14  0.53240927D-03  0.55054955D-03 -0.19052443D-02
 -0.14161729D-02  0.33214172D-02  0.89477474D-15 -0.56456327D-15 -0.82144748D-02
  0.31533360D-03 -0.46553168D-03  0.15019808D-03  0.17273931D-14 -0.11990145D-14
  0.93126289D-03 -0.17135690D-01 -0.30904922D-01 -0.45569289D-01 -0.17966616D-01
  0.13564072D-02 -0.34740517D-03  0.31821529D-15 -0.10508988D-01 -0.13266024D-01
 -0.35918523D-15  0.55055294D-02 -0.18957834D-02 -0.26694740D-15  0.41990973D-03
 -0.64976953D-03  0.17841667D-02  0.15090342D-02 -0.32932008D-02  0.24881939D-15
  0.87809923D-15 -0.81579874D-02 -0.29542148D-03  0.45890805D-03 -0.16348657D-03
 -0.40702654D-16  0.65965092D-17  0.86635323D-03
MO    6     MO 0.0        OCC NO =    1.9600865  ORB. ENERGY =    0.000000
  0.20611366D-02  0.38416197D-02  0.65140061D-02  0.98582556D-02  0.12297397D-01
  0.10552996D-01  0.40412368D-02 -0.29873254D-04 -0.32052041D-03 -0.11814986D-02
 -0.34546325D-02 -0.41630002D-02  0.50147749D-02  0.74767583D-02  0.28556686D-01
  0.62665427D-02 -0.16059771D-12 -0.15572576D-12 -0.10505168D-12  0.21161930D-01
  0.20519953D-01  0.13842639D-01  0.13791677D+01  0.13373288D+01  0.90215409D+00
 -0.40805057D-13  0.49437754D-02  0.31899919D+00 -0.56528664D-14  0.88111783D-03
  0.38013935D-01  0.13518589D-15  0.33734039D-04  0.15741887D-03  0.41920868D-01
  0.43682677D-01 -0.85603544D-01  0.40426266D-14  0.18718744D-13 -0.18527367D-03
  0.10401739D-01  0.11758244D-01 -0.22159983D-01  0.29742660D-15  0.58260655D-14
 -0.49173348D-04  0.25720846D-03  0.51063164D-03 -0.76784010D-03 -0.22252906D-15
  0.18629925D-15 -0.16975071D-04  0.15023429D-14 -0.63178908D-04  0.15636720D-01
  0.48652153D-14  0.17808712D-03 -0.15980494D-01 -0.93722441D-14  0.11449608D-04
 -0.30929667D-01 -0.10647381D-13  0.27075633D-15 -0.74827348D-05  0.20158981D-02
 -0.42418022D-16 -0.13563076D-04 -0.24638607D-02 -0.76985097D-15  0.36011280D-04
 -0.35838336D-02  0.83800078D-15  0.50619066D-02  0.94364137D-02  0.15948825D-01
  0.23974058D-01  0.29447837D-01  0.24852935D-01  0.93453527D-02  0.85253796D-04
  0.63721931D-03  0.23814340D-02  0.66438302D-02  0.89009007D-02 -0.10510304D-01
 -0.60627245D-02  0.16283573D-01  0.51115119D-05 -0.49598583D-13 -0.46501824D-13
 -0.33112069D-13 -0.60612469D-02 -0.56828042D-02 -0.40464951D-02 -0.52357688D+00
 -0.49088660D+00 -0.34954050D+00 -0.10765059D-13 -0.16043815D-02 -0.10890247D+00
 -0.14495664D-14 -0.38737868D-03 -0.86450055D-02 -0.71577823D-16 -0.10637594D-04
 -0.39971908D-04  0.83060972D-02  0.28529923D-01 -0.36836021D-01  0.10007298D-14
 -0.48506035D-14  0.17633141D-02  0.19381509D-03  0.24684293D-02 -0.26622444D-02
 -0.24670730D-14 -0.24744926D-14  0.48884591D-03 -0.15341481D-03  0.11736795D-03
  0.36046858D-04 -0.30650563D-15 -0.17747758D-15  0.50265808D-04  0.83038771D-15
 -0.92797010D-04 -0.58714325D-02 -0.84448678D-15  0.47542475D-04  0.64853094D-02
 -0.16466763D-14  0.23084855D-03  0.11128988D-01  0.17727274D-14 -0.13715719D-15
 -0.20999272D-04  0.76876639D-03  0.57633207D-15  0.73460219D-05 -0.19136794D-03
 -0.16486049D-15  0.55651793D-04 -0.21149312D-02  0.21370542D-14  0.17781135D-01
  0.32069010D-01  0.47285736D-01  0.30317769D-01  0.97011027D-03  0.22703106D-04
 -0.28937893D-14 -0.17148314D-01  0.37532286D-02  0.74959402D-15 -0.58057740D-02
  0.89791440D-03  0.33664280D-15  0.29750878D-03 -0.20767333D-03 -0.15761244D-02
  0.51360218D-02 -0.35598974D-02  0.13506508D-15 -0.42639124D-15 -0.49668796D-02
 -0.54270875D-03  0.54802534D-05  0.53722850D-03 -0.64712546D-15  0.25504323D-16
  0.46787146D-04  0.18854704D-01  0.34005234D-01  0.50140698D-01  0.31835405D-01
  0.67332701D-03  0.19562066D-05  0.32781321D-14  0.17732778D-01  0.37747768D-02
 -0.44299605D-14  0.57304142D-02  0.68165805D-03 -0.84387791D-15 -0.39558361D-03
 -0.25235678D-03 -0.14952251D-02  0.53088861D-02 -0.38136610D-02  0.12745719D-14
 -0.14325235D-14  0.45882436D-02 -0.54540061D-03 -0.29089634D-05  0.54830957D-03
 -0.13239237D-14 -0.77910344D-15 -0.50019966D-04
MO    7     MO 0.0        OCC NO =    1.9565921  ORB. ENERGY =    0.000000
 -0.12985134D-03 -0.24202156D-03 -0.41038156D-03 -0.62106885D-03 -0.77473444D-03
 -0.66483741D-03 -0.25459741D-03 -0.15760016D-05 -0.16909463D-04 -0.62331465D-04
 -0.18225355D-03 -0.21962439D-03  0.26456085D-03  0.79071014D-04 -0.25620418D-03
 -0.27931114D-04 -0.61009733D-14 -0.59158919D-14 -0.39908257D-14  0.11671297D+01
  0.11317232D+01  0.76345376D+00 -0.16715242D-01 -0.16208162D-01 -0.10933930D-01
  0.22952459D-14  0.27562666D+00 -0.39030529D-02  0.64105558D-14  0.49779849D-01
 -0.43729595D-03 -0.42075518D-15  0.16901036D-02 -0.27298941D-05 -0.58423069D-03
 -0.51677005D-03  0.11010007D-02  0.46936722D-14  0.19144310D-13 -0.11356084D-01
 -0.13683711D-03 -0.16408325D-03  0.30092036D-03  0.10504175D-15 -0.10590508D-13
 -0.27809058D-02 -0.26488423D-06 -0.95271788D-05  0.97920631D-05 -0.21517361D-16
 -0.26867242D-14 -0.62093260D-03  0.27449646D-14 -0.41133225D-02 -0.20905764D-03
 -0.32033849D-15  0.87653640D-02  0.23149224D-03 -0.79145553D-14  0.35746035D-02
  0.39568067D-03 -0.21434104D-14 -0.13141426D-14 -0.30192068D-03 -0.33202971D-04
 -0.10632639D-14 -0.35008773D-03  0.33541014D-04  0.50056919D-14  0.12558498D-02
  0.66067899D-04  0.29099847D-15  0.16967813D-03  0.31631422D-03  0.53461412D-03
  0.80362474D-03  0.98710905D-03  0.83308521D-03  0.31326180D-03  0.44828642D-05
  0.33506632D-04  0.12522194D-03  0.34934970D-03  0.46803229D-03 -0.55265886D-03
 -0.16973287D-03 -0.11839232D-03 -0.90075087D-06  0.38886204D-14  0.36458288D-14
  0.25960473D-14 -0.36206781D+00 -0.33946158D+00 -0.24171687D+00  0.88036802D-02
  0.82540098D-02  0.58773467D-02 -0.80917906D-14 -0.99170837D-01  0.19043214D-02
 -0.37616479D-14 -0.25548695D-01  0.18238799D-03  0.10053616D-15 -0.50187968D-03
  0.10187631D-05 -0.38945756D-04 -0.18916276D-03  0.22810851D-03 -0.41298288D-15
 -0.20251752D-14  0.11066934D+00  0.85500385D-06  0.33016727D-04 -0.33871731D-04
 -0.33665469D-14 -0.65761904D-14  0.31817574D-01  0.34893127D-05  0.14668685D-04
 -0.18157997D-04 -0.12922912D-15  0.44439321D-15  0.34085564D-02  0.90170405D-15
 -0.36022366D-02  0.48316407D-04  0.11645658D-14  0.27423880D-02 -0.12358656D-03
 -0.38696779D-14  0.80643218D-02 -0.21362662D-04  0.39098351D-14  0.43290643D-15
 -0.57768843D-03 -0.89294786D-05  0.29624550D-15  0.79552222D-03 -0.22757303D-05
 -0.15949648D-14  0.93754308D-03  0.29064166D-04  0.10975978D-14 -0.35048372D-01
 -0.63211182D-01 -0.93204852D-01 -0.53769563D-01  0.99295889D-02  0.41922749D-03
 -0.32351225D-14  0.15154205D-01 -0.10879949D-01  0.36125053D-14 -0.30005213D-02
  0.19152671D-02  0.16321268D-14 -0.34279330D-02  0.16630970D-02  0.79401427D-03
 -0.16374592D-02  0.84344494D-03 -0.24058310D-14  0.24958296D-14  0.34089376D-02
  0.48638950D-05  0.34993723D-03 -0.35480112D-03 -0.16390964D-14  0.41011474D-16
  0.27760408D-04  0.34269765D-01  0.61806933D-01  0.91134287D-01  0.51987975D-01
 -0.10361797D-01 -0.42362468D-03  0.12386858D-14  0.14621566D-01  0.10566705D-01
 -0.18356097D-14 -0.32962480D-02 -0.19518102D-02  0.68464788D-15 -0.34289211D-02
 -0.16615570D-02 -0.68773217D-03  0.14504839D-02 -0.76275172D-03 -0.36168707D-14
 -0.13871316D-14  0.31281503D-02 -0.73932792D-06 -0.35023672D-03  0.35097604D-03
  0.20474085D-15 -0.47349875D-15  0.45584432D-04
MO    8     MO 0.0        OCC NO =    1.9226380  ORB. ENERGY =    0.000000
  0.13950179D-13  0.26000839D-13  0.44088077D-13  0.66722616D-13  0.83231204D-13
  0.71424756D-13  0.27351887D-13 -0.31632297D-15 -0.33939379D-14 -0.12510694D-13
 -0.36580536D-13 -0.44081324D-13  0.53100626D-13  0.33301572D-13  0.37064075D-12
  0.50953265D-13  0.13801728D+01  0.13383033D+01  0.90281152D+00  0.31310710D-14
  0.30360856D-14  0.20481254D-14  0.19605331D-12  0.19010576D-12  0.12824422D-12
  0.33260432D+00 -0.85177908D-15  0.11236216D-13  0.48491868D-01 -0.13531736D-13
 -0.18217181D-12  0.88822008D-03 -0.54832983D-15 -0.15774826D-15 -0.35080020D-14
  0.21133670D-14  0.13946350D-14  0.21623807D-04 -0.12446246D+00 -0.27509054D-13
  0.52040336D-14 -0.12008048D-13  0.68040143D-14  0.50398376D-05 -0.37365725D-01
  0.13748442D-13 -0.84770323D-15 -0.17525716D-13  0.18373419D-13 -0.18742075D-05
 -0.23570234D-02  0.56011161D-14 -0.61492574D-02 -0.63540641D-15  0.41426526D-14
 -0.22182802D-01 -0.33436623D-14  0.11916009D-13  0.40630574D-01  0.52498815D-14
 -0.24343967D-13 -0.45943043D-04 -0.36100409D-03  0.15839986D-14 -0.22820051D-14
 -0.15493752D-02  0.21199377D-14 -0.98034614D-14  0.26323875D-02 -0.68719336D-14
  0.16649477D-13 -0.49418492D-05 -0.83568782D-14 -0.15578904D-13 -0.26330471D-13
 -0.39579609D-13 -0.48616461D-13 -0.41030578D-13 -0.15428569D-13 -0.34751627D-15
 -0.25974688D-14 -0.97073341D-14 -0.27081951D-13 -0.36282347D-13  0.42842687D-13
  0.96139579D-13 -0.19227029D-11 -0.18442288D-12  0.41530865D+00  0.38937826D+00
  0.27726051D+00 -0.14335441D-13 -0.13440387D-13 -0.95703562D-14 -0.53598914D-13
 -0.50252389D-13 -0.35782695D-13  0.10660504D+00  0.43936149D-13  0.87515088D-13
  0.12596398D-01  0.37009961D-13  0.18736598D-12  0.38888169D-04  0.11204689D-14