 h2co-wavefunction
GAUSSIAN            138 MOL ORBITALS    198 PRIMITIVES        4 NUCLEI
  O    1    (CENTRE  1)   0.00000000  0.00000000  1.28360026  CHARGE =  8.0
  C    2    (CENTRE  2)   0.00000000  0.00000000 -0.99571749  CHARGE =  6.0
  H    3    (CENTRE  3)   0.00000000  1.76994395 -2.09120873  CHARGE =  1.0
  H    4    (CENTRE  4)   0.00000000 -1.76994395 -2.11010599  CHARGE =  1.0
CENTRE ASSIGNMENTS    1  1  1  1  1  1  1  1  1  1  1  1  1  1  1  1  1  1  1  1
CENTRE ASSIGNMENTS    1  1  1  1  1  1  1  1  1  1  1  1  1  1  1  1  1  1  1  1
CENTRE ASSIGNMENTS    1  1  1  1  1  1  1  1  1  1  1  1  1  1  1  1  1  1  1  1
CENTRE ASSIGNMENTS    1  1  1  1  1  1  1  1  1  1  1  1  2  2  2  2  2  2  2  2
CENTRE ASSIGNMENTS    2  2  2  2  2  2  2  2  2  2  2  2  2  2  2  2  2  2  2  2
CENTRE ASSIGNMENTS    2  2  2  2  2  2  2  2  2  2  2  2  2  2  2  2  2  2  2  2
CENTRE ASSIGNMENTS    2  2  2  2  2  2  2  2  2  2  2  2  2  2  2  2  2  2  2  2
CENTRE ASSIGNMENTS    2  2  2  2  3  3  3  3  3  3  3  3  3  3  3  3  3  3  3  3
CENTRE ASSIGNMENTS    3  3  3  3  3  3  3  3  3  3  3  4  4  4  4  4  4  4  4  4
CENTRE ASSIGNMENTS    4  4  4  4  4  4  4  4  4  4  4  4  4  4  4  4  4  4
TYPE ASSIGNMENTS      1  1  1  1  1  1  1  1  1  1  1  1  1  1  1  1  2  2  2  3
TYPE ASSIGNMENTS      3  3  4  4  4  2  3  4  2  3  4  2  3  4  5  6  7  8  9 10
TYPE ASSIGNMENTS      5  6  7  8  9 10  5  6  7  8  9 10 11 12 13 17 14 15 18 19
TYPE ASSIGNMENTS     16 20 11 12 13 17 14 15 18 19 16 20  1  1  1  1  1  1  1  1
TYPE ASSIGNMENTS      1  1  1  1  1  1  1  1  2  2  2  3  3  3  4  4  4  2  3  4
TYPE ASSIGNMENTS      2  3  4  2  3  4  5  6  7  8  9 10  5  6  7  8  9 10  5  6
TYPE ASSIGNMENTS      7  8  9 10 11 12 13 17 14 15 18 19 16 20 11 12 13 17 14 15
TYPE ASSIGNMENTS     18 19 16 20  1  1  1  1  1  1  2  3  4  2  3  4  2  3  4  5
TYPE ASSIGNMENTS      6  7  8  9 10  5  6  7  8  9 10  1  1  1  1  1  1  2  3  4
TYPE ASSIGNMENTS      2  3  4  2  3  4  5  6  7  8  9 10  5  6  7  8  9 10
EXPONENTS  0.1533000D+05 0.2299000D+04 0.5224000D+03 0.1473000D+03 0.4755000D+02
EXPONENTS  0.1676000D+02 0.6207000D+01 0.5224000D+03 0.1473000D+03 0.4755000D+02
EXPONENTS  0.1676000D+02 0.6207000D+01 0.6882000D+00 0.1752000D+01 0.2384000D+00
EXPONENTS  0.7376000D-01 0.3446000D+02 0.7749000D+01 0.2280000D+01 0.3446000D+02
EXPONENTS  0.7749000D+01 0.2280000D+01 0.3446000D+02 0.7749000D+01 0.2280000D+01
EXPONENTS  0.7156000D+00 0.7156000D+00 0.7156000D+00 0.2140000D+00 0.2140000D+00
EXPONENTS  0.2140000D+00 0.5974000D-01 0.5974000D-01 0.5974000D-01 0.2314000D+01
EXPONENTS  0.2314000D+01 0.2314000D+01 0.2314000D+01 0.2314000D+01 0.2314000D+01
EXPONENTS  0.6450000D+00 0.6450000D+00 0.6450000D+00 0.6450000D+00 0.6450000D+00
EXPONENTS  0.6450000D+00 0.2140000D+00 0.2140000D+00 0.2140000D+00 0.2140000D+00
EXPONENTS  0.2140000D+00 0.2140000D+00 0.1428000D+01 0.1428000D+01 0.1428000D+01
EXPONENTS  0.1428000D+01 0.1428000D+01 0.1428000D+01 0.1428000D+01 0.1428000D+01
EXPONENTS  0.1428000D+01 0.1428000D+01 0.5000000D+00 0.5000000D+00 0.5000000D+00
EXPONENTS  0.5000000D+00 0.5000000D+00 0.5000000D+00 0.5000000D+00 0.5000000D+00
EXPONENTS  0.5000000D+00 0.5000000D+00 0.8236000D+04 0.1235000D+04 0.2808000D+03
EXPONENTS  0.7927000D+02 0.2559000D+02 0.8997000D+01 0.3319000D+01 0.2808000D+03
EXPONENTS  0.7927000D+02 0.2559000D+02 0.8997000D+01 0.3319000D+01 0.3643000D+00
EXPONENTS  0.9059000D+00 0.1285000D+00 0.4402000D-01 0.1871000D+02 0.4133000D+01
EXPONENTS  0.1200000D+01 0.1871000D+02 0.4133000D+01 0.1200000D+01 0.1871000D+02
EXPONENTS  0.4133000D+01 0.1200000D+01 0.3827000D+00 0.3827000D+00 0.3827000D+00
EXPONENTS  0.1209000D+00 0.1209000D+00 0.1209000D+00 0.3569000D-01 0.3569000D-01
EXPONENTS  0.3569000D-01 0.1097000D+01 0.1097000D+01 0.1097000D+01 0.1097000D+01
EXPONENTS  0.1097000D+01 0.1097000D+01 0.3180000D+00 0.3180000D+00 0.3180000D+00
EXPONENTS  0.3180000D+00 0.3180000D+00 0.3180000D+00 0.1000000D+00 0.1000000D+00
EXPONENTS  0.1000000D+00 0.1000000D+00 0.1000000D+00 0.1000000D+00 0.7610000D+00
EXPONENTS  0.7610000D+00 0.7610000D+00 0.7610000D+00 0.7610000D+00 0.7610000D+00
EXPONENTS  0.7610000D+00 0.7610000D+00 0.7610000D+00 0.7610000D+00 0.2680000D+00
EXPONENTS  0.2680000D+00 0.2680000D+00 0.2680000D+00 0.2680000D+00 0.2680000D+00
EXPONENTS  0.2680000D+00 0.2680000D+00 0.2680000D+00 0.2680000D+00 0.3387000D+02
EXPONENTS  0.5095000D+01 0.1159000D+01 0.3258000D+00 0.1027000D+00 0.2526000D-01
EXPONENTS  0.1407000D+01 0.1407000D+01 0.1407000D+01 0.3880000D+00 0.3880000D+00
EXPONENTS  0.3880000D+00 0.1020000D+00 0.1020000D+00 0.1020000D+00 0.1057000D+01
EXPONENTS  0.1057000D+01 0.1057000D+01 0.1057000D+01 0.1057000D+01 0.1057000D+01
EXPONENTS  0.2470000D+00 0.2470000D+00 0.2470000D+00 0.2470000D+00 0.2470000D+00
EXPONENTS  0.2470000D+00 0.3387000D+02 0.5095000D+01 0.1159000D+01 0.3258000D+00
EXPONENTS  0.1027000D+00 0.2526000D-01 0.1407000D+01 0.1407000D+01 0.1407000D+01
EXPONENTS  0.3880000D+00 0.3880000D+00 0.3880000D+00 0.1020000D+00 0.1020000D+00
EXPONENTS  0.1020000D+00 0.1057000D+01 0.1057000D+01 0.1057000D+01 0.1057000D+01
EXPONENTS  0.1057000D+01 0.1057000D+01 0.2470000D+00 0.2470000D+00 0.2470000D+00
EXPONENTS  0.2470000D+00 0.2470000D+00 0.2470000D+00
MO    1     MO 0.0        OCC NO =    2.0000076  ORB. ENERGY =    0.000000
 -0.26814605D+00 -0.49978015D+00 -0.84744749D+00 -0.12825217D+01 -0.15998447D+01
 -0.13729047D+01 -0.52574958D+00 -0.36379742D-04 -0.39033075D-03 -0.14388327D-02
 -0.42070623D-02 -0.50697146D-02  0.61070085D-02 -0.23815108D-01  0.68895169D-03
  0.17352509D-04  0.42209239D-13  0.40928764D-13  0.27610302D-13  0.30892979D-04
  0.29955797D-04  0.20208004D-04  0.14702488D-01  0.14256467D-01  0.96173287D-02
  0.11817355D-13  0.32020863D-05  0.18791452D-02  0.56228535D-14  0.51920469D-06
  0.63745119D-03  0.32160307D-15  0.30218398D-06  0.79831043D-05  0.92682152D-03
  0.11367312D-03 -0.10404946D-02  0.81256844D-14 -0.15067862D-13  0.73498086D-05
  0.23023611D-03  0.11879542D-03 -0.34903153D-03 -0.27638045D-14 -0.50394031D-14
 -0.16780152D-05  0.63624719D-04  0.10683997D-04 -0.74308716D-04  0.60221530D-15
 -0.22798247D-14 -0.82973426D-06 -0.22319336D-14 -0.19783972D-06 -0.10736187D-03
  0.18854185D-14  0.48209085D-06  0.45250787D-03  0.48103823D-14  0.11142830D-06
 -0.13042227D-03  0.22011100D-14 -0.76264954D-15 -0.52044333D-06  0.10442798D-03
 -0.43809685D-15 -0.58262934D-06 -0.17150714D-03  0.27260455D-14  0.21439593D-05
 -0.14177681D-03 -0.72959702D-15  0.27659718D+00  0.51563287D+00  0.87148980D+00
  0.13100117D+01  0.16091148D+01  0.13580361D+01  0.51065703D+00  0.32293190D-04
  0.24137159D-03  0.90206075D-03  0.25166090D-02  0.33715623D-02 -0.39811864D-02
  0.22714538D-01  0.54258843D-03  0.12319810D-03  0.86294601D-14  0.80906674D-14
  0.57610372D-14 -0.41120218D-04 -0.38552818D-04 -0.27451903D-04  0.20352791D-02
  0.19082035D-02  0.13587546D-02 -0.48049967D-15  0.20923035D-04  0.25047792D-03
 -0.16513790D-15  0.69587380D-05 -0.10527198D-03  0.37644169D-16 -0.86857411D-07
 -0.35217190D-05 -0.12141666D-02  0.22607457D-03  0.98809203D-03  0.21111386D-14
  0.56039817D-14 -0.12807635D-04  0.14421052D-03  0.24864626D-04 -0.16907515D-03
 -0.26588534D-14 -0.62292868D-14 -0.14888167D-04 -0.59026915D-05  0.19760757D-04
 -0.13858066D-04 -0.46412204D-15 -0.61307067D-15 -0.11372681D-06 -0.15558196D-14
  0.32789165D-05  0.54798466D-03  0.60897707D-14 -0.50089599D-05 -0.51222637D-04
 -0.14223120D-14 -0.48277894D-05 -0.15927313D-02  0.23755686D-14  0.14578712D-15
 -0.10604119D-05 -0.11416238D-03  0.63279126D-15 -0.11154418D-05  0.44064634D-04
 -0.10701526D-14  0.42966774D-05  0.29842250D-03  0.50084103D-15 -0.27403645D-03
 -0.49423603D-03 -0.72875073D-03 -0.24676287D-03 -0.46715133D-03 -0.11926310D-04
 -0.43512814D-14  0.77244530D-03 -0.52575687D-03  0.70378658D-16  0.23294653D-03
 -0.84929357D-04  0.24198977D-15  0.43059374D-04 -0.58944923D-04  0.22089251D-03
 -0.35185800D-03  0.13096549D-03 -0.35534338D-14  0.83265015D-14  0.87921606D-03
  0.47055944D-04 -0.13142475D-04 -0.33913470D-04  0.16500103D-15 -0.84183129D-17
 -0.25191581D-04 -0.26775647D-03 -0.48290981D-03 -0.71205024D-03 -0.19986823D-03
 -0.44198745D-03 -0.11928982D-04 -0.19327572D-14 -0.75489829D-03 -0.52563481D-03
 -0.46328949D-14 -0.20230397D-03 -0.77259836D-04 -0.11359655D-14 -0.38203580D-04
 -0.57046682D-04  0.22557168D-03 -0.33937262D-03  0.11380094D-03  0.33526944D-17
  0.36642468D-14 -0.89471392D-03  0.45672284D-04 -0.11320357D-04 -0.34351927D-04
 -0.13974934D-14 -0.11816608D-14  0.27631563D-04
MO    2     MO 0.0        OCC NO =    2.0000041  ORB. ENERGY =    0.000000
  0.42193393D+00  0.78641547D+00  0.13334780D+01  0.20180771D+01  0.25173921D+01
  0.21602969D+01  0.82727896D+00  0.49564124D-04  0.53179052D-03  0.19602800D-02
  0.57317437D-02  0.69070299D-02 -0.83202494D-02  0.38546714D-01 -0.65178863D-03
 -0.78682317D-04 -0.25931072D-13 -0.25144417D-13 -0.16962275D-13 -0.57892259D-05
 -0.56136018D-05 -0.37869026D-05 -0.10949734D-01 -0.10617558D-01 -0.71625421D-02
 -0.35706991D-14  0.44765654D-05  0.14529701D-02 -0.86523447D-16  0.24865269D-05
  0.11011598D-03 -0.57938795D-16  0.10660497D-06  0.20723967D-05 -0.99206621D-03
 -0.61867599D-04  0.10539338D-02 -0.22035161D-14  0.17946319D-13 -0.14210389D-05
  0.35005983D-03  0.53762150D-03 -0.88768133D-03 -0.13269843D-14 -0.52886234D-14
 -0.32604599D-05  0.34871486D-04 -0.53059136D-06 -0.34340895D-04  0.33267746D-15
 -0.40464725D-15 -0.14670001D-05 -0.16818248D-14 -0.34974363D-06  0.11061590D-03
 -0.65497842D-15 -0.11029246D-05 -0.23831902D-03  0.57004527D-14  0.21521555D-05
 -0.93528691D-04  0.60106040D-14 -0.24884068D-15 -0.41840477D-06  0.12919958D-03
 -0.70561452D-15  0.11843522D-06 -0.16932078D-03  0.14521366D-14  0.11367791D-05
 -0.21827794D-03 -0.60791281D-15  0.17567676D+00  0.32749686D+00  0.55351432D+00
  0.83203525D+00  0.10220063D+01  0.86253725D+00  0.32433653D+00  0.17448150D-04
  0.13041411D-03  0.48738731D-03  0.13597347D-02  0.18216696D-02 -0.21510522D-02
  0.14493582D-01  0.50950081D-03  0.92327376D-04 -0.65848008D-14 -0.61736693D-14
 -0.43960203D-14 -0.26494842D-04 -0.24840599D-04 -0.17687986D-04  0.11491252D-02
  0.10773779D-02  0.76715724D-03 -0.37079092D-14  0.17113547D-04  0.16129470D-02
  0.48179506D-15  0.74556850D-06 -0.14256488D-04  0.52956028D-16  0.37943109D-09
  0.47081536D-06 -0.10246612D-02 -0.31790744D-03  0.13425687D-02  0.62725056D-15
 -0.35186780D-14 -0.11582361D-04  0.16927385D-04 -0.25789887D-03  0.24097149D-03
 -0.25478916D-14 -0.27807507D-14 -0.11261849D-04 -0.17336116D-05  0.42457761D-04
 -0.40724149D-04 -0.25818177D-15 -0.10130635D-15  0.54395724D-06 -0.64417409D-15
  0.40221549D-05  0.34786943D-03  0.36528088D-14 -0.53996855D-05 -0.22984420D-03
 -0.17202866D-14 -0.66667792D-05 -0.81376409D-03  0.24105286D-14  0.22482667D-17
  0.37985795D-07 -0.91404045D-05  0.19116708D-15 -0.38647142D-06 -0.38694181D-04
 -0.19791188D-15  0.27251403D-06  0.66115394D-04  0.56412174D-15 -0.14765106D-03
 -0.26629477D-03 -0.39265148D-03  0.10123921D-03 -0.35386578D-03 -0.75294751D-05
 -0.25904577D-14  0.34576695D-03 -0.22117057D-03  0.95811572D-15 -0.67131936D-04
  0.12586694D-03  0.11589868D-15 -0.92526126D-05 -0.84803004D-04  0.12443425D-03
 -0.13346558D-03  0.90313326D-05 -0.45211920D-14  0.36600762D-14  0.41863222D-03
  0.25532853D-05  0.23269088D-05 -0.48801942D-05 -0.19479271D-15  0.10681294D-15
 -0.48687067D-05 -0.14545005D-03 -0.26232516D-03 -0.38679829D-03  0.12946855D-03
 -0.34684967D-03 -0.72784230D-05 -0.34435193D-15 -0.33689294D-03 -0.21895109D-03
 -0.34611729D-14  0.85938261D-04  0.14214465D-03 -0.81664486D-15  0.11050254D-04
 -0.83373177D-04  0.12185588D-03 -0.13147558D-03  0.96197015D-05  0.14967964D-14
  0.19746931D-14 -0.41177791D-03  0.11481036D-05  0.32084404D-05 -0.43565440D-05
 -0.97933731D-15 -0.69250539D-15  0.85203282D-05
MO    3     MO 0.0        OCC NO =    1.9805473  ORB. ENERGY =    0.000000
 -0.96741136D-01 -0.18030957D+00 -0.30574022D+00 -0.46270530D+00 -0.57718840D+00
 -0.49531351D+00 -0.18967876D+00 -0.16865866D-02 -0.18095968D-01 -0.66705145D-01
 -0.19504193D+00 -0.23503501D+00  0.28312458D+00  0.14953146D+00  0.75558488D-01
  0.44038835D-02 -0.66019071D-14 -0.64016291D-14 -0.43185012D-14  0.12650405D-02
  0.12266637D-02  0.82750011D-03 -0.13628982D-02 -0.13215528D-02 -0.89151169D-03
 -0.81547608D-14  0.29444010D-03 -0.78723965D-02 -0.11504089D-13  0.72573515D-04
  0.81366334D-02 -0.70981136D-15  0.45911278D-05  0.92533990D-04 -0.14800402D-01
 -0.15845747D-01  0.30646149D-01 -0.92910174D-15 -0.17675542D-13 -0.16490861D-03
 -0.42645488D-02 -0.51058547D-02  0.93704035D-02  0.31414240D-16  0.12334602D-13
 -0.38256433D-04  0.46776283D-03  0.51297060D-03 -0.98073343D-03 -0.36663716D-15
  0.53147560D-14 -0.15664962D-04 -0.19312769D-14 -0.15692021D-04 -0.89066693D-02
 -0.44125081D-14 -0.11850956D-05  0.14286956D-01  0.10206339D-13  0.48261158D-04
  0.12433052D-01 -0.13719217D-14  0.15230070D-14 -0.14436424D-05 -0.35630141D-03
  0.21293861D-14 -0.11925447D-06  0.23256245D-04 -0.66984072D-14  0.44501816D-05
  0.10456480D-02  0.39411334D-15 -0.28082962D-01 -0.52352299D-01 -0.88482517D-01
 -0.13300573D+00 -0.16337371D+00 -0.13788165D+00 -0.51847101D-01 -0.58967279D-03
 -0.44074387D-02 -0.16471605D-01 -0.45953213D-01 -0.61564636D-01  0.72696356D-01
  0.29930488D-01  0.18933444D-01  0.39598967D-03 -0.69661853D-14 -0.65312415D-14
 -0.46506330D-14  0.98687082D-03  0.92525413D-03  0.65883606D-03  0.10623689D+00
  0.99603841D-01  0.70923868D-01  0.77936694D-14  0.42948899D-03  0.66899517D-02
  0.57105085D-14  0.46580029D-04 -0.39972508D-02  0.14152258D-15 -0.14906332D-05
 -0.54809688D-04 -0.18315016D-01 -0.80402871D-02  0.26355303D-01  0.20748581D-14
 -0.14040858D-14 -0.69092783D-04 -0.31145121D-02  0.24525050D-02  0.66200710D-03
 -0.33387038D-14  0.11145149D-13 -0.54518480D-04  0.18261807D-04  0.49258446D-03
 -0.51084627D-03 -0.16467427D-15  0.48680937D-15 -0.33118987D-05 -0.47785529D-15
  0.15891308D-04  0.43638537D-02 -0.26686816D-14 -0.20447607D-04 -0.94259767D-03
  0.41022475D-14 -0.27226317D-04 -0.12148964D-01  0.14232590D-14 -0.45102252D-15
  0.64380818D-05 -0.35402758D-04 -0.11476569D-14 -0.45578570D-05  0.44222572D-03
  0.25007245D-14 -0.14756388D-04 -0.33601745D-03  0.15618248D-14  0.64768800D-02
  0.11681320D-01  0.17224099D-01 -0.24759971D-04 -0.58833918D-02 -0.76849230D-04
 -0.19829774D-14 -0.27706635D-02  0.22503463D-02  0.50497493D-14  0.42323775D-02
 -0.40953033D-02 -0.51461163D-15  0.56602230D-03 -0.14847902D-02  0.54434393D-03
 -0.10949506D-02  0.55060666D-03 -0.18003257D-14  0.19184227D-14  0.20930184D-02
  0.35086941D-03 -0.87482158D-04 -0.26338725D-03 -0.55109943D-15  0.86112729D-15
  0.95259606D-03  0.63467648D-02  0.11446652D-01  0.16878081D-01  0.14231285D-03
 -0.57313216D-02 -0.80404045D-04  0.26091740D-14  0.26810374D-02  0.21438816D-02
 -0.22286768D-14 -0.40589402D-02 -0.39993755D-02 -0.13965730D-14 -0.53388693D-03
 -0.14796163D-02  0.57352197D-03 -0.10549748D-02  0.48145286D-03 -0.16065102D-14
 -0.11618069D-15 -0.22010742D-02  0.34242313D-03 -0.72191739D-04 -0.27023139D-03
 -0.13769163D-14 -0.38657820D-16 -0.92570006D-03
MO    4     MO 0.0        OCC NO =    1.9668215  ORB. ENERGY =    0.000000
  0.35933020D-01  0.66973241D-01  0.11356254D+00  0.17186483D+00  0.21438783D+00
  0.18397665D+00  0.70453284D-01  0.68823242D-03  0.73842822D-02  0.27219855D-01
  0.79589258D-01  0.95908926D-01 -0.11553247D+00 -0.65656629D-01 -0.54217903D-01
 -0.31541859D-02  0.21494180D-12  0.20842124D-12  0.14059974D-12  0.49730157D-01
  0.48221524D-01  0.32529955D-01 -0.68298797D+00 -0.66226859D+00 -0.44676248D+00
  0.49091357D-13  0.11745023D-01 -0.15328323D+00  0.46400883D-14  0.18309990D-02
 -0.15929385D-01  0.21602724D-15  0.57496409D-04 -0.10655480D-03 -0.19691681D-01
 -0.19513120D-01  0.39204801D-01 -0.23825344D-14 -0.34454774D-13 -0.42487530D-02
 -0.36212046D-02 -0.40497341D-02  0.76709387D-02  0.27595997D-15  0.15730633D-15
 -0.11737420D-02 -0.49370795D-05 -0.13962532D-03  0.14456240D-03  0.14317467D-15
  0.10908204D-14 -0.99234013D-04  0.69448611D-15 -0.52196753D-03 -0.60769163D-02
 -0.12273172D-13 -0.43671406D-04  0.59694335D-02  0.10189713D-13  0.16095740D-02
  0.12261315D-01  0.14086240D-13  0.68661548D-15 -0.38770444D-04 -0.15356971D-03
  0.76148703D-15  0.19473716D-04 -0.18082110D-03 -0.28213335D-14  0.96837617D-04
  0.64153024D-03 -0.13176524D-14 -0.49525565D-01 -0.92325631D-01 -0.15604289D+00
 -0.23456157D+00 -0.28811688D+00 -0.24316048D+00 -0.91434692D-01 -0.12028803D-02
 -0.89907848D-02 -0.33600616D-01 -0.93740485D-01 -0.12558641D+00  0.14829413D+00
  0.64371708D-01  0.45713358D-01  0.11213298D-02  0.63296272D-13  0.59344278D-13
  0.42256662D-13  0.19866044D-01  0.18625679D-01  0.13262593D-01 -0.11147989D+00
 -0.10451948D+00 -0.74424095D-01  0.21060854D-13  0.51407165D-02 -0.31370868D-01
  0.50012173D-14  0.45006210D-03 -0.55821027D-02  0.27089192D-17 -0.11191639D-04
 -0.45968424D-05 -0.17593481D-01  0.13978613D-01  0.36148682D-02  0.25057675D-14
  0.14658727D-13  0.62742790D-03 -0.45479404D-02  0.48418722D-02 -0.29393181D-03
 -0.32082677D-14  0.53336663D-14 -0.31956429D-03 -0.96588087D-04  0.77871176D-05
  0.88800969D-04 -0.28947807D-15 -0.26058748D-15 -0.56378399D-04 -0.16851504D-14
 -0.12470158D-03  0.43039152D-02 -0.18965068D-14 -0.22548767D-03  0.64967335D-03
  0.69519580D-14  0.59959241D-03 -0.13561419D-01  0.13152127D-14 -0.21144823D-15
 -0.88689496D-05  0.27789131D-03 -0.12631645D-15 -0.23324839D-04  0.64792345D-03
  0.76066115D-15  0.49931688D-04 -0.14815974D-02  0.73133310D-15  0.25244773D-01
  0.45529987D-01  0.67133940D-01  0.27849814D-01 -0.41976024D-02 -0.81262360D-04
  0.49368659D-15 -0.18193619D-01  0.94135579D-02  0.24170415D-14  0.49310991D-03
 -0.18792280D-02 -0.28574226D-15  0.14012415D-02 -0.48302778D-03 -0.17041039D-02
  0.19542512D-02 -0.25014728D-03 -0.68500920D-16 -0.16459799D-14 -0.32760281D-02
  0.30623783D-03 -0.15624296D-03 -0.14999488D-03 -0.19592648D-15  0.64767397D-15
  0.59140998D-03  0.23205817D-01  0.41852646D-01  0.61711702D-01  0.25841193D-01
 -0.37423096D-02 -0.10419612D-03  0.39874007D-14  0.16846059D-01  0.81857473D-02
 -0.27335334D-14  0.84770489D-04 -0.19783677D-02 -0.15194038D-14 -0.12945016D-02
 -0.51104730D-03 -0.15078532D-02  0.20482482D-02 -0.54039505D-03 -0.16512839D-14
 -0.18275475D-14  0.25093201D-02  0.27839796D-03 -0.10443433D-03 -0.17396362D-03
 -0.12211546D-14 -0.53007891D-15 -0.52071090D-03
MO    5     MO 0.0        OCC NO =    1.9652559  ORB. ENERGY =    0.000000
 -0.13631929D-02 -0.25407674D-02 -0.43082282D-02 -0.65200452D-02 -0.81332425D-02
 -0.69795321D-02 -0.26727900D-02 -0.26616090D-04 -0.28557317D-03 -0.10526765D-02
 -0.30779643D-02 -0.37090967D-02  0.44680000D-02  0.25643410D-02  0.22962475D-02
  0.12223651D-03  0.31853772D-13  0.30887444D-13  0.20836487D-13  0.13367065D+01
  0.12961556D+01  0.87437894D+00  0.31092721D-01  0.30149481D-01  0.20338661D-01
  0.56808907D-14  0.31593531D+00  0.69908705D-02  0.80210021D-14  0.50524301D-01
  0.68484357D-03  0.57163549D-15  0.15757435D-02  0.67993663D-05  0.91783360D-03
  0.91292633D-03 -0.18307599D-02  0.18484609D-14  0.89117200D-14 -0.10128324D+00
  0.18206415D-03  0.19299841D-03 -0.37506256D-03 -0.12436089D-14 -0.60107739D-14
 -0.28556589D-01 -0.14814793D-05  0.54400289D-05 -0.39585496D-05  0.45586791D-15
 -0.31191722D-14 -0.26320717D-02  0.14943159D-14 -0.12983965D-01  0.28403661D-03
  0.33887782D-14  0.93850708D-04 -0.30517676D-03 -0.78717259D-14  0.38858045D-01
 -0.54693308D-03  0.13802131D-13 -0.55972432D-15 -0.97412335D-03  0.96922194D-05
 -0.17194659D-14  0.42362323D-03 -0.13964657D-05  0.33986389D-14  0.24987468D-02
 -0.27680193D-04 -0.13920161D-14  0.21747080D-02  0.40540938D-02  0.68519709D-02
  0.10299790D-01  0.12651448D-01  0.10677375D-01  0.40149720D-02  0.52657278D-04
  0.39358053D-03  0.14709003D-02  0.41035828D-02  0.54976696D-02 -0.64917227D-02
 -0.27578986D-02 -0.22201635D-02 -0.70793099D-04  0.94085565D-14  0.88211198D-14
  0.62811628D-14  0.40386816D+00  0.37865208D+00  0.26962284D+00  0.40395773D-02
  0.37873605D-02  0.26968263D-02  0.14586952D-14  0.10461757D+00  0.12389063D-02
  0.69162897D-15  0.62698524D-02  0.25214967D-03 -0.12856738D-16 -0.33095073D-03
 -0.64247692D-06  0.75504381D-03 -0.41754484D-03 -0.33749897D-03 -0.33376168D-15
  0.45517016D-14  0.29505342D-01  0.20482206D-03 -0.16212143D-03 -0.42700636D-04
 -0.58464402D-15 -0.86534916D-14 -0.36987442D-02  0.57662550D-05 -0.90886835D-05
  0.33224285D-05 -0.61909584D-16 -0.10908881D-14 -0.87853505D-03  0.13090579D-15
 -0.38816085D-02 -0.21049585D-03 -0.23561280D-17 -0.54954056D-02 -0.51694248D-04
 -0.39036124D-15  0.17140231D-01  0.68318180D-03 -0.33483831D-15 -0.10562439D-15
 -0.39084673D-03 -0.11289416D-04  0.12885736D-14 -0.30853637D-03 -0.29501579D-04
 -0.97170042D-15  0.14810766D-02  0.63369827D-04 -0.83904836D-15  0.17135680D-01
  0.30904905D-01  0.45569265D-01  0.17966603D-01 -0.13564029D-02  0.34740600D-03
  0.27467242D-14 -0.10508984D-01  0.13266021D-01 -0.54367250D-14  0.55055286D-02
  0.18957839D-02 -0.11325887D-14  0.41990872D-03  0.64977001D-03 -0.17841664D-02
 -0.15090346D-02  0.32932010D-02  0.19255082D-14 -0.63802771D-15 -0.81579865D-02
  0.29542148D-03 -0.45890797D-03  0.16348648D-03  0.17402260D-14 -0.74874791D-15
  0.86635321D-03 -0.18996366D-01 -0.34260729D-01 -0.50517425D-01 -0.20098992D-01
  0.18748019D-02 -0.33489079D-03  0.24929550D-14 -0.11632876D-01 -0.13815213D-01
 -0.34179891D-14  0.55066231D-02 -0.16937731D-02 -0.15147729D-14  0.53240837D-03
 -0.55054998D-03  0.19052442D-02  0.14161732D-02 -0.33214174D-02  0.28998381D-15
 -0.52248289D-15 -0.82144741D-02 -0.31533361D-03  0.46553161D-03 -0.15019799D-03
 -0.16131221D-14 -0.82933382D-15  0.93126290D-03
MO    6     MO 0.0        OCC NO =    1.9600865  ORB. ENERGY =    0.000000
  0.20611401D-02  0.38416263D-02  0.65140172D-02  0.98582723D-02  0.12297418D-01
  0.10553014D-01  0.40412437D-02 -0.29873191D-04 -0.32051973D-03 -0.11814961D-02
 -0.34546253D-02 -0.41629914D-02  0.50147643D-02  0.74767525D-02  0.28556682D-01
  0.62665423D-02 -0.58621015D-13 -0.56842666D-13 -0.38345726D-13 -0.21161928D-01
 -0.20519951D-01 -0.13842638D-01  0.13791677D+01  0.13373287D+01  0.90215406D+00
 -0.18723719D-13 -0.49437749D-02  0.31899918D+00 -0.94618889D-14 -0.88111777D-03
  0.38013935D-01 -0.27305452D-15 -0.33734038D-04  0.15741887D-03  0.41920867D-01
  0.43682676D-01 -0.85603543D-01  0.94640296D-14 -0.10653214D-13  0.18527325D-03
  0.10401739D-01  0.11758244D-01 -0.22159983D-01 -0.20174719D-14  0.10809613D-13
  0.49173227D-04  0.25720844D-03  0.51063163D-03 -0.76784007D-03  0.86643559D-15
  0.36072216D-14  0.16975061D-04  0.14183189D-15  0.63178866D-04  0.15636720D-01
 -0.23677271D-14 -0.17808715D-03 -0.15980494D-01  0.19422315D-14 -0.11449444D-04
 -0.30929667D-01  0.60421712D-14  0.10463748D-14  0.74827315D-05  0.20158981D-02
  0.19924997D-14  0.13563079D-04 -0.24638607D-02 -0.51316241D-14 -0.36011273D-04
 -0.35838336D-02 -0.15927886D-14  0.50619043D-02  0.94364093D-02  0.15948817D-01
  0.23974047D-01  0.29447823D-01  0.24852924D-01  0.93453483D-02  0.85253736D-04
  0.63721886D-03  0.23814324D-02  0.66438255D-02  0.89008945D-02 -0.10510297D-01
 -0.60627212D-02  0.16283575D-01  0.51115400D-05 -0.26666770D-13 -0.25001792D-13
 -0.17802765D-13  0.60612501D-02  0.56828073D-02  0.40464973D-02 -0.52357688D+00
 -0.49088661D+00 -0.34954051D+00 -0.16665396D-14  0.16043824D-02 -0.10890247D+00
  0.77438960D-15  0.38737882D-03 -0.86450058D-02 -0.29654777D-16  0.10637598D-04
 -0.39971913D-04  0.83060966D-02  0.28529924D-01 -0.36836021D-01  0.25910389D-14
 -0.29449155D-14 -0.17633144D-02  0.19381492D-03  0.24684295D-02 -0.26622445D-02
 -0.17836127D-14  0.89872674D-14 -0.48884604D-03 -0.15341481D-03  0.11736792D-03
  0.36046886D-04 -0.51933629D-15  0.51465273D-15 -0.50265825D-04 -0.98554486D-15
  0.92797005D-04 -0.58714324D-02 -0.18389061D-14 -0.47542508D-04  0.64853095D-02
  0.47955407D-14 -0.23084851D-03  0.11128988D-01  0.96063200D-15 -0.13430960D-15
  0.20999272D-04  0.76876640D-03 -0.90761824D-15 -0.73460265D-05 -0.19136791D-03
  0.13105470D-14 -0.55651790D-04 -0.21149313D-02 -0.35665600D-15  0.18854705D-01
  0.34005237D-01  0.50140702D-01  0.31835407D-01  0.67332696D-03  0.19561887D-05
 -0.15582862D-14 -0.17732780D-01  0.37747773D-02  0.28469960D-14 -0.57304142D-02
  0.68165804D-03  0.13029759D-14  0.39558371D-03 -0.25235673D-03 -0.14952252D-02
  0.53088862D-02 -0.38136610D-02 -0.51890472D-15  0.39239723D-15 -0.45882438D-02
 -0.54540058D-03 -0.29089794D-05  0.54830956D-03 -0.10511713D-14  0.13238294D-14
  0.50019970D-04  0.17781136D-01  0.32069012D-01  0.47285739D-01  0.30317771D-01
  0.97011039D-03  0.22703123D-04 -0.16254196D-14  0.17148314D-01  0.37532290D-02
  0.15229960D-14  0.58057741D-02  0.89791439D-03 -0.44792511D-15 -0.29750885D-03
 -0.20767327D-03 -0.15761245D-02  0.51360219D-02 -0.35598974D-02 -0.32453154D-15
  0.13593939D-14  0.49668798D-02 -0.54270873D-03  0.54802439D-05  0.53722849D-03
  0.23712325D-15 -0.65765756D-16 -0.46787142D-04
MO    7     MO 0.0        OCC NO =    1.9565921  ORB. ENERGY =    0.000000
  0.12985148D-03  0.24202182D-03  0.41038200D-03  0.62106952D-03  0.77473527D-03
  0.66483812D-03  0.25459768D-03  0.15760042D-05  0.16909491D-04  0.62331567D-04
  0.18225384D-03  0.21962474D-03 -0.26456128D-03 -0.79071250D-04  0.25620402D-03
  0.27931110D-04  0.25394481D-13  0.24624104D-13  0.16611275D-13  0.11671293D+01
  0.11317228D+01  0.76345355D+00  0.16715242D-01  0.16208162D-01  0.10933931D-01
  0.76940850D-14  0.27562658D+00  0.39030531D-02  0.10401374D-13  0.49779837D-01
  0.43729600D-03  0.70413044D-15  0.16901033D-02  0.27298942D-05  0.58423071D-03
  0.51677008D-03 -0.11010008D-02  0.41510728D-14  0.82120533D-14 -0.11356059D-01
  0.13683712D-03  0.16408327D-03 -0.30092039D-03 -0.26792528D-14 -0.11876791D-13
 -0.27808989D-02  0.26488519D-06  0.95271798D-05 -0.97920650D-05  0.69036598D-16
 -0.42943422D-14 -0.62093193D-03 -0.21266304D-15 -0.41133195D-02  0.20905765D-03
  0.46755953D-14  0.87653645D-02 -0.23149225D-03 -0.40376062D-14  0.35745940D-02
 -0.39568071D-03  0.34343538D-15 -0.14075601D-14 -0.30192045D-03  0.33202976D-04
 -0.19385022D-14 -0.35008781D-03 -0.33541020D-04  0.61611826D-14  0.12558492D-02
 -0.66067908D-04  0.44965673D-15 -0.16967837D-03 -0.31631466D-03 -0.53461488D-03
 -0.80362587D-03 -0.98711044D-03 -0.83308639D-03 -0.31326224D-03 -0.44828702D-05
 -0.33506677D-04 -0.12522210D-03 -0.34935017D-03 -0.46803291D-03  0.55265960D-03
  0.16973317D-03  0.11839266D-03  0.90077708D-06  0.12687143D-13  0.11895003D-13
  0.84699505D-14 -0.36206791D+00 -0.33946168D+00 -0.24171694D+00 -0.88036823D-02
 -0.82540118D-02 -0.58773481D-02 -0.65868004D-14 -0.99170863D-01 -0.19043219D-02
 -0.26669324D-14 -0.25548697D-01 -0.18238805D-03 -0.10058727D-15 -0.50187980D-03
 -0.10187621D-05  0.38945710D-04  0.18916287D-03 -0.22810858D-03 -0.19000765D-15
 -0.11184963D-14  0.11066933D+00 -0.85502280D-06 -0.33016710D-04  0.33871733D-04
  0.21650822D-15 -0.91753727D-14  0.31817575D-01 -0.34893137D-05 -0.14668683D-04
  0.18157997D-04 -0.31522395D-15 -0.94381634D-15  0.34085567D-02  0.82991414D-15
 -0.36022357D-02 -0.48316400D-04  0.32490923D-14  0.27423893D-02  0.12358659D-03
 -0.57388347D-14  0.80643177D-02  0.21362609D-04 -0.19760096D-14  0.38697958D-15
 -0.57768836D-03  0.89294820D-05  0.14565244D-15  0.79552230D-03  0.22757333D-05
 -0.13065912D-14  0.93754277D-03 -0.29064179D-04  0.63166662D-15 -0.34269770D-01
 -0.61806941D-01 -0.91134298D-01 -0.51987979D-01  0.10361800D-01  0.42362554D-03
  0.55900702D-15  0.14621568D-01 -0.10566709D-01  0.27988835D-15 -0.32962494D-02
  0.19518098D-02  0.25526321D-15 -0.34289213D-02  0.16615569D-02  0.68773262D-03
 -0.14504835D-02  0.76275089D-03  0.30729889D-15 -0.16188424D-14  0.31281523D-02
  0.73926773D-06  0.35023681D-03 -0.35097608D-03  0.21410209D-15  0.50411997D-15
  0.45584198D-04  0.35048377D-01  0.63211191D-01  0.93204864D-01  0.53769567D-01
 -0.99295912D-02 -0.41922837D-03 -0.57160303D-15  0.15154208D-01  0.10879953D-01
 -0.13572744D-14 -0.30005226D-02 -0.19152667D-02 -0.70851243D-15 -0.34279333D-02
 -0.16630969D-02 -0.79401474D-03  0.16374589D-02 -0.84344413D-03  0.11038067D-14
 -0.82373489D-15  0.34089396D-02 -0.48638363D-05 -0.34993732D-03  0.35480116D-03
 -0.86875530D-15  0.30634285D-16  0.27760166D-04
MO    8     MO 0.0        OCC NO =    1.9226380  ORB. ENERGY =    0.000000
  0.76318898D-14  0.14224588D-13  0.24119787D-13  0.36502733D-13  0.45534282D-13
  0.39075189D-13  0.14963721D-13 -0.89022892D-16 -0.95515721D-15 -0.35208893D-14
 -0.10294874D-13 -0.12405824D-13  0.14944129D-13  0.15174073D-14 -0.25849125D-12
 -0.95458720D-14  0.13801728D+01  0.13383033D+01  0.90281152D+00 -0.41666090D-13
 -0.40402091D-13 -0.27255012D-13  0.19061051D-12  0.18482807D-12  0.12468393D-12
  0.33260432D+00 -0.32806828D-13  0.34968906D-13  0.48491868D-01 -0.82774214D-13
  0.17030068D-12  0.88822005D-03 -0.19301499D-14 -0.23784098D-14  0.12290695D-13
 -0.15770674D-14 -0.10713628D-13 -0.21623796D-04 -0.12446246D+00 -0.58449875D-13
 -0.60939247D-14  0.10603216D-13 -0.45092911D-14 -0.50398366D-05 -0.37365724D-01
  0.52416342D-13  0.30679101D-14  0.16259903D-13 -0.19327813D-13  0.18742075D-05
 -0.23570234D-02  0.29881020D-13 -0.61492570D-02 -0.54132329D-14 -0.11351151D-13
 -0.22182803D-01  0.10901643D-14  0.85293292D-14  0.40630574D-01  0.15149534D-13
  0.25524123D-13  0.45943035D-04 -0.36100405D-03  0.55293649D-14  0.49297298D-14
 -0.15493752D-02  0.26461784D-14  0.14683718D-14  0.26323874D-02 -0.19234273D-13
 -0.16257561D-13  0.49418490D-05  0.57719190D-15  0.10760020D-14  0.18185899D-14
  0.27336799D-14  0.33578361D-14  0.28338952D-14  0.10656186D-14  0.44481717D-15
  0.33247327D-14  0.12425285D-13  0.34664612D-13  0.46441022D-13 -0.54838188D-13
 -0.88763047D-13  0.17496101D-11  0.15701646D-12  0.41530865D+00  0.38937826D+00
  0.27726051D+00 -0.37688918D-14 -0.35335756D-14 -0.25161164D-14  0.93469577D-14
  0.87633670D-14  0.62400394D-14  0.10660504D+00 -0.38171906D-14 -0.10710850D-12
  0.12596398D-01  0.10425442D-12 -0.18970157D-12  0.38888163D-04  0.15413694D-14