 Entering Gaussian System, Link 0=/home/bruns/programas/chemistry/gaussian/g09/g09
 Input=GAUSSIAN.com
 Output=GAUSSIAN.log
 Initial command:
 /home/bruns/programas/chemistry/gaussian/g09/l1.exe /home/bruns/programas/chemistry/gaussian/work/Gau-76820.inp -scrdir=/home/bruns/programas/chemistry/gaussian/work/
 Entering Link 1 = /home/bruns/programas/chemistry/gaussian/g09/l1.exe PID=     76822.
  
 Copyright (c) 1988,1990,1992,1993,1995,1998,2003,2009,2010,
            Gaussian, Inc.  All Rights Reserved.
  
 This is part of the Gaussian(R) 09 program.  It is based on
 the Gaussian(R) 03 system (copyright 2003, Gaussian, Inc.),
 the Gaussian(R) 98 system (copyright 1998, Gaussian, Inc.),
 the Gaussian(R) 94 system (copyright 1995, Gaussian, Inc.),
 the Gaussian 92(TM) system (copyright 1992, Gaussian, Inc.),
 the Gaussian 90(TM) system (copyright 1990, Gaussian, Inc.),
 the Gaussian 88(TM) system (copyright 1988, Gaussian, Inc.),
 the Gaussian 86(TM) system (copyright 1986, Carnegie Mellon
 University), and the Gaussian 82(TM) system (copyright 1983,
 Carnegie Mellon University). Gaussian is a federally registered
 trademark of Gaussian, Inc.
  
 This software contains proprietary and confidential information,
 including trade secrets, belonging to Gaussian, Inc.
  
 This software is provided under written license and may be
 used, copied, transmitted, or stored only in accord with that
 written license.
  
 The following legend is applicable only to US Government
 contracts under FAR:
  
                    RESTRICTED RIGHTS LEGEND
  
 Use, reproduction and disclosure by the US Government is
 subject to restrictions as set forth in subparagraphs (a)
 and (c) of the Commercial Computer Software - Restricted
 Rights clause in FAR 52.227-19.
  
 Gaussian, Inc.
 340 Quinnipiac St., Bldg. 40, Wallingford CT 06492
  
  
 ---------------------------------------------------------------
 Warning -- This program may not be used in any manner that
 competes with the business of Gaussian, Inc. or will provide
 assistance to any competitor of Gaussian, Inc.  The licensee
 of this program is prohibited from giving any competitor of
 Gaussian, Inc. access to this program.  By using this program,
 the user acknowledges that Gaussian, Inc. is engaged in the
 business of creating and licensing software in the field of
 computational chemistry and represents and warrants to the
 licensee that it is not a competitor of Gaussian, Inc. and that
 it will not use this program in any manner prohibited above.
 ---------------------------------------------------------------
  

 Cite this work as:
 Gaussian 09, Revision B.01,
 M. J. Frisch, G. W. Trucks, H. B. Schlegel, G. E. Scuseria, 
 M. A. Robb, J. R. Cheeseman, G. Scalmani, V. Barone, B. Mennucci, 
 G. A. Petersson, H. Nakatsuji, M. Caricato, X. Li, H. P. Hratchian, 
 A. F. Izmaylov, J. Bloino, G. Zheng, J. L. Sonnenberg, M. Hada, 
 M. Ehara, K. Toyota, R. Fukuda, J. Hasegawa, M. Ishida, T. Nakajima, 
 Y. Honda, O. Kitao, H. Nakai, T. Vreven, J. A. Montgomery, Jr., 
 J. E. Peralta, F. Ogliaro, M. Bearpark, J. J. Heyd, E. Brothers, 
 K. N. Kudin, V. N. Staroverov, T. Keith, R. Kobayashi, J. Normand, 
 K. Raghavachari, A. Rendell, J. C. Burant, S. S. Iyengar, J. Tomasi, 
 M. Cossi, N. Rega, J. M. Millam, M. Klene, J. E. Knox, J. B. Cross, 
 V. Bakken, C. Adamo, J. Jaramillo, R. Gomperts, R. E. Stratmann, 
 O. Yazyev, A. J. Austin, R. Cammi, C. Pomelli, J. W. Ochterski, 
 R. L. Martin, K. Morokuma, V. G. Zakrzewski, G. A. Voth, 
 P. Salvador, J. J. Dannenberg, S. Dapprich, A. D. Daniels, 
 O. Farkas, J. B. Foresman, J. V. Ortiz, J. Cioslowski, 
 and D. J. Fox, Gaussian, Inc., Wallingford CT, 2010.
 
 ******************************************
 Gaussian 09:  EM64L-G09RevB.01 12-Aug-2010
                20-Nov-2021 
 ******************************************
 %nproc=8
 Will use up to    8 processors via shared memory.
 %mem=8GB
 -----------------------------------------------------
 # qcisd/aug-cc-pvtz nosymm density=current output=wfn
 -----------------------------------------------------
 1/30=1,38=1/1;
 2/12=2,15=1,17=6,18=5,40=1/2;
 3/5=16,6=1,7=10,11=9,16=1,25=1,30=1,71=1/1,2,3;
 4//1;
 5/5=2,38=5/2;
 8/6=4,9=120000,10=1/1,4;
 9/5=8,15=1/13;
 11/28=-7,31=1,32=3,42=3/11;
 10/5=6,13=10,31=1/2;
 6/7=2,8=2,9=2,10=2,22=-1,31=1/1;
 99/5=1,6=1100,9=1/99;
 -----------------
 h2co-wavefunction
 -----------------
 Symbolic Z-matrix:
 Charge =  0 Multiplicity = 1
 O                     0.        0.        0.67925 
 C                     0.        0.       -0.52691 
 H                    -0.01      0.93661  -1.10662 
 H                     0.       -0.93661  -1.10662 
 
                          Input orientation:                          
 ---------------------------------------------------------------------
 Center     Atomic      Atomic             Coordinates (Angstroms)
 Number     Number       Type             X           Y           Z
 ---------------------------------------------------------------------
      1          8           0        0.000000    0.000000    0.679252
      2          6           0        0.000000    0.000000   -0.526911
      3          1           0       -0.010000    0.936614   -1.106620
      4          1           0        0.000000   -0.936614   -1.106620
 ---------------------------------------------------------------------
                    Distance matrix (angstroms):
                    1          2          3          4
     1  O    0.000000
     2  C    1.206163   0.000000
     3  H    2.016602   1.101548   0.000000
     4  H    2.016577   1.101503   1.873255   0.000000
 Symmetry turned off by external request.
 Stoichiometry    CH2O
 Framework group  C1[X(CH2O)]
 Deg. of freedom     6
 Full point group                 C1      NOp   1
 Rotational constants (GHZ):    285.7982292     38.8697417     34.2163644
 Standard basis: Aug-CC-pVTZ (5D, 7F)
 Integral buffers will be    131072 words long.
 Raffenetti 1 integral format.
 Two-electron integral symmetry is turned off.
   138 basis functions,   198 primitive gaussians,   160 cartesian basis functions
     8 alpha electrons        8 beta electrons
       nuclear repulsion energy        31.3048624251 Hartrees.
 NAtoms=    4 NActive=    4 NUniq=    4 SFac= 1.00D+00 NAtFMM=   50 NAOKFM=F Big=F
 One-electron integrals computed using PRISM.
 NBasis=   138 RedAO= T  NBF=   138
 NBsUse=   138 1.00D-06 NBFU=   138
 Harris functional with IExCor=  205 diagonalized for initial guess.
 ExpMin= 2.53D-02 ExpMax= 1.53D+04 ExpMxC= 5.22D+02 IAcc=3 IRadAn=         0 AccDes= 0.00D+00
 HarFok:  IExCor=  205 AccDes= 0.00D+00 IRadAn=         0 IDoV= 1
 ScaDFX=  1.000000  1.000000  1.000000  1.000000
 FoFCou: FMM=F IPFlag=           0 FMFlag=      100000 FMFlg1=           0
         NFxFlg=           0 DoJE=T BraDBF=F KetDBF=T FulRan=T
         Omega=  0.000000  0.000000  1.000000  0.000000  0.000000 ICntrl=     500 IOpCl=  0
         NMat0=    1 NMatS0=    1 NMatT0=    0 NMatD0=    1 NMtDS0=    0 NMtDT0=    0
         I1Cent=           4 NGrid=           0.
 Symmetry not used in FoFCou.
 Requested convergence on RMS density matrix=1.00D-08 within 128 cycles.
 Requested convergence on MAX density matrix=1.00D-06.
 Requested convergence on             energy=1.00D-06.
 No special actions if energy rises.
 Keep R1 ints in memory in canonical form, NReq=85137408.
 SCF Done:  E(RHF) =  -113.913821617     A.U. after   11 cycles
             Convg  =    0.2891D-08             -V/T =  2.0018
 ExpMin= 2.53D-02 ExpMax= 1.53D+04 ExpMxC= 5.22D+02 IAcc=3 IRadAn=         5 AccDes= 0.00D+00
 HarFok:  IExCor=  205 AccDes= 0.00D+00 IRadAn=         5 IDoV=-2
 ScaDFX=  1.000000  1.000000  1.000000  1.000000
 DSYEVD returned Info=          93 IAlg= 4 N=    46 NDim=    46 NE2=    23340785 trying DSYEV.
 Range of M.O.s used for correlation:     3   138
 NBasis=   138 NAE=     8 NBE=     8 NFC=     2 NFV=     0
 NROrb=    136 NOA=     6 NOB=     6 NVA=   130 NVB=   130

 **** Warning!!: The largest alpha MO coefficient is  0.33804824D+02

 Semi-Direct transformation.
 ModeAB=           2 MOrb=             6 LenV=    1073118443
 LASXX=      7286295 LTotXX=     7286295 LenRXX=     7286295
 LTotAB=     7445736 MaxLAS=    10510080 LenRXY=    10510080
 NonZer=    14572590 LenScr=    22628352 LnRSAI=           0
 LnScr1=           0 LExtra=           0 Total=     40424727
 MaxDsk=          -1 SrtSym=           F ITran=            4
 JobTyp=0 Pass  1:  I=   1 to   6.
 (rs|ai) integrals will be sorted in core.
 Spin components of T(2) and E(2):
     alpha-alpha T2 =       0.1376082938D-01 E2=     -0.4804197623D-01
     alpha-beta  T2 =       0.8505579046D-01 E2=     -0.3064354516D+00
     beta-beta   T2 =       0.1376082938D-01 E2=     -0.4804197623D-01
 ANorm=    0.1054787869D+01
 E2 =    -0.4025194040D+00 EUMP2 =    -0.11431634102088D+03
 R2 and R3 integrals will be kept in memory, NReq=   167993840.
 Iterations=  50 Convergence= 0.100D-07
 Iteration Nr.   1
 **********************
 DD1Dir will call FoFMem   1 times, MxPair=        42
 NAB=    21 NAA=     0 NBB=     0.
 MP4(R+Q)=  0.88727316D-02
 E3=       -0.40189870D-02        EUMP3=      -0.11432036001D+03
 E4(DQ)=   -0.13495877D-02        UMP4(DQ)=   -0.11432170960D+03
 E4(SDQ)=  -0.66116834D-02        UMP4(SDQ)=  -0.11432697169D+03
 DE(Corr)= -0.39766566     E(Corr)=     -114.31148728    
 NORM(A)=   0.10554813D+01
 Iteration Nr.   2
 **********************
 DD1Dir will call FoFMem   1 times, MxPair=        42
 NAB=    21 NAA=     0 NBB=     0.
 DE(Corr)= -0.41160823     E(CORR)=     -114.32542985     Delta=-1.39D-02
 NORM(A)=   0.10615354D+01
 Iteration Nr.   3
 **********************
 DD1Dir will call FoFMem   1 times, MxPair=        42
 NAB=    21 NAA=     0 NBB=     0.
 DE(Corr)= -0.41153547     E(CORR)=     -114.32535709     Delta= 7.28D-05
 NORM(A)=   0.10634223D+01
 Iteration Nr.   4
 **********************
 DD1Dir will call FoFMem   1 times, MxPair=        42
 NAB=    21 NAA=     0 NBB=     0.
 DE(Corr)= -0.41294194     E(CORR)=     -114.32676355     Delta=-1.41D-03
 NORM(A)=   0.10641022D+01
 Iteration Nr.   5
 **********************
 DD1Dir will call FoFMem   1 times, MxPair=        42
 NAB=    21 NAA=     0 NBB=     0.
 DE(Corr)= -0.41312945     E(CORR)=     -114.32695107     Delta=-1.88D-04
 NORM(A)=   0.10643173D+01
 Iteration Nr.   6
 **********************
 DD1Dir will call FoFMem   1 times, MxPair=        42
 NAB=    21 NAA=     0 NBB=     0.
 DE(Corr)= -0.41315538     E(CORR)=     -114.32697700     Delta=-2.59D-05
 NORM(A)=   0.10643426D+01
 Iteration Nr.   7
 **********************
 DD1Dir will call FoFMem   1 times, MxPair=        42
 NAB=    21 NAA=     0 NBB=     0.
 DE(Corr)= -0.41315659     E(CORR)=     -114.32697821     Delta=-1.21D-06
 NORM(A)=   0.10643438D+01
 Iteration Nr.   8
 **********************
 DD1Dir will call FoFMem   1 times, MxPair=        42
 NAB=    21 NAA=     0 NBB=     0.
 DE(Corr)= -0.41315572     E(CORR)=     -114.32697733     Delta= 8.75D-07
 NORM(A)=   0.10643466D+01
 Iteration Nr.   9
 **********************
 DD1Dir will call FoFMem   1 times, MxPair=        42
 NAB=    21 NAA=     0 NBB=     0.
 DE(Corr)= -0.41315460     E(CORR)=     -114.32697622     Delta= 1.12D-06
 NORM(A)=   0.10643469D+01
 Iteration Nr.  10
 **********************
 DD1Dir will call FoFMem   1 times, MxPair=        42
 NAB=    21 NAA=     0 NBB=     0.
 DE(Corr)= -0.41315522     E(CORR)=     -114.32697684     Delta=-6.21D-07
 NORM(A)=   0.10643475D+01
 Iteration Nr.  11
 **********************
 DD1Dir will call FoFMem   1 times, MxPair=        42
 NAB=    21 NAA=     0 NBB=     0.
 DE(Corr)= -0.41315535     E(CORR)=     -114.32697697     Delta=-1.32D-07
 NORM(A)=   0.10643478D+01
 Iteration Nr.  12
 **********************
 DD1Dir will call FoFMem   1 times, MxPair=        42
 NAB=    21 NAA=     0 NBB=     0.
 DE(Corr)= -0.41315551     E(CORR)=     -114.32697713     Delta=-1.55D-07
 NORM(A)=   0.10643480D+01
 Iteration Nr.  13
 **********************
 DD1Dir will call FoFMem   1 times, MxPair=        42
 NAB=    21 NAA=     0 NBB=     0.
 DE(Corr)= -0.41315557     E(CORR)=     -114.32697719     Delta=-6.10D-08
 NORM(A)=   0.10643481D+01
 Iteration Nr.  14
 **********************
 DD1Dir will call FoFMem   1 times, MxPair=        42
 NAB=    21 NAA=     0 NBB=     0.
 DE(Corr)= -0.41315560     E(CORR)=     -114.32697722     Delta=-3.15D-08
 NORM(A)=   0.10643482D+01
 Iteration Nr.  15
 **********************
 DD1Dir will call FoFMem   1 times, MxPair=        42
 NAB=    21 NAA=     0 NBB=     0.
 DE(Corr)= -0.41315561     E(CORR)=     -114.32697722     Delta=-4.89D-09
 NORM(A)=   0.10643482D+01
 Iteration Nr.  16
 **********************
 DD1Dir will call FoFMem   1 times, MxPair=        42
 NAB=    21 NAA=     0 NBB=     0.
 DE(Corr)= -0.41315561     E(CORR)=     -114.32697723     Delta=-2.99D-09
 NORM(A)=   0.10643482D+01
 Largest amplitude= 6.44D-02

 Z-AMPLITUDE ITERATIONS

 Iteration Nr.   1
 **********************
 DD1Dir will call FoFMem   1 times, MxPair=        42
 NAB=    21 NAA=     0 NBB=     0.
 DE(Z)  -0.40112126D+00          E(Z)=    -0.11431494287D+03
 NORM(A)=   0.10643475D+01
 Iteration Nr.   2
 **********************
 DD1Dir will call FoFMem   1 times, MxPair=        42
 NAB=    21 NAA=     0 NBB=     0.
 DE(Z)  -0.40112122D+00          E(Z)=    -0.11431494284D+03
 NORM(A)=   0.10643480D+01
 Iteration Nr.   3
 **********************
 DD1Dir will call FoFMem   1 times, MxPair=        42
 NAB=    21 NAA=     0 NBB=     0.
 DE(Z)  -0.40112125D+00          E(Z)=    -0.11431494286D+03
 NORM(A)=   0.10643479D+01
 Iteration Nr.   4
 **********************
 DD1Dir will call FoFMem   1 times, MxPair=        42
 NAB=    21 NAA=     0 NBB=     0.
 DE(Z)  -0.40112124D+00          E(Z)=    -0.11431494286D+03
 NORM(A)=   0.10643479D+01
 Iteration Nr.   5
 **********************
 DD1Dir will call FoFMem   1 times, MxPair=        42
 NAB=    21 NAA=     0 NBB=     0.
 DE(Z)  -0.40112124D+00          E(Z)=    -0.11431494286D+03
 NORM(A)=   0.10603139D+01
 Iteration Nr.   6
 **********************
 DD1Dir will call FoFMem   1 times, MxPair=        42
 NAB=    21 NAA=     0 NBB=     0.
 DE(Z)  -0.40092465D+00          E(Z)=    -0.11431474626D+03
 NORM(A)=   0.10603095D+01
 Iteration Nr.   7
 **********************
 DD1Dir will call FoFMem   1 times, MxPair=        42
 NAB=    21 NAA=     0 NBB=     0.
 DE(Z)  -0.40091162D+00          E(Z)=    -0.11431473323D+03
 NORM(A)=   0.10602808D+01
 Iteration Nr.   8
 **********************
 DD1Dir will call FoFMem   1 times, MxPair=        42
 NAB=    21 NAA=     0 NBB=     0.
 DE(Z)  -0.40090871D+00          E(Z)=    -0.11431473032D+03
 NORM(A)=   0.10602661D+01
 Iteration Nr.   9
 **********************
 DD1Dir will call FoFMem   1 times, MxPair=        42
 NAB=    21 NAA=     0 NBB=     0.
 DE(Z)  -0.40090774D+00          E(Z)=    -0.11431472935D+03
 NORM(A)=   0.10602657D+01
 Iteration Nr.  10
 **********************
 DD1Dir will call FoFMem   1 times, MxPair=        42
 NAB=    21 NAA=     0 NBB=     0.
 DE(Z)  -0.40090673D+00          E(Z)=    -0.11431472834D+03
 NORM(A)=   0.10602653D+01
 Iteration Nr.  11
 **********************
 DD1Dir will call FoFMem   1 times, MxPair=        42
 NAB=    21 NAA=     0 NBB=     0.
 DE(Z)  -0.40090685D+00          E(Z)=    -0.11431472847D+03
 NORM(A)=   0.10602652D+01
 Iteration Nr.  12
 **********************
 DD1Dir will call FoFMem   1 times, MxPair=        42
 NAB=    21 NAA=     0 NBB=     0.
 DE(Z)  -0.40090693D+00          E(Z)=    -0.11431472855D+03
 NORM(A)=   0.10602653D+01
 Iteration Nr.  13
 **********************
 DD1Dir will call FoFMem   1 times, MxPair=        42
 NAB=    21 NAA=     0 NBB=     0.
 DE(Z)  -0.40090688D+00          E(Z)=    -0.11431472849D+03
 NORM(A)=   0.10602653D+01
 Iteration Nr.  14
 **********************
 DD1Dir will call FoFMem   1 times, MxPair=        42
 NAB=    21 NAA=     0 NBB=     0.
 DE(Z)  -0.40090690D+00          E(Z)=    -0.11431472852D+03
 NORM(A)=   0.10602653D+01
 Iteration Nr.  15
 **********************
 DD1Dir will call FoFMem   1 times, MxPair=        42
 NAB=    21 NAA=     0 NBB=     0.
 DE(Z)  -0.40090690D+00          E(Z)=    -0.11431472852D+03
 NORM(A)=   0.10602653D+01
 Discarding MO integrals.
          Differentiating once with respect to electric field.
                with respect to dipole field.
          Electric field/nuclear overlap derivatives assumed to be zero.
          Keep R1 ints in memory in canonical form, NReq=84894547.
          There are     1 degrees of freedom in the 1st order CPHF.  IDoFFX=0.
 LinEq1:  Iter=  0 NonCon=     1 RMS=3.55D-03 Max=5.57D-02
 AX will form     1 AO Fock derivatives at one time.
 LinEq1:  Iter=  1 NonCon=     1 RMS=8.96D-04 Max=8.54D-03
 LinEq1:  Iter=  2 NonCon=     1 RMS=2.35D-04 Max=3.42D-03
 LinEq1:  Iter=  3 NonCon=     1 RMS=1.15D-04 Max=1.21D-03
 LinEq1:  Iter=  4 NonCon=     1 RMS=4.45D-05 Max=5.32D-04
 LinEq1:  Iter=  5 NonCon=     1 RMS=9.21D-06 Max=8.74D-05
 LinEq1:  Iter=  6 NonCon=     1 RMS=1.50D-06 Max=1.74D-05
 LinEq1:  Iter=  7 NonCon=     1 RMS=2.28D-07 Max=1.66D-06
 LinEq1:  Iter=  8 NonCon=     1 RMS=2.61D-08 Max=2.07D-07
 LinEq1:  Iter=  9 NonCon=     1 RMS=3.14D-09 Max=2.52D-08
 LinEq1:  Iter= 10 NonCon=     1 RMS=2.96D-10 Max=2.32D-09
 LinEq1:  Iter= 11 NonCon=     0 RMS=2.73D-11 Max=2.36D-10
 Linear equations converged to 1.000D-10 1.000D-09 after    11 iterations.
 End of Minotr Frequency-dependent properties file   721 does not exist.
 End of Minotr Frequency-dependent properties file   722 does not exist.

 **********************************************************************

            Population analysis using the QCI/CC density.

 **********************************************************************

     Natural Orbital Coefficients:
                           1         2         3         4         5
     Eigenvalues --     2.00001   2.00000   1.98055   1.96688   1.96534
   1 1   O  1S         -0.52385   0.82763  -0.18942   0.07080   0.00002
   2        2S          0.01054  -0.01441   0.48948  -0.20085  -0.00006
   3        3S         -0.02188   0.03556   0.13766  -0.06075  -0.00002
   4        4S          0.00282  -0.00269   0.31054  -0.22317  -0.00007
   5        5S          0.00015  -0.00079   0.04379  -0.03081  -0.00001
   6        6PX         0.00000   0.00000  -0.00006  -0.00047  -0.00145
   7        6PY         0.00000   0.00000   0.00000  -0.00007   0.27189
   8        6PZ         0.00299  -0.00224  -0.00040  -0.13846  -0.00006
   9        7PX         0.00000   0.00000  -0.00008  -0.00060  -0.00179
  10        7PY         0.00000   0.00000   0.00000  -0.00008   0.33554
  11        7PZ         0.00200   0.00154  -0.00856  -0.16222  -0.00007
  12        8PX         0.00001   0.00002  -0.00004  -0.00043  -0.00130
  13        8PY         0.00000   0.00000   0.00000  -0.00006   0.24271
  14        8PZ         0.00306   0.00051   0.03895  -0.07614  -0.00003
  15        9PX         0.00000   0.00000   0.00001  -0.00005  -0.00020
  16        9PY         0.00000   0.00000   0.00000  -0.00001   0.03730
  17        9PZ         0.00019   0.00005   0.00214  -0.00256   0.00000
  18       10D 0       -0.00015   0.00015   0.00429   0.00544   0.00000
  19       10D+1        0.00000   0.00000   0.00000   0.00002   0.00004
  20       10D-1        0.00000   0.00000   0.00000   0.00000  -0.00818
  21       10D+2        0.00007  -0.00008   0.00008  -0.00002   0.00000
  22       10D-2        0.00000   0.00000   0.00000   0.00000   0.00000
  23       11D 0       -0.00046  -0.00116   0.01229   0.00992   0.00000
  24       11D+1        0.00000   0.00000   0.00001   0.00006   0.00012
  25       11D-1        0.00000   0.00000   0.00000   0.00001  -0.02154
  26       11D+2        0.00008  -0.00014   0.00065   0.00033   0.00000
  27       11D-2        0.00000   0.00000   0.00001   0.00000  -0.00001
  28       12D 0       -0.00067  -0.00030  -0.00878   0.00125   0.00000
  29       12D+1        0.00000  -0.00001   0.00001   0.00004   0.00007
  30       12D-1        0.00000   0.00000   0.00000   0.00000  -0.01372
  31       12D+2        0.00027   0.00018  -0.00025   0.00072   0.00000
  32       12D-2        0.00000   0.00000   0.00000   0.00001  -0.00007
  33       13F 0       -0.00003   0.00003  -0.00272  -0.00183   0.00000
  34       13F+1        0.00000   0.00000   0.00000  -0.00001  -0.00003
  35       13F-1        0.00000   0.00000   0.00000   0.00000   0.00483
  36       13F+2        0.00005  -0.00001   0.00014  -0.00049   0.00000
  37       13F-2        0.00000   0.00000   0.00000  -0.00001   0.00000
  38       13F+3        0.00000   0.00000   0.00000   0.00000  -0.00002
  39       13F-3        0.00000   0.00000   0.00000   0.00000   0.00126
  40       14F 0        0.00034   0.00042  -0.00116  -0.00047   0.00000
  41       14F+1        0.00000   0.00000   0.00001   0.00000  -0.00002
  42       14F-1        0.00000   0.00000   0.00000   0.00000   0.00328
  43       14F+2       -0.00002   0.00004  -0.00086  -0.00070   0.00000
  44       14F-2        0.00000   0.00000  -0.00001  -0.00001   0.00002
  45       14F+3        0.00000   0.00000  -0.00001  -0.00002  -0.00002
  46       14F-3        0.00000   0.00000   0.00000   0.00000   0.00143
  47 2   C  1S          0.82923   0.52454  -0.08433  -0.14831  -0.00004
  48        2S         -0.01111  -0.00598   0.20345   0.41364   0.00012
  49        3S          0.03438   0.02184   0.04540   0.09729   0.00003
  50        4S          0.00352   0.00331   0.12490   0.30012   0.00008
  51        5S          0.00181   0.00136   0.00595   0.01629   0.00000
  52        6PX         0.00001   0.00001  -0.00013  -0.00067  -0.00099
  53        6PY         0.00000   0.00000   0.00000  -0.00007   0.18567
  54        6PZ         0.00094   0.00053   0.04842  -0.05195   0.00000
  55        7PX        -0.00002   0.00000  -0.00033  -0.00091  -0.00131
  56        7PY         0.00000   0.00000  -0.00001  -0.00009   0.24501
  57        7PZ         0.00059   0.00374   0.01531  -0.07395   0.00000
  58        8PX        -0.00001  -0.00001  -0.00020  -0.00046  -0.00033
  59        8PY         0.00000   0.00000  -0.00001  -0.00004   0.06170
  60        8PZ        -0.00101  -0.00011  -0.03938  -0.05533  -0.00001
  61        9PX         0.00000   0.00000   0.00000   0.00000   0.00008
  62        9PY         0.00000   0.00000   0.00000   0.00000  -0.01501
  63        9PZ        -0.00016   0.00002  -0.00249  -0.00022   0.00000
  64       10D 0        0.00051   0.00069   0.01358   0.00170   0.00000
  65       10D+1        0.00000   0.00000   0.00002   0.00003  -0.00005
  66       10D-1        0.00000   0.00000   0.00000   0.00000   0.00865
  67       10D+2       -0.00044  -0.00021  -0.00310  -0.00951   0.00000
  68       10D-2        0.00000   0.00000  -0.00003  -0.00010  -0.00006
  69       11D 0       -0.00075   0.00110   0.00276  -0.00161   0.00000
  70       11D+1        0.00000  -0.00001   0.00008   0.00011   0.00005
  71       11D-1        0.00000   0.00000   0.00000   0.00001  -0.00989
  72       11D+2        0.00032   0.00072  -0.01474  -0.02466   0.00000
  73       11D-2        0.00000   0.00001  -0.00016  -0.00026  -0.00020
  74       12D 0       -0.00045  -0.00137  -0.01735   0.00280   0.00000
  75       12D+1       -0.00001  -0.00001  -0.00005   0.00008   0.00009
  76       12D-1        0.00000   0.00000   0.00000   0.00001  -0.01747
  77       12D+2       -0.00049  -0.00087  -0.00938  -0.00217   0.00000
  78       12D-2       -0.00001  -0.00001  -0.00010  -0.00002   0.00014
  79       13F 0        0.00069   0.00044   0.00547   0.00537   0.00000
  80       13F+1        0.00000   0.00000  -0.00001  -0.00002  -0.00005
  81       13F-1        0.00000   0.00000   0.00000   0.00000   0.00877
  82       13F+2        0.00050   0.00019   0.00362   0.00457   0.00000
  83       13F-2        0.00001   0.00000   0.00004   0.00005   0.00003
  84       13F+3        0.00000   0.00000   0.00003   0.00004   0.00001
  85       13F-3        0.00000   0.00000   0.00000   0.00000  -0.00063
  86       14F 0       -0.00150  -0.00012  -0.00042   0.00371   0.00000
  87       14F+1       -0.00001  -0.00001   0.00002   0.00004  -0.00004
  88       14F-1        0.00000   0.00000   0.00000   0.00000   0.00782
  89       14F+2       -0.00087  -0.00035   0.00267   0.00726   0.00000
  90       14F-2       -0.00001   0.00000   0.00003   0.00008   0.00014
  91       14F+3        0.00000  -0.00001   0.00005   0.00008   0.00000
  92       14F-3        0.00000   0.00000   0.00000   0.00000   0.00028
  93 3   H  1S         -0.00107  -0.00058   0.02537   0.09545   0.07185
  94        2S         -0.00072   0.00037  -0.00004   0.08750   0.06290
  95        3S         -0.00350  -0.00270  -0.04532  -0.03126  -0.01190
  96        4S         -0.00027  -0.00017  -0.00176  -0.00205   0.00766
  97        5PX         0.00000   0.00000   0.00001   0.00007   0.00007
  98        5PY         0.00035   0.00016  -0.00127  -0.00810  -0.00518
  99        5PZ        -0.00024  -0.00010   0.00103   0.00403   0.00627
 100        6PX         0.00000   0.00000  -0.00011  -0.00004  -0.00003
 101        6PY         0.00050  -0.00017   0.00959   0.00046   0.01265
 102        6PZ        -0.00019   0.00030  -0.00935  -0.00446   0.00413
 103        7PX        -0.00001  -0.00001  -0.00015  -0.00015  -0.00017
 104        7PY         0.00050  -0.00012   0.00680   0.01649   0.00575
 105        7PZ        -0.00069  -0.00101  -0.01801  -0.00617   0.00746
 106        8D 0        0.00007   0.00001   0.00030  -0.00022   0.00182
 107        8D+1        0.00000   0.00000  -0.00001   0.00001   0.00004
 108        8D-1        0.00028   0.00013   0.00066  -0.00093  -0.00264
 109        8D+2        0.00018   0.00008   0.00051  -0.00117  -0.00013
 110        8D-2        0.00000   0.00000   0.00001  -0.00002  -0.00001
 111        9D 0       -0.00024  -0.00003  -0.00187  -0.00110   0.00110
 112        9D+1        0.00000   0.00000  -0.00004  -0.00001  -0.00003
 113        9D-1       -0.00011  -0.00002   0.00384   0.00226   0.00359
 114        9D+2        0.00024   0.00000   0.00172   0.00170   0.00315
 115        9D-2        0.00000   0.00000   0.00005   0.00005   0.00006
 116 4   H  1S         -0.00107  -0.00058   0.02537   0.09551  -0.07181
 117        2S         -0.00072   0.00037  -0.00004   0.08754  -0.06285
 118        3S         -0.00350  -0.00270  -0.04533  -0.03129   0.01189
 119        4S         -0.00027  -0.00017  -0.00176  -0.00205  -0.00766
 120        5PX         0.00000   0.00000   0.00000  -0.00001  -0.00001
 121        5PY        -0.00035  -0.00016   0.00127   0.00810  -0.00518
 122        5PZ        -0.00024  -0.00010   0.00103   0.00403  -0.00627
 123        6PX         0.00001   0.00000  -0.00001  -0.00003  -0.00011
 124        6PY        -0.00050   0.00017  -0.00959  -0.00047   0.01265
 125        6PZ        -0.00019   0.00030  -0.00936  -0.00445  -0.00413
 126        7PX         0.00000  -0.00001  -0.00008   0.00003   0.00011
 127        7PY        -0.00050   0.00012  -0.00681  -0.01651   0.00575
 128        7PZ        -0.00069  -0.00101  -0.01801  -0.00617  -0.00746
 129        8D 0        0.00007   0.00001   0.00030  -0.00022  -0.00182
 130        8D+1        0.00000   0.00000   0.00000   0.00000  -0.00001
 131        8D-1       -0.00028  -0.00013  -0.00066   0.00093  -0.00264
 132        8D+2        0.00018   0.00008   0.00051  -0.00117   0.00013
 133        8D-2        0.00000   0.00000   0.00000  -0.00001  -0.00001
 134        9D 0       -0.00024  -0.00003  -0.00187  -0.00110  -0.00110
 135        9D+1        0.00000   0.00000   0.00000   0.00002   0.00000
 136        9D-1        0.00011   0.00002  -0.00384  -0.00226   0.00359
 137        9D+2        0.00024   0.00000   0.00173   0.00170  -0.00315
 138        9D-2        0.00000   0.00000  -0.00001  -0.00002  -0.00001
                           6         7         8         9        10
     Eigenvalues --     1.96011   1.95673   1.92263   0.06606   0.02821
   1 1   O  1S          0.00389   0.00000   0.00012   0.00008   0.00002
   2        2S          0.00913   0.00001  -0.00034  -0.00024  -0.00006
   3        3S          0.00703   0.00000  -0.00010  -0.00005  -0.00002
   4        4S          0.11798  -0.00001  -0.00033  -0.00025  -0.00011
   5        5S          0.06253  -0.00001   0.00077   0.00015  -0.00006
   6        6PX         0.00006  -0.00128   0.28161  -0.36416   0.00215
   7        6PY         0.00005   0.23975   0.00150  -0.00194  -0.40218
   8        6PZ         0.28214  -0.00003  -0.00007   0.00048   0.00009
   9        7PX         0.00007  -0.00158   0.35439  -0.43372   0.00163
  10        7PY         0.00006   0.29563   0.00189  -0.00232  -0.30510
  11        7PZ         0.34076  -0.00004  -0.00009   0.00066   0.00011
  12        8PX         0.00014  -0.00129   0.23368  -0.08022  -0.00095
  13        8PY         0.00005   0.24155   0.00125  -0.00043   0.17775
  14        8PZ         0.18387  -0.00002   0.00022   0.00019   0.00001
  15        9PX         0.00002  -0.00022   0.02107   0.00302  -0.00053
  16        9PY         0.00001   0.04042   0.00011   0.00002   0.09969
  17        9PZ         0.00375   0.00000  -0.00014  -0.00002   0.00001
  18       10D 0       -0.01200   0.00000   0.00001  -0.00001   0.00001
  19       10D+1        0.00001   0.00001  -0.01005  -0.01302   0.00016
  20       10D-1        0.00000  -0.00094  -0.00005  -0.00007  -0.03079
  21       10D+2       -0.00014   0.00000   0.00000   0.00003   0.00000
  22       10D-2        0.00000   0.00000   0.00000   0.00000   0.00004
  23       11D 0       -0.02907   0.00000   0.00000  -0.00010   0.00000
  24       11D+1        0.00002   0.00001  -0.02824  -0.01208   0.00021
  25       11D-1        0.00000  -0.00221  -0.00015  -0.00006  -0.03980
  26       11D+2       -0.00103   0.00000  -0.00001   0.00006   0.00001
  27       11D-2       -0.00001   0.00002   0.00000   0.00000   0.00007
  28       12D 0       -0.00700   0.00000  -0.00007  -0.00001   0.00000
  29       12D+1       -0.00004   0.00002  -0.01230   0.01571  -0.00008
  30       12D-1        0.00000  -0.00339  -0.00007   0.00008   0.01570
  31       12D+2       -0.00128   0.00000   0.00003   0.00005   0.00000
  32       12D-2       -0.00001  -0.00001   0.00000   0.00000  -0.00021
  33       13F 0        0.00477   0.00000   0.00000   0.00001   0.00000
  34       13F+1       -0.00001   0.00000   0.00505   0.00443  -0.00004
  35       13F-1        0.00000   0.00046   0.00003   0.00002   0.00696
  36       13F+2        0.00118   0.00000   0.00000   0.00000   0.00000
  37       13F-2        0.00001  -0.00001   0.00000   0.00000  -0.00003
  38       13F+3        0.00000  -0.00002   0.00155  -0.00359   0.00003
  39       13F-3        0.00000   0.00125   0.00002  -0.00006  -0.00165
  40       14F 0        0.00652   0.00000   0.00002   0.00002   0.00000
  41       14F+1        0.00000  -0.00001   0.00347  -0.00357   0.00001
  42       14F-1        0.00000   0.00169   0.00002  -0.00002  -0.00200
  43       14F+2        0.00092   0.00000  -0.00001   0.00000   0.00000
  44       14F-2        0.00001   0.00000   0.00000   0.00000   0.00009
  45       14F+3        0.00000   0.00000   0.00121  -0.00307   0.00004
  46       14F-3        0.00000  -0.00005   0.00002  -0.00005  -0.00272
  47 2   C  1S          0.01558   0.00001  -0.00050  -0.00066  -0.00006
  48        2S         -0.03050  -0.00002   0.00142   0.00218   0.00021
  49        3S         -0.00943   0.00000   0.00033   0.00083   0.00009
  50        4S          0.10649  -0.00002   0.00265   0.00137   0.00006
  51        5S          0.00016   0.00000  -0.00005  -0.00010   0.00002
  52        6PX        -0.00043   0.00088   0.18995   0.31083  -0.00179
  53        6PY        -0.00002  -0.16522   0.00101   0.00166   0.33494
  54        6PZ        -0.23935   0.00003  -0.00040  -0.00081   0.00001
  55        7PX        -0.00040   0.00123   0.24855   0.48078  -0.00343
  56        7PY        -0.00002  -0.23092   0.00133   0.00257   0.64160
  57        7PZ        -0.25362   0.00004  -0.00042  -0.00091   0.00006
  58        8PX        -0.00033   0.00135   0.12409   0.18975  -0.00182
  59        8PY        -0.00003  -0.25301   0.00066   0.00101   0.34134
  60        8PZ        -0.08510   0.00001  -0.00063  -0.00035   0.00005
  61        9PX         0.00000   0.00012   0.00177   0.00333   0.00020
  62        9PY         0.00000  -0.02290   0.00001   0.00002  -0.03774
  63        9PZ        -0.00184   0.00000   0.00001   0.00000   0.00000
  64       10D 0       -0.01909   0.00000  -0.00001  -0.00004   0.00000
  65       10D+1        0.00003  -0.00018   0.01985  -0.00029  -0.00020
  66       10D-1        0.00001   0.03304   0.00011   0.00000   0.03779
  67       10D+2       -0.00603   0.00000   0.00001   0.00011   0.00000
  68       10D-2       -0.00006   0.00014   0.00000   0.00000   0.00018
  69       11D 0       -0.01214   0.00000  -0.00007  -0.00010   0.00001
  70       11D+1        0.00003  -0.00044   0.02957   0.03797  -0.00016
  71       11D-1        0.00001   0.08294   0.00016   0.00020   0.02932
  72       11D+2       -0.00595   0.00000  -0.00010   0.00017   0.00001
  73       11D-2       -0.00006   0.00040   0.00000   0.00000  -0.00055
  74       12D 0        0.00088   0.00000  -0.00062  -0.00007   0.00001
  75       12D+1        0.00007  -0.00036  -0.00411   0.00924  -0.00018
  76       12D-1        0.00001   0.06727  -0.00002   0.00005   0.03316
  77       12D+2       -0.00557   0.00000  -0.00048  -0.00016   0.00000
  78       12D-2       -0.00006   0.00033  -0.00001   0.00000  -0.00017
  79       13F 0       -0.00738   0.00000   0.00001  -0.00003   0.00000
  80       13F+1        0.00000  -0.00002   0.00684   0.00923  -0.00013
  81       13F-1        0.00000   0.00422   0.00004   0.00005   0.02422
  82       13F+2       -0.00152   0.00000   0.00001   0.00005   0.00000
  83       13F-2       -0.00002  -0.00003   0.00000   0.00000   0.00005
  84       13F+3       -0.00001  -0.00004   0.00023  -0.00114   0.00006
  85       13F-3        0.00000   0.00254   0.00000  -0.00002  -0.00379
  86       14F 0        0.01011   0.00000   0.00004   0.00001   0.00000
  87       14F+1       -0.00001  -0.00003   0.00468   0.01663  -0.00056
  88       14F-1        0.00000   0.00515   0.00002   0.00009   0.10437
  89       14F+2        0.00653   0.00000   0.00006   0.00006  -0.00001
  90       14F-2        0.00007  -0.00012   0.00000   0.00000   0.00063
  91       14F+3       -0.00002  -0.00009   0.00232   0.00617  -0.00010
  92       14F-3        0.00000   0.00578   0.00004   0.00010   0.00595
  93 3   H  1S          0.07150  -0.13569   0.00002  -0.00077  -0.15140
  94        2S          0.10048  -0.17072  -0.00021  -0.00102  -0.55450
  95        3S          0.00583   0.08152  -0.00099  -0.00019  -0.47498
  96        4S          0.00026   0.00958   0.00001   0.00003   0.00590
  97        5PX         0.00008  -0.00009   0.00342   0.01209   0.00014
  98        5PY        -0.00798   0.00685   0.00003   0.00015  -0.00498
  99        5PZ         0.00164  -0.00485  -0.00002  -0.00008   0.01784
 100        6PX         0.00009   0.00003   0.01016   0.02420  -0.00089
 101        6PY        -0.01318  -0.00735   0.00005   0.00009   0.13176
 102        6PZ         0.00173   0.00456  -0.00009  -0.00009   0.02438
 103        7PX        -0.00001   0.00045  -0.00409  -0.00698  -0.00079
 104        7PY         0.00411  -0.04229  -0.00015  -0.00013   0.08712
 105        7PZ        -0.00297   0.02027  -0.00054  -0.00004  -0.02983
 106        8D 0       -0.00208   0.00047  -0.00001  -0.00004   0.00986
 107        8D+1        0.00001  -0.00001   0.00118   0.00378   0.00017
 108        8D-1       -0.00145   0.00100   0.00002   0.00006  -0.00801
 109        8D+2       -0.00215   0.00072   0.00002   0.00011   0.00439
 110        8D-2       -0.00004   0.00002  -0.00127  -0.00596   0.00004
 111        9D 0        0.00382  -0.00251  -0.00001   0.00000   0.00918
 112        9D+1        0.00000   0.00000   0.00138   0.00158  -0.00001
 113        9D-1        0.00019   0.00018   0.00001  -0.00003   0.01753
 114        9D+2       -0.00224  -0.00141  -0.00006  -0.00008   0.01766
 115        9D-2       -0.00005  -0.00001   0.00102   0.00374   0.00042
 116 4   H  1S          0.07153   0.13566   0.00002  -0.00077   0.15129
 117        2S          0.10053   0.17066  -0.00021  -0.00102   0.55432
 118        3S          0.00580  -0.08154  -0.00099  -0.00019   0.47498
 119        4S          0.00026  -0.00958   0.00001   0.00003  -0.00590
 120        5PX        -0.00001   0.00001   0.00342   0.01210  -0.00008
 121        5PY         0.00798   0.00685   0.00001  -0.00002  -0.00498
 122        5PZ         0.00164   0.00485  -0.00002  -0.00008  -0.01784
 123        6PX        -0.00005   0.00004   0.01016   0.02420  -0.00052
 124        6PY         0.01318  -0.00735   0.00006   0.00017   0.13176
 125        6PZ         0.00173  -0.00456  -0.00009  -0.00009  -0.02437
 126        7PX         0.00003   0.00000  -0.00410  -0.00699  -0.00014
 127        7PY        -0.00412  -0.04229   0.00010   0.00005   0.08712
 128        7PZ        -0.00298  -0.02027  -0.00054  -0.00004   0.02986
 129        8D 0       -0.00209  -0.00046  -0.00001  -0.00004  -0.00986
 130        8D+1        0.00000   0.00000   0.00118   0.00378  -0.00008
 131        8D-1        0.00145   0.00100  -0.00001  -0.00002  -0.00801
 132        8D+2       -0.00215  -0.00072  -0.00001  -0.00002  -0.00439
 133        8D-2        0.00000   0.00001   0.00127   0.00596  -0.00006
 134        9D 0        0.00382   0.00251  -0.00001   0.00000  -0.00917
 135        9D+1        0.00000  -0.00001   0.00138   0.00158  -0.00017
 136        9D-1       -0.00019   0.00018   0.00001   0.00005   0.01753
 137        9D+2       -0.00224   0.00141  -0.00003   0.00000  -0.01766
 138        9D-2        0.00000   0.00002  -0.00102  -0.00375   0.00005
                          11        12        13        14        15
     Eigenvalues --     0.02651   0.02014   0.01203   0.01188   0.00761
   1 1   O  1S         -0.07234  -0.02662   0.00008  -0.23659   0.00000
   2        2S          0.28233   0.11508  -0.00026   0.74352   0.00000
   3        3S          0.10870   0.05025  -0.00022   0.63293   0.00000
   4        4S          0.61170   0.39254   0.00046  -1.37307   0.00001
   5        5S          0.36862   0.27716   0.00019  -0.58903   0.00001
   6        6PX        -0.00088   0.00105  -0.00236   0.00010  -0.00074
   7        6PY        -0.00011   0.00009   0.44257   0.00016   0.13774
   8        6PZ        -0.43823  -0.11912  -0.00009   0.26258   0.00000
   9        7PX        -0.00077   0.00104  -0.00105   0.00001  -0.00016
  10        7PY        -0.00008   0.00006   0.19602   0.00007   0.02954
  11        7PZ        -0.52516  -0.17801  -0.00002   0.06810   0.00000
  12        8PX         0.00015  -0.00002   0.00222  -0.00087   0.00103
  13        8PY         0.00005  -0.00004  -0.41543  -0.00015  -0.19223
  14        8PZ        -0.11336  -0.18787   0.00005  -0.11869   0.00000
  15        9PX         0.00007  -0.00004   0.00033  -0.00010   0.00024
  16        9PY         0.00002  -0.00002  -0.06185  -0.00002  -0.04545
  17        9PZ        -0.04051  -0.05371  -0.00001   0.04161   0.00000
  18       10D 0       -0.03057  -0.02191   0.00000   0.00608  -0.00001
  19       10D+1       -0.00005   0.00024   0.00005  -0.00004   0.00111
  20       10D-1       -0.00001   0.00001  -0.00981   0.00000  -0.20827
  21       10D+2       -0.01025   0.00263   0.00001  -0.02473   0.00000
  22       10D-2       -0.00011   0.00003   0.00008  -0.00026  -0.00003
  23       11D 0       -0.01654  -0.03286   0.00001  -0.03109  -0.00002
  24       11D+1       -0.00012   0.00044   0.00040  -0.00019   0.00273
  25       11D-1       -0.00001   0.00001  -0.07504  -0.00003  -0.51217
  26       11D+2       -0.02068   0.00989  -0.00001   0.00064  -0.00001
  27       11D-2       -0.00022   0.00011   0.00019   0.00001  -0.00001
  28       12D 0       -0.00040   0.02910   0.00001  -0.02961   0.00000
  29       12D+1        0.00010  -0.00003   0.00008   0.00015   0.00066
  30       12D-1        0.00001  -0.00001  -0.01416  -0.00001  -0.12303
  31       12D+2       -0.00908   0.00197   0.00000   0.00845   0.00000
  32       12D-2       -0.00010   0.00002  -0.00011   0.00009   0.00021
  33       13F 0       -0.00019   0.00445   0.00000  -0.00248   0.00000
  34       13F+1        0.00002  -0.00005  -0.00007   0.00003  -0.00019
  35       13F-1        0.00000   0.00000   0.01290   0.00000   0.03480
  36       13F+2       -0.00076  -0.00161   0.00000   0.00028   0.00000
  37       13F-2       -0.00001  -0.00002  -0.00001   0.00000   0.00000
  38       13F+3        0.00001   0.00000   0.00004   0.00001   0.00001
  39       13F-3        0.00000   0.00000  -0.00273   0.00000  -0.00034
  40       14F 0        0.00813   0.01024  -0.00001   0.01843   0.00000
  41       14F+1        0.00004  -0.00002  -0.00004   0.00000  -0.00041
  42       14F-1        0.00000   0.00000   0.00724   0.00000   0.07591
  43       14F+2        0.00044  -0.00562   0.00000   0.00731   0.00000
  44       14F-2        0.00000  -0.00006  -0.00007   0.00008  -0.00011
  45       14F+3       -0.00005   0.00000  -0.00028  -0.00005  -0.00003
  46       14F-3        0.00000   0.00000   0.01755   0.00001   0.00213
  47 2   C  1S          0.16612  -0.11339   0.00001  -0.00100   0.00000
  48        2S         -0.61925   0.44657  -0.00007   0.07005   0.00002
  49        3S         -0.25745   0.25738  -0.00006   0.06773   0.00001
  50        4S         -0.21243   0.07140   0.00003  -0.12270   0.00005
  51        5S         -0.11021  -0.09435  -0.00003   0.11482   0.00000
  52        6PX         0.00077  -0.00200  -0.00222   0.00020   0.00067
  53        6PY         0.00009  -0.00004   0.41502   0.00015  -0.12500
  54        6PZ        -0.23593  -0.40696   0.00003  -0.01526  -0.00002
  55        7PX         0.00060  -0.00358  -0.00419   0.00070   0.00089
  56        7PY         0.00014  -0.00005   0.78570   0.00029  -0.16644
  57        7PZ        -0.56624  -0.71565  -0.00001   0.12807   0.00001
  58        8PX         0.00027  -0.00145  -0.00308   0.00090  -0.00038
  59        8PY         0.00007  -0.00001   0.57766   0.00020   0.07113
  60        8PZ        -0.30597  -0.22994  -0.00008   0.27667  -0.00001
  61        9PX         0.00003   0.00008  -0.00026  -0.00007   0.00000
  62        9PY        -0.00001   0.00001   0.04898   0.00002  -0.00032
  63        9PZ        -0.01362  -0.00777  -0.00001   0.02004   0.00000
  64       10D 0        0.01794   0.01403   0.00000   0.01232  -0.00001
  65       10D+1        0.00009  -0.00020   0.00054   0.00013  -0.00131
  66       10D-1        0.00001  -0.00002  -0.10078  -0.00003   0.24523
  67       10D+2       -0.00545   0.01447   0.00001  -0.02746  -0.00002
  68       10D-2       -0.00006   0.00015   0.00016  -0.00029   0.00075
  69       11D 0       -0.09221  -0.06806   0.00000  -0.01466  -0.00001
  70       11D+1        0.00055  -0.00001   0.00306   0.00006  -0.00050
  71       11D-1        0.00003  -0.00005  -0.57283  -0.00021   0.09289
  72       11D+2       -0.07486  -0.03410   0.00003  -0.02118  -0.00003
  73       11D-2       -0.00080  -0.00036  -0.00232  -0.00023   0.00087
  74       12D 0       -0.06557  -0.03669  -0.00004   0.10550  -0.00001
  75       12D+1       -0.00011  -0.00003   0.00105   0.00029   0.00083
  76       12D-1        0.00001  -0.00002  -0.19689  -0.00007  -0.15572
  77       12D+2       -0.02094  -0.02569  -0.00001   0.05761  -0.00001
  78       12D-2       -0.00022  -0.00027  -0.00073   0.00061  -0.00010
  79       13F 0       -0.00867  -0.01556   0.00000  -0.00023   0.00000
  80       13F+1       -0.00004  -0.00017   0.00004   0.00000  -0.00004
  81       13F-1        0.00001   0.00000  -0.00784   0.00000   0.00789
  82       13F+2       -0.00008   0.01063   0.00000  -0.00089   0.00000
  83       13F-2        0.00000   0.00011   0.00012  -0.00001  -0.00038
  84       13F+3        0.00005  -0.00008   0.00040   0.00001  -0.00028
  85       13F-3        0.00000   0.00000  -0.02474  -0.00001   0.01771
  86       14F 0       -0.00122  -0.00293   0.00001  -0.03152   0.00000
  87       14F+1        0.00036  -0.00007   0.00067   0.00022   0.00047
  88       14F-1        0.00003  -0.00002  -0.12568  -0.00005  -0.08877
  89       14F+2        0.01742   0.01249  -0.00001  -0.01393   0.00001
  90       14F-2        0.00019   0.00013   0.00115  -0.00015  -0.00047
  91       14F+3        0.00028   0.00026   0.00141   0.00029  -0.00018
  92       14F-3        0.00001   0.00000  -0.08785  -0.00003   0.01151
  93 3   H  1S          0.10382  -0.24024  -0.09481   0.06091  -0.12350
  94        2S          0.05746  -0.62656  -0.87758   0.14155   0.07523
  95        3S         -0.09202  -0.19398  -0.74302   0.19069   0.06712
  96        4S          0.00673   0.00751  -0.03615  -0.00599   0.01453
  97        5PX         0.00009   0.00011   0.00056   0.00020  -0.00068
  98        5PY        -0.00248  -0.02397  -0.03314  -0.01328   0.06434
  99        5PZ        -0.01249  -0.00806   0.01750   0.00785  -0.01244
 100        6PX        -0.00024  -0.00078  -0.00122   0.00087  -0.00090
 101        6PY         0.02498   0.05317   0.12948  -0.04460   0.07774
 102        6PZ        -0.06645  -0.07752  -0.17551   0.02854  -0.01706
 103        7PX        -0.00039  -0.00032  -0.00192   0.00058  -0.00077
 104        7PY         0.01739   0.02033   0.15317  -0.01074   0.05787
 105        7PZ        -0.05281  -0.03668  -0.09571   0.09795   0.02930
 106        8D 0       -0.00336  -0.01115  -0.00619  -0.00263   0.01821
 107        8D+1       -0.00007  -0.00005   0.00011   0.00010  -0.00003
 108        8D-1        0.00830  -0.00276  -0.00657  -0.00567   0.00596
 109        8D+2       -0.00034  -0.00993  -0.01198  -0.00691   0.01605
 110        8D-2       -0.00003  -0.00018  -0.00037  -0.00020   0.00039
 111        9D 0       -0.00547  -0.00074   0.00782  -0.00681   0.02266
 112        9D+1       -0.00012  -0.00017  -0.00055   0.00040  -0.00015
 113        9D-1        0.01996   0.01496   0.01566  -0.01991   0.00962
 114        9D+2       -0.00019   0.00874   0.00712  -0.00318   0.01826
 115        9D-2        0.00012   0.00018  -0.00003  -0.00003   0.00039
 116 4   H  1S          0.10389  -0.24028   0.09480   0.06098   0.12352
 117        2S          0.05768  -0.62662   0.87758   0.14218  -0.07531
 118        3S         -0.09183  -0.19401   0.74293   0.19120  -0.06717
 119        4S          0.00673   0.00752   0.03615  -0.00596  -0.01453
 120        5PX         0.00006  -0.00015  -0.00020   0.00006   0.00000
 121        5PY         0.00248   0.02397  -0.03317   0.01326   0.06434
 122        5PZ        -0.01250  -0.00806  -0.01751   0.00784   0.01245
 123        6PX         0.00002  -0.00021  -0.00017   0.00040   0.00007
 124        6PY        -0.02493  -0.05318   0.12945   0.04470   0.07773
 125        6PZ        -0.06648  -0.07748   0.17550   0.02868   0.01707
 126        7PX        -0.00020  -0.00010   0.00028   0.00047   0.00015
 127        7PY        -0.01736  -0.02032   0.15317   0.01084   0.05787
 128        7PZ        -0.05280  -0.03667   0.09564   0.09803  -0.02932
 129        8D 0       -0.00336  -0.01115   0.00619  -0.00262  -0.01820
 130        8D+1        0.00002  -0.00008  -0.00004   0.00004  -0.00004
 131        8D-1       -0.00831   0.00276  -0.00658   0.00567   0.00596
 132        8D+2       -0.00034  -0.00994   0.01200  -0.00690  -0.01605
 133        8D-2        0.00002  -0.00003  -0.00012   0.00005   0.00005
 134        9D 0       -0.00548  -0.00074  -0.00781  -0.00682  -0.02266
 135        9D+1        0.00009  -0.00001   0.00038   0.00019   0.00005
 136        9D-1       -0.01996  -0.01496   0.01564   0.01992   0.00962
 137        9D+2       -0.00019   0.00874  -0.00711  -0.00319  -0.01827
 138        9D-2       -0.00012   0.00000  -0.00018  -0.00004   0.00000
                          16        17        18        19        20
     Eigenvalues --     0.00747   0.00719   0.00707   0.00701   0.00600
   1 1   O  1S         -0.01318  -0.00017   0.00000  -0.02435   0.00005
   2        2S          0.02399   0.00032   0.00000   0.05439  -0.00044
   3        3S          0.03627   0.00054   0.00000   0.07457  -0.00025
   4        4S         -0.08152  -0.00025   0.00000  -0.19455   0.00114
   5        5S          0.11374  -0.00340   0.00000  -0.11928   0.00525
   6        6PX        -0.00041   0.21100   0.00003  -0.00322  -0.45104
   7        6PY         0.00000   0.00113  -0.00029  -0.00002  -0.00241
   8        6PZ        -0.05961   0.00179   0.00000   0.14208  -0.00020
   9        7PX         0.00000   0.09814   0.00001  -0.00127  -0.16251
  10        7PY         0.00000   0.00052  -0.00013  -0.00001  -0.00087
  11        7PZ         0.01337   0.00031   0.00000   0.01961   0.00006
  12        8PX         0.00029  -0.38910  -0.00007   0.00612   0.54033
  13        8PY        -0.00001  -0.00208   0.00254   0.00003   0.00288
  14        8PZ         0.20345  -0.00469   0.00000  -0.26029   0.00120
  15        9PX         0.00004  -0.08168  -0.00001   0.00115   0.08357
  16        9PY         0.00000  -0.00044   0.00007   0.00001   0.00045
  17        9PZ         0.00044   0.00037   0.00000  -0.01060  -0.00109
  18       10D 0        0.20608  -0.00131   0.00000  -0.06877  -0.00025
  19       10D+1       -0.00021  -0.19788  -0.00003   0.00308  -0.09708
  20       10D-1       -0.00001  -0.00106   0.00046   0.00001  -0.00052
  21       10D+2        0.04525   0.00226  -0.00210   0.16681   0.00009
  22       10D-2        0.00048   0.00000   0.19697   0.00178   0.00000
  23       11D 0        0.45259  -0.00300   0.00000  -0.15553  -0.00066
  24       11D+1       -0.00069  -0.46951  -0.00008   0.00707  -0.18986
  25       11D-1       -0.00003  -0.00251   0.00112   0.00003  -0.00101
  26       11D+2        0.09062   0.00546  -0.00463   0.39425   0.00016
  27       11D-2        0.00097   0.00000   0.43382   0.00421  -0.00001
  28       12D 0        0.05838   0.00052   0.00000   0.04681  -0.00056
  29       12D+1        0.00009  -0.00484   0.00000   0.00004  -0.07186
  30       12D-1        0.00000  -0.00003  -0.00087   0.00000  -0.00038
  31       12D+2        0.01619   0.00139  -0.00081   0.10267   0.00017
  32       12D-2        0.00017   0.00000   0.07609   0.00110   0.00000
  33       13F 0       -0.03840   0.00027   0.00000   0.01598   0.00003
  34       13F+1        0.00006   0.04901   0.00001  -0.00072  -0.00698
  35       13F-1        0.00000   0.00026  -0.00015   0.00000  -0.00004
  36       13F+2       -0.00586  -0.00027   0.00026  -0.02064  -0.00003
  37       13F-2       -0.00006   0.00000  -0.02457  -0.00022   0.00000
  38       13F+3        0.00001  -0.00641   0.00000   0.00004   0.01596
  39       13F-3        0.00000  -0.00010  -0.00001   0.00000   0.00026
  40       14F 0       -0.07149   0.00035   0.00000   0.01104   0.00021
  41       14F+1        0.00011   0.05431   0.00001  -0.00086   0.02560
  42       14F-1        0.00000   0.00029  -0.00020   0.00000   0.00014
  43       14F+2       -0.00692  -0.00073   0.00049  -0.05046  -0.00014
  44       14F-2       -0.00007   0.00000  -0.04622  -0.00054   0.00000
  45       14F+3        0.00002   0.00814   0.00000   0.00005  -0.01044
  46       14F-3        0.00000   0.00013  -0.00003   0.00000  -0.00017
  47 2   C  1S         -0.05986   0.00103   0.00000   0.09160  -0.00023
  48        2S          0.15693  -0.00255   0.00000  -0.28449   0.00113
  49        3S          0.10993  -0.00217   0.00000  -0.25489   0.00082
  50        4S          0.11367  -0.02728   0.00000  -0.60506   0.01647
  51        5S         -0.01584  -0.00284   0.00000  -0.07651   0.00014
  52        6PX         0.00022   0.25615   0.00004  -0.00334  -0.19771
  53        6PY        -0.00001   0.00137  -0.00122  -0.00002  -0.00106
  54        6PZ         0.24672  -0.00041   0.00000   0.05311  -0.00050
  55        7PX        -0.00149   0.14277   0.00002  -0.00086  -0.33481
  56        7PY        -0.00005   0.00076   0.00109   0.00002  -0.00179
  57        7PZ        -0.25881   0.00327   0.00000   0.21116   0.00006
  58        8PX         0.00005  -0.13702   0.00003   0.00395   0.09777
  59        8PY         0.00001  -0.00073  -0.00769   0.00007   0.00052
  60        8PZ        -0.08522   0.00698   0.00000   0.29573  -0.00214
  61        9PX         0.00009   0.02421   0.00001  -0.00027  -0.01884
  62        9PY         0.00000   0.00013  -0.00059   0.00000  -0.00010
  63        9PZ         0.00593   0.00024   0.00000   0.02306   0.00013
  64       10D 0        0.21950  -0.00053   0.00000  -0.02811  -0.00054
  65       10D+1        0.00063   0.18780   0.00003  -0.00278   0.20968
  66       10D-1        0.00002   0.00100  -0.00063  -0.00001   0.00112
  67       10D+2        0.05817   0.00334  -0.00262   0.22278   0.00034
  68       10D-2        0.00062   0.00000   0.24577   0.00238   0.00001
  69       11D 0        0.15117   0.00105   0.00000   0.03988  -0.00182
  70       11D+1        0.00083   0.03249   0.00000  -0.00123   0.30918
  71       11D-1        0.00002   0.00017  -0.00019  -0.00002   0.00165
  72       11D+2        0.02301   0.00752  -0.00332   0.42180  -0.00165
  73       11D-2        0.00025   0.00002   0.31157   0.00450  -0.00002
  74       12D 0       -0.03285   0.00293   0.00000   0.08298  -0.00495
  75       12D+1       -0.00041   0.00616  -0.00001  -0.00017  -0.04938
  76       12D-1       -0.00001   0.00003   0.00081  -0.00001  -0.00026
  77       12D+2       -0.01705   0.00282  -0.00010   0.07323  -0.00355
  78       12D-2       -0.00018   0.00003   0.00977   0.00078  -0.00004
  79       13F 0        0.05545  -0.00080   0.00000  -0.05231   0.00020
  80       13F+1       -0.00026   0.04185   0.00000  -0.00061  -0.00541
  81       13F-1        0.00000   0.00022   0.00028   0.00000  -0.00003
  82       13F+2        0.01768   0.00004  -0.00009   0.00109  -0.00020
  83       13F-2        0.00019   0.00000   0.00814   0.00001   0.00000
  84       13F+3        0.00001  -0.00090   0.00000  -0.00029   0.04767
  85       13F-3        0.00000  -0.00001  -0.00029   0.00000   0.00076
  86       14F 0       -0.04506  -0.00186   0.00000  -0.08943   0.00129
  87       14F+1       -0.00015  -0.06461  -0.00001   0.00042   0.03630
  88       14F-1        0.00000  -0.00034  -0.00105   0.00001   0.00019
  89       14F+2       -0.02484  -0.00219   0.00010  -0.11012   0.00096
  90       14F-2       -0.00027  -0.00002  -0.00960  -0.00118   0.00001
  91       14F+3       -0.00001  -0.05939  -0.00001  -0.00004   0.03754
  92       14F-3        0.00000  -0.00095   0.00012   0.00000   0.00060
  93 3   H  1S         -0.03468  -0.00112  -0.00108  -0.09550   0.00129
  94        2S         -0.08774   0.01027   0.00176   0.47166  -0.00560
  95        3S         -0.06418   0.01288   0.00939   0.42119  -0.00970
  96        4S          0.00031   0.00042   0.00043   0.01414  -0.00005
  97        5PX        -0.00029  -0.01874   0.07000  -0.00069  -0.06432
  98        5PY         0.00046   0.00010   0.00104   0.03253  -0.00111
  99        5PZ        -0.05630  -0.00072  -0.00062  -0.04879   0.00044
 100        6PX        -0.00094  -0.14804   0.11728   0.00255  -0.04294
 101        6PY         0.05693  -0.00276   0.00128  -0.07278  -0.00028
 102        6PZ        -0.14791   0.00131  -0.00161   0.00650  -0.00101
 103        7PX        -0.00060  -0.05074   0.00413   0.00155  -0.00147
 104        7PY         0.01904  -0.00169  -0.00148  -0.05192  -0.00061
 105        7PZ        -0.07245   0.00340   0.00065   0.06609  -0.00451
 106        8D 0       -0.01339  -0.00025  -0.00027  -0.01564  -0.00005
 107        8D+1       -0.00043  -0.00362   0.02586  -0.00038  -0.01141
 108        8D-1        0.02842   0.00018   0.00058   0.01442  -0.00032
 109        8D+2       -0.00068  -0.00022   0.00095   0.01049  -0.00092
 110        8D-2        0.00010   0.01659  -0.03825   0.00025   0.03304
 111        9D 0       -0.02206   0.00015  -0.00016  -0.01331  -0.00010
 112        9D+1       -0.00041  -0.05652   0.00198   0.00064   0.03464
 113        9D-1        0.02787  -0.00075   0.00058  -0.00926   0.00058
 114        9D+2        0.02222  -0.00023   0.00036   0.01929  -0.00026
 115        9D-2        0.00049   0.02881  -0.00611  -0.00033  -0.01350
 116 4   H  1S         -0.03467  -0.00112   0.00108  -0.09550   0.00129
 117        2S         -0.08781   0.01027  -0.00175   0.47174  -0.00560
 118        3S         -0.06420   0.01288  -0.00939   0.42132  -0.00970
 119        4S          0.00030   0.00042  -0.00042   0.01414  -0.00005
 120        5PX        -0.00028  -0.01872  -0.07001  -0.00034  -0.06433
 121        5PY        -0.00045  -0.00030   0.00029  -0.03253   0.00042
 122        5PZ        -0.05630  -0.00072   0.00062  -0.04879   0.00044
 123        6PX        -0.00034  -0.14804  -0.11733   0.00178  -0.04294
 124        6PY        -0.05695   0.00118   0.00003   0.07283  -0.00018
 125        6PZ        -0.14793   0.00131   0.00161   0.00652  -0.00101
 126        7PX        -0.00040  -0.05075  -0.00413   0.00100  -0.00148
 127        7PY        -0.01904   0.00115  -0.00152   0.05197   0.00059
 128        7PZ        -0.07246   0.00340  -0.00065   0.06611  -0.00451
 129        8D 0       -0.01339  -0.00025   0.00027  -0.01564  -0.00005
 130        8D+1       -0.00013  -0.00361  -0.02586  -0.00023  -0.01141
 131        8D-1       -0.02843  -0.00022   0.00030  -0.01442   0.00020
 132        8D+2       -0.00068   0.00013  -0.00013   0.01049  -0.00021
 133        8D-2       -0.00011  -0.01658  -0.03827  -0.00003  -0.03305
 134        9D 0       -0.02207   0.00015   0.00016  -0.01331  -0.00010
 135        9D+1       -0.00011  -0.05653  -0.00200   0.00054   0.03464
 136        9D-1       -0.02788   0.00015   0.00056   0.00927  -0.00021
 137        9D+2        0.02222   0.00039  -0.00023   0.01927  -0.00054
 138        9D-2       -0.00002  -0.02881  -0.00613   0.00074   0.01349
                          21        22        23        24        25
     Eigenvalues --     0.00519   0.00484   0.00337   0.00283   0.00252
   1 1   O  1S         -0.00848   0.00000   0.00000   0.11749   0.00020
   2        2S          0.02003   0.00000  -0.00001  -0.33079  -0.00050
   3        3S          0.00564   0.00000   0.00000  -0.37466  -0.00074
   4        4S          0.38781   0.00000  -0.00001  -0.28432   0.00132
   5        5S          0.12918   0.00000  -0.00001  -0.50677  -0.00319
   6        6PX         0.00068  -0.00001  -0.00102   0.00080  -0.14870
   7        6PY         0.00001  -0.00001   0.19042   0.00000  -0.00079
   8        6PZ        -0.20201   0.00000   0.00001   0.36597  -0.00088
   9        7PX         0.00005   0.00000   0.00023  -0.00031   0.03675
  10        7PY         0.00000   0.00003  -0.04321   0.00000   0.00020
  11        7PZ        -0.04821   0.00000   0.00000   0.08601   0.00079
  12        8PX        -0.00170   0.00000   0.00381  -0.00192  -0.41027
  13        8PY         0.00000   0.00060  -0.71371   0.00000  -0.00219
  14        8PZ         0.01450   0.00000  -0.00001  -0.24619  -0.00016
  15        9PX        -0.00026   0.00000   0.00024  -0.00013  -0.06556
  16        9PY         0.00000   0.00001  -0.04417   0.00000  -0.00035
  17        9PZ        -0.01818   0.00000   0.00000   0.06493   0.00072
  18       10D 0        0.06005   0.00000   0.00000  -0.17061  -0.00057
  19       10D+1        0.00012   0.00001  -0.00161   0.00001   0.33041
  20       10D-1        0.00000  -0.00122   0.30128  -0.00001   0.00176
  21       10D+2        0.26020  -0.00293  -0.00001   0.08073  -0.00105
  22       10D-2        0.00278   0.27397   0.00128   0.00086  -0.00002
  23       11D 0        0.13369   0.00000   0.00000  -0.34735  -0.00087
  24       11D+1        0.00034   0.00002  -0.00247   0.00010   0.55301
  25       11D-1        0.00001  -0.00248   0.46189  -0.00001   0.00295
  26       11D+2        0.50811  -0.00549  -0.00002   0.06106  -0.00171
  27       11D-2        0.00543   0.51413   0.00236   0.00065  -0.00002
  28       12D 0        0.02218   0.00000   0.00000   0.03855  -0.00013
  29       12D+1        0.00026   0.00000  -0.00095   0.00028   0.18819
  30       12D-1        0.00000  -0.00031   0.17748   0.00000   0.00100
  31       12D+2        0.07461  -0.00105  -0.00002  -0.07675  -0.00048
  32       12D-2        0.00080   0.09814   0.00158  -0.00082  -0.00001
  33       13F 0       -0.01204   0.00000   0.00000   0.00778  -0.00017
  34       13F+1        0.00000   0.00000  -0.00002  -0.00001   0.03196
  35       13F-1        0.00000   0.00015   0.00452   0.00000   0.00017
  36       13F+2       -0.01253   0.00000   0.00000  -0.00055  -0.00008
  37       13F-2       -0.00013  -0.00021   0.00017  -0.00001   0.00000
  38       13F+3        0.00000   0.00000   0.00002   0.00007  -0.01051
  39       13F-3        0.00000  -0.00001  -0.00139   0.00000  -0.00017
  40       14F 0       -0.01118   0.00000   0.00000   0.02254   0.00009
  41       14F+1        0.00000   0.00000   0.00011   0.00003  -0.02263
  42       14F-1        0.00000   0.00032  -0.01983   0.00000  -0.00012
  43       14F+2       -0.03482   0.00026   0.00001   0.03881   0.00011
  44       14F-2       -0.00037  -0.02466  -0.00059   0.00041   0.00000
  45       14F+3       -0.00013   0.00000   0.00004  -0.00013  -0.01599
  46       14F-3        0.00000   0.00008  -0.00237   0.00000  -0.00026
  47 2   C  1S         -0.03662   0.00000   0.00000  -0.04234  -0.00074
  48        2S          0.12387   0.00000   0.00000   0.16591   0.00251
  49        3S          0.11657   0.00000   0.00000   0.15672   0.00325
  50        4S         -0.23662   0.00000   0.00000  -0.21648  -0.01591
  51        5S         -0.07835   0.00000   0.00001   0.05226  -0.00146
  52        6PX         0.00017   0.00000  -0.00066  -0.00070   0.51115
  53        6PY         0.00001   0.00034   0.12360   0.00000   0.00273
  54        6PZ        -0.15063   0.00000   0.00001   0.23764  -0.00017
  55        7PX         0.00006   0.00000  -0.00165  -0.00019   0.40952
  56        7PY         0.00001  -0.00153   0.30888  -0.00002   0.00219
  57        7PZ        -0.26339   0.00000   0.00000   0.16518  -0.00009
  58        8PX        -0.00059   0.00001  -0.00793   0.00092   0.14324
  59        8PY        -0.00005  -0.00259   1.48511  -0.00006   0.00076
  60        8PZ        -0.09907   0.00000   0.00002   0.71122   0.00504
  61        9PX        -0.00005   0.00000  -0.00014  -0.00015   0.01430
  62        9PY         0.00000   0.00022   0.02576   0.00000   0.00008
  63        9PZ        -0.00362   0.00000   0.00000   0.03443   0.00008
  64       10D 0       -0.08334   0.00000   0.00001   0.28359   0.00003
  65       10D+1       -0.00023  -0.00001  -0.00050   0.00002   0.18112
  66       10D-1        0.00000   0.00073   0.09375   0.00000   0.00097
  67       10D+2       -0.11496   0.00220   0.00002  -0.05278   0.00148
  68       10D-2       -0.00123  -0.20582  -0.00126  -0.00056   0.00003
  69       11D 0       -0.21707   0.00000   0.00001   0.52530  -0.00015
  70       11D+1        0.00030   0.00002  -0.00155   0.00061   0.37504
  71       11D-1        0.00000  -0.00059   0.28961   0.00000   0.00200
  72       11D+2       -0.24509   0.00277   0.00001  -0.10690   0.00234
  73       11D-2       -0.00262  -0.25920  -0.00178  -0.00114   0.00003
  74       12D 0       -0.00853   0.00000   0.00000   0.24437   0.00132
  75       12D+1        0.00045   0.00000   0.00085   0.00067   0.03750
  76       12D-1        0.00001   0.00117  -0.15845   0.00002   0.00020
  77       12D+2        0.03585  -0.00046   0.00002   0.15753   0.00155
  78       12D-2        0.00038   0.04353  -0.00307   0.00168   0.00001
  79       13F 0        0.06628   0.00000   0.00000  -0.03648   0.00037
  80       13F+1        0.00018   0.00000   0.00120  -0.00074  -0.00662
  81       13F-1        0.00000   0.00020  -0.22528   0.00000  -0.00004
  82       13F+2        0.09262  -0.00110   0.00001   0.07314   0.00032
  83       13F-2        0.00099   0.10280  -0.00068   0.00078   0.00000
  84       13F+3        0.00049   0.00000   0.00004   0.00004   0.03782
  85       13F-3        0.00001   0.00050  -0.00267   0.00000   0.00061
  86       14F 0        0.05352   0.00000   0.00000   0.18187   0.00088
  87       14F+1        0.00053   0.00000  -0.00008   0.00056   0.09177
  88       14F-1       -0.00001   0.00033   0.01556   0.00000   0.00049
  89       14F+2        0.07738  -0.00008   0.00002   0.10929   0.00075
  90       14F-2        0.00083   0.00778  -0.00198   0.00117   0.00001
  91       14F+3        0.00072   0.00001  -0.00007   0.00055   0.00339
  92       14F-3        0.00001  -0.00015   0.00412   0.00001   0.00005
  93 3   H  1S          0.16228   0.00278  -0.29623   0.24123   0.00310
  94        2S         -0.23937  -0.00026  -0.13647  -0.08868   0.00183
  95        3S         -0.10426  -0.00030  -1.10252   0.30027   0.00549
  96        4S          0.00664  -0.00024  -0.01469   0.00178   0.00020
  97        5PX         0.00070  -0.09223  -0.00171   0.00174  -0.09028
  98        5PY        -0.01584  -0.00143   0.10392  -0.10282  -0.00148
  99        5PZ         0.06573   0.00075   0.01660  -0.04075   0.00022
 100        6PX        -0.00019  -0.20229  -0.00365   0.00166  -0.23600
 101        6PY         0.07106  -0.00215   0.15186  -0.07272  -0.00254
 102        6PZ         0.03455   0.00117   0.06720  -0.12251   0.00050
 103        7PX         0.00010  -0.06548  -0.00252   0.00119  -0.07152
 104        7PY         0.03832  -0.00104   0.33030   0.01805  -0.00103
 105        7PZ         0.00357   0.00018  -0.17391   0.10690   0.00189
 106        8D 0        0.02113   0.00036   0.00688  -0.03424  -0.00003
 107        8D+1        0.00047  -0.02960  -0.00049   0.00006  -0.02035
 108        8D-1       -0.02280  -0.00069   0.01849   0.00867  -0.00037
 109        8D+2       -0.00287  -0.00104   0.02646  -0.04754  -0.00118
 110        8D-2       -0.00021   0.04192   0.00101  -0.00129   0.04498
 111        9D 0        0.00160   0.00001   0.01460   0.02263   0.00054
 112        9D+1        0.00009   0.00117   0.00038   0.00028  -0.01708
 113        9D-1        0.00504  -0.00041   0.00350   0.02369  -0.00001
 114        9D+2       -0.01312  -0.00071   0.03145  -0.01371  -0.00075
 115        9D-2       -0.00012   0.02216   0.00095  -0.00019   0.03787
 116 4   H  1S          0.16228  -0.00278   0.29625   0.24123   0.00310
 117        2S         -0.23941   0.00026   0.13640  -0.08876   0.00183
 118        3S         -0.10435   0.00030   1.10256   0.30014   0.00549
 119        4S          0.00665   0.00024   0.01469   0.00178   0.00020
 120        5PX         0.00053   0.09224   0.00060   0.00064  -0.09030
 121        5PY         0.01584  -0.00044   0.10393   0.10284   0.00052
 122        5PZ         0.06573  -0.00075  -0.01660  -0.04075   0.00022
 123        6PX         0.00057   0.20230   0.00203   0.00088  -0.23603
 124        6PY        -0.07107   0.00001   0.15187   0.07272   0.00002
 125        6PZ         0.03456  -0.00117  -0.06720  -0.12252   0.00050
 126        7PX         0.00051   0.06549  -0.00100   0.00138  -0.07153
 127        7PY        -0.03835  -0.00034   0.33030  -0.01809   0.00027
 128        7PZ         0.00356  -0.00018   0.17391   0.10690   0.00189
 129        8D 0        0.02113  -0.00036  -0.00688  -0.03425  -0.00003
 130        8D+1        0.00023   0.02961   0.00029   0.00015  -0.02035
 131        8D-1        0.02281  -0.00038   0.01849  -0.00867   0.00015
 132        8D+2       -0.00287   0.00015  -0.02648  -0.04756  -0.00022
 133        8D-2        0.00015   0.04193   0.00044   0.00027  -0.04500
 134        9D 0        0.00161  -0.00001  -0.01460   0.02264   0.00054
 135        9D+1        0.00015  -0.00117  -0.00042   0.00054  -0.01708
 136        9D-1       -0.00504  -0.00042   0.00350  -0.02370  -0.00018
 137        9D+2       -0.01312   0.00023  -0.03146  -0.01370   0.00005
 138        9D-2       -0.00016   0.02217   0.00027  -0.00010  -0.03788
                          26        27        28        29        30
     Eigenvalues --     0.00211   0.00163   0.00139   0.00132   0.00107
   1 1   O  1S          0.00000   0.00957   0.04965  -0.00001   0.00000
   2        2S          0.00000  -0.03175  -0.28099   0.00004   0.00000
   3        3S          0.00000  -0.02875  -0.27472   0.00004   0.00000
   4        4S         -0.00003  -0.04062   0.19226  -0.00002   0.00000
   5        5S          0.00001   0.15811  -0.47788   0.00009   0.00000
   6        6PX         0.00157  -0.00456   0.00383   0.00243  -0.00019
   7        6PY        -0.29442  -0.00001  -0.00006  -0.45562   0.00690
   8        6PZ         0.00000   0.23399   0.14035  -0.00001   0.00000
   9        7PX        -0.00074   0.00274  -0.00283  -0.00257   0.00017
  10        7PY         0.13924   0.00000   0.00007   0.48105  -0.00908
  11        7PZ         0.00000  -0.16845   0.12914  -0.00003   0.00000
  12        8PX         0.00123  -0.00107  -0.00226   0.00051   0.00010
  13        8PY        -0.23113   0.00001  -0.00001  -0.09517  -0.00542
  14        8PZ         0.00003  -0.26328  -1.02279   0.00016   0.00000
  15        9PX         0.00025  -0.00115   0.00032   0.00103  -0.00003
  16        9PY        -0.04593   0.00000  -0.00003  -0.19352   0.00176
  17        9PZ         0.00000  -0.01772   0.05474  -0.00001   0.00000
  18       10D 0       -0.00001   0.19051   0.39837  -0.00005   0.00000
  19       10D+1       -0.00029   0.00152  -0.00015  -0.00088  -0.00006
  20       10D-1        0.05435   0.00000   0.00002   0.16456   0.00122
  21       10D+2        0.00000   0.25954  -0.08918   0.00005   0.00368
  22       10D-2        0.00045   0.00277  -0.00095  -0.00142  -0.34489
  23       11D 0       -0.00001   0.17870   0.35269  -0.00005   0.00000
  24       11D+1       -0.00114   0.00207  -0.00027  -0.00102  -0.00003
  25       11D-1        0.21419   0.00000   0.00003   0.19028   0.00145
  26       11D+2        0.00000   0.24687  -0.16142   0.00005   0.00231
  27       11D-2        0.00048   0.00264  -0.00172  -0.00136  -0.21631
  28       12D 0        0.00000   0.04465   0.22607  -0.00004   0.00000
  29       12D+1       -0.00076   0.00206  -0.00064  -0.00052   0.00002
  30       12D-1        0.14203   0.00000   0.00001   0.09818   0.00083
  31       12D+2       -0.00001  -0.02915  -0.06610   0.00002  -0.00095
  32       12D-2        0.00112  -0.00031  -0.00071  -0.00112   0.08904
  33       13F 0        0.00000   0.07521   0.13947  -0.00002   0.00000
  34       13F+1        0.00002   0.00061  -0.00022  -0.00083  -0.00001
  35       13F-1       -0.00425   0.00000   0.00002   0.15623   0.00005
  36       13F+2        0.00000   0.06414  -0.05169   0.00002   0.00226
  37       13F-2        0.00017   0.00068  -0.00055  -0.00082  -0.21151
  38       13F+3       -0.00020   0.00018  -0.00002   0.00019   0.00000
  39       13F-3        0.01245   0.00000   0.00000  -0.01155   0.00003
  40       14F 0        0.00000   0.01717   0.05957  -0.00001   0.00000
  41       14F+1        0.00028  -0.00033   0.00024  -0.00025  -0.00002
  42       14F-1       -0.05162   0.00000   0.00001   0.04677   0.00007
  43       14F+2        0.00000   0.04731  -0.01377   0.00001   0.00148
  44       14F-2       -0.00011   0.00051  -0.00015  -0.00005  -0.13908
  45       14F+3        0.00027  -0.00004  -0.00001   0.00020   0.00000
  46       14F-3       -0.01715   0.00000   0.00000  -0.01265   0.00010
  47 2   C  1S          0.00000   0.07229   0.15283  -0.00004   0.00000
  48        2S          0.00000  -0.27890  -0.50087   0.00012   0.00000
  49        3S          0.00001  -0.36204  -0.68361   0.00015   0.00000
  50        4S          0.00007   1.27724  -1.28950   0.00024   0.00000
  51        5S          0.00001   0.05648  -0.08093   0.00000   0.00000
  52        6PX        -0.00162   0.00294  -0.00116  -0.00081   0.00003
  53        6PY         0.30275  -0.00001   0.00004   0.15178   0.00042
  54        6PZ         0.00001  -0.25270  -0.49614   0.00003   0.00000
  55        7PX        -0.00174   0.00116   0.00085  -0.00213   0.00003
  56        7PY         0.32515  -0.00003   0.00013   0.39844  -0.00130
  57        7PZ         0.00001  -0.07539   0.12352   0.00000   0.00000
  58        8PX        -0.00760  -0.00560   0.00683   0.00663  -0.00017
  59        8PY         1.42349   0.00000  -0.00013  -1.24148   0.01439
  60        8PZ        -0.00001  -0.30880   0.86910  -0.00016   0.00000
  61        9PX        -0.00024   0.00053  -0.00034  -0.00019   0.00001
  62        9PY         0.04586   0.00000   0.00000   0.03503   0.00041
  63        9PZ         0.00000  -0.01830  -0.00698   0.00000   0.00000
  64       10D 0       -0.00002   0.11496   0.12185   0.00000   0.00000
  65       10D+1        0.00016   0.00239  -0.00080  -0.00287  -0.00007
  66       10D-1       -0.02972  -0.00002   0.00007   0.53804   0.00075
  67       10D+2       -0.00001  -0.30267   0.22709  -0.00007  -0.00280
  68       10D-2       -0.00115  -0.00323   0.00242   0.00228   0.26207
  69       11D 0        0.00000   0.16544   0.25367  -0.00005   0.00000
  70       11D+1       -0.00044   0.00438  -0.00148   0.00016  -0.00007
  71       11D-1        0.08322   0.00002  -0.00004  -0.03024   0.00257
  72       11D+2       -0.00001  -0.48041   0.26439  -0.00008  -0.00384
  73       11D-2       -0.00117  -0.00513   0.00282   0.00094   0.36016
  74       12D 0       -0.00002   0.04673   0.48863  -0.00008   0.00000
  75       12D+1        0.00223   0.00114   0.00114  -0.00056  -0.00003
  76       12D-1       -0.41821   0.00000   0.00002   0.10474   0.00322
  77       12D+2        0.00001  -0.04658   0.31142  -0.00007  -0.00008
  78       12D-2       -0.00292  -0.00050   0.00333   0.00296   0.00766
  79       13F 0        0.00001  -0.12452   0.02043  -0.00001   0.00000
  80       13F+1       -0.00133   0.00033  -0.00079  -0.00038   0.00005
  81       13F-1        0.24862   0.00000   0.00002   0.07195   0.00049
  82       13F+2        0.00000  -0.19033   0.09759  -0.00005  -0.00415
  83       13F-2        0.00044  -0.00203   0.00104   0.00134   0.38893
  84       13F+3       -0.00218  -0.00090   0.00108   0.00170  -0.00007
  85       13F-3        0.13627  -0.00001   0.00001  -0.10622   0.00267
  86       14F 0        0.00000  -0.07480   0.10880  -0.00002   0.00000
  87       14F+1       -0.00080   0.00030   0.00046  -0.00032   0.00002
  88       14F-1        0.15058   0.00000   0.00001   0.05986   0.00265
  89       14F+2        0.00002  -0.07594   0.06596  -0.00005  -0.00159
  90       14F-2       -0.00151  -0.00081   0.00070   0.00269   0.14918
  91       14F+3       -0.00040   0.00064   0.00046   0.00069  -0.00001
  92       14F-3        0.02515   0.00001   0.00000  -0.04291   0.00064
  93 3   H  1S         -0.38152  -0.26612   0.22198   0.30375   0.00072
  94        2S         -0.25101  -0.27153   0.28012  -0.12793   0.00210
  95        3S         -1.13095  -0.29749   0.79079   0.85925  -0.01191
  96        4S         -0.01950  -0.01031   0.01049  -0.00613  -0.00098
  97        5PX        -0.00166   0.00008   0.00000   0.00010  -0.11329
  98        5PY         0.02217   0.02016  -0.05299   0.03145  -0.00086
  99        5PZ        -0.15932   0.02023  -0.00693   0.03027  -0.00074
 100        6PX        -0.00380  -0.00057   0.00079  -0.00173  -0.28416
 101        6PY        -0.02705   0.05534  -0.09962   0.29980  -0.00332
 102        6PZ        -0.30749   0.00361   0.10123  -0.07613   0.00237
 103        7PX        -0.00333  -0.00113   0.00202   0.00032  -0.05434
 104        7PY         0.29619   0.09622   0.01688  -0.12744   0.00104
 105        7PZ        -0.19670  -0.03955   0.36960   0.06770  -0.00180
 106        8D 0       -0.03272   0.01878  -0.02238   0.03481   0.00016
 107        8D+1       -0.00099   0.00030  -0.00018   0.00054  -0.00488
 108        8D-1        0.05148   0.01083  -0.01509  -0.02333   0.00000
 109        8D+2        0.00649   0.00153  -0.03164   0.01323  -0.00042
 110        8D-2        0.00080  -0.00028  -0.00040   0.00012   0.02738
 111        9D 0       -0.03050  -0.01460   0.02434   0.01288   0.00026
 112        9D+1       -0.00016  -0.00010   0.00108  -0.00068  -0.02213
 113        9D-1        0.03615  -0.01384  -0.03666   0.02797  -0.00085
 114        9D+2       -0.00175  -0.00338   0.00942   0.04841  -0.00093
 115        9D-2        0.00070   0.00050   0.00003   0.00084   0.04593
 116 4   H  1S          0.38153  -0.26610   0.22192  -0.30387  -0.00072
 117        2S          0.25094  -0.27155   0.28025   0.12786  -0.00210
 118        3S          1.13093  -0.29753   0.79060  -0.85954   0.01191
 119        4S          0.01950  -0.01031   0.01050   0.00613   0.00098
 120        5PX         0.00142   0.00030  -0.00057  -0.00043   0.11333
 121        5PY         0.02218  -0.02017   0.05300   0.03141   0.00035
 122        5PZ         0.15933   0.02022  -0.00693  -0.03028   0.00074
 123        6PX         0.00409   0.00002  -0.00027  -0.00147   0.28416
 124        6PY        -0.02704  -0.05537   0.09974   0.29971  -0.00029
 125        6PZ         0.30746   0.00358   0.10132   0.07607  -0.00237
 126        7PX         0.00016  -0.00010   0.00220   0.00104   0.05429
 127        7PY         0.29619  -0.09623  -0.01691  -0.12745   0.00162
 128        7PZ         0.19667  -0.03956   0.36962  -0.06784   0.00180
 129        8D 0        0.03272   0.01878  -0.02239  -0.03480  -0.00016
 130        8D+1        0.00044   0.00042  -0.00034  -0.00029   0.00488
 131        8D-1        0.05149  -0.01083   0.01509  -0.02335   0.00005
 132        8D+2       -0.00650   0.00152  -0.03165  -0.01321  -0.00017
 133        8D-2        0.00066   0.00031  -0.00028  -0.00016   0.02740
 134        9D 0        0.03049  -0.01460   0.02434  -0.01289  -0.00026
 135        9D+1       -0.00022  -0.00025   0.00069   0.00038   0.02213
 136        9D-1        0.03615   0.01384   0.03669   0.02795  -0.00061
 137        9D+2        0.00174  -0.00336   0.00940  -0.04841  -0.00005
 138        9D-2        0.00074  -0.00058   0.00017  -0.00019   0.04590
                          31        32        33        34        35
     Eigenvalues --     0.00105   0.00087   0.00086   0.00080   0.00065
   1 1   O  1S         -0.00066   0.00442   0.04788   0.00001   0.26105
   2        2S          0.00152   0.00090   0.00094   0.00000   0.21011
   3        3S          0.00239  -0.01040  -0.11791  -0.00002  -0.69747
   4        4S         -0.00148   0.01480   0.11092   0.00000  -0.13938
   5        5S         -0.00060   0.02082   0.13630   0.00001  -0.63650
   6        6PX         0.73061  -0.00415   0.00503  -0.00375   0.00021
   7        6PY         0.00390  -0.00002   0.00001   0.70317   0.00004
   8        6PZ        -0.00059   0.02335   0.23814   0.00003  -0.73251
   9        7PX        -0.63662  -0.04502  -0.00082   0.00593   0.00021
  10        7PY        -0.00340  -0.00024   0.00004  -1.11095  -0.00005
  11        7PZ        -0.00198  -0.02262  -0.21360  -0.00003   1.21518
  12        8PX        -0.17157   0.43839  -0.03854   0.00236   0.00270
  13        8PY        -0.00092   0.00235  -0.00011  -0.44193   0.00006
  14        8PZ         0.00241   0.01763   0.18600   0.00003  -0.62431
  15        9PX         0.10882   0.03668  -0.00220  -0.00092   0.00019
  16        9PY         0.00058   0.00020  -0.00001   0.17193   0.00002
  17        9PZ         0.00022   0.00104   0.02767   0.00000  -0.13014
  18       10D 0       -0.00054  -0.00465  -0.04778   0.00000  -0.10816
  19       10D+1        0.13773  -0.24522   0.02305  -0.00115  -0.00064
  20       10D-1        0.00074  -0.00131   0.00007   0.21604  -0.00004
  21       10D+2        0.00259   0.00222   0.00832  -0.00002   0.15717
[...]
   6        6PX         0.01439  -0.00025  -0.00001  -0.00002  -0.00020
   7        6PY         0.00008   0.00000   0.00252   0.00412   0.00000
   8        6PZ        -0.00016   0.02305   0.00001   0.00000  -0.01668
   9        7PX        -0.06119   0.00149  -0.00012  -0.00022   0.00095
  10        7PY        -0.00033   0.00000   0.02201   0.04170   0.00000
  11        7PZ         0.00035  -0.13259  -0.00003   0.00000   0.03533
  12        8PX         0.42321   0.01378  -0.01692  -0.01289  -0.00094
  13        8PY         0.00226  -0.00113   3.17023   2.41472   0.00051
  14        8PZ        -0.00860   3.67015   0.00137   0.00027   0.84495
  15        9PX        -0.68036  -0.00145   0.00480  -0.00053  -0.00826
  16        9PY        -0.00363   0.00024  -0.89866   0.09950  -0.00002
  17        9PZ        -0.01953   5.52309   0.00192   0.00022  -0.36624
  18       10D 0       -0.00010  -0.02896  -0.00001   0.00000   0.00935
  19       10D+1        0.00556   0.00009  -0.00006  -0.00004   0.00009
  20       10D-1        0.00003   0.00000   0.01063   0.00787   0.00000
  21       10D+2        0.00040   0.03475   0.00001   0.00000   0.00760
  22       10D-2        0.00001   0.00037  -0.00014  -0.00016   0.00008
  23       11D 0       -0.00106   0.04944   0.00002   0.00000  -0.05351
  24       11D+1       -0.06155  -0.00081   0.00037   0.00055  -0.00046
  25       11D-1       -0.00033   0.00002  -0.07017  -0.10353  -0.00001
  26       11D+2       -0.00134  -0.13140  -0.00005  -0.00001  -0.02801
  27       11D-2       -0.00002  -0.00140   0.00078   0.00069  -0.00030
  28       12D 0       -0.00521  -1.74815  -0.00057  -0.00015  -0.45445
  29       12D+1       -0.08376  -0.01103   0.00795   0.00569  -0.00151
  30       12D-1       -0.00045   0.00051  -1.48898  -1.06573  -0.00023
  31       12D+2        0.00944   0.28998   0.00007   0.00003  -0.02290
  32       12D-2        0.00013   0.00309   0.00336   0.00014  -0.00024
  33       13F 0        0.00022  -0.00564   0.00000   0.00000  -0.00802
  34       13F+1       -0.00692  -0.00050   0.00022   0.00013  -0.00013
  35       13F-1       -0.00004   0.00001  -0.04158  -0.02350   0.00000
  36       13F+2        0.00032   0.00446   0.00000   0.00000  -0.00367
  37       13F-2        0.00000   0.00005   0.00042   0.00007  -0.00004
  38       13F+3        0.01957   0.00016  -0.00021  -0.00018   0.00012
  39       13F-3        0.00031   0.00000   0.01290   0.01146   0.00000
  40       14F 0        0.00030   0.13269   0.00003   0.00002   0.08103
  41       14F+1        0.07972   0.00224  -0.00087  -0.00067   0.00068
  42       14F-1        0.00043  -0.00005   0.16366   0.12524   0.00002
  43       14F+2       -0.00139  -0.01556   0.00001   0.00000   0.00330
  44       14F-2       -0.00002  -0.00017  -0.00163  -0.00062   0.00004
  45       14F+3       -0.03051  -0.00056   0.00047   0.00022  -0.00040
  46       14F-3       -0.00049   0.00000  -0.02919  -0.01347  -0.00001
  47 2   C  1S          0.00146   0.07969   0.00002  -0.00001   0.20213
  48        2S          0.00925   0.44198   0.00011  -0.00008   1.21923
  49        3S          0.00169  -0.07805  -0.00003  -0.00001  -0.00171
  50        4S         -0.16860   5.72340   0.00222  -0.00005  25.32206
  51        5S         -0.06199   8.04570   0.00206   0.00027  10.39187
  52        6PX         0.00460   0.00036  -0.00016   0.00003   0.00009
  53        6PY         0.00002  -0.00001   0.02910  -0.00594   0.00001
  54        6PZ        -0.00003   0.00371   0.00000   0.00000   0.03672
  55        7PX         0.01496  -0.00362   0.00981  -0.00751  -0.01063
  56        7PY         0.00008   0.00067  -1.83705   1.40642  -0.00057
  57        7PZ         0.00403   0.69369   0.00022   0.00017  -1.05086
  58        8PX         3.93562  -0.02984   0.08821  -0.04460  -0.05874
  59        8PY         0.02100   0.00500 -16.52522   8.35579  -0.00366
  60        8PZ        -0.07559  -2.67273  -0.00008  -0.00036  -9.47547
  61        9PX         2.26300  -0.00714  -0.00863  -0.02847  -0.00931
  62        9PY         0.01208  -0.00086   1.61545   5.33232  -0.00020
  63        9PZ        -0.01224  -2.28891  -0.00054  -0.00021  -2.06926
  64       10D 0        0.00060  -0.05617  -0.00003   0.00000   0.02156
  65       10D+1        0.01537  -0.00019  -0.00008   0.00011   0.00030
  66       10D-1        0.00008  -0.00001   0.01505  -0.02099   0.00002
  67       10D+2       -0.00117   0.02182   0.00001   0.00001  -0.05300
  68       10D-2       -0.00001   0.00023   0.00016  -0.00046  -0.00057
  69       11D 0        0.00060   0.71595   0.00037   0.00007   0.14976
  70       11D+1       -0.36936  -0.00234  -0.00757   0.00669   0.00632
  71       11D-1       -0.00197  -0.00047   1.41796  -1.25265   0.00033
  72       11D+2        0.01161  -0.27645  -0.00015   0.00018  -0.92286
  73       11D-2        0.00010  -0.00296   0.00940  -0.00970  -0.00985
  74       12D 0       -0.02854   1.38799   0.00009  -0.00026   1.80670
  75       12D+1       -1.38953   0.02639  -0.01330   0.01274   0.02667
  76       12D-1       -0.00741  -0.00052   2.49314  -2.38714   0.00043
  77       12D+2       -0.03329   0.29359  -0.00017  -0.00002  -0.23654
  78       12D-2       -0.00052   0.00313   0.01338  -0.01281  -0.00252
  79       13F 0        0.00218   0.01889   0.00001   0.00000   0.02560
  80       13F+1       -0.03854   0.00052  -0.00026  -0.00011  -0.00020
  81       13F-1       -0.00021  -0.00001   0.04940   0.01973   0.00000
  82       13F+2       -0.00008   0.01040   0.00001  -0.00001   0.04534
  83       13F-2       -0.00001   0.00011  -0.00047   0.00023   0.00048
  84       13F+3        0.10500   0.00020  -0.00120   0.00027   0.00087
  85       13F-3        0.00168  -0.00003   0.07496  -0.01662   0.00002
  86       14F 0       -0.01996  -0.06130   0.00001  -0.00006   0.17612
  87       14F+1        0.05133  -0.00947   0.01063   0.00620  -0.00260
  88       14F-1        0.00028   0.00069  -1.99204  -1.16149  -0.00029
  89       14F+2       -0.00844   0.41998   0.00023  -0.00001   0.45083
  90       14F-2       -0.00010   0.00449  -0.01162  -0.00020   0.00481
  91       14F+3       -0.32070  -0.00044   0.00373   0.00538   0.00103
  92       14F-3       -0.00514   0.00009  -0.23286  -0.33624   0.00002
  93 3   H  1S          0.00096   0.01790  -0.06775  -0.01013   0.04745
  94        2S          0.03085  -1.43053   3.04903  -1.65589  -2.85466
  95        3S          0.00690   1.59563  25.91225 -14.20695 -14.73792
  96        4S          0.00477  -1.16411  -1.72115  -4.65750  -1.66069
  97        5PX        -0.08369  -0.00010  -0.00125   0.00063   0.00115
  98        5PY        -0.00013   0.02062   0.11444  -0.07208  -0.09541
  99        5PZ        -0.00093  -0.01952   0.03368   0.10511   0.03178
 100        6PX        -0.01951  -0.00318   0.01795  -0.00927  -0.01728
 101        6PY        -0.00413   0.14670  -2.14103   0.73116   1.51169
 102        6PZ         0.01037   0.30191  -0.47100  -1.46125  -0.61347
 103        7PX        -3.04692   0.02036   0.08062  -0.03473  -0.03775
 104        7PY        -0.03982  -0.06235  -9.22792   1.86074   4.80036
 105        7PZ         0.00434   4.15351   1.52278  -2.93856   0.02576
 106        8D 0       -0.00072  -0.05766   0.05329   0.02859  -0.02478
 107        8D+1        0.02654  -0.00058   0.00015  -0.00029  -0.00099
 108        8D-1        0.00160   0.05058  -0.10863   0.00864   0.06526
 109        8D+2        0.00161   0.04027   0.05186   0.04406   0.04405
 110        8D-2       -0.06567   0.00125   0.00021   0.00051   0.00076
 111        9D 0        0.00309   0.59781  -1.20630  -0.50094   0.42167
 112        9D+1       -0.23626   0.00573  -0.00471  -0.01018  -0.00146
 113        9D-1       -0.01123  -0.82089   0.30498   0.76622   0.14581
 114        9D+2       -0.00562  -0.15046  -1.18162  -0.13618   0.43736
 115        9D-2        0.50655  -0.00557  -0.01950   0.00038   0.00902
 116 4   H  1S          0.00096   0.01784   0.06776   0.01012   0.04748
 117        2S          0.03085  -1.42844  -3.05027   1.65633  -2.85629
 118        3S          0.00688   1.61148 -25.91044  14.20661 -14.74842
 119        4S          0.00476  -1.16592   1.72058   4.65738  -1.66106
 120        5PX        -0.08368   0.00012   0.00002   0.00014   0.00013
 121        5PY        -0.00077  -0.02070   0.11440  -0.07206   0.09544
 122        5PZ        -0.00093  -0.01949  -0.03371  -0.10511   0.03178
 123        6PX        -0.01959  -0.00161   0.00491   0.00146  -0.00114
 124        6PY         0.00392  -0.14519  -2.14103   0.73124  -1.51253
 125        6PZ         0.01037   0.30157   0.47129   1.46147  -0.61357
 126        7PX        -3.04766   0.01968   0.01792   0.01486   0.01351
 127        7PY         0.00728   0.06848  -9.22721   1.86079  -4.80358
 128        7PZ         0.00434   4.15448  -1.52076   2.93868   0.02462
 129        8D 0       -0.00072  -0.05762  -0.05332  -0.02860  -0.02478
 130        8D+1        0.02657  -0.00004   0.00101   0.00020  -0.00029
 131        8D-1       -0.00131  -0.05049  -0.10865   0.00865  -0.06531
 132        8D+2        0.00021   0.04030  -0.05183  -0.04407   0.04407
 133        8D-2        0.06570  -0.00039  -0.00090  -0.00043   0.00018
 134        9D 0        0.00309   0.59697   1.20661   0.50107   0.42188
 135        9D+1       -0.23644  -0.00303   0.00145   0.00200   0.00009
 136        9D-1        0.00871   0.82066   0.30552   0.76631  -0.14582
 137        9D+2        0.00520  -0.15135   1.18149   0.13619   0.43774
 138        9D-2       -0.50660   0.00235   0.00574   0.00329   0.00032
                         136       137       138
     Eigenvalues --     0.00000   0.00000   0.00000
   1 1   O  1S         -0.06087   0.00000   0.00949
   2        2S         -0.29411   0.00001   0.05177
   3        3S          0.03828   0.00000   0.00103
   4        4S          4.43259  -0.00021  -1.09237
   5        5S         13.13900  -0.00084  -6.80994
   6        6PX         0.00019   0.00003  -0.00002
   7        6PY         0.00000  -0.00506   0.00000
   8        6PZ        -0.00472   0.00000   0.00544
   9        7PX        -0.00107  -0.00007   0.00011
  10        7PY         0.00000   0.01313   0.00000
  11        7PZ        -0.07852   0.00000  -0.03072
  12        8PX         0.00400   0.00788  -0.00010
  13        8PY        -0.00007  -1.47569  -0.00002
  14        8PZ        -1.39823   0.00010   0.89633
  15        9PX         0.00936   0.00827   0.00041
  16        9PY         0.00010  -1.54989   0.00006
  17        9PZ        -1.07642   0.00011   1.43358
  18       10D 0       -0.01635   0.00000   0.00147
  19       10D+1       -0.00002  -0.00001   0.00001
  20       10D-1        0.00000   0.00227   0.00000
  21       10D+2        0.00382   0.00000  -0.00164
  22       10D-2        0.00004   0.00001  -0.00002
  23       11D 0        0.10942   0.00000  -0.00590
  24       11D+1        0.00011  -0.00009  -0.00008
  25       11D-1        0.00000   0.01613   0.00000
  26       11D+2       -0.01297   0.00000   0.00411
  27       11D-2       -0.00014  -0.00010   0.00004
  28       12D 0       -0.08579  -0.00001  -0.20157
  29       12D+1        0.00077  -0.00311  -0.00024
  30       12D-1        0.00003   0.58282   0.00001
  31       12D+2        0.32094   0.00000  -0.04086
  32       12D-2        0.00343  -0.00036  -0.00044
  33       13F 0       -0.00815   0.00000  -0.00398
  34       13F+1        0.00014  -0.00003  -0.00003
  35       13F-1        0.00000   0.00491   0.00000
  36       13F+2        0.01299   0.00000  -0.00223
  37       13F-2        0.00014  -0.00013  -0.00002
  38       13F+3       -0.00037  -0.00008   0.00000
  39       13F-3       -0.00001   0.00509   0.00000
  40       14F 0        0.01581   0.00000   0.01748
  41       14F+1       -0.00046   0.00016   0.00013
  42       14F-1        0.00000  -0.02917   0.00000
  43       14F+2       -0.06166   0.00000   0.01084
  44       14F-2       -0.00066   0.00047   0.00012
  45       14F+3        0.00092   0.00024   0.00003
  46       14F-3        0.00002  -0.01476   0.00000
  47 2   C  1S         -0.03811   0.00000   0.00510
  48        2S         -0.21645   0.00002   0.03522
  49        3S          0.11733   0.00000   0.02751
  50        4S         -5.35318   0.00078  10.05071
  51        5S         -4.21121   0.00120  13.51303
  52        6PX        -0.00009  -0.00007  -0.00009
  53        6PY         0.00000   0.01396   0.00000
  54        6PZ        -0.02385   0.00000   0.00222
  55        7PX         0.00299   0.00007  -0.00070
  56        7PY         0.00006  -0.01366  -0.00003
  57        7PZ         0.23720  -0.00002   0.00973
  58        8PX         0.00254  -0.04031  -0.01539
  59        8PY         0.00021   7.55097  -0.00034
  60        8PZ        -1.46518  -0.00007  -0.03772
  61        9PX        -0.00715  -0.02970  -0.01106
  62        9PY        -0.00024   5.56360  -0.00047
  63        9PZ        -2.32766   0.00002  -0.22543
  64       10D 0        0.01405   0.00000  -0.00401
  65       10D+1       -0.00013  -0.00008   0.00005
  66       10D-1        0.00000   0.01414   0.00000
  67       10D+2       -0.00556   0.00000  -0.00772
  68       10D-2       -0.00006   0.00012  -0.00008
  69       11D 0       -0.79363   0.00001   0.13173
  70       11D+1       -0.00151  -0.00099   0.00012
  71       11D-1       -0.00003   0.18514   0.00002
  72       11D+2        0.20691  -0.00004  -0.05063
  73       11D-2        0.00221   0.00110  -0.00054
  74       12D 0       -6.06679   0.00023   0.72204
  75       12D+1       -0.02300  -0.00392   0.00354
  76       12D-1       -0.00010   0.73520   0.00005
  77       12D+2       -2.83351   0.00018  -0.29821
  78       12D-2       -0.03025  -0.01953  -0.00318
  79       13F 0       -0.03725   0.00000  -0.00914
  80       13F+1       -0.00010   0.00010  -0.00010
  81       13F-1        0.00000  -0.01947   0.00000
  82       13F+2       -0.01659   0.00000  -0.00145
  83       13F-2       -0.00018  -0.00034  -0.00002
  84       13F+3       -0.00057  -0.00029   0.00004
  85       13F-3       -0.00001   0.01783   0.00000
  86       14F 0       -0.17674   0.00003   0.06826
  87       14F+1        0.00173  -0.00284   0.00011
  88       14F-1        0.00006   0.53267   0.00001
  89       14F+2       -0.34572   0.00001   0.05513
  90       14F-2       -0.00369   0.00100   0.00059
  91       14F+3       -0.00071  -0.00056  -0.00011
  92       14F-3       -0.00001   0.03494   0.00000
  93 3   H  1S         -0.01635  -0.00863  -0.00302
  94        2S          1.02526   0.10030  -0.19610
  95        3S         -3.54097 -11.39191  -5.31141
  96        4S         -0.30190  -8.37603  -3.08036
  97        5PX        -0.00005   0.00047   0.00018
  98        5PY         0.00336  -0.03053  -0.01292
  99        5PZ         0.04091  -0.00176   0.00577
 100        6PX         0.00496  -0.00279  -0.00240
 101        6PY        -0.43579   0.26372   0.19222
 102        6PZ        -0.18419   0.18411  -0.08888
 103        7PX        -0.00254  -0.02393  -0.01614
 104        7PY        -2.17630   3.63540   1.56226
 105        7PZ        -3.87751  -2.54447  -0.62823
 106        8D 0        0.01097   0.00725   0.00188
 107        8D+1        0.00105   0.00041   0.00000
 108        8D-1       -0.04742  -0.02479  -0.00808
 109        8D+2        0.01185  -0.04161  -0.00409
 110        8D-2        0.00042  -0.00042  -0.00014
 111        9D 0       -0.31121   0.07424   0.04329
 112        9D+1       -0.00631  -0.00033  -0.00085
 113        9D-1        0.28948   0.08661   0.11333
 114        9D+2       -0.29730   0.34544   0.11354
 115        9D-2       -0.00696   0.00530   0.00277
 116 4   H  1S         -0.01635   0.00863  -0.00302
 117        2S          1.02544  -0.10045  -0.19619
 118        3S         -3.53967  11.39124  -5.31269
 119        4S         -0.30216   8.37559  -3.08184
 120        5PX        -0.00002  -0.00014   0.00004
 121        5PY        -0.00335  -0.03053   0.01293
 122        5PZ         0.04092   0.00176   0.00577
 123        6PX         0.00031  -0.00003  -0.00035
 124        6PY         0.43589   0.26365  -0.19227
 125        6PZ        -0.18422  -0.18415  -0.08892
 126        7PX        -0.02578  -0.01488   0.00054
 127        7PY         2.17709   3.63496  -1.56261
 128        7PZ        -3.87763   2.54472  -0.62846
 129        8D 0        0.01097  -0.00725   0.00188
 130        8D+1        0.00055  -0.00015  -0.00008
 131        8D-1        0.04743  -0.02479   0.00808
 132        8D+2        0.01187   0.04161  -0.00409
 133        8D-2       -0.00016   0.00047   0.00006
 134        9D 0       -0.31126  -0.07419   0.04329
 135        9D+1       -0.00322  -0.00060   0.00036
 136        9D-1       -0.28952   0.08661  -0.11335
 137        9D+2       -0.29747  -0.34543   0.11358
 138        9D-2        0.00061  -0.00208  -0.00034
          Condensed to atoms (all electrons):
              1          2          3          4
     1  O    8.193674   0.349453  -0.062858  -0.062865
     2  C    0.349453   5.719158   0.207807   0.207773
     3  H   -0.062858   0.207807   0.434680  -0.030396
     4  H   -0.062865   0.207773  -0.030396   0.434663
 Mulliken atomic charges:
              1
     1  O   -0.417403
     2  C   -0.484191
     3  H    0.450768
     4  H    0.450826
 Sum of Mulliken atomic charges =   0.00000
 Mulliken charges with hydrogens summed into heavy atoms:
              1
     1  O   -0.417403
     2  C    0.417403
 Sum of Mulliken charges with hydrogens summed into heavy atoms =   0.00000
 Electronic spatial extent (au):  <R**2>=             60.6320
 Charge=              0.0000 electrons
 Dipole moment (field-independent basis, Debye):
    X=             -0.0045    Y=             -0.0001    Z=             -2.4420  Tot=              2.4420
 Quadrupole moment (field-independent basis, Debye-Ang):
   XX=            -11.7378   YY=            -11.6215   ZZ=            -12.2709
   XY=             -0.0006   XZ=              0.0039   YZ=              0.0001
 Traceless Quadrupole moment (field-independent basis, Debye-Ang):
   XX=              0.1389   YY=              0.2552   ZZ=             -0.3942
   XY=             -0.0006   XZ=              0.0039   YZ=              0.0001
 Octapole moment (field-independent basis, Debye-Ang**2):
  XXX=              0.0215  YYY=             -0.0002  ZZZ=              0.3116  XYY=             -0.0020
  XXY=              0.0000  XXZ=              0.5813  XZZ=             -0.0013  YZZ=             -0.0002
  YYZ=             -0.7022  XYZ=              0.0069
 Hexadecapole moment (field-independent basis, Debye-Ang**3):
 XXXX=            -10.5196 YYYY=            -18.2501 ZZZZ=            -46.2405 XXXY=              0.0264
 XXXZ=             -0.0277 YYYX=              0.0149 YYYZ=              0.0003 ZZZX=             -0.0170
 ZZZY=              0.0004 XXYY=             -5.1553 XXZZ=             -9.3942 YYZZ=            -10.4553
 XXYZ=              0.0000 YYXZ=              0.0012 ZZXY=              0.0057
 N-N= 3.130486242510D+01 E-N=-3.313616607870D+02  KE= 1.142315652863D+02
 1\1\GINC-TRAPISTA\SP\RQCISD-FC\Aug-CC-pVTZ\C1H2O1\BRUNS\20-Nov-2021\0\
 \# qcisd/aug-cc-pvtz nosymm density=current output=wfn\\h2co-wavefunct
 ion\\0,1\O,0,0.,0.,0.679252\C,0,0.,0.,-0.526911\H,0,-0.01,0.936614,-1.
 10662\H,0,0.,-0.936614,-1.10662\\Version=EM64L-G09RevB.01\HF=-113.9138
 216\MP2=-114.316341\MP3=-114.32036\MP4D=-114.3305823\MP4DQ=-114.321709
 6\MP4SDQ=-114.3269717\QCISD=-114.3269772\RMSD=2.891e-09\Dipole=-0.0017
 849,-0.0000253,-0.9607718\Quadrupole=0.1032888,0.1897547,-0.2930436,-0
 .0004617,0.0029279,0.0000665\PG=C01 [X(C1H2O1)]\\@

 Writing a WFN file to GAUSSIAN.wfn.


 EDUCATION DOESN'T COST 
           ... IT PAYS!

 -- POSTMARK, UNIV. OF MISSISSIPPI, DEC 78
 Job cpu time:  0 days  0 hours 22 minutes 18.4 seconds.
 File lengths (MBytes):  RWF=   5787 Int=      0 D2E=      0 Chk=      2 Scr=      1
 Normal termination of Gaussian 09 at Sat Nov 20 18:17:58 2021.
