 h2co-wavefunction
GAUSSIAN            138 MOL ORBITALS    198 PRIMITIVES        4 NUCLEI
  O    1    (CENTRE  1)   0.00000000  0.00000000  1.28360026  CHARGE =  8.0
  C    2    (CENTRE  2)   0.00000000  0.00000000 -1.01461475  CHARGE =  6.0
  H    3    (CENTRE  3)   0.00000000  1.76994395 -2.09120873  CHARGE =  1.0
  H    4    (CENTRE  4)   0.00000000 -1.76994395 -2.09120873  CHARGE =  1.0
CENTRE ASSIGNMENTS    1  1  1  1  1  1  1  1  1  1  1  1  1  1  1  1  1  1  1  1
CENTRE ASSIGNMENTS    1  1  1  1  1  1  1  1  1  1  1  1  1  1  1  1  1  1  1  1
CENTRE ASSIGNMENTS    1  1  1  1  1  1  1  1  1  1  1  1  1  1  1  1  1  1  1  1
CENTRE ASSIGNMENTS    1  1  1  1  1  1  1  1  1  1  1  1  2  2  2  2  2  2  2  2
CENTRE ASSIGNMENTS    2  2  2  2  2  2  2  2  2  2  2  2  2  2  2  2  2  2  2  2
CENTRE ASSIGNMENTS    2  2  2  2  2  2  2  2  2  2  2  2  2  2  2  2  2  2  2  2
CENTRE ASSIGNMENTS    2  2  2  2  2  2  2  2  2  2  2  2  2  2  2  2  2  2  2  2
CENTRE ASSIGNMENTS    2  2  2  2  3  3  3  3  3  3  3  3  3  3  3  3  3  3  3  3
CENTRE ASSIGNMENTS    3  3  3  3  3  3  3  3  3  3  3  4  4  4  4  4  4  4  4  4
CENTRE ASSIGNMENTS    4  4  4  4  4  4  4  4  4  4  4  4  4  4  4  4  4  4
TYPE ASSIGNMENTS      1  1  1  1  1  1  1  1  1  1  1  1  1  1  1  1  2  2  2  3
TYPE ASSIGNMENTS      3  3  4  4  4  2  3  4  2  3  4  2  3  4  5  6  7  8  9 10
TYPE ASSIGNMENTS      5  6  7  8  9 10  5  6  7  8  9 10 11 12 13 17 14 15 18 19
TYPE ASSIGNMENTS     16 20 11 12 13 17 14 15 18 19 16 20  1  1  1  1  1  1  1  1
TYPE ASSIGNMENTS      1  1  1  1  1  1  1  1  2  2  2  3  3  3  4  4  4  2  3  4
TYPE ASSIGNMENTS      2  3  4  2  3  4  5  6  7  8  9 10  5  6  7  8  9 10  5  6
TYPE ASSIGNMENTS      7  8  9 10 11 12 13 17 14 15 18 19 16 20 11 12 13 17 14 15
TYPE ASSIGNMENTS     18 19 16 20  1  1  1  1  1  1  2  3  4  2  3  4  2  3  4  5
TYPE ASSIGNMENTS      6  7  8  9 10  5  6  7  8  9 10  1  1  1  1  1  1  2  3  4
TYPE ASSIGNMENTS      2  3  4  2  3  4  5  6  7  8  9 10  5  6  7  8  9 10
EXPONENTS  0.1533000D+05 0.2299000D+04 0.5224000D+03 0.1473000D+03 0.4755000D+02
EXPONENTS  0.1676000D+02 0.6207000D+01 0.5224000D+03 0.1473000D+03 0.4755000D+02
EXPONENTS  0.1676000D+02 0.6207000D+01 0.6882000D+00 0.1752000D+01 0.2384000D+00
EXPONENTS  0.7376000D-01 0.3446000D+02 0.7749000D+01 0.2280000D+01 0.3446000D+02
EXPONENTS  0.7749000D+01 0.2280000D+01 0.3446000D+02 0.7749000D+01 0.2280000D+01
EXPONENTS  0.7156000D+00 0.7156000D+00 0.7156000D+00 0.2140000D+00 0.2140000D+00
EXPONENTS  0.2140000D+00 0.5974000D-01 0.5974000D-01 0.5974000D-01 0.2314000D+01
EXPONENTS  0.2314000D+01 0.2314000D+01 0.2314000D+01 0.2314000D+01 0.2314000D+01
EXPONENTS  0.6450000D+00 0.6450000D+00 0.6450000D+00 0.6450000D+00 0.6450000D+00
EXPONENTS  0.6450000D+00 0.2140000D+00 0.2140000D+00 0.2140000D+00 0.2140000D+00
EXPONENTS  0.2140000D+00 0.2140000D+00 0.1428000D+01 0.1428000D+01 0.1428000D+01
EXPONENTS  0.1428000D+01 0.1428000D+01 0.1428000D+01 0.1428000D+01 0.1428000D+01
EXPONENTS  0.1428000D+01 0.1428000D+01 0.5000000D+00 0.5000000D+00 0.5000000D+00
EXPONENTS  0.5000000D+00 0.5000000D+00 0.5000000D+00 0.5000000D+00 0.5000000D+00
EXPONENTS  0.5000000D+00 0.5000000D+00 0.8236000D+04 0.1235000D+04 0.2808000D+03
EXPONENTS  0.7927000D+02 0.2559000D+02 0.8997000D+01 0.3319000D+01 0.2808000D+03
EXPONENTS  0.7927000D+02 0.2559000D+02 0.8997000D+01 0.3319000D+01 0.3643000D+00
EXPONENTS  0.9059000D+00 0.1285000D+00 0.4402000D-01 0.1871000D+02 0.4133000D+01
EXPONENTS  0.1200000D+01 0.1871000D+02 0.4133000D+01 0.1200000D+01 0.1871000D+02
EXPONENTS  0.4133000D+01 0.1200000D+01 0.3827000D+00 0.3827000D+00 0.3827000D+00
EXPONENTS  0.1209000D+00 0.1209000D+00 0.1209000D+00 0.3569000D-01 0.3569000D-01
EXPONENTS  0.3569000D-01 0.1097000D+01 0.1097000D+01 0.1097000D+01 0.1097000D+01
EXPONENTS  0.1097000D+01 0.1097000D+01 0.3180000D+00 0.3180000D+00 0.3180000D+00
EXPONENTS  0.3180000D+00 0.3180000D+00 0.3180000D+00 0.1000000D+00 0.1000000D+00
EXPONENTS  0.1000000D+00 0.1000000D+00 0.1000000D+00 0.1000000D+00 0.7610000D+00
EXPONENTS  0.7610000D+00 0.7610000D+00 0.7610000D+00 0.7610000D+00 0.7610000D+00
EXPONENTS  0.7610000D+00 0.7610000D+00 0.7610000D+00 0.7610000D+00 0.2680000D+00
EXPONENTS  0.2680000D+00 0.2680000D+00 0.2680000D+00 0.2680000D+00 0.2680000D+00
EXPONENTS  0.2680000D+00 0.2680000D+00 0.2680000D+00 0.2680000D+00 0.3387000D+02
EXPONENTS  0.5095000D+01 0.1159000D+01 0.3258000D+00 0.1027000D+00 0.2526000D-01
EXPONENTS  0.1407000D+01 0.1407000D+01 0.1407000D+01 0.3880000D+00 0.3880000D+00
EXPONENTS  0.3880000D+00 0.1020000D+00 0.1020000D+00 0.1020000D+00 0.1057000D+01
EXPONENTS  0.1057000D+01 0.1057000D+01 0.1057000D+01 0.1057000D+01 0.1057000D+01
EXPONENTS  0.2470000D+00 0.2470000D+00 0.2470000D+00 0.2470000D+00 0.2470000D+00
EXPONENTS  0.2470000D+00 0.3387000D+02 0.5095000D+01 0.1159000D+01 0.3258000D+00
EXPONENTS  0.1027000D+00 0.2526000D-01 0.1407000D+01 0.1407000D+01 0.1407000D+01
EXPONENTS  0.3880000D+00 0.3880000D+00 0.3880000D+00 0.1020000D+00 0.1020000D+00
EXPONENTS  0.1020000D+00 0.1057000D+01 0.1057000D+01 0.1057000D+01 0.1057000D+01
EXPONENTS  0.1057000D+01 0.1057000D+01 0.2470000D+00 0.2470000D+00 0.2470000D+00
EXPONENTS  0.2470000D+00 0.2470000D+00 0.2470000D+00
MO    1     MO 0.0        OCC NO =    2.0000077  ORB. ENERGY =    0.000000
 -0.26928129D+00 -0.50189605D+00 -0.85103529D+00 -0.12879514D+01 -0.16066179D+01
 -0.13787172D+01 -0.52797543D+00 -0.36701342D-04 -0.39378131D-03 -0.14515521D-02
 -0.42442531D-02 -0.51145314D-02  0.61609950D-02 -0.23885290D-01  0.72126872D-03
  0.19017734D-04  0.73631392D-13  0.71397682D-13  0.48164455D-13  0.76956196D-13
  0.74621623D-13  0.50339306D-13  0.14444736D-01  0.14006535D-01  0.94487255D-02
  0.20544784D-13  0.26441384D-13  0.17705625D-02  0.33342841D-14  0.17849731D-13
  0.60170473D-03 -0.18083545D-16  0.24219188D-15  0.73630142D-05  0.91223690D-03
  0.96362716D-04 -0.10085996D-02  0.21684721D-14 -0.23509223D-13 -0.15876749D-13
  0.22338124D-03  0.10405454D-03 -0.32743578D-03 -0.37556115D-15 -0.16976284D-14
 -0.48752455D-14  0.60467373D-04  0.10081442D-04 -0.70548815D-04 -0.65014449D-15
 -0.13851987D-14 -0.40139842D-14  0.18664587D-14 -0.52760103D-14 -0.70566224D-04
  0.10460129D-14 -0.48854334D-14  0.39186419D-03 -0.66453891D-14  0.20713464D-13
 -0.18016552D-03 -0.65334598D-14 -0.44410096D-15  0.74657951D-15  0.10270999D-03
 -0.88219963D-15  0.68183355D-15 -0.16990478D-03  0.22145025D-14 -0.29215721D-14
 -0.13822519D-03  0.26038731D-14  0.27613291D+00  0.51476737D+00  0.87002698D+00
  0.13078128D+01  0.16064138D+01  0.13557566D+01  0.50979988D+00  0.32292625D-04
  0.24136736D-03  0.90204494D-03  0.25165649D-02  0.33715032D-02 -0.39811166D-02
  0.22676237D-01  0.50410254D-03  0.12069638D-03  0.25496445D-13  0.23904538D-13
  0.17021455D-13  0.37990661D-13  0.35618660D-13  0.25362608D-13  0.20984827D-02
  0.19674609D-02  0.14009494D-02  0.40045883D-14 -0.39987855D-13  0.20578917D-03
  0.12143957D-14 -0.57675302D-13 -0.99193553D-04  0.51216235D-16 -0.12314433D-14
 -0.33931532D-05 -0.12077655D-02  0.29279387D-03  0.91497159D-03 -0.97638639D-15
  0.63925594D-14  0.14206159D-13  0.14674871D-03  0.25140933D-04 -0.17188964D-03
  0.40478948D-15 -0.80241658D-15  0.42874040D-13 -0.55582035D-05  0.16975558D-04
 -0.11417355D-04  0.10392072D-15  0.60948579D-16  0.40435541D-14  0.22917426D-15
  0.77769740D-15  0.53273257D-03 -0.19992688D-14  0.67286065D-14 -0.21559093D-04
  0.13117460D-14 -0.90616987D-14 -0.15766386D-02 -0.98372870D-15 -0.15126437D-15
  0.32089413D-14 -0.11462390D-03  0.67380677D-15  0.47613109D-14  0.42949186D-04
 -0.22001366D-15 -0.14388135D-13  0.30092252D-03  0.13718745D-14 -0.27888341D-03
 -0.50297771D-03 -0.74164034D-03 -0.23439017D-03 -0.44402063D-03 -0.11796419D-04
  0.35495664D-15  0.78718737D-03 -0.51147655D-03  0.32317060D-15  0.23306475D-03
 -0.98496325D-04 -0.35593159D-15  0.43600281D-04 -0.53424803D-04  0.21829730D-03
 -0.36172251D-03  0.14342520D-03 -0.16840710D-14  0.88770994D-15  0.85883985D-03
  0.48823001D-04 -0.14260813D-04 -0.34562187D-04 -0.62225033D-16 -0.91270907D-15
 -0.23753651D-04 -0.27888341D-03 -0.50297771D-03 -0.74164034D-03 -0.23439017D-03
 -0.44402063D-03 -0.11796419D-04  0.14692253D-14 -0.78718737D-03 -0.51147655D-03
 -0.73075066D-15 -0.23306475D-03 -0.98496325D-04 -0.14637483D-15 -0.43600281D-04
 -0.53424803D-04  0.21829730D-03 -0.36172251D-03  0.14342520D-03 -0.11218760D-14
  0.12850207D-14 -0.85883985D-03  0.48823001D-04 -0.14260813D-04 -0.34562187D-04
 -0.17667275D-15 -0.44092399D-15  0.23753651D-04
MO    2     MO 0.0        OCC NO =    2.0000041  ORB. ENERGY =    0.000000
  0.42123465D+00  0.78511212D+00  0.13312679D+01  0.20147325D+01  0.25132199D+01
  0.21567166D+01  0.82590788D+00  0.49615456D-04  0.53234128D-03  0.19623102D-02
  0.57376799D-02  0.69141833D-02 -0.83288664D-02  0.38446582D-01 -0.67217567D-03
 -0.86800756D-04 -0.84771715D-14 -0.82200048D-14 -0.55451667D-14  0.36457480D-13
  0.35351492D-13  0.23847908D-13 -0.10997053D-01 -0.10663442D-01 -0.71934950D-02
 -0.19914076D-16  0.12879658D-13  0.14362641D-02  0.34752428D-14  0.19013028D-13
  0.94737287D-04  0.12371474D-15  0.13330335D-17  0.16875048D-05 -0.96224457D-03
 -0.25944299D-04  0.98818887D-03 -0.63743600D-14  0.14670872D-13  0.69590342D-15
  0.34808567D-03  0.53795626D-03 -0.88604192D-03 -0.14873572D-14 -0.40601313D-14
 -0.86826406D-14  0.31641634D-04 -0.12920518D-05 -0.30349582D-04 -0.42813693D-15
 -0.20482841D-14 -0.54239997D-14  0.12128005D-14 -0.30966456D-14  0.15776179D-03
  0.17592684D-14  0.44986253D-14 -0.31394548D-03 -0.53976699D-14  0.47913114D-14
 -0.15933988D-03 -0.37824869D-14 -0.74357628D-15  0.18721552D-15  0.12564229D-03
 -0.13390604D-14 -0.35891941D-15 -0.16098074D-03  0.35697893D-14 -0.20272716D-15
 -0.21594611D-03  0.20237393D-14  0.17641870D+00  0.32888000D+00  0.55585200D+00
  0.83554924D+00  0.10263226D+01  0.86618005D+00  0.32570632D+00  0.17603197D-04
  0.13157299D-03  0.49171830D-03  0.13718175D-02  0.18378572D-02 -0.21701667D-02
  0.14507416D-01  0.52612829D-03  0.97581292D-04  0.21671129D-14  0.20318061D-14
  0.14467670D-14  0.34679547D-13  0.32514280D-13  0.23152104D-13  0.11554206D-02
  0.10832802D-02  0.77136007D-03 -0.50928943D-14 -0.45191375D-13  0.15909515D-02
 -0.60252103D-15 -0.65467765D-13 -0.42635364D-05  0.54036723D-17 -0.13262353D-14
  0.65092519D-06 -0.10383854D-02 -0.28166678D-03  0.13200522D-02 -0.84464505D-15
 -0.18354320D-14  0.16211432D-13  0.98138836D-05 -0.26279374D-03  0.25297986D-03
  0.35683906D-15 -0.42453040D-14  0.34577115D-13 -0.24024344D-05  0.40924803D-04
 -0.38522369D-04  0.56439006D-16 -0.24177301D-15  0.41336854D-14  0.12353652D-14
  0.24302961D-15  0.36918640D-03 -0.14173343D-15  0.45581319D-14 -0.24362216D-03
 -0.35643622D-14 -0.52872207D-14 -0.86393704D-03 -0.14355318D-15  0.13794484D-15
  0.23218043D-14 -0.87787281D-05  0.29476550D-15  0.53847810D-14 -0.37085975D-04
 -0.70860002D-15 -0.12350194D-13  0.63422159D-04  0.10111984D-14 -0.15300801D-03
 -0.27595624D-03 -0.40689731D-03  0.93118044D-04 -0.35305416D-03 -0.77374561D-05
 -0.39530884D-15  0.36827840D-03 -0.22542550D-03  0.28817839D-15 -0.61238192D-04
  0.12602714D-03 -0.28577765D-15 -0.84285321D-05 -0.81549595D-04  0.12250899D-03
 -0.14275352D-03  0.20244533D-04 -0.99543948D-15  0.99474908D-15  0.41847595D-03
  0.36231526D-05  0.16037007D-05 -0.52268533D-05  0.20018442D-15 -0.50780045D-15
 -0.53606912D-05 -0.15300801D-03 -0.27595624D-03 -0.40689731D-03  0.93118043D-04
 -0.35305416D-03 -0.77374561D-05  0.80905759D-15 -0.36827840D-03 -0.22542550D-03
 -0.11072462D-14  0.61238192D-04  0.12602714D-03 -0.24310133D-15  0.84285321D-05
 -0.81549595D-04  0.12250899D-03 -0.14275352D-03  0.20244533D-04  0.10424681D-14
  0.11795626D-14 -0.41847595D-03  0.36231526D-05  0.16037007D-05 -0.52268533D-05
 -0.32254960D-15 -0.13725047D-15  0.53606912D-05
MO    3     MO 0.0        OCC NO =    1.9804448  ORB. ENERGY =    0.000000
 -0.96600902D-01 -0.18004820D+00 -0.30529702D+00 -0.46203458D+00 -0.57635172D+00
 -0.49459552D+00 -0.18940381D+00 -0.16862339D-02 -0.18092183D-01 -0.66691194D-01
 -0.19500114D+00 -0.23498585D+00  0.28306536D+00  0.14968004D+00  0.75880530D-01
  0.43758836D-02 -0.62653768D-13 -0.60753079D-13 -0.40983668D-13  0.30707158D-11
  0.29775614D-11  0.20086453D-11  0.88215752D-02  0.85539606D-02  0.57704513D-02
 -0.16008942D-13  0.71717127D-12 -0.56866973D-02 -0.14707444D-14 -0.65739471D-14
  0.80304214D-02 -0.11446479D-15 -0.74532070D-14  0.88369457D-04 -0.14154794D-01
 -0.15157324D-01  0.29312118D-01  0.14403837D-13  0.20772935D-13 -0.32134644D-12
 -0.41714197D-02 -0.50398964D-02  0.92113162D-02 -0.18806921D-14 -0.28947012D-14
 -0.40512302D-13  0.42850413D-03  0.49878956D-03 -0.92729368D-03 -0.24484372D-15
  0.24097657D-15  0.43320238D-13  0.15109084D-14 -0.46097760D-13 -0.87320044D-02
 -0.66373095D-15 -0.30749459D-14  0.13997473D-01 -0.38689942D-14  0.14136822D-12
  0.12198540D-01 -0.16382713D-13 -0.52972951D-15  0.59055422D-14 -0.36984156D-03
 -0.33543041D-17  0.72748464D-14  0.42626971D-04  0.15925428D-14 -0.24991473D-13
  0.10668977D-02  0.21827293D-14 -0.27845739D-01 -0.51910068D-01 -0.87735087D-01
 -0.13188220D+00 -0.16199366D+00 -0.13671694D+00 -0.51409138D-01 -0.58694407D-03
 -0.43870433D-02 -0.16395382D-01 -0.45740564D-01 -0.61279745D-01  0.72359953D-01
  0.29852799D-01  0.19247549D-01  0.43078640D-03 -0.19327900D-13 -0.18121135D-13
 -0.12903327D-13  0.13929750D-11  0.13060026D-11  0.92995167D-12  0.99778750D-01
  0.93548921D-01  0.66612405D-01 -0.53000892D-14  0.42198697D-12  0.58918686D-02
  0.22498698D-14  0.21751026D-12 -0.39083613D-02  0.87958251D-16  0.14413648D-13
 -0.53840207D-04 -0.18042604D-01 -0.74116127D-02  0.25454217D-01  0.22416644D-14
 -0.48768313D-14  0.60154847D-14 -0.31634293D-02  0.25451611D-02  0.61826824D-03
 -0.10823596D-14 -0.32073456D-14 -0.14607302D-13  0.10197151D-04  0.47458628D-03
 -0.48478343D-03 -0.27152289D-15 -0.45709989D-15 -0.50298223D-14  0.10364544D-14
 -0.17824107D-13  0.42298143D-02  0.10747595D-14 -0.14694528D-13 -0.92769241D-03
 -0.41841226D-14  0.68166848D-13 -0.11761751D-01 -0.10716754D-14 -0.15985934D-15
 -0.12080305D-13 -0.39652105D-05 -0.12012652D-15 -0.10928504D-13  0.41492876D-03
  0.59970455D-15  0.47169418D-13 -0.40303313D-03  0.14620564D-14  0.66344254D-02
  0.11965459D-01  0.17643063D-01  0.14862539D-03 -0.57781092D-02 -0.79930734D-04
  0.49212196D-15 -0.30114765D-02  0.23813566D-02 -0.15833572D-15  0.41154490D-02
 -0.40365398D-02 -0.69662744D-15  0.56545737D-03 -0.14398557D-02  0.46246330D-03
 -0.10218001D-02  0.55933676D-03 -0.12388954D-14 -0.66701255D-15  0.18376822D-02
  0.33136466D-03 -0.78621222D-04 -0.25274343D-03  0.87579498D-15  0.20546380D-15
  0.94322722D-03  0.66344254D-02  0.11965459D-01  0.17643063D-01  0.14862539D-03
 -0.57781092D-02 -0.79930734D-04  0.13623079D-14  0.30114765D-02  0.23813566D-02
 -0.36003855D-14 -0.41154490D-02 -0.40365398D-02 -0.18797081D-14 -0.56545737D-03
 -0.14398557D-02  0.46246330D-03 -0.10218001D-02  0.55933676D-03  0.13616730D-14
  0.61713319D-15 -0.18376822D-02  0.33136466D-03 -0.78621222D-04 -0.25274343D-03
 -0.21532081D-14 -0.17525421D-15 -0.94322722D-03
MO    4     MO 0.0        OCC NO =    1.9669345  ORB. ENERGY =    0.000000
  0.36285639D-01  0.67630465D-01  0.11467696D+00  0.17355138D+00  0.21649167D+00
  0.18578206D+00  0.71144659D-01  0.69149766D-03  0.74193161D-02  0.27348996D-01
  0.79966860D-01  0.96363955D-01 -0.11608060D+00 -0.65822896D-01 -0.53053791D-01
 -0.28126665D-02  0.57203333D-13  0.55467991D-13  0.37418379D-13 -0.12492314D-10
 -0.12113343D-10 -0.81715894D-11 -0.63188758D+00 -0.61271840D+00 -0.41333621D+00
  0.14037391D-13 -0.29909164D-11 -0.14176898D+00 -0.50383563D-14 -0.40602628D-12
 -0.14626682D-01 -0.23600788D-15 -0.32318820D-13 -0.10828690D-03 -0.18124383D-01
 -0.17826774D-01  0.35951157D-01 -0.64243652D-14 -0.19635421D-13  0.82173974D-12
 -0.32560424D-02 -0.36841347D-02  0.69401770D-02  0.90344694D-15  0.72686064D-14
  0.26205211D-12  0.99862984D-05 -0.12822786D-03  0.11824156D-03 -0.39966802D-15
  0.30291609D-14 -0.13530631D-13 -0.95891197D-15  0.99641277D-13 -0.55644568D-02
 -0.17048566D-14  0.23615867D-13  0.53730534D-02  0.45815925D-14 -0.32253970D-12
  0.11320317D-01 -0.57242101D-14  0.12237726D-14  0.13854926D-13 -0.86362170D-04
  0.11363064D-14 -0.17625519D-13 -0.28787947D-03 -0.48076243D-14 -0.23939258D-13
  0.54696599D-03  0.72609819D-15 -0.49471818D-01 -0.92225436D-01 -0.15587355D+00
 -0.23430702D+00 -0.28780421D+00 -0.24289660D+00 -0.91335464D-01 -0.12023466D-02
 -0.89867958D-02 -0.33585708D-01 -0.93698895D-01 -0.12553069D+00  0.14822833D+00
  0.64429558D-01  0.46767313D-01  0.10962981D-02  0.16817489D-13  0.15767465D-13
  0.11227375D-13 -0.30634333D-11 -0.28721634D-11 -0.20451515D-11 -0.12786922D+00
 -0.11988552D+00 -0.85365631D-01  0.11147376D-13 -0.10988306D-11 -0.34520212D-01
  0.32437649D-14 -0.53547405D-12 -0.58474286D-02  0.64713954D-16  0.65769204D-14
 -0.67608837D-05 -0.17290333D-01  0.15624773D-01  0.16655591D-02  0.15676042D-14
  0.50013441D-14 -0.24601149D-12 -0.45978037D-02  0.51119732D-02 -0.51416948D-03
 -0.58719493D-15  0.76021442D-14  0.18863430D-12 -0.98012492D-04  0.32985921D-04
  0.65026570D-04  0.11295462D-15  0.39031910D-15  0.57864391D-13 -0.14919110D-15
  0.11901461D-13  0.40280387D-02 -0.28483599D-14  0.98690747D-13  0.83246974D-03
  0.32959332D-14 -0.13439513D-12 -0.12916586D-01 -0.25517624D-14 -0.35084728D-15
  0.16594747D-14  0.32370939D-03 -0.24699962D-15  0.34514038D-13  0.62423071D-03
  0.12995415D-14 -0.39492462D-13 -0.15953589D-02  0.81629164D-15  0.24991112D-01
  0.45072499D-01  0.66459373D-01  0.27489189D-01 -0.42432877D-02 -0.92196775D-04
 -0.53335745D-15 -0.18419997D-01  0.89028441D-02  0.16215056D-14  0.11242800D-03
 -0.19748924D-02 -0.29075555D-15  0.13792703D-02 -0.54459293D-03 -0.16925061D-02
  0.22091099D-02 -0.51660382D-03  0.10356724D-14 -0.56176739D-15 -0.30727338D-02
  0.26241233D-03 -0.13137198D-03 -0.13104035D-03 -0.56931728D-15  0.20495844D-15
  0.57414137D-03  0.24991112D-01  0.45072499D-01  0.66459373D-01  0.27489189D-01
 -0.42432877D-02 -0.92196775D-04  0.71359610D-15  0.18419997D-01  0.89028441D-02
 -0.17674321D-15 -0.11242800D-03 -0.19748924D-02 -0.14190320D-15 -0.13792703D-02
 -0.54459293D-03 -0.16925061D-02  0.22091099D-02 -0.51660382D-03  0.16125753D-14
  0.55702317D-15  0.30727338D-02  0.26241233D-03 -0.13137198D-03 -0.13104035D-03
 -0.54271674D-16  0.32110198D-15 -0.57414137D-03
MO    5     MO 0.0        OCC NO =    1.9653723  ORB. ENERGY =    0.000000
  0.60065177D-12  0.11195161D-11  0.18982969D-11  0.28728706D-11  0.35836796D-11
  0.30753302D-11  0.11776881D-11  0.10701511D-13  0.11482019D-12  0.42324884D-12
  0.12375548D-11  0.14913137D-11 -0.17964454D-11 -0.10101160D-11 -0.14413142D-11
 -0.54331927D-12 -0.12593555D-13 -0.12211513D-13 -0.82378142D-14  0.13177681D+01
  0.12777918D+01  0.86199079D+00 -0.53911915D-11 -0.52276423D-11 -0.35265366D-11
 -0.86127541D-14  0.31144584D+00 -0.96272619D-12 -0.52339990D-14  0.49939073D-01
  0.42943467D-13 -0.40966140D-15  0.15608091D-02  0.39880151D-13 -0.11959302D-12
 -0.99594165D-13  0.21918719D-12  0.31176386D-14 -0.13596275D-13 -0.98635403D-01
  0.19405224D-13  0.15802277D-13 -0.35207501D-13 -0.92666751D-16  0.71922807D-14
 -0.27921175D-01 -0.69618288D-14 -0.33497098D-14  0.10311539D-13 -0.75339946D-15
  0.18783215D-14 -0.26128530D-02  0.10037352D-14 -0.12762958D-01 -0.41648542D-14
 -0.49906513D-14  0.26184414D-03 -0.17837949D-13  0.19794456D-14  0.38027030D-01
  0.30332511D-13 -0.12229862D-13  0.37457861D-15 -0.95918996D-03 -0.40028018D-14
  0.15385033D-14  0.43713695D-03  0.51361269D-14 -0.26622391D-14  0.24404329D-02
  0.68722786D-14  0.26949146D-14 -0.37423436D-12 -0.69764825D-12 -0.11791206D-11
 -0.17724382D-11 -0.21771228D-11 -0.18374148D-11 -0.69091597D-12 -0.82498331D-14
 -0.61662392D-13 -0.23044644D-12 -0.64290968D-12 -0.86132172D-12  0.10170603D-11
  0.42402756D-12  0.34750082D-12  0.59645736D-13 -0.60517665D-14 -0.56739158D-14
 -0.40401661D-14  0.40873727D+00  0.38321717D+00  0.27287346D+00 -0.15113537D-11
 -0.14169902D-11 -0.10089814D-11 -0.96674575D-15  0.10621040D+00 -0.62085209D-13
 -0.15333671D-14  0.64504091D-02  0.29324322D-12 -0.18789699D-17 -0.32708916D-03
  0.13853036D-14 -0.88628828D-13  0.16387726D-12 -0.75248433D-13 -0.19056500D-14
 -0.43398065D-15  0.26132429D-01 -0.50230404D-13 -0.11297308D-12  0.16320348D-12
  0.40196868D-15  0.71001873D-14 -0.40059433D-02 -0.38962542D-14 -0.53527702D-13
  0.57423956D-13  0.15663788D-15  0.80394509D-15 -0.88714308D-03 -0.18654596D-15
 -0.37953790D-02  0.48260390D-13 -0.30152014D-14 -0.54629067D-02 -0.44846382D-13
  0.35748393D-14  0.16849044D-01 -0.99934788D-13  0.80449054D-15  0.96635026D-16
 -0.36105639D-03  0.13338556D-13 -0.12179828D-14 -0.32323899D-03 -0.27814472D-13
  0.92807775D-15  0.14064082D-02 -0.12201195D-13  0.12576302D-14  0.18952946D-01
  0.34182418D-01  0.50401955D-01  0.20144140D-01 -0.14326505D-02  0.34483613D-03
 -0.28143919D-14 -0.11802352D-01  0.13917907D-01  0.47907612D-14  0.55672328D-02
  0.17482899D-02  0.11092893D-14  0.48309642D-03  0.61395510D-03 -0.18094203D-02
 -0.13794531D-02  0.31888734D-02 -0.18230690D-14  0.26571110D-14 -0.83464502D-02
  0.32296847D-03 -0.47410298D-03  0.15113451D-03 -0.15975589D-14  0.52302889D-15
  0.88109628D-03 -0.18952946D-01 -0.34182418D-01 -0.50401955D-01 -0.20144140D-01
  0.14326505D-02 -0.34483613D-03 -0.22924256D-14 -0.11802352D-01 -0.13917907D-01
  0.34805028D-14  0.55672328D-02 -0.17482899D-02  0.14446345D-14  0.48309642D-03
 -0.61395510D-03  0.18094203D-02  0.13794531D-02 -0.31888734D-02  0.11285845D-14
  0.80738894D-15 -0.83464502D-02 -0.32296847D-03  0.47410298D-03 -0.15113451D-03
  0.12040661D-14  0.10672076D-14  0.88109628D-03
MO    6     MO 0.0        OCC NO =    1.9596243  ORB. ENERGY =    0.000000
  0.14129996D-02  0.26335989D-02  0.44656370D-02  0.67582668D-02  0.84304051D-02
  0.72345418D-02  0.27704452D-02 -0.42180397D-04 -0.45256798D-03 -0.16682508D-02
 -0.48778674D-02 -0.58780674D-02  0.70807551D-02  0.88750735D-02  0.29237961D-01
  0.63553723D-02 -0.24180234D-13 -0.23446693D-13 -0.15817001D-13  0.24490080D-10
  0.23747139D-10  0.16019680D-10  0.13972805D+01  0.13548920D+01  0.91400217D+00
 -0.77604916D-14  0.57755818D-11  0.32394373D+00 -0.58655768D-14  0.66744779D-12
  0.39127587D-01  0.70785558D-16  0.35494606D-13  0.16957078D-03  0.42088190D-01
  0.43881722D-01 -0.85969912D-01  0.94297351D-14 -0.13667594D-13 -0.35365994D-12
  0.10589000D-01  0.11966379D-01 -0.22555379D-01 -0.17430211D-14  0.90301076D-14
  0.34132073D-13  0.31919843D-03  0.53786002D-03 -0.85705846D-03  0.56197681D-15
  0.20076190D-14  0.13942021D-12 -0.23511442D-14 -0.95432388D-13  0.15970168D-01
  0.17674924D-14  0.15416696D-12 -0.16181652D-01  0.52859403D-14  0.13213020D-12
 -0.31728851D-01  0.63416577D-14  0.10470483D-14  0.37542394D-14  0.20509033D-02
  0.68115435D-15  0.16555471D-13 -0.25232788D-02 -0.38222992D-14 -0.27818189D-13
 -0.36294310D-02 -0.28783327D-15  0.66080437D-02  0.12318725D-01  0.20820323D-01
  0.31296829D-01  0.38442549D-01  0.32444155D-01  0.12199850D-01  0.12236024D-03
  0.91456702D-03  0.34179458D-02  0.95355365D-02  0.12774990D-01 -0.15084881D-01
 -0.81187961D-02  0.15009823D-01  0.42517316D-04 -0.13300816D-13 -0.12470360D-13
 -0.88796395D-14 -0.76051278D-11 -0.71302907D-11 -0.50771918D-11 -0.51889303D+00
 -0.48649519D+00 -0.34641356D+00  0.37223821D-14 -0.18867747D-11 -0.10808848D+00
  0.19343926D-14  0.58340069D-12 -0.86609475D-02 -0.47411436D-16  0.21735623D-13
 -0.42679728D-04  0.84275593D-02  0.27981404D-01 -0.36408964D-01  0.10337169D-15
  0.12065807D-14  0.22611450D-11  0.33177184D-03  0.24830636D-02 -0.28148355D-02
  0.77655404D-15  0.41187795D-14  0.60725912D-12 -0.15430906D-03  0.15677605D-03
 -0.24669902D-05 -0.27918735D-15 -0.27627867D-16  0.81708043D-14 -0.75057135D-15
 -0.91132008D-13 -0.57383741D-02 -0.60135586D-15  0.67807464D-13  0.61322855D-02
  0.28530699D-14  0.20558856D-12  0.11082837D-01  0.14538533D-14 -0.43629057D-15
 -0.35123525D-13  0.71391807D-03  0.96249271D-16 -0.47404705D-13 -0.15688378D-03
  0.12126224D-14  0.15277528D-12 -0.19848704D-02 -0.55612200D-15  0.17504049D-01
  0.31569273D-01  0.46548874D-01  0.29867685D-01  0.67756096D-03  0.94825690D-05
  0.13018968D-14 -0.16904248D-01  0.28976678D-02 -0.16267986D-14 -0.56663976D-02
  0.66434682D-03 -0.17705465D-15  0.28428287D-03 -0.26311153D-03 -0.13543389D-02
  0.52587982D-02 -0.39044593D-02  0.48739288D-15 -0.14739930D-14 -0.39688898D-02
 -0.54901194D-03  0.11704831D-04  0.53730711D-03  0.50267857D-15  0.19609777D-15
  0.16640478D-04  0.17504049D-01  0.31569273D-01  0.46548874D-01  0.29867685D-01
  0.67756097D-03  0.94825692D-05  0.89731837D-15  0.16904248D-01  0.28976678D-02
 -0.45954881D-15  0.56663976D-02  0.66434682D-03 -0.88444980D-15 -0.28428287D-03
 -0.26311153D-03 -0.13543389D-02  0.52587982D-02 -0.39044593D-02 -0.10447373D-14
 -0.30527559D-16  0.39688898D-02 -0.54901194D-03  0.11704831D-04  0.53730711D-03
 -0.20958025D-15 -0.72376307D-16 -0.16640478D-04
MO    7     MO 0.0        OCC NO =    1.9569903  ORB. ENERGY =    0.000000
 -0.46722230D-13 -0.87082554D-13 -0.14766071D-12 -0.22346878D-12 -0.27875969D-12
 -0.23921729D-12 -0.91607512D-13  0.35349759D-15  0.37927972D-14  0.13980965D-13
  0.40879520D-13  0.49261810D-13 -0.59341070D-13 -0.13745502D-12 -0.20657532D-11
 -0.98414525D-12  0.12857839D-14  0.12467779D-14  0.84106898D-15  0.11930203D+01
  0.11568283D+01  0.78038956D+00 -0.29631208D-10 -0.28732304D-10 -0.19382643D-10
 -0.57882592D-14  0.28160914D+00 -0.65077056D-11 -0.15479108D-14  0.50912283D-01
 -0.47799012D-12  0.41756275D-15  0.17286923D-02  0.59804460D-13 -0.91483048D-12
 -0.95072562D-12  0.18655561D-11  0.46233105D-14 -0.60963182D-14 -0.12693192D-01
 -0.16738337D-12 -0.19399547D-12  0.36137884D-12  0.14083220D-16  0.61349149D-14
 -0.32565257D-02 -0.34083417D-13 -0.54017772D-14  0.39485195D-13 -0.95919371D-15
  0.26924084D-15 -0.73457165D-03 -0.40760565D-15 -0.43964608D-02 -0.29098683D-12
  0.16157180D-14  0.89231986D-02  0.23946949D-12 -0.39290106D-15  0.42661838D-02
  0.63349101D-12 -0.58665579D-14  0.23147033D-15 -0.32508956D-03 -0.54542704D-13
  0.78229492D-15 -0.35083303D-03  0.90257653D-13 -0.14767059D-14  0.13261017D-02
  0.73370460D-13  0.16401433D-14 -0.19004771D-12 -0.35428723D-12 -0.59879368D-12
 -0.90009858D-12 -0.11056099D-11 -0.93309575D-12 -0.35086837D-12 -0.40376137D-14
 -0.30178661D-13 -0.11278455D-12 -0.31465133D-12 -0.42154603D-12  0.49776726D-12
  0.61217507D-13  0.13182567D-11  0.25269415D-12 -0.28254932D-14 -0.26490795D-14
 -0.18863024D-14 -0.36125291D+00 -0.33869756D+00 -0.24117284D+00  0.10683834D-10
  0.10016773D-10  0.71325394D-11 -0.99691346D-17 -0.98869554D-01  0.23007303D-11
 -0.52633445D-15 -0.25942595D-01  0.56073427D-12 -0.93784848D-16 -0.51003537D-03
  0.41703825D-14 -0.12364183D-12 -0.59678853D-12  0.72043036D-12  0.38927185D-15
  0.13594145D-15  0.10966156D+00 -0.25412252D-12 -0.26342802D-13  0.28046532D-12
  0.63806499D-16  0.36995328D-14  0.31635677D-01 -0.16751549D-13 -0.64914980D-13
  0.81666529D-13  0.47807497D-15 -0.24456476D-15  0.33835553D-02 -0.23865198D-15
 -0.37093346D-02  0.17222800D-12 -0.11921722D-14  0.26906366D-02 -0.14489949D-12
  0.19081281D-14  0.84373674D-02 -0.37178451D-12 -0.16906963D-14  0.33734914D-16
 -0.59936784D-03  0.43610331D-13 -0.88710969D-15  0.82406751D-03 -0.18243087D-13
  0.78590495D-15  0.97403601D-03 -0.11258791D-12  0.19490116D-14 -0.34366281D-01
 -0.61981002D-01 -0.91390952D-01 -0.51355782D-01  0.11425818D-01  0.45508067D-03
 -0.23484752D-14  0.15106865D-01 -0.10360316D-01  0.35255709D-14 -0.32607446D-02
  0.20146546D-02 -0.60560202D-15 -0.35454380D-02  0.16632204D-02  0.68892081D-03
 -0.15562764D-02  0.86735561D-03 -0.67423175D-15  0.12376668D-14  0.30365415D-02
  0.13503730D-04  0.35461811D-03 -0.36812184D-03 -0.47777579D-15  0.14626357D-17
  0.81968520D-04  0.34366281D-01  0.61981002D-01  0.91390952D-01  0.51355782D-01
 -0.11425818D-01 -0.45508067D-03 -0.96255755D-15  0.15106865D-01  0.10360316D-01
  0.12856708D-14 -0.32607447D-02 -0.20146546D-02  0.62529487D-15 -0.35454380D-02
 -0.16632204D-02 -0.68892081D-03  0.15562764D-02 -0.86735561D-03  0.21251734D-14
  0.73293542D-16  0.30365415D-02 -0.13503730D-04 -0.35461811D-03  0.36812184D-03
 -0.19698670D-15  0.12874499D-14  0.81968520D-04
MO    8     MO 0.0        OCC NO =    1.9211200  ORB. ENERGY =    0.000000
  0.87362312D-14  0.16282898D-13  0.27609943D-13  0.41784712D-13  0.52123135D-13
  0.44729404D-13  0.17128986D-13 -0.29900072D-16 -0.32080815D-15 -0.11825592D-14
 -0.34577338D-14 -0.41667374D-14  0.50192767D-14  0.12873255D-13  0.32147516D-13
  0.73085869D-14  0.13781741D+01  0.13363653D+01  0.90150415D+00  0.35842704D-13
  0.34755366D-13  0.23445764D-13  0.68987518D-13  0.66894687D-13  0.45126761D-13
  0.33225017D+00 -0.35252193D-14  0.55364295D-14  0.48658371D-01 -0.60728055D-13
 -0.23946636D-13  0.90162746D-03 -0.37251496D-15 -0.97957785D-15  0.44044837D-14
  0.13064373D-13 -0.17468857D-13  0.65437869D-14 -0.12181078D+00 -0.37618772D-13
 -0.47923528D-14 -0.76402296D-14  0.12432582D-13 -0.43532528D-15 -0.36941141D-01
  0.27657484D-13 -0.27872936D-14 -0.17647062D-14  0.45519998D-14 -0.12890680D-14
 -0.23750250D-02  0.23204959D-13 -0.58916067D-02 -0.15669068D-14  0.15371574D-14
 -0.22153999D-01 -0.37970798D-14 -0.39022812D-14  0.39828819D-01  0.84978001D-14
 -0.70919100D-15 -0.54458233D-14 -0.36163543D-03  0.25789779D-14 -0.31560851D-14
 -0.15484138D-02  0.40630717D-14  0.48419304D-14  0.26333201D-02 -0.11800005D-13
  0.46263248D-14  0.36148337D-14 -0.12003533D-13 -0.22377004D-13 -0.37820185D-13
 -0.56850792D-13 -0.69831016D-13 -0.58934914D-13 -0.22161067D-13 -0.34285809D-16
 -0.25626518D-15 -0.95772150D-15 -0.26718939D-14 -0.35796011D-14  0.42268415D-14
 -0.10960697D-13  0.16171050D-13 -0.82116526D-15  0.41415371D+00  0.38829543D+00
  0.27648948D+00 -0.10711479D-13 -0.10042692D-13 -0.71509952D-14  0.68417937D-14
  0.64146165D-14  0.45675891D-14  0.10674410D+00  0.50897249D-13 -0.51933631D-13
  0.12782547D-01  0.13803820D-12 -0.65834026D-14  0.41361872D-04  0.25312654D-14