 h2co-wavefunction
GAUSSIAN            138 MOL ORBITALS    198 PRIMITIVES        4 NUCLEI
  O    1    (CENTRE  1)   0.00000000  0.00000000  1.28360026  CHARGE =  8.0
  C    2    (CENTRE  2)   0.00000000  0.00000000 -0.99571749  CHARGE =  6.0
  H    3    (CENTRE  3)   0.00000000  1.76994395 -2.09120873  CHARGE =  1.0
  H    4    (CENTRE  4)   0.00000000 -1.78884121 -2.09120873  CHARGE =  1.0
CENTRE ASSIGNMENTS    1  1  1  1  1  1  1  1  1  1  1  1  1  1  1  1  1  1  1  1
CENTRE ASSIGNMENTS    1  1  1  1  1  1  1  1  1  1  1  1  1  1  1  1  1  1  1  1
CENTRE ASSIGNMENTS    1  1  1  1  1  1  1  1  1  1  1  1  1  1  1  1  1  1  1  1
CENTRE ASSIGNMENTS    1  1  1  1  1  1  1  1  1  1  1  1  2  2  2  2  2  2  2  2
CENTRE ASSIGNMENTS    2  2  2  2  2  2  2  2  2  2  2  2  2  2  2  2  2  2  2  2
CENTRE ASSIGNMENTS    2  2  2  2  2  2  2  2  2  2  2  2  2  2  2  2  2  2  2  2
CENTRE ASSIGNMENTS    2  2  2  2  2  2  2  2  2  2  2  2  2  2  2  2  2  2  2  2
CENTRE ASSIGNMENTS    2  2  2  2  3  3  3  3  3  3  3  3  3  3  3  3  3  3  3  3
CENTRE ASSIGNMENTS    3  3  3  3  3  3  3  3  3  3  3  4  4  4  4  4  4  4  4  4
CENTRE ASSIGNMENTS    4  4  4  4  4  4  4  4  4  4  4  4  4  4  4  4  4  4
TYPE ASSIGNMENTS      1  1  1  1  1  1  1  1  1  1  1  1  1  1  1  1  2  2  2  3
TYPE ASSIGNMENTS      3  3  4  4  4  2  3  4  2  3  4  2  3  4  5  6  7  8  9 10
TYPE ASSIGNMENTS      5  6  7  8  9 10  5  6  7  8  9 10 11 12 13 17 14 15 18 19
TYPE ASSIGNMENTS     16 20 11 12 13 17 14 15 18 19 16 20  1  1  1  1  1  1  1  1
TYPE ASSIGNMENTS      1  1  1  1  1  1  1  1  2  2  2  3  3  3  4  4  4  2  3  4
TYPE ASSIGNMENTS      2  3  4  2  3  4  5  6  7  8  9 10  5  6  7  8  9 10  5  6
TYPE ASSIGNMENTS      7  8  9 10 11 12 13 17 14 15 18 19 16 20 11 12 13 17 14 15
TYPE ASSIGNMENTS     18 19 16 20  1  1  1  1  1  1  2  3  4  2  3  4  2  3  4  5
TYPE ASSIGNMENTS      6  7  8  9 10  5  6  7  8  9 10  1  1  1  1  1  1  2  3  4
TYPE ASSIGNMENTS      2  3  4  2  3  4  5  6  7  8  9 10  5  6  7  8  9 10
EXPONENTS  0.1533000D+05 0.2299000D+04 0.5224000D+03 0.1473000D+03 0.4755000D+02
EXPONENTS  0.1676000D+02 0.6207000D+01 0.5224000D+03 0.1473000D+03 0.4755000D+02
EXPONENTS  0.1676000D+02 0.6207000D+01 0.6882000D+00 0.1752000D+01 0.2384000D+00
EXPONENTS  0.7376000D-01 0.3446000D+02 0.7749000D+01 0.2280000D+01 0.3446000D+02
EXPONENTS  0.7749000D+01 0.2280000D+01 0.3446000D+02 0.7749000D+01 0.2280000D+01
EXPONENTS  0.7156000D+00 0.7156000D+00 0.7156000D+00 0.2140000D+00 0.2140000D+00
EXPONENTS  0.2140000D+00 0.5974000D-01 0.5974000D-01 0.5974000D-01 0.2314000D+01
EXPONENTS  0.2314000D+01 0.2314000D+01 0.2314000D+01 0.2314000D+01 0.2314000D+01
EXPONENTS  0.6450000D+00 0.6450000D+00 0.6450000D+00 0.6450000D+00 0.6450000D+00
EXPONENTS  0.6450000D+00 0.2140000D+00 0.2140000D+00 0.2140000D+00 0.2140000D+00
EXPONENTS  0.2140000D+00 0.2140000D+00 0.1428000D+01 0.1428000D+01 0.1428000D+01
EXPONENTS  0.1428000D+01 0.1428000D+01 0.1428000D+01 0.1428000D+01 0.1428000D+01
EXPONENTS  0.1428000D+01 0.1428000D+01 0.5000000D+00 0.5000000D+00 0.5000000D+00
EXPONENTS  0.5000000D+00 0.5000000D+00 0.5000000D+00 0.5000000D+00 0.5000000D+00
EXPONENTS  0.5000000D+00 0.5000000D+00 0.8236000D+04 0.1235000D+04 0.2808000D+03
EXPONENTS  0.7927000D+02 0.2559000D+02 0.8997000D+01 0.3319000D+01 0.2808000D+03
EXPONENTS  0.7927000D+02 0.2559000D+02 0.8997000D+01 0.3319000D+01 0.3643000D+00
EXPONENTS  0.9059000D+00 0.1285000D+00 0.4402000D-01 0.1871000D+02 0.4133000D+01
EXPONENTS  0.1200000D+01 0.1871000D+02 0.4133000D+01 0.1200000D+01 0.1871000D+02
EXPONENTS  0.4133000D+01 0.1200000D+01 0.3827000D+00 0.3827000D+00 0.3827000D+00
EXPONENTS  0.1209000D+00 0.1209000D+00 0.1209000D+00 0.3569000D-01 0.3569000D-01
EXPONENTS  0.3569000D-01 0.1097000D+01 0.1097000D+01 0.1097000D+01 0.1097000D+01
EXPONENTS  0.1097000D+01 0.1097000D+01 0.3180000D+00 0.3180000D+00 0.3180000D+00
EXPONENTS  0.3180000D+00 0.3180000D+00 0.3180000D+00 0.1000000D+00 0.1000000D+00
EXPONENTS  0.1000000D+00 0.1000000D+00 0.1000000D+00 0.1000000D+00 0.7610000D+00
EXPONENTS  0.7610000D+00 0.7610000D+00 0.7610000D+00 0.7610000D+00 0.7610000D+00
EXPONENTS  0.7610000D+00 0.7610000D+00 0.7610000D+00 0.7610000D+00 0.2680000D+00
EXPONENTS  0.2680000D+00 0.2680000D+00 0.2680000D+00 0.2680000D+00 0.2680000D+00
EXPONENTS  0.2680000D+00 0.2680000D+00 0.2680000D+00 0.2680000D+00 0.3387000D+02
EXPONENTS  0.5095000D+01 0.1159000D+01 0.3258000D+00 0.1027000D+00 0.2526000D-01
EXPONENTS  0.1407000D+01 0.1407000D+01 0.1407000D+01 0.3880000D+00 0.3880000D+00
EXPONENTS  0.3880000D+00 0.1020000D+00 0.1020000D+00 0.1020000D+00 0.1057000D+01
EXPONENTS  0.1057000D+01 0.1057000D+01 0.1057000D+01 0.1057000D+01 0.1057000D+01
EXPONENTS  0.2470000D+00 0.2470000D+00 0.2470000D+00 0.2470000D+00 0.2470000D+00
EXPONENTS  0.2470000D+00 0.3387000D+02 0.5095000D+01 0.1159000D+01 0.3258000D+00
EXPONENTS  0.1027000D+00 0.2526000D-01 0.1407000D+01 0.1407000D+01 0.1407000D+01
EXPONENTS  0.3880000D+00 0.3880000D+00 0.3880000D+00 0.1020000D+00 0.1020000D+00
EXPONENTS  0.1020000D+00 0.1057000D+01 0.1057000D+01 0.1057000D+01 0.1057000D+01
EXPONENTS  0.1057000D+01 0.1057000D+01 0.2470000D+00 0.2470000D+00 0.2470000D+00
EXPONENTS  0.2470000D+00 0.2470000D+00 0.2470000D+00
MO    1     MO 0.0        OCC NO =    2.0000076  ORB. ENERGY =    0.000000
 -0.26794796D+00 -0.49941095D+00 -0.84682144D+00 -0.12815742D+01 -0.15986628D+01
 -0.13718905D+01 -0.52536119D+00 -0.36332600D-04 -0.38982496D-03 -0.14369682D-02
 -0.42016107D-02 -0.50631452D-02  0.60990950D-02 -0.23798225D-01  0.67415147D-03
  0.10633044D-04 -0.52930485D-13 -0.51324765D-13 -0.34623383D-13  0.33761093D-05
  0.32736903D-05  0.22084122D-05  0.14678973D-01  0.14233666D-01  0.96019468D-02
 -0.18062855D-13  0.27897444D-05  0.18856275D-02 -0.16831843D-13  0.38402732D-05
  0.63875995D-03 -0.75713925D-15  0.14325806D-06  0.84733971D-05  0.92841144D-03
  0.11334353D-03 -0.10417550D-02 -0.10437939D-14 -0.14728607D-13  0.27239462D-05
  0.22994958D-03  0.11868996D-03 -0.34863955D-03  0.22683137D-15  0.19336111D-13
  0.35375706D-05  0.63167805D-04  0.11142697D-04 -0.74310502D-04  0.14849000D-14
  0.70031943D-14 -0.99316087D-06 -0.33930347D-14  0.14173532D-05 -0.11132699D-03
 -0.11064009D-14 -0.20786507D-05  0.45470321D-03  0.11285505D-13 -0.21734089D-05
 -0.12072225D-03  0.59097810D-14  0.23506253D-14  0.99548611D-07  0.10433334D-03
  0.31776087D-14  0.15005447D-05 -0.16997414D-03 -0.10229485D-13 -0.17991905D-05
 -0.14302588D-03 -0.32250776D-14  0.27667973D+00  0.51578675D+00  0.87174988D+00
  0.13104027D+01  0.16095950D+01  0.13584414D+01  0.51080943D+00  0.32338099D-04
  0.24170726D-03  0.90331521D-03  0.25201088D-02  0.33762510D-02 -0.39867229D-02
  0.22715191D-01  0.53325922D-03  0.12464300D-03 -0.26099484D-13 -0.24469925D-13
 -0.17424044D-13 -0.48469663D-04 -0.45443390D-04 -0.32358401D-04  0.20238135D-02
  0.18974538D-02  0.13511001D-02  0.82556864D-14  0.29256918D-04  0.26172407D-03
  0.37091385D-14  0.15107838D-05 -0.99872722D-04  0.68975668D-16 -0.39569398D-08
 -0.35106527D-05 -0.12108083D-02  0.23034885D-03  0.98045943D-03  0.10443512D-14
 -0.41587912D-14 -0.32466911D-04  0.14486232D-03  0.16928216D-04 -0.16179053D-03
 -0.28195713D-15  0.15509897D-13 -0.93588709D-05 -0.59831395D-05  0.18737903D-04
 -0.12754763D-04 -0.43264471D-15  0.10392850D-14 -0.12404859D-07 -0.10971282D-14
 -0.10042337D-05  0.54837840D-03 -0.23259298D-14 -0.90557580D-05 -0.54408713D-04
  0.56173145D-14  0.12068459D-04 -0.15907265D-02  0.67480021D-15 -0.50487420D-15
  0.11118053D-05 -0.11380855D-03 -0.12264173D-14 -0.68809347D-06  0.43221897D-04
  0.27410399D-14 -0.26473226D-05  0.29820374D-03 -0.23624441D-14 -0.27512049D-03
 -0.49619113D-03 -0.73163353D-03 -0.24006742D-03 -0.45527507D-03 -0.12236706D-04
 -0.63070285D-15  0.77500190D-03 -0.52379399D-03  0.44925847D-15  0.22953946D-03
 -0.90413157D-04  0.71222889D-15  0.42562200D-04 -0.56200307D-04  0.22302133D-03
 -0.35563529D-03  0.13261396D-03  0.22203275D-14 -0.44843276D-15  0.88291436D-03
  0.47534222D-04 -0.13656804D-04 -0.33877418D-04 -0.18600213D-15  0.13318150D-14
 -0.25457988D-04 -0.26485810D-03 -0.47768248D-03 -0.70434254D-03 -0.18776077D-03
 -0.43931707D-03 -0.11752375D-04 -0.78858811D-15 -0.75552873D-03 -0.50594291D-03
  0.42462661D-14 -0.19633049D-03 -0.64198126D-04 -0.31478062D-15 -0.39901333D-04
 -0.53510867D-04  0.22492735D-03 -0.36094496D-03  0.13601761D-03 -0.37288665D-15
 -0.89565359D-15 -0.87157101D-03  0.44923957D-04 -0.11803445D-04 -0.33120512D-04
  0.75961389D-15  0.28819776D-16  0.29764491D-04
MO    2     MO 0.0        OCC NO =    2.0000041  ORB. ENERGY =    0.000000
  0.42205908D+00  0.78664873D+00  0.13338735D+01  0.20186756D+01  0.25181388D+01
  0.21609377D+01  0.82752433D+00  0.49575184D-04  0.53190919D-03  0.19607174D-02
  0.57330228D-02  0.69085712D-02 -0.83221061D-02  0.38558398D-01 -0.65931082D-03
 -0.84038593D-04  0.41532568D-14  0.40272620D-14  0.27167672D-14  0.20850419D-04
  0.20217892D-04  0.13638871D-04 -0.10946436D-01 -0.10614360D-01 -0.71603848D-02
 -0.40351908D-16  0.44474285D-05  0.14540110D-02 -0.51857968D-14  0.29487106D-05
  0.10675553D-03 -0.90918288D-16 -0.20792282D-07  0.22052921D-05 -0.99091502D-03
 -0.59985714D-04  0.10509007D-02 -0.35987525D-14 -0.29208333D-13  0.45232719D-06
  0.34807561D-03  0.53631888D-03 -0.88439450D-03  0.11069324D-14  0.80443391D-14
  0.15186588D-05  0.33955671D-04 -0.64694514D-06 -0.33308726D-04  0.82956627D-15
  0.22423929D-14 -0.58221794D-06 -0.21712801D-14  0.26239782D-06  0.10899532D-03
 -0.84826952D-15 -0.11964141D-05 -0.23901037D-03  0.73621100D-14  0.40922067D-06
 -0.87975604D-04  0.80558836D-14  0.90360458D-15  0.76165430D-07  0.12817861D-03
  0.14926743D-14  0.76662446D-06 -0.16669357D-03 -0.42034881D-14 -0.99512075D-06
 -0.21784227D-03 -0.19679571D-14  0.17554676D+00  0.32725453D+00  0.55310474D+00
  0.83141958D+00  0.10212500D+01  0.86189901D+00  0.32409653D+00  0.17450200D-04
  0.13042943D-03  0.48744456D-03  0.13598944D-02  0.18218836D-02 -0.21513048D-02
  0.14477699D-01  0.50351423D-03  0.94653498D-04 -0.93326709D-15 -0.87499722D-15
 -0.62305015D-15 -0.29325137D-04 -0.27494180D-04 -0.19577494D-04  0.11394672D-02
  0.10683229D-02  0.76070958D-03  0.55168104D-14  0.10047499D-04  0.16063331D-02
  0.22751109D-14 -0.10605521D-05 -0.11038626D-04  0.12538864D-16  0.54131847D-07
  0.49682645D-06 -0.10219681D-02 -0.31292390D-03  0.13348920D-02  0.22025817D-15
  0.85056765D-15 -0.15280804D-04  0.15965944D-04 -0.26143831D-03  0.24547237D-03
  0.49046749D-15  0.56321970D-14 -0.16707786D-05 -0.20935758D-05  0.41481839D-04
 -0.39388263D-04 -0.15022633D-15  0.98148274D-16  0.33603646D-06 -0.45904819D-15
  0.29360355D-06  0.34772004D-03 -0.12685559D-14 -0.55301354D-05 -0.23051859D-03
  0.26457005D-14  0.46493248D-05 -0.81264154D-03 -0.67856973D-15 -0.19244028D-15
  0.70336160D-06 -0.89127388D-05 -0.46702901D-15 -0.70089841D-07 -0.38482103D-04
  0.10443499D-14 -0.20399950D-05  0.65220319D-04 -0.17748373D-14 -0.14829261D-03
 -0.26745183D-03 -0.39435756D-03  0.10566050D-03 -0.34635175D-03 -0.77552743D-05
  0.73348096D-15  0.34781763D-03 -0.21954424D-03 -0.12021094D-14 -0.70236033D-04
  0.12671425D-03 -0.27552206D-15 -0.98493926D-05 -0.82249263D-04  0.12522001D-03
 -0.13688152D-03  0.11661515D-04 -0.10131409D-14 -0.68737500D-15  0.41651620D-03
  0.26467566D-05  0.23752941D-05 -0.50220508D-05  0.56655159D-15  0.47016607D-15
 -0.54773933D-05 -0.14276641D-03 -0.25748510D-03 -0.37966162D-03  0.12267720D-03
 -0.34493502D-03 -0.72910855D-05 -0.67902839D-15 -0.33727201D-03 -0.21142905D-03
  0.20676377D-14  0.82847719D-04  0.14010290D-03 -0.41117101D-15  0.92498586D-05
 -0.80160061D-04  0.12502620D-03 -0.13949951D-03  0.14473311D-04  0.57193106D-15
 -0.16191075D-14 -0.40915562D-03  0.13908786D-05  0.30641570D-05 -0.44550356D-05
  0.21384180D-15 -0.58838706D-16  0.88710026D-05
MO    3     MO 0.0        OCC NO =    1.9805491  ORB. ENERGY =    0.000000
 -0.96737266D-01 -0.18030236D+00 -0.30572799D+00 -0.46268680D+00 -0.57716531D+00
 -0.49529370D+00 -0.18967118D+00 -0.16864449D-02 -0.18094447D-01 -0.66699538D-01
 -0.19502554D+00 -0.23501526D+00  0.28310078D+00  0.14950923D+00  0.75471276D-01
  0.43615566D-02  0.12211000D-12  0.11840562D-12  0.79875733D-13  0.94377223D-04
  0.91514160D-04  0.61734911D-04 -0.20455055D-02 -0.19834523D-02 -0.13380252D-02
  0.28298183D-13  0.98030774D-05 -0.79868067D-02  0.10072565D-13  0.31771593D-05
  0.81293309D-02  0.55246803D-15  0.17444264D-05  0.95799885D-04 -0.14839250D-01
 -0.15859823D-01  0.30699073D-01 -0.46381220D-14 -0.16780643D-14 -0.89264930D-04
 -0.42566817D-02 -0.51100322D-02  0.93667138D-02  0.20620951D-14 -0.79642836D-14
  0.50083119D-06  0.46702447D-03  0.51437175D-03 -0.98139622D-03 -0.85741170D-15
 -0.26263807D-14 -0.62883775D-05 -0.12041465D-15  0.83837652D-06 -0.89178094D-02
  0.12007074D-14 -0.24655694D-05  0.14294927D-01 -0.83946348D-15 -0.49560192D-07
  0.12458501D-01 -0.69412917D-14 -0.52245621D-15  0.87645264D-06 -0.35528124D-03
 -0.16948418D-14  0.23532616D-05  0.17895983D-04  0.32622104D-14 -0.49826196D-05
  0.10479477D-02  0.12488769D-14 -0.28080270D-01 -0.52347281D-01 -0.88474036D-01
 -0.13299298D+00 -0.16335805D+00 -0.13786843D+00 -0.51842131D-01 -0.58926504D-03
 -0.44043911D-02 -0.16460215D-01 -0.45921437D-01 -0.61522065D-01  0.72646087D-01
  0.29888476D-01  0.18919986D-01  0.41961368D-03  0.39358468D-13  0.36901065D-13
  0.26275757D-13  0.95721268D-03  0.89744773D-03  0.63903625D-03  0.10670915D+00
  0.10004661D+00  0.71239144D-01  0.95969731D-14  0.52993448D-03  0.69073826D-02
  0.35643406D-14  0.91552087D-04 -0.39609909D-02  0.37003336D-16 -0.57113453D-07
 -0.55333363D-04 -0.18295308D-01 -0.80158924D-02  0.26311200D-01 -0.16092379D-14
  0.78291369D-14 -0.29175976D-03 -0.31229361D-02  0.25048426D-02  0.61809351D-03
  0.23574961D-14 -0.63536381D-14 -0.16363045D-03  0.15838119D-04  0.48844048D-03
 -0.50427860D-03  0.83547628D-15 -0.11901729D-14 -0.72150725D-05  0.44540544D-15
 -0.21823624D-04  0.43736322D-02 -0.29017694D-15 -0.21774488D-04 -0.97499974D-03
 -0.10460394D-14  0.87245361D-04 -0.12145897D-01 -0.15022537D-14 -0.13366486D-15
 -0.11625526D-05 -0.31183783D-04  0.12288627D-14 -0.71857553D-05  0.43626222D-03
 -0.82786816D-15  0.10673413D-04 -0.34271087D-03  0.52658889D-16  0.64757078D-02
  0.11679206D-01  0.17220982D-01 -0.13853370D-03 -0.59223361D-02 -0.81702973D-04
  0.42991932D-14 -0.27548981D-02  0.22522106D-02 -0.54808422D-14  0.42875362D-02
 -0.41213319D-02 -0.33261664D-14  0.57420500D-03 -0.14800286D-02  0.54572276D-03
 -0.11108147D-02  0.56509196D-03 -0.17276617D-14 -0.46597453D-15  0.21229324D-02
  0.34906955D-03 -0.86494757D-04 -0.26257480D-03  0.25795384D-14 -0.16299913D-14
  0.95793837D-03  0.63049891D-02  0.11371308D-01  0.16766986D-01  0.20622111D-03
 -0.56360800D-02 -0.78615874D-04  0.41420048D-14  0.26865228D-02  0.21650249D-02
 -0.28021743D-14 -0.40154466D-02 -0.39396508D-02 -0.45407319D-15 -0.54022899D-03
 -0.14395263D-02  0.55042263D-03 -0.10816301D-02  0.53120746D-03  0.11530050D-14
 -0.66434709D-15 -0.20901852D-02  0.33541305D-03 -0.76226740D-04 -0.25918631D-03
 -0.98007914D-15  0.36598306D-16 -0.93003086D-03
MO    4     MO 0.0        OCC NO =    1.9667730  ORB. ENERGY =    0.000000
  0.35911383D-01  0.66932913D-01  0.11349416D+00  0.17176134D+00  0.21425874D+00
  0.18386587D+00  0.70410861D-01  0.68832573D-03  0.73852834D-02  0.27223545D-01
  0.79600049D-01  0.95921930D-01 -0.11554813D+00 -0.65695219D-01 -0.54412894D-01
 -0.31522168D-02 -0.73537942D-14 -0.71307067D-14 -0.48103326D-14  0.61474636D-01
  0.59609718D-01  0.40212363D-01 -0.69274785D+00 -0.67173238D+00 -0.45314670D+00
 -0.15032249D-13  0.14524786D-01 -0.15552182D+00 -0.12356677D-13  0.22628569D-02
 -0.16155135D-01 -0.60348640D-15  0.72381000D-04 -0.10838178D-03 -0.20024348D-01
 -0.19823709D-01  0.39848058D-01  0.80574202D-14 -0.19075376D-13 -0.54090623D-02
 -0.36867205D-02 -0.41324035D-02  0.78191239D-02 -0.11102578D-14  0.15379708D-13
 -0.15152968D-02  0.21637616D-05 -0.14318944D-03  0.14102568D-03 -0.25915039D-15
  0.60885370D-14 -0.13397786D-03  0.70161614D-14 -0.66519442D-03 -0.61967188D-02
 -0.24903443D-13 -0.82740058D-04  0.61016995D-02  0.38549592D-14  0.20783233D-02
  0.12488457D-01  0.41924247D-14  0.13496361D-14 -0.50583076D-04 -0.16464221D-03
  0.39628678D-14  0.26588204D-04 -0.17605009D-03 -0.80117761D-14  0.12516102D-03
  0.66997671D-03 -0.45682666D-15 -0.49538550D-01 -0.92349838D-01 -0.15608381D+00
 -0.23462307D+00 -0.28819242D+00 -0.24322424D+00 -0.91458665D-01 -0.12029744D-02
 -0.89914881D-02 -0.33603244D-01 -0.93747819D-01 -0.12559623D+00  0.14830573D+00
  0.64380386D-01  0.45646631D-01  0.11065256D-02 -0.14865936D-13 -0.13937760D-13
 -0.99245156D-14  0.26449778D-01  0.24798348D-01  0.17657901D-01 -0.10697909D+00
 -0.10029970D+00 -0.71419359D-01  0.73494199D-14  0.68966582D-02 -0.30315244D-01
  0.56186046D-14  0.64620620D-03 -0.55182501D-02  0.13937398D-15 -0.14065823D-04
 -0.47396223D-05 -0.17608045D-01  0.13937223D-01  0.36708229D-02 -0.13948212D-14
  0.37554055D-14  0.15625285D-03 -0.45390832D-02  0.48857620D-02 -0.34667879D-03
  0.62549230D-15  0.14265650D-13 -0.61983959D-03 -0.94226484D-04  0.19799929D-04
  0.74426555D-04  0.76150954D-15  0.37300859D-15 -0.84058024D-04 -0.17980738D-14
 -0.20325715D-03  0.43687496D-02 -0.31425109D-14 -0.28745952D-03  0.56689581D-03
  0.85367324D-14  0.89723097D-03 -0.13673145D-01  0.11737070D-14 -0.43786669D-15
 -0.17629013D-04  0.27281755D-03 -0.17222323D-14 -0.35090235D-04  0.64226314D-03
  0.30358324D-14  0.87977275D-04 -0.14607158D-02 -0.19129935D-15  0.25497772D-01
  0.45986281D-01  0.67806745D-01  0.28084620D-01 -0.43760418D-02 -0.77489088D-04
 -0.40949718D-15 -0.18254399D-01  0.96139835D-02  0.15674709D-14  0.60893949D-03
 -0.18758140D-02 -0.20036091D-14  0.14237768D-02 -0.50516935D-03 -0.17302003D-02
  0.19169355D-02 -0.18673520D-03 -0.24851556D-14  0.16192613D-14 -0.33327928D-02
  0.31077778D-03 -0.15893821D-03 -0.15183957D-03  0.77375447D-15  0.36891711D-15
  0.60176179D-03  0.22552345D-01  0.40674083D-01  0.59973911D-01  0.25216423D-01
 -0.36143563D-02 -0.10657486D-03 -0.55741646D-15  0.16433908D-01  0.76984655D-02
  0.23190146D-14  0.17461558D-03 -0.19595769D-02  0.46255914D-15 -0.12553213D-02
 -0.51545256D-03 -0.14746392D-02  0.20083342D-02 -0.53369501D-03  0.11953929D-14
 -0.11941598D-15  0.23141311D-02  0.26978887D-03 -0.95627071D-04 -0.17416180D-03
  0.21120110D-15  0.18216486D-14 -0.50425331D-03
MO    5     MO 0.0        OCC NO =    1.9652488  ORB. ENERGY =    0.000000
 -0.18567242D-02 -0.34606287D-02 -0.58679822D-02 -0.88805671D-02 -0.11077808D-01
 -0.95064070D-02 -0.36404488D-02 -0.36492196D-04 -0.39153731D-03 -0.14432803D-02
 -0.42200668D-02 -0.50853857D-02  0.61258860D-02  0.35383942D-02  0.32360549D-02
  0.23026905D-03 -0.77924451D-13 -0.75560505D-13 -0.50972671D-13  0.13406109D+01
  0.12999417D+01  0.87693296D+00  0.52955334D-01  0.51348860D-01  0.34639638D-01
 -0.19534357D-13  0.31687513D+00  0.11954541D-01 -0.17401677D-14  0.50785744D-01
  0.12644332D-02 -0.59916185D-16  0.15797916D-02  0.65871408D-05  0.15641331D-02
  0.15988398D-02 -0.31629729D-02 -0.15255088D-14  0.42621371D-14 -0.10120999D+00
  0.30417923D-03  0.35498814D-03 -0.65916737D-03 -0.16103457D-14  0.30878160D-14
 -0.28549470D-01 -0.20672318D-05  0.11404631D-04 -0.93373987D-05 -0.78140058D-15
 -0.87526580D-15 -0.26556674D-02  0.50761463D-15 -0.12992744D-01  0.51140176D-03
  0.41938623D-14  0.13465962D-03 -0.52307523D-03 -0.57167062D-14  0.38843573D-01
 -0.10111301D-02 -0.94468503D-15 -0.10624672D-15 -0.97455329D-03  0.26530293D-04
 -0.63015644D-15  0.42411739D-03 -0.71876656D-05  0.94889659D-15  0.24995425D-02
 -0.72403214D-04  0.21351125D-14  0.27935595D-02  0.52077577D-02  0.88018199D-02
  0.13230777D-01  0.16251640D-01  0.13715811D-01  0.51575030D-02  0.67308714D-04
  0.50309094D-03  0.18801657D-02  0.52453696D-02  0.70273491D-02 -0.82979889D-02
 -0.35643210D-02 -0.23717591D-02 -0.53839658D-04 -0.25563081D-13 -0.23967014D-13
 -0.17065941D-13  0.40171818D+00  0.37663633D+00  0.26818750D+00 -0.17967741D-03
 -0.16845899D-03 -0.11995284D-03 -0.42607373D-14  0.10397675D+00  0.30307241D-03
  0.99363097D-15  0.59071839D-02  0.22078919D-03  0.82650141D-16 -0.33656486D-03
  0.72402876D-07  0.10531653D-02 -0.46277441D-03 -0.59039089D-03 -0.18443804D-14
 -0.28894503D-14  0.30163901D-01  0.23132545D-03 -0.26207404D-03  0.30748592D-04
  0.11158490D-14 -0.37729306D-14 -0.34106393D-02  0.70797310D-06  0.11372464D-05
 -0.18452195D-05  0.56210162D-15 -0.24802289D-15 -0.84257805D-03  0.10179373D-16
 -0.38513795D-02 -0.34782949D-03  0.15159648D-15 -0.54941259D-02  0.51715252D-04
 -0.18213460D-15  0.17048265D-01  0.99177323D-03 -0.34551438D-15 -0.25426493D-15
 -0.37518125D-03 -0.72952635D-05  0.10529477D-14 -0.29694904D-03 -0.32727256D-04
 -0.29015290D-15  0.14224928D-02  0.54613046D-04  0.44948582D-16  0.16833645D-01
  0.30360173D-01  0.44766057D-01  0.17707125D-01 -0.10446474D-02  0.35333300D-03
  0.24996870D-14 -0.10407711D-01  0.13140946D-01 -0.49980403D-14  0.54157850D-02
  0.19197055D-02 -0.16083529D-14  0.35056056D-03  0.66615985D-03 -0.17620247D-02
 -0.15018298D-02  0.32638545D-02  0.24968713D-14 -0.11503047D-14 -0.81737937D-02
  0.29350853D-03 -0.46045326D-03  0.16694474D-03  0.13328531D-14 -0.16171105D-14
  0.85489817D-03 -0.18987352D-01 -0.34244471D-01 -0.50493452D-01 -0.20357443D-01
  0.14789153D-02 -0.34141150D-03  0.55835081D-15 -0.11893800D-01 -0.13691249D-01
 -0.17942528D-14  0.53704067D-02 -0.17058198D-02 -0.14455962D-15  0.50015463D-03
 -0.60261823D-03  0.19122132D-02  0.13005347D-02 -0.32127478D-02 -0.57839043D-15
 -0.22049219D-15 -0.83410217D-02 -0.34074928D-03  0.47939422D-03 -0.13864494D-03
 -0.45157896D-15 -0.34227324D-15  0.91868578D-03
MO    6     MO 0.0        OCC NO =    1.9600502  ORB. ENERGY =    0.000000
  0.23301476D-02  0.43430120D-02  0.73641871D-02  0.11144914D-01  0.13902402D-01
  0.11930329D-01  0.45686822D-02 -0.24551877D-04 -0.26342553D-03 -0.97103611D-03
 -0.28392526D-02 -0.34214375D-02  0.41214840D-02  0.69545964D-02  0.28173310D-01
  0.63150680D-02  0.10445733D-12  0.10128847D-12  0.68328607D-13 -0.45153649D-01
 -0.43783851D-01 -0.29536327D-01  0.13737892D+01  0.13321134D+01  0.89863585D+00
  0.22463352D-13 -0.10647352D-01  0.31777500D+00 -0.47702391D-14 -0.18549077D-02
  0.37901657D-01 -0.72144962D-15 -0.59938400D-04  0.15150918D-03  0.41732483D-01
  0.43507437D-01 -0.85239920D-01 -0.15391296D-14 -0.17164816D-13  0.14694850D-02
  0.10359427D-01  0.11725041D-01 -0.22084468D-01  0.54886482D-16  0.36782652D-14
  0.36415196D-03  0.26016641D-03  0.50231552D-03 -0.76248193D-03  0.47352154D-15
  0.43525871D-14  0.50946216D-04 -0.51959647D-16  0.23688340D-03  0.15589211D-01
 -0.72444970D-14 -0.24041222D-03 -0.15903054D-01  0.74003759D-14 -0.47023800D-03
 -0.30864580D-01  0.39032849D-14  0.11112418D-14  0.16197011D-04  0.20076390D-02
  0.14135361D-14  0.10921185D-05 -0.24612925D-02 -0.47472615D-14 -0.49683151D-04
 -0.35616246D-02 -0.10510749D-14  0.46118050D-02  0.85973336D-02  0.14530665D-01
  0.21842300D-01  0.26829353D-01  0.22643028D-01  0.85143697D-02  0.73900528D-04
  0.55236066D-03  0.20642979D-02  0.57590698D-02  0.77155657D-02 -0.91106444D-02
 -0.54788019D-02  0.16837766D-01  0.16523043D-04  0.21742958D-13  0.20385405D-13
  0.14515623D-13  0.56267900D-02  0.52754732D-02  0.37564512D-02 -0.52423188D+00
 -0.49150071D+00 -0.34997778D+00  0.12636387D-13  0.13164502D-02 -0.10922420D+00
  0.55584282D-14  0.58722189D-03 -0.87321427D-02  0.18483300D-15  0.15833883D-04
 -0.40531593D-04  0.81854039D-02  0.28792378D-01 -0.36977782D-01  0.12505698D-14
  0.57157377D-16 -0.33822072D-02  0.15298809D-03  0.25641393D-02 -0.27171274D-02
 -0.56396308D-15  0.10742344D-13 -0.78909030D-03 -0.15685085D-03  0.13341844D-03
  0.23432415D-04  0.20478436D-15  0.51432465D-15 -0.77372090D-04 -0.96648570D-15
  0.15629103D-03 -0.57990047D-02 -0.35819766D-14  0.22863640D-04  0.64920658D-02
  0.64814337D-14 -0.49173673D-03  0.10904948D-01  0.21703810D-14 -0.41693940D-15
  0.17613171D-04  0.76899830D-03 -0.15538581D-15 -0.18600634D-04 -0.17998769D-03
  0.14062040D-14 -0.34238880D-04 -0.21270072D-02 -0.97863111D-15  0.19270432D-01
  0.34755017D-01  0.51246252D-01  0.32488007D-01  0.42982684D-03 -0.19919416D-05
  0.19001334D-14 -0.17922256D-01  0.38179401D-02  0.47297530D-15 -0.57892649D-02
  0.69313160D-03 -0.89097129D-15  0.43187905D-03 -0.30637535D-03 -0.15146053D-02
  0.53797559D-02 -0.38651506D-02 -0.11135124D-14  0.17250111D-14 -0.45797576D-02
 -0.55099849D-03  0.64685921D-05  0.54452990D-03  0.77836766D-16 -0.61581687D-16
  0.31266363D-04  0.17626494D-01  0.31790107D-01  0.46874495D-01  0.29921413D-01
  0.10379915D-02  0.24953592D-04  0.93984108D-15  0.17033080D-01  0.34307187D-02
  0.11600612D-14  0.56999556D-02  0.76771624D-03 -0.49326219D-16 -0.26240611D-03
 -0.20956266D-03 -0.15533520D-02  0.52179672D-02 -0.36646152D-02 -0.62279881D-15
  0.12702708D-14  0.45656787D-02 -0.53307098D-03  0.13400124D-04  0.51967086D-03
  0.24826124D-15 -0.59104329D-16 -0.64862488D-04
MO    7     MO 0.0        OCC NO =    1.9565433  ORB. ENERGY =    0.000000
  0.35687586D-03  0.66515793D-03  0.11278687D-02  0.17069094D-02  0.21292350D-02
  0.18272004D-02  0.69972067D-03  0.52792010D-05  0.56642362D-04  0.20879441D-03
  0.61050261D-03  0.73568533D-03 -0.88621095D-03 -0.39974223D-03  0.23201756D-03
  0.14408598D-03 -0.11145149D-12 -0.10807046D-12 -0.72903694D-13  0.11616641D+01
  0.11264234D+01  0.75987858D+00  0.29003768D-01  0.28123899D-01  0.18972216D-01
 -0.26960343D-13  0.27432300D+00  0.67602976D-02  0.15658626D-15  0.49601551D-01
  0.84069429D-03  0.11097622D-15  0.16887178D-02  0.48781638D-05  0.85359609D-03
  0.93489607D-03 -0.17884922D-02 -0.25492637D-14  0.21520156D-13 -0.10791533D-01
  0.22111546D-03  0.27402894D-03 -0.49514440D-03 -0.20820909D-14 -0.22914182D-14
 -0.26822960D-02  0.79358056D-05  0.10530474D-04 -0.18466280D-04  0.26487361D-15
 -0.15389450D-14 -0.61663659D-03  0.74214127D-15 -0.40714970D-02  0.33825294D-03
  0.16812669D-14  0.87845797D-02 -0.32755072D-03 -0.39076907D-14  0.34299111D-02
 -0.68720808D-03  0.58085162D-14 -0.68180167D-15 -0.29916668D-03  0.51445391D-04
 -0.13758163D-15 -0.36391657D-03 -0.63701360D-04  0.21829866D-14  0.12614166D-02
 -0.90634811D-04 -0.14565386D-14 -0.34493977D-03 -0.64303722D-03 -0.10868205D-02
 -0.16336939D-02 -0.20067004D-02 -0.16935843D-02 -0.63683194D-03 -0.90102470D-05
 -0.67346014D-04 -0.25168743D-03 -0.70216874D-03 -0.94071253D-03  0.11108061D-02
  0.34980062D-03  0.58320647D-03  0.45657914D-05 -0.28102515D-13 -0.26347894D-13
 -0.18761270D-13 -0.36328088D+00 -0.34059891D+00 -0.24252672D+00 -0.13680576D-01
 -0.12826410D-01 -0.91331679D-02 -0.14384949D-13 -0.99614353D-01 -0.29022123D-02
 -0.59244016D-14 -0.25579458D-01 -0.23958001D-03 -0.16704304D-15 -0.50160943D-03
 -0.15055937D-05  0.89519201D-04  0.93741737D-03 -0.10269366D-02 -0.68588118D-15
 -0.64152668D-14  0.11006698D+00 -0.15989091D-04  0.12955355D-03 -0.11356445D-03
  0.26877313D-14 -0.24241691D-14  0.31746359D-01 -0.50743466D-05  0.10033494D-04
 -0.49591478D-05  0.30788981D-15  0.20424025D-15  0.34041488D-02  0.13167786D-14
 -0.36358981D-02 -0.93364110D-04  0.41423857D-16  0.28310619D-02  0.18675969D-03
 -0.39917597D-14  0.80766325D-02  0.93332639D-04 -0.50458969D-14  0.46113500D-15
 -0.58626247D-03  0.19876351D-04 -0.58247540D-15  0.79497056D-03  0.18935516D-06
 -0.80092961D-15  0.96381685D-03 -0.59818409D-04 -0.93168949D-15 -0.33964573D-01
 -0.61256507D-01 -0.90322683D-01 -0.51409791D-01  0.10331093D-01  0.42272978D-03
 -0.12066040D-14  0.14395140D-01 -0.10505968D-01  0.11354475D-14 -0.34154109D-02
  0.19624292D-02  0.89465743D-15 -0.34269055D-02  0.16229815D-02  0.65816865D-03
 -0.13611957D-02  0.70302707D-03  0.19335554D-14 -0.10826942D-14  0.30929153D-02
 -0.80607215D-05  0.35748029D-03 -0.34941956D-03 -0.68303377D-15  0.51451165D-15
  0.42982888D-04  0.35412918D-01  0.63868656D-01  0.94174296D-01  0.54456964D-01
 -0.98521526D-02 -0.41715676D-03 -0.37798758D-14  0.15624029D-01  0.10660721D-01
  0.42649220D-14 -0.29470416D-02 -0.18782550D-02  0.24823227D-14 -0.34730367D-02
 -0.16347788D-02 -0.83969317D-03  0.17824154D-02 -0.94272221D-03  0.32654309D-14
  0.19504431D-14  0.34774375D-02 -0.82295427D-05 -0.36353589D-03  0.37176543D-03
  0.18048004D-14  0.93504827D-15  0.25153784D-04
MO    8     MO 0.0        OCC NO =    1.9226340  ORB. ENERGY =    0.000000
 -0.14521193D-14 -0.27065116D-14 -0.45892707D-14 -0.69453733D-14 -0.86638057D-14
 -0.74348342D-14 -0.28471465D-14  0.16620960D-15  0.17833199D-14  0.65736531D-14
  0.19220976D-13  0.23162211D-13 -0.27901337D-13 -0.38551028D-13 -0.53719792D-12
 -0.95226628D-13  0.13798057D+01  0.13379474D+01  0.90257142D+00  0.18471136D-12
  0.17910788D-12  0.12082512D-12 -0.12780343D-12 -0.12392634D-12 -0.83599974D-13
  0.33254318D+00  0.24577089D-13  0.27408741D-13  0.48488463D-01 -0.21655586D-13
  0.30115708D-12  0.88591152D-03 -0.21207231D-14  0.22266750D-14  0.43933774D-14
 -0.21953479D-13  0.17560102D-13  0.20833510D-04 -0.12442929D+00 -0.53866951D-13
 -0.71593137D-15  0.30723279D-13 -0.30007347D-13  0.14023632D-04 -0.37370172D-01
  0.31282491D-13  0.65565118D-14  0.27114270D-13 -0.33670782D-13 -0.49101573D-06
 -0.23602199D-02  0.62283393D-14 -0.61418240D-02 -0.13046381D-14 -0.58070030D-14
 -0.22194523D-01  0.60507934D-14 -0.62475351D-14  0.40619995D-01 -0.21368790D-14
  0.23668544D-13 -0.19610401D-05 -0.36150820D-03  0.18455808D-14  0.94947311D-14
 -0.15456483D-02 -0.30963113D-14  0.21851900D-14  0.26301729D-02 -0.24404310D-14
 -0.30669383D-13 -0.55812466D-05  0.40944757D-14  0.76329276D-14  0.12900688D-13
  0.19392140D-13  0.23819770D-13  0.20103046D-13  0.75592702D-14  0.55444695D-15
  0.41441474D-14  0.15487625D-13  0.43208063D-13  0.57886892D-13 -0.68353626D-13
 -0.13335860D-12  0.27760353D-11  0.30549870D-12  0.41541843D+00  0.38948118D+00
  0.27733380D+00 -0.29130042D-13 -0.27311266D-13 -0.19447249D-13  0.20864404D-13
  0.19561705D-13  0.13929100D-13  0.10662091D+00  0.25997364D-13 -0.61733489D-13
  0.12573204D-01 -0.36247036D-13 -0.27119413D-12  0.38364591D-04 -0.12147290D-14