 Entering Gaussian System, Link 0=/home/bruns/programas/chemistry/gaussian/g09/g09
 Input=GAUSSIAN.com
 Output=GAUSSIAN.log
 Initial command:
 /home/bruns/programas/chemistry/gaussian/g09/l1.exe /home/bruns/programas/chemistry/gaussian/work/Gau-73348.inp -scrdir=/home/bruns/programas/chemistry/gaussian/work/
 Entering Link 1 = /home/bruns/programas/chemistry/gaussian/g09/l1.exe PID=     73350.
  
 Copyright (c) 1988,1990,1992,1993,1995,1998,2003,2009,2010,
            Gaussian, Inc.  All Rights Reserved.
  
 This is part of the Gaussian(R) 09 program.  It is based on
 the Gaussian(R) 03 system (copyright 2003, Gaussian, Inc.),
 the Gaussian(R) 98 system (copyright 1998, Gaussian, Inc.),
 the Gaussian(R) 94 system (copyright 1995, Gaussian, Inc.),
 the Gaussian 92(TM) system (copyright 1992, Gaussian, Inc.),
 the Gaussian 90(TM) system (copyright 1990, Gaussian, Inc.),
 the Gaussian 88(TM) system (copyright 1988, Gaussian, Inc.),
 the Gaussian 86(TM) system (copyright 1986, Carnegie Mellon
 University), and the Gaussian 82(TM) system (copyright 1983,
 Carnegie Mellon University). Gaussian is a federally registered
 trademark of Gaussian, Inc.
  
 This software contains proprietary and confidential information,
 including trade secrets, belonging to Gaussian, Inc.
  
 This software is provided under written license and may be
 used, copied, transmitted, or stored only in accord with that
 written license.
  
 The following legend is applicable only to US Government
 contracts under FAR:
  
                    RESTRICTED RIGHTS LEGEND
  
 Use, reproduction and disclosure by the US Government is
 subject to restrictions as set forth in subparagraphs (a)
 and (c) of the Commercial Computer Software - Restricted
 Rights clause in FAR 52.227-19.
  
 Gaussian, Inc.
 340 Quinnipiac St., Bldg. 40, Wallingford CT 06492
  
  
 ---------------------------------------------------------------
 Warning -- This program may not be used in any manner that
 competes with the business of Gaussian, Inc. or will provide
 assistance to any competitor of Gaussian, Inc.  The licensee
 of this program is prohibited from giving any competitor of
 Gaussian, Inc. access to this program.  By using this program,
 the user acknowledges that Gaussian, Inc. is engaged in the
 business of creating and licensing software in the field of
 computational chemistry and represents and warrants to the
 licensee that it is not a competitor of Gaussian, Inc. and that
 it will not use this program in any manner prohibited above.
 ---------------------------------------------------------------
  

 Cite this work as:
 Gaussian 09, Revision B.01,
 M. J. Frisch, G. W. Trucks, H. B. Schlegel, G. E. Scuseria, 
 M. A. Robb, J. R. Cheeseman, G. Scalmani, V. Barone, B. Mennucci, 
 G. A. Petersson, H. Nakatsuji, M. Caricato, X. Li, H. P. Hratchian, 
 A. F. Izmaylov, J. Bloino, G. Zheng, J. L. Sonnenberg, M. Hada, 
 M. Ehara, K. Toyota, R. Fukuda, J. Hasegawa, M. Ishida, T. Nakajima, 
 Y. Honda, O. Kitao, H. Nakai, T. Vreven, J. A. Montgomery, Jr., 
 J. E. Peralta, F. Ogliaro, M. Bearpark, J. J. Heyd, E. Brothers, 
 K. N. Kudin, V. N. Staroverov, T. Keith, R. Kobayashi, J. Normand, 
 K. Raghavachari, A. Rendell, J. C. Burant, S. S. Iyengar, J. Tomasi, 
 M. Cossi, N. Rega, J. M. Millam, M. Klene, J. E. Knox, J. B. Cross, 
 V. Bakken, C. Adamo, J. Jaramillo, R. Gomperts, R. E. Stratmann, 
 O. Yazyev, A. J. Austin, R. Cammi, C. Pomelli, J. W. Ochterski, 
 R. L. Martin, K. Morokuma, V. G. Zakrzewski, G. A. Voth, 
 P. Salvador, J. J. Dannenberg, S. Dapprich, A. D. Daniels, 
 O. Farkas, J. B. Foresman, J. V. Ortiz, J. Cioslowski, 
 and D. J. Fox, Gaussian, Inc., Wallingford CT, 2010.
 
 ******************************************
 Gaussian 09:  EM64L-G09RevB.01 12-Aug-2010
                20-Nov-2021 
 ******************************************
 %nproc=8
 Will use up to    8 processors via shared memory.
 %mem=8GB
 -----------------------------------------------------
 # qcisd/aug-cc-pvtz nosymm density=current output=wfn
 -----------------------------------------------------
 1/30=1,38=1/1;
 2/12=2,15=1,17=6,18=5,40=1/2;
 3/5=16,6=1,7=10,11=9,16=1,25=1,30=1,71=1/1,2,3;
 4//1;
 5/5=2,38=5/2;
 8/6=4,9=120000,10=1/1,4;
 9/5=8,15=1/13;
 11/28=-7,31=1,32=3,42=3/11;
 10/5=6,13=10,31=1/2;
 6/7=2,8=2,9=2,10=2,22=-1,31=1/1;
 99/5=1,6=1100,9=1/99;
 -----------------
 h2co-wavefunction
 -----------------
 Symbolic Z-matrix:
 Charge =  0 Multiplicity = 1
 O                     0.       -0.01      0.67925 
 C                     0.        0.       -0.52691 
 H                     0.        0.93661  -1.10662 
 H                     0.       -0.93661  -1.10662 
 
                          Input orientation:                          
 ---------------------------------------------------------------------
 Center     Atomic      Atomic             Coordinates (Angstroms)
 Number     Number       Type             X           Y           Z
 ---------------------------------------------------------------------
      1          8           0        0.000000   -0.010000    0.679252
      2          6           0        0.000000    0.000000   -0.526911
      3          1           0        0.000000    0.936614   -1.106620
      4          1           0        0.000000   -0.936614   -1.106620
 ---------------------------------------------------------------------
                    Distance matrix (angstroms):
                    1          2          3          4
     1  O    0.000000
     2  C    1.206204   0.000000
     3  H    2.021241   1.101503   0.000000
     4  H    2.011952   1.101503   1.873228   0.000000
 Symmetry turned off by external request.
 Stoichiometry    CH2O
 Framework group  CS[SG(CH2O)]
 Deg. of freedom     5
 Full point group                 CS      NOp   2
 Rotational constants (GHZ):    285.8249743     38.8674130     34.2147760
 Standard basis: Aug-CC-pVTZ (5D, 7F)
 Integral buffers will be    131072 words long.
 Raffenetti 1 integral format.
 Two-electron integral symmetry is turned off.
   138 basis functions,   198 primitive gaussians,   160 cartesian basis functions
     8 alpha electrons        8 beta electrons
       nuclear repulsion energy        31.3042691027 Hartrees.
 NAtoms=    4 NActive=    4 NUniq=    4 SFac= 1.00D+00 NAtFMM=   50 NAOKFM=F Big=F
 One-electron integrals computed using PRISM.
 NBasis=   138 RedAO= T  NBF=   138
 NBsUse=   138 1.00D-06 NBFU=   138
 Harris functional with IExCor=  205 diagonalized for initial guess.
 ExpMin= 2.53D-02 ExpMax= 1.53D+04 ExpMxC= 5.22D+02 IAcc=3 IRadAn=         0 AccDes= 0.00D+00
 HarFok:  IExCor=  205 AccDes= 0.00D+00 IRadAn=         0 IDoV= 1
 ScaDFX=  1.000000  1.000000  1.000000  1.000000
 FoFCou: FMM=F IPFlag=           0 FMFlag=      100000 FMFlg1=           0
         NFxFlg=           0 DoJE=T BraDBF=F KetDBF=T FulRan=T
         Omega=  0.000000  0.000000  1.000000  0.000000  0.000000 ICntrl=     500 IOpCl=  0
         NMat0=    1 NMatS0=    1 NMatT0=    0 NMatD0=    1 NMtDS0=    0 NMtDT0=    0
         I1Cent=           4 NGrid=           0.
 Symmetry not used in FoFCou.
 Requested convergence on RMS density matrix=1.00D-08 within 128 cycles.
 Requested convergence on MAX density matrix=1.00D-06.
 Requested convergence on             energy=1.00D-06.
 No special actions if energy rises.
 Keep R1 ints in memory in canonical form, NReq=85137408.
 SCF Done:  E(RHF) =  -113.913808320     A.U. after   11 cycles
             Convg  =    0.2900D-08             -V/T =  2.0018
 ExpMin= 2.53D-02 ExpMax= 1.53D+04 ExpMxC= 5.22D+02 IAcc=3 IRadAn=         5 AccDes= 0.00D+00
 HarFok:  IExCor=  205 AccDes= 0.00D+00 IRadAn=         5 IDoV=-2
 ScaDFX=  1.000000  1.000000  1.000000  1.000000
 DSYEVD returned Info=          93 IAlg= 4 N=    46 NDim=    46 NE2=    23340785 trying DSYEV.
 Range of M.O.s used for correlation:     3   138
 NBasis=   138 NAE=     8 NBE=     8 NFC=     2 NFV=     0
 NROrb=    136 NOA=     6 NOB=     6 NVA=   130 NVB=   130

 **** Warning!!: The largest alpha MO coefficient is  0.33818990D+02

 Semi-Direct transformation.
 ModeAB=           2 MOrb=             6 LenV=    1073118429
 LASXX=      7286295 LTotXX=     7286295 LenRXX=     7286295
 LTotAB=     7445736 MaxLAS=    10510080 LenRXY=    10510080
 NonZer=    14572590 LenScr=    22628352 LnRSAI=           0
 LnScr1=           0 LExtra=           0 Total=     40424727
 MaxDsk=          -1 SrtSym=           F ITran=            4
 JobTyp=0 Pass  1:  I=   1 to   6.
 (rs|ai) integrals will be sorted in core.
 Spin components of T(2) and E(2):
     alpha-alpha T2 =       0.1376138616D-01 E2=     -0.4804263163D-01
     alpha-beta  T2 =       0.8505851918D-01 E2=     -0.3064387758D+00
     beta-beta   T2 =       0.1376138616D-01 E2=     -0.4804263163D-01
 ANorm=    0.1054789691D+01
 E2 =    -0.4025240390D+00 EUMP2 =    -0.11431633235894D+03
 R2 and R3 integrals will be kept in memory, NReq=   167993840.
 Iterations=  50 Convergence= 0.100D-07
 Iteration Nr.   1
 **********************
 DD1Dir will call FoFMem   1 times, MxPair=        42
 NAB=    21 NAA=     0 NBB=     0.
 MP4(R+Q)=  0.88730778D-02
 E3=       -0.40173136D-02        EUMP3=      -0.11432034967D+03
 E4(DQ)=   -0.13498864D-02        UMP4(DQ)=   -0.11432169956D+03
 E4(SDQ)=  -0.66125591D-02        UMP4(SDQ)=  -0.11432696223D+03
 DE(Corr)= -0.39766827     E(Corr)=     -114.31147659    
 NORM(A)=   0.10554825D+01
 Iteration Nr.   2
 **********************
 DD1Dir will call FoFMem   1 times, MxPair=        42
 NAB=    21 NAA=     0 NBB=     0.
 DE(Corr)= -0.41161200     E(CORR)=     -114.32542032     Delta=-1.39D-02
 NORM(A)=   0.10615371D+01
 Iteration Nr.   3
 **********************
 DD1Dir will call FoFMem   1 times, MxPair=        42
 NAB=    21 NAA=     0 NBB=     0.
 DE(Corr)= -0.41153902     E(CORR)=     -114.32534734     Delta= 7.30D-05
 NORM(A)=   0.10634244D+01
 Iteration Nr.   4
 **********************
 DD1Dir will call FoFMem   1 times, MxPair=        42
 NAB=    21 NAA=     0 NBB=     0.
 DE(Corr)= -0.41294567     E(CORR)=     -114.32675399     Delta=-1.41D-03
 NORM(A)=   0.10641045D+01
 Iteration Nr.   5
 **********************
 DD1Dir will call FoFMem   1 times, MxPair=        42
 NAB=    21 NAA=     0 NBB=     0.
 DE(Corr)= -0.41313323     E(CORR)=     -114.32694155     Delta=-1.88D-04
 NORM(A)=   0.10643196D+01
 Iteration Nr.   6
 **********************
 DD1Dir will call FoFMem   1 times, MxPair=        42
 NAB=    21 NAA=     0 NBB=     0.
 DE(Corr)= -0.41315917     E(CORR)=     -114.32696749     Delta=-2.59D-05
 NORM(A)=   0.10643450D+01
 Iteration Nr.   7
 **********************
 DD1Dir will call FoFMem   1 times, MxPair=        42
 NAB=    21 NAA=     0 NBB=     0.
 DE(Corr)= -0.41316038     E(CORR)=     -114.32696870     Delta=-1.21D-06
 NORM(A)=   0.10643461D+01
 Iteration Nr.   8
 **********************
 DD1Dir will call FoFMem   1 times, MxPair=        42
 NAB=    21 NAA=     0 NBB=     0.
 DE(Corr)= -0.41315950     E(CORR)=     -114.32696782     Delta= 8.75D-07
 NORM(A)=   0.10643489D+01
 Iteration Nr.   9
 **********************
 DD1Dir will call FoFMem   1 times, MxPair=        42
 NAB=    21 NAA=     0 NBB=     0.
 DE(Corr)= -0.41315839     E(CORR)=     -114.32696670     Delta= 1.12D-06
 NORM(A)=   0.10643492D+01
 Iteration Nr.  10
 **********************
 DD1Dir will call FoFMem   1 times, MxPair=        42
 NAB=    21 NAA=     0 NBB=     0.
 DE(Corr)= -0.41315901     E(CORR)=     -114.32696733     Delta=-6.21D-07
 NORM(A)=   0.10643498D+01
 Iteration Nr.  11
 **********************
 DD1Dir will call FoFMem   1 times, MxPair=        42
 NAB=    21 NAA=     0 NBB=     0.
 DE(Corr)= -0.41315914     E(CORR)=     -114.32696746     Delta=-1.32D-07
 NORM(A)=   0.10643502D+01
 Iteration Nr.  12
 **********************
 DD1Dir will call FoFMem   1 times, MxPair=        42
 NAB=    21 NAA=     0 NBB=     0.
 DE(Corr)= -0.41315929     E(CORR)=     -114.32696761     Delta=-1.55D-07
 NORM(A)=   0.10643504D+01
 Iteration Nr.  13
 **********************
 DD1Dir will call FoFMem   1 times, MxPair=        42
 NAB=    21 NAA=     0 NBB=     0.
 DE(Corr)= -0.41315935     E(CORR)=     -114.32696767     Delta=-6.10D-08
 NORM(A)=   0.10643505D+01
 Iteration Nr.  14
 **********************
 DD1Dir will call FoFMem   1 times, MxPair=        42
 NAB=    21 NAA=     0 NBB=     0.
 DE(Corr)= -0.41315939     E(CORR)=     -114.32696771     Delta=-3.15D-08
 NORM(A)=   0.10643505D+01
 Iteration Nr.  15
 **********************
 DD1Dir will call FoFMem   1 times, MxPair=        42
 NAB=    21 NAA=     0 NBB=     0.
 DE(Corr)= -0.41315939     E(CORR)=     -114.32696771     Delta=-4.78D-09
 NORM(A)=   0.10643505D+01
 Iteration Nr.  16
 **********************
 DD1Dir will call FoFMem   1 times, MxPair=        42
 NAB=    21 NAA=     0 NBB=     0.
 DE(Corr)= -0.41315939     E(CORR)=     -114.32696771     Delta=-3.09D-09
 NORM(A)=   0.10643505D+01
 Largest amplitude= 6.44D-02

 Z-AMPLITUDE ITERATIONS

 Iteration Nr.   1
 **********************
 DD1Dir will call FoFMem   1 times, MxPair=        42
 NAB=    21 NAA=     0 NBB=     0.
 DE(Z)  -0.40112439D+00          E(Z)=    -0.11431493271D+03
 NORM(A)=   0.10643492D+01
 Iteration Nr.   2
 **********************
 DD1Dir will call FoFMem   1 times, MxPair=        42
 NAB=    21 NAA=     0 NBB=     0.
 DE(Z)  -0.40112431D+00          E(Z)=    -0.11431493263D+03
 NORM(A)=   0.10643496D+01
 Iteration Nr.   3
 **********************
 DD1Dir will call FoFMem   1 times, MxPair=        42
 NAB=    21 NAA=     0 NBB=     0.
 DE(Z)  -0.40112434D+00          E(Z)=    -0.11431493266D+03
 NORM(A)=   0.10643500D+01
 Iteration Nr.   4
 **********************
 DD1Dir will call FoFMem   1 times, MxPair=        42
 NAB=    21 NAA=     0 NBB=     0.
 DE(Z)  -0.40112436D+00          E(Z)=    -0.11431493268D+03
 NORM(A)=   0.10643500D+01
 Iteration Nr.   5
 **********************
 DD1Dir will call FoFMem   1 times, MxPair=        42
 NAB=    21 NAA=     0 NBB=     0.
 DE(Z)  -0.40112436D+00          E(Z)=    -0.11431493268D+03
 NORM(A)=   0.10602874D+01
 Iteration Nr.   6
 **********************
 DD1Dir will call FoFMem   1 times, MxPair=        42
 NAB=    21 NAA=     0 NBB=     0.
 DE(Z)  -0.40091093D+00          E(Z)=    -0.11431471925D+03
 NORM(A)=   0.10602720D+01
 Iteration Nr.   7
 **********************
 DD1Dir will call FoFMem   1 times, MxPair=        42
 NAB=    21 NAA=     0 NBB=     0.
 DE(Z)  -0.40091096D+00          E(Z)=    -0.11431471928D+03
 NORM(A)=   0.10602678D+01
 Iteration Nr.   8
 **********************
 DD1Dir will call FoFMem   1 times, MxPair=        42
 NAB=    21 NAA=     0 NBB=     0.
 DE(Z)  -0.40091018D+00          E(Z)=    -0.11431471850D+03
 NORM(A)=   0.10602672D+01
 Iteration Nr.   9
 **********************
 DD1Dir will call FoFMem   1 times, MxPair=        42
 NAB=    21 NAA=     0 NBB=     0.
 DE(Z)  -0.40091003D+00          E(Z)=    -0.11431471835D+03
 NORM(A)=   0.10602672D+01
 Iteration Nr.  10
 **********************
 DD1Dir will call FoFMem   1 times, MxPair=        42
 NAB=    21 NAA=     0 NBB=     0.
 DE(Z)  -0.40091012D+00          E(Z)=    -0.11431471844D+03
 NORM(A)=   0.10602673D+01
 Iteration Nr.  11
 **********************
 DD1Dir will call FoFMem   1 times, MxPair=        42
 NAB=    21 NAA=     0 NBB=     0.
 DE(Z)  -0.40091006D+00          E(Z)=    -0.11431471838D+03
 NORM(A)=   0.10602673D+01
 Iteration Nr.  12
 **********************
 DD1Dir will call FoFMem   1 times, MxPair=        42
 NAB=    21 NAA=     0 NBB=     0.
 DE(Z)  -0.40091008D+00          E(Z)=    -0.11431471840D+03
 NORM(A)=   0.10602673D+01
 Iteration Nr.  13
 **********************
 DD1Dir will call FoFMem   1 times, MxPair=        42
 NAB=    21 NAA=     0 NBB=     0.
 DE(Z)  -0.40091008D+00          E(Z)=    -0.11431471840D+03
 NORM(A)=   0.10602673D+01
 Discarding MO integrals.
          Differentiating once with respect to electric field.
                with respect to dipole field.
          Electric field/nuclear overlap derivatives assumed to be zero.
          Keep R1 ints in memory in canonical form, NReq=84894547.
          There are     1 degrees of freedom in the 1st order CPHF.  IDoFFX=0.
 LinEq1:  Iter=  0 NonCon=     1 RMS=3.55D-03 Max=5.57D-02
 AX will form     1 AO Fock derivatives at one time.
 LinEq1:  Iter=  1 NonCon=     1 RMS=8.96D-04 Max=8.54D-03
 LinEq1:  Iter=  2 NonCon=     1 RMS=2.35D-04 Max=3.42D-03
 LinEq1:  Iter=  3 NonCon=     1 RMS=1.15D-04 Max=1.21D-03
 LinEq1:  Iter=  4 NonCon=     1 RMS=4.45D-05 Max=5.32D-04
 LinEq1:  Iter=  5 NonCon=     1 RMS=9.21D-06 Max=8.74D-05
 LinEq1:  Iter=  6 NonCon=     1 RMS=1.50D-06 Max=1.74D-05
 LinEq1:  Iter=  7 NonCon=     1 RMS=2.28D-07 Max=1.66D-06
 LinEq1:  Iter=  8 NonCon=     1 RMS=2.61D-08 Max=2.07D-07
 LinEq1:  Iter=  9 NonCon=     1 RMS=3.14D-09 Max=2.52D-08
 LinEq1:  Iter= 10 NonCon=     1 RMS=2.97D-10 Max=2.32D-09
 LinEq1:  Iter= 11 NonCon=     0 RMS=2.81D-11 Max=2.40D-10
 Linear equations converged to 1.000D-10 1.000D-09 after    11 iterations.
 End of Minotr Frequency-dependent properties file   721 does not exist.
 End of Minotr Frequency-dependent properties file   722 does not exist.

 **********************************************************************

            Population analysis using the QCI/CC density.

 **********************************************************************

     Natural Orbital Coefficients:
                           1         2         3         4         5
     Eigenvalues --     2.00001   2.00000   1.98055   1.96688   1.96534
   1 1   O  1S         -0.52387   0.82762  -0.18942   0.07080   0.00070
   2        2S          0.01054  -0.01441   0.48948  -0.20084  -0.00196
   3        3S         -0.02188   0.03556   0.13766  -0.06074  -0.00058
   4        4S          0.00282  -0.00269   0.31056  -0.22314  -0.00208
   5        5S          0.00015  -0.00079   0.04380  -0.03081   0.00029
   6        6PX         0.00000   0.00000   0.00000   0.00000   0.00000
   7        6PY        -0.00003   0.00002  -0.00038  -0.00283   0.27183
   8        6PZ         0.00299  -0.00224  -0.00040  -0.13845   0.00258
   9        7PX         0.00000   0.00000   0.00000   0.00000   0.00000
  10        7PY        -0.00002  -0.00002  -0.00041  -0.00355   0.33547
  11        7PZ         0.00200   0.00154  -0.00855  -0.16221   0.00321
  12        8PX         0.00000   0.00000   0.00000   0.00000   0.00000
  13        8PY        -0.00001  -0.00001  -0.00085  -0.00285   0.24265
  14        8PZ         0.00306   0.00051   0.03895  -0.07614   0.00263
  15        9PX         0.00000   0.00000   0.00000   0.00000   0.00000
  16        9PY        -0.00001  -0.00001  -0.00015  -0.00048   0.03730
  17        9PZ         0.00019   0.00005   0.00214  -0.00256   0.00020
  18       10D 0       -0.00015   0.00015   0.00429   0.00544  -0.00014
  19       10D+1        0.00000   0.00000   0.00000   0.00000   0.00000
  20       10D-1        0.00000   0.00000  -0.00005   0.00004  -0.00818
  21       10D+2        0.00007  -0.00008   0.00008  -0.00002  -0.00007
  22       10D-2        0.00000   0.00000   0.00000   0.00000   0.00000
  23       11D 0       -0.00046  -0.00116   0.01229   0.00992  -0.00036
  24       11D+1        0.00000   0.00000   0.00000   0.00000   0.00000
  25       11D-1        0.00001   0.00002  -0.00014   0.00015  -0.02153
  26       11D+2        0.00008  -0.00014   0.00065   0.00033  -0.00020
  27       11D-2        0.00000   0.00000   0.00000   0.00000   0.00000
  28       12D 0       -0.00067  -0.00030  -0.00878   0.00125  -0.00022
  29       12D+1        0.00000   0.00000   0.00000   0.00000   0.00000
  30       12D-1        0.00001   0.00001   0.00022   0.00012  -0.01371
  31       12D+2        0.00027   0.00018  -0.00025   0.00072  -0.00012
  32       12D-2        0.00000   0.00000   0.00000   0.00000   0.00000
  33       13F 0       -0.00003   0.00003  -0.00272  -0.00183   0.00011
  34       13F+1        0.00000   0.00000   0.00000   0.00000   0.00000
  35       13F-1        0.00000   0.00000   0.00004  -0.00002   0.00482
  36       13F+2        0.00005  -0.00001   0.00014  -0.00049   0.00008
  37       13F-2        0.00000   0.00000   0.00000   0.00000   0.00000
  38       13F+3        0.00000   0.00000   0.00000   0.00000   0.00000
  39       13F-3        0.00000   0.00000   0.00000  -0.00001   0.00126
  40       14F 0        0.00034   0.00042  -0.00116  -0.00047   0.00010
  41       14F+1        0.00000   0.00000   0.00000   0.00000   0.00000
  42       14F-1       -0.00001  -0.00001   0.00002  -0.00002   0.00328
  43       14F+2       -0.00002   0.00004  -0.00086  -0.00070   0.00007
  44       14F-2        0.00000   0.00000   0.00000   0.00000   0.00000
  45       14F+3        0.00000   0.00000   0.00000   0.00000   0.00000
  46       14F-3        0.00000   0.00000   0.00001  -0.00001   0.00143
  47 2   C  1S          0.82921   0.52456  -0.08433  -0.14829  -0.00218
  48        2S         -0.01111  -0.00598   0.20344   0.41360   0.00616
  49        3S          0.03437   0.02184   0.04540   0.09729   0.00137
  50        4S          0.00351   0.00331   0.12491   0.30008   0.00784
  51        5S          0.00181   0.00136   0.00595   0.01628   0.00085
  52        6PX         0.00000   0.00000   0.00000   0.00000   0.00000
  53        6PY         0.00000   0.00000  -0.00068  -0.00215   0.18566
  54        6PZ         0.00094   0.00053   0.04841  -0.05198  -0.00134
  55        7PX         0.00000   0.00000   0.00000   0.00000   0.00000
  56        7PY        -0.00001  -0.00007  -0.00049  -0.00267   0.24501
  57        7PZ         0.00059   0.00374   0.01530  -0.07398  -0.00170
  58        8PX         0.00000   0.00000   0.00000   0.00000   0.00000
  59        8PY        -0.00008  -0.00002   0.00047  -0.00018   0.06175
  60        8PZ        -0.00101  -0.00011  -0.03938  -0.05533  -0.00125
  61        9PX         0.00000   0.00000   0.00000   0.00000   0.00000
  62        9PY         0.00001   0.00000   0.00012   0.00020  -0.01501
  63        9PZ        -0.00016   0.00002  -0.00249  -0.00022  -0.00008
  64       10D 0        0.00051   0.00069   0.01357   0.00169   0.00011
  65       10D+1        0.00000   0.00000   0.00000   0.00000   0.00000
  66       10D-1       -0.00001  -0.00001  -0.00022  -0.00021   0.00864
  67       10D+2       -0.00044  -0.00021  -0.00310  -0.00951  -0.00004
  68       10D-2        0.00000   0.00000   0.00000   0.00000   0.00000
  69       11D 0       -0.00075   0.00109   0.00276  -0.00161   0.00028
  70       11D+1        0.00000   0.00000   0.00000   0.00000   0.00000
  71       11D-1        0.00005   0.00002  -0.00012  -0.00008  -0.00990
  72       11D+2        0.00032   0.00072  -0.01474  -0.02467  -0.00035
  73       11D-2        0.00000   0.00000   0.00000   0.00000   0.00000
  74       12D 0       -0.00045  -0.00137  -0.01735   0.00281  -0.00051
  75       12D+1        0.00000   0.00000   0.00000   0.00000   0.00000
  76       12D-1        0.00001   0.00002   0.00029   0.00008  -0.01747
  77       12D+2       -0.00049  -0.00087  -0.00938  -0.00216  -0.00062
  78       12D-2        0.00000   0.00000   0.00000   0.00000   0.00000
  79       13F 0        0.00069   0.00044   0.00547   0.00536   0.00018
  80       13F+1        0.00000   0.00000   0.00000   0.00000   0.00000
  81       13F-1       -0.00001   0.00000  -0.00009  -0.00021   0.00877
  82       13F+2        0.00050   0.00019   0.00362   0.00457   0.00019
  83       13F-2        0.00000   0.00000   0.00000   0.00000   0.00000
  84       13F+3        0.00000   0.00000   0.00000   0.00000   0.00000
  85       13F-3        0.00000   0.00000  -0.00001  -0.00002  -0.00063
  86       14F 0       -0.00150  -0.00012  -0.00041   0.00371   0.00030
  87       14F+1        0.00000   0.00000   0.00000   0.00000   0.00000
  88       14F-1       -0.00001  -0.00001   0.00015  -0.00012   0.00782
  89       14F+2       -0.00087  -0.00035   0.00267   0.00726   0.00031
  90       14F-2        0.00000   0.00000   0.00000   0.00000   0.00000
  91       14F+3        0.00000   0.00000   0.00000   0.00000   0.00000
  92       14F-3        0.00000   0.00000   0.00002  -0.00005   0.00027
  93 3   H  1S         -0.00107  -0.00058   0.02530   0.09481   0.07346
  94        2S         -0.00068   0.00042  -0.00017   0.08688   0.06413
  95        3S         -0.00341  -0.00266  -0.04548  -0.03151  -0.01349
  96        4S         -0.00027  -0.00017  -0.00186  -0.00215   0.00756
  97        5PX         0.00000   0.00000   0.00000   0.00000   0.00000
  98        5PY         0.00035   0.00016  -0.00127  -0.00805  -0.00531
  99        5PZ        -0.00024  -0.00010   0.00100   0.00395   0.00630
 100        6PX         0.00000   0.00000   0.00000   0.00000   0.00000
 101        6PY         0.00049  -0.00019   0.00966   0.00034   0.01267
 102        6PZ        -0.00020   0.00031  -0.00931  -0.00455   0.00411
 103        7PX         0.00000   0.00000   0.00000   0.00000   0.00000
 104        7PY         0.00048  -0.00013   0.00685   0.01656   0.00589
 105        7PZ        -0.00068  -0.00101  -0.01815  -0.00627   0.00692
 106        8D 0        0.00007   0.00001   0.00029  -0.00027   0.00181
 107        8D+1        0.00000   0.00000   0.00000   0.00000   0.00000
 108        8D-1        0.00028   0.00013   0.00068  -0.00088  -0.00266
 109        8D+2        0.00018   0.00008   0.00052  -0.00117  -0.00016
 110        8D-2        0.00000   0.00000   0.00000   0.00000   0.00000
 111        9D 0       -0.00025  -0.00003  -0.00187  -0.00113   0.00117
 112        9D+1        0.00000   0.00000   0.00000   0.00000   0.00000
 113        9D-1       -0.00010  -0.00003   0.00382   0.00223   0.00363
 114        9D+2        0.00024   0.00000   0.00173   0.00166   0.00313
 115        9D-2        0.00000   0.00000   0.00000   0.00000   0.00000
 116 4   H  1S         -0.00107  -0.00057   0.02544   0.09616  -0.07020
 117        2S         -0.00075   0.00033   0.00009   0.08817  -0.06162
 118        3S         -0.00359  -0.00274  -0.04518  -0.03102   0.01038
 119        4S         -0.00026  -0.00016  -0.00167  -0.00195  -0.00774
 120        5PX         0.00000   0.00000   0.00000   0.00000   0.00000
 121        5PY        -0.00035  -0.00016   0.00128   0.00815  -0.00506
 122        5PZ        -0.00024  -0.00010   0.00106   0.00411  -0.00623
 123        6PX         0.00000   0.00000   0.00000   0.00000   0.00000
 124        6PY        -0.00052   0.00015  -0.00952  -0.00059   0.01263
 125        6PZ        -0.00018   0.00029  -0.00939  -0.00436  -0.00415
 126        7PX         0.00000   0.00000   0.00000   0.00000   0.00000
 127        7PY        -0.00053   0.00011  -0.00677  -0.01645   0.00563
 128        7PZ        -0.00070  -0.00101  -0.01787  -0.00607  -0.00798
 129        8D 0        0.00008   0.00000   0.00031  -0.00018  -0.00183
 130        8D+1        0.00000   0.00000   0.00000   0.00000   0.00000
 131        8D-1       -0.00028  -0.00013  -0.00063   0.00098  -0.00263
 132        8D+2        0.00018   0.00008   0.00051  -0.00116   0.00011
 133        8D-2        0.00000   0.00000   0.00000   0.00000   0.00000
 134        9D 0       -0.00023  -0.00003  -0.00187  -0.00108  -0.00102
 135        9D+1        0.00000   0.00000   0.00000   0.00000   0.00000
 136        9D-1        0.00011   0.00002  -0.00385  -0.00229   0.00355
 137        9D+2        0.00025   0.00000   0.00172   0.00173  -0.00316
 138        9D-2        0.00000   0.00000   0.00000   0.00000   0.00000
                           6         7         8         9        10
     Eigenvalues --     1.96011   1.95673   1.92262   0.06606   0.02821
   1 1   O  1S          0.00388   0.00027   0.00000   0.00000   0.00338
   2        2S          0.00916  -0.00074   0.00000   0.00000  -0.01295
   3        3S          0.00704  -0.00023   0.00000   0.00000  -0.00494
   4        4S          0.11801  -0.00071   0.00000   0.00000  -0.02803
   5        5S          0.06253   0.00093   0.00000   0.00000  -0.01467
   6        6PX         0.00000   0.00000   0.28161  -0.36416   0.00000
   7        6PY        -0.00446   0.23975   0.00000   0.00000  -0.40190
   8        6PZ         0.28212   0.00240   0.00000   0.00000   0.01604
   9        7PX         0.00000   0.00000   0.35440  -0.43372   0.00000
  10        7PY        -0.00552   0.29563   0.00000   0.00000  -0.30499
  11        7PZ         0.34074   0.00293   0.00000   0.00000   0.02125
  12        8PX         0.00000   0.00000   0.23369  -0.08022   0.00000
  13        8PY        -0.00349   0.24156   0.00000   0.00000   0.17749
  14        8PZ         0.18386   0.00263   0.00000   0.00000   0.00988
  15        9PX         0.00000   0.00000   0.02107   0.00302   0.00000
  16        9PY        -0.00015   0.04042   0.00000   0.00000   0.09960
  17        9PZ         0.00375   0.00035   0.00000   0.00000   0.00254
  18       10D 0       -0.01200  -0.00002   0.00000   0.00000   0.00075
  19       10D+1        0.00000   0.00000  -0.01005  -0.01302   0.00000
  20       10D-1        0.00027  -0.00094   0.00000   0.00000  -0.03078
  21       10D+2       -0.00014  -0.00002   0.00000   0.00000   0.00017
  22       10D-2        0.00000   0.00000   0.00009   0.00012   0.00000
  23       11D 0       -0.02907  -0.00004   0.00000   0.00000  -0.00020
  24       11D+1        0.00000   0.00000  -0.02824  -0.01208   0.00000
  25       11D-1        0.00063  -0.00221   0.00000   0.00000  -0.03977
  26       11D+2       -0.00102  -0.00002   0.00000   0.00000   0.00031
  27       11D-2        0.00000   0.00000   0.00025   0.00017   0.00000
  28       12D 0       -0.00700  -0.00007   0.00000   0.00000  -0.00066
  29       12D+1        0.00000   0.00000  -0.01230   0.01571   0.00000
  30       12D-1        0.00023  -0.00339   0.00000   0.00000   0.01569
  31       12D+2       -0.00128   0.00003   0.00000   0.00000   0.00057
  32       12D-2        0.00000   0.00000   0.00008  -0.00001   0.00000
  33       13F 0        0.00477   0.00001   0.00000   0.00000   0.00018
  34       13F+1        0.00000   0.00000   0.00505   0.00443   0.00000
  35       13F-1       -0.00017   0.00046   0.00000   0.00000   0.00695
  36       13F+2        0.00118   0.00003   0.00000   0.00000   0.00012
  37       13F-2        0.00000   0.00000  -0.00009  -0.00001   0.00000
  38       13F+3        0.00000   0.00000   0.00155  -0.00359   0.00000
  39       13F-3       -0.00002   0.00125   0.00000   0.00000  -0.00165
  40       14F 0        0.00651   0.00003   0.00000   0.00000  -0.00036
  41       14F+1        0.00000   0.00000   0.00347  -0.00357   0.00000
  42       14F-1       -0.00013   0.00169   0.00000   0.00000  -0.00199
  43       14F+2        0.00092   0.00000   0.00000   0.00000   0.00002
  44       14F-2        0.00000   0.00000  -0.00007   0.00002   0.00000
  45       14F+3        0.00000   0.00000   0.00121  -0.00307   0.00000
  46       14F-3       -0.00003  -0.00005   0.00000   0.00000  -0.00272
  47 2   C  1S          0.01561  -0.00018   0.00000   0.00000  -0.00763
  48        2S         -0.03059   0.00052   0.00000   0.00000   0.02790
  49        3S         -0.00946   0.00009   0.00000   0.00000   0.01128
  50        4S          0.10640   0.00238   0.00000   0.00000   0.02423
  51        5S          0.00015   0.00004   0.00000   0.00000   0.00692
  52        6PX         0.00000   0.00000   0.18995   0.31083   0.00000
  53        6PY         0.00011  -0.16522   0.00000   0.00000   0.33450
  54        6PZ        -0.23933  -0.00112   0.00000   0.00000   0.01195
  55        7PX         0.00000   0.00000   0.24855   0.48079   0.00000
  56        7PY        -0.00084  -0.23092   0.00000   0.00000   0.64070
  57        7PZ        -0.25361  -0.00151   0.00000   0.00000   0.02785
  58        8PX         0.00000   0.00000   0.12410   0.18976   0.00000
  59        8PY         0.00025  -0.25301   0.00000   0.00000   0.34096
  60        8PZ        -0.08510  -0.00152   0.00000   0.00000   0.00861
  61        9PX         0.00000   0.00000   0.00177   0.00333   0.00000
  62        9PY        -0.00005  -0.02291   0.00000   0.00000  -0.03773
  63        9PZ        -0.00184  -0.00018   0.00000   0.00000   0.00017
  64       10D 0       -0.01909   0.00015   0.00000   0.00000  -0.00056
  65       10D+1        0.00000   0.00000   0.01985  -0.00029   0.00000
  66       10D-1        0.00017   0.03304   0.00000   0.00000   0.03777
  67       10D+2       -0.00603   0.00010   0.00000   0.00000   0.00054
  68       10D-2        0.00000   0.00000  -0.00015   0.00001   0.00000
  69       11D 0       -0.01214   0.00046   0.00000   0.00000   0.00728
  70       11D+1        0.00000   0.00000   0.02957   0.03796   0.00000
  71       11D-1        0.00024   0.08294   0.00000   0.00000   0.02920
  72       11D+2       -0.00595   0.00020   0.00000   0.00000   0.00454
  73       11D-2        0.00000   0.00000  -0.00020  -0.00030   0.00000
  74       12D 0        0.00089  -0.00015   0.00000   0.00000   0.00168
  75       12D+1        0.00000   0.00000  -0.00410   0.00923   0.00000
  76       12D-1        0.00012   0.06726   0.00000   0.00000   0.03305
  77       12D+2       -0.00556  -0.00006   0.00000   0.00000  -0.00022
  78       12D-2        0.00000   0.00000   0.00010  -0.00025   0.00000
  79       13F 0       -0.00738   0.00006   0.00000   0.00000   0.00077
  80       13F+1        0.00000   0.00000   0.00684   0.00923   0.00000
  81       13F-1        0.00011   0.00422   0.00000   0.00000   0.02417
  82       13F+2       -0.00152   0.00006   0.00000   0.00000   0.00031
  83       13F-2        0.00000   0.00000  -0.00011  -0.00015   0.00000
  84       13F+3        0.00000   0.00000   0.00023  -0.00114   0.00000
  85       13F-3        0.00005   0.00254   0.00000   0.00000  -0.00378
  86       14F 0        0.01011   0.00017   0.00000   0.00000   0.00147
  87       14F+1        0.00000   0.00000   0.00468   0.01663   0.00000
  88       14F-1        0.00000   0.00515   0.00000   0.00000   0.10423
  89       14F+2        0.00652   0.00016   0.00000   0.00000   0.00089
  90       14F-2        0.00000   0.00000  -0.00012  -0.00036   0.00000
  91       14F+3        0.00000   0.00000   0.00232   0.00617   0.00000
  92       14F-3       -0.00002   0.00578   0.00000   0.00000   0.00594
  93 3   H  1S          0.07130  -0.13532   0.00000   0.00000  -0.15637
  94        2S          0.10066  -0.17042   0.00000   0.00000  -0.55832
  95        3S          0.00539   0.08076   0.00000   0.00000  -0.47664
  96        4S          0.00033   0.00957   0.00000   0.00000   0.00539
  97        5PX         0.00000   0.00000   0.00341   0.01209   0.00000
  98        5PY        -0.00798   0.00681   0.00000   0.00000  -0.00471
  99        5PZ         0.00165  -0.00487   0.00000   0.00000   0.01814
 100        6PX         0.00000   0.00000   0.01010   0.02409   0.00000
 101        6PY        -0.01343  -0.00738   0.00000   0.00000   0.13056
 102        6PZ         0.00193   0.00453   0.00000   0.00000   0.02829
 103        7PX         0.00000   0.00000  -0.00421  -0.00689   0.00000
 104        7PY         0.00418  -0.04218   0.00000   0.00000   0.08684
 105        7PZ        -0.00308   0.01988   0.00000   0.00000  -0.02889
 106        8D 0       -0.00205   0.00045   0.00000   0.00000   0.01019
 107        8D+1        0.00000   0.00000   0.00117   0.00380   0.00000
 108        8D-1       -0.00150   0.00100   0.00000   0.00000  -0.00838
 109        8D+2       -0.00216   0.00071   0.00000   0.00000   0.00444
 110        8D-2        0.00000   0.00000  -0.00125  -0.00593   0.00000
 111        9D 0        0.00385  -0.00245   0.00000   0.00000   0.00999
 112        9D+1        0.00000   0.00000   0.00140   0.00166   0.00000
 113        9D-1        0.00008   0.00021   0.00000   0.00000   0.01641
 114        9D+2       -0.00228  -0.00141   0.00000   0.00000   0.01747
 115        9D-2        0.00000   0.00000   0.00104   0.00379   0.00000
 116 4   H  1S          0.07169   0.13603   0.00000   0.00000   0.14605
 117        2S          0.10031   0.17094   0.00000   0.00000   0.54933
 118        3S          0.00627  -0.08234   0.00000   0.00000   0.47242
 119        4S          0.00019  -0.00960   0.00000   0.00000  -0.00646
 120        5PX         0.00000   0.00000   0.00343   0.01210   0.00000
 121        5PY         0.00798   0.00689   0.00000   0.00000  -0.00522
 122        5PZ         0.00163   0.00483   0.00000   0.00000  -0.01748
 123        6PX         0.00000   0.00000   0.01021   0.02430   0.00000
 124        6PY         0.01292  -0.00733   0.00000   0.00000   0.13266
 125        6PZ         0.00153  -0.00459   0.00000   0.00000  -0.02042
 126        7PX         0.00000   0.00000  -0.00398  -0.00708   0.00000
 127        7PY        -0.00404  -0.04241   0.00000   0.00000   0.08724
 128        7PZ        -0.00286  -0.02066   0.00000   0.00000   0.03071
 129        8D 0       -0.00212  -0.00048   0.00000   0.00000  -0.00952
 130        8D+1        0.00000   0.00000   0.00119   0.00375   0.00000
 131        8D-1        0.00140   0.00101   0.00000   0.00000  -0.00762
 132        8D+2       -0.00214  -0.00073   0.00000   0.00000  -0.00432
 133        8D-2        0.00000   0.00000   0.00128   0.00599   0.00000
 134        9D 0        0.00379   0.00257   0.00000   0.00000  -0.00836
 135        9D+1        0.00000   0.00000   0.00137   0.00149   0.00000
 136        9D-1       -0.00031   0.00016   0.00000   0.00000   0.01860
 137        9D+2       -0.00220   0.00141   0.00000   0.00000  -0.01781
 138        9D-2        0.00000   0.00000  -0.00100  -0.00370   0.00000
                          11        12        13        14        15
     Eigenvalues --     0.02651   0.02014   0.01203   0.01188   0.00761
   1 1   O  1S         -0.07226  -0.02661  -0.01152  -0.23631   0.00023
   2        2S          0.28203   0.11503   0.03608   0.74265  -0.00004
   3        3S          0.10858   0.05023   0.03027   0.63221  -0.00063
   4        4S          0.61110   0.39236  -0.06218  -1.37169   0.00556
   5        5S          0.36838   0.27706  -0.03047  -0.58824   0.00236
   6        6PX         0.00000   0.00000   0.00000   0.00000   0.00000
   7        6PY        -0.01522  -0.00066   0.44192  -0.02373   0.13776
   8        6PZ        -0.43795  -0.11904   0.01525   0.26212   0.00060
   9        7PX         0.00000   0.00000   0.00000   0.00000   0.00000
  10        7PY        -0.00917   0.00060   0.19575  -0.01025   0.02957
  11        7PZ        -0.52475  -0.17790   0.00340   0.06801  -0.00069
  12        8PX         0.00000   0.00000   0.00000   0.00000   0.00000
  13        8PY         0.01040   0.00413  -0.41504   0.01877  -0.19215
  14        8PZ        -0.11305  -0.18781  -0.01293  -0.11817  -0.00519
  15        9PX         0.00000   0.00000   0.00000   0.00000   0.00000
  16        9PY         0.00488   0.00111  -0.06185   0.00222  -0.04546
  17        9PZ        -0.04044  -0.05369   0.00097   0.04161  -0.00170
  18       10D 0       -0.03056  -0.02190  -0.00041   0.00610  -0.00316
  19       10D+1        0.00000   0.00000   0.00000   0.00000   0.00000
  20       10D-1       -0.00087   0.00037  -0.00978   0.00050  -0.20825
  21       10D+2       -0.01024   0.00263  -0.00128  -0.02470  -0.00114
  22       10D-2        0.00000   0.00000   0.00000   0.00000   0.00000
  23       11D 0       -0.01656  -0.03284  -0.00350  -0.03096  -0.00707
  24       11D+1        0.00000   0.00000   0.00000   0.00000   0.00000
  25       11D-1       -0.00122   0.00042  -0.07489   0.00382  -0.51214
  26       11D+2       -0.02069   0.00991  -0.00077   0.00068  -0.00257
  27       11D-2        0.00000   0.00000   0.00000   0.00000   0.00000
  28       12D 0       -0.00042   0.02909  -0.00124  -0.02959  -0.00049
  29       12D+1        0.00000   0.00000   0.00000   0.00000   0.00000
  30       12D-1        0.00076  -0.00075  -0.01410   0.00131  -0.12306
  31       12D+2       -0.00906   0.00196  -0.00047   0.00849  -0.00026
  32       12D-2        0.00000   0.00000   0.00000   0.00000   0.00000
  33       13F 0       -0.00018   0.00445   0.00025  -0.00249   0.00068
  34       13F+1        0.00000   0.00000   0.00000   0.00000   0.00000
  35       13F-1        0.00031  -0.00011   0.01288  -0.00058   0.03479
  36       13F+2       -0.00076  -0.00161   0.00014   0.00027   0.00040
  37       13F-2        0.00000   0.00000   0.00000   0.00000   0.00000
  38       13F+3        0.00000   0.00000   0.00000   0.00000   0.00000
  39       13F-3       -0.00006   0.00000  -0.00273   0.00014  -0.00034
  40       14F 0        0.00812   0.01024   0.00137   0.01838   0.00117
  41       14F+1        0.00000   0.00000   0.00000   0.00000   0.00000
  42       14F-1       -0.00033  -0.00009   0.00720  -0.00073   0.07590
  43       14F+2        0.00044  -0.00562   0.00090   0.00727   0.00046
  44       14F-2        0.00000   0.00000   0.00000   0.00000   0.00000
  45       14F+3        0.00000   0.00000   0.00000   0.00000   0.00000
  46       14F-3       -0.00011   0.00003   0.01752  -0.00098   0.00213
  47 2   C  1S          0.16592  -0.11343  -0.00076  -0.00096   0.00065
  48        2S         -0.61852   0.44671   0.00668   0.06979  -0.00252
  49        3S         -0.25714   0.25745   0.00564   0.06751  -0.00223
  50        4S         -0.21156   0.07139  -0.02100  -0.12166  -0.00552
  51        5S         -0.11003  -0.09433   0.00380   0.11480  -0.00037
  52        6PX         0.00000   0.00000   0.00000   0.00000   0.00000
  53        6PY         0.01703  -0.00042   0.41458  -0.01973  -0.12500
  54        6PZ        -0.23569  -0.40692  -0.00223  -0.01516   0.00022
  55        7PX         0.00000   0.00000   0.00000   0.00000   0.00000
  56        7PY         0.03421  -0.00053   0.78481  -0.03837  -0.16632
  57        7PZ        -0.56565  -0.71552   0.00377   0.12806  -0.00365
  58        8PX         0.00000   0.00000   0.00000   0.00000   0.00000
  59        8PY         0.01803  -0.00447   0.57705  -0.02685   0.07092
  60        8PZ        -0.30592  -0.22985   0.01615   0.27615   0.00160
  61        9PX         0.00000   0.00000   0.00000   0.00000   0.00000
  62        9PY        -0.00111  -0.00038   0.04893  -0.00258  -0.00031
  63        9PZ        -0.01363  -0.00777   0.00168   0.01998   0.00048
  64       10D 0        0.01793   0.01403  -0.00065   0.01237   0.00266
  65       10D+1        0.00000   0.00000   0.00000   0.00000   0.00000
  66       10D-1        0.00144   0.00045  -0.10063   0.00517   0.24520
  67       10D+2       -0.00543   0.01448  -0.00221  -0.02739   0.00226
  68       10D-2        0.00000   0.00000   0.00000   0.00000   0.00000
  69       11D 0       -0.09197  -0.06801  -0.00602  -0.01435  -0.00103
  70       11D+1        0.00000   0.00000   0.00000   0.00000   0.00000
  71       11D-1        0.00287   0.00298  -0.57201   0.02888   0.09286
  72       11D+2       -0.07472  -0.03406  -0.00344  -0.02103  -0.00006
  73       11D-2        0.00000   0.00000   0.00000   0.00000   0.00000
  74       12D 0       -0.06555  -0.03668   0.00782   0.10523  -0.00112
  75       12D+1        0.00000   0.00000   0.00000   0.00000   0.00000
  76       12D-1        0.00320   0.00140  -0.19667   0.00865  -0.15568
  77       12D+2       -0.02096  -0.02569   0.00470   0.05744  -0.00139
  78       12D-2        0.00000   0.00000   0.00000   0.00000   0.00000
  79       13F 0       -0.00864  -0.01556  -0.00028  -0.00021   0.00017
  80       13F+1        0.00000   0.00000   0.00000   0.00000   0.00000
  81       13F-1        0.00144   0.00006  -0.00782   0.00057   0.00788
  82       13F+2       -0.00006   0.01063  -0.00016  -0.00088   0.00039
  83       13F-2        0.00000   0.00000   0.00000   0.00000   0.00000
  84       13F+3        0.00000   0.00000   0.00000   0.00000   0.00000
  85       13F-3       -0.00022  -0.00007  -0.02470   0.00134   0.01770
  86       14F 0       -0.00115  -0.00292  -0.00393  -0.03135  -0.00209
  87       14F+1        0.00000   0.00000   0.00000   0.00000   0.00000
  88       14F-1        0.00488   0.00026  -0.12535   0.00835  -0.08878
  89       14F+2        0.01749   0.01249  -0.00256  -0.01380  -0.00226
  90       14F-2        0.00000   0.00000   0.00000   0.00000   0.00000
  91       14F+3        0.00000   0.00000   0.00000   0.00000   0.00000
  92       14F-3       -0.00001   0.00039  -0.08771   0.00481   0.01152
  93 3   H  1S          0.09732  -0.23937  -0.09269   0.06479  -0.12421
  94        2S          0.03118  -0.62314  -0.87063   0.18335   0.07650
  95        3S         -0.11485  -0.18881  -0.72741   0.22413   0.06821
  96        4S          0.00638   0.00775  -0.03607  -0.00400   0.01462
  97        5PX         0.00000   0.00000   0.00000   0.00000   0.00000
  98        5PY        -0.00283  -0.02395  -0.03379  -0.01154   0.06450
  99        5PZ        -0.01153  -0.00809   0.01825   0.00706  -0.01330
 100        6PX         0.00000   0.00000   0.00000   0.00000   0.00000
 101        6PY         0.03103   0.05274   0.12731  -0.04981   0.07753
 102        6PZ        -0.06585  -0.07734  -0.17515   0.03869  -0.01943
 103        7PX         0.00000   0.00000   0.00000   0.00000   0.00000
 104        7PY         0.02144   0.01925   0.15264  -0.01744   0.05664
 105        7PZ        -0.05490  -0.03616  -0.08885   0.10266   0.02875
 106        8D 0       -0.00301  -0.01116  -0.00634  -0.00214   0.01783
 107        8D+1        0.00000   0.00000   0.00000   0.00000   0.00000
 108        8D-1        0.00794  -0.00280  -0.00692  -0.00542   0.00633
 109        8D+2       -0.00014  -0.00988  -0.01230  -0.00619   0.01595
 110        8D-2        0.00000   0.00000   0.00000   0.00000   0.00000
 111        9D 0       -0.00525  -0.00087   0.00650  -0.00698   0.02186
 112        9D+1        0.00000   0.00000   0.00000   0.00000   0.00000
 113        9D-1        0.02088   0.01505   0.01467  -0.02066   0.00970
 114        9D+2        0.00068   0.00875   0.00713  -0.00341   0.01828
 115        9D-2        0.00000   0.00000   0.00000   0.00000   0.00000
 116 4   H  1S          0.11005  -0.24119   0.09678   0.05705   0.12278
 117        2S          0.08346  -0.63000   0.88252   0.10010  -0.07396
 118        3S         -0.06942  -0.19907   0.75700   0.15663  -0.06644
 119        4S          0.00706   0.00727   0.03615  -0.00797  -0.01442
 120        5PX         0.00000   0.00000   0.00000   0.00000   0.00000
 121        5PY         0.00213   0.02399  -0.03243   0.01497   0.06416
 122        5PZ        -0.01345  -0.00803  -0.01673   0.00858   0.01159
 123        6PX         0.00000   0.00000   0.00000   0.00000   0.00000
 124        6PY        -0.01886  -0.05359   0.13144   0.03939   0.07799
 125        6PZ        -0.06688  -0.07760   0.17522   0.01864   0.01476
 126        7PX         0.00000   0.00000   0.00000   0.00000   0.00000
 127        7PY        -0.01334  -0.02137   0.15341   0.00411   0.05900
 128        7PZ        -0.05074  -0.03716   0.10225   0.09289  -0.02991
 129        8D 0       -0.00369  -0.01114   0.00600  -0.00309  -0.01857
 130        8D+1        0.00000   0.00000   0.00000   0.00000   0.00000
 131        8D-1       -0.00866   0.00273  -0.00623   0.00590   0.00560
 132        8D+2       -0.00054  -0.01000   0.01164  -0.00761  -0.01615
 133        8D-2        0.00000   0.00000   0.00000   0.00000   0.00000
 134        9D 0       -0.00563  -0.00059  -0.00912  -0.00652  -0.02345
 135        9D+1        0.00000   0.00000   0.00000   0.00000   0.00000
 136        9D-1       -0.01898  -0.01485   0.01660   0.01913   0.00956
 137        9D+2       -0.00107   0.00873  -0.00710  -0.00298  -0.01825
 138        9D-2        0.00000   0.00000   0.00000   0.00000   0.00000
                          16        17        18        19        20
     Eigenvalues --     0.00747   0.00719   0.00707   0.00701   0.00600
   1 1   O  1S         -0.01319   0.00000   0.00000  -0.02435   0.00000
   2        2S          0.02400   0.00000   0.00000   0.05439   0.00000
   3        3S          0.03628   0.00000   0.00000   0.07457   0.00000
   4        4S         -0.08163   0.00000   0.00000  -0.19466   0.00000
   5        5S          0.11369   0.00000   0.00000  -0.11942   0.00000
   6        6PX         0.00000   0.21105  -0.00095   0.00000  -0.45102
   7        6PY         0.00077   0.00000   0.00000  -0.00106   0.00000
   8        6PZ        -0.05957   0.00000   0.00000   0.14211   0.00000
   9        7PX         0.00000   0.09815  -0.00032   0.00000  -0.16250
  10        7PY         0.00057   0.00000   0.00000   0.00014   0.00000
  11        7PZ         0.01336   0.00000   0.00000   0.01964   0.00000
  12        8PX         0.00000  -0.38918   0.00228   0.00000   0.54032
  13        8PY         0.00027   0.00000   0.00000   0.00464   0.00000
  14        8PZ         0.20341   0.00000   0.00000  -0.26029   0.00000
  15        9PX         0.00000  -0.08170   0.00028   0.00000   0.08356
  16        9PY        -0.00012   0.00000   0.00000   0.00063   0.00000
  17        9PZ         0.00045   0.00000   0.00000  -0.01057   0.00000
  18       10D 0        0.20604   0.00000   0.00000  -0.06880   0.00000
  19       10D+1        0.00000  -0.19788   0.00329   0.00000  -0.09707
  20       10D-1       -0.00340   0.00000   0.00000   0.00036   0.00000
  21       10D+2        0.04524   0.00000   0.00000   0.16682   0.00000
  22       10D-2        0.00000   0.00275   0.19696   0.00000   0.00221
  23       11D 0        0.45251   0.00000   0.00000  -0.15561   0.00000
  24       11D+1        0.00000  -0.46951   0.00728   0.00000  -0.18987
  25       11D-1       -0.00751   0.00000   0.00000   0.00054   0.00000
  26       11D+2        0.09062   0.00000   0.00000   0.39429   0.00000
  27       11D-2        0.00000   0.00676   0.43379   0.00000   0.00431
  28       12D 0        0.05838   0.00000   0.00000   0.04679   0.00000
  29       12D+1        0.00000  -0.00483   0.00076   0.00000  -0.07186
  30       12D-1       -0.00107   0.00000   0.00000  -0.00139   0.00000
  31       12D+2        0.01618   0.00000   0.00000   0.10266   0.00000
  32       12D-2        0.00000   0.00080   0.07609   0.00000   0.00093
  33       13F 0       -0.03839   0.00000   0.00000   0.01598   0.00000
  34       13F+1        0.00000   0.04900  -0.00066   0.00000  -0.00697
  35       13F-1        0.00098   0.00000   0.00000  -0.00010   0.00000
  36       13F+2       -0.00586   0.00000   0.00000  -0.02064   0.00000
  37       13F-2        0.00000  -0.00070  -0.02457   0.00000  -0.00017
  38       13F+3        0.00000  -0.00641  -0.00020   0.00000   0.01596
  39       13F-3        0.00002   0.00000   0.00000   0.00014   0.00000
  40       14F 0       -0.07147   0.00000   0.00000   0.01106   0.00000
  41       14F+1        0.00000   0.05430  -0.00110   0.00000   0.02560
  42       14F-1        0.00138   0.00000   0.00000   0.00010   0.00000
  43       14F+2       -0.00691   0.00000   0.00000  -0.05046   0.00000
  44       14F-2        0.00000  -0.00133  -0.04620   0.00000  -0.00028
  45       14F+3        0.00000   0.00813  -0.00048   0.00000  -0.01044
  46       14F-3        0.00027   0.00000   0.00000   0.00054   0.00000
  47 2   C  1S         -0.05984   0.00000   0.00000   0.09162   0.00000
  48        2S          0.15690   0.00000   0.00000  -0.28452   0.00000
  49        3S          0.10991   0.00000   0.00000  -0.25491   0.00000
  50        4S          0.11353   0.00000   0.00000  -0.60545   0.00000
  51        5S         -0.01586   0.00000   0.00000  -0.07651   0.00000
  52        6PX         0.00000   0.25618  -0.00091   0.00000  -0.19771
  53        6PY         0.00077   0.00000   0.00000   0.00091   0.00000
  54        6PZ         0.24673   0.00000   0.00000   0.05308   0.00000
  55        7PX         0.00000   0.14282  -0.00011   0.00000  -0.33481
  56        7PY         0.00630   0.00000   0.00000  -0.00013   0.00000
  57        7PZ        -0.25874   0.00000   0.00000   0.21127   0.00000
  58        8PX         0.00000  -0.13709   0.00103   0.00000   0.09780
  59        8PY        -0.00649   0.00000   0.00000  -0.00801   0.00000
  60        8PZ        -0.08514   0.00000   0.00000   0.29585   0.00000
  61        9PX         0.00000   0.02422  -0.00001   0.00000  -0.01884
  62        9PY         0.00024   0.00000   0.00000  -0.00064   0.00000
  63        9PZ         0.00593   0.00000   0.00000   0.02306   0.00000
  64       10D 0        0.21948   0.00000   0.00000  -0.02815   0.00000
  65       10D+1        0.00000   0.18781   0.00013   0.00000   0.20968
  66       10D-1       -0.00348   0.00000   0.00000  -0.00165   0.00000
  67       10D+2        0.05819   0.00000   0.00000   0.22280   0.00000
  68       10D-2        0.00000   0.00024   0.24578   0.00000  -0.00183
  69       11D 0        0.15117   0.00000   0.00000   0.03988   0.00000
  70       11D+1        0.00000   0.03254   0.00183   0.00000   0.30915
  71       11D-1       -0.00429   0.00000   0.00000  -0.00394   0.00000
  72       11D+2        0.02306   0.00000   0.00000   0.42191   0.00000
  73       11D-2        0.00000   0.00234   0.31156   0.00000  -0.00205
  74       12D 0       -0.03282   0.00000   0.00000   0.08304   0.00000
  75       12D+1        0.00000   0.00616   0.00023   0.00000  -0.04935
  76       12D-1        0.00120   0.00000   0.00000  -0.00092   0.00000
  77       12D+2       -0.01702   0.00000   0.00000   0.07329   0.00000
  78       12D-2        0.00000  -0.00001   0.00975   0.00000   0.00134
  79       13F 0        0.05543   0.00000   0.00000  -0.05232   0.00000
  80       13F+1        0.00000   0.04186   0.00019   0.00000  -0.00540
  81       13F-1       -0.00135   0.00000   0.00000   0.00049   0.00000
  82       13F+2        0.01767   0.00000   0.00000   0.00108   0.00000
  83       13F-2        0.00000  -0.00064   0.00814   0.00000   0.00039
  84       13F+3        0.00000  -0.00090   0.00054   0.00000   0.04767
  85       13F-3       -0.00063   0.00000   0.00000  -0.00058   0.00000
  86       14F 0       -0.04507   0.00000   0.00000  -0.08945   0.00000
  87       14F+1        0.00000  -0.06461   0.00000   0.00000   0.03628
  88       14F-1       -0.00137   0.00000   0.00000   0.00073   0.00000
  89       14F+2       -0.02486   0.00000   0.00000  -0.11014   0.00000
  90       14F-2        0.00000   0.00024  -0.00957   0.00000  -0.00062
  91       14F+3        0.00000  -0.05939   0.00013   0.00000   0.03752
  92       14F-3       -0.00058   0.00000   0.00000   0.00060   0.00000
  93 3   H  1S         -0.03300   0.00000   0.00000  -0.09406   0.00000
  94        2S         -0.09245   0.00000   0.00000   0.47095   0.00000
  95        3S         -0.06026   0.00000   0.00000   0.42527   0.00000
  96        4S          0.00001   0.00000   0.00000   0.01463   0.00000
  97        5PX         0.00000  -0.01837   0.06997   0.00000  -0.06489
  98        5PY        -0.00034   0.00000   0.00000   0.03189   0.00000
  99        5PZ        -0.05622   0.00000   0.00000  -0.04866   0.00000
 100        6PX         0.00000  -0.14772   0.11772   0.00000  -0.04444
 101        6PY         0.05716   0.00000   0.00000  -0.07256   0.00000
 102        6PZ        -0.14967   0.00000   0.00000   0.00782   0.00000
 103        7PX         0.00000  -0.05076   0.00435   0.00000  -0.00264
 104        7PY         0.01750   0.00000   0.00000  -0.05311   0.00000
 105        7PZ        -0.07190   0.00000   0.00000   0.06807   0.00000
 106        8D 0       -0.01381   0.00000   0.00000  -0.01564   0.00000
 107        8D+1        0.00000  -0.00357   0.02597   0.00000  -0.01172
 108        8D-1        0.02858   0.00000   0.00000   0.01423   0.00000
 109        8D+2       -0.00095   0.00000   0.00000   0.01039   0.00000
 110        8D-2        0.00000   0.01650  -0.03827   0.00000   0.03330
 111        9D 0       -0.02237   0.00000   0.00000  -0.01304   0.00000
 112        9D+1        0.00000  -0.05686   0.00202   0.00000   0.03467
 113        9D-1        0.02818   0.00000   0.00000  -0.00928   0.00000
 114        9D+2        0.02215   0.00000   0.00000   0.01904   0.00000
 115        9D-2        0.00000   0.02895  -0.00641   0.00000  -0.01328
 116 4   H  1S         -0.03638   0.00000   0.00000  -0.09697   0.00000
 117        2S         -0.08294   0.00000   0.00000   0.47279   0.00000
 118        3S         -0.06791   0.00000   0.00000   0.41768   0.00000
 119        4S          0.00061   0.00000   0.00000   0.01366   0.00000
 120        5PX         0.00000  -0.01907  -0.07006   0.00000  -0.06377
 121        5PY        -0.00126   0.00000   0.00000  -0.03317   0.00000
 122        5PZ        -0.05639   0.00000   0.00000  -0.04893   0.00000
 123        6PX         0.00000  -0.14843  -0.11692   0.00000  -0.04144
 124        6PY        -0.05669   0.00000   0.00000   0.07313   0.00000
 125        6PZ        -0.14617   0.00000   0.00000   0.00532   0.00000
 126        7PX         0.00000  -0.05079  -0.00391   0.00000  -0.00026
 127        7PY        -0.02057   0.00000   0.00000   0.05082   0.00000
 128        7PZ        -0.07298   0.00000   0.00000   0.06431   0.00000
 129        8D 0       -0.01298   0.00000   0.00000  -0.01564   0.00000
 130        8D+1        0.00000  -0.00365  -0.02576   0.00000  -0.01110
 131        8D-1       -0.02827   0.00000   0.00000  -0.01461   0.00000
 132        8D+2       -0.00042   0.00000   0.00000   0.01060   0.00000
 133        8D-2        0.00000  -0.01668  -0.03827   0.00000  -0.03280
 134        9D 0       -0.02176   0.00000   0.00000  -0.01356   0.00000
 135        9D+1        0.00000  -0.05621  -0.00197   0.00000   0.03460
 136        9D-1       -0.02758   0.00000   0.00000   0.00928   0.00000
 137        9D+2        0.02229   0.00000   0.00000   0.01951   0.00000
 138        9D-2        0.00000  -0.02868  -0.00584   0.00000   0.01370
                          21        22        23        24        25
     Eigenvalues --     0.00519   0.00484   0.00337   0.00283   0.00252
   1 1   O  1S         -0.00848   0.00000  -0.00279   0.11745   0.00000
   2        2S          0.02004   0.00000   0.00884  -0.33062   0.00000
   3        3S          0.00564   0.00000   0.00868  -0.37452   0.00000
   4        4S          0.38788   0.00000   0.01238  -0.28398   0.00000
   5        5S          0.12927   0.00000   0.01299  -0.50653   0.00000
   6        6PX         0.00000   0.00272   0.00000   0.00000  -0.14871
   7        6PY         0.00080   0.00000   0.19042   0.00174   0.00000
   8        6PZ        -0.20202   0.00000  -0.00815   0.36586   0.00000
   9        7PX         0.00000   0.00072   0.00000   0.00000   0.03676
  10        7PY         0.00001   0.00000  -0.04311  -0.00411   0.00000
  11        7PZ        -0.04822   0.00000  -0.00340   0.08591   0.00000
  12        8PX         0.00000  -0.00318   0.00000   0.00000  -0.41025
  13        8PY        -0.00346   0.00000  -0.71314  -0.02701   0.00000
  14        8PZ         0.01450   0.00000   0.00186  -0.24631   0.00000
  15        9PX         0.00000  -0.00046   0.00000   0.00000  -0.06556
  16        9PY        -0.00034   0.00000  -0.04409  -0.00316   0.00000
  17        9PZ        -0.01820   0.00000  -0.00258   0.06485   0.00000
  18       10D 0        0.06004   0.00000   0.00837  -0.17040   0.00000
  19       10D+1        0.00000   0.00305   0.00000   0.00000   0.33040
  20       10D-1       -0.00297   0.00000   0.30105   0.01151   0.00000
  21       10D+2        0.26021   0.00000   0.00032   0.08081   0.00000
  22       10D-2        0.00000   0.27397   0.00000   0.00000  -0.00353
  23       11D 0        0.13369   0.00000   0.01534  -0.34697   0.00000
  24       11D+1        0.00000   0.00536   0.00000   0.00000   0.55298
  25       11D-1       -0.00528   0.00000   0.46147   0.02027   0.00000
  26       11D+2        0.50814   0.00000   0.00182   0.06122   0.00000
  27       11D-2        0.00000   0.51414   0.00000   0.00000  -0.00588
  28       12D 0        0.02218   0.00000   0.00095   0.03863   0.00000
  29       12D+1        0.00000   0.00108   0.00000   0.00000   0.18820
  30       12D-1       -0.00017   0.00000   0.17732   0.00717   0.00000
  31       12D+2        0.07464   0.00000   0.00370  -0.07664   0.00000
  32       12D-2        0.00000   0.09815   0.00000   0.00000  -0.00114
  33       13F 0       -0.01204   0.00000  -0.00033   0.00777   0.00000
  34       13F+1        0.00000   0.00011   0.00000   0.00000   0.03195
  35       13F-1        0.00025   0.00000   0.00452   0.00010   0.00000
  36       13F+2       -0.01253   0.00000   0.00020  -0.00055   0.00000
  37       13F-2        0.00000  -0.00021   0.00000   0.00000  -0.00032
  38       13F+3        0.00000  -0.00007   0.00000   0.00000  -0.01051
  39       13F-3        0.00014   0.00000  -0.00139   0.00003   0.00000
  40       14F 0       -0.01118   0.00000  -0.00123   0.02250   0.00000
  41       14F+1        0.00000  -0.00026   0.00000   0.00000  -0.02263
  42       14F-1        0.00061   0.00000  -0.01979  -0.00151   0.00000
  43       14F+2       -0.03483   0.00000  -0.00146   0.03877   0.00000
  44       14F-2        0.00000  -0.02467   0.00000   0.00000   0.00042
  45       14F+3        0.00000  -0.00023   0.00000   0.00000  -0.01599
  46       14F-3        0.00021   0.00000  -0.00236  -0.00065   0.00000
  47 2   C  1S         -0.03661   0.00000   0.00132  -0.04232   0.00000
  48        2S          0.12385   0.00000  -0.00563   0.16581   0.00000
  49        3S          0.11656   0.00000  -0.00468   0.15664   0.00000
  50        4S         -0.23644   0.00000   0.00232  -0.21636   0.00000
  51        5S         -0.07835   0.00000  -0.00226   0.05221   0.00000
  52        6PX         0.00000   0.00094   0.00000   0.00000   0.51115
  53        6PY         0.00022   0.00000   0.12350   0.00468   0.00000
  54        6PZ        -0.15061   0.00000  -0.00338   0.23761   0.00000
  55        7PX         0.00000   0.00145   0.00000   0.00000   0.40951
  56        7PY         0.00273   0.00000   0.30871   0.00773   0.00000
  57        7PZ        -0.26339   0.00000  -0.00102   0.16514   0.00000
  58        8PX         0.00000  -0.00045   0.00000   0.00000   0.14319
  59        8PY         0.01003   0.00000   1.48399   0.04933   0.00000
  60        8PZ        -0.09917   0.00000  -0.01877   0.71085   0.00000
  61        9PX         0.00000   0.00007   0.00000   0.00000   0.01430
  62        9PY         0.00030   0.00000   0.02567   0.00152   0.00000
  63        9PZ        -0.00362   0.00000  -0.00023   0.03443   0.00000
  64       10D 0       -0.08334   0.00000  -0.00549   0.28355   0.00000
  65       10D+1        0.00000  -0.00210   0.00000   0.00000   0.18114
  66       10D-1        0.00102   0.00000   0.09377   0.00158   0.00000
  67       10D+2       -0.11495   0.00000   0.00135  -0.05278   0.00000
  68       10D-2        0.00000  -0.20585   0.00000   0.00000  -0.00142
  69       11D 0       -0.21705   0.00000  -0.00978   0.52521   0.00000
  70       11D+1        0.00000  -0.00344   0.00000   0.00000   0.37506
  71       11D-1        0.00443   0.00000   0.28952   0.00635   0.00000
  72       11D+2       -0.24509   0.00000   0.00478  -0.10686   0.00000
  73       11D-2        0.00000  -0.25920   0.00000   0.00000  -0.00276
  74       12D 0       -0.00859   0.00000  -0.00538   0.24432   0.00000
  75       12D+1        0.00000   0.00034   0.00000   0.00000   0.03749
  76       12D-1       -0.00039   0.00000  -0.15832  -0.00661   0.00000
  77       12D+2        0.03581   0.00000  -0.00323   0.15750   0.00000
  78       12D-2        0.00000   0.04353   0.00000   0.00000  -0.00120
  79       13F 0        0.06627   0.00000  -0.00159  -0.03653   0.00000
  80       13F+1        0.00000   0.00054   0.00000   0.00000  -0.00661
  81       13F-1       -0.00152   0.00000  -0.22520  -0.00476   0.00000
  82       13F+2        0.09261   0.00000  -0.00439   0.07306   0.00000
  83       13F-2        0.00000   0.10280   0.00000   0.00000   0.00035
  84       13F+3        0.00000   0.00016   0.00000   0.00000   0.03782
  85       13F-3       -0.00041   0.00000  -0.00267   0.00018   0.00000
  86       14F 0        0.05354   0.00000  -0.00493   0.18181   0.00000
  87       14F+1        0.00000  -0.00021   0.00000   0.00000   0.09176
  88       14F-1        0.00169   0.00000   0.01556   0.00008   0.00000
  89       14F+2        0.07740   0.00000  -0.00311   0.10926   0.00000
  90       14F-2        0.00000   0.00777   0.00000   0.00000  -0.00168
  91       14F+3        0.00000  -0.00042   0.00000   0.00000   0.00338
  92       14F-3        0.00034   0.00000   0.00416  -0.00042   0.00000
  93 3   H  1S          0.15960   0.00000  -0.30467   0.23363   0.00000
  94        2S         -0.23990   0.00000  -0.13143  -0.09291   0.00000
  95        3S         -0.11052   0.00000  -1.10770   0.25876   0.00000
  96        4S          0.00648   0.00000  -0.01448   0.00076   0.00000
  97        5PX         0.00000  -0.09160   0.00000   0.00000  -0.09069
  98        5PY        -0.01504   0.00000   0.10615  -0.10006   0.00000
  99        5PZ         0.06558   0.00000   0.01671  -0.04005   0.00000
 100        6PX         0.00000  -0.20184   0.00000   0.00000  -0.23695
 101        6PY         0.07213   0.00000   0.15223  -0.06869   0.00000
 102        6PZ         0.03528   0.00000   0.06913  -0.12064   0.00000
 103        7PX         0.00000  -0.06554   0.00000   0.00000  -0.07086
 104        7PY         0.04054   0.00000   0.33004   0.02966   0.00000
 105        7PZ         0.00243   0.00000  -0.17632   0.10083   0.00000
 106        8D 0        0.02119   0.00000   0.00739  -0.03399   0.00000
 107        8D+1        0.00000  -0.02962   0.00000   0.00000  -0.02059
 108        8D-1       -0.02249   0.00000   0.01877   0.00879   0.00000
 109        8D+2       -0.00270   0.00000   0.02745  -0.04667   0.00000
 110        8D-2        0.00000   0.04152   0.00000   0.00000   0.04514
 111        9D 0        0.00182   0.00000   0.01364   0.02324   0.00000
 112        9D+1        0.00000   0.00067   0.00000   0.00000  -0.01693
 113        9D-1        0.00528   0.00000   0.00319   0.02365   0.00000
 114        9D+2       -0.01291   0.00000   0.03174  -0.01281   0.00000
 115        9D-2        0.00000   0.02213   0.00000   0.00000   0.03797
 116 4   H  1S          0.16494   0.00000   0.28759   0.24855   0.00000
 117        2S         -0.23894   0.00000   0.14112  -0.08453   0.00000
 118        3S         -0.09831   0.00000   1.09539   0.34133   0.00000
 119        4S          0.00681   0.00000   0.01478   0.00280   0.00000
 120        5PX         0.00000   0.09290   0.00000   0.00000  -0.08990
 121        5PY         0.01664   0.00000   0.10163   0.10556   0.00000
 122        5PZ         0.06587   0.00000  -0.01644  -0.04146   0.00000
 123        6PX         0.00000   0.20278   0.00000   0.00000  -0.23510
 124        6PY        -0.06999   0.00000   0.15141   0.07674   0.00000
 125        6PZ         0.03381   0.00000  -0.06524  -0.12437   0.00000
 126        7PX         0.00000   0.06543   0.00000   0.00000  -0.07222
 127        7PY        -0.03614   0.00000   0.33010  -0.00655   0.00000
 128        7PZ         0.00461   0.00000   0.17120   0.11290   0.00000
 129        8D 0        0.02107   0.00000  -0.00637  -0.03449   0.00000
 130        8D+1        0.00000   0.02959   0.00000   0.00000  -0.02012
 131        8D-1        0.02312   0.00000   0.01821  -0.00855   0.00000
 132        8D+2       -0.00304   0.00000  -0.02547  -0.04842   0.00000
 133        8D-2        0.00000   0.04234   0.00000   0.00000  -0.04486
 134        9D 0        0.00140   0.00000  -0.01555   0.02200   0.00000
 135        9D+1        0.00000  -0.00167   0.00000   0.00000  -0.01724
 136        9D-1       -0.00482   0.00000   0.00384  -0.02373   0.00000
 137        9D+2       -0.01335   0.00000  -0.03116  -0.01460   0.00000
 138        9D-2        0.00000   0.02221   0.00000   0.00000  -0.03779
                          26        27        28        29        30
     Eigenvalues --     0.00211   0.00163   0.00139   0.00132   0.00107
   1 1   O  1S         -0.00014   0.00958   0.04966   0.00014   0.00000
   2        2S          0.00193  -0.03184  -0.28095  -0.00408   0.00000
   3        3S          0.00113  -0.02882  -0.27470  -0.00268   0.00000
   4        4S          0.01152  -0.04066   0.19234  -0.00225   0.00000
   5        5S          0.00516   0.15801  -0.47791  -0.00768   0.00000
   6        6PX         0.00000   0.00000   0.00000   0.00000   0.08202
   7        6PY        -0.29440   0.00027   0.00869  -0.45557   0.00000
   8        6PZ        -0.00357   0.23405   0.14038  -0.00337   0.00000
   9        7PX         0.00000   0.00000   0.00000   0.00000  -0.06903
  10        7PY         0.13930   0.00045  -0.01214   0.48098   0.00000
  11        7PZ        -0.00109  -0.16842   0.12908   0.00715   0.00000
  12        8PX         0.00000   0.00000   0.00000   0.00000  -0.01923
  13        8PY        -0.23093   0.01022   0.00010  -0.09517   0.00000
  14        8PZ        -0.00655  -0.26348  -1.02261  -0.01640   0.00000
  15        9PX         0.00000   0.00000   0.00000   0.00000   0.01182
  16        9PY        -0.04590   0.00196   0.00277  -0.19354   0.00000
  17        9PZ        -0.00245  -0.01769   0.05476  -0.00048   0.00000
  18       10D 0        0.00274   0.19058   0.39819   0.00932   0.00000
  19       10D+1        0.00000   0.00000   0.00000   0.00000   0.01192
  20       10D-1        0.05432  -0.00596  -0.00556   0.16442   0.00000
  21       10D+2       -0.00005   0.25949  -0.08931   0.00111   0.00000
  22       10D-2        0.00000   0.00000   0.00000   0.00000  -0.34284
  23       11D 0        0.00659   0.17874   0.35253   0.00986   0.00000
  24       11D+1        0.00000   0.00000   0.00000   0.00000   0.00294
  25       11D-1        0.21406  -0.00783  -0.00450   0.19014   0.00000
  26       11D+2        0.00195   0.24678  -0.16151   0.00019   0.00000
  27       11D-2        0.00000   0.00000   0.00000   0.00000  -0.21507
  28       12D 0        0.00251   0.04467   0.22600   0.00618   0.00000
  29       12D+1        0.00000   0.00000   0.00000   0.00000  -0.01790
  30       12D-1        0.14194  -0.00270  -0.00282   0.09814   0.00000
  31       12D+2        0.00230  -0.02921  -0.06607  -0.00062   0.00000
  32       12D-2        0.00000   0.00000   0.00000   0.00000   0.08856
  33       13F 0        0.00025   0.07521   0.13933   0.00637   0.00000
  34       13F+1        0.00000   0.00000   0.00000   0.00000  -0.00198
  35       13F-1       -0.00425  -0.00253  -0.00408   0.15610   0.00000
  36       13F+2        0.00004   0.06410  -0.05175   0.00169   0.00000
  37       13F-2        0.00000   0.00000   0.00000   0.00000  -0.21009
  38       13F+3        0.00000   0.00000   0.00000   0.00000  -0.00306
  39       13F-3        0.01245  -0.00058   0.00063  -0.01156   0.00000
  40       14F 0       -0.00121   0.01718   0.05953   0.00181   0.00000
  41       14F+1        0.00000   0.00000   0.00000   0.00000   0.00659
  42       14F-1       -0.05157  -0.00070  -0.00115   0.04672   0.00000
  43       14F+2       -0.00203   0.04732  -0.01381   0.00107   0.00000
  44       14F-2        0.00000   0.00000   0.00000   0.00000  -0.13824
  45       14F+3        0.00000   0.00000   0.00000   0.00000   0.00067
  46       14F-3       -0.01713  -0.00012   0.00020  -0.01266   0.00000
  47 2   C  1S          0.00026   0.07233   0.15278   0.00227   0.00000
  48        2S         -0.00106  -0.27906  -0.50079  -0.00798   0.00000
  49        3S         -0.00098  -0.36223  -0.68340  -0.01167   0.00000
  50        4S         -0.00429   1.27709  -1.28968  -0.01220   0.00000
  51        5S         -0.00014   0.05650  -0.08086  -0.00164   0.00000
  52        6PX         0.00000   0.00000   0.00000   0.00000  -0.01600
  53        6PY         0.30276   0.00088   0.00000   0.15173   0.00000
  54        6PZ        -0.00131  -0.25286  -0.49596  -0.00898   0.00000
  55        7PX         0.00000   0.00000   0.00000   0.00000  -0.01620
  56        7PY         0.32511  -0.00484  -0.00658   0.39844   0.00000
  57        7PZ        -0.00587  -0.07542   0.12347   0.00276   0.00000
  58        8PX         0.00000   0.00000   0.00000   0.00000   0.05718
  59        8PY         1.42340  -0.02212   0.03299  -1.24122   0.00000
  60        8PZ        -0.00291  -0.30862   0.86899   0.01278   0.00000
  61        9PX         0.00000   0.00000   0.00000   0.00000  -0.00583
  62        9PY         0.04584  -0.00173   0.00013   0.03506   0.00000
  63        9PZ         0.00016  -0.01831  -0.00698  -0.00009   0.00000
  64       10D 0        0.00079   0.11497   0.12173   0.00535   0.00000
  65       10D+1        0.00000   0.00000   0.00000   0.00000   0.01484
  66       10D-1       -0.02974  -0.00052  -0.00884   0.53794   0.00000
  67       10D+2        0.00290  -0.30262   0.22715   0.00461   0.00000
  68       10D-2        0.00000   0.00000   0.00000   0.00000   0.26034
  69       11D 0       -0.00158   0.16551   0.25354   0.00735   0.00000
  70       11D+1        0.00000   0.00000   0.00000   0.00000   0.01283
  71       11D-1        0.08314  -0.00129  -0.00102  -0.03027   0.00000
  72       11D+2        0.00229  -0.48037   0.26452   0.00309   0.00000
  73       11D-2        0.00000   0.00000   0.00000   0.00000   0.35785
  74       12D 0       -0.00437   0.04686   0.48864   0.00621   0.00000
  75       12D+1        0.00000   0.00000   0.00000   0.00000   0.00158
  76       12D-1       -0.41825   0.00092  -0.00757   0.10461   0.00000
  77       12D+2       -0.00350  -0.04652   0.31145   0.00334   0.00000
  78       12D-2        0.00000   0.00000   0.00000   0.00000   0.00753
  79       13F 0        0.00147  -0.12451   0.02044   0.00167   0.00000
  80       13F+1        0.00000   0.00000   0.00000   0.00000  -0.01817
  81       13F-1        0.24859   0.00284  -0.00345   0.07192   0.00000
  82       13F+2        0.00172  -0.19031   0.09764   0.00183   0.00000
  83       13F-2        0.00000   0.00000   0.00000   0.00000   0.38665
  84       13F+3        0.00000   0.00000   0.00000   0.00000   0.02289
  85       13F-3        0.13628   0.00200   0.00028  -0.10625   0.00000
  86       14F 0        0.00190  -0.07478   0.10885   0.00075   0.00000
  87       14F+1        0.00000   0.00000   0.00000   0.00000  -0.01085
  88       14F-1        0.15055  -0.00011  -0.00057   0.05988   0.00000
  89       14F+2        0.00122  -0.07593   0.06601   0.00055   0.00000
  90       14F-2        0.00000   0.00000   0.00000   0.00000   0.14849
  91       14F+3        0.00000   0.00000   0.00000   0.00000   0.00385
  92       14F-3        0.02517   0.00206   0.00013  -0.04292   0.00000
  93 3   H  1S         -0.38089  -0.26576   0.21828   0.30466   0.00000
  94        2S         -0.25382  -0.26707   0.28037  -0.12365   0.00000
  95        3S         -1.13485  -0.27583   0.75841   0.87016   0.00000
  96        4S         -0.01955  -0.00898   0.00995  -0.00610   0.00000
  97        5PX         0.00000   0.00000   0.00000   0.00000  -0.12705
  98        5PY         0.02231   0.01922  -0.05325   0.03168   0.00000
  99        5PZ        -0.16017   0.01946  -0.00617   0.03062   0.00000
 100        6PX         0.00000   0.00000   0.00000   0.00000  -0.29069
 101        6PY        -0.02592   0.05385  -0.10277   0.29978   0.00000
 102        6PZ        -0.30879   0.00352   0.10587  -0.07200   0.00000
 103        7PX         0.00000   0.00000   0.00000   0.00000  -0.04827
 104        7PY         0.29516   0.09132   0.02330  -0.12708   0.00000
 105        7PZ        -0.19818  -0.03523   0.36906   0.07300   0.00000
 106        8D 0       -0.03317   0.01885  -0.02259   0.03493   0.00000
 107        8D+1        0.00000   0.00000   0.00000   0.00000  -0.00786
 108        8D-1        0.05169   0.01083  -0.01529  -0.02355   0.00000
 109        8D+2        0.00656   0.00134  -0.03177   0.01297   0.00000
 110        8D-2        0.00000   0.00000   0.00000   0.00000   0.03363
 111        9D 0       -0.03051  -0.01453   0.02507   0.01316   0.00000
 112        9D+1        0.00000   0.00000   0.00000   0.00000  -0.02091
 113        9D-1        0.03645  -0.01338  -0.03742   0.02707   0.00000
 114        9D+2       -0.00167  -0.00367   0.00873   0.04878   0.00000
 115        9D-2        0.00000   0.00000   0.00000   0.00000   0.03838
 116 4   H  1S          0.38220  -0.26635   0.22578  -0.30293   0.00000
 117        2S          0.24814  -0.27590   0.27996   0.13223   0.00000
 118        3S          1.12694  -0.31890   0.82292  -0.84806   0.00000
 119        4S          0.01942  -0.01164   0.01103   0.00619   0.00000
 120        5PX         0.00000   0.00000   0.00000   0.00000   0.09820
 121        5PY         0.02205  -0.02109   0.05277   0.03117   0.00000
 122        5PZ         0.15851   0.02099  -0.00773  -0.02996   0.00000
 123        6PX         0.00000   0.00000   0.00000   0.00000   0.27381
 124        6PY        -0.02815  -0.05686   0.09665   0.29970   0.00000
 125        6PZ         0.30614   0.00379   0.09661   0.08007   0.00000
 126        7PX         0.00000   0.00000   0.00000   0.00000   0.05942
 127        7PY         0.29722  -0.10116  -0.01050  -0.12770   0.00000
 128        7PZ         0.19513  -0.04368   0.37022  -0.06259   0.00000
 129        8D 0        0.03228   0.01872  -0.02219  -0.03470   0.00000
 130        8D+1        0.00000   0.00000   0.00000   0.00000   0.00190
 131        8D-1        0.05129  -0.01081   0.01490  -0.02315   0.00000
 132        8D+2       -0.00645   0.00169  -0.03152  -0.01346   0.00000
 133        8D-2        0.00000   0.00000   0.00000   0.00000   0.02076
 134        9D 0        0.03047  -0.01462   0.02365  -0.01263   0.00000
 135        9D+1        0.00000   0.00000   0.00000   0.00000   0.02314
 136        9D-1        0.03586   0.01433   0.03593   0.02884   0.00000
 137        9D+2        0.00181  -0.00305   0.01006  -0.04803   0.00000
 138        9D-2        0.00000   0.00000   0.00000   0.00000   0.05275
                          31        32        33        34        35
     Eigenvalues --     0.00105   0.00087   0.00086   0.00080   0.00065
   1 1   O  1S          0.00000   0.00000   0.04812  -0.00038  -0.26104
   2        2S          0.00000   0.00000   0.00086   0.00409  -0.21014
   3        3S          0.00000   0.00000  -0.11854   0.00355   0.69744
   4        4S          0.00000   0.00000   0.11160   0.00914   0.13898
   5        5S          0.00000   0.00000   0.13767   0.00116   0.63635
   6        6PX         0.72601  -0.00453   0.00000   0.00000   0.00000
   7        6PY         0.00000   0.00000  -0.02394   0.70274  -0.00332
   8        6PZ         0.00000   0.00000   0.23913   0.00861   0.73250
   9        7PX        -0.63285  -0.04481   0.00000   0.00000   0.00000
  10        7PY         0.00000   0.00000   0.03620  -1.11017   0.00492
  11        7PZ         0.00000   0.00000  -0.21433  -0.01754  -1.21510
  12        8PX        -0.17054   0.44007   0.00000   0.00000   0.00000
  13        8PY         0.00000   0.00000   0.01616  -0.44166  -0.00492
  14        8PZ         0.00000   0.00000   0.18685   0.00189   0.62449
  15        9PX         0.10819   0.03674   0.00000   0.00000   0.00000
  16        9PY         0.00000   0.00000  -0.00466   0.17186  -0.00026
  17        9PZ         0.00000   0.00000   0.02752   0.00439   0.13019
  18       10D 0        0.00000   0.00000  -0.04802   0.00056   0.10807
  19       10D+1        0.13726  -0.24629   0.00000   0.00000   0.00000
  20       10D-1        0.00000   0.00000  -0.00529   0.21602  -0.00468
  21       10D+2        0.00000   0.00000   0.00840   0.00258  -0.15723
  22       10D-2        0.03777   0.00118   0.00000   0.00000   0.00000
  23       11D 0        0.00000   0.00000  -0.07263   0.00372   0.05944
  24       11D+1        0.05808  -0.15000   0.00000   0.00000   0.00000
  25       11D-1        0.00000   0.00000  -0.00953   0.32335   0.00128
  26       11D+2        0.00000   0.00000   0.00375   0.00458   0.02474
  27       11D-2        0.02284   0.00033   0.00000   0.00000   0.00000
[...]
   6        6PX         0.01440   0.00000   0.00000   0.00000   0.00000
   7        6PY         0.00000  -0.00035   0.00250  -0.00411  -0.00023
   8        6PZ         0.00000   0.02300   0.00155   0.00009  -0.01668
   9        7PX        -0.06122   0.00000   0.00000   0.00000   0.00000
  10        7PY         0.00000  -0.00060   0.02207  -0.04176   0.00069
  11        7PZ         0.00000  -0.13232  -0.00881  -0.00190   0.03533
  12        8PX         0.42331   0.00000   0.00000   0.00000   0.00000
  13        8PY         0.00000  -0.14071   3.16951  -2.41611  -0.00028
  14        8PZ         0.00000   3.66214   0.23557  -0.04657   0.84465
  15        9PX        -0.68035   0.00000   0.00000   0.00000   0.00000
  16        9PY         0.00000   0.09546  -0.89323  -0.09966   0.01455
  17        9PZ         0.00000   5.51008   0.37514  -0.05302  -0.36653
  18       10D 0        0.00000  -0.02891  -0.00173  -0.00036   0.00935
  19       10D+1        0.00556   0.00000   0.00000   0.00000   0.00000
  20       10D-1        0.00000  -0.00038   0.01064  -0.00787  -0.00013
  21       10D+2        0.00000   0.03466   0.00244  -0.00031   0.00760
  22       10D-2       -0.00002   0.00000   0.00000   0.00000   0.00000
  23       11D 0        0.00000   0.04934   0.00352   0.00218  -0.05351
  24       11D+1       -0.06152   0.00000   0.00000   0.00000   0.00000
  25       11D-1        0.00000   0.00224  -0.07029   0.10362  -0.00037
  26       11D+2        0.00000  -0.13108  -0.00934   0.00224  -0.02802
  27       11D-2        0.00018   0.00000   0.00000   0.00000   0.00000
  28       12D 0        0.00000  -1.74437  -0.11370   0.01392  -0.45444
  29       12D+1       -0.08386   0.00000   0.00000   0.00000   0.00000
  30       12D-1        0.00000   0.06849  -1.48858   1.06649  -0.00105
  31       12D+2        0.00000   0.28988   0.00673   0.00909  -0.02286
  32       12D-2       -0.00389   0.00000   0.00000   0.00000   0.00000
  33       13F 0        0.00000  -0.00562  -0.00082   0.00041  -0.00802
  34       13F+1       -0.00693   0.00000   0.00000   0.00000   0.00000
  35       13F-1        0.00000   0.00203  -0.04154   0.02350   0.00039
  36       13F+2        0.00000   0.00447  -0.00022   0.00022  -0.00367
  37       13F-2       -0.00071   0.00000   0.00000   0.00000   0.00000
  38       13F+3        0.01957   0.00000   0.00000   0.00000   0.00000
  39       13F-3        0.00000  -0.00117   0.01285  -0.01146   0.00000
  40       14F 0        0.00000   0.13240   0.00908  -0.00253   0.08104
  41       14F+1        0.07974   0.00000   0.00000   0.00000   0.00000
  42       14F-1        0.00000  -0.00774   0.16363  -0.12533  -0.00037
  43       14F+2        0.00000  -0.01557   0.00053  -0.00183   0.00330
  44       14F-2        0.00167   0.00000   0.00000   0.00000   0.00000
  45       14F+3       -0.03051   0.00000   0.00000   0.00000   0.00000
  46       14F-3        0.00000   0.00236  -0.02910   0.01348  -0.00022
  47 2   C  1S          0.00000   0.07950   0.00484  -0.00319   0.20213
  48        2S          0.00000   0.44088   0.02702  -0.01927   1.21922
  49        3S          0.00000  -0.07787  -0.00537   0.00103  -0.00168
  50        4S          0.00000   5.71992   0.14981  -0.30571  25.32092
  51        5S          0.00000   8.03103   0.48338  -0.22712  10.39054
  52        6PX         0.00461   0.00000   0.00000   0.00000   0.00000
  53        6PY         0.00000  -0.00247   0.02901   0.00594   0.00018
  54        6PZ         0.00000   0.00368   0.00061  -0.00064   0.03670
  55        7PX         0.01483   0.00000   0.00000   0.00000   0.00000
  56        7PY         0.00000   0.14133  -1.83189  -1.40675  -0.01715
  57        7PZ         0.00000   0.69316   0.02223   0.02352  -1.05087
  58        8PX         3.93467   0.00000   0.00000   0.00000   0.00000
  59        8PY         0.00000   0.91031 -16.50762  -8.35072  -0.15402
  60        8PZ         0.00000  -2.66960  -0.09616  -0.00911  -9.47541
  61        9PX         2.26308   0.00000   0.00000   0.00000   0.00000
  62        9PY         0.00000  -0.19686   1.60407  -5.33142  -0.06075
  63        9PZ         0.00000  -2.28465  -0.13812   0.00179  -2.06959
  64       10D 0        0.00000  -0.05600  -0.00441   0.00055   0.02157
  65       10D+1        0.01537   0.00000   0.00000   0.00000   0.00000
  66       10D-1        0.00000  -0.00123   0.01501   0.02101  -0.00018
  67       10D+2        0.00000   0.02178   0.00092   0.00105  -0.05301
  68       10D-2        0.00003   0.00000   0.00000   0.00000   0.00000
  69       11D 0        0.00000   0.71422   0.04044  -0.00475   0.14952
  70       11D+1       -0.36930   0.00000   0.00000   0.00000   0.00000
  71       11D-1        0.00000  -0.14196   1.41157   1.25313   0.00125
  72       11D+2        0.00000  -0.27603  -0.01709   0.01663  -0.92297
  73       11D-2        0.00011   0.00000   0.00000   0.00000   0.00000
  74       12D 0        0.00000   1.37910   0.17631  -0.08043   1.80542
  75       12D+1       -1.38941   0.00000   0.00000   0.00000   0.00000
  76       12D-1        0.00000  -0.17884   2.48560   2.38775   0.01692
  77       12D+2        0.00000   0.28845   0.07825  -0.02174  -0.23728
  78       12D-2       -0.00956   0.00000   0.00000   0.00000   0.00000
  79       13F 0        0.00000   0.01880   0.00189  -0.00054   0.02558
  80       13F+1       -0.03854   0.00000   0.00000   0.00000   0.00000
  81       13F-1        0.00000  -0.00236   0.04931  -0.01967  -0.00166
  82       13F+2        0.00000   0.01026   0.00230  -0.00179   0.04531
  83       13F-2       -0.00057   0.00000   0.00000   0.00000   0.00000
  84       13F+3        0.10501   0.00000   0.00000   0.00000   0.00000
  85       13F-3        0.00000  -0.00769   0.07459   0.01667  -0.00031
  86       14F 0        0.00000  -0.06053  -0.02036   0.00405   0.17610
  87       14F+1        0.05143   0.00000   0.00000   0.00000   0.00000
  88       14F-1        0.00000   0.10430  -1.98997   1.16239  -0.00060
  89       14F+2        0.00000   0.41997   0.00629   0.00632   0.45079
  90       14F-2        0.00868   0.00000   0.00000   0.00000   0.00000
  91       14F+3       -0.32057   0.00000   0.00000   0.00000   0.00000
  92       14F-3        0.00000   0.01471  -0.23222   0.33632   0.00198
  93 3   H  1S          0.00000   0.02257  -0.06615   0.00902   0.04747
  94        2S          0.00000  -1.66035   2.98096   1.68544  -2.84010
  95        3S          0.00000  -0.03782  26.14777  14.27318 -14.55226
  96        4S          0.00000  -0.98897  -1.77958   4.68245  -1.61389
  97        5PX        -0.08407   0.00000   0.00000   0.00000   0.00000
  98        5PY         0.00000   0.01410   0.11640   0.07302  -0.09484
  99        5PZ         0.00000  -0.02044   0.03195  -0.10532   0.03133
 100        6PX        -0.01471   0.00000   0.00000   0.00000   0.00000
 101        6PY         0.00000   0.30093  -2.12625  -0.75369   1.50468
 102        6PZ         0.00000   0.30662  -0.45084   1.47241  -0.60749
 103        7PX        -3.03524   0.00000   0.00000   0.00000   0.00000
 104        7PY         0.00000   0.54225  -9.20030  -1.91595   4.77536
 105        7PZ         0.00000   4.04070   1.86674   2.89282   0.06445
 106        8D 0        0.00000  -0.06073   0.04855  -0.02819  -0.02572
 107        8D+1        0.02613   0.00000   0.00000   0.00000   0.00000
 108        8D-1        0.00000   0.05898  -0.10397  -0.01008   0.06561
 109        8D+2        0.00000   0.03723   0.05435  -0.04506   0.04309
 110        8D-2       -0.06529   0.00000   0.00000   0.00000   0.00000
 111        9D 0        0.00000   0.67179  -1.16090   0.49418   0.42628
 112        9D+1       -0.23593   0.00000   0.00000   0.00000   0.00000
 113        9D-1        0.00000  -0.82886   0.24983  -0.76744   0.14045
 114        9D+2        0.00000  -0.06846  -1.17992   0.12659   0.44024
 115        9D-2        0.50242   0.00000   0.00000   0.00000   0.00000
 116 4   H  1S          0.00000   0.01304   0.06904  -0.01121   0.04746
 117        2S          0.00000  -1.19505  -3.10223  -1.62684  -2.87072
 118        3S          0.00000   3.21890 -25.58251 -14.13350 -14.93498
 119        4S          0.00000  -1.33695   1.64408  -4.63210  -1.70774
 120        5PX        -0.08331   0.00000   0.00000   0.00000   0.00000
 121        5PY         0.00000  -0.02703   0.11211   0.07105   0.09600
 122        5PZ         0.00000  -0.01834  -0.03545   0.10497   0.03226
 123        6PX        -0.02430   0.00000   0.00000   0.00000   0.00000
 124        6PY         0.00000   0.00984  -2.14498  -0.70846  -1.51932
 125        6PZ         0.00000   0.29484   0.49287  -1.45157  -0.61979
 126        7PX        -3.05866   0.00000   0.00000   0.00000   0.00000
 127        7PY         0.00000   0.67642  -9.21568  -1.80440  -4.82743
 128        7PZ         0.00000   4.23952  -1.17343  -2.98343  -0.01584
 129        8D 0        0.00000  -0.05420  -0.05778   0.02894  -0.02384
 130        8D+1        0.02699   0.00000   0.00000   0.00000   0.00000
 131        8D-1        0.00000  -0.04174  -0.11261  -0.00729  -0.06493
 132        8D+2        0.00000   0.04320  -0.04911   0.04306   0.04504
 133        8D-2        0.06607   0.00000   0.00000   0.00000   0.00000
 134        9D 0        0.00000   0.51950   1.24694  -0.50812   0.41705
 135        9D+1       -0.23662   0.00000   0.00000   0.00000   0.00000
 136        9D-1        0.00000   0.80862   0.36075  -0.76550  -0.15138
 137        9D+2        0.00000  -0.23377   1.17730  -0.14572   0.43471
 138        9D-2       -0.51061   0.00000   0.00000   0.00000   0.00000
                         136       137       138
     Eigenvalues --     0.00000   0.00000   0.00000
   1 1   O  1S         -0.06089   0.00057   0.00949
   2        2S         -0.29423   0.00273   0.05176
   3        3S          0.03828  -0.00057   0.00103
   4        4S          4.43144  -0.05858  -1.09236
   5        5S         13.13799  -0.16218  -6.80994
   6        6PX         0.00000   0.00000   0.00000
   7        6PY         0.00024   0.00505  -0.00007
   8        6PZ        -0.00472   0.00021   0.00544
   9        7PX         0.00000   0.00000   0.00000
  10        7PY         0.00072  -0.01312   0.00031
  11        7PZ        -0.07847  -0.00028  -0.03072
  12        8PX         0.00000   0.00000   0.00000
  13        8PY         0.06144   1.47499  -0.00892
  14        8PZ        -1.39806   0.02412   0.89631
  15        9PX         0.00000   0.00000   0.00000
  16        9PY         0.01227   1.54920  -0.01337
  17        9PZ        -1.07654   0.01956   1.43358
  18       10D 0       -0.01634   0.00006   0.00147
  19       10D+1        0.00000   0.00000   0.00000
  20       10D-1        0.00028  -0.00226  -0.00004
  21       10D+2        0.00382  -0.00015  -0.00165
  22       10D-2        0.00000   0.00000   0.00000
  23       11D 0        0.10939  -0.00038  -0.00589
  24       11D+1        0.00000   0.00000   0.00000
  25       11D-1       -0.00287  -0.01612   0.00013
  26       11D+2       -0.01299   0.00020   0.00412
  27       11D-2        0.00000   0.00000   0.00000
  28       12D 0       -0.08570  -0.00660  -0.20155
  29       12D+1        0.00000   0.00000   0.00000
  30       12D-1       -0.01521  -0.58265   0.00309
  31       12D+2        0.32072  -0.00906  -0.04085
  32       12D-2        0.00000   0.00000   0.00000
  33       13F 0       -0.00815  -0.00021  -0.00398
  34       13F+1        0.00000   0.00000   0.00000
  35       13F-1       -0.00025  -0.00491   0.00008
  36       13F+2        0.01298  -0.00009  -0.00222
  37       13F-2        0.00000   0.00000   0.00000
  38       13F+3        0.00000   0.00000   0.00000
  39       13F-3       -0.00029  -0.00509   0.00007
  40       14F 0        0.01580   0.00079   0.01747
  41       14F+1        0.00000   0.00000   0.00000
  42       14F-1        0.00116   0.02917  -0.00030
  43       14F+2       -0.06163   0.00083   0.01083
  44       14F-2        0.00000   0.00000   0.00000
  45       14F+3        0.00000   0.00000   0.00000
  46       14F-3        0.00130   0.01474  -0.00024
  47 2   C  1S         -0.03815  -0.00021   0.00510
  48        2S         -0.21668  -0.00090   0.03521
  49        3S          0.11732  -0.00045   0.02750
  50        4S         -5.35525   0.03523  10.05124
  51        5S         -4.21224   0.09358  13.51322
  52        6PX         0.00000   0.00000   0.00000
  53        6PY        -0.00005  -0.01395   0.00011
  54        6PZ        -0.02386   0.00026   0.00222
  55        7PX         0.00000   0.00000   0.00000
  56        7PY         0.00027   0.01369  -0.00379
  57        7PZ         0.23725  -0.00658   0.00969
  58        8PX         0.00000   0.00000   0.00000
  59        8PY        -0.04211  -7.55044  -0.01640
  60        8PZ        -1.46232   0.02578  -0.03788
  61        9PX         0.00000   0.00000   0.00000
  62        9PY         0.05217  -5.56331  -0.01407
  63        9PZ        -2.32696   0.01807  -0.22545
  64       10D 0        0.01404  -0.00035  -0.00401
  65       10D+1        0.00000   0.00000   0.00000
  66       10D-1       -0.00023  -0.01414   0.00016
  67       10D+2       -0.00556  -0.00033  -0.00772
  68       10D-2        0.00000   0.00000   0.00000
  69       11D 0       -0.79356   0.00308   0.13173
  70       11D+1        0.00000   0.00000   0.00000
  71       11D-1        0.01164  -0.18510  -0.00009
  72       11D+2        0.20701  -0.00292  -0.05069
  73       11D-2        0.00000   0.00000   0.00000
  74       12D 0       -6.06671   0.05196   0.72206
  75       12D+1        0.00000   0.00000   0.00000
  76       12D-1        0.03918  -0.73520  -0.00648
  77       12D+2       -2.83346   0.01074  -0.29827
  78       12D-2        0.00000   0.00000   0.00000
  79       13F 0       -0.03724   0.00018  -0.00914
  80       13F+1        0.00000   0.00000   0.00000
  81       13F-1        0.00111   0.01946   0.00009
  82       13F+2       -0.01658   0.00025  -0.00145
  83       13F-2        0.00000   0.00000   0.00000
  84       13F+3        0.00000   0.00000   0.00000
  85       13F-3        0.00017  -0.01783   0.00012
  86       14F 0       -0.17682  -0.00268   0.06829
  87       14F+1        0.00000   0.00000   0.00000
  88       14F-1       -0.02074  -0.53256  -0.00147
  89       14F+2       -0.34594  -0.00273   0.05514
  90       14F-2        0.00000   0.00000   0.00000
  91       14F+3        0.00000   0.00000   0.00000
  92       14F-3       -0.00345  -0.03495  -0.00033
  93 3   H  1S         -0.01668   0.00911  -0.00311
  94        2S          1.03624  -0.10611  -0.19323
  95        3S         -3.36782  11.42185  -5.31393
  96        4S         -0.31743   8.37320  -3.07115
  97        5PX         0.00000   0.00000   0.00000
  98        5PY         0.00396   0.03030  -0.01284
  99        5PZ         0.04198   0.00197   0.00586
 100        6PX         0.00000   0.00000   0.00000
 101        6PY        -0.44997  -0.25896   0.19066
 102        6PZ        -0.19844  -0.18506  -0.08899
 103        7PX         0.00000   0.00000   0.00000
 104        7PY        -2.27036  -3.62512   1.56387
 105        7PZ        -3.88966   2.58795  -0.62786
 106        8D 0        0.01164  -0.00773   0.00187
 107        8D+1        0.00000   0.00000   0.00000
 108        8D-1       -0.04774   0.02549  -0.00823
 109        8D+2        0.01340   0.04179  -0.00421
 110        8D-2        0.00000   0.00000   0.00000
 111        9D 0       -0.32681  -0.07016   0.04309
 112        9D+1        0.00000   0.00000   0.00000
 113        9D-1        0.29390  -0.09055   0.11333
 114        9D+2       -0.31333  -0.34261   0.11366
 115        9D-2        0.00000   0.00000   0.00000
 116 4   H  1S         -0.01601  -0.00815  -0.00292
 117        2S          1.01549   0.09460  -0.19929
 118        3S         -3.70877 -11.35924  -5.31070
 119        4S         -0.28613  -8.37795  -3.09111
 120        5PX         0.00000   0.00000   0.00000
 121        5PY        -0.00277   0.03074   0.01301
 122        5PZ         0.03984  -0.00155   0.00567
 123        6PX         0.00000   0.00000   0.00000
 124        6PY         0.42196  -0.26830  -0.19388
 125        6PZ        -0.16989   0.18318  -0.08886
 126        7PX         0.00000   0.00000   0.00000
 127        7PY         2.08428  -3.64480  -1.56114
 128        7PZ        -3.86600  -2.50084  -0.62887
 129        8D 0        0.01032   0.00677   0.00189
 130        8D+1        0.00000   0.00000   0.00000
 131        8D-1        0.04710   0.02409   0.00793
 132        8D+2        0.01031  -0.04143  -0.00396
 133        8D-2        0.00000   0.00000   0.00000
 134        9D 0       -0.29584   0.07828   0.04350
 135        9D+1        0.00000   0.00000   0.00000
 136        9D-1       -0.28512  -0.08269  -0.11337
 137        9D+2       -0.28144   0.34817   0.11347
 138        9D-2        0.00000   0.00000   0.00000
          Condensed to atoms (all electrons):
              1          2          3          4
     1  O    8.193730   0.349399  -0.063285  -0.062436
     2  C    0.349399   5.719353   0.207043   0.208484
     3  H   -0.063285   0.207043   0.434326  -0.030401
     4  H   -0.062436   0.208484  -0.030401   0.434983
 Mulliken atomic charges:
              1
     1  O   -0.417408
     2  C   -0.484279
     3  H    0.452316
     4  H    0.449370
 Sum of Mulliken atomic charges =   0.00000
 Mulliken charges with hydrogens summed into heavy atoms:
              1
     1  O   -0.417408
     2  C    0.417408
 Sum of Mulliken charges with hydrogens summed into heavy atoms =   0.00000
 Electronic spatial extent (au):  <R**2>=             60.6346
 Charge=              0.0000 electrons
 Dipole moment (field-independent basis, Debye):
    X=              0.0000    Y=              0.0217    Z=             -2.4422  Tot=              2.4423
 Quadrupole moment (field-independent basis, Debye-Ang):
   XX=            -11.7379   YY=            -11.6215   ZZ=            -12.2709
   XY=              0.0000   XZ=              0.0000   YZ=             -0.0031
 Traceless Quadrupole moment (field-independent basis, Debye-Ang):
   XX=              0.1388   YY=              0.2552   ZZ=             -0.3941
   XY=              0.0000   XZ=              0.0000   YZ=             -0.0031
 Octapole moment (field-independent basis, Debye-Ang**2):
  XXX=              0.0000  YYY=              0.1759  ZZZ=              0.3111  XYY=              0.0000
  XXY=              0.0556  XXZ=              0.5813  XZZ=              0.0000  YZZ=              0.0780
  YYZ=             -0.7025  XYZ=              0.0000
 Hexadecapole moment (field-independent basis, Debye-Ang**3):
 XXXX=            -10.5193 YYYY=            -18.2530 ZZZZ=            -46.2405 XXXY=              0.0000
 XXXZ=              0.0000 YYYX=              0.0000 YYYZ=              0.1119 ZZZX=              0.0000
 ZZZY=              0.0572 XXYY=             -5.1558 XXZZ=             -9.3943 YYZZ=            -10.4554
 XXYZ=              0.0298 YYXZ=              0.0000 ZZXY=              0.0000
 N-N= 3.130426910266D+01 E-N=-3.313604370620D+02  KE= 1.142314804068D+02
 1\1\GINC-TRAPISTA\SP\RQCISD-FC\Aug-CC-pVTZ\C1H2O1\BRUNS\20-Nov-2021\0\
 \# qcisd/aug-cc-pvtz nosymm density=current output=wfn\\h2co-wavefunct
 ion\\0,1\O,0,0.,-0.01,0.679252\C,0,0.,0.,-0.526911\H,0,0.,0.936614,-1.
 10662\H,0,0.,-0.936614,-1.10662\\Version=EM64L-G09RevB.01\HF=-113.9138
 083\MP2=-114.3163324\MP3=-114.3203497\MP4D=-114.3305726\MP4DQ=-114.321
 6996\MP4SDQ=-114.3269622\QCISD=-114.3269677\RMSD=2.900e-09\Dipole=0.,0
 .0085454,-0.9608246\Quadrupole=0.1032231,0.1897634,-0.2929865,0.,0.,-0
 .0023383\PG=CS [SG(C1H2O1)]\\@

 Writing a WFN file to GAUSSIAN.wfn.


 THE POLHOLDE ROLLS WITHOUT SLIPPING ON THE HERPOLHOLDE LYING IN
 THE INVARIABLE PLANE.
 H.GOLDSTEIN, "CLASSICAL MECHANICS", PG 161
 Job cpu time:  0 days  0 hours 22 minutes 51.9 seconds.
 File lengths (MBytes):  RWF=   5787 Int=      0 D2E=      0 Chk=      2 Scr=      1
 Normal termination of Gaussian 09 at Sat Nov 20 17:35:33 2021.
