 h2co-wavefunction
GAUSSIAN            138 MOL ORBITALS    198 PRIMITIVES        4 NUCLEI
  O    1    (CENTRE  1)   0.00000000  0.00000000  1.28360026  CHARGE =  8.0
  C    2    (CENTRE  2)   0.00000000  0.00000000 -0.99571749  CHARGE =  6.0
  H    3    (CENTRE  3)   0.00000000  1.75104669 -2.09120873  CHARGE =  1.0
  H    4    (CENTRE  4)   0.00000000 -1.76994395 -2.09120873  CHARGE =  1.0
CENTRE ASSIGNMENTS    1  1  1  1  1  1  1  1  1  1  1  1  1  1  1  1  1  1  1  1
CENTRE ASSIGNMENTS    1  1  1  1  1  1  1  1  1  1  1  1  1  1  1  1  1  1  1  1
CENTRE ASSIGNMENTS    1  1  1  1  1  1  1  1  1  1  1  1  1  1  1  1  1  1  1  1
CENTRE ASSIGNMENTS    1  1  1  1  1  1  1  1  1  1  1  1  2  2  2  2  2  2  2  2
CENTRE ASSIGNMENTS    2  2  2  2  2  2  2  2  2  2  2  2  2  2  2  2  2  2  2  2
CENTRE ASSIGNMENTS    2  2  2  2  2  2  2  2  2  2  2  2  2  2  2  2  2  2  2  2
CENTRE ASSIGNMENTS    2  2  2  2  2  2  2  2  2  2  2  2  2  2  2  2  2  2  2  2
CENTRE ASSIGNMENTS    2  2  2  2  3  3  3  3  3  3  3  3  3  3  3  3  3  3  3  3
CENTRE ASSIGNMENTS    3  3  3  3  3  3  3  3  3  3  3  4  4  4  4  4  4  4  4  4
CENTRE ASSIGNMENTS    4  4  4  4  4  4  4  4  4  4  4  4  4  4  4  4  4  4
TYPE ASSIGNMENTS      1  1  1  1  1  1  1  1  1  1  1  1  1  1  1  1  2  2  2  3
TYPE ASSIGNMENTS      3  3  4  4  4  2  3  4  2  3  4  2  3  4  5  6  7  8  9 10
TYPE ASSIGNMENTS      5  6  7  8  9 10  5  6  7  8  9 10 11 12 13 17 14 15 18 19
TYPE ASSIGNMENTS     16 20 11 12 13 17 14 15 18 19 16 20  1  1  1  1  1  1  1  1
TYPE ASSIGNMENTS      1  1  1  1  1  1  1  1  2  2  2  3  3  3  4  4  4  2  3  4
TYPE ASSIGNMENTS      2  3  4  2  3  4  5  6  7  8  9 10  5  6  7  8  9 10  5  6
TYPE ASSIGNMENTS      7  8  9 10 11 12 13 17 14 15 18 19 16 20 11 12 13 17 14 15
TYPE ASSIGNMENTS     18 19 16 20  1  1  1  1  1  1  2  3  4  2  3  4  2  3  4  5
TYPE ASSIGNMENTS      6  7  8  9 10  5  6  7  8  9 10  1  1  1  1  1  1  2  3  4
TYPE ASSIGNMENTS      2  3  4  2  3  4  5  6  7  8  9 10  5  6  7  8  9 10
EXPONENTS  0.1533000D+05 0.2299000D+04 0.5224000D+03 0.1473000D+03 0.4755000D+02
EXPONENTS  0.1676000D+02 0.6207000D+01 0.5224000D+03 0.1473000D+03 0.4755000D+02
EXPONENTS  0.1676000D+02 0.6207000D+01 0.6882000D+00 0.1752000D+01 0.2384000D+00
EXPONENTS  0.7376000D-01 0.3446000D+02 0.7749000D+01 0.2280000D+01 0.3446000D+02
EXPONENTS  0.7749000D+01 0.2280000D+01 0.3446000D+02 0.7749000D+01 0.2280000D+01
EXPONENTS  0.7156000D+00 0.7156000D+00 0.7156000D+00 0.2140000D+00 0.2140000D+00
EXPONENTS  0.2140000D+00 0.5974000D-01 0.5974000D-01 0.5974000D-01 0.2314000D+01
EXPONENTS  0.2314000D+01 0.2314000D+01 0.2314000D+01 0.2314000D+01 0.2314000D+01
EXPONENTS  0.6450000D+00 0.6450000D+00 0.6450000D+00 0.6450000D+00 0.6450000D+00
EXPONENTS  0.6450000D+00 0.2140000D+00 0.2140000D+00 0.2140000D+00 0.2140000D+00
EXPONENTS  0.2140000D+00 0.2140000D+00 0.1428000D+01 0.1428000D+01 0.1428000D+01
EXPONENTS  0.1428000D+01 0.1428000D+01 0.1428000D+01 0.1428000D+01 0.1428000D+01
EXPONENTS  0.1428000D+01 0.1428000D+01 0.5000000D+00 0.5000000D+00 0.5000000D+00
EXPONENTS  0.5000000D+00 0.5000000D+00 0.5000000D+00 0.5000000D+00 0.5000000D+00
EXPONENTS  0.5000000D+00 0.5000000D+00 0.8236000D+04 0.1235000D+04 0.2808000D+03
EXPONENTS  0.7927000D+02 0.2559000D+02 0.8997000D+01 0.3319000D+01 0.2808000D+03
EXPONENTS  0.7927000D+02 0.2559000D+02 0.8997000D+01 0.3319000D+01 0.3643000D+00
EXPONENTS  0.9059000D+00 0.1285000D+00 0.4402000D-01 0.1871000D+02 0.4133000D+01
EXPONENTS  0.1200000D+01 0.1871000D+02 0.4133000D+01 0.1200000D+01 0.1871000D+02
EXPONENTS  0.4133000D+01 0.1200000D+01 0.3827000D+00 0.3827000D+00 0.3827000D+00
EXPONENTS  0.1209000D+00 0.1209000D+00 0.1209000D+00 0.3569000D-01 0.3569000D-01
EXPONENTS  0.3569000D-01 0.1097000D+01 0.1097000D+01 0.1097000D+01 0.1097000D+01
EXPONENTS  0.1097000D+01 0.1097000D+01 0.3180000D+00 0.3180000D+00 0.3180000D+00
EXPONENTS  0.3180000D+00 0.3180000D+00 0.3180000D+00 0.1000000D+00 0.1000000D+00
EXPONENTS  0.1000000D+00 0.1000000D+00 0.1000000D+00 0.1000000D+00 0.7610000D+00
EXPONENTS  0.7610000D+00 0.7610000D+00 0.7610000D+00 0.7610000D+00 0.7610000D+00
EXPONENTS  0.7610000D+00 0.7610000D+00 0.7610000D+00 0.7610000D+00 0.2680000D+00
EXPONENTS  0.2680000D+00 0.2680000D+00 0.2680000D+00 0.2680000D+00 0.2680000D+00
EXPONENTS  0.2680000D+00 0.2680000D+00 0.2680000D+00 0.2680000D+00 0.3387000D+02
EXPONENTS  0.5095000D+01 0.1159000D+01 0.3258000D+00 0.1027000D+00 0.2526000D-01
EXPONENTS  0.1407000D+01 0.1407000D+01 0.1407000D+01 0.3880000D+00 0.3880000D+00
EXPONENTS  0.3880000D+00 0.1020000D+00 0.1020000D+00 0.1020000D+00 0.1057000D+01
EXPONENTS  0.1057000D+01 0.1057000D+01 0.1057000D+01 0.1057000D+01 0.1057000D+01
EXPONENTS  0.2470000D+00 0.2470000D+00 0.2470000D+00 0.2470000D+00 0.2470000D+00
EXPONENTS  0.2470000D+00 0.3387000D+02 0.5095000D+01 0.1159000D+01 0.3258000D+00
EXPONENTS  0.1027000D+00 0.2526000D-01 0.1407000D+01 0.1407000D+01 0.1407000D+01
EXPONENTS  0.3880000D+00 0.3880000D+00 0.3880000D+00 0.1020000D+00 0.1020000D+00
EXPONENTS  0.1020000D+00 0.1057000D+01 0.1057000D+01 0.1057000D+01 0.1057000D+01
EXPONENTS  0.1057000D+01 0.1057000D+01 0.2470000D+00 0.2470000D+00 0.2470000D+00
EXPONENTS  0.2470000D+00 0.2470000D+00 0.2470000D+00
MO    1     MO 0.0        OCC NO =    2.0000076  ORB. ENERGY =    0.000000
 -0.26674417D+00 -0.49716727D+00 -0.84301697D+00 -0.12758165D+01 -0.15914806D+01
 -0.13657271D+01 -0.52300093D+00 -0.36210384D-04 -0.38851365D-03 -0.14321345D-02
 -0.41874772D-02 -0.50461137D-02  0.60785787D-02 -0.23687173D-01  0.69609164D-03
  0.20311833D-04  0.52025653D-13  0.50447383D-13  0.34031507D-13  0.31345573D-05
  0.30394662D-05  0.20504059D-05  0.14627611D-01  0.14183862D-01  0.95683495D-02
  0.15955107D-13  0.27709413D-05  0.18744856D-02  0.22971384D-14  0.39780086D-05
  0.63031448D-03 -0.36365214D-15  0.14471725D-06  0.75399153D-05  0.92541541D-03
  0.11041566D-03 -0.10358311D-02 -0.13660007D-13 -0.47287924D-14  0.29842283D-05
  0.23086581D-03  0.12048475D-03 -0.35135056D-03  0.17993251D-14 -0.27680289D-14
  0.34590770D-05  0.62984342D-04  0.10610145D-04 -0.73594487D-04 -0.76482645D-15
  0.21983400D-15 -0.10365434D-05 -0.22284705D-14  0.14429597D-05 -0.10500617D-03
  0.29732625D-14 -0.20885298D-05  0.44912490D-03  0.37121490D-14 -0.22403492D-05
 -0.13410640D-03 -0.41710544D-15  0.31981034D-15  0.91485217D-07  0.10518539D-03
 -0.46532659D-15  0.14851527D-05 -0.17104166D-03 -0.49410443D-15 -0.17596084D-05
 -0.14451450D-03  0.92207878D-15  0.27717908D+00  0.51671765D+00  0.87332323D+00
  0.13127677D+01  0.16125000D+01  0.13608931D+01  0.51173135D+00  0.32312138D-04
  0.24151321D-03  0.90259001D-03  0.25180856D-02  0.33735404D-02 -0.39835222D-02
  0.22786214D-01  0.54124820D-03  0.12264454D-03  0.15680538D-13  0.14701502D-13
  0.10468345D-13 -0.48889334D-04 -0.45836858D-04 -0.32638574D-04  0.20732283D-02
  0.19437833D-02  0.13840895D-02  0.61602751D-14  0.28750287D-04  0.24528873D-03
  0.13652663D-14  0.11247404D-05 -0.10449541D-03  0.15524929D-15 -0.97336710D-08
 -0.34524133D-05 -0.12351184D-02  0.24522244D-03  0.98989600D-03  0.46913622D-15
  0.39720150D-14 -0.32389370D-04  0.14524942D-03  0.23411744D-04 -0.16866117D-03
  0.11207141D-14 -0.94928311D-15 -0.91202302D-05 -0.57499207D-05  0.19528891D-04
 -0.13778970D-04  0.74506519D-15  0.15906824D-15  0.83393902D-08  0.23097242D-15
 -0.11544161D-05  0.55404147D-03 -0.42350274D-15 -0.86980779D-05 -0.46623064D-04
 -0.26941453D-15  0.12161326D-04 -0.16155013D-02 -0.19055068D-14 -0.71680502D-16
  0.11250596D-05 -0.11490723D-03  0.57902546D-15 -0.65924774D-06  0.44290335D-04
 -0.36398396D-15 -0.27159311D-05  0.30043136D-03  0.39475928D-15 -0.28357521D-03
 -0.51143957D-03 -0.75411735D-03 -0.25358145D-03 -0.46535699D-03 -0.12169767D-04
  0.15397163D-14  0.79192644D-03 -0.54209640D-03 -0.18333970D-14  0.24235559D-03
 -0.99486354D-04 -0.13747533D-14  0.42559964D-04 -0.60009305D-04  0.21516181D-03
 -0.34191459D-03  0.12675278D-03  0.84952631D-15  0.17760012D-14  0.88404593D-03
  0.49101576D-04 -0.13860232D-04 -0.35241344D-04  0.65663933D-15 -0.12450044D-14
 -0.22928878D-04 -0.27293042D-03 -0.49224125D-03 -0.72580944D-03 -0.20133957D-03
 -0.45025071D-03 -0.11706362D-04  0.20592784D-14 -0.77378971D-03 -0.52453008D-03
 -0.66298142D-15 -0.20966039D-03 -0.72921473D-04  0.10042314D-14 -0.40082153D-04
 -0.57325161D-04  0.21797803D-03 -0.34844348D-03  0.13046545D-03 -0.13525759D-14
 -0.23017303D-14 -0.87500312D-03  0.46482850D-04 -0.12086257D-04 -0.34396592D-04
  0.45285984D-15  0.16250680D-15  0.27263974D-04
MO    2     MO 0.0        OCC NO =    2.0000041  ORB. ENERGY =    0.000000
  0.42282004D+00  0.78806702D+00  0.13362784D+01  0.20223152D+01  0.25226789D+01
  0.21648338D+01  0.82901633D+00  0.49657047D-04  0.53278752D-03  0.19639551D-02
  0.57424896D-02  0.69199792D-02 -0.83358483D-02  0.38629149D-01 -0.64877423D-03
 -0.75911453D-04 -0.34398257D-13 -0.33354738D-13 -0.22500909D-13  0.20887819D-04
  0.20254158D-04  0.13663335D-04 -0.11014082D-01 -0.10679954D-01 -0.72046341D-02
 -0.54827145D-14  0.43761414D-05  0.14416029D-02  0.23948066D-14  0.30165898D-05
  0.10445619D-03 -0.12650902D-15 -0.19777585D-07  0.16836175D-05 -0.99832050D-03
 -0.60542367D-04  0.10588629D-02 -0.91005764D-14  0.24995214D-13  0.64290611D-06
  0.34898071D-03  0.53729623D-03 -0.88627694D-03  0.14807278D-14 -0.54376787D-14
  0.15364819D-05  0.34291840D-04 -0.59067226D-06 -0.33701167D-04 -0.44504823D-15
 -0.12071892D-14 -0.60555894D-06  0.60052022D-15  0.30130262D-06  0.11181630D-03
  0.27291149D-14 -0.11783091D-05 -0.24095668D-03 -0.45306755D-14  0.27440122D-06
 -0.94492227D-04  0.22432077D-14 -0.48318154D-15  0.73069102D-07  0.12911101D-03
 -0.69669789D-15  0.75790506D-06 -0.16862328D-03  0.21462425D-14 -0.97711236D-06
 -0.21870974D-03  0.10555226D-14  0.17475702D+00  0.32578229D+00  0.55061645D+00
  0.82767922D+00  0.10166557D+01  0.85802153D+00  0.32263850D+00  0.17330489D-04
  0.12953467D-03  0.48410064D-03  0.13505654D-02  0.18093853D-02 -0.21365466D-02
  0.14430385D-01  0.50983849D-03  0.91675986D-04 -0.83726134D-14 -0.78498573D-14
 -0.55895660D-14 -0.29471347D-04 -0.27631262D-04 -0.19675104D-04  0.11644504D-02
  0.10917463D-02  0.77738840D-03 -0.55180212D-14  0.98065109D-05  0.16073590D-02
 -0.14187032D-14 -0.12847690D-05 -0.11277826D-04  0.57607995D-16  0.50350749D-07
  0.53935630D-06 -0.10323926D-02 -0.30532232D-03  0.13377150D-02  0.43666590D-17
 -0.21472803D-14 -0.15254792D-04  0.17040330D-04 -0.25688338D-03  0.23984305D-03
  0.22471304D-15 -0.40811679D-14 -0.15646054D-05 -0.16255300D-05  0.42577451D-04
 -0.40951921D-04  0.40006997D-15 -0.35170603D-16  0.34769405D-06  0.44854922D-15
  0.18274296D-06  0.34895917D-03  0.50088609D-15 -0.53741052D-05 -0.22563520D-03
 -0.18465337D-14  0.48258763D-05 -0.82124232D-03 -0.36846584D-15  0.16488918D-15
  0.70433137D-06 -0.88999876D-05  0.37480897D-15 -0.55474010D-07 -0.38840029D-04
 -0.86947651D-15 -0.20575201D-05  0.65539992D-04  0.29251724D-15 -0.15129192D-03
 -0.27286122D-03 -0.40233370D-03  0.10666314D-03 -0.35282090D-03 -0.76094673D-05
  0.67449321D-15  0.35397199D-03 -0.22599993D-03 -0.66067674D-15 -0.66252543D-04
  0.12158386D-03 -0.43380194D-15 -0.10825078D-04 -0.86543254D-04  0.12129288D-03
 -0.12904725D-03  0.77543700D-05  0.43869507D-15 -0.72969808D-15  0.41730837D-03
  0.31897049D-05  0.21906841D-05 -0.53803890D-05  0.79258032D-16 -0.64432617D-15
 -0.26956985D-05 -0.14559226D-03 -0.26258163D-03 -0.38717647D-03  0.12348640D-03
 -0.35212731D-03 -0.71583855D-05  0.27088688D-15 -0.34401933D-03 -0.21810123D-03
 -0.32761943D-15  0.78656598D-04  0.13512799D-03  0.66555471D-15  0.10071128D-04
 -0.84435235D-04  0.12150419D-03 -0.13206382D-03  0.10559628D-04  0.99338276D-15
 -0.10447360D-14 -0.41122414D-03  0.19360706D-05  0.28358513D-05 -0.47719219D-05
  0.11070551D-15  0.13990869D-15  0.61204267D-05
MO    3     MO 0.0        OCC NO =    1.9805555  ORB. ENERGY =    0.000000
 -0.96616280D-01 -0.18007686D+00 -0.30534562D+00 -0.46210813D+00 -0.57644347D+00
 -0.49467426D+00 -0.18943396D+00 -0.16841592D-02 -0.18069923D-01 -0.66609139D-01
 -0.19476122D+00 -0.23469674D+00  0.28271709D+00  0.14928941D+00  0.75553337D-01
  0.44748795D-02 -0.14116846D-12 -0.13688592D-12 -0.92342430D-13  0.99828738D-04
  0.96800295D-04  0.65300907D-04 -0.18804623D-02 -0.18234159D-02 -0.12300656D-02
 -0.28682139D-13  0.10636998D-04 -0.80769897D-02  0.90767363D-14  0.26290595D-05
  0.80333156D-02  0.62334566D-15  0.17577185D-05  0.83916116D-04 -0.14810809D-01
 -0.15838935D-01  0.30649744D-01  0.32393274D-14  0.31763603D-13 -0.90303768D-04
 -0.42774622D-02 -0.51375976D-02  0.94150598D-02 -0.11474551D-14 -0.10547698D-13
  0.43894461D-06  0.45857644D-03  0.50682233D-03 -0.96539876D-03  0.62203765D-15
 -0.62030498D-14 -0.59629922D-05  0.36324768D-14  0.61937748D-06 -0.89168383D-02
  0.28313608D-14 -0.23269117D-05  0.14283851D-01 -0.13728791D-13  0.46877921D-06
  0.12466663D-01  0.24371066D-14 -0.20627713D-14  0.92471223D-06 -0.36397545D-03
 -0.18512863D-14  0.21764024D-05  0.28942712D-04  0.80396001D-14 -0.49505392D-05
  0.10629836D-02 -0.10993306D-14 -0.28249326D-01 -0.52662435D-01 -0.89006689D-01
 -0.13379365D+00 -0.16434154D+00 -0.13869846D+00 -0.52154244D-01 -0.59431944D-03
 -0.44421696D-02 -0.16601402D-01 -0.46315327D-01 -0.62049769D-01  0.73269207D-01
  0.30218300D-01  0.19292031D-01  0.39502428D-03 -0.36510686D-13 -0.34231089D-13
 -0.24374575D-13  0.98059797D-03  0.91937293D-03  0.65464830D-03  0.10503208D+00
  0.98474252D-01  0.70119534D-01 -0.24781160D-13  0.53445423D-03  0.62182595D-02
 -0.91869367D-14  0.92615473D-04 -0.40435861D-02 -0.18258948D-15 -0.68622678D-07
 -0.54843425D-04 -0.18376955D-01 -0.78631854D-02  0.26240140D-01  0.74724021D-15
 -0.58238288D-14 -0.29501497D-03 -0.31475466D-02  0.25401557D-02  0.60739095D-03
 -0.21366347D-15 -0.14474213D-13 -0.16367248D-03  0.16442431D-04  0.49504274D-03
 -0.51148518D-03 -0.40569434D-15 -0.54213208D-15 -0.73068186D-05  0.14543000D-14
 -0.23181407D-04  0.43375440D-02  0.29437627D-14 -0.18747011D-04 -0.92668512D-03
 -0.73066627D-14  0.88291233D-04 -0.12085947D-01 -0.65330075D-15  0.74524476D-15
 -0.13145939D-05 -0.32616117D-04  0.81875481D-15 -0.71381161D-05  0.44669970D-03
 -0.30544891D-14  0.11081898D-04 -0.34885135D-03 -0.50309812D-15  0.66432583D-02
  0.11981390D-01  0.17666552D-01 -0.23621052D-03 -0.60902701D-02 -0.80586770D-04
 -0.80303637D-15 -0.28861619D-02  0.23463418D-02 -0.11456057D-14  0.43572935D-02
 -0.42283393D-02  0.20616167D-14  0.57766988D-03 -0.15211982D-02  0.51441499D-03
 -0.10790542D-02  0.56463924D-03  0.28291966D-14 -0.32377898D-14  0.20425620D-02
  0.35680507D-03 -0.82898911D-04 -0.27390616D-03 -0.91212433D-15  0.30710549D-15
  0.96276058D-03  0.64685521D-02  0.11666300D-01  0.17201953D-01  0.11710105D-03
 -0.57975125D-02 -0.77571128D-04 -0.16277275D-14  0.28128967D-02  0.22536549D-02
 -0.26311644D-15 -0.40845936D-02 -0.40435788D-02  0.74427181D-15 -0.54382218D-03
 -0.14797745D-02  0.51992478D-03 -0.10502215D-02  0.53029675D-03  0.29439368D-15
  0.17012432D-15 -0.20120374D-02  0.34316375D-03 -0.72925895D-04 -0.27023785D-03
  0.53881866D-15 -0.51993386D-15 -0.93495050D-03
MO    4     MO 0.0        OCC NO =    1.9670093  ORB. ENERGY =    0.000000
  0.36271706D-01  0.67604497D-01  0.11463292D+00  0.17348474D+00  0.21640854D+00
  0.18571072D+00  0.71117341D-01  0.69282981D-03  0.74336092D-02  0.27401683D-01
  0.80120914D-01  0.96549598D-01 -0.11630422D+00 -0.65979348D-01 -0.53934953D-01
 -0.30520528D-02  0.36641196D-13  0.35529634D-13  0.23968081D-13  0.58419085D-01
  0.56646861D-01  0.38213638D-01 -0.66035542D+00 -0.64032263D+00 -0.43195786D+00
  0.86859068D-14  0.13800155D-01 -0.14806417D+00  0.18439314D-14  0.21375774D-02
 -0.15352959D-01 -0.23142780D-15  0.68930501D-04 -0.10687949D-03 -0.18975644D-01
 -0.18730074D-01  0.37705719D-01 -0.23234991D-14 -0.50747487D-14 -0.52392939D-02
 -0.34309255D-02 -0.38627176D-02  0.72936431D-02  0.88591121D-15 -0.13791801D-14
 -0.14664888D-02 -0.18318127D-05 -0.13241269D-03  0.13424450D-03 -0.91072833D-16
 -0.44673689D-15 -0.12726709D-03 -0.24006217D-14 -0.64217285D-03 -0.58072827D-02
  0.42308881D-14 -0.87420777D-04  0.56443683D-02  0.29709771D-14  0.20139393D-02
  0.11777480D-01  0.41858317D-14  0.37570995D-15 -0.48820885D-04 -0.12282233D-03
 -0.91960504D-15  0.25374682D-04 -0.22756797D-03 -0.20752480D-15  0.12108797D-03
  0.59603495D-03 -0.69225611D-15 -0.49349749D-01 -0.91997873D-01 -0.15548894D+00
 -0.23372888D+00 -0.28709406D+00 -0.24229726D+00 -0.91110097D-01 -0.11992236D-02
 -0.89634535D-02 -0.33498472D-01 -0.93455522D-01 -0.12520463D+00  0.14784333D+00
  0.64196022D-01  0.46035938D-01  0.11223553D-02  0.11261443D-13  0.10558319D-13
  0.75181521D-14  0.26225519D-01  0.24588091D-01  0.17508186D-01 -0.12047698D+00
 -0.11295483D+00 -0.80430568D-01  0.67783939D-14  0.68241718D-02 -0.33172956D-01
  0.49657337D-15  0.67061914D-03 -0.57164964D-02  0.10276681D-15 -0.13081013D-04
 -0.50774927D-05 -0.17483132D-01  0.14611062D-01  0.28720696D-02 -0.52219770D-15
  0.29988426D-14 -0.91924288D-05 -0.45615895D-02  0.49197420D-02 -0.35815249D-03
  0.25979211D-14 -0.24659581D-14 -0.64935132D-03 -0.97872755D-04  0.79291990D-05
  0.89943556D-04  0.51770911D-15  0.11825668D-15 -0.86632471D-04 -0.13007073D-15
 -0.19915650D-03  0.41536182D-02 -0.11492507D-14 -0.26961060D-03  0.70431236D-03
  0.15394629D-14  0.86708009D-03 -0.13165167D-01 -0.13885869D-14 -0.16497528D-15
 -0.17804811D-04  0.29121268D-03  0.12735683D-14 -0.36078121D-04  0.64822770D-03
 -0.77864243D-15  0.89492553D-04 -0.15218657D-02 -0.11273942D-14  0.26127626D-01
  0.47122249D-01  0.69481729D-01  0.28481523D-01 -0.44997141D-02 -0.79208204D-04
  0.32537388D-14 -0.18931296D-01  0.99258757D-02 -0.51574201D-14  0.59071030D-03
 -0.19271632D-02 -0.12140579D-14  0.14555245D-02 -0.49985912D-03 -0.17804599D-02
  0.20513909D-02 -0.27093099D-03  0.34067071D-14 -0.38310794D-15 -0.35413199D-02
  0.30316738D-03 -0.16428651D-03 -0.13888087D-03  0.10319174D-14 -0.16717860D-14
  0.60653756D-03  0.23153780D-01  0.41758796D-01  0.61573320D-01  0.25635373D-01
 -0.36708634D-02 -0.10672087D-03  0.89612168D-15  0.17102230D-01  0.79866973D-02
 -0.19725026D-15  0.19509554D-03 -0.20019863D-02  0.93755779D-15 -0.12792237D-02
 -0.50327362D-03 -0.15287081D-02  0.21443789D-02 -0.61567088D-03 -0.80338044D-15
  0.84500722D-15  0.25438508D-02  0.26506523D-03 -0.10384120D-03 -0.16122403D-03
  0.97795764D-15 -0.47579507D-15 -0.51226365D-03
MO    5     MO 0.0        OCC NO =    1.9654192  ORB. ENERGY =    0.000000
 -0.18327974D-02 -0.34160330D-02 -0.57923641D-02 -0.87661271D-02 -0.10935053D-01
 -0.93839019D-02 -0.35935359D-02 -0.35897161D-04 -0.38515298D-03 -0.14197464D-02
 -0.41512552D-02 -0.50024644D-02  0.60259985D-02  0.34727845D-02  0.31356584D-02
  0.21829655D-03  0.44494521D-13  0.43144718D-13  0.29105172D-13  0.13204019D+01
  0.12803457D+01  0.86371364D+00  0.49956452D-01  0.48440954D-01  0.32677981D-01
  0.13907463D-13  0.31202222D+00  0.11268397D-01  0.10856956D-13  0.49819717D-01
  0.11913147D-02  0.30840227D-15  0.15573888D-02  0.63577961D-05  0.14717223D-02
  0.15036854D-02 -0.29754077D-02 -0.34555930D-14  0.13729292D-13 -0.10098153D+00
  0.28346617D-03  0.33148441D-03 -0.61495058D-03  0.21419521D-14 -0.13778636D-13
 -0.28384402D-01 -0.16866809D-05  0.10534833D-04 -0.88481520D-05  0.11913511D-15
 -0.42685437D-14 -0.26021638D-02 -0.11607466D-15 -0.12904777D-01  0.47869890D-03
  0.62339319D-14  0.52298492D-04 -0.48703552D-03 -0.58857079D-14  0.38662034D-01
 -0.94906117D-03  0.21597197D-14 -0.12554567D-14 -0.96486478D-03  0.23308243D-04
 -0.22030390D-14  0.42799981D-03 -0.40162111D-05  0.59694092D-14  0.24665945D-02
 -0.65908518D-04 -0.34053931D-15  0.27259773D-02  0.50817709D-02  0.85888852D-02
  0.12910696D-01  0.15858478D-01  0.13383996D-01  0.50327320D-02  0.65734455D-04
  0.49132433D-03  0.18361912D-02  0.51226875D-02  0.68629889D-02 -0.81039102D-02
 -0.34757643D-02 -0.23396916D-02 -0.52635164D-04  0.16653257D-13  0.15613487D-13
  0.11117733D-13  0.40867247D+00  0.38315641D+00  0.27283019D+00  0.57165230D-03
  0.53596037D-03  0.38163571D-03 -0.18323009D-14  0.10581961D+00  0.45516950D-03
 -0.39015061D-15  0.65826392D-02  0.22672447D-03  0.50360124D-16 -0.32662702D-03
  0.72877095D-07  0.10254348D-02 -0.50185766D-03 -0.52357712D-03  0.41518882D-16
  0.38598879D-14  0.27879089D-01  0.22772533D-03 -0.26324099D-03  0.35515659D-04
 -0.27128291D-15 -0.11738904D-13 -0.41244968D-02  0.87702349D-06  0.16029973D-05
 -0.24800208D-05 -0.10159129D-15 -0.77545147D-15 -0.92179487D-03  0.10296251D-14
 -0.38977015D-02 -0.33142866D-03  0.28516269D-14 -0.54301218D-02  0.41349657D-04
 -0.59405021D-14  0.17123226D-01  0.95293633D-03  0.70947405D-15  0.11830542D-15
 -0.38644330D-03 -0.86043142D-05  0.10449767D-14 -0.32931545D-03 -0.32409091D-04
 -0.13998930D-14  0.14886454D-02  0.58222034D-04  0.50324593D-15  0.17544733D-01
  0.31642649D-01  0.46657067D-01  0.18172388D-01 -0.15747558D-02  0.34894723D-03
  0.15651459D-14 -0.10661465D-01  0.13628249D-01 -0.24007018D-14  0.56452979D-02
  0.19031469D-02 -0.83759124D-15  0.43608774D-03  0.62276480D-03 -0.17920097D-02
 -0.15780614D-02  0.33700710D-02 -0.18313592D-14  0.61547866D-15 -0.82191602D-02
  0.27844409D-03 -0.45078063D-03  0.17233653D-03  0.13643074D-14 -0.68097289D-15
  0.85110401D-03 -0.19722082D-01 -0.35569586D-01 -0.52447334D-01 -0.20851396D-01
  0.19954151D-02 -0.33737960D-03  0.26612384D-14 -0.12194359D-01 -0.14183862D-01
 -0.48369616D-14  0.55915174D-02 -0.16865999D-02 -0.88559178D-15  0.58655170D-03
 -0.56124753D-03  0.19486716D-02  0.13582715D-02 -0.33069431D-02 -0.13563015D-14
 -0.29221395D-14 -0.84136286D-02 -0.32443951D-03  0.47012209D-03 -0.14568258D-03
 -0.14440042D-14 -0.79220812D-15  0.91504467D-03
MO    6     MO 0.0        OCC NO =    1.9601723  ORB. ENERGY =    0.000000
  0.16267116D-02  0.30319230D-02  0.51410515D-02  0.77804347D-02  0.97054790D-02
  0.83287450D-02  0.31894669D-02 -0.38563726D-04 -0.41376347D-03 -0.15252101D-02
 -0.44596247D-02 -0.53740647D-02  0.64736304D-02  0.83211674D-02  0.29190810D-01
  0.62936498D-02 -0.13758263D-12 -0.13340887D-12 -0.89996833D-13 -0.45245431D-01
 -0.43872848D-01 -0.29596364D-01  0.13894646D+01  0.13473133D+01  0.90888956D+00
 -0.36735541D-13 -0.10666699D-01  0.32135705D+00 -0.65637423D-14 -0.18568559D-02
  0.38364808D-01  0.14655362D-15 -0.60016676D-04  0.16409947D-03  0.42197385D-01
  0.43998961D-01 -0.86196345D-01  0.16264320D-14  0.80820532D-14  0.14795556D-02
  0.10490234D-01  0.11837634D-01 -0.22327868D-01  0.23652505D-15  0.81514503D-14
  0.36227524D-03  0.27037040D-03  0.51897961D-03 -0.78935001D-03 -0.22954215D-15
  0.10864756D-14  0.50506641D-04  0.44150640D-15  0.23688525D-03  0.15736548D-01
  0.42247721D-16 -0.24190311D-03 -0.16044210D-01 -0.13667669D-14 -0.46875263D-03
 -0.31165434D-01  0.19727840D-14  0.49369522D-15  0.16037922D-04  0.20238356D-02
  0.10076068D-14  0.54654113D-06 -0.24867105D-02 -0.24886925D-14 -0.48660307D-04
 -0.35847961D-02 -0.53578188D-16  0.58065842D-02  0.10824643D-01  0.18295121D-01
  0.27500979D-01  0.33780027D-01  0.28509151D-01  0.10720185D-01  0.10382646D-03
  0.77603844D-03  0.29002329D-02  0.80911981D-02  0.10839975D-01 -0.12799989D-01
 -0.70204724D-02  0.15728872D-01  0.53765597D-05 -0.41215995D-13 -0.38642616D-13
 -0.27515844D-13  0.56194407D-02  0.52685829D-02  0.37515449D-02 -0.52211932D+00
 -0.48952005D+00 -0.34856744D+00 -0.84050781D-14  0.13123564D-02 -0.10829698D+00
 -0.28471511D-14  0.58880629D-03 -0.85539313D-02 -0.10692903D-15  0.15894665D-04
 -0.40948354D-04  0.85316902D-02  0.28341298D-01 -0.36872988D-01  0.46274958D-15
 -0.48800270D-14 -0.33850248D-02  0.25154660D-03  0.24066409D-02 -0.26581875D-02
 -0.74138165D-15  0.15566569D-14 -0.78984559D-03 -0.15104742D-03  0.12284024D-03
  0.28207186D-04  0.14080729D-15  0.83480697D-16 -0.77329911D-04 -0.13820954D-15
  0.15978662D-03 -0.59473578D-02  0.36559874D-15  0.22816433D-04  0.64290372D-02
  0.49029891D-16 -0.50217630D-03  0.11413036D-01  0.79157845D-15  0.12311705D-15
  0.17830573D-04  0.76930792D-03 -0.60666833D-15 -0.18530488D-04 -0.20584905D-03
  0.23731718D-15 -0.34961230D-04 -0.21020747D-02  0.26600683D-15  0.18832645D-01
  0.33965452D-01  0.50082039D-01  0.31788320D-01  0.44002105D-03 -0.22286190D-05
 -0.20766633D-14 -0.17798309D-01  0.37289748D-02  0.22208446D-14 -0.57955138D-02
  0.73974267D-03  0.29669267D-15  0.41304131D-03 -0.28105523D-03 -0.14023249D-02
  0.52985048D-02 -0.38961799D-02 -0.78303262D-15 -0.64107019D-15 -0.45104502D-02
 -0.56457203D-03 -0.48755037D-05  0.56944754D-03 -0.41246414D-15  0.47299386D-15
  0.29943464D-04  0.17193525D-01  0.31009231D-01  0.45723093D-01  0.29248575D-01
  0.10757777D-02  0.25672668D-04 -0.16199764D-14  0.16917064D-01  0.33437584D-02
  0.51341952D-15  0.57082843D-02  0.81938114D-03  0.77605079D-15 -0.24258132D-03
 -0.18222042D-03 -0.14482792D-02  0.51406225D-02 -0.36923433D-02 -0.17162063D-14
 -0.17503499D-14  0.45092102D-02 -0.54669463D-03  0.22057692D-05  0.54448886D-03
  0.46616088D-15  0.48093908D-15 -0.63050636D-04
MO    7     MO 0.0        OCC NO =    1.9569042  ORB. ENERGY =    0.000000
  0.34035626D-03  0.63436810D-03  0.10756603D-02  0.16278974D-02  0.20306737D-02
  0.17426202D-02  0.66733095D-03  0.49131380D-05  0.52714746D-04  0.19431648D-03
  0.56816999D-03  0.68467247D-03 -0.82476054D-03 -0.36216381D-03  0.27146557D-03
  0.14563948D-03  0.52532649D-13  0.50938999D-13  0.34363148D-13  0.11856333D+01
  0.11496655D+01  0.77555754D+00  0.30002636D-01  0.29092465D-01  0.19625605D-01
  0.12368469D-13  0.27997336D+00  0.69873285D-02  0.37032860D-14  0.50558471D-01
  0.86731662D-03  0.74022894D-16  0.17121619D-02  0.53165675D-05  0.88287372D-03
  0.96689508D-03 -0.18497688D-02 -0.35421999D-14 -0.23394720D-14 -0.12511404D-01
  0.22849147D-03  0.28153196D-03 -0.51002343D-03  0.23035815D-14 -0.33133171D-14
 -0.31441355D-02  0.80606380D-05  0.11216776D-04 -0.19277414D-04  0.67067022D-15
 -0.74731386D-15 -0.68192358D-03 -0.50229330D-16 -0.42809453D-02  0.34816887D-03
  0.43944948D-15  0.88239325D-02 -0.33754087D-03 -0.28876149D-15  0.40189036D-02
 -0.70696573D-03  0.65199726D-14 -0.10591051D-15 -0.31591056D-03  0.52681845D-04
 -0.60386675D-15 -0.34604150D-03 -0.65404137D-04  0.92159828D-15  0.12937732D-02
 -0.92641399D-04 -0.24384489D-14 -0.30618869D-03 -0.57079741D-03 -0.96472538D-03
 -0.14501622D-02 -0.17812645D-02 -0.15033244D-02 -0.56528923D-03 -0.80562502D-05
 -0.60215479D-04 -0.22503899D-03 -0.62782375D-03 -0.84111073D-03  0.99319494D-03
  0.29662124D-03  0.55220056D-03  0.39413541D-05  0.17060202D-13  0.15995024D-13
  0.11389410D-13 -0.35921146D+00 -0.33678358D+00 -0.23980997D+00 -0.13809795D-01
 -0.12947561D-01 -0.92194348D-02  0.30142820D-14 -0.98517768D-01 -0.29201273D-02
 -0.14645326D-15 -0.25818529D-01 -0.23686176D-03  0.34545694D-17 -0.51083361D-03
 -0.15185629D-05  0.10080488D-03  0.94074540D-03 -0.10415503D-02 -0.60048963D-15
  0.27214823D-14  0.11131620D+00 -0.14696134D-04  0.12885020D-03 -0.11415406D-03
  0.73420597D-16 -0.12118540D-14  0.31905840D-01 -0.50714536D-05  0.98135295D-05
 -0.47420760D-05 -0.12809446D-16 -0.11160500D-15  0.34132174D-02 -0.17319781D-15
 -0.36744064D-02 -0.10150297D-03 -0.73448139D-15  0.26506678D-02  0.18932779D-03
  0.12540748D-14  0.83725514D-02  0.11518112D-03  0.70949113D-16  0.61329044D-16
 -0.58923778D-03  0.20608788D-04  0.32507109D-15  0.81069829D-03 -0.30812182D-06
 -0.50905823D-15  0.95701504D-03 -0.61518241D-04 -0.19411262D-14 -0.33787302D-01
 -0.60936790D-01 -0.89851261D-01 -0.50438474D-01  0.11218829D-01  0.44811701D-03
  0.98513858D-15  0.14255055D-01 -0.10504754D-01 -0.23493724D-14 -0.34668808D-02
  0.21060317D-02  0.20397209D-15 -0.34721023D-02  0.16950336D-02  0.57897392D-03
 -0.13167894D-02  0.73781552D-03  0.16085005D-14 -0.51186520D-16  0.28179579D-02
  0.33505422D-06  0.34198704D-03 -0.34232210D-03  0.33821669D-16 -0.26725716D-16
  0.64972628D-04  0.35227166D-01  0.63533644D-01  0.93680322D-01  0.53459892D-01
 -0.10737042D-01 -0.44250486D-03 -0.83708333D-15  0.15506013D-01  0.10665821D-01
  0.23149231D-14 -0.30029011D-02 -0.20218132D-02 -0.17270451D-15 -0.35192421D-02
 -0.17047867D-02 -0.75648197D-03  0.17371380D-02 -0.98065606D-03  0.23759245D-14
 -0.39043312D-16  0.32063237D-02 -0.17852987D-04 -0.34873640D-03  0.36658939D-03
  0.16361648D-15 -0.24260991D-15  0.45978366D-04
MO    8     MO 0.0        OCC NO =    1.9226270  ORB. ENERGY =    0.000000
  0.10937484D-13  0.20385672D-13  0.34566772D-13  0.52313134D-13  0.65256511D-13
  0.55999795D-13  0.21444947D-13 -0.27181409D-15 -0.29163868D-14 -0.10750351D-13
 -0.31433396D-13 -0.37878770D-13  0.45628993D-13  0.37480169D-13  0.45017692D-12
  0.76266206D-13  0.13793621D+01  0.13375173D+01  0.90228125D+00 -0.95186345D-13
 -0.92298736D-13 -0.62264182D-13  0.15176243D-12  0.14715851D-12  0.99272262D-13
  0.33242423D+00 -0.24204810D-13  0.51960737D-14  0.48476803D-01 -0.16615789D-13
 -0.20914617D-12  0.88817331D-03  0.31338309D-16 -0.17058538D-14 -0.62268631D-14
  0.23005543D-14  0.39263088D-14  0.20875950D-04 -0.12445115D+00 -0.22366536D-13
  0.75875948D-14 -0.10981795D-13  0.33942005D-14  0.14039926D-04 -0.37378393D-01
  0.13804539D-13  0.31820443D-15 -0.19003225D-13  0.18685020D-13 -0.47513140D-06
 -0.23624858D-02  0.46859264D-14 -0.61248701D-02  0.13688171D-15  0.86755723D-14
 -0.22222434D-01 -0.36674413D-14 -0.64680959D-16  0.40597045D-01  0.32567962D-14
 -0.25962036D-13 -0.22203502D-05 -0.36250008D-03  0.11174035D-14 -0.12554287D-14
 -0.15501120D-02  0.10190992D-14 -0.11755357D-13  0.26376123D-02 -0.43713096D-14
  0.15521644D-13 -0.56618465D-05  0.16779835D-14  0.31280994D-14  0.52869141D-14
  0.79472180D-14  0.97617339D-14  0.82385590D-14  0.30979133D-14 -0.67808326D-15
 -0.50682523D-14 -0.18941216D-13 -0.52843043D-13 -0.70795109D-13  0.83595824D-13
  0.10844572D-12 -0.22090232D-11 -0.21378090D-12  0.41537383D+00  0.38943936D+00
  0.27730403D+00  0.66650600D-14  0.62489174D-14  0.44496015D-14 -0.42349089D-13
 -0.39704962D-13 -0.28272299D-13  0.10666396D+00 -0.30943583D-13  0.10181504D-12
  0.12648965D-01  0.12856463D-13  0.19990412D-12  0.39860192D-04  0.63289222D-16