 Entering Gaussian System, Link 0=/home/bruns/programas/chemistry/gaussian/g09/g09
 Input=GAUSSIAN.com
 Output=GAUSSIAN.log
 Initial command:
 /home/bruns/programas/chemistry/gaussian/g09/l1.exe /home/bruns/programas/chemistry/gaussian/work/Gau-75145.inp -scrdir=/home/bruns/programas/chemistry/gaussian/work/
 Entering Link 1 = /home/bruns/programas/chemistry/gaussian/g09/l1.exe PID=     75147.
  
 Copyright (c) 1988,1990,1992,1993,1995,1998,2003,2009,2010,
            Gaussian, Inc.  All Rights Reserved.
  
 This is part of the Gaussian(R) 09 program.  It is based on
 the Gaussian(R) 03 system (copyright 2003, Gaussian, Inc.),
 the Gaussian(R) 98 system (copyright 1998, Gaussian, Inc.),
 the Gaussian(R) 94 system (copyright 1995, Gaussian, Inc.),
 the Gaussian 92(TM) system (copyright 1992, Gaussian, Inc.),
 the Gaussian 90(TM) system (copyright 1990, Gaussian, Inc.),
 the Gaussian 88(TM) system (copyright 1988, Gaussian, Inc.),
 the Gaussian 86(TM) system (copyright 1986, Carnegie Mellon
 University), and the Gaussian 82(TM) system (copyright 1983,
 Carnegie Mellon University). Gaussian is a federally registered
 trademark of Gaussian, Inc.
  
 This software contains proprietary and confidential information,
 including trade secrets, belonging to Gaussian, Inc.
  
 This software is provided under written license and may be
 used, copied, transmitted, or stored only in accord with that
 written license.
  
 The following legend is applicable only to US Government
 contracts under FAR:
  
                    RESTRICTED RIGHTS LEGEND
  
 Use, reproduction and disclosure by the US Government is
 subject to restrictions as set forth in subparagraphs (a)
 and (c) of the Commercial Computer Software - Restricted
 Rights clause in FAR 52.227-19.
  
 Gaussian, Inc.
 340 Quinnipiac St., Bldg. 40, Wallingford CT 06492
  
  
 ---------------------------------------------------------------
 Warning -- This program may not be used in any manner that
 competes with the business of Gaussian, Inc. or will provide
 assistance to any competitor of Gaussian, Inc.  The licensee
 of this program is prohibited from giving any competitor of
 Gaussian, Inc. access to this program.  By using this program,
 the user acknowledges that Gaussian, Inc. is engaged in the
 business of creating and licensing software in the field of
 computational chemistry and represents and warrants to the
 licensee that it is not a competitor of Gaussian, Inc. and that
 it will not use this program in any manner prohibited above.
 ---------------------------------------------------------------
  

 Cite this work as:
 Gaussian 09, Revision B.01,
 M. J. Frisch, G. W. Trucks, H. B. Schlegel, G. E. Scuseria, 
 M. A. Robb, J. R. Cheeseman, G. Scalmani, V. Barone, B. Mennucci, 
 G. A. Petersson, H. Nakatsuji, M. Caricato, X. Li, H. P. Hratchian, 
 A. F. Izmaylov, J. Bloino, G. Zheng, J. L. Sonnenberg, M. Hada, 
 M. Ehara, K. Toyota, R. Fukuda, J. Hasegawa, M. Ishida, T. Nakajima, 
 Y. Honda, O. Kitao, H. Nakai, T. Vreven, J. A. Montgomery, Jr., 
 J. E. Peralta, F. Ogliaro, M. Bearpark, J. J. Heyd, E. Brothers, 
 K. N. Kudin, V. N. Staroverov, T. Keith, R. Kobayashi, J. Normand, 
 K. Raghavachari, A. Rendell, J. C. Burant, S. S. Iyengar, J. Tomasi, 
 M. Cossi, N. Rega, J. M. Millam, M. Klene, J. E. Knox, J. B. Cross, 
 V. Bakken, C. Adamo, J. Jaramillo, R. Gomperts, R. E. Stratmann, 
 O. Yazyev, A. J. Austin, R. Cammi, C. Pomelli, J. W. Ochterski, 
 R. L. Martin, K. Morokuma, V. G. Zakrzewski, G. A. Voth, 
 P. Salvador, J. J. Dannenberg, S. Dapprich, A. D. Daniels, 
 O. Farkas, J. B. Foresman, J. V. Ortiz, J. Cioslowski, 
 and D. J. Fox, Gaussian, Inc., Wallingford CT, 2010.
 
 ******************************************
 Gaussian 09:  EM64L-G09RevB.01 12-Aug-2010
                20-Nov-2021 
 ******************************************
 %nproc=8
 Will use up to    8 processors via shared memory.
 %mem=8GB
 -----------------------------------------------------
 # qcisd/aug-cc-pvtz nosymm density=current output=wfn
 -----------------------------------------------------
 1/30=1,38=1/1;
 2/12=2,15=1,17=6,18=5,40=1/2;
 3/5=16,6=1,7=10,11=9,16=1,25=1,30=1,71=1/1,2,3;
 4//1;
 5/5=2,38=5/2;
 8/6=4,9=120000,10=1/1,4;
 9/5=8,15=1/13;
 11/28=-7,31=1,32=3,42=3/11;
 10/5=6,13=10,31=1/2;
 6/7=2,8=2,9=2,10=2,22=-1,31=1/1;
 99/5=1,6=1100,9=1/99;
 -----------------
 h2co-wavefunction
 -----------------
 Symbolic Z-matrix:
 Charge =  0 Multiplicity = 1
 O                     0.        0.        0.67925 
 C                     0.        0.01     -0.52691 
 H                     0.        0.93661  -1.10662 
 H                     0.       -0.93661  -1.10662 
 
                          Input orientation:                          
 ---------------------------------------------------------------------
 Center     Atomic      Atomic             Coordinates (Angstroms)
 Number     Number       Type             X           Y           Z
 ---------------------------------------------------------------------
      1          8           0        0.000000    0.000000    0.679252
      2          6           0        0.000000    0.010000   -0.526911
      3          1           0        0.000000    0.936614   -1.106620
      4          1           0        0.000000   -0.936614   -1.106620
 ---------------------------------------------------------------------
                    Distance matrix (angstroms):
                    1          2          3          4
     1  O    0.000000
     2  C    1.206204   0.000000
     3  H    2.016577   1.093012   0.000000
     4  H    2.016577   1.110018   1.873228   0.000000
 Symmetry turned off by external request.
 Stoichiometry    CH2O
 Framework group  CS[SG(CH2O)]
 Deg. of freedom     5
 Full point group                 CS      NOp   2
 Rotational constants (GHZ):    285.7713729     38.8684845     34.2148382
 Standard basis: Aug-CC-pVTZ (5D, 7F)
 Integral buffers will be    131072 words long.
 Raffenetti 1 integral format.
 Two-electron integral symmetry is turned off.
   138 basis functions,   198 primitive gaussians,   160 cartesian basis functions
     8 alpha electrons        8 beta electrons
       nuclear repulsion energy        31.3045650520 Hartrees.
 NAtoms=    4 NActive=    4 NUniq=    4 SFac= 1.00D+00 NAtFMM=   50 NAOKFM=F Big=F
 One-electron integrals computed using PRISM.
 NBasis=   138 RedAO= T  NBF=   138
 NBsUse=   138 1.00D-06 NBFU=   138
 Harris functional with IExCor=  205 diagonalized for initial guess.
 ExpMin= 2.53D-02 ExpMax= 1.53D+04 ExpMxC= 5.22D+02 IAcc=3 IRadAn=         0 AccDes= 0.00D+00
 HarFok:  IExCor=  205 AccDes= 0.00D+00 IRadAn=         0 IDoV= 1
 ScaDFX=  1.000000  1.000000  1.000000  1.000000
 FoFCou: FMM=F IPFlag=           0 FMFlag=      100000 FMFlg1=           0
         NFxFlg=           0 DoJE=T BraDBF=F KetDBF=T FulRan=T
         Omega=  0.000000  0.000000  1.000000  0.000000  0.000000 ICntrl=     500 IOpCl=  0
         NMat0=    1 NMatS0=    1 NMatT0=    0 NMatD0=    1 NMtDS0=    0 NMtDT0=    0
         I1Cent=           4 NGrid=           0.
 Symmetry not used in FoFCou.
 Requested convergence on RMS density matrix=1.00D-08 within 128 cycles.
 Requested convergence on MAX density matrix=1.00D-06.
 Requested convergence on             energy=1.00D-06.
 No special actions if energy rises.
 Keep R1 ints in memory in canonical form, NReq=85137408.
 SCF Done:  E(RHF) =  -113.913709450     A.U. after   11 cycles
             Convg  =    0.2902D-08             -V/T =  2.0018
 ExpMin= 2.53D-02 ExpMax= 1.53D+04 ExpMxC= 5.22D+02 IAcc=3 IRadAn=         5 AccDes= 0.00D+00
 HarFok:  IExCor=  205 AccDes= 0.00D+00 IRadAn=         5 IDoV=-2
 ScaDFX=  1.000000  1.000000  1.000000  1.000000
 Range of M.O.s used for correlation:     3   138
 NBasis=   138 NAE=     8 NBE=     8 NFC=     2 NFV=     0
 NROrb=    136 NOA=     6 NOB=     6 NVA=   130 NVB=   130

 **** Warning!!: The largest alpha MO coefficient is  0.33783459D+02

 Semi-Direct transformation.
 ModeAB=           2 MOrb=             6 LenV=    1073118443
 LASXX=      7286295 LTotXX=     7286295 LenRXX=     7286295
 LTotAB=     7445736 MaxLAS=    10510080 LenRXY=    10510080
 NonZer=    14572590 LenScr=    22628352 LnRSAI=           0
 LnScr1=           0 LExtra=           0 Total=     40424727
 MaxDsk=          -1 SrtSym=           F ITran=            4
 JobTyp=0 Pass  1:  I=   1 to   6.
 (rs|ai) integrals will be sorted in core.
 Spin components of T(2) and E(2):
     alpha-alpha T2 =       0.1376167506D-01 E2=     -0.4804299899D-01
     alpha-beta  T2 =       0.8506188806D-01 E2=     -0.3064418527D+00
     beta-beta   T2 =       0.1376167506D-01 E2=     -0.4804299899D-01
 ANorm=    0.1054791561D+01
 E2 =    -0.4025278507D+00 EUMP2 =    -0.11431623730042D+03
 R2 and R3 integrals will be kept in memory, NReq=   167993840.
 Iterations=  50 Convergence= 0.100D-07
 Iteration Nr.   1
 **********************
 DD1Dir will call FoFMem   1 times, MxPair=        42
 NAB=    21 NAA=     0 NBB=     0.
 MP4(R+Q)=  0.88735316D-02
 E3=       -0.40171180D-02        EUMP3=      -0.11432025442D+03
 E4(DQ)=   -0.13502057D-02        UMP4(DQ)=   -0.11432160462D+03
 E4(SDQ)=  -0.66134058D-02        UMP4(SDQ)=  -0.11432686782D+03
 DE(Corr)= -0.39767144     E(Corr)=     -114.31138089    
 NORM(A)=   0.10554849D+01
 Iteration Nr.   2
 **********************
 DD1Dir will call FoFMem   1 times, MxPair=        42
 NAB=    21 NAA=     0 NBB=     0.
 DE(Corr)= -0.41161630     E(CORR)=     -114.32532575     Delta=-1.39D-02
 NORM(A)=   0.10615403D+01
 Iteration Nr.   3
 **********************
 DD1Dir will call FoFMem   1 times, MxPair=        42
 NAB=    21 NAA=     0 NBB=     0.
 DE(Corr)= -0.41154334     E(CORR)=     -114.32525279     Delta= 7.30D-05
 NORM(A)=   0.10634281D+01
 Iteration Nr.   4
 **********************
 DD1Dir will call FoFMem   1 times, MxPair=        42
 NAB=    21 NAA=     0 NBB=     0.
 DE(Corr)= -0.41295024     E(CORR)=     -114.32665969     Delta=-1.41D-03
 NORM(A)=   0.10641082D+01
 Iteration Nr.   5
 **********************
 DD1Dir will call FoFMem   1 times, MxPair=        42
 NAB=    21 NAA=     0 NBB=     0.
 DE(Corr)= -0.41313784     E(CORR)=     -114.32684729     Delta=-1.88D-04
 NORM(A)=   0.10643234D+01
 Iteration Nr.   6
 **********************
 DD1Dir will call FoFMem   1 times, MxPair=        42
 NAB=    21 NAA=     0 NBB=     0.
 DE(Corr)= -0.41316379     E(CORR)=     -114.32687324     Delta=-2.59D-05
 NORM(A)=   0.10643488D+01
 Iteration Nr.   7
 **********************
 DD1Dir will call FoFMem   1 times, MxPair=        42
 NAB=    21 NAA=     0 NBB=     0.
 DE(Corr)= -0.41316500     E(CORR)=     -114.32687445     Delta=-1.21D-06
 NORM(A)=   0.10643500D+01
 Iteration Nr.   8
 **********************
 DD1Dir will call FoFMem   1 times, MxPair=        42
 NAB=    21 NAA=     0 NBB=     0.
 DE(Corr)= -0.41316412     E(CORR)=     -114.32687357     Delta= 8.75D-07
 NORM(A)=   0.10643527D+01
 Iteration Nr.   9
 **********************
 DD1Dir will call FoFMem   1 times, MxPair=        42
 NAB=    21 NAA=     0 NBB=     0.
 DE(Corr)= -0.41316301     E(CORR)=     -114.32687245     Delta= 1.12D-06
 NORM(A)=   0.10643531D+01
 Iteration Nr.  10
 **********************
 DD1Dir will call FoFMem   1 times, MxPair=        42
 NAB=    21 NAA=     0 NBB=     0.
 DE(Corr)= -0.41316363     E(CORR)=     -114.32687308     Delta=-6.22D-07
 NORM(A)=   0.10643536D+01
 Iteration Nr.  11
 **********************
 DD1Dir will call FoFMem   1 times, MxPair=        42
 NAB=    21 NAA=     0 NBB=     0.
 DE(Corr)= -0.41316376     E(CORR)=     -114.32687321     Delta=-1.32D-07
 NORM(A)=   0.10643540D+01
 Iteration Nr.  12
 **********************
 DD1Dir will call FoFMem   1 times, MxPair=        42
 NAB=    21 NAA=     0 NBB=     0.
 DE(Corr)= -0.41316391     E(CORR)=     -114.32687336     Delta=-1.55D-07
 NORM(A)=   0.10643542D+01
 Iteration Nr.  13
 **********************
 DD1Dir will call FoFMem   1 times, MxPair=        42
 NAB=    21 NAA=     0 NBB=     0.
 DE(Corr)= -0.41316398     E(CORR)=     -114.32687343     Delta=-6.11D-08
 NORM(A)=   0.10643543D+01
 Iteration Nr.  14
 **********************
 DD1Dir will call FoFMem   1 times, MxPair=        42
 NAB=    21 NAA=     0 NBB=     0.
 DE(Corr)= -0.41316401     E(CORR)=     -114.32687346     Delta=-3.16D-08
 NORM(A)=   0.10643543D+01
 Iteration Nr.  15
 **********************
 DD1Dir will call FoFMem   1 times, MxPair=        42
 NAB=    21 NAA=     0 NBB=     0.
 DE(Corr)= -0.41316401     E(CORR)=     -114.32687346     Delta=-4.79D-09
 NORM(A)=   0.10643544D+01
 Iteration Nr.  16
 **********************
 DD1Dir will call FoFMem   1 times, MxPair=        42
 NAB=    21 NAA=     0 NBB=     0.
 DE(Corr)= -0.41316401     E(CORR)=     -114.32687346     Delta=-3.05D-09
 NORM(A)=   0.10643544D+01
 Largest amplitude= 6.44D-02

 Z-AMPLITUDE ITERATIONS

 Iteration Nr.   1
 **********************
 DD1Dir will call FoFMem   1 times, MxPair=        42
 NAB=    21 NAA=     0 NBB=     0.
 DE(Z)  -0.40112810D+00          E(Z)=    -0.11431483755D+03
 NORM(A)=   0.10643539D+01
 Iteration Nr.   2
 **********************
 DD1Dir will call FoFMem   1 times, MxPair=        42
 NAB=    21 NAA=     0 NBB=     0.
 DE(Z)  -0.40112807D+00          E(Z)=    -0.11431483752D+03
 NORM(A)=   0.10643548D+01
 Iteration Nr.   3
 **********************
 DD1Dir will call FoFMem   1 times, MxPair=        42
 NAB=    21 NAA=     0 NBB=     0.
 DE(Z)  -0.40112812D+00          E(Z)=    -0.11431483757D+03
 NORM(A)=   0.10643540D+01
 Iteration Nr.   4
 **********************
 DD1Dir will call FoFMem   1 times, MxPair=        42
 NAB=    21 NAA=     0 NBB=     0.
 DE(Z)  -0.40112808D+00          E(Z)=    -0.11431483753D+03
 NORM(A)=   0.10643540D+01
 Iteration Nr.   5
 **********************
 DD1Dir will call FoFMem   1 times, MxPair=        42
 NAB=    21 NAA=     0 NBB=     0.
 DE(Z)  -0.40112808D+00          E(Z)=    -0.11431483753D+03
 NORM(A)=   0.10603153D+01
 Iteration Nr.   6
 **********************
 DD1Dir will call FoFMem   1 times, MxPair=        42
 NAB=    21 NAA=     0 NBB=     0.
 DE(Z)  -0.40091703D+00          E(Z)=    -0.11431462648D+03
 NORM(A)=   0.10602681D+01
 Iteration Nr.   7
 **********************
 DD1Dir will call FoFMem   1 times, MxPair=        42
 NAB=    21 NAA=     0 NBB=     0.
 DE(Z)  -0.40090713D+00          E(Z)=    -0.11431461658D+03
 NORM(A)=   0.10602721D+01
 Iteration Nr.   8
 **********************
 DD1Dir will call FoFMem   1 times, MxPair=        42
 NAB=    21 NAA=     0 NBB=     0.
 DE(Z)  -0.40091428D+00          E(Z)=    -0.11431462373D+03
 NORM(A)=   0.10602716D+01
 Iteration Nr.   9
 **********************
 DD1Dir will call FoFMem   1 times, MxPair=        42
 NAB=    21 NAA=     0 NBB=     0.
 DE(Z)  -0.40091390D+00          E(Z)=    -0.11431462335D+03
 NORM(A)=   0.10602706D+01
 Iteration Nr.  10
 **********************
 DD1Dir will call FoFMem   1 times, MxPair=        42
 NAB=    21 NAA=     0 NBB=     0.
 DE(Z)  -0.40091370D+00          E(Z)=    -0.11431462315D+03
 NORM(A)=   0.10602705D+01
 Iteration Nr.  11
 **********************
 DD1Dir will call FoFMem   1 times, MxPair=        42
 NAB=    21 NAA=     0 NBB=     0.
 DE(Z)  -0.40091380D+00          E(Z)=    -0.11431462325D+03
 NORM(A)=   0.10602705D+01
 Iteration Nr.  12
 **********************
 DD1Dir will call FoFMem   1 times, MxPair=        42
 NAB=    21 NAA=     0 NBB=     0.
 DE(Z)  -0.40091373D+00          E(Z)=    -0.11431462318D+03
 NORM(A)=   0.10602706D+01
 Iteration Nr.  13
 **********************
 DD1Dir will call FoFMem   1 times, MxPair=        42
 NAB=    21 NAA=     0 NBB=     0.
 DE(Z)  -0.40091375D+00          E(Z)=    -0.11431462320D+03
 NORM(A)=   0.10602706D+01
 Iteration Nr.  14
 **********************
 DD1Dir will call FoFMem   1 times, MxPair=        42
 NAB=    21 NAA=     0 NBB=     0.
 DE(Z)  -0.40091376D+00          E(Z)=    -0.11431462321D+03
 NORM(A)=   0.10602706D+01
 Discarding MO integrals.
          Differentiating once with respect to electric field.
                with respect to dipole field.
          Electric field/nuclear overlap derivatives assumed to be zero.
          Keep R1 ints in memory in canonical form, NReq=84894547.
          There are     1 degrees of freedom in the 1st order CPHF.  IDoFFX=0.
 LinEq1:  Iter=  0 NonCon=     1 RMS=3.55D-03 Max=5.57D-02
 AX will form     1 AO Fock derivatives at one time.
 LinEq1:  Iter=  1 NonCon=     1 RMS=8.96D-04 Max=8.53D-03
 LinEq1:  Iter=  2 NonCon=     1 RMS=2.35D-04 Max=3.42D-03
 LinEq1:  Iter=  3 NonCon=     1 RMS=1.15D-04 Max=1.20D-03
 LinEq1:  Iter=  4 NonCon=     1 RMS=4.45D-05 Max=5.32D-04
 LinEq1:  Iter=  5 NonCon=     1 RMS=9.21D-06 Max=8.73D-05
 LinEq1:  Iter=  6 NonCon=     1 RMS=1.51D-06 Max=1.74D-05
 LinEq1:  Iter=  7 NonCon=     1 RMS=2.28D-07 Max=1.66D-06
 LinEq1:  Iter=  8 NonCon=     1 RMS=2.62D-08 Max=2.07D-07
 LinEq1:  Iter=  9 NonCon=     1 RMS=3.15D-09 Max=2.52D-08
 LinEq1:  Iter= 10 NonCon=     1 RMS=2.98D-10 Max=2.30D-09
 LinEq1:  Iter= 11 NonCon=     0 RMS=2.80D-11 Max=2.34D-10
 Linear equations converged to 1.000D-10 1.000D-09 after    11 iterations.
 End of Minotr Frequency-dependent properties file   721 does not exist.
 End of Minotr Frequency-dependent properties file   722 does not exist.

 **********************************************************************

            Population analysis using the QCI/CC density.

 **********************************************************************

     Natural Orbital Coefficients:
                           1         2         3         4         5
     Eigenvalues --     2.00001   2.00000   1.98055   1.96690   1.96532
   1 1   O  1S         -0.52369   0.82773  -0.18941   0.07050  -0.00646
   2        2S          0.01053  -0.01441   0.48948  -0.19992   0.01886
   3        3S         -0.02187   0.03556   0.13766  -0.06046   0.00582
   4        4S          0.00282  -0.00269   0.31058  -0.22184   0.02388
   5        5S          0.00015  -0.00079   0.04382  -0.03052   0.00469
   6        6PX         0.00000   0.00000   0.00000   0.00000   0.00000
   7        6PY        -0.00003   0.00003  -0.00034   0.02137   0.27094
   8        6PZ         0.00299  -0.00224  -0.00039  -0.13682   0.02340
   9        7PX         0.00000   0.00000   0.00000   0.00000   0.00000
  10        7PY        -0.00001  -0.00001  -0.00039   0.02630   0.33437
  11        7PZ         0.00200   0.00154  -0.00855  -0.16026   0.02774
  12        8PX         0.00000   0.00000   0.00000   0.00000   0.00000
  13        8PY         0.00003   0.00002  -0.00082   0.01812   0.24196
  14        8PZ         0.00306   0.00051   0.03894  -0.07511   0.01436
  15        9PX         0.00000   0.00000   0.00000   0.00000   0.00000
  16        9PY         0.00000  -0.00001  -0.00006   0.00284   0.03719
  17        9PZ         0.00019   0.00005   0.00213  -0.00253   0.00051
  18       10D 0       -0.00015   0.00015   0.00429   0.00537  -0.00099
  19       10D+1        0.00000   0.00000   0.00000   0.00000   0.00000
  20       10D-1        0.00000   0.00000  -0.00006  -0.00081  -0.00813
  21       10D+2        0.00007  -0.00008   0.00008  -0.00002  -0.00008
  22       10D-2        0.00000   0.00000   0.00000   0.00000   0.00000
  23       11D 0       -0.00046  -0.00116   0.01229   0.00976  -0.00201
  24       11D+1        0.00000   0.00000   0.00000   0.00000   0.00000
  25       11D-1        0.00002   0.00003  -0.00014  -0.00208  -0.02142
  26       11D+2        0.00008  -0.00014   0.00065   0.00031  -0.00027
  27       11D-2        0.00000   0.00000   0.00000   0.00000   0.00000
  28       12D 0       -0.00067  -0.00030  -0.00878   0.00121  -0.00039
  29       12D+1        0.00000   0.00000   0.00000   0.00000   0.00000
  30       12D-1        0.00000   0.00001   0.00016  -0.00122  -0.01364
  31       12D+2        0.00027   0.00018  -0.00025   0.00070  -0.00025
  32       12D-2        0.00000   0.00000   0.00000   0.00000   0.00000
  33       13F 0       -0.00003   0.00003  -0.00272  -0.00180   0.00041
  34       13F+1        0.00000   0.00000   0.00000   0.00000   0.00000
  35       13F-1        0.00000   0.00000   0.00004   0.00048   0.00480
  36       13F+2        0.00005  -0.00001   0.00014  -0.00048   0.00016
  37       13F-2        0.00000   0.00000   0.00000   0.00000   0.00000
  38       13F+3        0.00000   0.00000   0.00000   0.00000   0.00000
  39       13F-3        0.00000   0.00000   0.00000   0.00009   0.00125
  40       14F 0        0.00034   0.00042  -0.00116  -0.00044   0.00026
  41       14F+1        0.00000   0.00000   0.00000   0.00000   0.00000
  42       14F-1       -0.00002  -0.00002   0.00001   0.00030   0.00326
  43       14F+2       -0.00002   0.00004  -0.00086  -0.00068   0.00018
  44       14F-2        0.00000   0.00000   0.00000   0.00000   0.00000
  45       14F+3        0.00000   0.00000   0.00000   0.00000   0.00000
  46       14F-3        0.00000   0.00000   0.00001   0.00014   0.00142
  47 2   C  1S          0.82933   0.52438  -0.08433  -0.14759   0.01420
  48        2S         -0.01111  -0.00598   0.20347   0.41171  -0.03917
  49        3S          0.03438   0.02184   0.04542   0.09686  -0.00918
  50        4S          0.00350   0.00331   0.12494   0.29935  -0.02270
  51        5S          0.00180   0.00136   0.00594   0.01631  -0.00069
  52        6PX         0.00000   0.00000   0.00000   0.00000   0.00000
  53        6PY        -0.00004  -0.00003   0.00020   0.02173   0.18439
  54        6PZ         0.00094   0.00053   0.04839  -0.05235  -0.00118
  55        7PX         0.00000   0.00000   0.00000   0.00000   0.00000
  56        7PY         0.00012  -0.00002   0.00199   0.02903   0.24320
  57        7PZ         0.00059   0.00374   0.01526  -0.07431   0.00003
  58        8PX         0.00000   0.00000   0.00000   0.00000   0.00000
  59        8PY        -0.00006  -0.00004   0.00228   0.01269   0.06074
  60        8PZ        -0.00100  -0.00011  -0.03940  -0.05529   0.00311
  61        9PX         0.00000   0.00000   0.00000   0.00000   0.00000
  62        9PY         0.00001   0.00001   0.00012  -0.00101  -0.01498
  63        9PZ        -0.00016   0.00002  -0.00249  -0.00023  -0.00007
  64       10D 0        0.00051   0.00069   0.01357   0.00166  -0.00046
  65       10D+1        0.00000   0.00000   0.00000   0.00000   0.00000
  66       10D-1       -0.00003  -0.00002  -0.00040  -0.00017   0.00871
  67       10D+2       -0.00044  -0.00021  -0.00310  -0.00947   0.00086
  68       10D-2        0.00000   0.00000   0.00000   0.00000   0.00000
  69       11D 0       -0.00075   0.00109   0.00277  -0.00155   0.00058
  70       11D+1        0.00000   0.00000   0.00000   0.00000   0.00000
  71       11D-1        0.00000   0.00001  -0.00097  -0.00336  -0.00958
  72       11D+2        0.00033   0.00072  -0.01473  -0.02456   0.00219
  73       11D-2        0.00000   0.00000   0.00000   0.00000   0.00000
  74       12D 0       -0.00045  -0.00137  -0.01736   0.00277  -0.00065
  75       12D+1        0.00000   0.00000   0.00000   0.00000   0.00000
  76       12D-1        0.00001   0.00003   0.00001  -0.00326  -0.01721
  77       12D+2       -0.00049  -0.00087  -0.00938  -0.00223  -0.00064
  78       12D-2        0.00000   0.00000   0.00000   0.00000   0.00000
  79       13F 0        0.00069   0.00044   0.00547   0.00532  -0.00067
  80       13F+1        0.00000   0.00000   0.00000   0.00000   0.00000
  81       13F-1        0.00000   0.00000   0.00000   0.00068   0.00874
  82       13F+2        0.00050   0.00019   0.00362   0.00454  -0.00041
  83       13F-2        0.00000   0.00000   0.00000   0.00000   0.00000
  84       13F+3        0.00000   0.00000   0.00000   0.00000   0.00000
  85       13F-3       -0.00001   0.00000  -0.00001  -0.00008  -0.00062
  86       14F 0       -0.00150  -0.00012  -0.00042   0.00373   0.00009
  87       14F+1        0.00000   0.00000   0.00000   0.00000   0.00000
  88       14F-1       -0.00004  -0.00003   0.00027   0.00082   0.00778
  89       14F+2       -0.00087  -0.00035   0.00267   0.00726  -0.00029
  90       14F-2        0.00000   0.00000   0.00000   0.00000   0.00000
  91       14F+3        0.00000   0.00000   0.00000   0.00000   0.00000
  92       14F-3       -0.00001   0.00000  -0.00003  -0.00020   0.00030
  93 3   H  1S         -0.00112  -0.00060   0.02598   0.10611   0.06433
  94        2S         -0.00085   0.00036  -0.00132   0.09572   0.05499
  95        3S         -0.00353  -0.00267  -0.04775  -0.03770  -0.00964
  96        4S         -0.00028  -0.00018  -0.00192  -0.00153   0.00780
  97        5PX         0.00000   0.00000   0.00000   0.00000   0.00000
  98        5PY         0.00036   0.00016  -0.00130  -0.00886  -0.00457
  99        5PZ        -0.00025  -0.00010   0.00104   0.00483   0.00600
 100        6PX         0.00000   0.00000   0.00000   0.00000   0.00000
 101        6PY         0.00056  -0.00016   0.01029   0.00214   0.01265
 102        6PZ        -0.00026   0.00028  -0.00974  -0.00435   0.00462
 103        7PX         0.00000   0.00000   0.00000   0.00000   0.00000
 104        7PY         0.00051  -0.00014   0.00726   0.01855   0.00387
 105        7PZ        -0.00072  -0.00104  -0.01866  -0.00620   0.00771
 106        8D 0        0.00007   0.00001   0.00031  -0.00008   0.00183
 107        8D+1        0.00000   0.00000   0.00000   0.00000   0.00000
 108        8D-1        0.00029   0.00013   0.00069  -0.00120  -0.00259
 109        8D+2        0.00018   0.00008   0.00053  -0.00122  -0.00004
 110        8D-2        0.00000   0.00000   0.00000   0.00000   0.00000
 111        9D 0       -0.00025  -0.00004  -0.00189  -0.00095   0.00135
 112        9D+1        0.00000   0.00000   0.00000   0.00000   0.00000
 113        9D-1       -0.00009  -0.00001   0.00393   0.00260   0.00335
 114        9D+2        0.00026   0.00000   0.00182   0.00205   0.00284
 115        9D-2        0.00000   0.00000   0.00000   0.00000   0.00000
 116 4   H  1S         -0.00103  -0.00055   0.02477   0.08443  -0.07788
 117        2S         -0.00058   0.00038   0.00120   0.07856  -0.06965
 118        3S         -0.00347  -0.00273  -0.04297  -0.02497   0.01310
 119        4S         -0.00025  -0.00015  -0.00160  -0.00257  -0.00746
 120        5PX         0.00000   0.00000   0.00000   0.00000   0.00000
 121        5PY        -0.00035  -0.00015   0.00125   0.00731  -0.00569
 122        5PZ        -0.00023  -0.00010   0.00102   0.00324  -0.00644
 123        6PX         0.00000   0.00000   0.00000   0.00000   0.00000
 124        6PY        -0.00044   0.00018  -0.00890   0.00117   0.01238
 125        6PZ        -0.00012   0.00032  -0.00898  -0.00452  -0.00368
 126        7PX         0.00000   0.00000   0.00000   0.00000   0.00000
 127        7PY        -0.00050   0.00010  -0.00635  -0.01427   0.00723
 128        7PZ        -0.00066  -0.00099  -0.01739  -0.00615  -0.00726
 129        8D 0        0.00008   0.00001   0.00029  -0.00037  -0.00179
 130        8D+1        0.00000   0.00000   0.00000   0.00000   0.00000
 131        8D-1       -0.00027  -0.00013  -0.00062   0.00067  -0.00267
 132        8D+2        0.00019   0.00008   0.00050  -0.00110   0.00022
 133        8D-2        0.00000   0.00000   0.00000   0.00000   0.00000
 134        9D 0       -0.00023  -0.00003  -0.00185  -0.00122  -0.00082
 135        9D+1        0.00000   0.00000   0.00000   0.00000   0.00000
 136        9D-1        0.00013   0.00003  -0.00374  -0.00189   0.00378
 137        9D+2        0.00023  -0.00001   0.00162   0.00131  -0.00340
 138        9D-2        0.00000   0.00000   0.00000   0.00000   0.00000
                           6         7         8         9        10
     Eigenvalues --     1.96011   1.95671   1.92262   0.06606   0.02824
   1 1   O  1S          0.00380   0.00163   0.00000   0.00000  -0.00223
   2        2S          0.00937  -0.00370   0.00000   0.00000   0.00857
   3        3S          0.00710  -0.00094   0.00000   0.00000   0.00316
   4        4S          0.11803   0.00134   0.00000   0.00000   0.01174
   5        5S          0.06235   0.00378   0.00000   0.00000   0.00875
   6        6PX         0.00000   0.00000   0.28161  -0.36416   0.00000
   7        6PY        -0.02283   0.23878   0.00000   0.00000  -0.40060
   8        6PZ         0.28160   0.01436   0.00000   0.00000  -0.01897
   9        7PX         0.00000   0.00000   0.35440  -0.43372   0.00000
  10        7PY        -0.02813   0.29444   0.00000   0.00000  -0.30398
  11        7PZ         0.34012   0.01749   0.00000   0.00000  -0.01996
  12        8PX         0.00000   0.00000   0.23369  -0.08022   0.00000
  13        8PY        -0.02129   0.24067   0.00000   0.00000   0.17699
  14        8PZ         0.18346   0.01081   0.00000   0.00000   0.00679
  15        9PX         0.00000   0.00000   0.02107   0.00302   0.00000
  16        9PY        -0.00298   0.04031   0.00000   0.00000   0.09939
  17        9PZ         0.00373   0.00059   0.00000   0.00000   0.00061
  18       10D 0       -0.01198  -0.00052   0.00000   0.00000  -0.00120
  19       10D+1        0.00000   0.00000  -0.01005  -0.01302   0.00000
  20       10D-1        0.00050  -0.00092   0.00000   0.00000  -0.03066
  21       10D+2       -0.00014  -0.00004   0.00000   0.00000  -0.00081
  22       10D-2        0.00000   0.00000   0.00009   0.00011   0.00000
  23       11D 0       -0.02903  -0.00135   0.00000   0.00000  -0.00018
  24       11D+1        0.00000   0.00000  -0.02824  -0.01208   0.00000
  25       11D-1        0.00118  -0.00215   0.00000   0.00000  -0.03964
  26       11D+2       -0.00101  -0.00010   0.00000   0.00000  -0.00188
  27       11D-2        0.00000   0.00000   0.00027   0.00019   0.00000
  28       12D 0       -0.00699  -0.00041   0.00000   0.00000  -0.00187
  29       12D+1        0.00000   0.00000  -0.01230   0.01571   0.00000
  30       12D-1        0.00075  -0.00335   0.00000   0.00000   0.01562
  31       12D+2       -0.00127   0.00000   0.00000   0.00000  -0.00035
  32       12D-2        0.00000   0.00000   0.00008   0.00007   0.00000
  33       13F 0        0.00476   0.00022   0.00000   0.00000  -0.00003
  34       13F+1        0.00000   0.00000   0.00505   0.00443   0.00000
  35       13F-1       -0.00028   0.00045   0.00000   0.00000   0.00694
  36       13F+2        0.00118   0.00008   0.00000   0.00000   0.00010
  37       13F-2        0.00000   0.00000  -0.00009  -0.00001   0.00000
  38       13F+3        0.00000   0.00000   0.00155  -0.00359   0.00000
  39       13F-3       -0.00011   0.00125   0.00000   0.00000  -0.00165
  40       14F 0        0.00650   0.00036   0.00000   0.00000  -0.00016
  41       14F+1        0.00000   0.00000   0.00347  -0.00356   0.00000
  42       14F-1       -0.00026   0.00167   0.00000   0.00000  -0.00201
  43       14F+2        0.00091   0.00005   0.00000   0.00000   0.00035
  44       14F-2        0.00000   0.00000  -0.00008  -0.00002   0.00000
  45       14F+3        0.00000   0.00000   0.00121  -0.00307   0.00000
  46       14F-3       -0.00007  -0.00005   0.00000   0.00000  -0.00270
  47 2   C  1S          0.01575  -0.00213   0.00000   0.00000   0.01350
  48        2S         -0.03101   0.00637   0.00000   0.00000  -0.05016
  49        3S         -0.00954   0.00107   0.00000   0.00000  -0.02169
  50        4S          0.10594   0.00976   0.00000   0.00000   0.00371
  51        5S          0.00014   0.00017   0.00000   0.00000   0.00028
  52        6PX         0.00000   0.00000   0.18995   0.31084   0.00000
  53        6PY         0.00522  -0.16516   0.00000   0.00000   0.33441
  54        6PZ        -0.23887  -0.01362   0.00000   0.00000   0.00873
  55        7PX         0.00000   0.00000   0.24856   0.48079   0.00000
  56        7PY         0.00524  -0.23094   0.00000   0.00000   0.64117
  57        7PZ        -0.25304  -0.01500   0.00000   0.00000   0.00564
  58        8PX         0.00000   0.00000   0.12412   0.18977   0.00000
  59        8PY         0.01176  -0.25262   0.00000   0.00000   0.34157
  60        8PZ        -0.08484  -0.00618   0.00000   0.00000  -0.01104
  61        9PX         0.00000   0.00000   0.00177   0.00333   0.00000
  62        9PY         0.00138  -0.02287   0.00000   0.00000  -0.03754
  63        9PZ        -0.00183  -0.00032   0.00000   0.00000  -0.00067
  64       10D 0       -0.01906  -0.00092   0.00000   0.00000   0.00037
  65       10D+1        0.00000   0.00000   0.01985  -0.00029   0.00000
  66       10D-1       -0.00183   0.03297   0.00000   0.00000   0.03749
  67       10D+2       -0.00602  -0.00040   0.00000   0.00000  -0.00014
  68       10D-2        0.00000   0.00000  -0.00012   0.00013   0.00000
  69       11D 0       -0.01213  -0.00056   0.00000   0.00000   0.00432
  70       11D+1        0.00000   0.00000   0.02957   0.03795   0.00000
  71       11D-1       -0.00385   0.08281   0.00000   0.00000   0.02842
  72       11D+2       -0.00592  -0.00055   0.00000   0.00000   0.00145
  73       11D-2        0.00000   0.00000  -0.00003  -0.00024   0.00000
  74       12D 0        0.00093  -0.00048   0.00000   0.00000  -0.00350
  75       12D+1        0.00000   0.00000  -0.00411   0.00923   0.00000
  76       12D-1       -0.00292   0.06718   0.00000   0.00000   0.03284
  77       12D+2       -0.00551  -0.00065   0.00000   0.00000  -0.00128
  78       12D-2        0.00000   0.00000   0.00041  -0.00005   0.00000
  79       13F 0       -0.00738  -0.00018   0.00000   0.00000  -0.00004
  80       13F+1        0.00000   0.00000   0.00684   0.00923   0.00000
  81       13F-1       -0.00040   0.00420   0.00000   0.00000   0.02417
  82       13F+2       -0.00153   0.00011   0.00000   0.00000  -0.00056
  83       13F-2        0.00000   0.00000  -0.00012  -0.00018   0.00000
  84       13F+3        0.00000   0.00000   0.00023  -0.00114   0.00000
  85       13F-3       -0.00005   0.00254   0.00000   0.00000  -0.00382
  86       14F 0        0.01008   0.00070   0.00000   0.00000   0.00055
  87       14F+1        0.00000   0.00000   0.00468   0.01663   0.00000
  88       14F-1       -0.00037   0.00514   0.00000   0.00000   0.10387
  89       14F+2        0.00649   0.00056   0.00000   0.00000   0.00161
  90       14F-2        0.00000   0.00000  -0.00015  -0.00045   0.00000
  91       14F+3        0.00000   0.00000   0.00232   0.00617   0.00000
  92       14F-3       -0.00032   0.00577   0.00000   0.00000   0.00581
  93 3   H  1S          0.07746  -0.12950   0.00000   0.00000  -0.13491
  94        2S          0.10855  -0.16036   0.00000   0.00000  -0.52497
  95        3S          0.00050   0.08415   0.00000   0.00000  -0.47700
  96        4S         -0.00028   0.00968   0.00000   0.00000   0.00591
  97        5PX         0.00000   0.00000   0.00350   0.01237   0.00000
  98        5PY        -0.00836   0.00622   0.00000   0.00000  -0.00395
  99        5PZ         0.00183  -0.00479   0.00000   0.00000   0.01774
 100        6PX         0.00000   0.00000   0.01006   0.02386   0.00000
 101        6PY        -0.01361  -0.00847   0.00000   0.00000   0.13108
 102        6PZ         0.00176   0.00473   0.00000   0.00000   0.02577
 103        7PX         0.00000   0.00000  -0.00462  -0.00738   0.00000
 104        7PY         0.00622  -0.04152   0.00000   0.00000   0.08720
 105        7PZ        -0.00423   0.01969   0.00000   0.00000  -0.03343
 106        8D 0       -0.00216   0.00031   0.00000   0.00000   0.01050
 107        8D+1        0.00000   0.00000   0.00121   0.00389   0.00000
 108        8D-1       -0.00149   0.00087   0.00000   0.00000  -0.00774
 109        8D+2       -0.00218   0.00051   0.00000   0.00000   0.00476
 110        8D-2        0.00000   0.00000  -0.00126  -0.00595   0.00000
 111        9D 0        0.00402  -0.00228   0.00000   0.00000   0.00924
 112        9D+1        0.00000   0.00000   0.00134   0.00160   0.00000
 113        9D-1       -0.00006   0.00027   0.00000   0.00000   0.01770
 114        9D+2       -0.00232  -0.00146   0.00000   0.00000   0.01674
 115        9D-2        0.00000   0.00000   0.00117   0.00408   0.00000
 116 4   H  1S          0.06504   0.14148   0.00000   0.00000   0.16701
 117        2S          0.09168   0.18056   0.00000   0.00000   0.58311
 118        3S          0.01094  -0.07830   0.00000   0.00000   0.47320
 119        4S          0.00078  -0.00946   0.00000   0.00000  -0.00566
 120        5PX         0.00000   0.00000   0.00335   0.01183   0.00000
 121        5PY         0.00755   0.00744   0.00000   0.00000  -0.00596
 122        5PZ         0.00145   0.00490   0.00000   0.00000  -0.01784
 123        6PX         0.00000   0.00000   0.01024   0.02451   0.00000
 124        6PY         0.01269  -0.00629   0.00000   0.00000   0.13219
 125        6PZ         0.00170  -0.00440   0.00000   0.00000  -0.02224
 126        7PX         0.00000   0.00000  -0.00359  -0.00660   0.00000
 127        7PY        -0.00196  -0.04288   0.00000   0.00000   0.08713
 128        7PZ        -0.00165  -0.02073   0.00000   0.00000   0.02658
 129        8D 0       -0.00200  -0.00061   0.00000   0.00000  -0.00915
 130        8D+1        0.00000   0.00000   0.00115   0.00366   0.00000
 131        8D-1        0.00139   0.00113   0.00000   0.00000  -0.00815
 132        8D+2       -0.00209  -0.00092   0.00000   0.00000  -0.00401
 133        8D-2        0.00000   0.00000   0.00127   0.00597   0.00000
 134        9D 0        0.00361   0.00273   0.00000   0.00000  -0.00907
 135        9D+1        0.00000   0.00000   0.00143   0.00156   0.00000
 136        9D-1       -0.00043   0.00007   0.00000   0.00000   0.01743
 137        9D+2       -0.00216   0.00137   0.00000   0.00000  -0.01856
 138        9D-2        0.00000   0.00000  -0.00088  -0.00342   0.00000
                          11        12        13        14        15
     Eigenvalues --     0.02651   0.02013   0.01203   0.01188   0.00761
   1 1   O  1S         -0.07233  -0.02653  -0.04125  -0.23297  -0.00035
   2        2S          0.28230   0.11474   0.13014   0.73206   0.00133
   3        3S          0.10869   0.05011   0.10957   0.62339   0.00088
   4        4S          0.61217   0.39150  -0.22676  -1.35431   0.00073
   5        5S          0.36883   0.27676  -0.10017  -0.58042  -0.00101
   6        6PX         0.00000   0.00000   0.00000   0.00000   0.00000
   7        6PY         0.02502  -0.03049   0.43505  -0.07928   0.13780
   8        6PZ        -0.43783  -0.11904   0.04773   0.25819   0.00034
   9        7PX         0.00000   0.00000   0.00000   0.00000   0.00000
  10        7PY         0.02054  -0.01858   0.19276  -0.03452   0.02962
  11        7PZ        -0.52491  -0.17764   0.01084   0.06724  -0.00069
  12        8PX         0.00000   0.00000   0.00000   0.00000   0.00000
  13        8PY        -0.00699   0.02089  -0.40940   0.06940  -0.19192
  14        8PZ        -0.11409  -0.18698  -0.03172  -0.11485  -0.00356
  15        9PX         0.00000   0.00000   0.00000   0.00000   0.00000
  16        9PY        -0.00414   0.00741  -0.06113   0.00958  -0.04551
  17        9PZ        -0.04064  -0.05355   0.00502   0.04136  -0.00088
  18       10D 0       -0.03054  -0.02191  -0.00013   0.00620   0.00004
  19       10D+1        0.00000   0.00000   0.00000   0.00000   0.00000
  20       10D-1        0.00226  -0.00184  -0.00965   0.00189  -0.20824
  21       10D+2       -0.01021   0.00261  -0.00391  -0.02442   0.00021
  22       10D-2        0.00000   0.00000   0.00000   0.00000   0.00000
  23       11D 0       -0.01653  -0.03289  -0.00834  -0.03009   0.00041
  24       11D+1        0.00000   0.00000   0.00000   0.00000   0.00000
  25       11D-1        0.00292  -0.00210  -0.07384   0.01360  -0.51216
  26       11D+2       -0.02060   0.00986   0.00049   0.00057   0.00052
  27       11D-2        0.00000   0.00000   0.00000   0.00000   0.00000
  28       12D 0       -0.00025   0.02897  -0.00460  -0.02927   0.00113
  29       12D+1        0.00000   0.00000   0.00000   0.00000   0.00000
  30       12D-1       -0.00147   0.00144  -0.01372   0.00357  -0.12313
  31       12D+2       -0.00908   0.00198   0.00104   0.00842   0.00049
  32       12D-2        0.00000   0.00000   0.00000   0.00000   0.00000
  33       13F 0       -0.00018   0.00446   0.00004  -0.00252   0.00004
  34       13F+1        0.00000   0.00000   0.00000   0.00000   0.00000
  35       13F-1       -0.00039   0.00027   0.01271  -0.00224   0.03481
  36       13F+2       -0.00077  -0.00160   0.00007   0.00027   0.00021
  37       13F-2        0.00000   0.00000   0.00000   0.00000   0.00000
  38       13F+3        0.00000   0.00000   0.00000   0.00000   0.00000
  39       13F-3        0.00009  -0.00004  -0.00269   0.00050  -0.00034
  40       14F 0        0.00814   0.01023   0.00397   0.01801  -0.00021
  41       14F+1        0.00000   0.00000   0.00000   0.00000   0.00000
  42       14F-1       -0.00029   0.00001   0.00709  -0.00155   0.07591
  43       14F+2        0.00042  -0.00561   0.00154   0.00714   0.00013
  44       14F-2        0.00000   0.00000   0.00000   0.00000   0.00000
  45       14F+3        0.00000   0.00000   0.00000   0.00000   0.00000
  46       14F-3        0.00024  -0.00050   0.01724  -0.00321   0.00215
  47 2   C  1S          0.16559  -0.11327  -0.00534  -0.00009   0.00181
  48        2S         -0.61713   0.44596   0.03361   0.06522  -0.00815
  49        3S         -0.25642   0.25706   0.02838   0.06373  -0.00741
  50        4S         -0.21321   0.07265  -0.03171  -0.11846  -0.02306
  51        5S         -0.11050  -0.09398   0.01630   0.11380  -0.00184
  52        6PX         0.00000   0.00000   0.00000   0.00000   0.00000
  53        6PY        -0.01307   0.01025   0.40873  -0.07262  -0.12493
  54        6PZ        -0.23686  -0.40618  -0.01495  -0.01287   0.00819
  55        7PX         0.00000   0.00000   0.00000   0.00000   0.00000
  56        7PY        -0.01472   0.01091   0.77211  -0.14220  -0.16601
  57        7PZ        -0.56769  -0.71405   0.00538   0.12909  -0.00558
  58        8PX         0.00000   0.00000   0.00000   0.00000   0.00000
  59        8PY        -0.00823  -0.00209   0.56880  -0.09664   0.06999
  60        8PZ        -0.30587  -0.22983   0.04441   0.27292   0.00455
  61        9PX         0.00000   0.00000   0.00000   0.00000   0.00000
  62        9PY         0.00215  -0.00361   0.04829  -0.00817  -0.00027
  63        9PZ        -0.01360  -0.00780   0.00396   0.01964   0.00084
  64       10D 0        0.01794   0.01404   0.00113   0.01232   0.00600
  65       10D+1        0.00000   0.00000   0.00000   0.00000   0.00000
  66       10D-1       -0.00361   0.00607  -0.09901   0.01789   0.24506
  67       10D+2       -0.00546   0.01453  -0.00494  -0.02701   0.00517
  68       10D-2        0.00000   0.00000   0.00000   0.00000   0.00000
  69       11D 0       -0.09258  -0.06747  -0.00709  -0.01356   0.00405
  70       11D+1        0.00000   0.00000   0.00000   0.00000   0.00000
  71       11D-1       -0.00681   0.02081  -0.56287   0.10277   0.09269
  72       11D+2       -0.07499  -0.03378  -0.00386  -0.02081   0.00661
  73       11D-2        0.00000   0.00000   0.00000   0.00000   0.00000
  74       12D 0       -0.06544  -0.03684   0.02173   0.10325   0.00247
  75       12D+1        0.00000   0.00000   0.00000   0.00000   0.00000
  76       12D-1       -0.00214   0.00838  -0.19382   0.03310  -0.15553
  77       12D+2       -0.02087  -0.02581   0.01247   0.05626   0.00101
  78       12D-2        0.00000   0.00000   0.00000   0.00000   0.00000
  79       13F 0       -0.00870  -0.01553  -0.00101  -0.00005   0.00040
  80       13F+1        0.00000   0.00000   0.00000   0.00000   0.00000
  81       13F-1       -0.00070   0.00134  -0.00772   0.00139   0.00783
  82       13F+2       -0.00005   0.01063  -0.00054  -0.00080   0.00008
  83       13F-2        0.00000   0.00000   0.00000   0.00000   0.00000
  84       13F+3        0.00000   0.00000   0.00000   0.00000   0.00000
  85       13F-3       -0.00023   0.00065  -0.02428   0.00455   0.01766
  86       14F 0       -0.00129  -0.00282  -0.00831  -0.03054  -0.00342
  87       14F+1        0.00000   0.00000   0.00000   0.00000   0.00000
  88       14F-1       -0.00606   0.00919  -0.12300   0.02500  -0.08900
  89       14F+2        0.01733   0.01262  -0.00452  -0.01333  -0.00419
  90       14F-2        0.00000   0.00000   0.00000   0.00000   0.00000
  91       14F+3        0.00000   0.00000   0.00000   0.00000   0.00000
  92       14F-3       -0.00118   0.00271  -0.08631   0.01597   0.01143
  93 3   H  1S          0.11140  -0.24608  -0.08822   0.07713  -0.12741
  94        2S          0.07031  -0.63267  -0.85755   0.29836   0.09083
  95        3S         -0.07969  -0.19492  -0.69928   0.31459   0.07759
  96        4S          0.00601   0.00943  -0.03622   0.00017   0.01469
  97        5PX         0.00000   0.00000   0.00000   0.00000   0.00000
  98        5PY        -0.00263  -0.02459  -0.03638  -0.00694   0.06471
  99        5PZ        -0.01343  -0.00708   0.01986   0.00461  -0.01514
 100        6PX         0.00000   0.00000   0.00000   0.00000   0.00000
 101        6PY         0.02161   0.05409   0.11803  -0.06611   0.07476
 102        6PZ        -0.07192  -0.07078  -0.16931   0.06255  -0.02028
 103        7PX         0.00000   0.00000   0.00000   0.00000   0.00000
 104        7PY         0.01532   0.01851   0.14762  -0.03506   0.05522
 105        7PZ        -0.05354  -0.03533  -0.07465   0.11409   0.03189
 106        8D 0       -0.00415  -0.01058  -0.00673  -0.00121   0.01727
 107        8D+1        0.00000   0.00000   0.00000   0.00000   0.00000
 108        8D-1        0.00892  -0.00397  -0.00859  -0.00440   0.00698
 109        8D+2       -0.00054  -0.00986  -0.01364  -0.00443   0.01561
 110        8D-2        0.00000   0.00000   0.00000   0.00000   0.00000
 111        9D 0       -0.00615  -0.00073   0.00564  -0.00766   0.02203
 112        9D+1        0.00000   0.00000   0.00000   0.00000   0.00000
 113        9D-1        0.01999   0.01476   0.01062  -0.02280   0.00960
 114        9D+2       -0.00052   0.00881   0.00628  -0.00431   0.01899
 115        9D-2        0.00000   0.00000   0.00000   0.00000   0.00000
 116 4   H  1S          0.09475  -0.23390   0.09871   0.04471   0.11946
 117        2S          0.04126  -0.61864   0.86875  -0.01235  -0.05960
 118        3S         -0.10417  -0.19319   0.76309   0.06142  -0.05897
 119        4S          0.00750   0.00556   0.03498  -0.01211  -0.01430
 120        5PX         0.00000   0.00000   0.00000   0.00000   0.00000
 121        5PY         0.00247   0.02328  -0.02894   0.01868   0.06380
 122        5PZ        -0.01157  -0.00901  -0.01475   0.01042   0.00979
 123        6PX         0.00000   0.00000   0.00000   0.00000   0.00000
 124        6PY        -0.02848  -0.05213   0.13650   0.02124   0.08073
 125        6PZ        -0.06150  -0.08358   0.17457  -0.00528   0.01415
 126        7PX         0.00000   0.00000   0.00000   0.00000   0.00000
 127        7PY        -0.01944  -0.02215   0.15425  -0.01437   0.05991
 128        7PZ        -0.05185  -0.03826   0.11295   0.07808  -0.02701
 129        8D 0       -0.00267  -0.01164   0.00534  -0.00386  -0.01906
 130        8D+1        0.00000   0.00000   0.00000   0.00000   0.00000
 131        8D-1       -0.00767   0.00158  -0.00451   0.00638   0.00494
 132        8D+2       -0.00019  -0.00998   0.00993  -0.00893  -0.01646
 133        8D-2        0.00000   0.00000   0.00000   0.00000   0.00000
 134        9D 0       -0.00485  -0.00064  -0.00982  -0.00542  -0.02319
 135        9D+1        0.00000   0.00000   0.00000   0.00000   0.00000
 136        9D-1       -0.01996  -0.01511   0.01980   0.01601   0.00966
 137        9D+2        0.00025   0.00859  -0.00768  -0.00191  -0.01754
 138        9D-2        0.00000   0.00000   0.00000   0.00000   0.00000
                          16        17        18        19        20
     Eigenvalues --     0.00747   0.00719   0.00707   0.00701   0.00600
   1 1   O  1S         -0.01317   0.00000   0.00000  -0.02435   0.00000
   2        2S          0.02393   0.00000   0.00000   0.05436   0.00000
   3        3S          0.03622   0.00000   0.00000   0.07456   0.00000
   4        4S         -0.08140   0.00000   0.00000  -0.19487   0.00000
   5        5S          0.11390   0.00000   0.00000  -0.11945   0.00000
   6        6PX         0.00000   0.21072  -0.01226   0.00000  -0.45096
   7        6PY        -0.00088   0.00000   0.00000  -0.00045   0.00000
   8        6PZ        -0.05962   0.00000   0.00000   0.14207   0.00000
   9        7PX         0.00000   0.09800  -0.00553   0.00000  -0.16249
  10        7PY         0.00050   0.00000   0.00000   0.00057   0.00000
  11        7PZ         0.01335   0.00000   0.00000   0.01967   0.00000
  12        8PX         0.00000  -0.38862   0.02152   0.00000   0.54027
  13        8PY         0.00607   0.00000   0.00000   0.00433   0.00000
  14        8PZ         0.20344   0.00000   0.00000  -0.26004   0.00000
  15        9PX         0.00000  -0.08161   0.00422   0.00000   0.08357
  16        9PY         0.00133   0.00000   0.00000  -0.00068   0.00000
  17        9PZ         0.00043   0.00000   0.00000  -0.01053   0.00000
  18       10D 0        0.20609   0.00000   0.00000  -0.06872   0.00000
  19       10D+1        0.00000  -0.19736   0.01485   0.00000  -0.09708
  20       10D-1        0.00050   0.00000   0.00000   0.00228   0.00000
  21       10D+2        0.04524   0.00000   0.00000   0.16687   0.00000
  22       10D-2        0.00000   0.01273   0.19656   0.00000   0.00402
  23       11D 0        0.45261   0.00000   0.00000  -0.15548   0.00000
  24       11D+1        0.00000  -0.46829   0.03462   0.00000  -0.18989
  25       11D-1        0.00199   0.00000   0.00000   0.00479   0.00000
  26       11D+2        0.09058   0.00000   0.00000   0.39436   0.00000
  27       11D-2        0.00000   0.02894   0.43284   0.00000   0.00807
  28       12D 0        0.05839   0.00000   0.00000   0.04675   0.00000
  29       12D+1        0.00000  -0.00471   0.00219   0.00000  -0.07187
  30       12D-1        0.00035   0.00000   0.00000   0.00026   0.00000
  31       12D+2        0.01614   0.00000   0.00000   0.10265   0.00000
  32       12D-2        0.00000   0.00491   0.07593   0.00000   0.00151
  33       13F 0       -0.03839   0.00000   0.00000   0.01597   0.00000
  34       13F+1        0.00000   0.04889  -0.00336   0.00000  -0.00697
  35       13F-1        0.00041   0.00000   0.00000  -0.00025   0.00000
  36       13F+2       -0.00586   0.00000   0.00000  -0.02064   0.00000
  37       13F-2        0.00000  -0.00202  -0.02449   0.00000  -0.00027
  38       13F+3        0.00000  -0.00641   0.00014   0.00000   0.01596
  39       13F-3       -0.00001   0.00000   0.00000   0.00008   0.00000
  40       14F 0       -0.07149   0.00000   0.00000   0.01106   0.00000
  41       14F+1        0.00000   0.05414  -0.00435   0.00000   0.02561
  42       14F-1       -0.00023   0.00000   0.00000  -0.00066   0.00000
  43       14F+2       -0.00691   0.00000   0.00000  -0.05045   0.00000
  44       14F-2        0.00000  -0.00385  -0.04605   0.00000  -0.00058
  45       14F+3        0.00000   0.00808  -0.00110   0.00000  -0.01044
  46       14F-3        0.00042   0.00000   0.00000   0.00076   0.00000
  47 2   C  1S         -0.05993   0.00000   0.00000   0.09156   0.00000
  48        2S          0.15741   0.00000   0.00000  -0.28447   0.00000
  49        3S          0.11036   0.00000   0.00000  -0.25487   0.00000
  50        4S          0.11391   0.00000   0.00000  -0.60482   0.00000
  51        5S         -0.01589   0.00000   0.00000  -0.07640   0.00000
  52        6PX         0.00000   0.25586  -0.01324   0.00000  -0.19770
  53        6PY         0.00411   0.00000   0.00000   0.00206   0.00000
  54        6PZ         0.24652   0.00000   0.00000   0.05308   0.00000
  55        7PX         0.00000   0.14262  -0.00928   0.00000  -0.33471
  56        7PY         0.02306   0.00000   0.00000  -0.00826   0.00000
  57        7PZ        -0.25893   0.00000   0.00000   0.21139   0.00000
  58        8PX         0.00000  -0.13695   0.00678   0.00000   0.09790
  59        8PY        -0.00848   0.00000   0.00000  -0.02551   0.00000
  60        8PZ        -0.08531   0.00000   0.00000   0.29580   0.00000
  61        9PX         0.00000   0.02419  -0.00121   0.00000  -0.01884
  62        9PY        -0.00025   0.00000   0.00000  -0.00016   0.00000
  63        9PZ         0.00592   0.00000   0.00000   0.02305   0.00000
  64       10D 0        0.21940   0.00000   0.00000  -0.02813   0.00000
  65       10D+1        0.00000   0.18745  -0.01120   0.00000   0.20970
  66       10D-1       -0.00901   0.00000   0.00000  -0.00296   0.00000
  67       10D+2        0.05805   0.00000   0.00000   0.22278   0.00000
  68       10D-2        0.00000   0.01418   0.24535   0.00000  -0.00307
  69       11D 0        0.15103   0.00000   0.00000   0.03983   0.00000
  70       11D+1        0.00000   0.03268   0.00242   0.00000   0.30906
  71       11D-1       -0.01041   0.00000   0.00000   0.00089   0.00000
  72       11D+2        0.02283   0.00000   0.00000   0.42170   0.00000
  73       11D-2        0.00000   0.02329   0.31071   0.00000  -0.00140
  74       12D 0       -0.03291   0.00000   0.00000   0.08295   0.00000
  75       12D+1        0.00000   0.00627   0.00118   0.00000  -0.04941
  76       12D-1        0.00353   0.00000   0.00000   0.00391   0.00000
  77       12D+2       -0.01710   0.00000   0.00000   0.07319   0.00000
  78       12D-2        0.00000   0.00047   0.00972   0.00000   0.00305
  79       13F 0        0.05544   0.00000   0.00000  -0.05229   0.00000
  80       13F+1        0.00000   0.04182  -0.00208   0.00000  -0.00540
  81       13F-1       -0.00149   0.00000   0.00000  -0.00044   0.00000
  82       13F+2        0.01767   0.00000   0.00000   0.00110   0.00000
  83       13F-2        0.00000  -0.00092   0.00822   0.00000   0.00124
  84       13F+3        0.00000  -0.00083   0.00127   0.00000   0.04765
  85       13F-3       -0.00140   0.00000   0.00000  -0.00073   0.00000
  86       14F 0       -0.04501   0.00000   0.00000  -0.08937   0.00000
  87       14F+1        0.00000  -0.06449   0.00400   0.00000   0.03627
  88       14F-1       -0.00266   0.00000   0.00000  -0.00142   0.00000
  89       14F+2       -0.02477   0.00000   0.00000  -0.11003   0.00000
  90       14F-2        0.00000  -0.00148  -0.00952   0.00000  -0.00120
  91       14F+3        0.00000  -0.05925   0.00399   0.00000   0.03750
  92       14F-3       -0.00197   0.00000   0.00000  -0.00041   0.00000
  93 3   H  1S         -0.03072   0.00000   0.00000  -0.09394   0.00000
  94        2S         -0.10675   0.00000   0.00000   0.48692   0.00000
  95        3S         -0.06548   0.00000   0.00000   0.44834   0.00000
  96        4S         -0.00008   0.00000   0.00000   0.01481   0.00000
  97        5PX         0.00000  -0.01436   0.07183   0.00000  -0.06653
  98        5PY        -0.00233   0.00000   0.00000   0.03087   0.00000
  99        5PZ        -0.05640   0.00000   0.00000  -0.04897   0.00000
 100        6PX         0.00000  -0.14272   0.12575   0.00000  -0.04482
 101        6PY         0.05942   0.00000   0.00000  -0.07765   0.00000
 102        6PZ        -0.15363   0.00000   0.00000   0.01084   0.00000
 103        7PX         0.00000  -0.05073   0.00790   0.00000  -0.00406
 104        7PY         0.01684   0.00000   0.00000  -0.05889   0.00000
 105        7PZ        -0.07366   0.00000   0.00000   0.07125   0.00000
 106        8D 0       -0.01438   0.00000   0.00000  -0.01620   0.00000
 107        8D+1        0.00000  -0.00202   0.02649   0.00000  -0.01206
 108        8D-1        0.02851   0.00000   0.00000   0.01355   0.00000
 109        8D+2       -0.00141   0.00000   0.00000   0.00997   0.00000
 110        8D-2        0.00000   0.01432  -0.03906   0.00000   0.03376
 111        9D 0       -0.02340   0.00000   0.00000  -0.01372   0.00000
 112        9D+1        0.00000  -0.05763   0.00535   0.00000   0.03486
 113        9D-1        0.02874   0.00000   0.00000  -0.01040   0.00000
 114        9D+2        0.02227   0.00000   0.00000   0.01802   0.00000
 115        9D-2        0.00000   0.02861  -0.00850   0.00000  -0.01307
 116 4   H  1S         -0.03844   0.00000   0.00000  -0.09698   0.00000
 117        2S         -0.07023   0.00000   0.00000   0.45618   0.00000
 118        3S         -0.06311   0.00000   0.00000   0.39436   0.00000
 119        4S          0.00071   0.00000   0.00000   0.01346   0.00000
 120        5PX         0.00000  -0.02290  -0.06793   0.00000  -0.06215
 121        5PY        -0.00318   0.00000   0.00000  -0.03416   0.00000
 122        5PZ        -0.05608   0.00000   0.00000  -0.04859   0.00000
 123        6PX         0.00000  -0.15303  -0.10874   0.00000  -0.04110
 124        6PY        -0.05465   0.00000   0.00000   0.06782   0.00000
 125        6PZ        -0.14240   0.00000   0.00000   0.00223   0.00000
 126        7PX         0.00000  -0.05055  -0.00047   0.00000   0.00101
 127        7PY        -0.02129   0.00000   0.00000   0.04488   0.00000
 128        7PZ        -0.07141   0.00000   0.00000   0.06098   0.00000
 129        8D 0       -0.01239   0.00000   0.00000  -0.01505   0.00000
 130        8D+1        0.00000  -0.00513  -0.02515   0.00000  -0.01077
 131        8D-1       -0.02829   0.00000   0.00000  -0.01528   0.00000
 132        8D+2        0.00006   0.00000   0.00000   0.01104   0.00000
 133        8D-2        0.00000  -0.01881  -0.03733   0.00000  -0.03232
 134        9D 0       -0.02078   0.00000   0.00000  -0.01289   0.00000
 135        9D+1        0.00000  -0.05528   0.00120   0.00000   0.03439
 136        9D-1       -0.02700   0.00000   0.00000   0.00812   0.00000
 137        9D+2        0.02212   0.00000   0.00000   0.02049   0.00000
 138        9D-2        0.00000  -0.02885  -0.00380   0.00000   0.01389
                          21        22        23        24        25
     Eigenvalues --     0.00519   0.00484   0.00337   0.00283   0.00252
   1 1   O  1S         -0.00847   0.00000  -0.00342   0.11744   0.00000
   2        2S          0.02007   0.00000   0.01088  -0.33057   0.00000
   3        3S          0.00564   0.00000   0.01032  -0.37449   0.00000
   4        4S          0.38805   0.00000   0.01683  -0.28377   0.00000
   5        5S          0.12936   0.00000   0.01622  -0.50652   0.00000
   6        6PX         0.00000   0.00753   0.00000   0.00000  -0.14869
   7        6PY        -0.00155   0.00000   0.19045   0.00252   0.00000
   8        6PZ        -0.20203   0.00000  -0.01234   0.36573   0.00000
   9        7PX         0.00000   0.00206   0.00000   0.00000   0.03675
  10        7PY        -0.00073   0.00000  -0.04306  -0.00437   0.00000
  11        7PZ        -0.04825   0.00000  -0.00376   0.08592   0.00000
  12        8PX         0.00000  -0.00618   0.00000   0.00000  -0.41027
  13        8PY        -0.00590   0.00000  -0.71273  -0.03103   0.00000
  14        8PZ         0.01450   0.00000   0.00626  -0.24630   0.00000
  15        9PX         0.00000  -0.00046   0.00000   0.00000  -0.06556
  16        9PY         0.00041   0.00000  -0.04420  -0.00199   0.00000
  17        9PZ        -0.01823   0.00000  -0.00338   0.06479   0.00000
  18       10D 0        0.06002   0.00000   0.00878  -0.17036   0.00000
  19       10D+1        0.00000   0.00193   0.00000   0.00000   0.33042
  20       10D-1       -0.00400   0.00000   0.30098   0.01359   0.00000
  21       10D+2        0.26018   0.00000  -0.00040   0.08079   0.00000
  22       10D-2        0.00000   0.27397   0.00000   0.00000  -0.00185
  23       11D 0        0.13367   0.00000   0.01687  -0.34687   0.00000
  24       11D+1        0.00000   0.00235   0.00000   0.00000   0.55301
  25       11D-1       -0.00652   0.00000   0.46133   0.02301   0.00000
  26       11D+2        0.50811   0.00000   0.00096   0.06119   0.00000
  27       11D-2        0.00000   0.51413   0.00000   0.00000  -0.00360
  28       12D 0        0.02217   0.00000  -0.00077   0.03862   0.00000
  29       12D+1        0.00000  -0.00014   0.00000   0.00000   0.18818
  30       12D-1        0.00059   0.00000   0.17720   0.00726   0.00000
  31       12D+2        0.07468   0.00000   0.00335  -0.07663   0.00000
  32       12D-2        0.00000   0.09814   0.00000   0.00000  -0.00040
  33       13F 0       -0.01204   0.00000  -0.00061   0.00777   0.00000
  34       13F+1        0.00000   0.00041   0.00000   0.00000   0.03196
  35       13F-1        0.00005   0.00000   0.00453   0.00002   0.00000
  36       13F+2       -0.01253   0.00000   0.00023  -0.00054   0.00000
  37       13F-2        0.00000  -0.00021   0.00000   0.00000   0.00006
  38       13F+3        0.00000  -0.00020   0.00000   0.00000  -0.01051
  39       13F-3        0.00025   0.00000  -0.00140   0.00011   0.00000
  40       14F 0       -0.01119   0.00000  -0.00128   0.02248   0.00000
  41       14F+1        0.00000   0.00025   0.00000   0.00000  -0.02262
  42       14F-1        0.00083   0.00000  -0.01977  -0.00140   0.00000
  43       14F+2       -0.03484   0.00000  -0.00158   0.03875   0.00000
  44       14F-2        0.00000  -0.02467   0.00000   0.00000   0.00053
  45       14F+3        0.00000   0.00001   0.00000   0.00000  -0.01599
  46       14F-3       -0.00005   0.00000  -0.00235  -0.00079   0.00000
  47 2   C  1S         -0.03660   0.00000   0.00146  -0.04230   0.00000
  48        2S          0.12378   0.00000  -0.00421   0.16584   0.00000
  49        3S          0.11651   0.00000  -0.00368   0.15666   0.00000
  50        4S         -0.23642   0.00000   0.00312  -0.21634   0.00000
  51        5S         -0.07840   0.00000  -0.00640   0.05214   0.00000
  52        6PX         0.00000   0.00042   0.00000   0.00000   0.51112
  53        6PY        -0.00245   0.00000   0.12360   0.00419   0.00000
  54        6PZ        -0.15060   0.00000  -0.00542   0.23755   0.00000
  55        7PX         0.00000   0.00385   0.00000   0.00000   0.40962
  56        7PY         0.00061   0.00000   0.30859   0.01511   0.00000
  57        7PZ        -0.26339   0.00000   0.00036   0.16519   0.00000
  58        8PX         0.00000   0.00029   0.00000   0.00000   0.14322
  59        8PY         0.02884   0.00000   1.48197   0.07521   0.00000
  60        8PZ        -0.09929   0.00000  -0.02590   0.71058   0.00000
  61        9PX         0.00000  -0.00007   0.00000   0.00000   0.01429
  62        9PY        -0.00021   0.00000   0.02575   0.00099   0.00000
  63        9PZ        -0.00361   0.00000   0.00021   0.03447   0.00000
  64       10D 0       -0.08333   0.00000  -0.00991   0.28343   0.00000
  65       10D+1        0.00000  -0.00162   0.00000   0.00000   0.18114
  66       10D-1        0.00141   0.00000   0.09377   0.00143   0.00000
  67       10D+2       -0.11496   0.00000   0.00052  -0.05278   0.00000
  68       10D-2        0.00000  -0.20580   0.00000   0.00000  -0.00528
  69       11D 0       -0.21699   0.00000  -0.01206   0.52524   0.00000
  70       11D+1        0.00000  -0.00908   0.00000   0.00000   0.37496
  71       11D-1        0.00455   0.00000   0.28939   0.00658   0.00000
  72       11D+2       -0.24498   0.00000   0.00944  -0.10654   0.00000
  73       11D-2        0.00000  -0.25920   0.00000   0.00000  -0.00299
  74       12D 0       -0.00863   0.00000  -0.00396   0.24450   0.00000
  75       12D+1        0.00000  -0.00107   0.00000   0.00000   0.03749
  76       12D-1       -0.00464   0.00000  -0.15785  -0.01359   0.00000
  77       12D+2        0.03582   0.00000   0.00058   0.15769   0.00000
  78       12D-2        0.00000   0.04351   0.00000   0.00000  -0.00053
  79       13F 0        0.06627   0.00000  -0.00005  -0.03651   0.00000
  80       13F+1        0.00000   0.00020   0.00000   0.00000  -0.00661
  81       13F-1        0.00004   0.00000  -0.22520  -0.00644   0.00000
  82       13F+2        0.09260   0.00000  -0.00473   0.07303   0.00000
  83       13F-2        0.00000   0.10278   0.00000   0.00000   0.00003
  84       13F+3        0.00000  -0.00101   0.00000   0.00000   0.03780
  85       13F-3        0.00037   0.00000  -0.00269  -0.00008   0.00000
  86       14F 0        0.05352   0.00000  -0.00623   0.18172   0.00000
  87       14F+1        0.00000  -0.00139   0.00000   0.00000   0.09177
  88       14F-1        0.00686   0.00000   0.01541  -0.00025   0.00000
  89       14F+2        0.07736   0.00000  -0.00403   0.10915   0.00000
  90       14F-2        0.00000   0.00782   0.00000   0.00000  -0.00383
  91       14F+3        0.00000  -0.00167   0.00000   0.00000   0.00337
  92       14F-3        0.00215   0.00000   0.00410  -0.00006   0.00000
  93 3   H  1S          0.15890   0.00000  -0.30972   0.23352   0.00000
  94        2S         -0.24579   0.00000  -0.11855  -0.10593   0.00000
  95        3S         -0.12834   0.00000  -1.11308   0.23418   0.00000
  96        4S          0.00700   0.00000  -0.01410   0.00097   0.00000
  97        5PX         0.00000  -0.09193   0.00000   0.00000  -0.09255
  98        5PY        -0.01375   0.00000   0.10660  -0.10062   0.00000
  99        5PZ         0.06584   0.00000   0.01629  -0.04046   0.00000
 100        6PX         0.00000  -0.20041   0.00000   0.00000  -0.23929
 101        6PY         0.07433   0.00000   0.14797  -0.06505   0.00000
 102        6PZ         0.03615   0.00000   0.06984  -0.12238   0.00000
 103        7PX         0.00000  -0.06599   0.00000   0.00000  -0.07159
 104        7PY         0.04618   0.00000   0.32808   0.03979   0.00000
 105        7PZ         0.00089   0.00000  -0.17712   0.09965   0.00000
 106        8D 0        0.02176   0.00000   0.00691  -0.03433   0.00000
 107        8D+1        0.00000  -0.02984   0.00000   0.00000  -0.02116
 108        8D-1       -0.02226   0.00000   0.01903   0.00882   0.00000
 109        8D+2       -0.00259   0.00000   0.02711  -0.04658   0.00000
 110        8D-2        0.00000   0.04089   0.00000   0.00000   0.04557
 111        9D 0        0.00269   0.00000   0.01345   0.02403   0.00000
 112        9D+1        0.00000   0.00032   0.00000   0.00000  -0.01716
 113        9D-1        0.00522   0.00000   0.00362   0.02502   0.00000
 114        9D+2       -0.01261   0.00000   0.03164  -0.01197   0.00000
 115        9D-2        0.00000   0.02207   0.00000   0.00000   0.03841
 116 4   H  1S          0.16557   0.00000   0.28246   0.24837   0.00000
 117        2S         -0.23251   0.00000   0.15305  -0.07048   0.00000
 118        3S         -0.08091   0.00000   1.08620   0.36530   0.00000
 119        4S          0.00630   0.00000   0.01525   0.00261   0.00000
 120        5PX         0.00000   0.09251   0.00000   0.00000  -0.08808
 121        5PY         0.01794   0.00000   0.10112   0.10498   0.00000
 122        5PZ         0.06559   0.00000  -0.01686  -0.04110   0.00000
 123        6PX         0.00000   0.20419   0.00000   0.00000  -0.23283
 124        6PY        -0.06761   0.00000   0.15559   0.08076   0.00000
 125        6PZ         0.03309   0.00000  -0.06447  -0.12257   0.00000
 126        7PX         0.00000   0.06500   0.00000   0.00000  -0.07150
 127        7PY        -0.03040   0.00000   0.33095   0.00375   0.00000
 128        7PZ         0.00608   0.00000   0.17008   0.11416   0.00000
 129        8D 0        0.02048   0.00000  -0.00684  -0.03418   0.00000
 130        8D+1        0.00000   0.02936   0.00000   0.00000  -0.01956
 131        8D-1        0.02334   0.00000   0.01797  -0.00854   0.00000
 132        8D+2       -0.00320   0.00000  -0.02582  -0.04851   0.00000
 133        8D-2        0.00000   0.04295   0.00000   0.00000  -0.04442
 134        9D 0        0.00055   0.00000  -0.01566   0.02122   0.00000
 135        9D+1        0.00000  -0.00199   0.00000   0.00000  -0.01700
 136        9D-1       -0.00492   0.00000   0.00340  -0.02237   0.00000
 137        9D+2       -0.01367   0.00000  -0.03127  -0.01542   0.00000
 138        9D-2        0.00000   0.02225   0.00000   0.00000  -0.03735
                          26        27        28        29        30
     Eigenvalues --     0.00211   0.00163   0.00139   0.00132   0.00107
   1 1   O  1S          0.00045   0.00953   0.04961   0.00214   0.00000
   2        2S          0.00061  -0.03176  -0.28025  -0.02069   0.00000
   3        3S         -0.00065  -0.02867  -0.27414  -0.01736   0.00000
   4        4S          0.02161  -0.04078   0.19160   0.00477   0.00000
   5        5S          0.00217   0.15805  -0.47664  -0.04121   0.00000
   6        6PX         0.00000   0.00000   0.00000   0.00000   0.13349
   7        6PY        -0.29431  -0.00464   0.03877  -0.45386   0.00000
   8        6PZ        -0.00280   0.23388   0.14078  -0.00104   0.00000
   9        7PX         0.00000   0.00000   0.00000   0.00000  -0.11081
  10        7PY         0.13927   0.00491  -0.04203   0.47903   0.00000
  11        7PZ        -0.00077  -0.16840   0.12830   0.01844   0.00000
  12        8PX         0.00000   0.00000   0.00000   0.00000  -0.04418
  13        8PY        -0.23079   0.00582   0.00102  -0.09554   0.00000
  14        8PZ        -0.01671  -0.26344  -1.01946  -0.07721   0.00000
  15        9PX         0.00000   0.00000   0.00000   0.00000   0.01838
  16        9PY        -0.04597  -0.00010   0.01412  -0.19298   0.00000
  17        9PZ        -0.00226  -0.01771   0.05472   0.00313   0.00000
  18       10D 0        0.00623   0.19053   0.39723   0.02965   0.00000
  19       10D+1        0.00000   0.00000   0.00000   0.00000   0.02911
  20       10D-1        0.05435  -0.00139  -0.01452   0.16377   0.00000
  21       10D+2       -0.00248   0.25951  -0.08870  -0.01002   0.00000
  22       10D-2        0.00000   0.00000   0.00000   0.00000  -0.33915
  23       11D 0        0.01047   0.17880   0.35132   0.03002   0.00000
  24       11D+1        0.00000   0.00000   0.00000   0.00000   0.01223
  25       11D-1        0.21400  -0.00182  -0.01768   0.18939   0.00000
  26       11D+2       -0.00124   0.24684  -0.16083  -0.01409   0.00000
  27       11D-2        0.00000   0.00000   0.00000   0.00000  -0.21298
  28       12D 0        0.00388   0.04478   0.22497   0.02205   0.00000
  29       12D+1        0.00000   0.00000   0.00000   0.00000  -0.02679
  30       12D-1        0.14183   0.00044  -0.00843   0.09796   0.00000
  31       12D+2        0.00157  -0.02918  -0.06599  -0.00368   0.00000
  32       12D-2        0.00000   0.00000   0.00000   0.00000   0.08737
  33       13F 0        0.00084   0.07522   0.13889   0.01287   0.00000
  34       13F+1        0.00000   0.00000   0.00000   0.00000   0.00311
  35       13F-1       -0.00424   0.00025  -0.01266   0.15557   0.00000
  36       13F+2       -0.00062   0.06413  -0.05157  -0.00362   0.00000
  37       13F-2        0.00000   0.00000   0.00000   0.00000  -0.20762
  38       13F+3        0.00000   0.00000   0.00000   0.00000  -0.00428
  39       13F-3        0.01246  -0.00098   0.00103  -0.01150   0.00000
  40       14F 0       -0.00059   0.01715   0.05947   0.00391   0.00000
  41       14F+1        0.00000   0.00000   0.00000   0.00000   0.01384
  42       14F-1       -0.05151  -0.00024  -0.00256   0.04665   0.00000
  43       14F+2       -0.00267   0.04733  -0.01372  -0.00078   0.00000
  44       14F-2        0.00000   0.00000   0.00000   0.00000  -0.13659
  45       14F+3        0.00000   0.00000   0.00000   0.00000   0.00167
  46       14F-3       -0.01712  -0.00031   0.00093  -0.01262   0.00000
  47 2   C  1S          0.00158   0.07235   0.15211   0.01551   0.00000
  48        2S         -0.00256  -0.27905  -0.49887  -0.05215   0.00000
  49        3S         -0.00400  -0.36220  -0.68095  -0.06758   0.00000
  50        4S         -0.02981   1.27766  -1.28345  -0.10148   0.00000
  51        5S         -0.00458   0.05664  -0.08033  -0.00310   0.00000
  52        6PX         0.00000   0.00000   0.00000   0.00000  -0.02748
  53        6PY         0.30264   0.01027  -0.01634   0.15109   0.00000
  54        6PZ        -0.00606  -0.25249  -0.49589  -0.01928   0.00000
  55        7PX         0.00000   0.00000   0.00000   0.00000  -0.02536
  56        7PY         0.32464   0.00960  -0.05311   0.39456   0.00000
  57        7PZ        -0.00784  -0.07587   0.12427   0.00332   0.00000
  58        8PX         0.00000   0.00000   0.00000   0.00000   0.08893
  59        8PY         1.42240  -0.03260   0.09551  -1.23697   0.00000
  60        8PZ         0.00041  -0.30883   0.86593   0.07085   0.00000
  61        9PX         0.00000   0.00000   0.00000   0.00000  -0.01025
  62        9PY         0.04588  -0.00066  -0.00228   0.03498   0.00000
  63        9PZ         0.00001  -0.01833  -0.00695  -0.00074   0.00000
  64       10D 0        0.00648   0.11497   0.12160   0.00460   0.00000
  65       10D+1        0.00000   0.00000   0.00000   0.00000   0.03843
  66       10D-1       -0.02972   0.01044  -0.03727   0.53642   0.00000
  67       10D+2        0.01073  -0.30259   0.22606   0.01996   0.00000
  68       10D-2        0.00000   0.00000   0.00000   0.00000   0.25716
  69       11D 0       -0.00322   0.16553   0.25256   0.02658   0.00000
  70       11D+1        0.00000   0.00000   0.00000   0.00000   0.03160
  71       11D-1        0.08329  -0.00181   0.00948  -0.02913   0.00000
  72       11D+2        0.01074  -0.48039   0.26278   0.03001   0.00000
  73       11D-2        0.00000   0.00000   0.00000   0.00000   0.35427
  74       12D 0        0.00327   0.04682   0.48752   0.03552   0.00000
  75       12D+1        0.00000   0.00000   0.00000   0.00000   0.00462
  76       12D-1       -0.41806   0.00414  -0.01089   0.10406   0.00000
  77       12D+2        0.00407  -0.04664   0.31084   0.01920   0.00000
  78       12D-2        0.00000   0.00000   0.00000   0.00000   0.00750
  79       13F 0       -0.00043  -0.12448   0.02009   0.00622   0.00000
  80       13F+1        0.00000   0.00000   0.00000   0.00000  -0.03534
  81       13F-1        0.24841   0.00406  -0.01189   0.07121   0.00000
  82       13F+2        0.00063  -0.19023   0.09684   0.01444   0.00000
  83       13F-2        0.00000   0.00000   0.00000   0.00000   0.38247
  84       13F+3        0.00000   0.00000   0.00000   0.00000   0.03027
  85       13F-3        0.13624   0.00065   0.00454  -0.10616   0.00000
  86       14F 0        0.00185  -0.07475   0.10852   0.00845   0.00000
  87       14F+1        0.00000   0.00000   0.00000   0.00000  -0.02131
  88       14F-1        0.15047   0.00147  -0.00373   0.05984   0.00000
  89       14F+2        0.00092  -0.07586   0.06568   0.00717   0.00000
  90       14F-2        0.00000   0.00000   0.00000   0.00000   0.14708
  91       14F+3        0.00000   0.00000   0.00000   0.00000   0.00345
  92       14F-3        0.02514   0.00175   0.00221  -0.04287   0.00000
  93 3   H  1S         -0.38167  -0.26225   0.20567   0.32517   0.00000
  94        2S         -0.23919  -0.27246   0.30413  -0.10756   0.00000
  95        3S         -1.12962  -0.28213   0.71980   0.92251   0.00000
  96        4S         -0.01943  -0.01017   0.01100  -0.00592   0.00000
  97        5PX         0.00000   0.00000   0.00000   0.00000  -0.13267
  98        5PY         0.02095   0.01998  -0.05591   0.02497   0.00000
  99        5PZ        -0.16188   0.01861  -0.00526   0.03249   0.00000
 100        6PX         0.00000   0.00000   0.00000   0.00000  -0.28184
 101        6PY        -0.03094   0.05963  -0.12483   0.28215   0.00000
 102        6PZ        -0.30385  -0.00160   0.12124  -0.05913   0.00000
 103        7PX         0.00000   0.00000   0.00000   0.00000  -0.04019
 104        7PY         0.29187   0.09275   0.03260  -0.12933   0.00000
 105        7PZ        -0.19157  -0.03758   0.37145   0.09962   0.00000
 106        8D 0       -0.03390   0.01934  -0.02424   0.03334   0.00000
 107        8D+1        0.00000   0.00000   0.00000   0.00000  -0.00855
 108        8D-1        0.05112   0.01182  -0.01587  -0.02679   0.00000
 109        8D+2        0.00591   0.00185  -0.03325   0.00931   0.00000
 110        8D-2        0.00000   0.00000   0.00000   0.00000   0.03648
 111        9D 0       -0.02985  -0.01496   0.02544   0.01444   0.00000
 112        9D+1        0.00000   0.00000   0.00000   0.00000  -0.01992
 113        9D-1        0.03592  -0.01322  -0.04073   0.02232   0.00000
 114        9D+2       -0.00143  -0.00283   0.00513   0.04716   0.00000
 115        9D-2        0.00000   0.00000   0.00000   0.00000   0.03051
 116 4   H  1S          0.38140  -0.26987   0.23631  -0.28178   0.00000
 117        2S          0.26182  -0.27150   0.25508   0.14379   0.00000
 118        3S          1.12941  -0.31289   0.85508  -0.79009   0.00000
 119        4S          0.01958  -0.01049   0.00991   0.00627   0.00000
 120        5PX         0.00000   0.00000   0.00000   0.00000   0.09069
 121        5PY         0.02328  -0.02033   0.04952   0.03755   0.00000
 122        5PZ         0.15673   0.02186  -0.00881  -0.02861   0.00000
 123        6PX         0.00000   0.00000   0.00000   0.00000   0.27447
 124        6PY        -0.02352  -0.05117   0.07299   0.31437   0.00000
 125        6PZ         0.31070   0.00900   0.07975   0.08974   0.00000
 126        7PX         0.00000   0.00000   0.00000   0.00000   0.06576
 127        7PY         0.29982  -0.09982  -0.00191  -0.12393   0.00000
 128        7PZ         0.20132  -0.04132   0.36521  -0.03673   0.00000
 129        8D 0        0.03159   0.01825  -0.02040  -0.03619   0.00000
 130        8D+1        0.00000   0.00000   0.00000   0.00000   0.00124
 131        8D-1        0.05177  -0.00979   0.01393  -0.02027   0.00000
 132        8D+2       -0.00701   0.00117  -0.02965  -0.01688   0.00000
 133        8D-2        0.00000   0.00000   0.00000   0.00000   0.01731
 134        9D 0        0.03110  -0.01421   0.02319  -0.01155   0.00000
 135        9D+1        0.00000   0.00000   0.00000   0.00000   0.02363
 136        9D-1        0.03636   0.01453   0.03205   0.03290   0.00000
 137        9D+2        0.00211  -0.00395   0.01380  -0.04915   0.00000
 138        9D-2        0.00000   0.00000   0.00000   0.00000   0.05885
                          31        32        33        34        35
     Eigenvalues --     0.00105   0.00087   0.00086   0.00080   0.00065
   1 1   O  1S          0.00000   0.00000   0.04813  -0.00249   0.26040
   2        2S          0.00000   0.00000   0.00102   0.00559   0.20970
   3        3S          0.00000   0.00000  -0.11856   0.00991  -0.69573
   4        4S          0.00000   0.00000   0.11272   0.01041  -0.13897
   5        5S          0.00000   0.00000   0.13736  -0.00408  -0.63629
   6        6PX         0.71832  -0.00504   0.00000   0.00000   0.00000
   7        6PY         0.00000   0.00000  -0.01593   0.70320  -0.01011
   8        6PZ         0.00000   0.00000   0.23847  -0.00410  -0.73239
   9        7PX        -0.62690  -0.04421   0.00000   0.00000   0.00000
  10        7PY         0.00000   0.00000   0.02049  -1.11083   0.01542
  11        7PZ         0.00000   0.00000  -0.21397  -0.00667   1.21405
  12        8PX        -0.16598   0.43993   0.00000   0.00000   0.00000
  13        8PY         0.00000   0.00000  -0.01818  -0.44212  -0.01336
  14        8PZ         0.00000   0.00000   0.18507  -0.00873  -0.62431
  15        9PX         0.10732   0.03664   0.00000   0.00000   0.00000
  16        9PY         0.00000   0.00000  -0.00379   0.17203  -0.00575
  17        9PZ         0.00000   0.00000   0.02744   0.00344  -0.12997
  18       10D 0        0.00000   0.00000  -0.04773   0.00102  -0.10770
  19       10D+1        0.13450  -0.24635   0.00000   0.00000   0.00000
  20       10D-1        0.00000   0.00000   0.01515   0.21609   0.01979
  21       10D+2        0.00000   0.00000   0.00859   0.00028   0.15703
  22       10D-2        0.06196  -0.01061   0.00000   0.00000   0.00000
  23       11D 0        0.00000   0.00000  -0.07212   0.00505  -0.05914
  24       11D+1        0.05664  -0.15002   0.00000   0.00000   0.00000
  25       11D-1        0.00000   0.00000   0.00825   0.32348  -0.00161
  26       11D+2        0.00000   0.00000   0.00394   0.00402  -0.02458
[...]
   6        6PX         0.01439   0.00000   0.00000   0.00000   0.00000
   7        6PY         0.00000   0.00028   0.00247  -0.00410  -0.00074
   8        6PZ         0.00000   0.02298  -0.00171   0.00040  -0.01668
   9        7PX        -0.06116   0.00000   0.00000   0.00000   0.00000
  10        7PY         0.00000   0.00164   0.02227  -0.04171   0.00243
  11        7PZ         0.00000  -0.13263   0.00373  -0.00349   0.03558
  12        8PX         0.42382   0.00000   0.00000   0.00000   0.00000
  13        8PY         0.00000   0.31457   3.15740  -2.41059  -0.19465
  14        8PZ         0.00000   3.65877  -0.28327   0.05473   0.84762
  15        9PX        -0.68063   0.00000   0.00000   0.00000   0.00000
  16        9PY         0.00000   0.00160  -0.90085  -0.10214   0.00540
  17        9PZ         0.00000   5.51146  -0.35049   0.02785  -0.36674
  18       10D 0        0.00000  -0.02886   0.00223  -0.00084   0.00939
  19       10D+1        0.00557   0.00000   0.00000   0.00000   0.00000
  20       10D-1        0.00000   0.00097   0.01062  -0.00786  -0.00026
  21       10D+2        0.00000   0.03471  -0.00174   0.00039   0.00758
  22       10D-2       -0.00074   0.00000   0.00000   0.00000   0.00000
  23       11D 0        0.00000   0.04926  -0.00365   0.00106  -0.05368
  24       11D+1       -0.06165   0.00000   0.00000   0.00000   0.00000
  25       11D-1        0.00000  -0.00837  -0.07011   0.10348   0.00288
  26       11D+2        0.00000  -0.13128   0.00659  -0.00042  -0.02792
  27       11D-2        0.00240   0.00000   0.00000   0.00000   0.00000
  28       12D 0        0.00000  -1.74514   0.10145  -0.04392  -0.45336
  29       12D+1       -0.08397   0.00000   0.00000   0.00000   0.00000
  30       12D-1        0.00000  -0.14609  -1.48344   1.06450   0.08294
  31       12D+2        0.00000   0.28801  -0.03412   0.02015  -0.02271
  32       12D-2       -0.01601   0.00000   0.00000   0.00000   0.00000
  33       13F 0        0.00000  -0.00575  -0.00098  -0.00060  -0.00792
  34       13F+1       -0.00693   0.00000   0.00000   0.00000   0.00000
  35       13F-1        0.00000  -0.00348  -0.04145   0.02347   0.00154
  36       13F+2        0.00000   0.00441  -0.00084   0.00050  -0.00367
  37       13F-2       -0.00079   0.00000   0.00000   0.00000   0.00000
  38       13F+3        0.01955   0.00000   0.00000   0.00000   0.00000
  39       13F-3        0.00000   0.00095   0.01290  -0.01144  -0.00003
  40       14F 0        0.00000   0.13291  -0.00260   0.00389   0.08069
  41       14F+1        0.07982   0.00000   0.00000   0.00000   0.00000
  42       14F-1        0.00000   0.01611   0.16320  -0.12517  -0.00745
  43       14F+2        0.00000  -0.01539   0.00228  -0.00304   0.00335
  44       14F-2        0.00350   0.00000   0.00000   0.00000   0.00000
  45       14F+3       -0.03045   0.00000   0.00000   0.00000   0.00000
  46       14F-3        0.00000  -0.00241  -0.02915   0.01346   0.00024
  47 2   C  1S          0.00000   0.07959  -0.00338  -0.00813   0.20265
  48        2S          0.00000   0.44160  -0.01652  -0.04880   1.22238
  49        3S          0.00000  -0.07765   0.00542  -0.00118  -0.00121
  50        4S          0.00000   5.69077  -0.68930  -0.32415  25.36882
  51        5S          0.00000   8.04790  -0.29976  -0.12415  10.39615
  52        6PX         0.00460   0.00000   0.00000   0.00000   0.00000
  53        6PY         0.00000   0.00285   0.02895   0.00596  -0.00161
  54        6PZ         0.00000   0.00387   0.00219  -0.00080   0.03664
  55        7PX         0.01489   0.00000   0.00000   0.00000   0.00000
  56        7PY         0.00000  -0.11753  -1.82656  -1.41243   0.17416
  57        7PZ         0.00000   0.69055  -0.06095   0.08810  -1.05359
  58        8PX         3.93614   0.00000   0.00000   0.00000   0.00000
  59        8PY         0.00000  -1.03864 -16.46537  -8.37752   1.09903
  60        8PZ         0.00000  -2.68065  -0.06106  -0.14255  -9.47497
  61        9PX         2.26333   0.00000   0.00000   0.00000   0.00000
  62        9PY         0.00000   0.11386   1.61656  -5.32628  -0.00599
  63        9PZ         0.00000  -2.28971   0.06708  -0.07639  -2.06252
  64       10D 0        0.00000  -0.05591   0.00521   0.00002   0.02153
  65       10D+1        0.01540   0.00000   0.00000   0.00000   0.00000
  66       10D-1        0.00000   0.00250   0.01461   0.02117  -0.00617
  67       10D+2        0.00000   0.02164  -0.00339   0.00225  -0.05301
  68       10D-2       -0.00166   0.00000   0.00000   0.00000   0.00000
  69       11D 0        0.00000   0.70977  -0.09805   0.02150   0.15365
  70       11D+1       -0.36952   0.00000   0.00000   0.00000   0.00000
  71       11D-1        0.00000   0.03220   1.41420   1.25621  -0.10769
  72       11D+2        0.00000  -0.27717   0.00356   0.04558  -0.92269
  73       11D-2        0.00987   0.00000   0.00000   0.00000   0.00000
  74       12D 0        0.00000   1.40093   0.14097  -0.17849   1.81223
  75       12D+1       -1.38969   0.00000   0.00000   0.00000   0.00000
  76       12D-1        0.00000   0.07121   2.48916   2.39304  -0.08881
  77       12D+2        0.00000   0.29944   0.08863  -0.07968  -0.23328
  78       12D-2        0.05184   0.00000   0.00000   0.00000   0.00000
  79       13F 0        0.00000   0.01891  -0.00006   0.00035   0.02561
  80       13F+1       -0.03858   0.00000   0.00000   0.00000   0.00000
  81       13F-1        0.00000   0.00416   0.04904  -0.01971  -0.00281
  82       13F+2        0.00000   0.01044   0.00069  -0.00327   0.04528
  83       13F-2        0.00117   0.00000   0.00000   0.00000   0.00000
  84       13F+3        0.10499   0.00000   0.00000   0.00000   0.00000
  85       13F-3        0.00000   0.00371   0.07475   0.01678  -0.00379
  86       14F 0        0.00000  -0.06324  -0.02233  -0.01844   0.17685
  87       14F+1        0.05121   0.00000   0.00000   0.00000   0.00000
  88       14F-1        0.00000  -0.17454  -1.98430   1.15876   0.10089
  89       14F+2        0.00000   0.41788  -0.03527   0.00023   0.45188
  90       14F-2        0.01102   0.00000   0.00000   0.00000   0.00000
  91       14F+3       -0.32052   0.00000   0.00000   0.00000   0.00000
  92       14F-3        0.00000  -0.02282  -0.23240   0.33581   0.00037
  93 3   H  1S          0.00000   0.01146  -0.06675   0.00758   0.05239
  94        2S          0.00000  -1.25830   3.21073   1.77611  -3.15263
  95        3S          0.00000   2.96735  25.76686  14.25254 -16.52603
  96        4S          0.00000  -1.33173  -1.67753   4.65563  -1.68325
  97        5PX        -0.08249   0.00000   0.00000   0.00000   0.00000
  98        5PY         0.00000   0.02850   0.10711   0.07034  -0.09793
  99        5PZ         0.00000  -0.01547   0.03788  -0.10568   0.02936
 100        6PX        -0.02234   0.00000   0.00000   0.00000   0.00000
 101        6PY         0.00000   0.01191  -2.10810  -0.76164   1.64505
 102        6PZ         0.00000   0.24071  -0.50415   1.51340  -0.62623
 103        7PX        -3.12883   0.00000   0.00000   0.00000   0.00000
 104        7PY         0.00000  -0.56102  -8.99162  -1.89291   5.35314
 105        7PZ         0.00000   4.24317   1.47865   2.91629  -0.15007
 106        8D 0        0.00000  -0.05416   0.05494  -0.03012  -0.02660
 107        8D+1        0.02877   0.00000   0.00000   0.00000   0.00000
 108        8D-1        0.00000   0.04172  -0.10819  -0.01334   0.07396
 109        8D+2        0.00000   0.04127   0.04966  -0.04655   0.04458
 110        8D-2       -0.06715   0.00000   0.00000   0.00000   0.00000
 111        9D 0        0.00000   0.51417  -1.21871   0.51583   0.46608
 112        9D+1       -0.24976   0.00000   0.00000   0.00000   0.00000
 113        9D-1        0.00000  -0.78433   0.34527  -0.77142   0.14037
 114        9D+2        0.00000  -0.21787  -1.12533   0.13288   0.49197
 115        9D-2        0.51058   0.00000   0.00000   0.00000   0.00000
 116 4   H  1S          0.00000   0.02433   0.06790  -0.01246   0.04237
 117        2S          0.00000  -1.58272  -2.86345  -1.55228  -2.57537
 118        3S          0.00000   0.23492 -25.87992 -14.24330 -12.98087
 119        4S          0.00000  -0.99920   1.75847  -4.65040  -1.63664
 120        5PX        -0.08477   0.00000   0.00000   0.00000   0.00000
 121        5PY         0.00000  -0.01197   0.12058   0.07382   0.09247
 122        5PZ         0.00000  -0.02288  -0.02937   0.10427   0.03365
 123        6PX        -0.01698   0.00000   0.00000   0.00000   0.00000
 124        6PY         0.00000  -0.28267  -2.15399  -0.70847  -1.38034
 125        6PZ         0.00000   0.35799   0.43771  -1.41008  -0.60014
 126        7PX        -2.96655   0.00000   0.00000   0.00000   0.00000
 127        7PY         0.00000  -0.45488  -9.39975  -1.86207  -4.25185
 128        7PZ         0.00000   4.07692  -1.55319  -2.96342   0.19528
 129        8D 0        0.00000  -0.06115  -0.05138   0.02685  -0.02298
 130        8D+1        0.02440   0.00000   0.00000   0.00000   0.00000
 131        8D-1        0.00000  -0.05944  -0.10774  -0.00446  -0.05669
 132        8D+2        0.00000   0.03911  -0.05427   0.04154   0.04344
 133        8D-2        0.06420   0.00000   0.00000   0.00000   0.00000
 134        9D 0        0.00000   0.68033   1.18728  -0.48245   0.37676
 135        9D+1       -0.22336   0.00000   0.00000   0.00000   0.00000
 136        9D-1        0.00000   0.85513   0.26391  -0.76067  -0.15148
 137        9D+2        0.00000  -0.07783   1.23002  -0.13545   0.38194
 138        9D-2       -0.50253   0.00000   0.00000   0.00000   0.00000
                         136       137       138
     Eigenvalues --     0.00000   0.00000   0.00000
   1 1   O  1S         -0.06081   0.00148   0.00947
   2        2S         -0.29379   0.00742   0.05166
   3        3S          0.03824  -0.00094   0.00104
   4        4S          4.42896  -0.13537  -1.09104
   5        5S         13.13537  -0.47825  -6.80535
   6        6PX         0.00000   0.00000   0.00000
   7        6PY         0.00048   0.00504  -0.00006
   8        6PZ        -0.00475   0.00035   0.00544
   9        7PX         0.00000   0.00000   0.00000
  10        7PY         0.00011  -0.01308   0.00045
  11        7PZ        -0.07848  -0.00084  -0.03073
  12        8PX         0.00000   0.00000   0.00000
  13        8PY         0.09538   1.47364  -0.00113
  14        8PZ        -1.39640   0.06167   0.89521
  15        9PX         0.00000   0.00000   0.00000
  16        9PY        -0.00512   1.54847  -0.03358
  17        9PZ        -1.07771   0.06222   1.43271
  18       10D 0       -0.01630   0.00040   0.00147
  19       10D+1        0.00000   0.00000   0.00000
  20       10D-1        0.00027  -0.00226   0.00003
  21       10D+2        0.00383  -0.00011  -0.00165
  22       10D-2        0.00000   0.00000   0.00000
  23       11D 0        0.10920  -0.00188  -0.00587
  24       11D+1        0.00000   0.00000   0.00000
  25       11D-1       -0.00341  -0.01615  -0.00044
  26       11D+2       -0.01304  -0.00012   0.00412
  27       11D-2        0.00000   0.00000   0.00000
  28       12D 0       -0.08647  -0.01197  -0.20123
  29       12D+1        0.00000   0.00000   0.00000
  30       12D-1       -0.02611  -0.58223   0.00038
  31       12D+2        0.32052  -0.01200  -0.04084
  32       12D-2        0.00000   0.00000   0.00000
  33       13F 0       -0.00818  -0.00044  -0.00397
  34       13F+1        0.00000   0.00000   0.00000
  35       13F-1       -0.00040  -0.00490  -0.00003
  36       13F+2        0.01297  -0.00028  -0.00222
  37       13F-2        0.00000   0.00000   0.00000
  38       13F+3        0.00000   0.00000   0.00000
  39       13F-3       -0.00013  -0.00508   0.00011
  40       14F 0        0.01601   0.00214   0.01744
  41       14F+1        0.00000   0.00000   0.00000
  42       14F-1        0.00147   0.02918   0.00017
  43       14F+2       -0.06163   0.00162   0.01083
  44       14F-2        0.00000   0.00000   0.00000
  45       14F+3        0.00000   0.00000   0.00000
  46       14F-3        0.00106   0.01472  -0.00021
  47 2   C  1S         -0.03775   0.00075   0.00513
  48        2S         -0.21418   0.00631   0.03536
  49        3S          0.11731   0.00002   0.02753
  50        4S         -5.30093   0.32637  10.04389
  51        5S         -4.18399   0.54151  13.50577
  52        6PX         0.00000   0.00000   0.00000
  53        6PY        -0.00009  -0.01394   0.00000
  54        6PZ        -0.02378   0.00026   0.00222
  55        7PX         0.00000   0.00000   0.00000
  56        7PY        -0.01535   0.01525   0.00504
  57        7PZ         0.23516  -0.01288   0.00940
  58        8PX         0.00000   0.00000   0.00000
  59        8PY        -0.11188  -7.53979   0.07852
  60        8PZ        -1.48032  -0.00142  -0.03679
  61        9PX         0.00000   0.00000   0.00000
  62        9PY         0.12876  -5.56080   0.14068
  63        9PZ        -2.33072   0.02380  -0.22514
  64       10D 0        0.01411  -0.00037  -0.00401
  65       10D+1        0.00000   0.00000   0.00000
  66       10D-1        0.00089  -0.01419   0.00002
  67       10D+2       -0.00568  -0.00110  -0.00772
  68       10D-2        0.00000   0.00000   0.00000
  69       11D 0       -0.79419   0.00788   0.13144
  70       11D+1        0.00000   0.00000   0.00000
  71       11D-1        0.02014  -0.18653  -0.00827
  72       11D+2        0.20442  -0.01453  -0.05063
  73       11D-2        0.00000   0.00000   0.00000
  74       12D 0       -6.06260   0.13827   0.72148
  75       12D+1        0.00000   0.00000   0.00000
  76       12D-1        0.02998  -0.73732  -0.01917
  77       12D+2       -2.83445   0.00163  -0.29760
  78       12D-2        0.00000   0.00000   0.00000
  79       13F 0       -0.03720  -0.00026  -0.00913
  80       13F+1        0.00000   0.00000   0.00000
  81       13F-1        0.00174   0.01942   0.00023
  82       13F+2       -0.01645   0.00020  -0.00143
  83       13F-2        0.00000   0.00000   0.00000
  84       13F+3        0.00000   0.00000   0.00000
  85       13F-3        0.00073  -0.01784   0.00001
  86       14F 0       -0.17639   0.00677   0.06816
  87       14F+1        0.00000   0.00000   0.00000
  88       14F-1       -0.03838  -0.53206  -0.00438
  89       14F+2       -0.34508   0.00652   0.05495
  90       14F-2        0.00000   0.00000   0.00000
  91       14F+3        0.00000   0.00000   0.00000
  92       14F-3       -0.00464  -0.03510  -0.00186
  93 3   H  1S         -0.01647   0.00901  -0.00288
  94        2S          1.06336  -0.13838  -0.20984
  95        3S         -3.16163  11.27578  -5.55075
  96        4S         -0.37162   8.28515  -3.34646
  97        5PX         0.00000   0.00000   0.00000
  98        5PY         0.00290   0.02942  -0.01283
  99        5PZ         0.04299   0.00203   0.00598
 100        6PX         0.00000   0.00000   0.00000
 101        6PY        -0.45927  -0.24218   0.19605
 102        6PZ        -0.20648  -0.19358  -0.09519
 103        7PX         0.00000   0.00000   0.00000
 104        7PY        -2.43411  -3.52770   1.61260
 105        7PZ        -3.91314   2.63297  -0.67046
 106        8D 0        0.01197  -0.00812   0.00202
 107        8D+1        0.00000   0.00000   0.00000
 108        8D-1       -0.04755   0.02574  -0.00794
 109        8D+2        0.01461   0.04141  -0.00413
 110        8D-2        0.00000   0.00000   0.00000
 111        9D 0       -0.33634  -0.06186   0.04141
 112        9D+1        0.00000   0.00000   0.00000
 113        9D-1        0.29302  -0.09026   0.11672
 114        9D+2       -0.32770  -0.33306   0.11491
 115        9D-2        0.00000   0.00000   0.00000
 116 4   H  1S         -0.01589  -0.00834  -0.00316
 117        2S          0.97732   0.06861  -0.18212
 118        3S         -3.98018 -11.46419  -5.06640
 119        4S         -0.24171  -8.45556  -2.81309
 120        5PX         0.00000   0.00000   0.00000
 121        5PY        -0.00338   0.03155   0.01297
 122        5PZ         0.03910  -0.00149   0.00553
 123        6PX         0.00000   0.00000   0.00000
 124        6PY         0.40580  -0.28264  -0.18800
 125        6PZ        -0.16580   0.17546  -0.08272
 126        7PX         0.00000   0.00000   0.00000
 127        7PY         1.89901  -3.72926  -1.50868
 128        7PZ        -3.84396  -2.45360  -0.58671
 129        8D 0        0.00992   0.00640   0.00174
 130        8D+1        0.00000   0.00000   0.00000
 131        8D-1        0.04693   0.02396   0.00820
 132        8D+2        0.00933  -0.04181  -0.00403
 133        8D-2        0.00000   0.00000   0.00000
 134        9D 0       -0.28490   0.08594   0.04483
 135        9D+1        0.00000   0.00000   0.00000
 136        9D-1       -0.28642  -0.08290  -0.10990
 137        9D+2       -0.26470   0.35681   0.11196
 138        9D-2        0.00000   0.00000   0.00000
          Condensed to atoms (all electrons):
              1          2          3          4
     1  O    8.193911   0.349394  -0.064621  -0.061206
     2  C    0.349394   5.719324   0.200617   0.214827
     3  H   -0.064621   0.200617   0.431195  -0.030360
     4  H   -0.061206   0.214827  -0.030360   0.438267
 Mulliken atomic charges:
              1
     1  O   -0.417478
     2  C   -0.484162
     3  H    0.463168
     4  H    0.438472
 Sum of Mulliken atomic charges =   0.00000
 Mulliken charges with hydrogens summed into heavy atoms:
              1
     1  O   -0.417478
     2  C    0.417478
 Sum of Mulliken charges with hydrogens summed into heavy atoms =   0.00000
 Electronic spatial extent (au):  <R**2>=             60.6342
 Charge=              0.0000 electrons
 Dipole moment (field-independent basis, Debye):
    X=              0.0000    Y=              0.0368    Z=             -2.4417  Tot=              2.4420
 Quadrupole moment (field-independent basis, Debye-Ang):
   XX=            -11.7380   YY=            -11.6213   ZZ=            -12.2715
   XY=              0.0000   XZ=              0.0000   YZ=             -0.0532
 Traceless Quadrupole moment (field-independent basis, Debye-Ang):
   XX=              0.1389   YY=              0.2556   ZZ=             -0.3946
   XY=              0.0000   XZ=              0.0000   YZ=             -0.0532
 Octapole moment (field-independent basis, Debye-Ang**2):
  XXX=              0.0000  YYY=             -0.0949  ZZZ=              0.3127  XYY=              0.0000
  XXY=             -0.0223  XXZ=              0.5816  XZZ=              0.0000  YZZ=              0.0172
  YYZ=             -0.7021  XYZ=              0.0000
 Hexadecapole moment (field-independent basis, Debye-Ang**3):
 XXXX=            -10.5197 YYYY=            -18.2530 ZZZZ=            -46.2438 XXXY=              0.0000
 XXXZ=              0.0000 YYYX=              0.0000 YYYZ=             -0.0149 ZZZX=              0.0000
 ZZZY=             -0.1051 XXYY=             -5.1558 XXZZ=             -9.3948 YYZZ=            -10.4560
 XXYZ=             -0.0135 YYXZ=              0.0000 ZZXY=              0.0000
 N-N= 3.130456505196D+01 E-N=-3.313608690478D+02  KE= 1.142317128173D+02
 1\1\GINC-TRAPISTA\SP\RQCISD-FC\Aug-CC-pVTZ\C1H2O1\BRUNS\20-Nov-2021\0\
 \# qcisd/aug-cc-pvtz nosymm density=current output=wfn\\h2co-wavefunct
 ion\\0,1\O,0,0.,0.,0.679252\C,0,0.,0.01,-0.526911\H,0,0.,0.936614,-1.1
 0662\H,0,0.,-0.936614,-1.10662\\Version=EM64L-G09RevB.01\HF=-113.91370
 94\MP2=-114.3162373\MP3=-114.3202544\MP4D=-114.3304782\MP4DQ=-114.3216
 046\MP4SDQ=-114.3268678\QCISD=-114.3268735\RMSD=2.902e-09\Dipole=0.,0.
 0144603,-0.9606378\Quadrupole=0.103276,0.1900655,-0.2933416,0.,0.,-0.0
 395671\PG=CS [SG(C1H2O1)]\\@

 Writing a WFN file to GAUSSIAN.wfn.


 Experience is what you get when you don't get what you want.
 -- Dan Stanford
 Job cpu time:  0 days  0 hours 22 minutes 38.7 seconds.
 File lengths (MBytes):  RWF=   5787 Int=      0 D2E=      0 Chk=      2 Scr=      1
 Normal termination of Gaussian 09 at Sat Nov 20 17:56:50 2021.
