 Entering Gaussian System, Link 0=/home/bruns/programas/chemistry/gaussian/g09/g09
 Input=./br2cs/br2cs-opt.com
 Output=./br2cs/br2cs-opt.log
 Initial command:
 /home/bruns/programas/chemistry/gaussian/g09/l1.exe /home/bruns/programas/chemistry/gaussian/work/Gau-56842.inp -scrdir=/home/bruns/programas/chemistry/gaussian/work/
 Entering Link 1 = /home/bruns/programas/chemistry/gaussian/g09/l1.exe PID=     56844.
  
 Copyright (c) 1988,1990,1992,1993,1995,1998,2003,2009,2010,
            Gaussian, Inc.  All Rights Reserved.
  
 This is part of the Gaussian(R) 09 program.  It is based on
 the Gaussian(R) 03 system (copyright 2003, Gaussian, Inc.),
 the Gaussian(R) 98 system (copyright 1998, Gaussian, Inc.),
 the Gaussian(R) 94 system (copyright 1995, Gaussian, Inc.),
 the Gaussian 92(TM) system (copyright 1992, Gaussian, Inc.),
 the Gaussian 90(TM) system (copyright 1990, Gaussian, Inc.),
 the Gaussian 88(TM) system (copyright 1988, Gaussian, Inc.),
 the Gaussian 86(TM) system (copyright 1986, Carnegie Mellon
 University), and the Gaussian 82(TM) system (copyright 1983,
 Carnegie Mellon University). Gaussian is a federally registered
 trademark of Gaussian, Inc.
  
 This software contains proprietary and confidential information,
 including trade secrets, belonging to Gaussian, Inc.
  
 This software is provided under written license and may be
 used, copied, transmitted, or stored only in accord with that
 written license.
  
 The following legend is applicable only to US Government
 contracts under FAR:
  
                    RESTRICTED RIGHTS LEGEND
  
 Use, reproduction and disclosure by the US Government is
 subject to restrictions as set forth in subparagraphs (a)
 and (c) of the Commercial Computer Software - Restricted
 Rights clause in FAR 52.227-19.
  
 Gaussian, Inc.
 340 Quinnipiac St., Bldg. 40, Wallingford CT 06492
  
  
 ---------------------------------------------------------------
 Warning -- This program may not be used in any manner that
 competes with the business of Gaussian, Inc. or will provide
 assistance to any competitor of Gaussian, Inc.  The licensee
 of this program is prohibited from giving any competitor of
 Gaussian, Inc. access to this program.  By using this program,
 the user acknowledges that Gaussian, Inc. is engaged in the
 business of creating and licensing software in the field of
 computational chemistry and represents and warrants to the
 licensee that it is not a competitor of Gaussian, Inc. and that
 it will not use this program in any manner prohibited above.
 ---------------------------------------------------------------
  

 Cite this work as:
 Gaussian 09, Revision B.01,
 M. J. Frisch, G. W. Trucks, H. B. Schlegel, G. E. Scuseria, 
 M. A. Robb, J. R. Cheeseman, G. Scalmani, V. Barone, B. Mennucci, 
 G. A. Petersson, H. Nakatsuji, M. Caricato, X. Li, H. P. Hratchian, 
 A. F. Izmaylov, J. Bloino, G. Zheng, J. L. Sonnenberg, M. Hada, 
 M. Ehara, K. Toyota, R. Fukuda, J. Hasegawa, M. Ishida, T. Nakajima, 
 Y. Honda, O. Kitao, H. Nakai, T. Vreven, J. A. Montgomery, Jr., 
 J. E. Peralta, F. Ogliaro, M. Bearpark, J. J. Heyd, E. Brothers, 
 K. N. Kudin, V. N. Staroverov, T. Keith, R. Kobayashi, J. Normand, 
 K. Raghavachari, A. Rendell, J. C. Burant, S. S. Iyengar, J. Tomasi, 
 M. Cossi, N. Rega, J. M. Millam, M. Klene, J. E. Knox, J. B. Cross, 
 V. Bakken, C. Adamo, J. Jaramillo, R. Gomperts, R. E. Stratmann, 
 O. Yazyev, A. J. Austin, R. Cammi, C. Pomelli, J. W. Ochterski, 
 R. L. Martin, K. Morokuma, V. G. Zakrzewski, G. A. Voth, 
 P. Salvador, J. J. Dannenberg, S. Dapprich, A. D. Daniels, 
 O. Farkas, J. B. Foresman, J. V. Ortiz, J. Cioslowski, 
 and D. J. Fox, Gaussian, Inc., Wallingford CT, 2010.
 
 ******************************************
 Gaussian 09:  EM64L-G09RevB.01 12-Aug-2010
                19-Nov-2021 
 ******************************************
 %nproc=8
 Will use up to    8 processors via shared memory.
 %mem=8GB
 --------------------------------------------
 #opt qcisd/aug-cc-pvtz density=current nosym
 --------------------------------------------
 1/18=20,19=15,38=1/1,3;
 2/9=110,12=2,15=1,17=6,18=5,40=1/2;
 3/5=16,6=1,7=10,11=9,16=1,25=1,30=1,71=1/1,2,3;
 4//1;
 5/5=2,38=5/2;
 8/6=4,9=120000,10=1/1,4;
 9/5=8,15=1/13;
 11/28=-7,29=200,31=1,42=3/11;
 10/5=6,31=1/2;
 6/7=2,8=2,9=2,10=2,22=-1/1;
 7/12=7,30=1/1,2,3,16;
 1/18=20,19=15/3(2);
 2/9=110,15=1/2;
 99//99;
 2/9=110,15=1/2;
 3/5=16,6=1,7=10,11=9,16=1,25=1,30=1,71=1/1,2,3;
 4/5=5,16=3/1;
 5/5=2,38=5/2;
 8/6=4,9=120000,10=1/1,4;
 9/5=8,15=1/13;
 11/28=-7,29=200,31=1,42=3/11;
 10/5=6,31=1/2;
 7/12=7,30=1/1,2,3,16;
 1/18=20,19=15/3(-9);
 2/9=110,15=1/2;
 6/7=2,8=2,9=2,10=2,22=-1/1;
 99//99;
 -----
 br2cs
 -----
 Symbolic Z-matrix:
 Charge =  0 Multiplicity = 1
 C                     0.        0.       -0.56233 
 S                     0.        0.        1.00408 
 Br                    0.       -1.65411  -1.51733 
 Br                    0.        1.65411  -1.51733 
 

 GradGradGradGradGradGradGradGradGradGradGradGradGradGradGradGradGradGrad
 Berny optimization.
 Initialization pass.
                           ----------------------------
                           !    Initial Parameters    !
                           ! (Angstroms and Degrees)  !
 --------------------------                            --------------------------
 ! Name  Definition              Value          Derivative Info.                !
 --------------------------------------------------------------------------------
 ! R1    R(1,2)                  1.5664         estimate D2E/DX2                !
 ! R2    R(1,3)                  1.91           estimate D2E/DX2                !
 ! R3    R(1,4)                  1.91           estimate D2E/DX2                !
 ! A1    A(2,1,3)              120.0            estimate D2E/DX2                !
 ! A2    A(2,1,4)              120.0            estimate D2E/DX2                !
 ! A3    A(3,1,4)              120.0            estimate D2E/DX2                !
 ! D1    D(2,1,4,3)            180.0            estimate D2E/DX2                !
 --------------------------------------------------------------------------------
 Trust Radius=3.00D-01 FncErr=1.00D-07 GrdErr=1.00D-07
 Number of steps in this run=     20 maximum allowed number of steps=    100.
 GradGradGradGradGradGradGradGradGradGradGradGradGradGradGradGradGradGrad

                          Input orientation:                          
 ---------------------------------------------------------------------
 Center     Atomic      Atomic             Coordinates (Angstroms)
 Number     Number       Type             X           Y           Z
 ---------------------------------------------------------------------
      1          6           0        0.000000    0.000000   -0.562325
      2         16           0        0.000000    0.000000    1.004075
      3         35           0        0.000000   -1.654109   -1.517325
      4         35           0        0.000000    1.654109   -1.517325
 ---------------------------------------------------------------------
                    Distance matrix (angstroms):
                    1          2          3          4
     1  C    0.000000
     2  S    1.566400   0.000000
     3  Br   1.910000   3.015549   0.000000
     4  Br   1.910000   3.015549   3.308217   0.000000
 Symmetry turned off by external request.
 Stoichiometry    CBr2S
 Framework group  C2V[C2(CS),SGV(Br2)]
 Deg. of freedom     3
 Full point group                 C2V     NOp   4
 Rotational constants (GHZ):      2.9348910      1.1702571      0.8366512
 Standard basis: Aug-CC-pVTZ (5D, 7F)
 Integral buffers will be    131072 words long.
 Raffenetti 1 integral format.
 Two-electron integral symmetry is turned off.
   214 basis functions,   620 primitive gaussians,   252 cartesian basis functions
    46 alpha electrons       46 beta electrons
       nuclear repulsion energy       541.2852019847 Hartrees.
 NAtoms=    4 NActive=    4 NUniq=    4 SFac= 1.00D+00 NAtFMM=   50 NAOKFM=F Big=F
 One-electron integrals computed using PRISM.
 NBasis=   214 RedAO= T  NBF=   214
 NBsUse=   214 1.00D-06 NBFU=   214
 Harris functional with IExCor=  205 diagonalized for initial guess.
 ExpMin= 3.51D-02 ExpMax= 1.06D+07 ExpMxC= 1.21D+04 IAcc=3 IRadAn=         0 AccDes= 0.00D+00
 HarFok:  IExCor=  205 AccDes= 0.00D+00 IRadAn=         0 IDoV= 1
 ScaDFX=  1.000000  1.000000  1.000000  1.000000
 FoFCou: FMM=F IPFlag=           0 FMFlag=      100000 FMFlg1=           0
         NFxFlg=           0 DoJE=T BraDBF=F KetDBF=T FulRan=T
         Omega=  0.000000  0.000000  1.000000  0.000000  0.000000 ICntrl=     500 IOpCl=  0
         NMat0=    1 NMatS0=    1 NMatT0=    0 NMatD0=    1 NMtDS0=    0 NMtDT0=    0
         I1Cent=           4 NGrid=           0.
 Symmetry not used in FoFCou.
 Requested convergence on RMS density matrix=1.00D-08 within 128 cycles.
 Requested convergence on MAX density matrix=1.00D-06.
 Requested convergence on             energy=1.00D-06.
 No special actions if energy rises.
 Keep R1 ints in memory in canonical form, NReq=516428601.
 SCF Done:  E(RHF) =  -5580.30507828     A.U. after   14 cycles
             Convg  =    0.3424D-08             -V/T =  2.0000
 ExpMin= 3.51D-02 ExpMax= 1.06D+07 ExpMxC= 1.21D+04 IAcc=3 IRadAn=         5 AccDes= 0.00D+00
 HarFok:  IExCor=  205 AccDes= 0.00D+00 IRadAn=         5 IDoV=-2
 ScaDFX=  1.000000  1.000000  1.000000  1.000000
 DSYEVD returned Info=          89 IAlg= 4 N=    59 NDim=    59 NE2=    18196455 trying DSYEV.
 Range of M.O.s used for correlation:    25   214
 NBasis=   214 NAE=    46 NBE=    46 NFC=    24 NFV=     0
 NROrb=    190 NOA=    22 NOB=    22 NVA=   168 NVB=   168

 **** Warning!!: The largest alpha MO coefficient is  0.30083701D+02

 Semi-Direct transformation.
 ModeAB=           2 MOrb=            22 LenV=    1072457529
 LASXX=     69628944 LTotXX=    69628944 LenRXX=    69628944
 LTotAB=    70719517 MaxLAS=   133250040 LenRXY=   133250040
 NonZer=   139257888 LenScr=   209707008 LnRSAI=           0
 LnScr1=           0 LExtra=           0 Total=    412585992
 MaxDsk=          -1 SrtSym=           F ITran=            4
 JobTyp=0 Pass  1:  I=   1 to  22.
 (rs|ai) integrals will be sorted in core.
 Spin components of T(2) and E(2):
     alpha-alpha T2 =       0.4246279093D-01 E2=     -0.1149537590D+00
     alpha-beta  T2 =       0.2152158027D+00 E2=     -0.5781868034D+00
     beta-beta   T2 =       0.4246279093D-01 E2=     -0.1149537590D+00
 ANorm=    0.1140237425D+01
 E2 =    -0.8080943214D+00 EUMP2 =    -0.55811131726015D+04
 R2 and R3 integrals will be kept in memory, NReq=  1024335774.
 Iterations=  50 Convergence= 0.100D-07
 Iteration Nr.   1
 **********************
 DD1Dir will call FoFMem   1 times, MxPair=       506
 NAB=   253 NAA=     0 NBB=     0.
 MP4(R+Q)=  0.23258499D-01
 E3=       -0.13253646D-01        EUMP3=      -0.55811264262D+04
 E4(DQ)=   -0.38306924D-03        UMP4(DQ)=   -0.55811268093D+04
 E4(SDQ)=  -0.96714541D-02        UMP4(SDQ)=  -0.55811360977D+04
 DE(Corr)= -0.79808947     E(Corr)=     -5581.1031677    
 NORM(A)=   0.11404728D+01
 Iteration Nr.   2
 **********************
 DD1Dir will call FoFMem   1 times, MxPair=       506
 NAB=   253 NAA=     0 NBB=     0.
 DE(Corr)= -0.82612878     E(CORR)=     -5581.1312071     Delta=-2.80D-02
 NORM(A)=   0.11524948D+01
 Iteration Nr.   3
 **********************
 DD1Dir will call FoFMem   1 times, MxPair=       506
 NAB=   253 NAA=     0 NBB=     0.
 DE(Corr)= -0.82500893     E(CORR)=     -5581.1300872     Delta= 1.12D-03
 NORM(A)=   0.11551701D+01
 Iteration Nr.   4
 **********************
 DD1Dir will call FoFMem   1 times, MxPair=       506
 NAB=   253 NAA=     0 NBB=     0.
 DE(Corr)= -0.82724520     E(CORR)=     -5581.1323235     Delta=-2.24D-03
 NORM(A)=   0.11563852D+01
 Iteration Nr.   5
 **********************
 DD1Dir will call FoFMem   1 times, MxPair=       506
 NAB=   253 NAA=     0 NBB=     0.
 DE(Corr)= -0.82753002     E(CORR)=     -5581.1326083     Delta=-2.85D-04
 NORM(A)=   0.11569838D+01
 Iteration Nr.   6
 **********************
 DD1Dir will call FoFMem   1 times, MxPair=       506
 NAB=   253 NAA=     0 NBB=     0.
 DE(Corr)= -0.82759247     E(CORR)=     -5581.1326708     Delta=-6.24D-05
 NORM(A)=   0.11570649D+01
 Iteration Nr.   7
 **********************
 DD1Dir will call FoFMem   1 times, MxPair=       506
 NAB=   253 NAA=     0 NBB=     0.
 DE(Corr)= -0.82760451     E(CORR)=     -5581.1326828     Delta=-1.20D-05
 NORM(A)=   0.11570937D+01
 Iteration Nr.   8
 **********************
 DD1Dir will call FoFMem   1 times, MxPair=       506
 NAB=   253 NAA=     0 NBB=     0.
 DE(Corr)= -0.82759827     E(CORR)=     -5581.1326765     Delta= 6.24D-06
 NORM(A)=   0.11571011D+01
 Iteration Nr.   9
 **********************
 DD1Dir will call FoFMem   1 times, MxPair=       506
 NAB=   253 NAA=     0 NBB=     0.
 DE(Corr)= -0.82760341     E(CORR)=     -5581.1326817     Delta=-5.14D-06
 NORM(A)=   0.11571058D+01
 Iteration Nr.  10
 **********************
 DD1Dir will call FoFMem   1 times, MxPair=       506
 NAB=   253 NAA=     0 NBB=     0.
 DE(Corr)= -0.82760177     E(CORR)=     -5581.1326800     Delta= 1.64D-06
 NORM(A)=   0.11571095D+01
 Iteration Nr.  11
 **********************
 DD1Dir will call FoFMem   1 times, MxPair=       506
 NAB=   253 NAA=     0 NBB=     0.
 DE(Corr)= -0.82760430     E(CORR)=     -5581.1326826     Delta=-2.53D-06
 NORM(A)=   0.11571115D+01
 Iteration Nr.  12
 **********************
 DD1Dir will call FoFMem   1 times, MxPair=       506
 NAB=   253 NAA=     0 NBB=     0.
 DE(Corr)= -0.82760420     E(CORR)=     -5581.1326825     Delta= 1.00D-07
 NORM(A)=   0.11571130D+01
 Iteration Nr.  13
 **********************
 DD1Dir will call FoFMem   1 times, MxPair=       506
 NAB=   253 NAA=     0 NBB=     0.
 DE(Corr)= -0.82760479     E(CORR)=     -5581.1326831     Delta=-5.86D-07
 NORM(A)=   0.11571139D+01
 Iteration Nr.  14
 **********************
 DD1Dir will call FoFMem   1 times, MxPair=       506
 NAB=   253 NAA=     0 NBB=     0.
 DE(Corr)= -0.82760483     E(CORR)=     -5581.1326831     Delta=-3.82D-08
 NORM(A)=   0.11571143D+01
 Iteration Nr.  15
 **********************
 DD1Dir will call FoFMem   1 times, MxPair=       506
 NAB=   253 NAA=     0 NBB=     0.
 DE(Corr)= -0.82760492     E(CORR)=     -5581.1326832     Delta=-9.36D-08
 NORM(A)=   0.11571146D+01
 Iteration Nr.  16
 **********************
 DD1Dir will call FoFMem   1 times, MxPair=       506
 NAB=   253 NAA=     0 NBB=     0.
 DE(Corr)= -0.82760496     E(CORR)=     -5581.1326832     Delta=-3.70D-08
 NORM(A)=   0.11571147D+01
 Iteration Nr.  17
 **********************
 DD1Dir will call FoFMem   1 times, MxPair=       506
 NAB=   253 NAA=     0 NBB=     0.
 DE(Corr)= -0.82760494     E(CORR)=     -5581.1326832     Delta= 1.63D-08
 NORM(A)=   0.11571147D+01
 Iteration Nr.  18
 **********************
 DD1Dir will call FoFMem   1 times, MxPair=       506
 NAB=   253 NAA=     0 NBB=     0.
 DE(Corr)= -0.82760496     E(CORR)=     -5581.1326832     Delta=-2.25D-08
 NORM(A)=   0.11571147D+01
 Iteration Nr.  19
 **********************
 DD1Dir will call FoFMem   1 times, MxPair=       506
 NAB=   253 NAA=     0 NBB=     0.
 DE(Corr)= -0.82760496     E(CORR)=     -5581.1326832     Delta= 5.17D-09
 NORM(A)=   0.11571147D+01
 Iteration Nr.  20
 **********************
 DD1Dir will call FoFMem   1 times, MxPair=       506
 NAB=   253 NAA=     0 NBB=     0.
 DE(Corr)= -0.82760497     E(CORR)=     -5581.1326832     Delta=-8.12D-09
 NORM(A)=   0.11571147D+01
 Iteration Nr.  21
 **********************
 DD1Dir will call FoFMem   1 times, MxPair=       506
 NAB=   253 NAA=     0 NBB=     0.
 DE(Corr)= -0.82760495     E(CORR)=     -5581.1326832     Delta= 1.72D-08
 NORM(A)=   0.11571148D+01
 Iteration Nr.  22
 **********************
 DD1Dir will call FoFMem   1 times, MxPair=       506
 NAB=   253 NAA=     0 NBB=     0.
 DE(Corr)= -0.82760496     E(CORR)=     -5581.1326832     Delta=-7.19D-09
 NORM(A)=   0.11571147D+01
 Iteration Nr.  23
 **********************
 DD1Dir will call FoFMem   1 times, MxPair=       506
 NAB=   253 NAA=     0 NBB=     0.
 DE(Corr)= -0.82760496     E(CORR)=     -5581.1326832     Delta=-5.84D-09
 NORM(A)=   0.11571147D+01
 Iteration Nr.  24
 **********************
 DD1Dir will call FoFMem   1 times, MxPair=       506
 NAB=   253 NAA=     0 NBB=     0.
 DE(Corr)= -0.82760496     E(CORR)=     -5581.1326832     Delta= 1.83D-09
 NORM(A)=   0.11571147D+01
 Largest amplitude= 6.84D-02

 Z-AMPLITUDE ITERATIONS

 Iteration Nr.   1
 **********************
 DD1Dir will call FoFMem   1 times, MxPair=       506
 NAB=   253 NAA=     0 NBB=     0.
 DE(Z)  -0.79723458D+00          E(Z)=    -0.55811023129D+04
 NORM(A)=   0.11570359D+01
 Iteration Nr.   2
 **********************
 DD1Dir will call FoFMem   1 times, MxPair=       506
 NAB=   253 NAA=     0 NBB=     0.
 DE(Z)  -0.79723363D+00          E(Z)=    -0.55811023119D+04
 NORM(A)=   0.11568677D+01
 Iteration Nr.   3
 **********************
 DD1Dir will call FoFMem   1 times, MxPair=       506
 NAB=   253 NAA=     0 NBB=     0.
 DE(Z)  -0.79723213D+00          E(Z)=    -0.55811023104D+04
 NORM(A)=   0.11569572D+01
 Iteration Nr.   4
 **********************
 DD1Dir will call FoFMem   1 times, MxPair=       506
 NAB=   253 NAA=     0 NBB=     0.
 DE(Z)  -0.79723277D+00          E(Z)=    -0.55811023110D+04
 NORM(A)=   0.11577971D+01
 Iteration Nr.   5
 **********************
 DD1Dir will call FoFMem   1 times, MxPair=       506
 NAB=   253 NAA=     0 NBB=     0.
 DE(Z)  -0.79724333D+00          E(Z)=    -0.55811023216D+04
 NORM(A)=   0.11440865D+01
 Iteration Nr.   6
 **********************
 DD1Dir will call FoFMem   1 times, MxPair=       506
 NAB=   253 NAA=     0 NBB=     0.
 DE(Z)  -0.79706839D+00          E(Z)=    -0.55811021467D+04
 NORM(A)=   0.11440853D+01
 Iteration Nr.   7
 **********************
 DD1Dir will call FoFMem   1 times, MxPair=       506
 NAB=   253 NAA=     0 NBB=     0.
 DE(Z)  -0.79706501D+00          E(Z)=    -0.55811021433D+04
 NORM(A)=   0.11440839D+01
 Iteration Nr.   8
 **********************
 DD1Dir will call FoFMem   1 times, MxPair=       506
 NAB=   253 NAA=     0 NBB=     0.
 DE(Z)  -0.79706662D+00          E(Z)=    -0.55811021449D+04
 NORM(A)=   0.11440845D+01
 Iteration Nr.   9
 **********************
 DD1Dir will call FoFMem   1 times, MxPair=       506
 NAB=   253 NAA=     0 NBB=     0.
 DE(Z)  -0.79706642D+00          E(Z)=    -0.55811021447D+04
 NORM(A)=   0.11440845D+01
 Iteration Nr.  10
 **********************
 DD1Dir will call FoFMem   1 times, MxPair=       506
 NAB=   253 NAA=     0 NBB=     0.
 DE(Z)  -0.79706641D+00          E(Z)=    -0.55811021447D+04
 NORM(A)=   0.11440846D+01
 Iteration Nr.  11
 **********************
 DD1Dir will call FoFMem   1 times, MxPair=       506
 NAB=   253 NAA=     0 NBB=     0.
 DE(Z)  -0.79706642D+00          E(Z)=    -0.55811021447D+04
 NORM(A)=   0.11440847D+01
 Iteration Nr.  12
 **********************
 DD1Dir will call FoFMem   1 times, MxPair=       506
 NAB=   253 NAA=     0 NBB=     0.
 DE(Z)  -0.79706641D+00          E(Z)=    -0.55811021447D+04
 NORM(A)=   0.11440847D+01
 Iteration Nr.  13
 **********************
 DD1Dir will call FoFMem   1 times, MxPair=       506
 NAB=   253 NAA=     0 NBB=     0.
 DE(Z)  -0.79706642D+00          E(Z)=    -0.55811021447D+04
 NORM(A)=   0.11440847D+01
 Iteration Nr.  14
 **********************
 DD1Dir will call FoFMem   1 times, MxPair=       506
 NAB=   253 NAA=     0 NBB=     0.
 DE(Z)  -0.79706642D+00          E(Z)=    -0.55811021447D+04
 NORM(A)=   0.11440847D+01
 Discarding MO integrals.
          IDoAtm=1111
          Differentiating once with respect to electric field.
                with respect to dipole field.
          Differentiating once with respect to nuclear coordinates.
          Keep R1 ints in memory in canonical form, NReq=510060698.
          There are     1 degrees of freedom in the 1st order CPHF.  IDoFFX=0.
 LinEq1:  Iter=  0 NonCon=     1 RMS=1.75D-03 Max=6.16D-02
 AX will form     1 AO Fock derivatives at one time.
 LinEq1:  Iter=  1 NonCon=     1 RMS=8.40D-04 Max=1.88D-02
 LinEq1:  Iter=  2 NonCon=     1 RMS=3.71D-04 Max=1.34D-02
 LinEq1:  Iter=  3 NonCon=     1 RMS=1.20D-04 Max=4.48D-03
 LinEq1:  Iter=  4 NonCon=     1 RMS=4.62D-05 Max=8.17D-04
 LinEq1:  Iter=  5 NonCon=     1 RMS=9.80D-06 Max=3.08D-04
 LinEq1:  Iter=  6 NonCon=     1 RMS=3.21D-06 Max=6.73D-05
 LinEq1:  Iter=  7 NonCon=     1 RMS=7.71D-07 Max=1.62D-05
 LinEq1:  Iter=  8 NonCon=     1 RMS=1.56D-07 Max=4.32D-06
 LinEq1:  Iter=  9 NonCon=     1 RMS=3.74D-08 Max=7.01D-07
 LinEq1:  Iter= 10 NonCon=     1 RMS=1.10D-08 Max=3.64D-07
 LinEq1:  Iter= 11 NonCon=     1 RMS=2.06D-09 Max=3.52D-08
 LinEq1:  Iter= 12 NonCon=     1 RMS=4.75D-10 Max=9.12D-09
 LinEq1:  Iter= 13 NonCon=     1 RMS=1.22D-10 Max=2.10D-09
 LinEq1:  Iter= 14 NonCon=     0 RMS=2.14D-11 Max=4.14D-10
 Linear equations converged to 1.000D-10 1.000D-09 after    14 iterations.
 End of Minotr Frequency-dependent properties file   721 does not exist.
 End of Minotr Frequency-dependent properties file   722 does not exist.

 **********************************************************************

            Population analysis using the QCI/CC density.

 **********************************************************************

 Alpha  occ. eigenvalues -- -490.06295-490.06295 -91.97602 -65.20258 -65.20258
 Alpha  occ. eigenvalues --  -58.55796 -58.55796 -58.55638 -58.55638 -58.55623
 Alpha  occ. eigenvalues --  -58.55623 -11.42799  -9.87541  -9.87540  -8.98087
 Alpha  occ. eigenvalues --   -7.48740  -7.48740  -7.47990  -7.47989  -7.47926
 Alpha  occ. eigenvalues --   -7.47926  -6.66167  -6.66064  -6.65904  -3.23149
 Alpha  occ. eigenvalues --   -3.23149  -3.22779  -3.22778  -3.22690  -3.22689
 Alpha  occ. eigenvalues --   -3.21731  -3.21730  -3.21729  -3.21729  -1.16925
 Alpha  occ. eigenvalues --   -1.04295  -1.01455  -0.73506  -0.60127  -0.57889
 Alpha  occ. eigenvalues --   -0.54069  -0.45514  -0.44750  -0.43773  -0.39899
 Alpha  occ. eigenvalues --   -0.36733
 Alpha virt. eigenvalues --    0.01716   0.04434   0.05696   0.06084   0.08289
 Alpha virt. eigenvalues --    0.08980   0.09244   0.10196   0.11087   0.11538
 Alpha virt. eigenvalues --    0.11559   0.13274   0.14274   0.15551   0.15655
 Alpha virt. eigenvalues --    0.17179   0.18984   0.22170   0.23704   0.23971
 Alpha virt. eigenvalues --    0.24406   0.26903   0.30024   0.30676   0.33220
 Alpha virt. eigenvalues --    0.34167   0.34461   0.34937   0.36192   0.37006
 Alpha virt. eigenvalues --    0.38144   0.39567   0.40090   0.42806   0.43460
 Alpha virt. eigenvalues --    0.46837   0.47046   0.48673   0.48913   0.50405
 Alpha virt. eigenvalues --    0.50419   0.52867   0.56812   0.57102   0.57281
 Alpha virt. eigenvalues --    0.60751   0.65901   0.67071   0.68907   0.69675
 Alpha virt. eigenvalues --    0.71023   0.74665   0.75238   0.76148   0.76467
 Alpha virt. eigenvalues --    0.77367   0.77786   0.78641   0.80028   0.80622
 Alpha virt. eigenvalues --    0.80979   0.81509   0.84720   0.84824   0.87327
 Alpha virt. eigenvalues --    0.89562   0.91121   0.91127   0.92589   0.96411
 Alpha virt. eigenvalues --    0.96969   0.99534   1.00216   1.03598   1.04461
 Alpha virt. eigenvalues --    1.04690   1.07131   1.14532   1.14534   1.16306
 Alpha virt. eigenvalues --    1.18792   1.18988   1.19386   1.22455   1.26147
 Alpha virt. eigenvalues --    1.27034   1.31971   1.35911   1.37736   1.44451
 Alpha virt. eigenvalues --    1.45945   1.49261   1.51669   1.52236   1.54359
 Alpha virt. eigenvalues --    1.55443   1.55846   1.62940   1.71284   1.71933
 Alpha virt. eigenvalues --    1.74321   1.76330   1.93071   1.98404   2.07077
 Alpha virt. eigenvalues --    2.09625   2.12036   2.17355   2.17540   2.18884
 Alpha virt. eigenvalues --    2.21070   2.25347   2.27583   2.28133   2.28844
 Alpha virt. eigenvalues --    2.28869   2.29291   2.29941   2.32023   2.32322
 Alpha virt. eigenvalues --    2.33347   2.34642   2.35319   2.35329   2.36302
 Alpha virt. eigenvalues --    2.36304   2.36620   2.39560   2.40014   2.40535
 Alpha virt. eigenvalues --    2.40589   2.42903   2.42990   2.47165   2.47718
 Alpha virt. eigenvalues --    2.50305   2.53051   2.55493   2.56762   2.61138
 Alpha virt. eigenvalues --    2.62556   2.68326   2.69612   2.70913   2.89051
 Alpha virt. eigenvalues --    2.96601   2.98455   3.08081   3.29015   3.31528
 Alpha virt. eigenvalues --    3.62281   3.62630   3.66151   3.67671   3.76106
 Alpha virt. eigenvalues --    3.77947   3.83955   3.89220   3.94666   4.07003
 Alpha virt. eigenvalues --    4.07299   4.12972   4.16971   4.21532   5.01028
 Alpha virt. eigenvalues --    5.02595   6.54695   9.79193
          Condensed to atoms (all electrons):
              1          2          3          4
     1  C    6.363035   0.047193  -0.112784  -0.112784
     2  S    0.047193  16.393550  -0.204776  -0.204776
     3  Br  -0.112784  -0.204776  35.325509  -0.115876
     4  Br  -0.112784  -0.204776  -0.115876  35.325509
 Mulliken atomic charges:
              1
     1  C   -0.184660
     2  S   -0.031192
     3  Br   0.107926
     4  Br   0.107926
 Sum of Mulliken atomic charges =   0.00000
 Mulliken charges with hydrogens summed into heavy atoms:
              1
     1  C   -0.184660
     2  S   -0.031192
     3  Br   0.107926
     4  Br   0.107926
 Sum of Mulliken charges with hydrogens summed into heavy atoms =   0.00000
 Electronic spatial extent (au):  <R**2>=           1444.8209
 Charge=              0.0000 electrons
 Dipole moment (field-independent basis, Debye):
    X=              0.0000    Y=              0.0000    Z=             -0.2764  Tot=              0.2764
 Quadrupole moment (field-independent basis, Debye-Ang):
   XX=            -54.8949   YY=            -53.2291   ZZ=            -54.6020
   XY=              0.0000   XZ=              0.0000   YZ=              0.0000
 Traceless Quadrupole moment (field-independent basis, Debye-Ang):
   XX=             -0.6529   YY=              1.0129   ZZ=             -0.3600
   XY=              0.0000   XZ=              0.0000   YZ=              0.0000
 Octapole moment (field-independent basis, Debye-Ang**2):
  XXX=              0.0000  YYY=              0.0000  ZZZ=            141.1491  XYY=              0.0000
  XXY=              0.0000  XXZ=             47.1423  XZZ=              0.0000  YZZ=              0.0000
  YYZ=             34.6863  XYZ=              0.0000
 Hexadecapole moment (field-independent basis, Debye-Ang**3):
 XXXX=            -67.0666 YYYY=           -619.0108 ZZZZ=           -659.7329 XXXY=              0.0000
 XXXZ=              0.0000 YYYX=              0.0000 YYYZ=              0.0000 ZZZX=              0.0000
 ZZZY=              0.0000 XXYY=           -123.7697 XXZZ=           -122.2136 YYZZ=           -199.6684
 XXYZ=              0.0000 YYXZ=              0.0000 ZZXY=              0.0000
 N-N= 5.412852019847D+02 E-N=-1.442388213610D+04  KE= 5.579909723702D+03
 Calling FoFJK, ICntrl=      2127 FMM=F ISym2X=0 I1Cent= 0 IOpClX= 0 NMat=1 NMatS=1 NMatT=0.
 -------------------------------------------------------------------
 Center     Atomic                   Forces (Hartrees/Bohr)
 Number     Number              X              Y              Z
 -------------------------------------------------------------------
      1        6           0.000000000    0.000000000   -0.022553950
      2       16           0.000000000    0.000000000    0.038399300
      3       35           0.000000000    0.011975490   -0.007922675
      4       35           0.000000000   -0.011975490   -0.007922675
 -------------------------------------------------------------------
 Cartesian Forces:  Max     0.038399300 RMS     0.014129016

 GradGradGradGradGradGradGradGradGradGradGradGradGradGradGradGradGradGrad
 Berny optimization.
 Internal  Forces:  Max     0.038399300 RMS     0.020669332
 Search for a local minimum.
 Step number   1 out of a maximum of   20
 All quantities printed in internal units (Hartrees-Bohrs-Radians)
 Mixed Optimization -- RFO/linear search
 Second derivative matrix not updated -- first step.
 The second derivative matrix:
                          R1        R2        R3        A1        A2
           R1           0.58306
           R2           0.00000   0.17771
           R3           0.00000   0.00000   0.17771
           A1           0.00000   0.00000   0.00000   0.25000
           A2           0.00000   0.00000   0.00000   0.00000   0.25000
           A3           0.00000   0.00000   0.00000   0.00000   0.00000
           D1           0.00000   0.00000   0.00000   0.00000   0.00000
                          A3        D1
           A3           0.25000
           D1           0.00000   0.00230
 ITU=  0
     Eigenvalues ---    0.00230   0.17771   0.17771   0.25000   0.25000
     Eigenvalues ---    0.58306
 RFO step:  Lambda=-8.48127358D-03 EMin= 2.30000000D-03
 Linear search not attempted -- first point.
 Iteration  1 RMS(Cart)=  0.10752766 RMS(Int)=  0.00351144
 Iteration  2 RMS(Cart)=  0.00305549 RMS(Int)=  0.00000088
 Iteration  3 RMS(Cart)=  0.00000150 RMS(Int)=  0.00000000
 Iteration  4 RMS(Cart)=  0.00000000 RMS(Int)=  0.00000000
 Variable       Old X    -DE/DX   Delta X   Delta X   Delta X     New X
                                 (Linear)    (Quad)   (Total)
    R1        2.96007   0.03840   0.00000   0.06491   0.06491   3.02498
    R2        3.60938  -0.00641   0.00000  -0.03443  -0.03443   3.57495
    R3        3.60938  -0.00641   0.00000  -0.03443  -0.03443   3.57495
    A1        2.09440   0.01546   0.00000   0.05981   0.05981   2.15420
    A2        2.09440   0.01546   0.00000   0.05981   0.05981   2.15420
    A3        2.09440  -0.03092   0.00000  -0.11961  -0.11961   1.97478
    D1        3.14159   0.00000   0.00000   0.00000   0.00000   3.14159
         Item               Value     Threshold  Converged?
 Maximum Force            0.038399     0.000450     NO 
 RMS     Force            0.020669     0.000300     NO 
 Maximum Displacement     0.142188     0.001800     NO 
 RMS     Displacement     0.107829     0.001200     NO 
 Predicted change in Energy=-4.359569D-03
 GradGradGradGradGradGradGradGradGradGradGradGradGradGradGradGradGradGrad

                          Input orientation:                          
 ---------------------------------------------------------------------
 Center     Atomic      Atomic             Coordinates (Angstroms)
 Number     Number       Type             X           Y           Z
 ---------------------------------------------------------------------
      1          6           0        0.000000    0.000000   -0.527350
      2         16           0        0.000000    0.000000    1.073401
      3         35           0        0.000000   -1.578866   -1.569475
      4         35           0        0.000000    1.578866   -1.569475
 ---------------------------------------------------------------------
                    Distance matrix (angstroms):
                    1          2          3          4
     1  C    0.000000
     2  S    1.600751   0.000000
     3  Br   1.891783   3.078573   0.000000
     4  Br   1.891783   3.078573   3.157731   0.000000
 Symmetry turned off by external request.
 Stoichiometry    CBr2S
 Framework group  C2V[C2(CS),SGV(Br2)]
 Deg. of freedom     3
 Full point group                 C2V     NOp   4
 Rotational constants (GHZ):      2.6637627      1.2844550      0.8665893
 Standard basis: Aug-CC-pVTZ (5D, 7F)
 Integral buffers will be    131072 words long.
 Raffenetti 1 integral format.
 Two-electron integral symmetry is turned off.
   214 basis functions,   620 primitive gaussians,   252 cartesian basis functions
    46 alpha electrons       46 beta electrons
       nuclear repulsion energy       547.0243970362 Hartrees.
 NAtoms=    4 NActive=    4 NUniq=    4 SFac= 1.00D+00 NAtFMM=   50 NAOKFM=F Big=F
 One-electron integrals computed using PRISM.
 NBasis=   214 RedAO= T  NBF=   214
 NBsUse=   214 1.00D-06 NBFU=   214
 Initial guess read from the read-write file.
 B after Tr=     0.000000    0.000000    0.000000
         Rot=    1.000000    0.000000    0.000000    0.000000 Ang=   0.00 deg.
 Harris functional with IExCor=  205 diagonalized for initial guess.
 ExpMin= 3.51D-02 ExpMax= 1.06D+07 ExpMxC= 1.21D+04 IAcc=3 IRadAn=         0 AccDes= 0.00D+00
 HarFok:  IExCor=  205 AccDes= 0.00D+00 IRadAn=         0 IDoV= 1
 ScaDFX=  1.000000  1.000000  1.000000  1.000000
 FoFCou: FMM=F IPFlag=           0 FMFlag=      100000 FMFlg1=           0
         NFxFlg=           0 DoJE=T BraDBF=F KetDBF=T FulRan=T
         Omega=  0.000000  0.000000  1.000000  0.000000  0.000000 ICntrl=     500 IOpCl=  0
         NMat0=    1 NMatS0=    1 NMatT0=    0 NMatD0=    1 NMtDS0=    0 NMtDT0=    0
         I1Cent=           4 NGrid=           0.
 Symmetry not used in FoFCou.
 DSYEVD returned Info=       11717 IAlg= 4 N=   214 NDim=   214 NE2=     5016883 trying DSYEV.
 Requested convergence on RMS density matrix=1.00D-08 within 128 cycles.
 Requested convergence on MAX density matrix=1.00D-06.
 Requested convergence on             energy=1.00D-06.
 No special actions if energy rises.
 Keep R1 ints in memory in canonical form, NReq=516428601.
 DSYEVD returned Info=       23434 IAlg= 4 N=   214 NDim=   214 NE2=     2642179 trying DSYEV.
 SCF Done:  E(RHF) =  -5580.30877274     A.U. after   12 cycles
             Convg  =    0.6816D-08             -V/T =  2.0000
 ExpMin= 3.51D-02 ExpMax= 1.06D+07 ExpMxC= 1.21D+04 IAcc=3 IRadAn=         5 AccDes= 0.00D+00
 HarFok:  IExCor=  205 AccDes= 0.00D+00 IRadAn=         5 IDoV=-2
 ScaDFX=  1.000000  1.000000  1.000000  1.000000
 DSYEVD returned Info=          89 IAlg= 4 N=    59 NDim=    59 NE2=    18196455 trying DSYEV.
 DSYEVD returned Info=         119 IAlg= 4 N=    59 NDim=    59 NE2=    18196455 trying DSYEV.
 Range of M.O.s used for correlation:    25   214
 NBasis=   214 NAE=    46 NBE=    46 NFC=    24 NFV=     0
 NROrb=    190 NOA=    22 NOB=    22 NVA=   168 NVB=   168

 **** Warning!!: The largest alpha MO coefficient is  0.30760425D+02

 Semi-Direct transformation.
 ModeAB=           2 MOrb=            22 LenV=    1072457027
 LASXX=     69628944 LTotXX=    69628944 LenRXX=    69628944
 LTotAB=    70719517 MaxLAS=   133250040 LenRXY=   133250040
 NonZer=   139257888 LenScr=   209707008 LnRSAI=           0
 LnScr1=           0 LExtra=           0 Total=    412585992
 MaxDsk=          -1 SrtSym=           F ITran=            4
 JobTyp=0 Pass  1:  I=   1 to  22.
 (rs|ai) integrals will be sorted in core.
 Spin components of T(2) and E(2):
     alpha-alpha T2 =       0.4281676708D-01 E2=     -0.1153555689D+00
     alpha-beta  T2 =       0.2164202322D+00 E2=     -0.5791510434D+00
     beta-beta   T2 =       0.4281676708D-01 E2=     -0.1153555689D+00
 ANorm=    0.1141075706D+01
 E2 =    -0.8098621811D+00 EUMP2 =    -0.55811186349253D+04
 R2 and R3 integrals will be kept in memory, NReq=  1024335774.
 Iterations=  50 Convergence= 0.100D-07
 Iteration Nr.   1
 **********************
 DD1Dir will call FoFMem   1 times, MxPair=       506
 NAB=   253 NAA=     0 NBB=     0.
 MP4(R+Q)=  0.23440734D-01
 E3=       -0.12299590D-01        EUMP3=      -0.55811309345D+04
 E4(DQ)=   -0.49210451D-03        UMP4(DQ)=   -0.55811314266D+04
 E4(SDQ)=  -0.10114038D-01        UMP4(SDQ)=  -0.55811410486D+04
 DE(Corr)= -0.79872104     E(Corr)=     -5581.1074938    
 NORM(A)=   0.11409133D+01
 Iteration Nr.   2
 **********************
 DD1Dir will call FoFMem   1 times, MxPair=       506
 NAB=   253 NAA=     0 NBB=     0.
 DE(Corr)= -0.82738783     E(CORR)=     -5581.1361606     Delta=-2.87D-02
 NORM(A)=   0.11530721D+01
 Iteration Nr.   3
 **********************
 DD1Dir will call FoFMem   1 times, MxPair=       506
 NAB=   253 NAA=     0 NBB=     0.
 DE(Corr)= -0.82601768     E(CORR)=     -5581.1347904     Delta= 1.37D-03
 NORM(A)=   0.11558844D+01
 Iteration Nr.   4
 **********************
 DD1Dir will call FoFMem   1 times, MxPair=       506
 NAB=   253 NAA=     0 NBB=     0.
 DE(Corr)= -0.82835167     E(CORR)=     -5581.1371244     Delta=-2.33D-03
 NORM(A)=   0.11571775D+01
 Iteration Nr.   5
 **********************
 DD1Dir will call FoFMem   1 times, MxPair=       506
 NAB=   253 NAA=     0 NBB=     0.
 DE(Corr)= -0.82865723     E(CORR)=     -5581.1374300     Delta=-3.06D-04
 NORM(A)=   0.11578066D+01
 Iteration Nr.   6
 **********************
 DD1Dir will call FoFMem   1 times, MxPair=       506
 NAB=   253 NAA=     0 NBB=     0.
 DE(Corr)= -0.82872129     E(CORR)=     -5581.1374940     Delta=-6.41D-05
 NORM(A)=   0.11578851D+01
 Iteration Nr.   7
 **********************
 DD1Dir will call FoFMem   1 times, MxPair=       506
 NAB=   253 NAA=     0 NBB=     0.
 DE(Corr)= -0.82873296     E(CORR)=     -5581.1375057     Delta=-1.17D-05
 NORM(A)=   0.11579024D+01
 Iteration Nr.   8
 **********************
 DD1Dir will call FoFMem   1 times, MxPair=       506
 NAB=   253 NAA=     0 NBB=     0.
 DE(Corr)= -0.82872889     E(CORR)=     -5581.1375016     Delta= 4.07D-06
 NORM(A)=   0.11579104D+01
 Iteration Nr.   9
 **********************
 DD1Dir will call FoFMem   1 times, MxPair=       506
 NAB=   253 NAA=     0 NBB=     0.
 DE(Corr)= -0.82873084     E(CORR)=     -5581.1375036     Delta=-1.94D-06
 NORM(A)=   0.11579113D+01
 Iteration Nr.  10
 **********************
 DD1Dir will call FoFMem   1 times, MxPair=       506
 NAB=   253 NAA=     0 NBB=     0.
 DE(Corr)= -0.82873082     E(CORR)=     -5581.1375036     Delta= 1.38D-08
 NORM(A)=   0.11579150D+01
 Iteration Nr.  11
 **********************
 DD1Dir will call FoFMem   1 times, MxPair=       506
 NAB=   253 NAA=     0 NBB=     0.
 DE(Corr)= -0.82873246     E(CORR)=     -5581.1375052     Delta=-1.64D-06
 NORM(A)=   0.11579169D+01
 Iteration Nr.  12
 **********************
 DD1Dir will call FoFMem   1 times, MxPair=       506
 NAB=   253 NAA=     0 NBB=     0.
 DE(Corr)= -0.82873252     E(CORR)=     -5581.1375053     Delta=-6.11D-08
 NORM(A)=   0.11579185D+01
 Iteration Nr.  13
 **********************
 DD1Dir will call FoFMem   1 times, MxPair=       506
 NAB=   253 NAA=     0 NBB=     0.
 DE(Corr)= -0.82873315     E(CORR)=     -5581.1375059     Delta=-6.29D-07
 NORM(A)=   0.11579194D+01
 Iteration Nr.  14
 **********************
 DD1Dir will call FoFMem   1 times, MxPair=       506
 NAB=   253 NAA=     0 NBB=     0.
 DE(Corr)= -0.82873317     E(CORR)=     -5581.1375059     Delta=-1.31D-08
 NORM(A)=   0.11579199D+01
 Iteration Nr.  15
 **********************
 DD1Dir will call FoFMem   1 times, MxPair=       506
 NAB=   253 NAA=     0 NBB=     0.
 DE(Corr)= -0.82873328     E(CORR)=     -5581.1375060     Delta=-1.13D-07
 NORM(A)=   0.11579201D+01
 Iteration Nr.  16
 **********************
 DD1Dir will call FoFMem   1 times, MxPair=       506
 NAB=   253 NAA=     0 NBB=     0.
 DE(Corr)= -0.82873331     E(CORR)=     -5581.1375061     Delta=-2.92D-08
 NORM(A)=   0.11579202D+01
 Iteration Nr.  17
 **********************
 DD1Dir will call FoFMem   1 times, MxPair=       506
 NAB=   253 NAA=     0 NBB=     0.
 DE(Corr)= -0.82873329     E(CORR)=     -5581.1375060     Delta= 1.26D-08
 NORM(A)=   0.11579202D+01
 Iteration Nr.  18
 **********************
 DD1Dir will call FoFMem   1 times, MxPair=       506
 NAB=   253 NAA=     0 NBB=     0.
 DE(Corr)= -0.82873331     E(CORR)=     -5581.1375061     Delta=-1.67D-08
 NORM(A)=   0.11579201D+01
 Iteration Nr.  19
 **********************
 DD1Dir will call FoFMem   1 times, MxPair=       506
 NAB=   253 NAA=     0 NBB=     0.
 DE(Corr)= -0.82873304     E(CORR)=     -5581.1375058     Delta= 2.73D-07
 NORM(A)=   0.11579202D+01
 Iteration Nr.  20
 **********************
 DD1Dir will call FoFMem   1 times, MxPair=       506
 NAB=   253 NAA=     0 NBB=     0.
 DE(Corr)= -0.82873326     E(CORR)=     -5581.1375060     Delta=-2.23D-07
 NORM(A)=   0.11579202D+01
 Iteration Nr.  21
 **********************
 DD1Dir will call FoFMem   1 times, MxPair=       506
 NAB=   253 NAA=     0 NBB=     0.
 DE(Corr)= -0.82873330     E(CORR)=     -5581.1375060     Delta=-3.81D-08
 NORM(A)=   0.11579202D+01
 Iteration Nr.  22
 **********************
 DD1Dir will call FoFMem   1 times, MxPair=       506
 NAB=   253 NAA=     0 NBB=     0.
 DE(Corr)= -0.82873331     E(CORR)=     -5581.1375061     Delta=-1.14D-08
 NORM(A)=   0.11579202D+01
 Iteration Nr.  23
 **********************
 DD1Dir will call FoFMem   1 times, MxPair=       506
 NAB=   253 NAA=     0 NBB=     0.
 DE(Corr)= -0.82873331     E(CORR)=     -5581.1375061     Delta= 2.41D-09
 NORM(A)=   0.11579202D+01
 Iteration Nr.  24
 **********************
 DD1Dir will call FoFMem   1 times, MxPair=       506
 NAB=   253 NAA=     0 NBB=     0.
 DE(Corr)= -0.82873331     E(CORR)=     -5581.1375061     Delta= 1.89D-11
 NORM(A)=   0.11579202D+01
 Largest amplitude= 7.62D-02

 Z-AMPLITUDE ITERATIONS

 Iteration Nr.   1
 **********************
 DD1Dir will call FoFMem   1 times, MxPair=       506
 NAB=   253 NAA=     0 NBB=     0.
 DE(Z)  -0.79812499D+00          E(Z)=    -0.55811068977D+04
 NORM(A)=   0.11585095D+01
 Iteration Nr.   2
 **********************
 DD1Dir will call FoFMem   1 times, MxPair=       506
 NAB=   253 NAA=     0 NBB=     0.
 DE(Z)  -0.79812958D+00          E(Z)=    -0.55811069023D+04
 NORM(A)=   0.11587615D+01
 Iteration Nr.   3
 **********************
 DD1Dir will call FoFMem   1 times, MxPair=       506
 NAB=   253 NAA=     0 NBB=     0.
 DE(Z)  -0.79813062D+00          E(Z)=    -0.55811069034D+04
 NORM(A)=   0.11594662D+01
 Iteration Nr.   4
 **********************
 DD1Dir will call FoFMem   1 times, MxPair=       506
 NAB=   253 NAA=     0 NBB=     0.
 DE(Z)  -0.79813703D+00          E(Z)=    -0.55811069098D+04
 NORM(A)=   0.11613788D+01
 Iteration Nr.   5
 **********************
 DD1Dir will call FoFMem   1 times, MxPair=       506
 NAB=   253 NAA=     0 NBB=     0.
 DE(Z)  -0.79815787D+00          E(Z)=    -0.55811069306D+04
 NORM(A)=   0.11446959D+01
 Iteration Nr.   6
 **********************
 DD1Dir will call FoFMem   1 times, MxPair=       506
 NAB=   253 NAA=     0 NBB=     0.
 DE(Z)  -0.79800272D+00          E(Z)=    -0.55811067755D+04
 NORM(A)=   0.11446962D+01
 Iteration Nr.   7
 **********************
 DD1Dir will call FoFMem   1 times, MxPair=       506
 NAB=   253 NAA=     0 NBB=     0.
 DE(Z)  -0.79800025D+00          E(Z)=    -0.55811067730D+04
 NORM(A)=   0.11446952D+01
 Iteration Nr.   8
 **********************
 DD1Dir will call FoFMem   1 times, MxPair=       506
 NAB=   253 NAA=     0 NBB=     0.
 DE(Z)  -0.79800100D+00          E(Z)=    -0.55811067737D+04
 NORM(A)=   0.11446950D+01
 Iteration Nr.   9
 **********************
 DD1Dir will call FoFMem   1 times, MxPair=       506
 NAB=   253 NAA=     0 NBB=     0.
 DE(Z)  -0.79800020D+00          E(Z)=    -0.55811067729D+04
 NORM(A)=   0.11446950D+01
 Iteration Nr.  10
 **********************
 DD1Dir will call FoFMem   1 times, MxPair=       506
 NAB=   253 NAA=     0 NBB=     0.
 DE(Z)  -0.79800011D+00          E(Z)=    -0.55811067728D+04
 NORM(A)=   0.11446952D+01
 Iteration Nr.  11
 **********************
 DD1Dir will call FoFMem   1 times, MxPair=       506
 NAB=   253 NAA=     0 NBB=     0.
 DE(Z)  -0.79800017D+00          E(Z)=    -0.55811067729D+04
 NORM(A)=   0.11446955D+01
 Iteration Nr.  12
 **********************
 DD1Dir will call FoFMem   1 times, MxPair=       506
 NAB=   253 NAA=     0 NBB=     0.
 DE(Z)  -0.79800015D+00          E(Z)=    -0.55811067729D+04
 NORM(A)=   0.11446956D+01
 Iteration Nr.  13
 **********************
 DD1Dir will call FoFMem   1 times, MxPair=       506
 NAB=   253 NAA=     0 NBB=     0.
 DE(Z)  -0.79800019D+00          E(Z)=    -0.55811067729D+04
 NORM(A)=   0.11446957D+01
 Iteration Nr.  14
 **********************
 DD1Dir will call FoFMem   1 times, MxPair=       506
 NAB=   253 NAA=     0 NBB=     0.
 DE(Z)  -0.79800018D+00          E(Z)=    -0.55811067729D+04
 NORM(A)=   0.11446956D+01
 Iteration Nr.  15
 **********************
 DD1Dir will call FoFMem   1 times, MxPair=       506
 NAB=   253 NAA=     0 NBB=     0.
 DE(Z)  -0.79800019D+00          E(Z)=    -0.55811067729D+04
 NORM(A)=   0.11446956D+01
 Iteration Nr.  16
 **********************
 DD1Dir will call FoFMem   1 times, MxPair=       506
 NAB=   253 NAA=     0 NBB=     0.
 DE(Z)  -0.79800019D+00          E(Z)=    -0.55811067729D+04
 NORM(A)=   0.11446956D+01
 Iteration Nr.  17
 **********************
 DD1Dir will call FoFMem   1 times, MxPair=       506
 NAB=   253 NAA=     0 NBB=     0.
 DE(Z)  -0.79800018D+00          E(Z)=    -0.55811067729D+04
 NORM(A)=   0.11446956D+01
 Discarding MO integrals.
          IDoAtm=1111
          Differentiating once with respect to electric field.
                with respect to dipole field.
          Differentiating once with respect to nuclear coordinates.
          Keep R1 ints in memory in canonical form, NReq=510060698.
          There are     1 degrees of freedom in the 1st order CPHF.  IDoFFX=0.
 LinEq1:  Iter=  0 NonCon=     1 RMS=1.78D-03 Max=6.56D-02
 AX will form     1 AO Fock derivatives at one time.
 LinEq1:  Iter=  1 NonCon=     1 RMS=8.39D-04 Max=1.78D-02
 LinEq1:  Iter=  2 NonCon=     1 RMS=3.80D-04 Max=1.46D-02
 LinEq1:  Iter=  3 NonCon=     1 RMS=1.24D-04 Max=4.30D-03
 LinEq1:  Iter=  4 NonCon=     1 RMS=4.81D-05 Max=9.12D-04
 LinEq1:  Iter=  5 NonCon=     1 RMS=9.50D-06 Max=1.74D-04
 LinEq1:  Iter=  6 NonCon=     1 RMS=3.23D-06 Max=7.65D-05
 LinEq1:  Iter=  7 NonCon=     1 RMS=7.01D-07 Max=2.08D-05
 LinEq1:  Iter=  8 NonCon=     1 RMS=1.35D-07 Max=3.90D-06
 LinEq1:  Iter=  9 NonCon=     1 RMS=3.31D-08 Max=1.06D-06
 LinEq1:  Iter= 10 NonCon=     1 RMS=9.32D-09 Max=2.03D-07
 LinEq1:  Iter= 11 NonCon=     1 RMS=1.93D-09 Max=4.61D-08
 LinEq1:  Iter= 12 NonCon=     1 RMS=3.69D-10 Max=8.92D-09
 LinEq1:  Iter= 13 NonCon=     1 RMS=8.54D-11 Max=1.46D-09
 LinEq1:  Iter= 14 NonCon=     0 RMS=2.16D-11 Max=4.37D-10
 Linear equations converged to 1.000D-10 1.000D-09 after    14 iterations.
 End of Minotr Frequency-dependent properties file   721 does not exist.
 End of Minotr Frequency-dependent properties file   722 does not exist.
 Calling FoFJK, ICntrl=      2127 FMM=F ISym2X=0 I1Cent= 0 IOpClX= 0 NMat=1 NMatS=1 NMatT=0.
 -------------------------------------------------------------------
 Center     Atomic                   Forces (Hartrees/Bohr)
 Number     Number              X              Y              Z
 -------------------------------------------------------------------
      1        6           0.000000000    0.000000000    0.000334236
      2       16           0.000000000    0.000000001    0.002793850
      3       35           0.000000000    0.001226538   -0.001564044
      4       35           0.000000000   -0.001226538   -0.001564043
 -------------------------------------------------------------------
 Cartesian Forces:  Max     0.002793850 RMS     0.001148135

 GradGradGradGradGradGradGradGradGradGradGradGradGradGradGradGradGradGrad
 Berny optimization.
 Using GEDIIS/GDIIS optimizer.
 Internal  Forces:  Max     0.004721317 RMS     0.002428827
 Search for a local minimum.
 Step number   2 out of a maximum of   20
 All quantities printed in internal units (Hartrees-Bohrs-Radians)
 Mixed Optimization -- RFO/linear search
 Update second derivatives using D2CorX and points    1    2
 DE= -4.82D-03 DEPred=-4.36D-03 R= 1.11D+00
 SS=  1.41D+00  RLast= 1.67D-01 DXNew= 5.0454D-01 5.0240D-01
 Trust test= 1.11D+00 RLast= 1.67D-01 DXMaxT set to 5.02D-01
 The second derivative matrix:
                          R1        R2        R3        A1        A2
           R1           0.57964
           R2          -0.00180   0.17841
           R3          -0.00180   0.00071   0.17841
           A1          -0.00598   0.00010   0.00010   0.24594
           A2          -0.00598   0.00010   0.00010  -0.00406   0.24594
           A3           0.01196  -0.00020  -0.00020   0.00813   0.00813
           D1           0.00000   0.00000   0.00000   0.00000   0.00000
                          A3        D1
           A3           0.23374
           D1           0.00000   0.00230
 ITU=  1  0
 Use linear search instead of GDIIS.
     Eigenvalues ---    0.00230   0.17771   0.17910   0.22501   0.25000
     Eigenvalues ---    0.58026
 RFO step:  Lambda=-1.94194883D-05 EMin= 2.30000000D-03
 Quartic linear search produced a step of  0.13210.
 Iteration  1 RMS(Cart)=  0.01639167 RMS(Int)=  0.00009685
 Iteration  2 RMS(Cart)=  0.00008845 RMS(Int)=  0.00000000
 Iteration  3 RMS(Cart)=  0.00000000 RMS(Int)=  0.00000000
 Variable       Old X    -DE/DX   Delta X   Delta X   Delta X     New X
                                 (Linear)    (Quad)   (Total)
    R1        3.02498   0.00279   0.00858  -0.00336   0.00521   3.03020
    R2        3.57495  -0.00016  -0.00455   0.00405  -0.00050   3.57445
    R3        3.57495  -0.00016  -0.00455   0.00405  -0.00050   3.57445
    A1        2.15420   0.00236   0.00790   0.00217   0.01007   2.16427
    A2        2.15420   0.00236   0.00790   0.00217   0.01007   2.16427
    A3        1.97478  -0.00472  -0.01580  -0.00433  -0.02013   1.95465
    D1        3.14159   0.00000   0.00000   0.00000   0.00000  -3.14159
         Item               Value     Threshold  Converged?
 Maximum Force            0.004721     0.000450     NO 
 RMS     Force            0.002429     0.000300     NO 
 Maximum Displacement     0.020390     0.001800     NO 
 RMS     Displacement     0.016415     0.001200     NO 
 Predicted change in Energy=-8.267934D-05
 GradGradGradGradGradGradGradGradGradGradGradGradGradGradGradGradGradGrad

                          Input orientation:                          
 ---------------------------------------------------------------------
 Center     Atomic      Atomic             Coordinates (Angstroms)
 Number     Number       Type             X           Y           Z
 ---------------------------------------------------------------------
      1          6           0        0.000000    0.000000   -0.520193
      2         16           0        0.000000    0.000000    1.083317
      3         35           0        0.000000   -1.568076   -1.578012
      4         35           0        0.000000    1.568076   -1.578012
 ---------------------------------------------------------------------
                    Distance matrix (angstroms):
                    1          2          3          4
     1  C    0.000000
     2  S    1.603510   0.000000
     3  Br   1.891519   3.088938   0.000000
     4  Br   1.891519   3.088938   3.136152   0.000000
 Symmetry turned off by external request.
 Stoichiometry    CBr2S
 Framework group  CS[SG(CS),X(Br2)]
 Deg. of freedom     4
 Full point group                 CS      NOp   2
 Rotational constants (GHZ):      2.6253809      1.3021924      0.8704487
 Standard basis: Aug-CC-pVTZ (5D, 7F)
 Integral buffers will be    131072 words long.
 Raffenetti 1 integral format.
 Two-electron integral symmetry is turned off.
   214 basis functions,   620 primitive gaussians,   252 cartesian basis functions
    46 alpha electrons       46 beta electrons
       nuclear repulsion energy       547.7527767426 Hartrees.
 NAtoms=    4 NActive=    4 NUniq=    4 SFac= 1.00D+00 NAtFMM=   50 NAOKFM=F Big=F
 One-electron integrals computed using PRISM.
 NBasis=   214 RedAO= T  NBF=   214
 NBsUse=   214 1.00D-06 NBFU=   214
 Initial guess read from the read-write file.
 B after Tr=     0.000000    0.000000    0.000000
         Rot=    1.000000    0.000000    0.000000    0.000000 Ang=   0.00 deg.
 Harris functional with IExCor=  205 diagonalized for initial guess.
 ExpMin= 3.51D-02 ExpMax= 1.06D+07 ExpMxC= 1.21D+04 IAcc=3 IRadAn=         0 AccDes= 0.00D+00
 HarFok:  IExCor=  205 AccDes= 0.00D+00 IRadAn=         0 IDoV= 1
 ScaDFX=  1.000000  1.000000  1.000000  1.000000
 FoFCou: FMM=F IPFlag=           0 FMFlag=      100000 FMFlg1=           0
         NFxFlg=           0 DoJE=T BraDBF=F KetDBF=T FulRan=T
         Omega=  0.000000  0.000000  1.000000  0.000000  0.000000 ICntrl=     500 IOpCl=  0
         NMat0=    1 NMatS0=    1 NMatT0=    0 NMatD0=    1 NMtDS0=    0 NMtDT0=    0
         I1Cent=           4 NGrid=           0.
 Symmetry not used in FoFCou.
 Requested convergence on RMS density matrix=1.00D-08 within 128 cycles.
 Requested convergence on MAX density matrix=1.00D-06.
 Requested convergence on             energy=1.00D-06.
 No special actions if energy rises.
 Keep R1 ints in memory in canonical form, NReq=516428601.
 SCF Done:  E(RHF) =  -5580.30868161     A.U. after   10 cycles
             Convg  =    0.9313D-08             -V/T =  2.0000
 ExpMin= 3.51D-02 ExpMax= 1.06D+07 ExpMxC= 1.21D+04 IAcc=3 IRadAn=         5 AccDes= 0.00D+00
 HarFok:  IExCor=  205 AccDes= 0.00D+00 IRadAn=         5 IDoV=-2
 ScaDFX=  1.000000  1.000000  1.000000  1.000000
 DSYEVD returned Info=          89 IAlg= 4 N=    59 NDim=    59 NE2=    18196455 trying DSYEV.
 DSYEVD returned Info=          89 IAlg= 4 N=    59 NDim=    59 NE2=    18196455 trying DSYEV.
 Range of M.O.s used for correlation:    25   214
 NBasis=   214 NAE=    46 NBE=    46 NFC=    24 NFV=     0
 NROrb=    190 NOA=    22 NOB=    22 NVA=   168 NVB=   168

 **** Warning!!: The largest alpha MO coefficient is  0.30776232D+02

 Semi-Direct transformation.
 ModeAB=           2 MOrb=            22 LenV=    1072457055
 LASXX=     69628944 LTotXX=    69628944 LenRXX=    69628944
 LTotAB=    70719517 MaxLAS=   133250040 LenRXY=   133250040
 NonZer=   139257888 LenScr=   209707008 LnRSAI=           0
 LnScr1=           0 LExtra=           0 Total=    412585992
 MaxDsk=          -1 SrtSym=           F ITran=            4
 JobTyp=0 Pass  1:  I=   1 to  22.
 (rs|ai) integrals will be sorted in core.
 Spin components of T(2) and E(2):
     alpha-alpha T2 =       0.4286944106D-01 E2=     -0.1154064588D+00
     alpha-beta  T2 =       0.2166165239D+00 E2=     -0.5792963668D+00
     beta-beta   T2 =       0.4286944106D-01 E2=     -0.1154064588D+00
 ANorm=    0.1141207872D+01
 E2 =    -0.8101092844D+00 EUMP2 =    -0.55811187908959D+04
 R2 and R3 integrals will be kept in memory, NReq=  1024335774.
 Iterations=  50 Convergence= 0.100D-07
 Iteration Nr.   1
 **********************
 DD1Dir will call FoFMem   1 times, MxPair=       506
 NAB=   253 NAA=     0 NBB=     0.
 MP4(R+Q)=  0.23469697D-01
 E3=       -0.12176382D-01        EUMP3=      -0.55811309673D+04
 E4(DQ)=   -0.50738675D-03        UMP4(DQ)=   -0.55811314747D+04
 E4(SDQ)=  -0.10178101D-01        UMP4(SDQ)=  -0.55811411454D+04
 DE(Corr)= -0.79881597     E(Corr)=     -5581.1074976    
 NORM(A)=   0.11409963D+01
 Iteration Nr.   2
 **********************
 DD1Dir will call FoFMem   1 times, MxPair=       506
 NAB=   253 NAA=     0 NBB=     0.
 DE(Corr)= -0.82757465     E(CORR)=     -5581.1362563     Delta=-2.88D-02
 NORM(A)=   0.11531786D+01
 Iteration Nr.   3
 **********************
 DD1Dir will call FoFMem   1 times, MxPair=       506
 NAB=   253 NAA=     0 NBB=     0.
 DE(Corr)= -0.82616962     E(CORR)=     -5581.1348512     Delta= 1.41D-03
 NORM(A)=   0.11560124D+01
 Iteration Nr.   4
 **********************
 DD1Dir will call FoFMem   1 times, MxPair=       506
 NAB=   253 NAA=     0 NBB=     0.
 DE(Corr)= -0.82851870     E(CORR)=     -5581.1372003     Delta=-2.35D-03
 NORM(A)=   0.11573180D+01
 Iteration Nr.   5
 **********************
 DD1Dir will call FoFMem   1 times, MxPair=       506
 NAB=   253 NAA=     0 NBB=     0.
 DE(Corr)= -0.82882752     E(CORR)=     -5581.1375091     Delta=-3.09D-04
 NORM(A)=   0.11579539D+01
 Iteration Nr.   6
 **********************
 DD1Dir will call FoFMem   1 times, MxPair=       506
 NAB=   253 NAA=     0 NBB=     0.
 DE(Corr)= -0.82889213     E(CORR)=     -5581.1375737     Delta=-6.46D-05
 NORM(A)=   0.11580336D+01
 Iteration Nr.   7
 **********************
 DD1Dir will call FoFMem   1 times, MxPair=       506
 NAB=   253 NAA=     0 NBB=     0.
 DE(Corr)= -0.82890390     E(CORR)=     -5581.1375855     Delta=-1.18D-05
 NORM(A)=   0.11580502D+01
 Iteration Nr.   8
 **********************
 DD1Dir will call FoFMem   1 times, MxPair=       506
 NAB=   253 NAA=     0 NBB=     0.
 DE(Corr)= -0.82890005     E(CORR)=     -5581.1375817     Delta= 3.85D-06
 NORM(A)=   0.11580585D+01
 Iteration Nr.   9
 **********************
 DD1Dir will call FoFMem   1 times, MxPair=       506
 NAB=   253 NAA=     0 NBB=     0.
 DE(Corr)= -0.82890171     E(CORR)=     -5581.1375833     Delta=-1.65D-06
 NORM(A)=   0.11580591D+01
 Iteration Nr.  10
 **********************
 DD1Dir will call FoFMem   1 times, MxPair=       506
 NAB=   253 NAA=     0 NBB=     0.
 DE(Corr)= -0.82890184     E(CORR)=     -5581.1375835     Delta=-1.36D-07
 NORM(A)=   0.11580628D+01
 Iteration Nr.  11
 **********************
 DD1Dir will call FoFMem   1 times, MxPair=       506
 NAB=   253 NAA=     0 NBB=     0.
 DE(Corr)= -0.82890340     E(CORR)=     -5581.1375850     Delta=-1.56D-06
 NORM(A)=   0.11580647D+01
 Iteration Nr.  12
 **********************
 DD1Dir will call FoFMem   1 times, MxPair=       506
 NAB=   253 NAA=     0 NBB=     0.
 DE(Corr)= -0.82890348     E(CORR)=     -5581.1375851     Delta=-8.23D-08
 NORM(A)=   0.11580663D+01
 Iteration Nr.  13
 **********************
 DD1Dir will call FoFMem   1 times, MxPair=       506
 NAB=   253 NAA=     0 NBB=     0.
 DE(Corr)= -0.82890411     E(CORR)=     -5581.1375857     Delta=-6.30D-07
 NORM(A)=   0.11580673D+01
 Iteration Nr.  14
 **********************
 DD1Dir will call FoFMem   1 times, MxPair=       506
 NAB=   253 NAA=     0 NBB=     0.
 DE(Corr)= -0.82890413     E(CORR)=     -5581.1375857     Delta=-1.17D-08
 NORM(A)=   0.11580677D+01
 Iteration Nr.  15
 **********************
 DD1Dir will call FoFMem   1 times, MxPair=       506
 NAB=   253 NAA=     0 NBB=     0.
 DE(Corr)= -0.82890424     E(CORR)=     -5581.1375859     Delta=-1.15D-07
 NORM(A)=   0.11580679D+01
 Iteration Nr.  16
 **********************
 DD1Dir will call FoFMem   1 times, MxPair=       506
 NAB=   253 NAA=     0 NBB=     0.
 DE(Corr)= -0.82890427     E(CORR)=     -5581.1375859     Delta=-2.82D-08
 NORM(A)=   0.11580680D+01
 Iteration Nr.  17
 **********************
 DD1Dir will call FoFMem   1 times, MxPair=       506
 NAB=   253 NAA=     0 NBB=     0.
 DE(Corr)= -0.82890426     E(CORR)=     -5581.1375859     Delta= 1.20D-08
 NORM(A)=   0.11580680D+01
 Iteration Nr.  18
 **********************
 DD1Dir will call FoFMem   1 times, MxPair=       506
 NAB=   253 NAA=     0 NBB=     0.
 DE(Corr)= -0.82890427     E(CORR)=     -5581.1375859     Delta=-1.65D-08
 NORM(A)=   0.11580680D+01
 Iteration Nr.  19
 **********************
 DD1Dir will call FoFMem   1 times, MxPair=       506
 NAB=   253 NAA=     0 NBB=     0.
 DE(Corr)= -0.82890443     E(CORR)=     -5581.1375860     Delta=-1.61D-07
 NORM(A)=   0.11580679D+01
 Iteration Nr.  20
 **********************
 DD1Dir will call FoFMem   1 times, MxPair=       506
 NAB=   253 NAA=     0 NBB=     0.
 DE(Corr)= -0.82890414     E(CORR)=     -5581.1375857     Delta= 2.98D-07
 NORM(A)=   0.11580680D+01
 Iteration Nr.  21
 **********************
 DD1Dir will call FoFMem   1 times, MxPair=       506
 NAB=   253 NAA=     0 NBB=     0.
 DE(Corr)= -0.82890427     E(CORR)=     -5581.1375859     Delta=-1.29D-07
 NORM(A)=   0.11580680D+01
 Iteration Nr.  22
 **********************
 DD1Dir will call FoFMem   1 times, MxPair=       506
 NAB=   253 NAA=     0 NBB=     0.
 DE(Corr)= -0.82890426     E(CORR)=     -5581.1375859     Delta= 5.89D-10
 NORM(A)=   0.11580680D+01
 Iteration Nr.  23
 **********************
 DD1Dir will call FoFMem   1 times, MxPair=       506
 NAB=   253 NAA=     0 NBB=     0.
 DE(Corr)= -0.82890427     E(CORR)=     -5581.1375859     Delta=-4.06D-09
 NORM(A)=   0.11580680D+01
 Iteration Nr.  24
 **********************
 DD1Dir will call FoFMem   1 times, MxPair=       506
 NAB=   253 NAA=     0 NBB=     0.
 DE(Corr)= -0.82890427     E(CORR)=     -5581.1375859     Delta= 5.54D-11
 NORM(A)=   0.11580680D+01
 Largest amplitude= 7.68D-02

 Z-AMPLITUDE ITERATIONS

 Iteration Nr.   1
 **********************
 DD1Dir will call FoFMem   1 times, MxPair=       506
 NAB=   253 NAA=     0 NBB=     0.
 DE(Z)  -0.79825394D+00          E(Z)=    -0.55811069355D+04
 NORM(A)=   0.11595132D+01
 Iteration Nr.   2
 **********************
 DD1Dir will call FoFMem   1 times, MxPair=       506
 NAB=   253 NAA=     0 NBB=     0.
 DE(Z)  -0.79826448D+00          E(Z)=    -0.55811069461D+04
 NORM(A)=   0.11604837D+01
 Iteration Nr.   3
 **********************
 DD1Dir will call FoFMem   1 times, MxPair=       506
 NAB=   253 NAA=     0 NBB=     0.
 DE(Z)  -0.79826919D+00          E(Z)=    -0.55811069508D+04
 NORM(A)=   0.11624435D+01
 Iteration Nr.   4
 **********************
 DD1Dir will call FoFMem   1 times, MxPair=       506
 NAB=   253 NAA=     0 NBB=     0.
 DE(Z)  -0.79828599D+00          E(Z)=    -0.55811069676D+04
 NORM(A)=   0.12486543D+01
 Iteration Nr.   5
 **********************
 DD1Dir will call FoFMem   1 times, MxPair=       506
 NAB=   253 NAA=     0 NBB=     0.
 DE(Z)  -0.79898859D+00          E(Z)=    -0.55811076702D+04
 NORM(A)=   0.11448130D+01
 Iteration Nr.   6
 **********************
 DD1Dir will call FoFMem   1 times, MxPair=       506
 NAB=   253 NAA=     0 NBB=     0.
 DE(Z)  -0.79813674D+00          E(Z)=    -0.55811068183D+04
 NORM(A)=   0.11448151D+01
 Iteration Nr.   7
 **********************
 DD1Dir will call FoFMem   1 times, MxPair=       506
 NAB=   253 NAA=     0 NBB=     0.
 DE(Z)  -0.79813367D+00          E(Z)=    -0.55811068153D+04
 NORM(A)=   0.11448136D+01
 Iteration Nr.   8
 **********************
 DD1Dir will call FoFMem   1 times, MxPair=       506
 NAB=   253 NAA=     0 NBB=     0.
 DE(Z)  -0.79813493D+00          E(Z)=    -0.55811068165D+04
 NORM(A)=   0.11448128D+01
 Iteration Nr.   9
 **********************
 DD1Dir will call FoFMem   1 times, MxPair=       506
 NAB=   253 NAA=     0 NBB=     0.
 DE(Z)  -0.79813421D+00          E(Z)=    -0.55811068158D+04
 NORM(A)=   0.11448125D+01
 Iteration Nr.  10
 **********************
 DD1Dir will call FoFMem   1 times, MxPair=       506
 NAB=   253 NAA=     0 NBB=     0.
 DE(Z)  -0.79813410D+00          E(Z)=    -0.55811068157D+04
 NORM(A)=   0.11448124D+01
 Iteration Nr.  11
 **********************
 DD1Dir will call FoFMem   1 times, MxPair=       506
 NAB=   253 NAA=     0 NBB=     0.
 DE(Z)  -0.79813413D+00          E(Z)=    -0.55811068157D+04
 NORM(A)=   0.11448126D+01
 Iteration Nr.  12
 **********************
 DD1Dir will call FoFMem   1 times, MxPair=       506
 NAB=   253 NAA=     0 NBB=     0.
 DE(Z)  -0.79813410D+00          E(Z)=    -0.55811068157D+04
 NORM(A)=   0.11448128D+01
 Iteration Nr.  13
 **********************
 DD1Dir will call FoFMem   1 times, MxPair=       506
 NAB=   253 NAA=     0 NBB=     0.
 DE(Z)  -0.79813414D+00          E(Z)=    -0.55811068158D+04
 NORM(A)=   0.11448128D+01
 Iteration Nr.  14
 **********************
 DD1Dir will call FoFMem   1 times, MxPair=       506
 NAB=   253 NAA=     0 NBB=     0.
 DE(Z)  -0.79813415D+00          E(Z)=    -0.55811068158D+04
 NORM(A)=   0.11448128D+01
 Iteration Nr.  15
 **********************
 DD1Dir will call FoFMem   1 times, MxPair=       506
 NAB=   253 NAA=     0 NBB=     0.
 DE(Z)  -0.79813414D+00          E(Z)=    -0.55811068158D+04
 NORM(A)=   0.11448129D+01
 Iteration Nr.  16
 **********************
 DD1Dir will call FoFMem   1 times, MxPair=       506
 NAB=   253 NAA=     0 NBB=     0.
 DE(Z)  -0.79813414D+00          E(Z)=    -0.55811068158D+04
 NORM(A)=   0.11448129D+01
 Iteration Nr.  17
 **********************
 DD1Dir will call FoFMem   1 times, MxPair=       506
 NAB=   253 NAA=     0 NBB=     0.
 DE(Z)  -0.79813414D+00          E(Z)=    -0.55811068158D+04
 NORM(A)=   0.11448129D+01
 Discarding MO integrals.
          IDoAtm=1111
          Differentiating once with respect to electric field.
                with respect to dipole field.
          Differentiating once with respect to nuclear coordinates.
          Keep R1 ints in memory in canonical form, NReq=510060698.
          There are     1 degrees of freedom in the 1st order CPHF.  IDoFFX=0.
 LinEq1:  Iter=  0 NonCon=     1 RMS=1.78D-03 Max=6.60D-02
 AX will form     1 AO Fock derivatives at one time.
 LinEq1:  Iter=  1 NonCon=     1 RMS=8.40D-04 Max=1.81D-02
 LinEq1:  Iter=  2 NonCon=     1 RMS=3.81D-04 Max=1.47D-02
 LinEq1:  Iter=  3 NonCon=     1 RMS=1.25D-04 Max=4.31D-03
 LinEq1:  Iter=  4 NonCon=     1 RMS=4.84D-05 Max=9.42D-04
 LinEq1:  Iter=  5 NonCon=     1 RMS=9.56D-06 Max=1.71D-04
 LinEq1:  Iter=  6 NonCon=     1 RMS=3.27D-06 Max=8.22D-05
 LinEq1:  Iter=  7 NonCon=     1 RMS=7.17D-07 Max=2.30D-05
 LinEq1:  Iter=  8 NonCon=     1 RMS=1.41D-07 Max=4.23D-06
 LinEq1:  Iter=  9 NonCon=     1 RMS=3.43D-08 Max=1.02D-06
 LinEq1:  Iter= 10 NonCon=     1 RMS=9.52D-09 Max=2.09D-07
 LinEq1:  Iter= 11 NonCon=     1 RMS=1.96D-09 Max=4.96D-08
 LinEq1:  Iter= 12 NonCon=     1 RMS=3.59D-10 Max=8.75D-09
 LinEq1:  Iter= 13 NonCon=     1 RMS=6.93D-11 Max=1.15D-09
 LinEq1:  Iter= 14 NonCon=     0 RMS=1.95D-11 Max=3.98D-10
 Linear equations converged to 1.000D-10 1.000D-09 after    14 iterations.
 End of Minotr Frequency-dependent properties file   721 does not exist.
 End of Minotr Frequency-dependent properties file   722 does not exist.
 Calling FoFJK, ICntrl=      2127 FMM=F ISym2X=0 I1Cent= 0 IOpClX= 0 NMat=1 NMatS=1 NMatT=0.
 -------------------------------------------------------------------
 Center     Atomic                   Forces (Hartrees/Bohr)
 Number     Number              X              Y              Z
 -------------------------------------------------------------------
      1        6          -0.000000003    0.000000000    0.000980237
      2       16           0.000000001   -0.000000001   -0.000464200
      3       35           0.000000001   -0.000273686   -0.000258018
      4       35           0.000000001    0.000273686   -0.000258019
 -------------------------------------------------------------------
 Cartesian Forces:  Max     0.000980237 RMS     0.000348724

 GradGradGradGradGradGradGradGradGradGradGradGradGradGradGradGradGradGrad
 Berny optimization.
 Using GEDIIS/GDIIS optimizer.
 Internal  Forces:  Max     0.000464200 RMS     0.000273225
 Search for a local minimum.
 Step number   3 out of a maximum of   20
 All quantities printed in internal units (Hartrees-Bohrs-Radians)
 Mixed Optimization -- En-DIIS/RFO-DIIS
 Update second derivatives using D2CorX and points    1    2    3
 DE= -7.98D-05 DEPred=-8.27D-05 R= 9.66D-01
 SS=  1.41D+00  RLast= 2.52D-02 DXNew= 8.4493D-01 7.5644D-02
 Trust test= 9.66D-01 RLast= 2.52D-02 DXMaxT set to 5.02D-01
 The second derivative matrix:
                          R1        R2        R3        A1        A2
           R1           0.60177
           R2          -0.01231   0.18066
           R3          -0.01231   0.00296   0.18066
           A1           0.00179  -0.00625  -0.00625   0.24596
           A2           0.00179  -0.00625  -0.00625  -0.00404   0.24596
           A3          -0.00358   0.01250   0.01250   0.00808   0.00809
           D1           0.00000   0.00000   0.00000   0.00000   0.00000
                          A3        D1
           A3           0.23383
           D1           0.00000   0.00230
 ITU=  1  1  0
 Use linear search instead of GDIIS.
     Eigenvalues ---    0.00230   0.17400   0.17771   0.23457   0.25000
     Eigenvalues ---    0.60257
 RFO step:  Lambda=-2.03003086D-06 EMin= 2.30000000D-03
 Quartic linear search produced a step of  0.01005.
 Iteration  1 RMS(Cart)=  0.00093179 RMS(Int)=  0.00000028
 Iteration  2 RMS(Cart)=  0.00000048 RMS(Int)=  0.00000000
 Variable       Old X    -DE/DX   Delta X   Delta X   Delta X     New X
                                 (Linear)    (Quad)   (Total)
    R1        3.03020  -0.00046   0.00005  -0.00075  -0.00070   3.02950
    R2        3.57445   0.00037  -0.00001   0.00207   0.00206   3.57652
    R3        3.57445   0.00037  -0.00001   0.00207   0.00206   3.57652
    A1        2.16427   0.00007   0.00010   0.00034   0.00044   2.16471
    A2        2.16427   0.00007   0.00010   0.00034   0.00044   2.16471
    A3        1.95465  -0.00014  -0.00020  -0.00068  -0.00088   1.95377
    D1       -3.14159   0.00000   0.00000   0.00000   0.00000   3.14159
         Item               Value     Threshold  Converged?
 Maximum Force            0.000464     0.000450     NO 
 RMS     Force            0.000273     0.000300     YES
 Maximum Displacement     0.001402     0.001800     YES
 RMS     Displacement     0.000932     0.001200     YES
 Predicted change in Energy=-1.023628D-06
 GradGradGradGradGradGradGradGradGradGradGradGradGradGradGradGradGradGrad

                          Input orientation:                          
 ---------------------------------------------------------------------
 Center     Atomic      Atomic             Coordinates (Angstroms)
 Number     Number       Type             X           Y           Z
 ---------------------------------------------------------------------
      1          6           0        0.000000    0.000000   -0.519451
      2         16           0        0.000000    0.000000    1.083692
      3         35           0        0.000000   -1.568516   -1.578570
      4         35           0        0.000000    1.568516   -1.578570
 ---------------------------------------------------------------------
                    Distance matrix (angstroms):
                    1          2          3          4
     1  C    0.000000
     2  S    1.603143   0.000000
     3  Br   1.892611   3.089965   0.000000
     4  Br   1.892611   3.089965   3.137033   0.000000
 Symmetry turned off by external request.
 Stoichiometry    CBr2S
 Framework group  CS[SG(CS),X(Br2)]
 Deg. of freedom     4
 Full point group                 CS      NOp   2
 Rotational constants (GHZ):      2.6233678      1.3014610      0.8699006
 Standard basis: Aug-CC-pVTZ (5D, 7F)
 Integral buffers will be    131072 words long.
 Raffenetti 1 integral format.
 Two-electron integral symmetry is turned off.
   214 basis functions,   620 primitive gaussians,   252 cartesian basis functions
    46 alpha electrons       46 beta electrons
       nuclear repulsion energy       547.5703816994 Hartrees.
 NAtoms=    4 NActive=    4 NUniq=    4 SFac= 1.00D+00 NAtFMM=   50 NAOKFM=F Big=F
 One-electron integrals computed using PRISM.
 NBasis=   214 RedAO= T  NBF=   214
 NBsUse=   214 1.00D-06 NBFU=   214
 Initial guess read from the read-write file.
 B after Tr=     0.000000    0.000000    0.000000
         Rot=    1.000000    0.000000    0.000000    0.000000 Ang=   0.00 deg.
 Requested convergence on RMS density matrix=1.00D-08 within 128 cycles.
 Requested convergence on MAX density matrix=1.00D-06.
 Requested convergence on             energy=1.00D-06.
 No special actions if energy rises.
 Keep R1 ints in memory in canonical form, NReq=516428601.
 DSYEVD returned Info=       34829 IAlg= 4 N=   214 NDim=   214 NE2=     2642179 trying DSYEV.
 SCF Done:  E(RHF) =  -5580.30868089     A.U. after    8 cycles
             Convg  =    0.9025D-08             -V/T =  2.0000
 ExpMin= 3.51D-02 ExpMax= 1.06D+07 ExpMxC= 1.21D+04 IAcc=3 IRadAn=         5 AccDes= 0.00D+00
 HarFok:  IExCor=  205 AccDes= 0.00D+00 IRadAn=         5 IDoV=-2
 ScaDFX=  1.000000  1.000000  1.000000  1.000000
 DSYEVD returned Info=          89 IAlg= 4 N=    59 NDim=    59 NE2=    18196455 trying DSYEV.
 DSYEVD returned Info=          89 IAlg= 4 N=    59 NDim=    59 NE2=    18196455 trying DSYEV.
 Range of M.O.s used for correlation:    25   214
 NBasis=   214 NAE=    46 NBE=    46 NFC=    24 NFV=     0
 NROrb=    190 NOA=    22 NOB=    22 NVA=   168 NVB=   168

 **** Warning!!: The largest alpha MO coefficient is  0.30763858D+02

 Semi-Direct transformation.
 ModeAB=           2 MOrb=            22 LenV=    1072457083
 LASXX=     69628944 LTotXX=    69628944 LenRXX=    69628944
 LTotAB=    70719517 MaxLAS=   133250040 LenRXY=   133250040
 NonZer=   139257888 LenScr=   209707008 LnRSAI=           0
 LnScr1=           0 LExtra=           0 Total=    412585992
 MaxDsk=          -1 SrtSym=           F ITran=            4
 JobTyp=0 Pass  1:  I=   1 to  22.
 (rs|ai) integrals will be sorted in core.
 Spin components of T(2) and E(2):
     alpha-alpha T2 =       0.4287457717D-01 E2=     -0.1154000854D+00
     alpha-beta  T2 =       0.2166580732D+00 E2=     -0.5793038966D+00
     beta-beta   T2 =       0.4287457717D-01 E2=     -0.1154000854D+00
 ANorm=    0.1141230576D+01
 E2 =    -0.8101040674D+00 EUMP2 =    -0.55811187849580D+04
 R2 and R3 integrals will be kept in memory, NReq=  1024335774.
 Iterations=  50 Convergence= 0.100D-07
 Iteration Nr.   1
 **********************
 DD1Dir will call FoFMem   1 times, MxPair=       506
 NAB=   253 NAA=     0 NBB=     0.
 MP4(R+Q)=  0.23474483D-01
 E3=       -0.12178140D-01        EUMP3=      -0.55811309631D+04
 E4(DQ)=   -0.51027257D-03        UMP4(DQ)=   -0.55811314734D+04
 E4(SDQ)=  -0.10185533D-01        UMP4(SDQ)=  -0.55811411486D+04
 DE(Corr)= -0.79880772     E(Corr)=     -5581.1074886    
 NORM(A)=   0.11410197D+01
 Iteration Nr.   2
 **********************
 DD1Dir will call FoFMem   1 times, MxPair=       506
 NAB=   253 NAA=     0 NBB=     0.
 DE(Corr)= -0.82757669     E(CORR)=     -5581.1362576     Delta=-2.88D-02
 NORM(A)=   0.11532076D+01
 Iteration Nr.   3
 **********************
 DD1Dir will call FoFMem   1 times, MxPair=       506
 NAB=   253 NAA=     0 NBB=     0.
 DE(Corr)= -0.82616898     E(CORR)=     -5581.1348499     Delta= 1.41D-03
 NORM(A)=   0.11560439D+01
 Iteration Nr.   4
 **********************
 DD1Dir will call FoFMem   1 times, MxPair=       506
 NAB=   253 NAA=     0 NBB=     0.
 DE(Corr)= -0.82852010     E(CORR)=     -5581.1372010     Delta=-2.35D-03
 NORM(A)=   0.11573508D+01
 Iteration Nr.   5
 **********************
 DD1Dir will call FoFMem   1 times, MxPair=       506
 NAB=   253 NAA=     0 NBB=     0.
 DE(Corr)= -0.82882925     E(CORR)=     -5581.1375101     Delta=-3.09D-04
 NORM(A)=   0.11579878D+01
 Iteration Nr.   6
 **********************
 DD1Dir will call FoFMem   1 times, MxPair=       506
 NAB=   253 NAA=     0 NBB=     0.
 DE(Corr)= -0.82889398     E(CORR)=     -5581.1375749     Delta=-6.47D-05
 NORM(A)=   0.11580678D+01
 Iteration Nr.   7
 **********************
 DD1Dir will call FoFMem   1 times, MxPair=       506
 NAB=   253 NAA=     0 NBB=     0.
 DE(Corr)= -0.82890580     E(CORR)=     -5581.1375867     Delta=-1.18D-05
 NORM(A)=   0.11580846D+01
 Iteration Nr.   8
 **********************
 DD1Dir will call FoFMem   1 times, MxPair=       506
 NAB=   253 NAA=     0 NBB=     0.
 DE(Corr)= -0.82890192     E(CORR)=     -5581.1375828     Delta= 3.88D-06
 NORM(A)=   0.11580930D+01
 Iteration Nr.   9
 **********************
 DD1Dir will call FoFMem   1 times, MxPair=       506
 NAB=   253 NAA=     0 NBB=     0.
 DE(Corr)= -0.82890361     E(CORR)=     -5581.1375845     Delta=-1.69D-06
 NORM(A)=   0.11580936D+01
 Iteration Nr.  10
 **********************
 DD1Dir will call FoFMem   1 times, MxPair=       506
 NAB=   253 NAA=     0 NBB=     0.
 DE(Corr)= -0.82890373     E(CORR)=     -5581.1375846     Delta=-1.16D-07
 NORM(A)=   0.11580974D+01
 Iteration Nr.  11
 **********************
 DD1Dir will call FoFMem   1 times, MxPair=       506
 NAB=   253 NAA=     0 NBB=     0.
 DE(Corr)= -0.82890531     E(CORR)=     -5581.1375862     Delta=-1.58D-06
 NORM(A)=   0.11580993D+01
 Iteration Nr.  12
 **********************
 DD1Dir will call FoFMem   1 times, MxPair=       506
 NAB=   253 NAA=     0 NBB=     0.
 DE(Corr)= -0.82890539     E(CORR)=     -5581.1375863     Delta=-7.82D-08
 NORM(A)=   0.11581009D+01
 Iteration Nr.  13
 **********************
 DD1Dir will call FoFMem   1 times, MxPair=       506
 NAB=   253 NAA=     0 NBB=     0.
 DE(Corr)= -0.82890602     E(CORR)=     -5581.1375869     Delta=-6.35D-07
 NORM(A)=   0.11581019D+01
 Iteration Nr.  14
 **********************
 DD1Dir will call FoFMem   1 times, MxPair=       506
 NAB=   253 NAA=     0 NBB=     0.
 DE(Corr)= -0.82890603     E(CORR)=     -5581.1375869     Delta=-1.19D-08
 NORM(A)=   0.11581023D+01
 Iteration Nr.  15
 **********************
 DD1Dir will call FoFMem   1 times, MxPair=       506
 NAB=   253 NAA=     0 NBB=     0.
 DE(Corr)= -0.82890615     E(CORR)=     -5581.1375870     Delta=-1.15D-07
 NORM(A)=   0.11581025D+01
 Iteration Nr.  16
 **********************
 DD1Dir will call FoFMem   1 times, MxPair=       506
 NAB=   253 NAA=     0 NBB=     0.
 DE(Corr)= -0.82890618     E(CORR)=     -5581.1375871     Delta=-2.90D-08
 NORM(A)=   0.11581026D+01
 Iteration Nr.  17
 **********************
 DD1Dir will call FoFMem   1 times, MxPair=       506
 NAB=   253 NAA=     0 NBB=     0.
 DE(Corr)= -0.82890617     E(CORR)=     -5581.1375871     Delta= 1.24D-08
 NORM(A)=   0.11581026D+01
 Iteration Nr.  18
 **********************
 DD1Dir will call FoFMem   1 times, MxPair=       506
 NAB=   253 NAA=     0 NBB=     0.
 DE(Corr)= -0.82890618     E(CORR)=     -5581.1375871     Delta=-1.70D-08
 NORM(A)=   0.11581026D+01
 Iteration Nr.  19
 **********************
 DD1Dir will call FoFMem   1 times, MxPair=       506
 NAB=   253 NAA=     0 NBB=     0.
 DE(Corr)= -0.82890616     E(CORR)=     -5581.1375870     Delta= 2.70D-08
 NORM(A)=   0.11581019D+01
 Iteration Nr.  20
 **********************
 DD1Dir will call FoFMem   1 times, MxPair=       506
 NAB=   253 NAA=     0 NBB=     0.
 DE(Corr)= -0.82890628     E(CORR)=     -5581.1375872     Delta=-1.28D-07
 NORM(A)=   0.11581026D+01
 Iteration Nr.  21
 **********************
 DD1Dir will call FoFMem   1 times, MxPair=       506
 NAB=   253 NAA=     0 NBB=     0.
 DE(Corr)= -0.82890618     E(CORR)=     -5581.1375871     Delta= 1.08D-07
 NORM(A)=   0.11581026D+01
 Iteration Nr.  22
 **********************
 DD1Dir will call FoFMem   1 times, MxPair=       506
 NAB=   253 NAA=     0 NBB=     0.
 DE(Corr)= -0.82890618     E(CORR)=     -5581.1375871     Delta= 5.76D-10
 NORM(A)=   0.11581026D+01
 Iteration Nr.  23
 **********************
 DD1Dir will call FoFMem   1 times, MxPair=       506
 NAB=   253 NAA=     0 NBB=     0.
 DE(Corr)= -0.82890618     E(CORR)=     -5581.1375871     Delta=-2.96D-09
 NORM(A)=   0.11581026D+01
 Iteration Nr.  24
 **********************
 DD1Dir will call FoFMem   1 times, MxPair=       506
 NAB=   253 NAA=     0 NBB=     0.
 DE(Corr)= -0.82890618     E(CORR)=     -5581.1375871     Delta=-1.82D-10
 NORM(A)=   0.11581026D+01
 Largest amplitude= 7.67D-02

 Z-AMPLITUDE ITERATIONS

 Iteration Nr.   1
 **********************
 DD1Dir will call FoFMem   1 times, MxPair=       506
 NAB=   253 NAA=     0 NBB=     0.
 DE(Z)  -0.79824666D+00          E(Z)=    -0.55811069276D+04
 NORM(A)=   0.11596342D+01
 Iteration Nr.   2
 **********************
 DD1Dir will call FoFMem   1 times, MxPair=       506
 NAB=   253 NAA=     0 NBB=     0.
 DE(Z)  -0.79825783D+00          E(Z)=    -0.55811069387D+04
 NORM(A)=   0.11595692D+01
 Iteration Nr.   3
 **********************
 DD1Dir will call FoFMem   1 times, MxPair=       506
 NAB=   253 NAA=     0 NBB=     0.
 DE(Z)  -0.79825592D+00          E(Z)=    -0.55811069368D+04
 NORM(A)=   0.11643851D+01
 Iteration Nr.   4
 **********************
 DD1Dir will call FoFMem   1 times, MxPair=       506
 NAB=   253 NAA=     0 NBB=     0.
 DE(Z)  -0.79829251D+00          E(Z)=    -0.55811069734D+04
 NORM(A)=   0.11698332D+01
 Iteration Nr.   5
 **********************
 DD1Dir will call FoFMem   1 times, MxPair=       506
 NAB=   253 NAA=     0 NBB=     0.
 DE(Z)  -0.79835225D+00          E(Z)=    -0.55811070331D+04
 NORM(A)=   0.11448420D+01
 Iteration Nr.   6
 **********************
 DD1Dir will call FoFMem   1 times, MxPair=       506
 NAB=   253 NAA=     0 NBB=     0.
 DE(Z)  -0.79812949D+00          E(Z)=    -0.55811068104D+04
 NORM(A)=   0.11448417D+01
 Iteration Nr.   7
 **********************
 DD1Dir will call FoFMem   1 times, MxPair=       506
 NAB=   253 NAA=     0 NBB=     0.
 DE(Z)  -0.79812680D+00          E(Z)=    -0.55811068077D+04
 NORM(A)=   0.11448411D+01
 Iteration Nr.   8
 **********************
 DD1Dir will call FoFMem   1 times, MxPair=       506
 NAB=   253 NAA=     0 NBB=     0.
 DE(Z)  -0.79812754D+00          E(Z)=    -0.55811068084D+04
 NORM(A)=   0.11448409D+01
 Iteration Nr.   9
 **********************
 DD1Dir will call FoFMem   1 times, MxPair=       506
 NAB=   253 NAA=     0 NBB=     0.
 DE(Z)  -0.79812684D+00          E(Z)=    -0.55811068077D+04
 NORM(A)=   0.11448411D+01
 Iteration Nr.  10
 **********************
 DD1Dir will call FoFMem   1 times, MxPair=       506
 NAB=   253 NAA=     0 NBB=     0.
 DE(Z)  -0.79812681D+00          E(Z)=    -0.55811068077D+04
 NORM(A)=   0.11448415D+01
 Iteration Nr.  11
 **********************
 DD1Dir will call FoFMem   1 times, MxPair=       506
 NAB=   253 NAA=     0 NBB=     0.
 DE(Z)  -0.79812688D+00          E(Z)=    -0.55811068078D+04
 NORM(A)=   0.11448417D+01
 Iteration Nr.  12
 **********************
 DD1Dir will call FoFMem   1 times, MxPair=       506
 NAB=   253 NAA=     0 NBB=     0.
 DE(Z)  -0.79812686D+00          E(Z)=    -0.55811068078D+04
 NORM(A)=   0.11448418D+01
 Iteration Nr.  13
 **********************
 DD1Dir will call FoFMem   1 times, MxPair=       506
 NAB=   253 NAA=     0 NBB=     0.
 DE(Z)  -0.79812690D+00          E(Z)=    -0.55811068078D+04
 NORM(A)=   0.11448418D+01
 Iteration Nr.  14
 **********************
 DD1Dir will call FoFMem   1 times, MxPair=       506
 NAB=   253 NAA=     0 NBB=     0.
 DE(Z)  -0.79812689D+00          E(Z)=    -0.55811068078D+04
 NORM(A)=   0.11448418D+01
 Iteration Nr.  15
 **********************
 DD1Dir will call FoFMem   1 times, MxPair=       506
 NAB=   253 NAA=     0 NBB=     0.
 DE(Z)  -0.79812690D+00          E(Z)=    -0.55811068078D+04
 NORM(A)=   0.11448418D+01
 Iteration Nr.  16
 **********************
 DD1Dir will call FoFMem   1 times, MxPair=       506
 NAB=   253 NAA=     0 NBB=     0.
 DE(Z)  -0.79812690D+00          E(Z)=    -0.55811068078D+04
 NORM(A)=   0.11448419D+01
 Discarding MO integrals.
          IDoAtm=1111
          Differentiating once with respect to electric field.
                with respect to dipole field.
          Differentiating once with respect to nuclear coordinates.
          Keep R1 ints in memory in canonical form, NReq=510060698.
          There are     1 degrees of freedom in the 1st order CPHF.  IDoFFX=0.
 LinEq1:  Iter=  0 NonCon=     1 RMS=1.78D-03 Max=6.60D-02
 AX will form     1 AO Fock derivatives at one time.
 LinEq1:  Iter=  1 NonCon=     1 RMS=8.41D-04 Max=1.81D-02
 LinEq1:  Iter=  2 NonCon=     1 RMS=3.81D-04 Max=1.47D-02
 LinEq1:  Iter=  3 NonCon=     1 RMS=1.25D-04 Max=4.33D-03
 LinEq1:  Iter=  4 NonCon=     1 RMS=4.84D-05 Max=9.28D-04
 LinEq1:  Iter=  5 NonCon=     1 RMS=9.56D-06 Max=1.72D-04
 LinEq1:  Iter=  6 NonCon=     1 RMS=3.25D-06 Max=7.85D-05
 LinEq1:  Iter=  7 NonCon=     1 RMS=7.08D-07 Max=2.20D-05
 LinEq1:  Iter=  8 NonCon=     1 RMS=1.38D-07 Max=4.12D-06
 LinEq1:  Iter=  9 NonCon=     1 RMS=3.37D-08 Max=1.03D-06
 LinEq1:  Iter= 10 NonCon=     1 RMS=9.42D-09 Max=2.07D-07
 LinEq1:  Iter= 11 NonCon=     1 RMS=1.96D-09 Max=4.93D-08
 LinEq1:  Iter= 12 NonCon=     1 RMS=3.59D-10 Max=8.73D-09
 LinEq1:  Iter= 13 NonCon=     1 RMS=6.90D-11 Max=1.14D-09
 LinEq1:  Iter= 14 NonCon=     0 RMS=1.94D-11 Max=3.99D-10
 Linear equations converged to 1.000D-10 1.000D-09 after    14 iterations.
 End of Minotr Frequency-dependent properties file   721 does not exist.
 End of Minotr Frequency-dependent properties file   722 does not exist.
 Calling FoFJK, ICntrl=      2127 FMM=F ISym2X=0 I1Cent= 0 IOpClX= 0 NMat=1 NMatS=1 NMatT=0.
 -------------------------------------------------------------------
 Center     Atomic                   Forces (Hartrees/Bohr)
 Number     Number              X              Y              Z
 -------------------------------------------------------------------
      1        6           0.000000090    0.000000000    0.000381421
      2       16          -0.000000036    0.000000000   -0.000348317
      3       35          -0.000000027    0.000022320   -0.000016552
      4       35          -0.000000027   -0.000022320   -0.000016552
 -------------------------------------------------------------------
 Cartesian Forces:  Max     0.000381421 RMS     0.000149541

 GradGradGradGradGradGradGradGradGradGradGradGradGradGradGradGradGradGrad
 Berny optimization.
 Using GEDIIS/GDIIS optimizer.
 Internal  Forces:  Max     0.000348317 RMS     0.000134882
 Search for a local minimum.
 Step number   4 out of a maximum of   20
 All quantities printed in internal units (Hartrees-Bohrs-Radians)
 Mixed Optimization -- En-DIIS/RFO-DIIS
 Swaping is turned off.
 Update second derivatives using D2CorX and points    1    2    3    4
 DE= -1.19D-06 DEPred=-1.02D-06 R= 1.16D+00
 SS=  1.41D+00  RLast= 3.19D-03 DXNew= 8.4493D-01 9.5657D-03
 Trust test= 1.16D+00 RLast= 3.19D-03 DXMaxT set to 5.02D-01
 The second derivative matrix:
                          R1        R2        R3        A1        A2
           R1           0.51859
           R2           0.04736   0.19504
           R3           0.04736   0.01733   0.19504
           A1           0.01860  -0.00953  -0.00953   0.24382
           A2           0.01860  -0.00953  -0.00953  -0.00618   0.24382
           A3          -0.03720   0.01906   0.01906   0.01237   0.01237
           D1           0.00000  -0.00002  -0.00002   0.00000   0.00000
                          A3        D1
           A3           0.22527
           D1           0.00001   0.00230
 ITU=  1  1  1  0
     Eigenvalues ---    0.00230   0.16171   0.17771   0.24506   0.25000
     Eigenvalues ---    0.53708
 En-DIIS/RFO-DIIS IScMMF=        0 using points:     4    3
 RFO step:  Lambda=-1.90371065D-07.
 DidBck=F Rises=F RFO-DIIS coefs:    1.16268   -0.16268
 Iteration  1 RMS(Cart)=  0.00030183 RMS(Int)=  0.00000005
 Iteration  2 RMS(Cart)=  0.00000006 RMS(Int)=  0.00000000
 Variable       Old X    -DE/DX   Delta X   Delta X   Delta X     New X
                                  (DIIS)     (GDIIS)  (Total)
    R1        3.02950  -0.00035  -0.00011  -0.00064  -0.00076   3.02875
    R2        3.57652  -0.00001   0.00034  -0.00015   0.00019   3.57670
    R3        3.57652  -0.00001   0.00034  -0.00015   0.00019   3.57670
    A1        2.16471   0.00003   0.00007   0.00016   0.00023   2.16494
    A2        2.16471   0.00003   0.00007   0.00016   0.00023   2.16494
    A3        1.95377  -0.00006  -0.00014  -0.00032  -0.00046   1.95331
    D1        3.14159   0.00000   0.00000   0.00005   0.00005  -3.14155
         Item               Value     Threshold  Converged?
 Maximum Force            0.000348     0.000450     YES
 RMS     Force            0.000135     0.000300     YES
 Maximum Displacement     0.000581     0.001800     YES
 RMS     Displacement     0.000302     0.001200     YES
 Predicted change in Energy=-1.512969D-07
 Optimization completed.
    -- Stationary point found.
                           ----------------------------
                           !   Optimized Parameters   !
                           ! (Angstroms and Degrees)  !
 --------------------------                            --------------------------
 ! Name  Definition              Value          Derivative Info.                !
 --------------------------------------------------------------------------------
 ! R1    R(1,2)                  1.6031         -DE/DX =   -0.0003              !
 ! R2    R(1,3)                  1.8926         -DE/DX =    0.0                 !
 ! R3    R(1,4)                  1.8926         -DE/DX =    0.0                 !
 ! A1    A(2,1,3)              124.0287         -DE/DX =    0.0                 !
 ! A2    A(2,1,4)              124.0287         -DE/DX =    0.0                 !
 ! A3    A(3,1,4)              111.9427         -DE/DX =   -0.0001              !
 ! D1    D(2,1,4,3)           -180.0001         -DE/DX =    0.0                 !
 --------------------------------------------------------------------------------
 GradGradGradGradGradGradGradGradGradGradGradGradGradGradGradGradGradGrad

                          Input orientation:                          
 ---------------------------------------------------------------------
 Center     Atomic      Atomic             Coordinates (Angstroms)
 Number     Number       Type             X           Y           Z
 ---------------------------------------------------------------------
      1          6           0        0.000000    0.000000   -0.519451
      2         16           0        0.000000    0.000000    1.083692
      3         35           0        0.000000   -1.568516   -1.578570
      4         35           0        0.000000    1.568516   -1.578570
 ---------------------------------------------------------------------
                    Distance matrix (angstroms):
                    1          2          3          4
     1  C    0.000000
     2  S    1.603143   0.000000
     3  Br   1.892611   3.089965   0.000000
     4  Br   1.892611   3.089965   3.137033   0.000000
 Symmetry turned off by external request.
 Stoichiometry    CBr2S
 Framework group  CS[SG(CS),X(Br2)]
 Deg. of freedom     4
 Full point group                 CS      NOp   2
 Rotational constants (GHZ):      2.6233678      1.3014610      0.8699006

 **********************************************************************

            Population analysis using the QCI/CC density.

 **********************************************************************

 Alpha  occ. eigenvalues -- -490.06361-490.06361 -91.98023 -65.20341 -65.20341
 Alpha  occ. eigenvalues --  -58.55875 -58.55875 -58.55724 -58.55724 -58.55705
 Alpha  occ. eigenvalues --  -58.55705 -11.43410  -9.87646  -9.87645  -8.98292
 Alpha  occ. eigenvalues --   -7.48840  -7.48839  -7.48111  -7.48111  -7.48033
 Alpha  occ. eigenvalues --   -7.48032  -6.66359  -6.66275  -6.66119  -3.23247
 Alpha  occ. eigenvalues --   -3.23246  -3.22887  -3.22886  -3.22779  -3.22778
 Alpha  occ. eigenvalues --   -3.21853  -3.21852  -3.21850  -3.21850  -1.16791
 Alpha  occ. eigenvalues --   -1.04150  -1.01489  -0.74033  -0.59711  -0.58346
 Alpha  occ. eigenvalues --   -0.54051  -0.46258  -0.44556  -0.42867  -0.39719
 Alpha  occ. eigenvalues --   -0.37182
 Alpha virt. eigenvalues --    0.01303   0.04662   0.05711   0.06063   0.08381
 Alpha virt. eigenvalues --    0.08954   0.09153   0.10092   0.11087   0.11455
 Alpha virt. eigenvalues --    0.12003   0.13414   0.14426   0.15451   0.15755
 Alpha virt. eigenvalues --    0.16993   0.18584   0.22151   0.23663   0.23996
 Alpha virt. eigenvalues --    0.24126   0.27594   0.29912   0.30870   0.33010
 Alpha virt. eigenvalues --    0.33985   0.34208   0.35552   0.35923   0.36811
 Alpha virt. eigenvalues --    0.37299   0.39635   0.40103   0.42869   0.43647
 Alpha virt. eigenvalues --    0.46295   0.48011   0.48123   0.48417   0.48703
 Alpha virt. eigenvalues --    0.48864   0.51277   0.57630   0.58766   0.59008
 Alpha virt. eigenvalues --    0.60619   0.65447   0.66494   0.68514   0.70397
 Alpha virt. eigenvalues --    0.71713   0.74664   0.75276   0.76073   0.76436
 Alpha virt. eigenvalues --    0.77051   0.78365   0.78555   0.78639   0.80018
 Alpha virt. eigenvalues --    0.81370   0.81383   0.84997   0.85976   0.88386
 Alpha virt. eigenvalues --    0.89085   0.89938   0.91616   0.93616   0.94866
 Alpha virt. eigenvalues --    0.95659   1.01175   1.01772   1.03322   1.03704
 Alpha virt. eigenvalues --    1.04534   1.04618   1.14649   1.15166   1.15944
 Alpha virt. eigenvalues --    1.17473   1.19018   1.19720   1.22387   1.26097
 Alpha virt. eigenvalues --    1.27754   1.32580   1.35128   1.38702   1.45439
 Alpha virt. eigenvalues --    1.46808   1.49471   1.51863   1.52408   1.53217
 Alpha virt. eigenvalues --    1.53838   1.54602   1.63536   1.71966   1.72289
 Alpha virt. eigenvalues --    1.74100   1.74375   1.91994   1.97966   2.07383
 Alpha virt. eigenvalues --    2.09699   2.13932   2.16444   2.17752   2.19236
 Alpha virt. eigenvalues --    2.21332   2.24507   2.27542   2.27549   2.28322
 Alpha virt. eigenvalues --    2.28577   2.29152   2.30005   2.32334   2.32563
 Alpha virt. eigenvalues --    2.32668   2.33765   2.34116   2.35498   2.36296
 Alpha virt. eigenvalues --    2.36695   2.37082   2.38023   2.39420   2.40894
 Alpha virt. eigenvalues --    2.41242   2.42634   2.43321   2.46320   2.46683
 Alpha virt. eigenvalues --    2.53172   2.53777   2.54968   2.56999   2.60180
 Alpha virt. eigenvalues --    2.62122   2.68701   2.70397   2.71727   2.89629
 Alpha virt. eigenvalues --    2.91449   2.93393   3.07464   3.30469   3.38513
 Alpha virt. eigenvalues --    3.58963   3.64618   3.65343   3.67028   3.76010
 Alpha virt. eigenvalues --    3.77306   3.83959   3.87193   3.90072   4.05598
 Alpha virt. eigenvalues --    4.06105   4.14011   4.15965   4.18914   5.06689
 Alpha virt. eigenvalues --    5.10146   6.43977   9.47724
          Condensed to atoms (all electrons):
              1          2          3          4
     1  C    6.376607  -0.031113  -0.092592  -0.092592
     2  S   -0.031113  16.452045  -0.188197  -0.188197
     3  Br  -0.092592  -0.188197  35.314821  -0.136456
     4  Br  -0.092592  -0.188197  -0.136456  35.314821
 Mulliken atomic charges:
              1
     1  C   -0.160309
     2  S   -0.044538
     3  Br   0.102424
     4  Br   0.102424
 Sum of Mulliken atomic charges =   0.00000
 Mulliken charges with hydrogens summed into heavy atoms:
              1
     1  C   -0.160309
     2  S   -0.044538
     3  Br   0.102424
     4  Br   0.102424
 Sum of Mulliken charges with hydrogens summed into heavy atoms =   0.00000
 Electronic spatial extent (au):  <R**2>=           1431.6389
 Charge=              0.0000 electrons
 Dipole moment (field-independent basis, Debye):
    X=              0.0000    Y=              0.0000    Z=             -0.4733  Tot=              0.4733
 Quadrupole moment (field-independent basis, Debye-Ang):
   XX=            -54.9569   YY=            -53.8191   ZZ=            -53.7720
   XY=              0.0000   XZ=              0.0000   YZ=              0.0000
 Traceless Quadrupole moment (field-independent basis, Debye-Ang):
   XX=             -0.7742   YY=              0.3636   ZZ=              0.4106
   XY=              0.0000   XZ=              0.0000   YZ=              0.0000
 Octapole moment (field-independent basis, Debye-Ang**2):
  XXX=              0.0000  YYY=              0.0000  ZZZ=            141.2594  XYY=              0.0000
  XXY=              0.0000  XXZ=             47.7784  XZZ=              0.0000  YZZ=              0.0000
  YYZ=             35.3447  XYZ=              0.0000
 Hexadecapole moment (field-independent basis, Debye-Ang**3):
 XXXX=            -67.2503 YYYY=           -572.3431 ZZZZ=           -700.4549 XXXY=              0.0000
 XXXZ=              0.0000 YYYX=              0.0000 YYYZ=              0.0000 ZZZX=              0.0000
 ZZZY=              0.0000 XXYY=           -113.5364 XXZZ=           -130.5001 YYZZ=           -194.9033
 XXYZ=              0.0000 YYXZ=              0.0000 ZZXY=              0.0000
 N-N= 5.475703816994D+02 E-N=-1.443633522688D+04  KE= 5.579845953644D+03
 1\1\GINC-TRAPISTA\FOpt\RQCISD-FC\Aug-CC-pVTZ\C1Br2S1\BRUNS\19-Nov-2021
 \0\\#opt qcisd/aug-cc-pvtz density=current nosym\\br2cs\\0,1\C,-0.0000
 004595,-0.0000000001,-0.5194509092\S,0.0000001827,-0.0000000015,1.0836
 916365\Br,0.0000001384,-1.5685164047,-1.5785703624\Br,0.0000001384,1.5
 685164063,-1.578570365\\Version=EM64L-G09RevB.01\HF=-5580.3086809\MP2=
 -5581.118785\MP3=-5581.1309631\MP4D=-5581.1549479\MP4DQ=-5581.1314734\
 MP4SDQ=-5581.1411486\QCISD=-5581.1375871\RMSD=9.025e-09\RMSF=1.495e-04
 \Dipole=0.0000002,0.,-0.1862168\Quadrupole=-0.5756306,0.2703316,0.3052
 99,0.,-0.0000003,0.\PG=CS [SG(C1S1),X(Br2)]\\@


 Discoveries are often made by not following instructions,
 by going off the main road, by trying the untried.
 -- Frank Tyger
 Job cpu time:  1 days  0 hours 46 minutes  7.8 seconds.
 File lengths (MBytes):  RWF=  25271 Int=      0 D2E=      0 Chk=      5 Scr=      1
 Normal termination of Gaussian 09 at Fri Nov 19 06:38:46 2021.
