 Entering Gaussian System, Link 0=/home/bruns/programas/chemistry/gaussian/g09/g09
 Input=./br2cs/br2cs-fv.com
 Output=./br2cs/br2cs-fv.log
 Initial command:
 /home/bruns/programas/chemistry/gaussian/g09/l1.exe /home/bruns/programas/chemistry/gaussian/work/Gau-58077.inp -scrdir=/home/bruns/programas/chemistry/gaussian/work/
 Entering Link 1 = /home/bruns/programas/chemistry/gaussian/g09/l1.exe PID=     58079.
  
 Copyright (c) 1988,1990,1992,1993,1995,1998,2003,2009,2010,
            Gaussian, Inc.  All Rights Reserved.
  
 This is part of the Gaussian(R) 09 program.  It is based on
 the Gaussian(R) 03 system (copyright 2003, Gaussian, Inc.),
 the Gaussian(R) 98 system (copyright 1998, Gaussian, Inc.),
 the Gaussian(R) 94 system (copyright 1995, Gaussian, Inc.),
 the Gaussian 92(TM) system (copyright 1992, Gaussian, Inc.),
 the Gaussian 90(TM) system (copyright 1990, Gaussian, Inc.),
 the Gaussian 88(TM) system (copyright 1988, Gaussian, Inc.),
 the Gaussian 86(TM) system (copyright 1986, Carnegie Mellon
 University), and the Gaussian 82(TM) system (copyright 1983,
 Carnegie Mellon University). Gaussian is a federally registered
 trademark of Gaussian, Inc.
  
 This software contains proprietary and confidential information,
 including trade secrets, belonging to Gaussian, Inc.
  
 This software is provided under written license and may be
 used, copied, transmitted, or stored only in accord with that
 written license.
  
 The following legend is applicable only to US Government
 contracts under FAR:
  
                    RESTRICTED RIGHTS LEGEND
  
 Use, reproduction and disclosure by the US Government is
 subject to restrictions as set forth in subparagraphs (a)
 and (c) of the Commercial Computer Software - Restricted
 Rights clause in FAR 52.227-19.
  
 Gaussian, Inc.
 340 Quinnipiac St., Bldg. 40, Wallingford CT 06492
  
  
 ---------------------------------------------------------------
 Warning -- This program may not be used in any manner that
 competes with the business of Gaussian, Inc. or will provide
 assistance to any competitor of Gaussian, Inc.  The licensee
 of this program is prohibited from giving any competitor of
 Gaussian, Inc. access to this program.  By using this program,
 the user acknowledges that Gaussian, Inc. is engaged in the
 business of creating and licensing software in the field of
 computational chemistry and represents and warrants to the
 licensee that it is not a competitor of Gaussian, Inc. and that
 it will not use this program in any manner prohibited above.
 ---------------------------------------------------------------
  

 Cite this work as:
 Gaussian 09, Revision B.01,
 M. J. Frisch, G. W. Trucks, H. B. Schlegel, G. E. Scuseria, 
 M. A. Robb, J. R. Cheeseman, G. Scalmani, V. Barone, B. Mennucci, 
 G. A. Petersson, H. Nakatsuji, M. Caricato, X. Li, H. P. Hratchian, 
 A. F. Izmaylov, J. Bloino, G. Zheng, J. L. Sonnenberg, M. Hada, 
 M. Ehara, K. Toyota, R. Fukuda, J. Hasegawa, M. Ishida, T. Nakajima, 
 Y. Honda, O. Kitao, H. Nakai, T. Vreven, J. A. Montgomery, Jr., 
 J. E. Peralta, F. Ogliaro, M. Bearpark, J. J. Heyd, E. Brothers, 
 K. N. Kudin, V. N. Staroverov, T. Keith, R. Kobayashi, J. Normand, 
 K. Raghavachari, A. Rendell, J. C. Burant, S. S. Iyengar, J. Tomasi, 
 M. Cossi, N. Rega, J. M. Millam, M. Klene, J. E. Knox, J. B. Cross, 
 V. Bakken, C. Adamo, J. Jaramillo, R. Gomperts, R. E. Stratmann, 
 O. Yazyev, A. J. Austin, R. Cammi, C. Pomelli, J. W. Ochterski, 
 R. L. Martin, K. Morokuma, V. G. Zakrzewski, G. A. Voth, 
 P. Salvador, J. J. Dannenberg, S. Dapprich, A. D. Daniels, 
 O. Farkas, J. B. Foresman, J. V. Ortiz, J. Cioslowski, 
 and D. J. Fox, Gaussian, Inc., Wallingford CT, 2010.
 
 ******************************************
 Gaussian 09:  EM64L-G09RevB.01 12-Aug-2010
                19-Nov-2021 
 ******************************************
 %nproc=8
 Will use up to    8 processors via shared memory.
 %mem=8GB
 ----------------------------------------------------------------------
 #freq=noraman qcisd/aug-cc-pvtz density=current iop(7/33=1) nosym form
 check=forcecart
 ----------------------------------------------------------------------
 1/10=4,30=1,38=11/1,3,6;
 2/12=2,15=1,17=6,18=5,40=1/2;
 3/5=16,6=1,7=10,11=9,16=1,25=1,30=1,71=1/1,2,3;
 4/69=2/1;
 5/5=2,38=5,98=1/2;
 8/6=4,9=120000,10=1/1,4;
 9/5=8,15=1/13;
 11/28=-7,29=200,31=1,42=3/11;
 10/5=6,31=1/2;
 6/7=2,8=2,9=2,10=2,22=-1/1;
 7/12=7,30=1,33=1/1,2,3,16;
 1/38=10/6(3);
 7/8=1,25=1,30=1,33=1,44=-1/16;
 1/10=4,30=1,38=10/3;
 99//99;
 3/5=16,6=1,7=10,11=9,16=1,25=1,30=1,71=1/1,2,3;
 4/5=5,16=3,69=2/1;
 5/5=2,38=5,98=1/2;
 8/6=4,9=120000,10=1/1,4;
 9/5=8,15=1/13;
 11/28=-7,29=200,31=1,42=3/11;
 10/5=6,31=1/2;
 6/7=2,8=2,9=2,10=2,22=-1/1;
 7/7=1,12=7,30=1,33=1/1,2,3,16;
 1/38=10/6(-9);
 7/8=1,25=1,30=1,33=1,44=-1/16;
 1/10=4,30=1,38=10/3;
 99//99;
 -----------------
 br2cs-frequencies
 -----------------
 Symbolic Z-matrix:
 Charge =  0 Multiplicity = 1
 C                     0.        0.       -0.51945 
 S                     0.        0.        1.08369 
 Br                    0.       -1.56852  -1.57857 
 Br                    0.        1.56852  -1.57857 
 

 GradGradGradGradGradGradGradGradGradGradGradGradGradGradGradGradGradGrad
 Berny optimization.
 Initialization pass.
 Trust Radius=3.00D-01 FncErr=1.00D-07 GrdErr=1.00D-07
 Number of steps in this run=      2 maximum allowed number of steps=      2.
 GradGradGradGradGradGradGradGradGradGradGradGradGradGradGradGradGradGrad

 NDeriv=  12 NFrqRd=  0 LFDDif=       1
 Numerical evaluation of force-constants.
 Nuclear step= 0.001000 Angstroms, electric field step= 0.000333 atomic units, NStep=1.
                          Input orientation:                          
 ---------------------------------------------------------------------
 Center     Atomic      Atomic             Coordinates (Angstroms)
 Number     Number       Type             X           Y           Z
 ---------------------------------------------------------------------
      1          6           0        0.000000    0.000000   -0.519451
      2         16           0        0.000000    0.000000    1.083692
      3         35           0        0.000000   -1.568516   -1.578570
      4         35           0        0.000000    1.568516   -1.578570
 ---------------------------------------------------------------------
                    Distance matrix (angstroms):
                    1          2          3          4
     1  C    0.000000
     2  S    1.603143   0.000000
     3  Br   1.892611   3.089965   0.000000
     4  Br   1.892611   3.089965   3.137032   0.000000
 Symmetry turned off by external request.
 Stoichiometry    CBr2S
 Framework group  C2V[C2(CS),SGV(Br2)]
 Deg. of freedom     3
 Full point group                 C2V     NOp   4
 Rotational constants (GHZ):      2.6233679      1.3014616      0.8699009
 Standard basis: Aug-CC-pVTZ (5D, 7F)
 Integral buffers will be    131072 words long.
 Raffenetti 1 integral format.
 Two-electron integral symmetry is turned off.
   214 basis functions,   620 primitive gaussians,   252 cartesian basis functions
    46 alpha electrons       46 beta electrons
       nuclear repulsion energy       547.5704755571 Hartrees.
 NAtoms=    4 NActive=    4 NUniq=    4 SFac= 1.00D+00 NAtFMM=   50 NAOKFM=F Big=F
 One-electron integrals computed using PRISM.
 NBasis=   214 RedAO= T  NBF=   214
 NBsUse=   214 1.00D-06 NBFU=   214
 Harris functional with IExCor=  205 diagonalized for initial guess.
 ExpMin= 3.51D-02 ExpMax= 1.06D+07 ExpMxC= 1.21D+04 IAcc=3 IRadAn=         0 AccDes= 0.00D+00
 HarFok:  IExCor=  205 AccDes= 0.00D+00 IRadAn=         0 IDoV= 1
 ScaDFX=  1.000000  1.000000  1.000000  1.000000
 FoFCou: FMM=F IPFlag=           0 FMFlag=      100000 FMFlg1=           0
         NFxFlg=           0 DoJE=T BraDBF=F KetDBF=T FulRan=T
         Omega=  0.000000  0.000000  1.000000  0.000000  0.000000 ICntrl=     500 IOpCl=  0
         NMat0=    1 NMatS0=    1 NMatT0=    0 NMatD0=    1 NMtDS0=    0 NMtDT0=    0
         I1Cent=           4 NGrid=           0.
 Symmetry not used in FoFCou.
 Requested convergence on RMS density matrix=1.00D-08 within 128 cycles.
 Requested convergence on MAX density matrix=1.00D-06.
 Requested convergence on             energy=1.00D-06.
 No special actions if energy rises.
 Keep R1 ints in memory in canonical form, NReq=516428601.
 SCF Done:  E(RHF) =  -5580.30868088     A.U. after   14 cycles
             Convg  =    0.3250D-08             -V/T =  2.0000
 ExpMin= 3.51D-02 ExpMax= 1.06D+07 ExpMxC= 1.21D+04 IAcc=3 IRadAn=         5 AccDes= 0.00D+00
 HarFok:  IExCor=  205 AccDes= 0.00D+00 IRadAn=         5 IDoV=-2
 ScaDFX=  1.000000  1.000000  1.000000  1.000000
 DSYEVD returned Info=          89 IAlg= 4 N=    59 NDim=    59 NE2=    18196455 trying DSYEV.
 Range of M.O.s used for correlation:    25   214
 NBasis=   214 NAE=    46 NBE=    46 NFC=    24 NFV=     0
 NROrb=    190 NOA=    22 NOB=    22 NVA=   168 NVB=   168

 **** Warning!!: The largest alpha MO coefficient is  0.30763865D+02

 Semi-Direct transformation.
 ModeAB=           2 MOrb=            22 LenV=    1072457083
 LASXX=     69628944 LTotXX=    69628944 LenRXX=    69628944
 LTotAB=    70719517 MaxLAS=   133250040 LenRXY=   133250040
 NonZer=   139257888 LenScr=   209707008 LnRSAI=           0
 LnScr1=           0 LExtra=           0 Total=    412585992
 MaxDsk=          -1 SrtSym=           F ITran=            4
 JobTyp=0 Pass  1:  I=   1 to  22.
 (rs|ai) integrals will be sorted in core.
 Spin components of T(2) and E(2):
     alpha-alpha T2 =       0.4287457263D-01 E2=     -0.1154000850D+00
     alpha-beta  T2 =       0.2166580647D+00 E2=     -0.5793039023D+00
     beta-beta   T2 =       0.4287457263D-01 E2=     -0.1154000850D+00
 ANorm=    0.1141230568D+01
 E2 =    -0.8101040723D+00 EUMP2 =    -0.55811187849536D+04
 R2 and R3 integrals will be kept in memory, NReq=  1024335774.
 Iterations=  50 Convergence= 0.100D-07
 Iteration Nr.   1
 **********************
 DD1Dir will call FoFMem   1 times, MxPair=       506
 NAB=   253 NAA=     0 NBB=     0.
 MP4(R+Q)=  0.23474482D-01
 E3=       -0.12178146D-01        EUMP3=      -0.55811309631D+04
 E4(DQ)=   -0.51027227D-03        UMP4(DQ)=   -0.55811314734D+04
 E4(SDQ)=  -0.10185526D-01        UMP4(SDQ)=  -0.55811411486D+04
 DE(Corr)= -0.79880774     E(Corr)=     -5581.1074886    
 NORM(A)=   0.11410197D+01
 Iteration Nr.   2
 **********************
 DD1Dir will call FoFMem   1 times, MxPair=       506
 NAB=   253 NAA=     0 NBB=     0.
 DE(Corr)= -0.82757669     E(CORR)=     -5581.1362576     Delta=-2.88D-02
 NORM(A)=   0.11532076D+01
 Iteration Nr.   3
 **********************
 DD1Dir will call FoFMem   1 times, MxPair=       506
 NAB=   253 NAA=     0 NBB=     0.
 DE(Corr)= -0.82616899     E(CORR)=     -5581.1348499     Delta= 1.41D-03
 NORM(A)=   0.11560439D+01
 Iteration Nr.   4
 **********************
 DD1Dir will call FoFMem   1 times, MxPair=       506
 NAB=   253 NAA=     0 NBB=     0.
 DE(Corr)= -0.82852010     E(CORR)=     -5581.1372010     Delta=-2.35D-03
 NORM(A)=   0.11573508D+01
 Iteration Nr.   5
 **********************
 DD1Dir will call FoFMem   1 times, MxPair=       506
 NAB=   253 NAA=     0 NBB=     0.
 DE(Corr)= -0.82882926     E(CORR)=     -5581.1375101     Delta=-3.09D-04
 NORM(A)=   0.11579878D+01
 Iteration Nr.   6
 **********************
 DD1Dir will call FoFMem   1 times, MxPair=       506
 NAB=   253 NAA=     0 NBB=     0.
 DE(Corr)= -0.82889398     E(CORR)=     -5581.1375749     Delta=-6.47D-05
 NORM(A)=   0.11580678D+01
 Iteration Nr.   7
 **********************
 DD1Dir will call FoFMem   1 times, MxPair=       506
 NAB=   253 NAA=     0 NBB=     0.
 DE(Corr)= -0.82890580     E(CORR)=     -5581.1375867     Delta=-1.18D-05
 NORM(A)=   0.11580846D+01
 Iteration Nr.   8
 **********************
 DD1Dir will call FoFMem   1 times, MxPair=       506
 NAB=   253 NAA=     0 NBB=     0.
 DE(Corr)= -0.82890192     E(CORR)=     -5581.1375828     Delta= 3.88D-06
 NORM(A)=   0.11580930D+01
 Iteration Nr.   9
 **********************
 DD1Dir will call FoFMem   1 times, MxPair=       506
 NAB=   253 NAA=     0 NBB=     0.
 DE(Corr)= -0.82890362     E(CORR)=     -5581.1375845     Delta=-1.69D-06
 NORM(A)=   0.11580936D+01
 Iteration Nr.  10
 **********************
 DD1Dir will call FoFMem   1 times, MxPair=       506
 NAB=   253 NAA=     0 NBB=     0.
 DE(Corr)= -0.82890373     E(CORR)=     -5581.1375846     Delta=-1.16D-07
 NORM(A)=   0.11580974D+01
 Iteration Nr.  11
 **********************
 DD1Dir will call FoFMem   1 times, MxPair=       506
 NAB=   253 NAA=     0 NBB=     0.
 DE(Corr)= -0.82890531     E(CORR)=     -5581.1375862     Delta=-1.58D-06
 NORM(A)=   0.11580993D+01
 Iteration Nr.  12
 **********************
 DD1Dir will call FoFMem   1 times, MxPair=       506
 NAB=   253 NAA=     0 NBB=     0.
 DE(Corr)= -0.82890539     E(CORR)=     -5581.1375863     Delta=-7.82D-08
 NORM(A)=   0.11581009D+01
 Iteration Nr.  13
 **********************
 DD1Dir will call FoFMem   1 times, MxPair=       506
 NAB=   253 NAA=     0 NBB=     0.
 DE(Corr)= -0.82890603     E(CORR)=     -5581.1375869     Delta=-6.35D-07
 NORM(A)=   0.11581019D+01
 Iteration Nr.  14
 **********************
 DD1Dir will call FoFMem   1 times, MxPair=       506
 NAB=   253 NAA=     0 NBB=     0.
 DE(Corr)= -0.82890604     E(CORR)=     -5581.1375869     Delta=-1.20D-08
 NORM(A)=   0.11581023D+01
 Iteration Nr.  15
 **********************
 DD1Dir will call FoFMem   1 times, MxPair=       506
 NAB=   253 NAA=     0 NBB=     0.
 DE(Corr)= -0.82890615     E(CORR)=     -5581.1375870     Delta=-1.15D-07
 NORM(A)=   0.11581025D+01
 Iteration Nr.  16
 **********************
 DD1Dir will call FoFMem   1 times, MxPair=       506
 NAB=   253 NAA=     0 NBB=     0.
 DE(Corr)= -0.82890618     E(CORR)=     -5581.1375871     Delta=-2.88D-08
 NORM(A)=   0.11581026D+01
 Iteration Nr.  17
 **********************
 DD1Dir will call FoFMem   1 times, MxPair=       506
 NAB=   253 NAA=     0 NBB=     0.
 DE(Corr)= -0.82890617     E(CORR)=     -5581.1375871     Delta= 1.24D-08
 NORM(A)=   0.11581026D+01
 Iteration Nr.  18
 **********************
 DD1Dir will call FoFMem   1 times, MxPair=       506
 NAB=   253 NAA=     0 NBB=     0.
 DE(Corr)= -0.82890619     E(CORR)=     -5581.1375871     Delta=-1.68D-08
 NORM(A)=   0.11581026D+01
 Iteration Nr.  19
 **********************
 DD1Dir will call FoFMem   1 times, MxPair=       506
 NAB=   253 NAA=     0 NBB=     0.
 DE(Corr)= -0.82890617     E(CORR)=     -5581.1375871     Delta= 1.74D-08
 NORM(A)=   0.11581026D+01
 Iteration Nr.  20
 **********************
 DD1Dir will call FoFMem   1 times, MxPair=       506
 NAB=   253 NAA=     0 NBB=     0.
 DE(Corr)= -0.82890618     E(CORR)=     -5581.1375871     Delta=-1.29D-08
 NORM(A)=   0.11581026D+01
 Iteration Nr.  21
 **********************
 DD1Dir will call FoFMem   1 times, MxPair=       506
 NAB=   253 NAA=     0 NBB=     0.
 DE(Corr)= -0.82890618     E(CORR)=     -5581.1375871     Delta= 1.93D-09
 NORM(A)=   0.11581026D+01
 Iteration Nr.  22
 **********************
 DD1Dir will call FoFMem   1 times, MxPair=       506
 NAB=   253 NAA=     0 NBB=     0.
 DE(Corr)= -0.82890618     E(CORR)=     -5581.1375871     Delta=-8.36D-10
 NORM(A)=   0.11581026D+01
 Iteration Nr.  23
 **********************
 DD1Dir will call FoFMem   1 times, MxPair=       506
 NAB=   253 NAA=     0 NBB=     0.
 DE(Corr)= -0.82890618     E(CORR)=     -5581.1375871     Delta=-8.98D-10
 NORM(A)=   0.11581026D+01
 Iteration Nr.  24
 **********************
 DD1Dir will call FoFMem   1 times, MxPair=       506
 NAB=   253 NAA=     0 NBB=     0.
 DE(Corr)= -0.82890618     E(CORR)=     -5581.1375871     Delta=-1.19D-10
 NORM(A)=   0.11581026D+01
 Largest amplitude= 7.67D-02

 Z-AMPLITUDE ITERATIONS

 Iteration Nr.   1
 **********************
 DD1Dir will call FoFMem   1 times, MxPair=       506
 NAB=   253 NAA=     0 NBB=     0.
 DE(Z)  -0.79824667D+00          E(Z)=    -0.55811069275D+04
 NORM(A)=   0.11583034D+01
 Iteration Nr.   2
 **********************
 DD1Dir will call FoFMem   1 times, MxPair=       506
 NAB=   253 NAA=     0 NBB=     0.
 DE(Z)  -0.79824813D+00          E(Z)=    -0.55811069290D+04
 NORM(A)=   0.11583719D+01
 Iteration Nr.   3
 **********************
 DD1Dir will call FoFMem   1 times, MxPair=       506
 NAB=   253 NAA=     0 NBB=     0.
 DE(Z)  -0.79824837D+00          E(Z)=    -0.55811069293D+04
 NORM(A)=   0.11586354D+01
 Iteration Nr.   4
 **********************
 DD1Dir will call FoFMem   1 times, MxPair=       506
 NAB=   253 NAA=     0 NBB=     0.
 DE(Z)  -0.79825059D+00          E(Z)=    -0.55811069315D+04
 NORM(A)=   0.11590363D+01
 Iteration Nr.   5
 **********************
 DD1Dir will call FoFMem   1 times, MxPair=       506
 NAB=   253 NAA=     0 NBB=     0.
 DE(Z)  -0.79825523D+00          E(Z)=    -0.55811069361D+04
 NORM(A)=   0.11448420D+01
 Iteration Nr.   6
 **********************
 DD1Dir will call FoFMem   1 times, MxPair=       506
 NAB=   253 NAA=     0 NBB=     0.
 DE(Z)  -0.79812950D+00          E(Z)=    -0.55811068104D+04
 NORM(A)=   0.11448420D+01
 Iteration Nr.   7
 **********************
 DD1Dir will call FoFMem   1 times, MxPair=       506
 NAB=   253 NAA=     0 NBB=     0.
 DE(Z)  -0.79812701D+00          E(Z)=    -0.55811068079D+04
 NORM(A)=   0.11448412D+01
 Iteration Nr.   8
 **********************
 DD1Dir will call FoFMem   1 times, MxPair=       506
 NAB=   253 NAA=     0 NBB=     0.
 DE(Z)  -0.79812769D+00          E(Z)=    -0.55811068086D+04
 NORM(A)=   0.11448410D+01
 Iteration Nr.   9
 **********************
 DD1Dir will call FoFMem   1 times, MxPair=       506
 NAB=   253 NAA=     0 NBB=     0.
 DE(Z)  -0.79812689D+00          E(Z)=    -0.55811068078D+04
 NORM(A)=   0.11448412D+01
 Iteration Nr.  10
 **********************
 DD1Dir will call FoFMem   1 times, MxPair=       506
 NAB=   253 NAA=     0 NBB=     0.
 DE(Z)  -0.79812681D+00          E(Z)=    -0.55811068077D+04
 NORM(A)=   0.11448414D+01
 Iteration Nr.  11
 **********************
 DD1Dir will call FoFMem   1 times, MxPair=       506
 NAB=   253 NAA=     0 NBB=     0.
 DE(Z)  -0.79812689D+00          E(Z)=    -0.55811068078D+04
 NORM(A)=   0.11448417D+01
 Iteration Nr.  12
 **********************
 DD1Dir will call FoFMem   1 times, MxPair=       506
 NAB=   253 NAA=     0 NBB=     0.
 DE(Z)  -0.79812687D+00          E(Z)=    -0.55811068078D+04
 NORM(A)=   0.11448418D+01
 Iteration Nr.  13
 **********************
 DD1Dir will call FoFMem   1 times, MxPair=       506
 NAB=   253 NAA=     0 NBB=     0.
 DE(Z)  -0.79812691D+00          E(Z)=    -0.55811068078D+04
 NORM(A)=   0.11448418D+01
 Iteration Nr.  14
 **********************
 DD1Dir will call FoFMem   1 times, MxPair=       506
 NAB=   253 NAA=     0 NBB=     0.
 DE(Z)  -0.79812690D+00          E(Z)=    -0.55811068078D+04
 NORM(A)=   0.11448418D+01
 Iteration Nr.  15
 **********************
 DD1Dir will call FoFMem   1 times, MxPair=       506
 NAB=   253 NAA=     0 NBB=     0.
 DE(Z)  -0.79812690D+00          E(Z)=    -0.55811068078D+04
 NORM(A)=   0.11448418D+01
 Iteration Nr.  16
 **********************
 DD1Dir will call FoFMem   1 times, MxPair=       506
 NAB=   253 NAA=     0 NBB=     0.
 DE(Z)  -0.79812690D+00          E(Z)=    -0.55811068078D+04
 NORM(A)=   0.11448418D+01
 Iteration Nr.  17
 **********************
 DD1Dir will call FoFMem   1 times, MxPair=       506
 NAB=   253 NAA=     0 NBB=     0.
 DE(Z)  -0.79812690D+00          E(Z)=    -0.55811068078D+04
 NORM(A)=   0.11448418D+01
 Discarding MO integrals.
          IDoAtm=1111
          Differentiating once with respect to electric field.
                with respect to dipole field.
          Differentiating once with respect to nuclear coordinates.
          Keep R1 ints in memory in canonical form, NReq=510060698.
          There are     1 degrees of freedom in the 1st order CPHF.  IDoFFX=0.
 LinEq1:  Iter=  0 NonCon=     1 RMS=1.78D-03 Max=6.60D-02
 AX will form     1 AO Fock derivatives at one time.
 LinEq1:  Iter=  1 NonCon=     1 RMS=8.41D-04 Max=1.81D-02
 LinEq1:  Iter=  2 NonCon=     1 RMS=3.81D-04 Max=1.47D-02
 LinEq1:  Iter=  3 NonCon=     1 RMS=1.25D-04 Max=4.33D-03
 LinEq1:  Iter=  4 NonCon=     1 RMS=4.84D-05 Max=9.28D-04
 LinEq1:  Iter=  5 NonCon=     1 RMS=9.56D-06 Max=1.72D-04
 LinEq1:  Iter=  6 NonCon=     1 RMS=3.25D-06 Max=7.85D-05
 LinEq1:  Iter=  7 NonCon=     1 RMS=7.08D-07 Max=2.20D-05
 LinEq1:  Iter=  8 NonCon=     1 RMS=1.38D-07 Max=4.12D-06
 LinEq1:  Iter=  9 NonCon=     1 RMS=3.37D-08 Max=1.03D-06
 LinEq1:  Iter= 10 NonCon=     1 RMS=9.42D-09 Max=2.07D-07
 LinEq1:  Iter= 11 NonCon=     1 RMS=1.96D-09 Max=4.93D-08
 LinEq1:  Iter= 12 NonCon=     1 RMS=3.59D-10 Max=8.73D-09
 LinEq1:  Iter= 13 NonCon=     1 RMS=6.90D-11 Max=1.14D-09
 LinEq1:  Iter= 14 NonCon=     0 RMS=1.94D-11 Max=3.99D-10
 Linear equations converged to 1.000D-10 1.000D-09 after    14 iterations.
 End of Minotr Frequency-dependent properties file   721 does not exist.
 End of Minotr Frequency-dependent properties file   722 does not exist.

 **********************************************************************

            Population analysis using the QCI/CC density.

 **********************************************************************

 Alpha  occ. eigenvalues -- -490.06361-490.06361 -91.98023 -65.20341 -65.20341
 Alpha  occ. eigenvalues --  -58.55875 -58.55875 -58.55724 -58.55724 -58.55705
 Alpha  occ. eigenvalues --  -58.55705 -11.43410  -9.87646  -9.87645  -8.98292
 Alpha  occ. eigenvalues --   -7.48840  -7.48839  -7.48111  -7.48111  -7.48033
 Alpha  occ. eigenvalues --   -7.48032  -6.66359  -6.66275  -6.66119  -3.23247
 Alpha  occ. eigenvalues --   -3.23246  -3.22887  -3.22886  -3.22779  -3.22778
 Alpha  occ. eigenvalues --   -3.21853  -3.21852  -3.21850  -3.21850  -1.16791
 Alpha  occ. eigenvalues --   -1.04150  -1.01489  -0.74033  -0.59711  -0.58346
 Alpha  occ. eigenvalues --   -0.54051  -0.46258  -0.44556  -0.42867  -0.39719
 Alpha  occ. eigenvalues --   -0.37182
 Alpha virt. eigenvalues --    0.01303   0.04662   0.05711   0.06063   0.08381
 Alpha virt. eigenvalues --    0.08954   0.09153   0.10092   0.11087   0.11455
 Alpha virt. eigenvalues --    0.12003   0.13414   0.14426   0.15451   0.15755
 Alpha virt. eigenvalues --    0.16993   0.18584   0.22151   0.23663   0.23996
 Alpha virt. eigenvalues --    0.24126   0.27594   0.29912   0.30870   0.33010
 Alpha virt. eigenvalues --    0.33985   0.34208   0.35552   0.35923   0.36811
 Alpha virt. eigenvalues --    0.37299   0.39635   0.40103   0.42869   0.43647
 Alpha virt. eigenvalues --    0.46295   0.48011   0.48123   0.48417   0.48703
 Alpha virt. eigenvalues --    0.48864   0.51277   0.57630   0.58766   0.59008
 Alpha virt. eigenvalues --    0.60619   0.65447   0.66494   0.68514   0.70397
 Alpha virt. eigenvalues --    0.71713   0.74664   0.75276   0.76073   0.76436
 Alpha virt. eigenvalues --    0.77051   0.78365   0.78555   0.78639   0.80018
 Alpha virt. eigenvalues --    0.81370   0.81383   0.84997   0.85976   0.88386
 Alpha virt. eigenvalues --    0.89085   0.89938   0.91616   0.93616   0.94866
 Alpha virt. eigenvalues --    0.95659   1.01175   1.01772   1.03322   1.03704
 Alpha virt. eigenvalues --    1.04534   1.04618   1.14649   1.15166   1.15944
 Alpha virt. eigenvalues --    1.17473   1.19018   1.19720   1.22387   1.26097
 Alpha virt. eigenvalues --    1.27754   1.32580   1.35128   1.38702   1.45439
 Alpha virt. eigenvalues --    1.46808   1.49471   1.51863   1.52408   1.53217
 Alpha virt. eigenvalues --    1.53838   1.54602   1.63536   1.71966   1.72289
 Alpha virt. eigenvalues --    1.74100   1.74375   1.91994   1.97966   2.07383
 Alpha virt. eigenvalues --    2.09699   2.13932   2.16444   2.17752   2.19236
 Alpha virt. eigenvalues --    2.21332   2.24507   2.27542   2.27549   2.28322
 Alpha virt. eigenvalues --    2.28577   2.29152   2.30005   2.32334   2.32563
 Alpha virt. eigenvalues --    2.32668   2.33765   2.34116   2.35498   2.36296
 Alpha virt. eigenvalues --    2.36695   2.37082   2.38023   2.39420   2.40894
 Alpha virt. eigenvalues --    2.41242   2.42634   2.43321   2.46320   2.46683
 Alpha virt. eigenvalues --    2.53172   2.53777   2.54968   2.56999   2.60180
 Alpha virt. eigenvalues --    2.62122   2.68701   2.70397   2.71727   2.89629
 Alpha virt. eigenvalues --    2.91449   2.93393   3.07464   3.30469   3.38513
 Alpha virt. eigenvalues --    3.58963   3.64618   3.65344   3.67028   3.76010
 Alpha virt. eigenvalues --    3.77306   3.83959   3.87193   3.90072   4.05598
 Alpha virt. eigenvalues --    4.06105   4.14011   4.15965   4.18914   5.06689
 Alpha virt. eigenvalues --    5.10146   6.43977   9.47724
          Condensed to atoms (all electrons):
              1          2          3          4
     1  C    6.376609  -0.031113  -0.092593  -0.092593
     2  S   -0.031113  16.452045  -0.188197  -0.188197
     3  Br  -0.092593  -0.188197  35.314822  -0.136456
     4  Br  -0.092593  -0.188197  -0.136456  35.314822
 Mulliken atomic charges:
              1
     1  C   -0.160310
     2  S   -0.044538
     3  Br   0.102424
     4  Br   0.102424
 Sum of Mulliken atomic charges =   0.00000
 Mulliken charges with hydrogens summed into heavy atoms:
              1
     1  C   -0.160310
     2  S   -0.044538
     3  Br   0.102424
     4  Br   0.102424
 Sum of Mulliken charges with hydrogens summed into heavy atoms =   0.00000
 Electronic spatial extent (au):  <R**2>=           1431.6383
 Charge=              0.0000 electrons
 Dipole moment (field-independent basis, Debye):
    X=              0.0000    Y=              0.0000    Z=             -0.4733  Tot=              0.4733
 Quadrupole moment (field-independent basis, Debye-Ang):
   XX=            -54.9569   YY=            -53.8191   ZZ=            -53.7720
   XY=              0.0000   XZ=              0.0000   YZ=              0.0000
 Traceless Quadrupole moment (field-independent basis, Debye-Ang):
   XX=             -0.7742   YY=              0.3636   ZZ=              0.4106
   XY=              0.0000   XZ=              0.0000   YZ=              0.0000
 Octapole moment (field-independent basis, Debye-Ang**2):
  XXX=              0.0000  YYY=              0.0000  ZZZ=            141.2593  XYY=              0.0000
  XXY=              0.0000  XXZ=             47.7784  XZZ=              0.0000  YZZ=              0.0000
  YYZ=             35.3447  XYZ=              0.0000
 Hexadecapole moment (field-independent basis, Debye-Ang**3):
 XXXX=            -67.2503 YYYY=           -572.3428 ZZZZ=           -700.4547 XXXY=              0.0000
 XXXZ=              0.0000 YYYX=              0.0000 YYYZ=              0.0000 ZZZX=              0.0000
 ZZZY=              0.0000 XXYY=           -113.5364 XXZZ=           -130.5001 YYZZ=           -194.9033
 XXYZ=              0.0000 YYXZ=              0.0000 ZZXY=              0.0000
 N-N= 5.475704755571D+02 E-N=-1.443633541051D+04  KE= 5.579845953265D+03
 Use density number 7.
 DipInt: DoE/N= T T RetVal/Mat= T F Init=T NMatP=  1 IDeriv=0 Min/MaxMlt=  1  1
 Entering OneElI...
 Multipole integrals L=1 to 1 MinM= 0 MaxM= 0.
 Requested accuracy = 0.1000D-12
 PrsmSu:  NPrtUS=   1 ThrOK=F IAlg=1 NPAlg=1 LenDen=           0.
 Prism:   IPart=     0 DynPar=F LinDyn=F Incr=          23.
 PRISM was handed  1073169888 working-precision words and  2320 shell-pairs
 IPart=  0 NShTot=        2320 NBatch=         118 AvBLen=        19.7
 PrSmSu:  NxtVal=             24.
 Entering OneElI...
 Calculate overlap and kinetic energy integrals
    NBasis = 252  MinDer = 1  MaxDer = 1
 Requested accuracy = 0.1000D-12
 PrsmSu:  NPrtUS=   8 ThrOK=T IAlg=1 NPAlg=1 LenDen=           0.
 Prism:   IPart=     0 DynPar=F LinDyn=F Incr=           2.
 PRISM was handed   133967363 working-precision words and  2346 shell-pairs
 PRISM was handed   133967363 working-precision words and  2346 shell-pairs
 PRISM was handed   133967363 working-precision words and  2346 shell-pairs
 PRISM was handed   133967363 working-precision words and  2346 shell-pairs
 PRISM was handed   133967363 working-precision words and  2346 shell-pairs
 PRISM was handed   133967363 working-precision words and  2346 shell-pairs
 PRISM was handed   133967363 working-precision words and  2346 shell-pairs
 PRISM was handed   133967363 working-precision words and  2346 shell-pairs
 IPart=  6 NShTot=         253 NBatch=          65 AvBLen=         3.9
 IPart=  5 NShTot=         260 NBatch=          68 AvBLen=         3.8
 IPart=  0 NShTot=         365 NBatch=         150 AvBLen=         2.4
 IPart=  1 NShTot=         351 NBatch=         137 AvBLen=         2.6
 IPart=  7 NShTot=         252 NBatch=          64 AvBLen=         3.9
 IPart=  4 NShTot=         261 NBatch=          69 AvBLen=         3.8
 IPart=  3 NShTot=         298 NBatch=          89 AvBLen=         3.3
 IPart=  2 NShTot=         306 NBatch=          97 AvBLen=         3.2
 PrSmSu:  NxtVal=             17.
 Entering OneElI...
 Calculate potential energy integrals
    NBasis = 252  MinDer = 1  MaxDer = 1
 Requested accuracy = 0.1000D-12
 PrsmSu:  NPrtUS=   8 ThrOK=T IAlg=1 NPAlg=1 LenDen=           0.
 Prism:   IPart=     0 DynPar=F LinDyn=F Incr=          11.
 PRISM was handed   134004468 working-precision words and  2273 shell-pairs
 PRISM was handed   134004468 working-precision words and  2273 shell-pairs
 PRISM was handed   134004468 working-precision words and  2273 shell-pairs
 PRISM was handed   134004468 working-precision words and  2273 shell-pairs
 PRISM was handed   134004468 working-precision words and  2273 shell-pairs
 PRISM was handed   134004468 working-precision words and  2273 shell-pairs
 PRISM was handed   134004468 working-precision words and  2273 shell-pairs
 PRISM was handed   134004468 working-precision words and  2273 shell-pairs
 IPart=  6 NShTot=        1008 NBatch=         252 AvBLen=         4.0
 IPart=  5 NShTot=        1064 NBatch=         266 AvBLen=         4.0
 IPart=  1 NShTot=        1276 NBatch=         319 AvBLen=         4.0
 IPart=  0 NShTot=        1328 NBatch=         332 AvBLen=         4.0
 IPart=  7 NShTot=        1000 NBatch=         250 AvBLen=         4.0
 IPart=  3 NShTot=        1164 NBatch=         291 AvBLen=         4.0
 IPart=  4 NShTot=        1068 NBatch=         267 AvBLen=         4.0
 IPart=  2 NShTot=        1184 NBatch=         296 AvBLen=         4.0
 PrSmSu:  NxtVal=             89.
 l701 out
 I=    0 X=   0.000000000000D+00 Y=   0.000000000000D+00 Z=  -1.862180320192D-01
 I=    1 X=   0.000000000000D+00 Y=   0.000000000000D+00 Z=   3.868373267961D+00
 I=    2 X=   0.000000000000D+00 Y=   0.000000000000D+00 Z=   4.515419490994D+01
 I=    3 X=   0.000000000000D+00 Y=  -5.904129853757D+01 Z=  -2.451128408932D+01
 I=    4 X=   0.000000000000D+00 Y=   5.904129853723D+01 Z=  -2.451128408858D+01
 ICntrl=      2127.
 Calling FoFJK, ICntrl=      2127 FMM=F ISym2X=0 I1Cent= 0 IOpClX= 0 NMat=1 NMatS=1 NMatT=0.
 FoFJK:  IHMeth= 1 ICntrl=  2127 DoSepK=F KAlg= 1 I1Cent= 0 FoldK=F
 FoFCou: FMM=F IPFlag=           0 FMFlag=      100000 FMFlg1=         800
         NFxFlg=           0 DoJE=F BraDBF=F KetDBF=F FulRan=T
         Omega=  0.000000  0.000000  1.000000  0.000000  0.000000 ICntrl=    2127 IOpCl=  0
         NMat0=    1 NMatS0=    1 NMatT0=    0 NMatD0=    1 NMtDS0=    0 NMtDT0=    0
         I1Cent=           0 NGrid=           0.
 Symmetry not used in FoFCou.
 FoFCou:  KetSym=F NOpSet=  1 NOpAb=1 NOp=  1.
 FoFCou:  CnvScl= 1.00D+00 Thresh= 1.00D-10
 PrismS was handed  1073262744 working-precision words and  2324 shell-pairs
 FoFCou: LinMIO=F DoNuc=F BraDBF=F KetDBF=F HaveP=T PDBF=F HaveZ=T HaveW=F
         NIJTC =      10 NIJTAt=       0 NIJTCD=       0 NIJTT =      10
         IJTBeg=       1 IJTEnd=      10 KLTBeg=       1 KLTEnd=      10
         IPTBeg=       1 IPTEnd=      10 IPTBCv=       1 IPTECv=      10
         IZTBeg=       1 IZTEnd=      10 IZTBCv=       1 IZTECv=      10
         IWTBeg=      11 IWTEnd=      10 IWTBCv=      11 IWTECv=      10
         INTBeg=       1 INTEnd=       0 IFTBCv=       1 IFTECv=      10
 NCel replicated for PrismC:     1
 CoulSu:  IncDef=  1024 NBBP=        2701650 NTPThr=   100 NPartT=    8 Incr=        1024 LDynOK=F.
 CoulSu:  NPrtUS=   8 ThrOK=T IAlg=1 NPAlg=1 LenDen=           0.
 Enter PrismC: JobTyp=21 DoJE=F Cont=F.
 PrismC:  IPart=     0 DynPar=T LinDyn=F Incr=        1024 UseFst=F UseS4=T.
 PrismC was handed   134010197 working-precision words and  2324 shell-pairs
 Enter PrismC: JobTyp=21 DoJE=F Cont=F.
 PrismC was handed   134010197 working-precision words and  2324 shell-pairs
 Enter PrismC: JobTyp=21 DoJE=F Cont=F.
 PrismC was handed   134010197 working-precision words and  2324 shell-pairs
 Enter PrismC: JobTyp=21 DoJE=F Cont=F.
 Enter PrismC: JobTyp=21 DoJE=F Cont=F.
 Enter PrismC: JobTyp=21 DoJE=F Cont=F.
 PrismC was handed   134010197 working-precision words and  2324 shell-pairs
 PrismC was handed   134010197 working-precision words and  2324 shell-pairs
 Enter PrismC: JobTyp=21 DoJE=F Cont=F.
 Enter PrismC: JobTyp=21 DoJE=F Cont=F.
 PrismC was handed   134010197 working-precision words and  2324 shell-pairs
 PrismC was handed   134010197 working-precision words and  2324 shell-pairs
 PrismC was handed   134010197 working-precision words and  2324 shell-pairs
 IPart=  4 NShTot=      267519 NShNF=      267519 NShFF=           0 NBatch=        1857 AvBLen=       144.1
 IPart=  1 NShTot=      309824 NShNF=      309824 NShFF=           0 NBatch=        2040 AvBLen=       151.9
 IPart=  2 NShTot=      364068 NShNF=      364068 NShFF=           0 NBatch=        2260 AvBLen=       161.1
 IPart=  0 NShTot=      246632 NShNF=      246632 NShFF=           0 NBatch=        2114 AvBLen=       116.7
 IPart=  3 NShTot=      279988 NShNF=      279988 NShFF=           0 NBatch=        2190 AvBLen=       127.8
 IPart=  5 NShTot=      365410 NShNF=      365410 NShFF=           0 NBatch=        2218 AvBLen=       164.7
 IPart=  6 NShTot=      262162 NShNF=      262162 NShFF=           0 NBatch=        1842 AvBLen=       142.3
 IPart=  7 NShTot=      315040 NShNF=      315040 NShFF=           0 NBatch=        1849 AvBLen=       170.4
 CoulSu:  NxtVal=        2786305.
 Forces at end of L703
 I=    0 X=   0.000000000000D+00 Y=   0.000000000000D+00 Z=  -1.862180320192D-01
 I=    1 X=   0.000000000000D+00 Y=   0.000000000000D+00 Z=  -3.818876991968D-04
 I=    2 X=   0.000000000000D+00 Y=   0.000000000000D+00 Z=   3.486409014997D-04
 I=    3 X=   0.000000000000D+00 Y=  -2.215313640619D-05 Z=   1.662339883524D-05
 I=    4 X=   0.000000000000D+00 Y=   2.215313759990D-05 Z=   1.662339821351D-05
 FrcOut:
 IF    =    58 IFX   =    70 IFXYZ =    82
 IFFX  =    94 IFFFX =    94 IFLen =    12
 IFFLen=     0 IFFFLn=     0 IEDerv=    94
 LEDerv=   629 IFroze=   727 ICStrt= 92800
 DipInt: DoE/N= T T RetVal/Mat= T F Init=T NMatP=  1 IDeriv=0 Min/MaxMlt=  1  1
 Entering OneElI...
 Multipole integrals L=1 to 1 MinM= 0 MaxM= 0.
 Requested accuracy = 0.1000D-12
 PrsmSu:  NPrtUS=   1 ThrOK=F IAlg=1 NPAlg=1 LenDen=           0.
 Prism:   IPart=     0 DynPar=F LinDyn=F Incr=          23.
 PRISM was handed  1073236500 working-precision words and  2320 shell-pairs
 IPart=  0 NShTot=        2320 NBatch=         118 AvBLen=        19.7
 PrSmSu:  NxtVal=             24.
 Computed dipole moment (without fudge factor):
 X=-0.1580264825080D-13   Y=-0.1108446667786D-11   Z=-0.1862180320192D+00
 Quadrupole    =-5.75629103D-01 2.70329594D-01 3.05299509D-01
                -1.36716427D-15 9.86719121D-14 1.57029945D-12
 -------------------------------------------------------------------
 Center     Atomic                   Forces (Hartrees/Bohr)
 Number     Number              X              Y              Z
 -------------------------------------------------------------------
      1        6           0.000000000    0.000000000    0.000381888
      2       16           0.000000000    0.000000000   -0.000348641
      3       35           0.000000000    0.000022153   -0.000016623
      4       35           0.000000000   -0.000022153   -0.000016623
 -------------------------------------------------------------------
 Cartesian Forces:  Max     0.000381888 RMS     0.000149701
 Z-matrix is all fixed cartesians, so copy forces.
 Final forces over variables, Energy=-5.58113759D+03:
  5.19070666D-12-7.26988490D-12 1.06103283D-12 1.01814541D-12
 -1.73765147D-12 2.20451520D-12 2.21531364D-05-2.21531376D-05
  3.81887699D-04-3.48640901D-04-1.66233988D-05-1.66233982D-05
 NDeriv=  12 NFrqRd=  0 LFDDif=       1
 NDeriv=  12 NFrqRd=  0 LFDDif=       1
 At 1st pt Frequency-dependent properties file   721 does not exist.
 D2Numr ... symmetry will not be used.
 Standard basis: Aug-CC-pVTZ (5D, 7F)
 Integral buffers will be    131072 words long.
 Raffenetti 1 integral format.
 Two-electron integral symmetry is turned off.
   214 basis functions,   620 primitive gaussians,   252 cartesian basis functions
    46 alpha electrons       46 beta electrons
       nuclear repulsion energy       547.5704530001 Hartrees.
 NAtoms=    4 NActive=    4 NUniq=    4 SFac= 1.00D+00 NAtFMM=   50 NAOKFM=F Big=F
 One-electron integrals computed using PRISM.
 NBasis=   214 RedAO= T  NBF=   214
 NBsUse=   214 1.00D-06 NBFU=   214
 Initial guess read from the read-write file.
 B after Tr=     0.000000    0.000000    0.000000
         Rot=    1.000000    0.000000    0.000000    0.000000 Ang=   0.00 deg.
 Requested convergence on RMS density matrix=1.00D-08 within 128 cycles.
 Requested convergence on MAX density matrix=1.00D-06.
 Requested convergence on             energy=1.00D-06.
 No special actions if energy rises.
 Keep R1 ints in memory in canonical form, NReq=516428601.
 SCF Done:  E(RHF) =  -5580.30868071     A.U. after    7 cycles
             Convg  =    0.7101D-08             -V/T =  2.0000
 ExpMin= 3.51D-02 ExpMax= 1.06D+07 ExpMxC= 1.21D+04 IAcc=3 IRadAn=         5 AccDes= 0.00D+00
 HarFok:  IExCor=  205 AccDes= 0.00D+00 IRadAn=         5 IDoV=-2
 ScaDFX=  1.000000  1.000000  1.000000  1.000000
 DSYEVD returned Info=          89 IAlg= 4 N=    59 NDim=    59 NE2=    18196455 trying DSYEV.
 Range of M.O.s used for correlation:    25   214
 NBasis=   214 NAE=    46 NBE=    46 NFC=    24 NFV=     0
 NROrb=    190 NOA=    22 NOB=    22 NVA=   168 NVB=   168

 **** Warning!!: The largest alpha MO coefficient is  0.30763874D+02

 Semi-Direct transformation.
 ModeAB=           2 MOrb=            22 LenV=    1072457083
 LASXX=     69628944 LTotXX=    69628944 LenRXX=    69628944
 LTotAB=    70719517 MaxLAS=   133250040 LenRXY=   133250040
 NonZer=   139257888 LenScr=   209707008 LnRSAI=           0
 LnScr1=           0 LExtra=           0 Total=    412585992
 MaxDsk=          -1 SrtSym=           F ITran=            4
 JobTyp=0 Pass  1:  I=   1 to  22.
 (rs|ai) integrals will be sorted in core.
 Spin components of T(2) and E(2):
     alpha-alpha T2 =       0.4287457699D-01 E2=     -0.1154000837D+00
     alpha-beta  T2 =       0.2166581056D+00 E2=     -0.5793039203D+00
     beta-beta   T2 =       0.4287457699D-01 E2=     -0.1154000837D+00
 ANorm=    0.1141230590D+01
 E2 =    -0.8101040878D+00 EUMP2 =    -0.55811187847957D+04
 R2 and R3 integrals will be kept in memory, NReq=  1024335774.
 Iterations=  50 Convergence= 0.100D-07
 Iteration Nr.   1
 **********************
 DD1Dir will call FoFMem   1 times, MxPair=       506
 NAB=   253 NAA=     0 NBB=     0.
 MP4(R+Q)=  0.23474488D-01
 E3=       -0.12178145D-01        EUMP3=      -0.55811309629D+04
 E4(DQ)=   -0.51027233D-03        UMP4(DQ)=   -0.55811314732D+04
 E4(SDQ)=  -0.10185529D-01        UMP4(SDQ)=  -0.55811411485D+04
 DE(Corr)= -0.79880774     E(Corr)=     -5581.1074885    
 NORM(A)=   0.11410198D+01
 Iteration Nr.   2
 **********************
 DD1Dir will call FoFMem   1 times, MxPair=       506
 NAB=   253 NAA=     0 NBB=     0.
 DE(Corr)= -0.82757671     E(CORR)=     -5581.1362574     Delta=-2.88D-02
 NORM(A)=   0.11532076D+01
 Iteration Nr.   3
 **********************
 DD1Dir will call FoFMem   1 times, MxPair=       506
 NAB=   253 NAA=     0 NBB=     0.
 DE(Corr)= -0.82616901     E(CORR)=     -5581.1348497     Delta= 1.41D-03
 NORM(A)=   0.11560439D+01
 Iteration Nr.   4
 **********************
 DD1Dir will call FoFMem   1 times, MxPair=       506
 NAB=   253 NAA=     0 NBB=     0.
 DE(Corr)= -0.82852012     E(CORR)=     -5581.1372008     Delta=-2.35D-03
 NORM(A)=   0.11573508D+01
 Iteration Nr.   5
 **********************
 DD1Dir will call FoFMem   1 times, MxPair=       506
 NAB=   253 NAA=     0 NBB=     0.
 DE(Corr)= -0.82882928     E(CORR)=     -5581.1375100     Delta=-3.09D-04
 NORM(A)=   0.11579878D+01
 Iteration Nr.   6
 **********************
 DD1Dir will call FoFMem   1 times, MxPair=       506
 NAB=   253 NAA=     0 NBB=     0.
 DE(Corr)= -0.82889400     E(CORR)=     -5581.1375747     Delta=-6.47D-05
 NORM(A)=   0.11580679D+01
 Iteration Nr.   7
 **********************
 DD1Dir will call FoFMem   1 times, MxPair=       506
 NAB=   253 NAA=     0 NBB=     0.
 DE(Corr)= -0.82890582     E(CORR)=     -5581.1375865     Delta=-1.18D-05
 NORM(A)=   0.11580846D+01
 Iteration Nr.   8
 **********************
 DD1Dir will call FoFMem   1 times, MxPair=       506
 NAB=   253 NAA=     0 NBB=     0.
 DE(Corr)= -0.82890194     E(CORR)=     -5581.1375826     Delta= 3.88D-06
 NORM(A)=   0.11580930D+01
 Iteration Nr.   9
 **********************
 DD1Dir will call FoFMem   1 times, MxPair=       506
 NAB=   253 NAA=     0 NBB=     0.
 DE(Corr)= -0.82890363     E(CORR)=     -5581.1375843     Delta=-1.69D-06
 NORM(A)=   0.11580936D+01
 Iteration Nr.  10
 **********************
 DD1Dir will call FoFMem   1 times, MxPair=       506
 NAB=   253 NAA=     0 NBB=     0.
 DE(Corr)= -0.82890375     E(CORR)=     -5581.1375845     Delta=-1.16D-07
 NORM(A)=   0.11580974D+01
 Iteration Nr.  11
 **********************
 DD1Dir will call FoFMem   1 times, MxPair=       506
 NAB=   253 NAA=     0 NBB=     0.
 DE(Corr)= -0.82890533     E(CORR)=     -5581.1375860     Delta=-1.58D-06
 NORM(A)=   0.11580994D+01
 Iteration Nr.  12
 **********************
 DD1Dir will call FoFMem   1 times, MxPair=       506
 NAB=   253 NAA=     0 NBB=     0.
 DE(Corr)= -0.82890541     E(CORR)=     -5581.1375861     Delta=-7.82D-08
 NORM(A)=   0.11581009D+01
 Iteration Nr.  13
 **********************
 DD1Dir will call FoFMem   1 times, MxPair=       506
 NAB=   253 NAA=     0 NBB=     0.
 DE(Corr)= -0.82890604     E(CORR)=     -5581.1375868     Delta=-6.35D-07
 NORM(A)=   0.11581019D+01
 Iteration Nr.  14
 **********************
 DD1Dir will call FoFMem   1 times, MxPair=       506
 NAB=   253 NAA=     0 NBB=     0.
 DE(Corr)= -0.82890606     E(CORR)=     -5581.1375868     Delta=-1.18D-08
 NORM(A)=   0.11581023D+01
 Iteration Nr.  15
 **********************
 DD1Dir will call FoFMem   1 times, MxPair=       506
 NAB=   253 NAA=     0 NBB=     0.
 DE(Corr)= -0.82890617     E(CORR)=     -5581.1375869     Delta=-1.16D-07
 NORM(A)=   0.11581025D+01
 Iteration Nr.  16
 **********************
 DD1Dir will call FoFMem   1 times, MxPair=       506
 NAB=   253 NAA=     0 NBB=     0.
 DE(Corr)= -0.82890620     E(CORR)=     -5581.1375869     Delta=-2.86D-08
 NORM(A)=   0.11581026D+01
 Iteration Nr.  17
 **********************
 DD1Dir will call FoFMem   1 times, MxPair=       506
 NAB=   253 NAA=     0 NBB=     0.
 DE(Corr)= -0.82890619     E(CORR)=     -5581.1375869     Delta= 1.25D-08
 NORM(A)=   0.11581026D+01
 Iteration Nr.  18
 **********************
 DD1Dir will call FoFMem   1 times, MxPair=       506
 NAB=   253 NAA=     0 NBB=     0.
 DE(Corr)= -0.82890620     E(CORR)=     -5581.1375869     Delta=-1.67D-08
 NORM(A)=   0.11581026D+01
 Iteration Nr.  19
 **********************
 DD1Dir will call FoFMem   1 times, MxPair=       506
 NAB=   253 NAA=     0 NBB=     0.
 DE(Corr)= -0.82890621     E(CORR)=     -5581.1375869     Delta=-1.22D-09
 NORM(A)=   0.11581027D+01
 Iteration Nr.  20
 **********************
 DD1Dir will call FoFMem   1 times, MxPair=       506
 NAB=   253 NAA=     0 NBB=     0.
 DE(Corr)= -0.82890621     E(CORR)=     -5581.1375869     Delta=-7.25D-09
 NORM(A)=   0.11581027D+01
 Iteration Nr.  21
 **********************
 DD1Dir will call FoFMem   1 times, MxPair=       506
 NAB=   253 NAA=     0 NBB=     0.
 DE(Corr)= -0.82890620     E(CORR)=     -5581.1375869     Delta= 1.61D-08
 NORM(A)=   0.11581027D+01
 Iteration Nr.  22
 **********************
 DD1Dir will call FoFMem   1 times, MxPair=       506
 NAB=   253 NAA=     0 NBB=     0.
 DE(Corr)= -0.82890622     E(CORR)=     -5581.1375869     Delta=-2.68D-08
 NORM(A)=   0.11581027D+01
 Iteration Nr.  23
 **********************
 DD1Dir will call FoFMem   1 times, MxPair=       506
 NAB=   253 NAA=     0 NBB=     0.
 DE(Corr)= -0.82890621     E(CORR)=     -5581.1375869     Delta= 1.55D-08
 NORM(A)=   0.11581027D+01
 Iteration Nr.  24
 **********************
 DD1Dir will call FoFMem   1 times, MxPair=       506
 NAB=   253 NAA=     0 NBB=     0.
 DE(Corr)= -0.82890621     E(CORR)=     -5581.1375869     Delta=-4.17D-09
 NORM(A)=   0.11581027D+01
 Iteration Nr.  25
 **********************
 DD1Dir will call FoFMem   1 times, MxPair=       506
 NAB=   253 NAA=     0 NBB=     0.
 DE(Corr)= -0.82890620     E(CORR)=     -5581.1375869     Delta= 7.84D-09
 NORM(A)=   0.11581027D+01
 Largest amplitude= 7.67D-02

 Z-AMPLITUDE ITERATIONS

 Iteration Nr.   1
 **********************
 DD1Dir will call FoFMem   1 times, MxPair=       506
 NAB=   253 NAA=     0 NBB=     0.
 DE(Z)  -0.79824667D+00          E(Z)=    -0.55811069274D+04
 NORM(A)=   0.11577310D+01
 Iteration Nr.   2
 **********************
 DD1Dir will call FoFMem   1 times, MxPair=       506
 NAB=   253 NAA=     0 NBB=     0.
 DE(Z)  -0.79824395D+00          E(Z)=    -0.55811069247D+04
 NORM(A)=   0.11566926D+01
 Iteration Nr.   3
 **********************
 DD1Dir will call FoFMem   1 times, MxPair=       506
 NAB=   253 NAA=     0 NBB=     0.
 DE(Z)  -0.79823772D+00          E(Z)=    -0.55811069184D+04
 NORM(A)=   0.11571881D+01
 Iteration Nr.   4
 **********************
 DD1Dir will call FoFMem   1 times, MxPair=       506
 NAB=   253 NAA=     0 NBB=     0.
 DE(Z)  -0.79823991D+00          E(Z)=    -0.55811069206D+04
 NORM(A)=   0.11556193D+01
 Iteration Nr.   5
 **********************
 DD1Dir will call FoFMem   1 times, MxPair=       506
 NAB=   253 NAA=     0 NBB=     0.
 DE(Z)  -0.79822376D+00          E(Z)=    -0.55811069045D+04
 NORM(A)=   0.11448420D+01
 Iteration Nr.   6
 **********************
 DD1Dir will call FoFMem   1 times, MxPair=       506
 NAB=   253 NAA=     0 NBB=     0.
 DE(Z)  -0.79812950D+00          E(Z)=    -0.55811068102D+04
 NORM(A)=   0.11448417D+01
 Iteration Nr.   7
 **********************
 DD1Dir will call FoFMem   1 times, MxPair=       506
 NAB=   253 NAA=     0 NBB=     0.
 DE(Z)  -0.79812640D+00          E(Z)=    -0.55811068071D+04
 NORM(A)=   0.11448407D+01
 Iteration Nr.   8
 **********************
 DD1Dir will call FoFMem   1 times, MxPair=       506
 NAB=   253 NAA=     0 NBB=     0.
 DE(Z)  -0.79812733D+00          E(Z)=    -0.55811068080D+04
 NORM(A)=   0.11448409D+01
 Iteration Nr.   9
 **********************
 DD1Dir will call FoFMem   1 times, MxPair=       506
 NAB=   253 NAA=     0 NBB=     0.
 DE(Z)  -0.79812686D+00          E(Z)=    -0.55811068076D+04
 NORM(A)=   0.11448411D+01
 Iteration Nr.  10
 **********************
 DD1Dir will call FoFMem   1 times, MxPair=       506
 NAB=   253 NAA=     0 NBB=     0.
 DE(Z)  -0.79812684D+00          E(Z)=    -0.55811068075D+04
 NORM(A)=   0.11448415D+01
 Iteration Nr.  11
 **********************
 DD1Dir will call FoFMem   1 times, MxPair=       506
 NAB=   253 NAA=     0 NBB=     0.
 DE(Z)  -0.79812690D+00          E(Z)=    -0.55811068076D+04
 NORM(A)=   0.11448418D+01
 Iteration Nr.  12
 **********************
 DD1Dir will call FoFMem   1 times, MxPair=       506
 NAB=   253 NAA=     0 NBB=     0.
 DE(Z)  -0.79812688D+00          E(Z)=    -0.55811068076D+04
 NORM(A)=   0.11448421D+01
 Iteration Nr.  13
 **********************
 DD1Dir will call FoFMem   1 times, MxPair=       506
 NAB=   253 NAA=     0 NBB=     0.
 DE(Z)  -0.79812700D+00          E(Z)=    -0.55811068077D+04
 NORM(A)=   0.11448418D+01
 Iteration Nr.  14
 **********************
 DD1Dir will call FoFMem   1 times, MxPair=       506
 NAB=   253 NAA=     0 NBB=     0.
 DE(Z)  -0.79812695D+00          E(Z)=    -0.55811068077D+04
 NORM(A)=   0.11448418D+01
 Iteration Nr.  15
 **********************
 DD1Dir will call FoFMem   1 times, MxPair=       506
 NAB=   253 NAA=     0 NBB=     0.
 DE(Z)  -0.79812689D+00          E(Z)=    -0.55811068076D+04
 NORM(A)=   0.11448411D+01
 Iteration Nr.  16
 **********************
 DD1Dir will call FoFMem   1 times, MxPair=       506
 NAB=   253 NAA=     0 NBB=     0.
 DE(Z)  -0.79812690D+00          E(Z)=    -0.55811068076D+04
 NORM(A)=   0.11448419D+01
 Iteration Nr.  17
 **********************
 DD1Dir will call FoFMem   1 times, MxPair=       506
 NAB=   253 NAA=     0 NBB=     0.
 DE(Z)  -0.79812691D+00          E(Z)=    -0.55811068076D+04
 NORM(A)=   0.11448418D+01
 Iteration Nr.  18
 **********************
 DD1Dir will call FoFMem   1 times, MxPair=       506
 NAB=   253 NAA=     0 NBB=     0.
 DE(Z)  -0.79812691D+00          E(Z)=    -0.55811068076D+04
 NORM(A)=   0.11448418D+01
 Iteration Nr.  19
 **********************
 DD1Dir will call FoFMem   1 times, MxPair=       506
 NAB=   253 NAA=     0 NBB=     0.
 DE(Z)  -0.79812691D+00          E(Z)=    -0.55811068076D+04
 NORM(A)=   0.11448418D+01
 Discarding MO integrals.
          IDoAtm=1111
          Differentiating once with respect to electric field.
                with respect to dipole field.
          Differentiating once with respect to nuclear coordinates.
          Keep R1 ints in memory in canonical form, NReq=510060698.
          There are     1 degrees of freedom in the 1st order CPHF.  IDoFFX=0.
 LinEq1:  Iter=  0 NonCon=     1 RMS=1.78D-03 Max=6.60D-02
 AX will form     1 AO Fock derivatives at one time.
 LinEq1:  Iter=  1 NonCon=     1 RMS=8.41D-04 Max=1.81D-02
 LinEq1:  Iter=  2 NonCon=     1 RMS=3.81D-04 Max=1.47D-02
 LinEq1:  Iter=  3 NonCon=     1 RMS=1.25D-04 Max=4.33D-03
 LinEq1:  Iter=  4 NonCon=     1 RMS=4.84D-05 Max=9.28D-04
 LinEq1:  Iter=  5 NonCon=     1 RMS=9.56D-06 Max=1.72D-04
 LinEq1:  Iter=  6 NonCon=     1 RMS=3.25D-06 Max=7.85D-05
 LinEq1:  Iter=  7 NonCon=     1 RMS=7.08D-07 Max=2.20D-05
 LinEq1:  Iter=  8 NonCon=     1 RMS=1.38D-07 Max=4.12D-06
 LinEq1:  Iter=  9 NonCon=     1 RMS=3.37D-08 Max=1.03D-06
 LinEq1:  Iter= 10 NonCon=     1 RMS=9.42D-09 Max=2.07D-07
 LinEq1:  Iter= 11 NonCon=     1 RMS=1.96D-09 Max=4.93D-08
 LinEq1:  Iter= 12 NonCon=     1 RMS=3.59D-10 Max=8.74D-09
 LinEq1:  Iter= 13 NonCon=     1 RMS=6.94D-11 Max=1.15D-09
 LinEq1:  Iter= 14 NonCon=     0 RMS=1.96D-11 Max=3.97D-10
 Linear equations converged to 1.000D-10 1.000D-09 after    14 iterations.
 End of Minotr Frequency-dependent properties file   721 does not exist.
 End of Minotr Frequency-dependent properties file   722 does not exist.

 **********************************************************************

            Population analysis using the QCI/CC density.

 **********************************************************************

 Alpha  occ. eigenvalues -- -490.06361-490.06361 -91.98023 -65.20341 -65.20341
 Alpha  occ. eigenvalues --  -58.55875 -58.55875 -58.55724 -58.55724 -58.55705
 Alpha  occ. eigenvalues --  -58.55705 -11.43410  -9.87646  -9.87645  -8.98292
 Alpha  occ. eigenvalues --   -7.48840  -7.48839  -7.48111  -7.48111  -7.48033
 Alpha  occ. eigenvalues --   -7.48032  -6.66359  -6.66275  -6.66119  -3.23247
 Alpha  occ. eigenvalues --   -3.23246  -3.22887  -3.22886  -3.22779  -3.22778
 Alpha  occ. eigenvalues --   -3.21853  -3.21852  -3.21850  -3.21850  -1.16791
 Alpha  occ. eigenvalues --   -1.04150  -1.01489  -0.74033  -0.59711  -0.58346
 Alpha  occ. eigenvalues --   -0.54051  -0.46258  -0.44556  -0.42867  -0.39719
 Alpha  occ. eigenvalues --   -0.37182
 Alpha virt. eigenvalues --    0.01303   0.04662   0.05711   0.06063   0.08381
 Alpha virt. eigenvalues --    0.08954   0.09153   0.10092   0.11087   0.11455
 Alpha virt. eigenvalues --    0.12003   0.13414   0.14426   0.15451   0.15755
 Alpha virt. eigenvalues --    0.16993   0.18584   0.22151   0.23662   0.23996
 Alpha virt. eigenvalues --    0.24126   0.27594   0.29912   0.30870   0.33010
 Alpha virt. eigenvalues --    0.33985   0.34208   0.35552   0.35923   0.36811
 Alpha virt. eigenvalues --    0.37299   0.39635   0.40103   0.42869   0.43647
 Alpha virt. eigenvalues --    0.46295   0.48010   0.48123   0.48416   0.48704
 Alpha virt. eigenvalues --    0.48864   0.51277   0.57630   0.58766   0.59008
 Alpha virt. eigenvalues --    0.60619   0.65447   0.66494   0.68514   0.70397
 Alpha virt. eigenvalues --    0.71713   0.74664   0.75276   0.76073   0.76436
 Alpha virt. eigenvalues --    0.77051   0.78363   0.78555   0.78641   0.80018
 Alpha virt. eigenvalues --    0.81370   0.81383   0.84997   0.85976   0.88386
 Alpha virt. eigenvalues --    0.89084   0.89938   0.91616   0.93616   0.94866
 Alpha virt. eigenvalues --    0.95659   1.01175   1.01772   1.03322   1.03704
 Alpha virt. eigenvalues --    1.04534   1.04618   1.14649   1.15166   1.15944
 Alpha virt. eigenvalues --    1.17473   1.19018   1.19720   1.22387   1.26098
 Alpha virt. eigenvalues --    1.27754   1.32580   1.35128   1.38702   1.45439
 Alpha virt. eigenvalues --    1.46808   1.49471   1.51863   1.52408   1.53217
 Alpha virt. eigenvalues --    1.53838   1.54602   1.63536   1.71966   1.72289
 Alpha virt. eigenvalues --    1.74100   1.74375   1.91994   1.97966   2.07383
 Alpha virt. eigenvalues --    2.09699   2.13932   2.16444   2.17752   2.19236
 Alpha virt. eigenvalues --    2.21332   2.24507   2.27542   2.27549   2.28322
 Alpha virt. eigenvalues --    2.28577   2.29152   2.30005   2.32334   2.32563
 Alpha virt. eigenvalues --    2.32668   2.33764   2.34116   2.35498   2.36296
 Alpha virt. eigenvalues --    2.36695   2.37082   2.38023   2.39421   2.40894
 Alpha virt. eigenvalues --    2.41242   2.42634   2.43321   2.46320   2.46683
 Alpha virt. eigenvalues --    2.53172   2.53777   2.54968   2.56999   2.60180
 Alpha virt. eigenvalues --    2.62122   2.68701   2.70397   2.71728   2.89629
 Alpha virt. eigenvalues --    2.91449   2.93393   3.07464   3.30469   3.38513
 Alpha virt. eigenvalues --    3.58963   3.64617   3.65344   3.67028   3.76010
 Alpha virt. eigenvalues --    3.77306   3.83959   3.87193   3.90072   4.05598
 Alpha virt. eigenvalues --    4.06105   4.14011   4.15965   4.18914   5.06689
 Alpha virt. eigenvalues --    5.10146   6.43977   9.47724
          Condensed to atoms (all electrons):
              1          2          3          4
     1  C    6.376606  -0.031112  -0.092592  -0.092592
     2  S   -0.031112  16.452041  -0.188196  -0.188196
     3  Br  -0.092592  -0.188196  35.314819  -0.136455
     4  Br  -0.092592  -0.188196  -0.136455  35.314819
 Mulliken atomic charges:
              1
     1  C   -0.160310
     2  S   -0.044538
     3  Br   0.102424
     4  Br   0.102424
 Sum of Mulliken atomic charges =   0.00000
 Mulliken charges with hydrogens summed into heavy atoms:
              1
     1  C   -0.160310
     2  S   -0.044538
     3  Br   0.102424
     4  Br   0.102424
 Sum of Mulliken charges with hydrogens summed into heavy atoms =   0.00000
 Electronic spatial extent (au):  <R**2>=           1431.6384
 Charge=              0.0000 electrons
 Dipole moment (field-independent basis, Debye):
    X=             -0.0008    Y=              0.0000    Z=             -0.4733  Tot=              0.4733
 Quadrupole moment (field-independent basis, Debye-Ang):
   XX=            -54.9569   YY=            -53.8191   ZZ=            -53.7720
   XY=              0.0000   XZ=              0.0006   YZ=              0.0000
 Traceless Quadrupole moment (field-independent basis, Debye-Ang):
   XX=             -0.7742   YY=              0.3636   ZZ=              0.4106
   XY=              0.0000   XZ=              0.0006   YZ=              0.0000
 Octapole moment (field-independent basis, Debye-Ang**2):
  XXX=             -0.0192  YYY=              0.0000  ZZZ=            141.2593  XYY=             -0.0149
  XXY=              0.0000  XXZ=             47.7784  XZZ=             -0.0145  YZZ=              0.0000
  YYZ=             35.3447  XYZ=              0.0000
 Hexadecapole moment (field-independent basis, Debye-Ang**3):
 XXXX=            -67.2503 YYYY=           -572.3429 ZZZZ=           -700.4548 XXXY=              0.0000
 XXXZ=              0.0085 YYYX=              0.0000 YYYZ=              0.0000 ZZZX=              0.0222
 ZZZY=              0.0000 XXYY=           -113.5364 XXZZ=           -130.5001 YYZZ=           -194.9033
 XXYZ=              0.0000 YYXZ=              0.0223 ZZXY=              0.0000
 N-N= 5.475704530001D+02 E-N=-1.443633536241D+04  KE= 5.579845952494D+03
 Use density number 7.
 DipInt: DoE/N= T T RetVal/Mat= T F Init=T NMatP=  1 IDeriv=0 Min/MaxMlt=  1  1
 Entering OneElI...
 Multipole integrals L=1 to 1 MinM= 0 MaxM= 0.
 Requested accuracy = 0.1000D-12
 PrsmSu:  NPrtUS=   1 ThrOK=F IAlg=1 NPAlg=1 LenDen=           0.
 Prism:   IPart=     0 DynPar=F LinDyn=F Incr=          23.
 PRISM was handed  1073169888 working-precision words and  2320 shell-pairs
 IPart=  0 NShTot=        2320 NBatch=         118 AvBLen=        19.7
 PrSmSu:  NxtVal=             24.
 Entering OneElI...
 Calculate overlap and kinetic energy integrals
    NBasis = 252  MinDer = 1  MaxDer = 1
 Requested accuracy = 0.1000D-12
 PrsmSu:  NPrtUS=   8 ThrOK=T IAlg=1 NPAlg=1 LenDen=           0.
 Prism:   IPart=     0 DynPar=F LinDyn=F Incr=           2.
 PRISM was handed   133967363 working-precision words and  2346 shell-pairs
 PRISM was handed   133967363 working-precision words and  2346 shell-pairs
 PRISM was handed   133967363 working-precision words and  2346 shell-pairs
 PRISM was handed   133967363 working-precision words and  2346 shell-pairs
 PRISM was handed   133967363 working-precision words and  2346 shell-pairs
 PRISM was handed   133967363 working-precision words and  2346 shell-pairs
 PRISM was handed   133967363 working-precision words and  2346 shell-pairs
 PRISM was handed   133967363 working-precision words and  2346 shell-pairs
 IPart=  6 NShTot=         253 NBatch=          65 AvBLen=         3.9
 IPart=  4 NShTot=         261 NBatch=          69 AvBLen=         3.8
 IPart=  0 NShTot=         365 NBatch=         150 AvBLen=         2.4
 IPart=  2 NShTot=         306 NBatch=          97 AvBLen=         3.2
 IPart=  3 NShTot=         298 NBatch=          89 AvBLen=         3.3
 IPart=  1 NShTot=         351 NBatch=         137 AvBLen=         2.6
 IPart=  7 NShTot=         252 NBatch=          64 AvBLen=         3.9
 IPart=  5 NShTot=         260 NBatch=          68 AvBLen=         3.8
 PrSmSu:  NxtVal=             17.
 Entering OneElI...
 Calculate potential energy integrals
    NBasis = 252  MinDer = 1  MaxDer = 1
 Requested accuracy = 0.1000D-12
 PrsmSu:  NPrtUS=   8 ThrOK=T IAlg=1 NPAlg=1 LenDen=           0.
 Prism:   IPart=     0 DynPar=F LinDyn=F Incr=          11.
 PRISM was handed   134004468 working-precision words and  2273 shell-pairs
 PRISM was handed   134004468 working-precision words and  2273 shell-pairs
 PRISM was handed   134004468 working-precision words and  2273 shell-pairs
 PRISM was handed   134004468 working-precision words and  2273 shell-pairs
 PRISM was handed   134004468 working-precision words and  2273 shell-pairs
 PRISM was handed   134004468 working-precision words and  2273 shell-pairs
 PRISM was handed   134004468 working-precision words and  2273 shell-pairs
 PRISM was handed   134004468 working-precision words and  2273 shell-pairs
 IPart=  2 NShTot=        1184 NBatch=         296 AvBLen=         4.0
 IPart=  1 NShTot=        1276 NBatch=         319 AvBLen=         4.0
 IPart=  6 NShTot=        1008 NBatch=         252 AvBLen=         4.0
 IPart=  4 NShTot=        1068 NBatch=         267 AvBLen=         4.0
 IPart=  3 NShTot=        1164 NBatch=         291 AvBLen=         4.0
 IPart=  0 NShTot=        1328 NBatch=         332 AvBLen=         4.0
 IPart=  7 NShTot=        1000 NBatch=         250 AvBLen=         4.0
 IPart=  5 NShTot=        1064 NBatch=         266 AvBLen=         4.0
 PrSmSu:  NxtVal=             89.
 l701 out
 I=    0 X=  -3.188197511909D-04 Y=   0.000000000000D+00 Z=  -1.862180580376D-01
 I=    1 X=   3.018472413343D-02 Y=   0.000000000000D+00 Z=   3.868370273111D+00
 I=    2 X=  -9.883986429219D-03 Y=   0.000000000000D+00 Z=   4.515420234587D+01
 I=    3 X=  -1.015036885480D-02 Y=  -5.904129290367D+01 Z=  -2.451128630876D+01
 I=    4 X=  -1.015036884942D-02 Y=   5.904129289691D+01 Z=  -2.451128631022D+01
 ICntrl=      2127.
 Calling FoFJK, ICntrl=      2127 FMM=F ISym2X=0 I1Cent= 0 IOpClX= 0 NMat=1 NMatS=1 NMatT=0.
 FoFJK:  IHMeth= 1 ICntrl=  2127 DoSepK=F KAlg= 1 I1Cent= 0 FoldK=F
 FoFCou: FMM=F IPFlag=           0 FMFlag=      100000 FMFlg1=         800
         NFxFlg=           0 DoJE=F BraDBF=F KetDBF=F FulRan=T
         Omega=  0.000000  0.000000  1.000000  0.000000  0.000000 ICntrl=    2127 IOpCl=  0
         NMat0=    1 NMatS0=    1 NMatT0=    0 NMatD0=    1 NMtDS0=    0 NMtDT0=    0
         I1Cent=           0 NGrid=           0.
 Symmetry not used in FoFCou.
 FoFCou:  KetSym=F NOpSet=  1 NOpAb=1 NOp=  1.
 FoFCou:  CnvScl= 1.00D+00 Thresh= 1.00D-10
 PrismS was handed  1073262744 working-precision words and  2324 shell-pairs
 FoFCou: LinMIO=F DoNuc=F BraDBF=F KetDBF=F HaveP=T PDBF=F HaveZ=T HaveW=F
         NIJTC =      10 NIJTAt=       0 NIJTCD=       0 NIJTT =      10
         IJTBeg=       1 IJTEnd=      10 KLTBeg=       1 KLTEnd=      10
         IPTBeg=       1 IPTEnd=      10 IPTBCv=       1 IPTECv=      10
         IZTBeg=       1 IZTEnd=      10 IZTBCv=       1 IZTECv=      10
         IWTBeg=      11 IWTEnd=      10 IWTBCv=      11 IWTECv=      10
         INTBeg=       1 INTEnd=       0 IFTBCv=       1 IFTECv=      10
 NCel replicated for PrismC:     1
 CoulSu:  IncDef=  1024 NBBP=        2701650 NTPThr=   100 NPartT=    8 Incr=        1024 LDynOK=F.
 CoulSu:  NPrtUS=   8 ThrOK=T IAlg=1 NPAlg=1 LenDen=           0.
 Enter PrismC: JobTyp=21 DoJE=F Cont=F.
 PrismC:  IPart=     0 DynPar=T LinDyn=F Incr=        1024 UseFst=F UseS4=T.
 PrismC was handed   134010197 working-precision words and  2324 shell-pairs
 Enter PrismC: JobTyp=21 DoJE=F Cont=F.
 PrismC was handed   134010197 working-precision words and  2324 shell-pairs
 Enter PrismC: JobTyp=21 DoJE=F Cont=F.
 Enter PrismC: JobTyp=21 DoJE=F Cont=F.
 PrismC was handed   134010197 working-precision words and  2324 shell-pairs
 PrismC was handed   134010197 working-precision words and  2324 shell-pairs
 Enter PrismC: JobTyp=21 DoJE=F Cont=F.
 Enter PrismC: JobTyp=21 DoJE=F Cont=F.
 PrismC was handed   134010197 working-precision words and  2324 shell-pairs
 PrismC was handed   134010197 working-precision words and  2324 shell-pairs
 Enter PrismC: JobTyp=21 DoJE=F Cont=F.
 Enter PrismC: JobTyp=21 DoJE=F Cont=F.
 PrismC was handed   134010197 working-precision words and  2324 shell-pairs
 PrismC was handed   134010197 working-precision words and  2324 shell-pairs
 IPart=  4 NShTot=      404684 NShNF=      404684 NShFF=           0 NBatch=        2701 AvBLen=       149.8
 IPart=  1 NShTot=      341124 NShNF=      341124 NShFF=           0 NBatch=        1854 AvBLen=       184.0
 IPart=  5 NShTot=      263458 NShNF=      263458 NShFF=           0 NBatch=        1839 AvBLen=       143.3
 IPart=  7 NShTot=      265886 NShNF=      265886 NShFF=           0 NBatch=        2010 AvBLen=       132.3
 IPart=  0 NShTot=      290514 NShNF=      290514 NShFF=           0 NBatch=        1988 AvBLen=       146.1
 IPart=  2 NShTot=      285966 NShNF=      285966 NShFF=           0 NBatch=        2073 AvBLen=       137.9
 IPart=  6 NShTot=      274778 NShNF=      274778 NShFF=           0 NBatch=        1907 AvBLen=       144.1
 IPart=  3 NShTot=      284233 NShNF=      284233 NShFF=           0 NBatch=        1995 AvBLen=       142.5
 CoulSu:  NxtVal=        2786305.
 Forces at end of L703
 I=    0 X=  -3.188197511909D-04 Y=   0.000000000000D+00 Z=  -1.862180580376D-01
 I=    1 X=   1.464385340726D-04 Y=   0.000000000000D+00 Z=  -3.819997732744D-04
 I=    2 X=  -5.845153002255D-05 Y=   0.000000000000D+00 Z=   3.488722889031D-04
 I=    3 X=  -4.399350199678D-05 Y=  -2.221835696048D-05 Z=   1.656374188741D-05
 I=    4 X=  -4.399350205321D-05 Y=   2.221835418226D-05 Z=   1.656374270809D-05
 FrcOut:
 IF    =    58 IFX   =    70 IFXYZ =    82
 IFFX  =    94 IFFFX =    94 IFLen =    12
 IFFLen=     0 IFFFLn=     0 IEDerv=    94
 LEDerv=   629 IFroze=   727 ICStrt= 92800
 DipInt: DoE/N= T T RetVal/Mat= T F Init=T NMatP=  1 IDeriv=0 Min/MaxMlt=  1  1
 Entering OneElI...
 Multipole integrals L=1 to 1 MinM= 0 MaxM= 0.
 Requested accuracy = 0.1000D-12
 PrsmSu:  NPrtUS=   1 ThrOK=F IAlg=1 NPAlg=1 LenDen=           0.
 Prism:   IPart=     0 DynPar=F LinDyn=F Incr=          23.
 PRISM was handed  1073236500 working-precision words and  2320 shell-pairs
 IPart=  0 NShTot=        2320 NBatch=         118 AvBLen=        19.7
 PrSmSu:  NxtVal=             24.
 Computed dipole moment (without fudge factor):
 X=-0.3188197511909D-03   Y=-0.2415845301584D-12   Z=-0.1862180580376D+00
 Quadrupole    =-5.75623277D-01 2.70326324D-01 3.05296953D-01
                 2.88476081D-14 4.48968056D-04 1.91491267D-12
 -------------------------------------------------------------------
 Center     Atomic                   Forces (Hartrees/Bohr)
 Number     Number              X              Y              Z
 -------------------------------------------------------------------
      1        6          -0.000146439    0.000000000    0.000382000
      2       16           0.000058452    0.000000000   -0.000348872
      3       35           0.000043994    0.000022218   -0.000016564
      4       35           0.000043994   -0.000022218   -0.000016564
 -------------------------------------------------------------------
 Cartesian Forces:  Max     0.000382000 RMS     0.000157560
 Final forces over variables, Energy=-5.58113759D+03:
  5.19070666D-12-7.26988490D-12 1.06103283D-12 1.01814541D-12
 -1.73765147D-12 2.20451520D-12 2.21531364D-05-2.21531376D-05
  3.81887699D-04-3.48640901D-04-1.66233988D-05-1.66233982D-05
 NDeriv=  12 NFrqRd=  0 LFDDif=       1
 NDeriv=  12 NFrqRd=  0 LFDDif=       1
 Re-enter D2Numr: IAtom=  1 IXYZ=1 IStep= 1.
 Standard basis: Aug-CC-pVTZ (5D, 7F)
 Integral buffers will be    131072 words long.
 Raffenetti 1 integral format.
 Two-electron integral symmetry is turned off.
   214 basis functions,   620 primitive gaussians,   252 cartesian basis functions
    46 alpha electrons       46 beta electrons
       nuclear repulsion energy       547.5704530001 Hartrees.
 NAtoms=    4 NActive=    4 NUniq=    4 SFac= 1.00D+00 NAtFMM=   50 NAOKFM=F Big=F
 One-electron integrals computed using PRISM.
 NBasis=   214 RedAO= T  NBF=   214
 NBsUse=   214 1.00D-06 NBFU=   214
 Initial guess read from the read-write file.
 B after Tr=     0.000000    0.000000    0.000000
         Rot=    1.000000    0.000000    0.000000    0.000000 Ang=   0.00 deg.
 Requested convergence on RMS density matrix=1.00D-08 within 128 cycles.
 Requested convergence on MAX density matrix=1.00D-06.
 Requested convergence on             energy=1.00D-06.
 No special actions if energy rises.
 Keep R1 ints in memory in canonical form, NReq=516428601.
 DSYEVD returned Info=       40634 IAlg= 4 N=   214 NDim=   214 NE2=     2642179 trying DSYEV.
 SCF Done:  E(RHF) =  -5580.30868071     A.U. after    8 cycles
             Convg  =    0.9016D-08             -V/T =  2.0000
 ExpMin= 3.51D-02 ExpMax= 1.06D+07 ExpMxC= 1.21D+04 IAcc=3 IRadAn=         5 AccDes= 0.00D+00
 HarFok:  IExCor=  205 AccDes= 0.00D+00 IRadAn=         5 IDoV=-2
 ScaDFX=  1.000000  1.000000  1.000000  1.000000
 DSYEVD returned Info=          89 IAlg= 4 N=    59 NDim=    59 NE2=    18196455 trying DSYEV.
 DSYEVD returned Info=          89 IAlg= 4 N=    59 NDim=    59 NE2=    18196455 trying DSYEV.
 Range of M.O.s used for correlation:    25   214
 NBasis=   214 NAE=    46 NBE=    46 NFC=    24 NFV=     0
 NROrb=    190 NOA=    22 NOB=    22 NVA=   168 NVB=   168

 **** Warning!!: The largest alpha MO coefficient is  0.30763875D+02

 Semi-Direct transformation.
 ModeAB=           2 MOrb=            22 LenV=    1072457083
 LASXX=     69628944 LTotXX=    69628944 LenRXX=    69628944
 LTotAB=    70719517 MaxLAS=   133250040 LenRXY=   133250040
 NonZer=   139257888 LenScr=   209707008 LnRSAI=           0
 LnScr1=           0 LExtra=           0 Total=    412585992
 MaxDsk=          -1 SrtSym=           F ITran=            4
 JobTyp=0 Pass  1:  I=   1 to  22.
 (rs|ai) integrals will be sorted in core.
 Spin components of T(2) and E(2):
     alpha-alpha T2 =       0.4287457840D-01 E2=     -0.1154000866D+00
     alpha-beta  T2 =       0.2166581140D+00 E2=     -0.5793039342D+00
     beta-beta   T2 =       0.4287457840D-01 E2=     -0.1154000866D+00
 ANorm=    0.1141230595D+01
 E2 =    -0.8101041073D+00 EUMP2 =    -0.55811187848152D+04
 R2 and R3 integrals will be kept in memory, NReq=  1024335774.
 Iterations=  50 Convergence= 0.100D-07
 Iteration Nr.   1
 **********************
 DD1Dir will call FoFMem   1 times, MxPair=       506
 NAB=   253 NAA=     0 NBB=     0.
 MP4(R+Q)=  0.23474489D-01
 E3=       -0.12178139D-01        EUMP3=      -0.55811309630D+04
 E4(DQ)=   -0.51027451D-03        UMP4(DQ)=   -0.55811314732D+04
 E4(SDQ)=  -0.10185533D-01        UMP4(SDQ)=  -0.55811411485D+04
 DE(Corr)= -0.79880776     E(Corr)=     -5581.1074885    
 NORM(A)=   0.11410198D+01
 Iteration Nr.   2
 **********************
 DD1Dir will call FoFMem   1 times, MxPair=       506
 NAB=   253 NAA=     0 NBB=     0.
 DE(Corr)= -0.82757673     E(CORR)=     -5581.1362574     Delta=-2.88D-02
 NORM(A)=   0.11532076D+01
 Iteration Nr.   3
 **********************
 DD1Dir will call FoFMem   1 times, MxPair=       506
 NAB=   253 NAA=     0 NBB=     0.
 DE(Corr)= -0.82616902     E(CORR)=     -5581.1348497     Delta= 1.41D-03
 NORM(A)=   0.11560439D+01
 Iteration Nr.   4
 **********************
 DD1Dir will call FoFMem   1 times, MxPair=       506
 NAB=   253 NAA=     0 NBB=     0.
 DE(Corr)= -0.82852014     E(CORR)=     -5581.1372008     Delta=-2.35D-03
 NORM(A)=   0.11573508D+01
 Iteration Nr.   5
 **********************
 DD1Dir will call FoFMem   1 times, MxPair=       506
 NAB=   253 NAA=     0 NBB=     0.
 DE(Corr)= -0.82882929     E(CORR)=     -5581.1375100     Delta=-3.09D-04
 NORM(A)=   0.11579878D+01
 Iteration Nr.   6
 **********************
 DD1Dir will call FoFMem   1 times, MxPair=       506
 NAB=   253 NAA=     0 NBB=     0.
 DE(Corr)= -0.82889402     E(CORR)=     -5581.1375747     Delta=-6.47D-05
 NORM(A)=   0.11580679D+01
 Iteration Nr.   7
 **********************
 DD1Dir will call FoFMem   1 times, MxPair=       506
 NAB=   253 NAA=     0 NBB=     0.
 DE(Corr)= -0.82890584     E(CORR)=     -5581.1375865     Delta=-1.18D-05
 NORM(A)=   0.11580846D+01
 Iteration Nr.   8
 **********************
 DD1Dir will call FoFMem   1 times, MxPair=       506
 NAB=   253 NAA=     0 NBB=     0.
 DE(Corr)= -0.82890196     E(CORR)=     -5581.1375827     Delta= 3.88D-06
 NORM(A)=   0.11580930D+01
 Iteration Nr.   9
 **********************
 DD1Dir will call FoFMem   1 times, MxPair=       506
 NAB=   253 NAA=     0 NBB=     0.
 DE(Corr)= -0.82890365     E(CORR)=     -5581.1375844     Delta=-1.69D-06
 NORM(A)=   0.11580936D+01
 Iteration Nr.  10
 **********************
 DD1Dir will call FoFMem   1 times, MxPair=       506
 NAB=   253 NAA=     0 NBB=     0.
 DE(Corr)= -0.82890376     E(CORR)=     -5581.1375845     Delta=-1.16D-07
 NORM(A)=   0.11580974D+01
 Iteration Nr.  11
 **********************
 DD1Dir will call FoFMem   1 times, MxPair=       506
 NAB=   253 NAA=     0 NBB=     0.
 DE(Corr)= -0.82890535     E(CORR)=     -5581.1375861     Delta=-1.58D-06
 NORM(A)=   0.11580994D+01
 Iteration Nr.  12
 **********************
 DD1Dir will call FoFMem   1 times, MxPair=       506
 NAB=   253 NAA=     0 NBB=     0.
 DE(Corr)= -0.82890543     E(CORR)=     -5581.1375861     Delta=-7.82D-08
 NORM(A)=   0.11581009D+01
 Iteration Nr.  13
 **********************
 DD1Dir will call FoFMem   1 times, MxPair=       506
 NAB=   253 NAA=     0 NBB=     0.
 DE(Corr)= -0.82890606     E(CORR)=     -5581.1375868     Delta=-6.35D-07
 NORM(A)=   0.11581019D+01
 Iteration Nr.  14
 **********************
 DD1Dir will call FoFMem   1 times, MxPair=       506
 NAB=   253 NAA=     0 NBB=     0.
 DE(Corr)= -0.82890607     E(CORR)=     -5581.1375868     Delta=-1.20D-08
 NORM(A)=   0.11581023D+01
 Iteration Nr.  15
 **********************
 DD1Dir will call FoFMem   1 times, MxPair=       506
 NAB=   253 NAA=     0 NBB=     0.
 DE(Corr)= -0.82890619     E(CORR)=     -5581.1375869     Delta=-1.15D-07
 NORM(A)=   0.11581026D+01
 Iteration Nr.  16
 **********************
 DD1Dir will call FoFMem   1 times, MxPair=       506
 NAB=   253 NAA=     0 NBB=     0.
 DE(Corr)= -0.82890622     E(CORR)=     -5581.1375869     Delta=-2.87D-08
 NORM(A)=   0.11581026D+01
 Iteration Nr.  17
 **********************
 DD1Dir will call FoFMem   1 times, MxPair=       506
 NAB=   253 NAA=     0 NBB=     0.
 DE(Corr)= -0.82890620     E(CORR)=     -5581.1375869     Delta= 1.25D-08
 NORM(A)=   0.11581026D+01
 Iteration Nr.  18
 **********************
 DD1Dir will call FoFMem   1 times, MxPair=       506
 NAB=   253 NAA=     0 NBB=     0.
 DE(Corr)= -0.82890622     E(CORR)=     -5581.1375869     Delta=-1.67D-08
 NORM(A)=   0.11581027D+01
 Iteration Nr.  19
 **********************
 DD1Dir will call FoFMem   1 times, MxPair=       506
 NAB=   253 NAA=     0 NBB=     0.
 DE(Corr)= -0.82890623     E(CORR)=     -5581.1375869     Delta=-4.44D-09
 NORM(A)=   0.11581027D+01
 Iteration Nr.  20
 **********************
 DD1Dir will call FoFMem   1 times, MxPair=       506
 NAB=   253 NAA=     0 NBB=     0.
 DE(Corr)= -0.82890625     E(CORR)=     -5581.1375870     Delta=-2.77D-08
 NORM(A)=   0.11581029D+01
 Iteration Nr.  21
 **********************
 DD1Dir will call FoFMem   1 times, MxPair=       506
 NAB=   253 NAA=     0 NBB=     0.
 DE(Corr)= -0.82890619     E(CORR)=     -5581.1375869     Delta= 5.93D-08
 NORM(A)=   0.11581025D+01
 Iteration Nr.  22
 **********************
 DD1Dir will call FoFMem   1 times, MxPair=       506
 NAB=   253 NAA=     0 NBB=     0.
 DE(Corr)= -0.82890626     E(CORR)=     -5581.1375870     Delta=-6.58D-08
 NORM(A)=   0.11581027D+01
 Iteration Nr.  23
 **********************
 DD1Dir will call FoFMem   1 times, MxPair=       506
 NAB=   253 NAA=     0 NBB=     0.
 DE(Corr)= -0.82890619     E(CORR)=     -5581.1375869     Delta= 6.98D-08
 NORM(A)=   0.11581026D+01
 Iteration Nr.  24
 **********************
 DD1Dir will call FoFMem   1 times, MxPair=       506
 NAB=   253 NAA=     0 NBB=     0.
 DE(Corr)= -0.82890620     E(CORR)=     -5581.1375869     Delta=-1.41D-08
 NORM(A)=   0.11581026D+01
 Iteration Nr.  25
 **********************
 DD1Dir will call FoFMem   1 times, MxPair=       506
 NAB=   253 NAA=     0 NBB=     0.
 DE(Corr)= -0.82890621     E(CORR)=     -5581.1375869     Delta=-5.09D-09
 NORM(A)=   0.11581026D+01
 Iteration Nr.  26
 **********************
 DD1Dir will call FoFMem   1 times, MxPair=       506
 NAB=   253 NAA=     0 NBB=     0.
 DE(Corr)= -0.82890621     E(CORR)=     -5581.1375869     Delta=-1.31D-09
 NORM(A)=   0.11581026D+01
 Iteration Nr.  27
 **********************
 DD1Dir will call FoFMem   1 times, MxPair=       506
 NAB=   253 NAA=     0 NBB=     0.
 DE(Corr)= -0.82890621     E(CORR)=     -5581.1375869     Delta=-3.63D-09
 NORM(A)=   0.11581027D+01
 Iteration Nr.  28
 **********************
 DD1Dir will call FoFMem   1 times, MxPair=       506
 NAB=   253 NAA=     0 NBB=     0.
 DE(Corr)= -0.82890622     E(CORR)=     -5581.1375869     Delta=-3.04D-09
 NORM(A)=   0.11581027D+01
 Largest amplitude= 7.67D-02

 Z-AMPLITUDE ITERATIONS

 Iteration Nr.   1
 **********************
 DD1Dir will call FoFMem   1 times, MxPair=       506
 NAB=   253 NAA=     0 NBB=     0.
 DE(Z)  -0.79824669D+00          E(Z)=    -0.55811069274D+04
 NORM(A)=   0.11595095D+01
 Iteration Nr.   2
 **********************
 DD1Dir will call FoFMem   1 times, MxPair=       506
 NAB=   253 NAA=     0 NBB=     0.
 DE(Z)  -0.79825695D+00          E(Z)=    -0.55811069377D+04
 NORM(A)=   0.11673777D+01
 Iteration Nr.   3
 **********************
 DD1Dir will call FoFMem   1 times, MxPair=       506
 NAB=   253 NAA=     0 NBB=     0.
 DE(Z)  -0.79830451D+00          E(Z)=    -0.55811069852D+04
 NORM(A)=   0.11629863D+01
 Iteration Nr.   4
 **********************
 DD1Dir will call FoFMem   1 times, MxPair=       506
 NAB=   253 NAA=     0 NBB=     0.
 DE(Z)  -0.79828242D+00          E(Z)=    -0.55811069631D+04
 NORM(A)=   0.11497340D+01
 Iteration Nr.   5
 **********************
 DD1Dir will call FoFMem   1 times, MxPair=       506
 NAB=   253 NAA=     0 NBB=     0.
 DE(Z)  -0.79816863D+00          E(Z)=    -0.55811068493D+04
 NORM(A)=   0.11448420D+01
 Iteration Nr.   6
 **********************
 DD1Dir will call FoFMem   1 times, MxPair=       506
 NAB=   253 NAA=     0 NBB=     0.
 DE(Z)  -0.79812952D+00          E(Z)=    -0.55811068102D+04
 NORM(A)=   0.11448418D+01
 Iteration Nr.   7
 **********************
 DD1Dir will call FoFMem   1 times, MxPair=       506
 NAB=   253 NAA=     0 NBB=     0.
 DE(Z)  -0.79812500D+00          E(Z)=    -0.55811068057D+04
 NORM(A)=   0.11448398D+01
 Iteration Nr.   8
 **********************
 DD1Dir will call FoFMem   1 times, MxPair=       506
 NAB=   253 NAA=     0 NBB=     0.
 DE(Z)  -0.79812717D+00          E(Z)=    -0.55811068079D+04
 NORM(A)=   0.11448411D+01
 Iteration Nr.   9
 **********************
 DD1Dir will call FoFMem   1 times, MxPair=       506
 NAB=   253 NAA=     0 NBB=     0.
 DE(Z)  -0.79812692D+00          E(Z)=    -0.55811068076D+04
 NORM(A)=   0.11448414D+01
 Iteration Nr.  10
 **********************
 DD1Dir will call FoFMem   1 times, MxPair=       506
 NAB=   253 NAA=     0 NBB=     0.
 DE(Z)  -0.79812691D+00          E(Z)=    -0.55811068076D+04
 NORM(A)=   0.11448417D+01
 Iteration Nr.  11
 **********************
 DD1Dir will call FoFMem   1 times, MxPair=       506
 NAB=   253 NAA=     0 NBB=     0.
 DE(Z)  -0.79812693D+00          E(Z)=    -0.55811068076D+04
 NORM(A)=   0.11448418D+01
 Iteration Nr.  12
 **********************
 DD1Dir will call FoFMem   1 times, MxPair=       506
 NAB=   253 NAA=     0 NBB=     0.
 DE(Z)  -0.79812691D+00          E(Z)=    -0.55811068076D+04
 NORM(A)=   0.11448419D+01
 Iteration Nr.  13
 **********************
 DD1Dir will call FoFMem   1 times, MxPair=       506
 NAB=   253 NAA=     0 NBB=     0.
 DE(Z)  -0.79812693D+00          E(Z)=    -0.55811068076D+04
 NORM(A)=   0.11448419D+01
 Iteration Nr.  14
 **********************
 DD1Dir will call FoFMem   1 times, MxPair=       506
 NAB=   253 NAA=     0 NBB=     0.
 DE(Z)  -0.79812692D+00          E(Z)=    -0.55811068076D+04
 NORM(A)=   0.11448418D+01
 Iteration Nr.  15
 **********************
 DD1Dir will call FoFMem   1 times, MxPair=       506
 NAB=   253 NAA=     0 NBB=     0.
 DE(Z)  -0.79812693D+00          E(Z)=    -0.55811068076D+04
 NORM(A)=   0.11448418D+01
 Discarding MO integrals.
          IDoAtm=1111
          Differentiating once with respect to electric field.
                with respect to dipole field.
          Differentiating once with respect to nuclear coordinates.
          Keep R1 ints in memory in canonical form, NReq=510060698.
          There are     1 degrees of freedom in the 1st order CPHF.  IDoFFX=0.
 LinEq1:  Iter=  0 NonCon=     1 RMS=1.78D-03 Max=6.60D-02
 AX will form     1 AO Fock derivatives at one time.
[...]
 OrtVCM:  IS=    1 I=    2 IndO=    8 Dot= 9.34D-01 DotN= 9.34D-01 ElMax1= 9.34D-01 ElMax1N= 9.34D-01
 OrtVCM:  Ph=2 NNew=    0 IAdd=    3 IPass= 1 DotMx2= 0.00D+00
 OrtVCM:  IS=    1 I=    3 IndO=    9 Dot= 9.41D-01 DotN= 9.41D-01 ElMax1= 9.41D-01 ElMax1N= 9.41D-01
 OrtVCM:  Ph=2 NNew=    0 IAdd=    4 IPass= 1 DotMx2= 2.34D-01
 OrtVCM:  Ph=2 NNew=    0 IAdd=    4 IPass= 2 DotMx2= 2.98D-17
 OrtVCM:  IS=    1 I=    4 IndO=    0 Dot= 2.64D-35 DotN= 2.64D-35 ElMax1= 3.58D-18 ElMax1N= 3.58D-18
 OrtVCM:  Ph=2 NNew=    0 IAdd=    5 IPass= 1 DotMx2= 1.44D-01
 OrtVCM:  Ph=2 NNew=    0 IAdd=    5 IPass= 2 DotMx2= 6.94D-18
 OrtVCM:  IS=    1 I=    5 IndO=   10 Dot= 5.60D-01 DotN= 5.60D-01 ElMax1= 5.60D-01 ElMax1N= 5.60D-01
 OrtVCM:  Ph=2 NNew=    0 IAdd=    6 IPass= 1 DotMx2= 1.00D-01
 OrtVCM:  Ph=2 NNew=    0 IAdd=    6 IPass= 2 DotMx2= 2.78D-17
 OrtVCM:  IS=    1 I=    6 IndO=   11 Dot= 8.32D-01 DotN= 8.32D-01 ElMax1= 8.32D-01 ElMax1N= 8.32D-01
 SchOr2:  IPass= 1 Test2A= 1.00D-01 IOff=     0 NDo=     6 NNew=     5
 OrtVCM:  Ph=1 IPass= 1 DotMx1= 7.07D-01
 OrtVCM:  Ph=1 IPass= 2 DotMx1= 1.57D-16
 OrtVCM:  IS=    1 I=    1 IndO=    0 Dot= 4.40D-64 DotN= 4.40D-64 ElMax1= 1.93D-32 ElMax1N= 1.93D-32
 SchOr2:  IPass= 1 Test2A= 1.00D-01 IOff=     6 NDo=     1 NNew=     0
 OrtVCM:  Ph=1 IPass= 1 DotMx1= 6.25D-01
 OrtVCM:  Ph=1 IPass= 2 DotMx1= 2.19D-17
 OrtVCM:  IS=    1 I=    1 IndO=   12 Dot= 5.00D-01 DotN= 5.00D-01 ElMax1= 5.00D-01 ElMax1N= 5.00D-01
 SchOr2:  IPass= 1 Test2A= 1.00D-01 IOff=     7 NDo=     1 NNew=     1
 VibFq2-Diag2:  N=      6 IV=           5 MDV=  1073648132 NE2=   178941354
 Dipole derivatives wrt mode   1: -1.23804D-05 -8.92120D-06 -3.24376D-01
 Vibrational polarizability contributions from mode   1       0.0000000       0.0000000       0.0803784
 Vibrational hyperpolarizability contributions from mode   1       0.0000000       0.0000000       0.0000000
 Dipole derivatives wrt mode   2: -6.96120D-09  1.51460D-01 -4.94634D-04
 Vibrational polarizability contributions from mode   2       0.0000000       0.0110303       0.0000001
 Vibrational hyperpolarizability contributions from mode   2       0.0000000       0.0000000       0.0000000
 Dipole derivatives wrt mode   3:  4.97101D-04  2.44705D-04  2.71698D+00
 Vibrational polarizability contributions from mode   3       0.0000000       0.0000000       1.3752147
 Vibrational hyperpolarizability contributions from mode   3       0.0000000       0.0000000       0.0000000
 Dipole derivatives wrt mode   4: -1.55207D+00  7.29114D-08 -4.31882D-04
 Vibrational polarizability contributions from mode   4       0.3494145       0.0000000       0.0000000
 Vibrational hyperpolarizability contributions from mode   4       0.0000000       0.0000000       0.0000000
 Dipole derivatives wrt mode   5: -4.33469D-10  1.29976D+01  5.80671D-04
 Vibrational polarizability contributions from mode   5       0.0000000       8.2903499       0.0000000
 Vibrational hyperpolarizability contributions from mode   5       0.0000000       0.0000000       0.0000000
 Dipole derivatives wrt mode   6:  1.08908D-05  1.20416D-05  1.54562D+01
 Vibrational polarizability contributions from mode   6       0.0000000       0.0000000       4.8862003
 Vibrational hyperpolarizability contributions from mode   6       0.0000000       0.0000000       0.0000000
 Diagonal vibrational polarizability:
        0.3494145       8.3013802       6.3417936
 NorSel:  MapVib=      1      2      3      4      5      6
 Harmonic frequencies (cm**-1), IR intensities (KM/Mole), Raman scattering
 activities (A**4/AMU), depolarization ratios for plane and unpolarized
 incident light, reduced masses (AMU), force constants (mDyne/A),
 and normal coordinates:
                           1         2         3         4         5
                           A         A         A         A         A
       Frequencies ---   187.6921  236.5766  380.0741  430.7334  740.5290
    Reduced masses ---    56.0660   42.1247   33.1630   12.7071   12.7574
   Force constants ---     1.1637    1.3891    2.8225    1.3890    4.1219
    IR Intensities ---     0.1052    0.0229    7.3820    2.4089  168.9367
 Coord Atom Element:
   1     1     6          0.00002   0.00000  -0.00051   0.98701   0.00000
   2     1     6          0.00000  -0.14099   0.00002   0.00000   0.99330
   3     1     6          0.44210  -0.00004   0.55822   0.00012  -0.00001
   1     2    16          0.00000   0.00000   0.00008  -0.14738   0.00000
   2     2    16          0.00002   0.86914   0.00004   0.00000  -0.05393
   3     2    16          0.45626  -0.00005   0.72833   0.00014  -0.00001
   1     3    35          0.00000   0.00000   0.00002  -0.04519   0.00000
   2     3    35          0.53132  -0.16533  -0.20708  -0.00004  -0.06459
   3     3    35         -0.12604  -0.29157  -0.18999  -0.00004  -0.03245
   1     4    35          0.00000   0.00000   0.00002  -0.04519   0.00000
   2     4    35         -0.53132  -0.16534   0.20706   0.00004  -0.06460
   3     4    35         -0.12603   0.29160  -0.18996  -0.00004   0.03245
                           6
                           A
       Frequencies ---  1147.0498
    Reduced masses ---    13.8615
   Force constants ---    10.7454
    IR Intensities ---   238.8926
 Coord Atom Element:
   1     1     6         -0.00001
   2     1     6          0.00000
   3     1     6          0.95282
   1     2    16          0.00000
   2     2    16          0.00000
   3     2    16         -0.30278
   1     3    35          0.00000
   2     3    35         -0.01024
   3     3    35         -0.01111
   1     4    35          0.00000
   2     4    35          0.01024
   3     4    35         -0.01111
 Harmonic frequencies (cm**-1), IR intensities (KM/Mole), Raman scattering
 activities (A**4/AMU), depolarization ratios for plane and unpolarized
 incident light, reduced masses (AMU), force constants (mDyne/A),
 and normal coordinates:
                     1                      2                      3
                     A                      A                      A
 Frequencies --   187.6921               236.5766               380.0741
 Red. masses --    56.0660                42.1247                33.1630
 Frc consts  --     1.1637                 1.3891                 2.8225
 IR Inten    --     0.1052                 0.0229                 7.3820
  Atom  AN      X      Y      Z        X      Y      Z        X      Y      Z
     1   6     0.00   0.00   0.44     0.00  -0.14   0.00     0.00   0.00   0.56
     2  16     0.00   0.00   0.46     0.00   0.87   0.00     0.00   0.00   0.73
     3  35     0.00   0.53  -0.13     0.00  -0.17  -0.29     0.00  -0.21  -0.19
     4  35     0.00  -0.53  -0.13     0.00  -0.17   0.29     0.00   0.21  -0.19
                     4                      5                      6
                     A                      A                      A
 Frequencies --   430.7334               740.5290              1147.0498
 Red. masses --    12.7071                12.7574                13.8615
 Frc consts  --     1.3890                 4.1219                10.7454
 IR Inten    --     2.4089               168.9367               238.8926
  Atom  AN      X      Y      Z        X      Y      Z        X      Y      Z
     1   6     0.99   0.00   0.00     0.00   0.99   0.00     0.00   0.00   0.95
     2  16    -0.15   0.00   0.00     0.00  -0.05   0.00     0.00   0.00  -0.30
     3  35    -0.05   0.00   0.00     0.00  -0.06  -0.03     0.00  -0.01  -0.01
     4  35    -0.05   0.00   0.00     0.00  -0.06   0.03     0.00   0.01  -0.01

 -------------------
 - Thermochemistry -
 -------------------
 Temperature   298.150 Kelvin.  Pressure   1.00000 Atm.
 Atom     1 has atomic number  6 and mass  12.00000
 Atom     2 has atomic number 16 and mass  31.97207
 Atom     3 has atomic number 35 and mass  78.91834
 Atom     4 has atomic number 35 and mass  78.91834
 Molecular mass:   201.80874 amu.
 Principal axes and moments of inertia in atomic units:
                           1         2         3
     Eigenvalues --   687.948191386.703332074.65152
           X            0.00000   0.00000   1.00000
           Y            1.00000   0.00000   0.00000
           Z            0.00000   1.00000   0.00000
 This molecule is an asymmetric top.
 Rotational symmetry number  2.
 Warning -- assumption of classical behavior for rotation
           may cause significant error
 Rotational temperatures (Kelvin)      0.12590     0.06246     0.04175
 Rotational constants (GHZ):           2.62337     1.30146     0.86990
 Zero-point vibrational energy      18677.6 (Joules/Mol)
                                    4.46406 (Kcal/Mol)
 Warning -- explicit consideration of   4 degrees of freedom as
           vibrations may cause significant error
 Vibrational temperatures:    270.05   340.38   546.84   619.73  1065.45
          (Kelvin)           1650.35
 
 Zero-point correction=                           0.007114 (Hartree/Particle)
 Thermal correction to Energy=                    0.011760
 Thermal correction to Enthalpy=                  0.012705
 Thermal correction to Gibbs Free Energy=        -0.023307
 Sum of electronic and zero-point Energies=          -5581.130473
 Sum of electronic and thermal Energies=             -5581.125827
 Sum of electronic and thermal Enthalpies=           -5581.124883
 Sum of electronic and thermal Free Energies=        -5581.160894
 
                     E (Thermal)             CV                S
                      KCal/Mol        Cal/Mol-Kelvin    Cal/Mol-Kelvin
 Total                    7.380             13.515             75.793
 Electronic               0.000              0.000              0.000
 Translational            0.889              2.981             41.811
 Rotational               0.889              2.981             27.695
 Vibrational              5.602              7.553              6.287
 Vibration     1          0.632              1.857              2.251
 Vibration     2          0.655              1.785              1.828
 Vibration     3          0.750              1.513              1.039
 Vibration     4          0.792              1.403              0.856
                       Q            Log10(Q)             Ln(Q)
 Total Bot       0.525334D+11         10.720435         24.684714
 Total V=0       0.983127D+14         13.992610         32.219174
 Vib (Bot)       0.185145D-02         -2.732489         -6.291787
 Vib (Bot)    1  0.106721D+01          0.028251          0.065050
 Vib (Bot)    2  0.830111D+00         -0.080864         -0.186196
 Vib (Bot)    3  0.475687D+00         -0.322679         -0.742995
 Vib (Bot)    4  0.404285D+00         -0.393312         -0.905635
 Vib (V=0)       0.346486D+01          0.539686          1.242672
 Vib (V=0)    1  0.167853D+01          0.224930          0.517921
 Vib (V=0)    2  0.146906D+01          0.167041          0.384625
 Vib (V=0)    3  0.119013D+01          0.075594          0.174062
 Vib (V=0)    4  0.114300D+01          0.058045          0.133655
 Electronic      0.100000D+01          0.000000          0.000000
 Translational   0.112685D+09          8.051865         18.540105
 Rotational      0.251802D+06          5.401059         12.436397
 -------------------------------------------------------------------
 Center     Atomic                   Forces (Hartrees/Bohr)
 Number     Number              X              Y              Z
 -------------------------------------------------------------------
      1        6           0.000000000    0.000000000    0.000381888
      2       16           0.000000000    0.000000000   -0.000348641
      3       35           0.000000000    0.000022153   -0.000016623
      4       35           0.000000000   -0.000022153   -0.000016623
 -------------------------------------------------------------------
 Cartesian Forces:  Max     0.000381888 RMS     0.000149701
 Z-matrix is all fixed cartesians, so copy forces.
 Force constants in Cartesian coordinates: 
                1             2             3             4             5 
      1  0.774953D-01
      2  0.000000D+00  0.231261D+00
      3 -0.152413D-05  0.000000D+00  0.477671D+00
      4 -0.309206D-01  0.000000D+00  0.000000D+00  0.123568D-01
      5  0.000000D+00 -0.358085D-01  0.000000D+00  0.000000D+00  0.437027D-01
      6  0.845883D-05 -0.381576D-05 -0.370035D+00 -0.678330D-05  0.584125D-05
      7 -0.232867D-01  0.000000D+00  0.000000D+00  0.927285D-02  0.000000D+00
      8 -0.475409D-05 -0.977139D-01 -0.459588D-01  0.510269D-05 -0.395495D-02
      9 -0.346727D-05 -0.477248D-01 -0.538178D-01  0.366556D-05 -0.249336D-01
     10 -0.232867D-01  0.000000D+00 -0.212605D-05  0.927285D-02  0.000000D+00
     11  0.475381D-05 -0.977199D-01  0.459582D-01 -0.510291D-05 -0.394710D-02
     12 -0.346744D-05  0.477295D-01 -0.538180D-01  0.366580D-05  0.249276D-01
                6             7             8             9            10 
      6  0.431060D+00
      7 -0.397415D-05  0.701806D-02
      8 -0.200739D-01  0.268136D-05  0.139007D+00
      9 -0.305142D-01  0.189285D-05  0.693397D-01  0.794587D-01
     10 -0.253301D-05  0.700421D-02  0.318734D-05  0.233233D-05  0.701806D-02
     11  0.200746D-01 -0.269363D-05 -0.373444D-01  0.331799D-02 -0.317504D-05
     12 -0.305143D-01  0.189843D-05 -0.331786D-02  0.487518D-02  0.232669D-05
               11            12 
     11  0.139007D+00
     12 -0.693399D-01  0.794590D-01
 Final forces over variables, Energy=-5.58113759D+03:
  5.19070666D-12-7.26988490D-12 1.06103283D-12 1.01814541D-12
 -1.73765147D-12 2.20451520D-12 2.21531364D-05-2.21531376D-05
  3.81887699D-04-3.48640901D-04-1.66233988D-05-1.66233982D-05

 GradGradGradGradGradGradGradGradGradGradGradGradGradGradGradGradGradGrad
 Berny optimization.
 Search for a local minimum.
 Step number   1 out of a maximum of    2
 All quantities printed in internal units (Hartrees-Bohrs-Radians)
 Second derivative matrix not updated -- analytic derivatives used.
 The second derivative matrix:
                          X1        Y1        Z1        X2        Y2
           X1           0.07750
           Y1           0.00000   0.23126
           Z1           0.00000   0.00000   0.47767
           X2          -0.03092   0.00000   0.00000   0.01236
           Y2           0.00000  -0.03581   0.00000   0.00000   0.04370
           Z2           0.00001   0.00000  -0.37003  -0.00001   0.00001
           X3          -0.02329   0.00000   0.00000   0.00927   0.00000
           Y3           0.00000  -0.09771  -0.04596   0.00001  -0.00395
           Z3           0.00000  -0.04772  -0.05382   0.00000  -0.02493
           X4          -0.02329   0.00000   0.00000   0.00927   0.00000
           Y4           0.00000  -0.09772   0.04596  -0.00001  -0.00395
           Z4           0.00000   0.04773  -0.05382   0.00000   0.02493
                          Z2        X3        Y3        Z3        X4
           Z2           0.43106
           X3           0.00000   0.00702
           Y3          -0.02007   0.00000   0.13901
           Z3          -0.03051   0.00000   0.06934   0.07946
           X4           0.00000   0.00700   0.00000   0.00000   0.00702
           Y4           0.02007   0.00000  -0.03734   0.00332   0.00000
           Z4          -0.03051   0.00000  -0.00332   0.00488   0.00000
                          Y4        Z4
           Y4           0.13901
           Z4          -0.06934   0.07946
 ITU=  0
     Eigenvalues ---    0.07555   0.09655   0.09764   0.25386   0.32420
     Eigenvalues ---    0.81383
 Angle between quadratic step and forces=  37.32 degrees.
 Linear search not attempted -- first point.
 TrRot=  0.000000  0.000000 -0.000084  0.000000  0.000000  0.000000
 Variable       Old X    -DE/DX   Delta X   Delta X   Delta X     New X
                                 (Linear)    (Quad)   (Total)
    X1        0.00000   0.00000   0.00000   0.00000   0.00000   0.00000
    Y1        0.00000   0.00000   0.00000   0.00000   0.00000   0.00000
    Z1       -0.98162   0.00038   0.00000   0.00069   0.00060  -0.98102
    X2        0.00000   0.00000   0.00000   0.00000   0.00000   0.00000
    Y2        0.00000   0.00000   0.00000   0.00000   0.00000   0.00000
    Z2        2.04788  -0.00035   0.00000  -0.00020  -0.00029   2.04760
    X3        0.00000   0.00000   0.00000   0.00000   0.00000   0.00000
    Y3       -2.96407   0.00002   0.00000   0.00031   0.00031  -2.96376
    Z3       -2.98306  -0.00002   0.00000  -0.00007  -0.00016  -2.98322
    X4        0.00000   0.00000   0.00000   0.00000   0.00000   0.00000
    Y4        2.96407  -0.00002   0.00000  -0.00031  -0.00031   2.96376
    Z4       -2.98306  -0.00002   0.00000  -0.00007  -0.00016  -2.98322
         Item               Value     Threshold  Converged?
 Maximum Force            0.000382     0.000450     YES
 RMS     Force            0.000150     0.000300     YES
 Maximum Displacement     0.000602     0.001800     YES
 RMS     Displacement     0.000239     0.001200     YES
 Predicted change in Energy=-1.742306D-07
 Optimization completed.
    -- Stationary point found.
 GradGradGradGradGradGradGradGradGradGradGradGradGradGradGradGradGradGrad


 Test job not archived.
 1\1\GINC-TRAPISTA\Freq\RQCISD-FC\Aug-CC-pVTZ\C1Br2S1\BRUNS\20-Nov-2021
 \0\\#freq=noraman qcisd/aug-cc-pvtz density=current iop(7/33=1) nosym 
 formcheck=forcecart\\br2cs-frequencies\\0,1\C,0.,0.,-0.519451\S,0.,0.,
 1.083692\Br,0.,-1.568516,-1.57857\Br,0.,1.568516,-1.57857\\Version=EM6
 4L-G09RevB.01\HF=-5580.3086809\MP2=-5581.118785\MP3=-5581.1309631\MP4D
 =-5581.1549479\MP4DQ=-5581.1314734\MP4SDQ=-5581.1411486\QCISD=-5581.13
 75871\RMSD=3.250e-09\RMSF=1.497e-04\ZeroPoint=0.0071139\Thermal=0.0117
 604\Dipole=0.,0.,-0.186218\DipoleDeriv=-0.1686948,0.,-0.0001404,0.,1.3
 867479,0.0000705,0.,0.,1.6140832,0.0300437,0.,0.0000945,0.,-0.1920954,
 -0.0000749,0.,0.,-0.9555384,0.0693383,0.,0.0000806,0.,-0.597448,-0.412
 5951,0.,-0.3367687,-0.3294594,0.0693383,0.,0.000114,0.,-0.5974481,0.41
 25967,0.,0.3367687,-0.3294653\Quadrupole=-0.5756291,0.2703296,0.305299
 5,0.,0.,0.\QuadrupoleDeriv=0.0007136,-0.0003068,-0.0004068,0.,0.237825
 9,0.,-0.0004372,0.0002278,0.0002095,0.,0.,-6.0321059,1.6352603,-2.6969
 75,1.0617147,0.,0.,0.,-0.0007943,0.0004017,0.0003926,0.,-0.0294803,0.,
 0.0006422,-0.0003496,-0.0002926,0.,0.,1.9962549,-1.6618078,0.7427106,0
 .9190972,0.,0.,0.,-0.0003849,0.0001688,0.000216,-0.1431661,-0.1973363,
 -0.0000014,0.1831609,-0.6376281,0.4544672,0.,0.,1.9257082,0.075238,1.0
 395883,-1.1148263,0.,0.,0.2557429,-0.0003512,0.0001442,0.000207,0.1431
 661,-0.1973363,0.0000014,-0.1831628,0.6376209,-0.454458,0.,0.,1.925708
 4,0.0752473,1.0396,-1.1148474,0.,0.,-0.255743\PG=C02V [C2(C1S1),SGV(Br
 2)]\NImag=0\\0.07749531,0.,0.23126080,-0.00000152,-0.00000084,0.477670
 55,-0.03092057,0.,-0.00000055,0.01235681,0.,-0.03580851,0.00000011,0.,
 0.04370273,0.00000846,-0.00000382,-0.37003460,-0.00000678,0.00000584,0
 .43105954,-0.02328673,0.00000001,0.00000018,0.00927285,0.,-0.00000397,
 0.00701806,-0.00000475,-0.09771394,-0.04595884,0.00000510,-0.00395495,
 -0.02007392,0.00000268,0.13900698,-0.00000347,-0.04772484,-0.05381783,
 0.00000367,-0.02493358,-0.03051424,0.00000189,0.06933968,0.07945866,-0
 .02328673,-0.00000002,-0.00000213,0.00927285,0.,-0.00000253,0.00700421
 ,0.00000319,0.00000233,0.00701806,0.00000475,-0.09771985,0.04595825,-0
 .00000510,-0.00394710,0.02007456,-0.00000269,-0.03734441,0.00331799,-0
 .00000318,0.13900701,-0.00000347,0.04772950,-0.05381804,0.00000367,0.0
 2492763,-0.03051434,0.00000190,-0.00331786,0.00487518,0.00000233,-0.06
 933986,0.07945897\\0.,0.,-0.00038189,0.,0.,0.00034864,0.,-0.00002215,0
 .00001662,0.,0.00002215,0.00001662\\\@


 Money is a good servant but a bad master.
                        -- French Proverb
 Job cpu time:  6 days 16 hours  6 minutes  6.5 seconds.
 File lengths (MBytes):  RWF=  25271 Int=      0 D2E=      0 Chk=     44 Scr=      1
 Normal termination of Gaussian 09 at Sat Nov 20 02:46:29 2021.
