 Entering Gaussian System, Link 0=/home/bruns/programas/chemistry/gaussian/g09/g09
 Input=./f2co/f2co-fv.com
 Output=./f2co/f2co-fv.log
 Initial command:
 /home/bruns/programas/chemistry/gaussian/g09/l1.exe /home/bruns/programas/chemistry/gaussian/work/Gau-60318.inp -scrdir=/home/bruns/programas/chemistry/gaussian/work/
 Entering Link 1 = /home/bruns/programas/chemistry/gaussian/g09/l1.exe PID=     60320.
  
 Copyright (c) 1988,1990,1992,1993,1995,1998,2003,2009,2010,
            Gaussian, Inc.  All Rights Reserved.
  
 This is part of the Gaussian(R) 09 program.  It is based on
 the Gaussian(R) 03 system (copyright 2003, Gaussian, Inc.),
 the Gaussian(R) 98 system (copyright 1998, Gaussian, Inc.),
 the Gaussian(R) 94 system (copyright 1995, Gaussian, Inc.),
 the Gaussian 92(TM) system (copyright 1992, Gaussian, Inc.),
 the Gaussian 90(TM) system (copyright 1990, Gaussian, Inc.),
 the Gaussian 88(TM) system (copyright 1988, Gaussian, Inc.),
 the Gaussian 86(TM) system (copyright 1986, Carnegie Mellon
 University), and the Gaussian 82(TM) system (copyright 1983,
 Carnegie Mellon University). Gaussian is a federally registered
 trademark of Gaussian, Inc.
  
 This software contains proprietary and confidential information,
 including trade secrets, belonging to Gaussian, Inc.
  
 This software is provided under written license and may be
 used, copied, transmitted, or stored only in accord with that
 written license.
  
 The following legend is applicable only to US Government
 contracts under FAR:
  
                    RESTRICTED RIGHTS LEGEND
  
 Use, reproduction and disclosure by the US Government is
 subject to restrictions as set forth in subparagraphs (a)
 and (c) of the Commercial Computer Software - Restricted
 Rights clause in FAR 52.227-19.
  
 Gaussian, Inc.
 340 Quinnipiac St., Bldg. 40, Wallingford CT 06492
  
  
 ---------------------------------------------------------------
 Warning -- This program may not be used in any manner that
 competes with the business of Gaussian, Inc. or will provide
 assistance to any competitor of Gaussian, Inc.  The licensee
 of this program is prohibited from giving any competitor of
 Gaussian, Inc. access to this program.  By using this program,
 the user acknowledges that Gaussian, Inc. is engaged in the
 business of creating and licensing software in the field of
 computational chemistry and represents and warrants to the
 licensee that it is not a competitor of Gaussian, Inc. and that
 it will not use this program in any manner prohibited above.
 ---------------------------------------------------------------
  

 Cite this work as:
 Gaussian 09, Revision B.01,
 M. J. Frisch, G. W. Trucks, H. B. Schlegel, G. E. Scuseria, 
 M. A. Robb, J. R. Cheeseman, G. Scalmani, V. Barone, B. Mennucci, 
 G. A. Petersson, H. Nakatsuji, M. Caricato, X. Li, H. P. Hratchian, 
 A. F. Izmaylov, J. Bloino, G. Zheng, J. L. Sonnenberg, M. Hada, 
 M. Ehara, K. Toyota, R. Fukuda, J. Hasegawa, M. Ishida, T. Nakajima, 
 Y. Honda, O. Kitao, H. Nakai, T. Vreven, J. A. Montgomery, Jr., 
 J. E. Peralta, F. Ogliaro, M. Bearpark, J. J. Heyd, E. Brothers, 
 K. N. Kudin, V. N. Staroverov, T. Keith, R. Kobayashi, J. Normand, 
 K. Raghavachari, A. Rendell, J. C. Burant, S. S. Iyengar, J. Tomasi, 
 M. Cossi, N. Rega, J. M. Millam, M. Klene, J. E. Knox, J. B. Cross, 
 V. Bakken, C. Adamo, J. Jaramillo, R. Gomperts, R. E. Stratmann, 
 O. Yazyev, A. J. Austin, R. Cammi, C. Pomelli, J. W. Ochterski, 
 R. L. Martin, K. Morokuma, V. G. Zakrzewski, G. A. Voth, 
 P. Salvador, J. J. Dannenberg, S. Dapprich, A. D. Daniels, 
 O. Farkas, J. B. Foresman, J. V. Ortiz, J. Cioslowski, 
 and D. J. Fox, Gaussian, Inc., Wallingford CT, 2010.
 
 ******************************************
 Gaussian 09:  EM64L-G09RevB.01 12-Aug-2010
                16-Nov-2021 
 ******************************************
 %nproc=8
 Will use up to    8 processors via shared memory.
 %mem=8GB
 ----------------------------------------------------------------------
 #freq=noraman qcisd/aug-cc-pvtz density=current iop(7/33=1) nosym form
 check=forcecart
 ----------------------------------------------------------------------
 1/10=4,30=1,38=11/1,3,6;
 2/12=2,15=1,17=6,18=5,40=1/2;
 3/5=16,6=1,7=10,11=9,16=1,25=1,30=1,71=1/1,2,3;
 4/69=2/1;
 5/5=2,38=5,98=1/2;
 8/6=4,9=120000,10=1/1,4;
 9/5=8,15=1/13;
 11/28=-7,29=200,31=1,42=3/11;
 10/5=6,31=1/2;
 6/7=2,8=2,9=2,10=2,22=-1/1;
 7/12=7,30=1,33=1/1,2,3,16;
 1/38=10/6(3);
 7/8=1,25=1,30=1,33=1,44=-1/16;
 1/10=4,30=1,38=10/3;
 99//99;
 3/5=16,6=1,7=10,11=9,16=1,25=1,30=1,71=1/1,2,3;
 4/5=5,16=3,69=2/1;
 5/5=2,38=5,98=1/2;
 8/6=4,9=120000,10=1/1,4;
 9/5=8,15=1/13;
 11/28=-7,29=200,31=1,42=3/11;
 10/5=6,31=1/2;
 6/7=2,8=2,9=2,10=2,22=-1/1;
 7/7=1,12=7,30=1,33=1/1,2,3,16;
 1/38=10/6(-9);
 7/8=1,25=1,30=1,33=1,44=-1/16;
 1/10=4,30=1,38=10/3;
 99//99;
 ----------------
 f2co-frequencies
 ----------------
 Symbolic Z-matrix:
 Charge =  0 Multiplicity = 1
 O                     0.        0.        0.67993 
 C                     0.        0.       -0.49222 
 F                     0.       -1.05888  -1.26431 
 F                     0.        1.05888  -1.26431 
 

 GradGradGradGradGradGradGradGradGradGradGradGradGradGradGradGradGradGrad
 Berny optimization.
 Initialization pass.
 Trust Radius=3.00D-01 FncErr=1.00D-07 GrdErr=1.00D-07
 Number of steps in this run=      2 maximum allowed number of steps=      2.
 GradGradGradGradGradGradGradGradGradGradGradGradGradGradGradGradGradGrad

 NDeriv=  12 NFrqRd=  0 LFDDif=       1
 Numerical evaluation of force-constants.
 Nuclear step= 0.001000 Angstroms, electric field step= 0.000333 atomic units, NStep=1.
                          Input orientation:                          
 ---------------------------------------------------------------------
 Center     Atomic      Atomic             Coordinates (Angstroms)
 Number     Number       Type             X           Y           Z
 ---------------------------------------------------------------------
      1          8           0        0.000000    0.000000    0.679927
      2          6           0        0.000000    0.000000   -0.492216
      3          9           0        0.000000   -1.058878   -1.264305
      4          9           0        0.000000    1.058878   -1.264305
 ---------------------------------------------------------------------
                    Distance matrix (angstroms):
                    1          2          3          4
     1  O    0.000000
     2  C    1.172143   0.000000
     3  F    2.213879   1.310475   0.000000
     4  F    2.213879   1.310475   2.117756   0.000000
 Symmetry turned off by external request.
 Stoichiometry    CF2O
 Framework group  C2V[C2(CO),SGV(F2)]
 Deg. of freedom     3
 Full point group                 C2V     NOp   4
 Rotational constants (GHZ):     11.8625553     11.7728615      5.9087691
 Standard basis: Aug-CC-pVTZ (5D, 7F)
 Integral buffers will be    131072 words long.
 Raffenetti 1 integral format.
 Two-electron integral symmetry is turned off.
   184 basis functions,   288 primitive gaussians,   220 cartesian basis functions
    16 alpha electrons       16 beta electrons
       nuclear repulsion energy       119.9410577902 Hartrees.
 NAtoms=    4 NActive=    4 NUniq=    4 SFac= 1.00D+00 NAtFMM=   50 NAOKFM=F Big=F
 One-electron integrals computed using PRISM.
 NBasis=   184 RedAO= T  NBF=   184
 NBsUse=   184 1.00D-06 NBFU=   184
 Harris functional with IExCor=  205 diagonalized for initial guess.
 ExpMin= 3.57D-02 ExpMax= 1.95D+04 ExpMxC= 6.65D+02 IAcc=3 IRadAn=         0 AccDes= 0.00D+00
 HarFok:  IExCor=  205 AccDes= 0.00D+00 IRadAn=         0 IDoV= 1
 ScaDFX=  1.000000  1.000000  1.000000  1.000000
 FoFCou: FMM=F IPFlag=           0 FMFlag=      100000 FMFlg1=           0
         NFxFlg=           0 DoJE=T BraDBF=F KetDBF=T FulRan=T
         Omega=  0.000000  0.000000  1.000000  0.000000  0.000000 ICntrl=     500 IOpCl=  0
         NMat0=    1 NMatS0=    1 NMatT0=    0 NMatD0=    1 NMtDS0=    0 NMtDT0=    0
         I1Cent=           4 NGrid=           0.
 Symmetry not used in FoFCou.
 Requested convergence on RMS density matrix=1.00D-08 within 128 cycles.
 Requested convergence on MAX density matrix=1.00D-06.
 Requested convergence on             energy=1.00D-06.
 No special actions if energy rises.
 Keep R1 ints in memory in canonical form, NReq=301063473.
 SCF Done:  E(RHF) =  -311.741239712     A.U. after   11 cycles
             Convg  =    0.8476D-08             -V/T =  2.0014
 ExpMin= 3.57D-02 ExpMax= 1.95D+04 ExpMxC= 6.65D+02 IAcc=3 IRadAn=         5 AccDes= 0.00D+00
 HarFok:  IExCor=  205 AccDes= 0.00D+00 IRadAn=         5 IDoV=-2
 ScaDFX=  1.000000  1.000000  1.000000  1.000000
 DSYEVD returned Info=          93 IAlg= 4 N=    46 NDim=    46 NE2=    23339802 trying DSYEV.
 Range of M.O.s used for correlation:     5   184
 NBasis=   184 NAE=    16 NBE=    16 NFC=     4 NFV=     0
 NROrb=    180 NOA=    12 NOB=    12 NVA=   168 NVB=   168

 **** Warning!!: The largest alpha MO coefficient is  0.15547235D+02

 Semi-Direct transformation.
 ModeAB=           2 MOrb=            12 LenV=    1072785587
 LASXX=     33405819 LTotXX=    33405819 LenRXX=    33405819
 LTotAB=    33954012 MaxLAS=    52509600 LenRXY=    52509600
 NonZer=    66811638 LenScr=   100987392 LnRSAI=           0
 LnScr1=           0 LExtra=           0 Total=    186902811
 MaxDsk=          -1 SrtSym=           F ITran=            4
 JobTyp=0 Pass  1:  I=   1 to  12.
 (rs|ai) integrals will be sorted in core.
 Spin components of T(2) and E(2):
     alpha-alpha T2 =       0.2657352538D-01 E2=     -0.1191087785D+00
     alpha-beta  T2 =       0.1371258492D+00 E2=     -0.6576863621D+00
     beta-beta   T2 =       0.2657352538D-01 E2=     -0.1191087785D+00
 ANorm=    0.1090996288D+01
 E2 =    -0.8959039191D+00 EUMP2 =    -0.31263714363158D+03
 R2 and R3 integrals will be kept in memory, NReq=   596397230.
 Iterations=  50 Convergence= 0.100D-07
 Iteration Nr.   1
 **********************
 DD1Dir will call FoFMem   1 times, MxPair=       156
 NAB=    78 NAA=     0 NBB=     0.
 MP4(R+Q)=  0.16056897D-01
 E3=        0.12499229D-01        EUMP3=      -0.31262464440D+03
 E4(DQ)=    0.45721910D-03        UMP4(DQ)=   -0.31262418718D+03
 E4(SDQ)=  -0.11145908D-01        UMP4(SDQ)=  -0.31263579031D+03
 DE(Corr)= -0.86734779     E(Corr)=     -312.60858751    
 NORM(A)=   0.10858757D+01
 Iteration Nr.   2
 **********************
 DD1Dir will call FoFMem   1 times, MxPair=       156
 NAB=    78 NAA=     0 NBB=     0.
 DE(Corr)= -0.89321515     E(CORR)=     -312.63445486     Delta=-2.59D-02
 NORM(A)=   0.10931754D+01
 Iteration Nr.   3
 **********************
 DD1Dir will call FoFMem   1 times, MxPair=       156
 NAB=    78 NAA=     0 NBB=     0.
 DE(Corr)= -0.89145715     E(CORR)=     -312.63269687     Delta= 1.76D-03
 NORM(A)=   0.10954068D+01
 Iteration Nr.   4
 **********************
 DD1Dir will call FoFMem   1 times, MxPair=       156
 NAB=    78 NAA=     0 NBB=     0.
 DE(Corr)= -0.89375985     E(CORR)=     -312.63499956     Delta=-2.30D-03
 NORM(A)=   0.10962131D+01
 Iteration Nr.   5
 **********************
 DD1Dir will call FoFMem   1 times, MxPair=       156
 NAB=    78 NAA=     0 NBB=     0.
 DE(Corr)= -0.89402565     E(CORR)=     -312.63526536     Delta=-2.66D-04
 NORM(A)=   0.10963956D+01
 Iteration Nr.   6
 **********************
 DD1Dir will call FoFMem   1 times, MxPair=       156
 NAB=    78 NAA=     0 NBB=     0.
 DE(Corr)= -0.89405215     E(CORR)=     -312.63529186     Delta=-2.65D-05
 NORM(A)=   0.10964088D+01
 Iteration Nr.   7
 **********************
 DD1Dir will call FoFMem   1 times, MxPair=       156
 NAB=    78 NAA=     0 NBB=     0.
 DE(Corr)= -0.89405377     E(CORR)=     -312.63529348     Delta=-1.62D-06
 NORM(A)=   0.10964087D+01
 Iteration Nr.   8
 **********************
 DD1Dir will call FoFMem   1 times, MxPair=       156
 NAB=    78 NAA=     0 NBB=     0.
 DE(Corr)= -0.89405275     E(CORR)=     -312.63529247     Delta= 1.01D-06
 NORM(A)=   0.10964091D+01
 Iteration Nr.   9
 **********************
 DD1Dir will call FoFMem   1 times, MxPair=       156
 NAB=    78 NAA=     0 NBB=     0.
 DE(Corr)= -0.89405315     E(CORR)=     -312.63529286     Delta=-3.99D-07
 NORM(A)=   0.10964091D+01
 Iteration Nr.  10
 **********************
 DD1Dir will call FoFMem   1 times, MxPair=       156
 NAB=    78 NAA=     0 NBB=     0.
 DE(Corr)= -0.89405305     E(CORR)=     -312.63529276     Delta= 1.00D-07
 NORM(A)=   0.10964093D+01
 Iteration Nr.  11
 **********************
 DD1Dir will call FoFMem   1 times, MxPair=       156
 NAB=    78 NAA=     0 NBB=     0.
 DE(Corr)= -0.89405352     E(CORR)=     -312.63529323     Delta=-4.71D-07
 NORM(A)=   0.10964096D+01
 Iteration Nr.  12
 **********************
 DD1Dir will call FoFMem   1 times, MxPair=       156
 NAB=    78 NAA=     0 NBB=     0.
 DE(Corr)= -0.89405356     E(CORR)=     -312.63529327     Delta=-3.38D-08
 NORM(A)=   0.10964098D+01
 Iteration Nr.  13
 **********************
 DD1Dir will call FoFMem   1 times, MxPair=       156
 NAB=    78 NAA=     0 NBB=     0.
 DE(Corr)= -0.89405365     E(CORR)=     -312.63529337     Delta=-9.62D-08
 NORM(A)=   0.10964099D+01
 Iteration Nr.  14
 **********************
 DD1Dir will call FoFMem   1 times, MxPair=       156
 NAB=    78 NAA=     0 NBB=     0.
 DE(Corr)= -0.89405367     E(CORR)=     -312.63529338     Delta=-1.61D-08
 NORM(A)=   0.10964099D+01
 Iteration Nr.  15
 **********************
 DD1Dir will call FoFMem   1 times, MxPair=       156
 NAB=    78 NAA=     0 NBB=     0.
 DE(Corr)= -0.89405368     E(CORR)=     -312.63529339     Delta=-8.80D-09
 NORM(A)=   0.10964099D+01
 Iteration Nr.  16
 **********************
 DD1Dir will call FoFMem   1 times, MxPair=       156
 NAB=    78 NAA=     0 NBB=     0.
 DE(Corr)= -0.89405368     E(CORR)=     -312.63529339     Delta=-4.29D-09
 NORM(A)=   0.10964099D+01
 Largest amplitude= 5.78D-02

 Z-AMPLITUDE ITERATIONS

 Iteration Nr.   1
 **********************
 DD1Dir will call FoFMem   1 times, MxPair=       156
 NAB=    78 NAA=     0 NBB=     0.
 DE(Z)  -0.87475075D+00          E(Z)=    -0.31261599046D+03
 NORM(A)=   0.10964085D+01
 Iteration Nr.   2
 **********************
 DD1Dir will call FoFMem   1 times, MxPair=       156
 NAB=    78 NAA=     0 NBB=     0.
 DE(Z)  -0.87475074D+00          E(Z)=    -0.31261599046D+03
 NORM(A)=   0.10964092D+01
 Iteration Nr.   3
 **********************
 DD1Dir will call FoFMem   1 times, MxPair=       156
 NAB=    78 NAA=     0 NBB=     0.
 DE(Z)  -0.87475074D+00          E(Z)=    -0.31261599045D+03
 NORM(A)=   0.10964093D+01
 Iteration Nr.   4
 **********************
 DD1Dir will call FoFMem   1 times, MxPair=       156
 NAB=    78 NAA=     0 NBB=     0.
 DE(Z)  -0.87475074D+00          E(Z)=    -0.31261599046D+03
 NORM(A)=   0.10964101D+01
 Iteration Nr.   5
 **********************
 DD1Dir will call FoFMem   1 times, MxPair=       156
 NAB=    78 NAA=     0 NBB=     0.
 DE(Z)  -0.87475075D+00          E(Z)=    -0.31261599046D+03
 NORM(A)=   0.10919920D+01
 Iteration Nr.   6
 **********************
 DD1Dir will call FoFMem   1 times, MxPair=       156
 NAB=    78 NAA=     0 NBB=     0.
 DE(Z)  -0.87471661D+00          E(Z)=    -0.31261595632D+03
 NORM(A)=   0.10919757D+01
 Iteration Nr.   7
 **********************
 DD1Dir will call FoFMem   1 times, MxPair=       156
 NAB=    78 NAA=     0 NBB=     0.
 DE(Z)  -0.87468560D+00          E(Z)=    -0.31261592531D+03
 NORM(A)=   0.10919687D+01
 Iteration Nr.   8
 **********************
 DD1Dir will call FoFMem   1 times, MxPair=       156
 NAB=    78 NAA=     0 NBB=     0.
 DE(Z)  -0.87469498D+00          E(Z)=    -0.31261593469D+03
 NORM(A)=   0.10919680D+01
 Iteration Nr.   9
 **********************
 DD1Dir will call FoFMem   1 times, MxPair=       156
 NAB=    78 NAA=     0 NBB=     0.
 DE(Z)  -0.87469327D+00          E(Z)=    -0.31261593298D+03
 NORM(A)=   0.10919680D+01
 Iteration Nr.  10
 **********************
 DD1Dir will call FoFMem   1 times, MxPair=       156
 NAB=    78 NAA=     0 NBB=     0.
 DE(Z)  -0.87469387D+00          E(Z)=    -0.31261593359D+03
 NORM(A)=   0.10919682D+01
 Iteration Nr.  11
 **********************
 DD1Dir will call FoFMem   1 times, MxPair=       156
 NAB=    78 NAA=     0 NBB=     0.
 DE(Z)  -0.87469389D+00          E(Z)=    -0.31261593360D+03
 NORM(A)=   0.10919683D+01
 Iteration Nr.  12
 **********************
 DD1Dir will call FoFMem   1 times, MxPair=       156
 NAB=    78 NAA=     0 NBB=     0.
 DE(Z)  -0.87469389D+00          E(Z)=    -0.31261593361D+03
 NORM(A)=   0.10919683D+01
 Iteration Nr.  13
 **********************
 DD1Dir will call FoFMem   1 times, MxPair=       156
 NAB=    78 NAA=     0 NBB=     0.
 DE(Z)  -0.87469391D+00          E(Z)=    -0.31261593362D+03
 NORM(A)=   0.10919683D+01
 Iteration Nr.  14
 **********************
 DD1Dir will call FoFMem   1 times, MxPair=       156
 NAB=    78 NAA=     0 NBB=     0.
 DE(Z)  -0.87469389D+00          E(Z)=    -0.31261593360D+03
 NORM(A)=   0.10919683D+01
 Iteration Nr.  15
 **********************
 DD1Dir will call FoFMem   1 times, MxPair=       156
 NAB=    78 NAA=     0 NBB=     0.
 DE(Z)  -0.87469389D+00          E(Z)=    -0.31261593361D+03
 NORM(A)=   0.10919683D+01
 Discarding MO integrals.
          IDoAtm=1111
          Differentiating once with respect to electric field.
                with respect to dipole field.
          Differentiating once with respect to nuclear coordinates.
          Keep R1 ints in memory in canonical form, NReq=297441390.
          There are     1 degrees of freedom in the 1st order CPHF.  IDoFFX=0.
 LinEq1:  Iter=  0 NonCon=     1 RMS=3.07D-03 Max=8.45D-02
 AX will form     1 AO Fock derivatives at one time.
 LinEq1:  Iter=  1 NonCon=     1 RMS=7.55D-04 Max=1.11D-02
 LinEq1:  Iter=  2 NonCon=     1 RMS=2.24D-04 Max=3.37D-03
 LinEq1:  Iter=  3 NonCon=     1 RMS=9.87D-05 Max=1.57D-03
 LinEq1:  Iter=  4 NonCon=     1 RMS=2.27D-05 Max=3.72D-04
 LinEq1:  Iter=  5 NonCon=     1 RMS=1.09D-05 Max=2.98D-04
 LinEq1:  Iter=  6 NonCon=     1 RMS=2.61D-06 Max=4.75D-05
 LinEq1:  Iter=  7 NonCon=     1 RMS=5.33D-07 Max=1.03D-05
 LinEq1:  Iter=  8 NonCon=     1 RMS=9.45D-08 Max=1.21D-06
 LinEq1:  Iter=  9 NonCon=     1 RMS=1.30D-08 Max=1.78D-07
 LinEq1:  Iter= 10 NonCon=     1 RMS=1.87D-09 Max=2.11D-08
 LinEq1:  Iter= 11 NonCon=     1 RMS=3.90D-10 Max=5.76D-09
 LinEq1:  Iter= 12 NonCon=     0 RMS=5.37D-11 Max=4.71D-10
 Linear equations converged to 1.000D-10 1.000D-09 after    12 iterations.
 End of Minotr Frequency-dependent properties file   721 does not exist.
 End of Minotr Frequency-dependent properties file   722 does not exist.

 **********************************************************************

            Population analysis using the QCI/CC density.

 **********************************************************************

 Alpha  occ. eigenvalues --  -26.39320 -26.39317 -20.62020 -11.53392  -1.76377
 Alpha  occ. eigenvalues --   -1.68672  -1.47833  -0.95857  -0.86621  -0.81835
 Alpha  occ. eigenvalues --   -0.80635  -0.72758  -0.70590  -0.70517  -0.57651
 Alpha  occ. eigenvalues --   -0.55832
 Alpha virt. eigenvalues --    0.05517   0.07195   0.07794   0.07908   0.15335
 Alpha virt. eigenvalues --    0.17098   0.17196   0.19387   0.19972   0.21580
 Alpha virt. eigenvalues --    0.24816   0.24867   0.26163   0.26400   0.28488
 Alpha virt. eigenvalues --    0.31149   0.34849   0.36132   0.38927   0.41644
 Alpha virt. eigenvalues --    0.44482   0.48614   0.50000   0.52365   0.53574
 Alpha virt. eigenvalues --    0.62891   0.66643   0.69290   0.72304   0.78662
 Alpha virt. eigenvalues --    0.81167   0.81739   0.84772   0.91211   0.93360
 Alpha virt. eigenvalues --    0.96339   0.97293   1.03061   1.04429   1.06900
 Alpha virt. eigenvalues --    1.07453   1.10101   1.10333   1.10733   1.14123
 Alpha virt. eigenvalues --    1.14376   1.18942   1.21738   1.24218   1.26913
 Alpha virt. eigenvalues --    1.28117   1.29868   1.37094   1.40956   1.50227
 Alpha virt. eigenvalues --    1.51639   1.52545   1.55885   1.65652   1.67625
 Alpha virt. eigenvalues --    1.69265   1.75897   1.78391   1.79702   2.03908
 Alpha virt. eigenvalues --    2.22592   2.27757   2.28265   2.33547   2.35665
 Alpha virt. eigenvalues --    2.41257   2.48923   2.55052   2.59586   2.61953
 Alpha virt. eigenvalues --    2.67121   2.70616   2.73193   2.73676   2.77226
 Alpha virt. eigenvalues --    2.80215   2.81826   2.83530   2.88476   2.92358
 Alpha virt. eigenvalues --    2.94332   2.94513   2.94659   3.06098   3.08179
 Alpha virt. eigenvalues --    3.10235   3.10284   3.12250   3.20378   3.23210
 Alpha virt. eigenvalues --    3.31543   3.36252   3.39134   3.46230   3.52591
 Alpha virt. eigenvalues --    3.56044   3.60055   3.63428   3.78938   3.81177
 Alpha virt. eigenvalues --    3.95043   4.00409   4.01884   4.03406   4.07662
 Alpha virt. eigenvalues --    4.21239   4.21332   4.40372   4.41403   4.53192
 Alpha virt. eigenvalues --    4.60129   4.75388   4.77281   4.83438   5.26574
 Alpha virt. eigenvalues --    5.33934   5.46049   5.47038   5.56742   5.74210
 Alpha virt. eigenvalues --    6.12029   6.56991   6.58328   6.68905   6.89026
 Alpha virt. eigenvalues --    7.10471   7.13528   7.18849   7.21295   7.24331
 Alpha virt. eigenvalues --    7.39356   7.50334   7.60653   7.69729   7.69940
 Alpha virt. eigenvalues --    8.78675   8.80136   8.84985   8.86881   9.00267
 Alpha virt. eigenvalues --    9.02642   9.11750   9.13076   9.19416   9.25893
 Alpha virt. eigenvalues --    9.26913   9.30296   9.33125   9.33359   9.33821
 Alpha virt. eigenvalues --    9.35107   9.37106   9.56164   9.61366   9.62768
 Alpha virt. eigenvalues --    9.66524   9.75639   9.87652   9.95854  13.36516
 Alpha virt. eigenvalues --   15.05950  16.18580  17.35768
          Condensed to atoms (all electrons):
              1          2          3          4
     1  O    7.946839   0.500016  -0.079667  -0.079667
     2  C    0.500016   4.519564   0.185127   0.185127
     3  F   -0.079667   0.185127   9.104377  -0.048514
     4  F   -0.079667   0.185127  -0.048514   9.104377
 Mulliken atomic charges:
              1
     1  O   -0.287521
     2  C    0.610166
     3  F   -0.161322
     4  F   -0.161322
 Sum of Mulliken atomic charges =   0.00000
 Mulliken charges with hydrogens summed into heavy atoms:
              1
     1  O   -0.287521
     2  C    0.610166
     3  F   -0.161322
     4  F   -0.161322
 Sum of Mulliken charges with hydrogens summed into heavy atoms =   0.00000
 Electronic spatial extent (au):  <R**2>=            239.4176
 Charge=              0.0000 electrons
 Dipole moment (field-independent basis, Debye):
    X=              0.0000    Y=              0.0000    Z=             -1.0334  Tot=              1.0334
 Quadrupole moment (field-independent basis, Debye-Ang):
   XX=            -18.9049   YY=            -21.3170   ZZ=            -21.9184
   XY=              0.0000   XZ=              0.0000   YZ=              0.0000
 Traceless Quadrupole moment (field-independent basis, Debye-Ang):
   XX=              1.8085   YY=             -0.6035   ZZ=             -1.2050
   XY=              0.0000   XZ=              0.0000   YZ=              0.0000
 Octapole moment (field-independent basis, Debye-Ang**2):
  XXX=              0.0000  YYY=              0.0000  ZZZ=             34.2714  XYY=              0.0000
  XXY=              0.0000  XXZ=             10.3473  XZZ=              0.0000  YZZ=              0.0000
  YYZ=             12.0138  XYZ=              0.0000
 Hexadecapole moment (field-independent basis, Debye-Ang**3):
 XXXX=            -13.4823 YYYY=            -79.9306 ZZZZ=           -132.3927 XXXY=              0.0000
 XXXZ=              0.0000 YYYX=              0.0000 YYYZ=              0.0000 ZZZX=              0.0000
 ZZZY=              0.0000 XXYY=            -15.6413 XXZZ=            -23.5676 YYZZ=            -36.1536
 XXYZ=              0.0000 YYXZ=              0.0000 ZZXY=              0.0000
 N-N= 1.199410577902D+02 E-N=-9.819256002232D+02  KE= 3.123814749347D+02
 Use density number 7.
 DipInt: DoE/N= T T RetVal/Mat= T F Init=T NMatP=  1 IDeriv=0 Min/MaxMlt=  1  1
 Entering OneElI...
 Multipole integrals L=1 to 1 MinM= 0 MaxM= 0.
 Requested accuracy = 0.1000D-12
 PrsmSu:  NPrtUS=   1 ThrOK=F IAlg=1 NPAlg=1 LenDen=           0.
 Prism:   IPart=     0 DynPar=F LinDyn=F Incr=          15.
 PRISM was handed  1073475112 working-precision words and  1593 shell-pairs
 IPart=  0 NShTot=        1593 NBatch=          53 AvBLen=        30.1
 PrSmSu:  NxtVal=             16.
 Entering OneElI...
 Calculate overlap and kinetic energy integrals
    NBasis = 220  MinDer = 1  MaxDer = 1
 Requested accuracy = 0.1000D-12
 PrsmSu:  NPrtUS=   8 ThrOK=T IAlg=1 NPAlg=1 LenDen=           0.
 Prism:   IPart=     0 DynPar=F LinDyn=F Incr=           1.
 PRISM was handed   134140892 working-precision words and  1596 shell-pairs
 PRISM was handed   134140892 working-precision words and  1596 shell-pairs
 PRISM was handed   134140892 working-precision words and  1596 shell-pairs
 PRISM was handed   134140892 working-precision words and  1596 shell-pairs
 PRISM was handed   134140892 working-precision words and  1596 shell-pairs
 PRISM was handed   134140892 working-precision words and  1596 shell-pairs
 PRISM was handed   134140892 working-precision words and  1596 shell-pairs
 PRISM was handed   134140892 working-precision words and  1596 shell-pairs
 IPart=  0 NShTot=         213 NBatch=          42 AvBLen=         5.1
 IPart=  6 NShTot=         188 NBatch=          22 AvBLen=         8.5
 IPart=  4 NShTot=         196 NBatch=          28 AvBLen=         7.0
 IPart=  5 NShTot=         193 NBatch=          25 AvBLen=         7.7
 IPart=  3 NShTot=         203 NBatch=          33 AvBLen=         6.2
 IPart=  2 NShTot=         205 NBatch=          35 AvBLen=         5.9
 IPart=  1 NShTot=         210 NBatch=          40 AvBLen=         5.3
 IPart=  7 NShTot=         188 NBatch=          22 AvBLen=         8.5
 PrSmSu:  NxtVal=              9.
 Entering OneElI...
 Calculate potential energy integrals
    NBasis = 220  MinDer = 1  MaxDer = 1
 Requested accuracy = 0.1000D-12
 PrsmSu:  NPrtUS=   8 ThrOK=T IAlg=1 NPAlg=1 LenDen=           0.
 Prism:   IPart=     0 DynPar=F LinDyn=F Incr=           7.
 PRISM was handed   134150527 working-precision words and  1579 shell-pairs
 PRISM was handed   134150527 working-precision words and  1579 shell-pairs
 PRISM was handed   134150527 working-precision words and  1579 shell-pairs
 PRISM was handed   134150527 working-precision words and  1579 shell-pairs
 PRISM was handed   134150527 working-precision words and  1579 shell-pairs
 PRISM was handed   134150527 working-precision words and  1579 shell-pairs
 PRISM was handed   134150527 working-precision words and  1579 shell-pairs
 PRISM was handed   134150527 working-precision words and  1579 shell-pairs
 IPart=  4 NShTot=         748 NBatch=         187 AvBLen=         4.0
 IPart=  6 NShTot=         724 NBatch=         181 AvBLen=         4.0
 IPart=  3 NShTot=         796 NBatch=         199 AvBLen=         4.0
 IPart=  5 NShTot=         748 NBatch=         187 AvBLen=         4.0
 IPart=  2 NShTot=         808 NBatch=         202 AvBLen=         4.0
 IPart=  1 NShTot=         872 NBatch=         218 AvBLen=         4.0
 IPart=  0 NShTot=         896 NBatch=         224 AvBLen=         4.0
 IPart=  7 NShTot=         724 NBatch=         181 AvBLen=         4.0
 PrSmSu:  NxtVal=             57.
 l701 out
 I=    0 X=   0.000000000000D+00 Y=   0.000000000000D+00 Z=  -4.065517309927D-01
 I=    1 X=   0.000000000000D+00 Y=   0.000000000000D+00 Z=   2.104647303377D+01
 I=    2 X=   0.000000000000D+00 Y=   0.000000000000D+00 Z=  -4.645686479810D+00
 I=    3 X=   0.000000000000D+00 Y=  -1.392380216915D+01 Z=  -8.200393277045D+00
 I=    4 X=   0.000000000000D+00 Y=   1.392380216907D+01 Z=  -8.200393276916D+00
 ICntrl=      2127.
 Calling FoFJK, ICntrl=      2127 FMM=F ISym2X=0 I1Cent= 0 IOpClX= 0 NMat=1 NMatS=1 NMatT=0.
 FoFJK:  IHMeth= 1 ICntrl=  2127 DoSepK=F KAlg= 1 I1Cent= 0 FoldK=F
 FoFCou: FMM=F IPFlag=           0 FMFlag=      100000 FMFlg1=         800
         NFxFlg=           0 DoJE=F BraDBF=F KetDBF=F FulRan=T
         Omega=  0.000000  0.000000  1.000000  0.000000  0.000000 ICntrl=    2127 IOpCl=  0
         NMat0=    1 NMatS0=    1 NMatT0=    0 NMatD0=    1 NMtDS0=    0 NMtDT0=    0
         I1Cent=           0 NGrid=           0.
 Symmetry not used in FoFCou.
 FoFCou:  KetSym=F NOpSet=  1 NOpAb=1 NOp=  1.
 FoFCou:  CnvScl= 1.00D+00 Thresh= 1.00D-10
 PrismS was handed  1073546689 working-precision words and  1593 shell-pairs
 FoFCou: LinMIO=F DoNuc=F BraDBF=F KetDBF=F HaveP=T PDBF=F HaveZ=T HaveW=F
         NIJTC =      10 NIJTAt=       0 NIJTCD=       0 NIJTT =      10
         IJTBeg=       1 IJTEnd=      10 KLTBeg=       1 KLTEnd=      10
         IPTBeg=       1 IPTEnd=      10 IPTBCv=       1 IPTECv=      10
         IZTBeg=       1 IZTEnd=      10 IZTBCv=       1 IZTECv=      10
         IWTBeg=      11 IWTEnd=      10 IWTBCv=      11 IWTECv=      10
         INTBeg=       1 INTEnd=       0 IFTBCv=       1 IFTECv=      10
 NCel replicated for PrismC:     1
 CoulSu:  IncDef=  1024 NBBP=        1269621 NTPThr=   100 NPartT=    8 Incr=        1024 LDynOK=F.
 CoulSu:  NPrtUS=   8 ThrOK=T IAlg=1 NPAlg=1 LenDen=           0.
 Enter PrismC: JobTyp=21 DoJE=F Cont=F.
 PrismC:  IPart=     0 DynPar=T LinDyn=F Incr=        1024 UseFst=F UseS4=T.
 PrismC was handed   134158023 working-precision words and  1593 shell-pairs
 Enter PrismC: JobTyp=21 DoJE=F Cont=F.
 PrismC was handed   134158023 working-precision words and  1593 shell-pairs
 Enter PrismC: JobTyp=21 DoJE=F Cont=F.
 Enter PrismC: JobTyp=21 DoJE=F Cont=F.
 PrismC was handed   134158023 working-precision words and  1593 shell-pairs
 PrismC was handed   134158023 working-precision words and  1593 shell-pairs
 Enter PrismC: JobTyp=21 DoJE=F Cont=F.
 Enter PrismC: JobTyp=21 DoJE=F Cont=F.
 Enter PrismC: JobTyp=21 DoJE=F Cont=F.
 PrismC was handed   134158023 working-precision words and  1593 shell-pairs
 PrismC was handed   134158023 working-precision words and  1593 shell-pairs
 PrismC was handed   134158023 working-precision words and  1593 shell-pairs
 Enter PrismC: JobTyp=21 DoJE=F Cont=F.
 PrismC was handed   134158023 working-precision words and  1593 shell-pairs
 IPart=  7 NShTot=      157443 NShNF=      157443 NShFF=           0 NBatch=         554 AvBLen=       284.2
 IPart=  5 NShTot=      125436 NShNF=      125436 NShFF=           0 NBatch=         480 AvBLen=       261.3
 IPart=  2 NShTot=      163296 NShNF=      163296 NShFF=           0 NBatch=         582 AvBLen=       280.6
 IPart=  1 NShTot=      156838 NShNF=      156838 NShFF=           0 NBatch=         571 AvBLen=       274.7
 IPart=  3 NShTot=      151074 NShNF=      151074 NShFF=           0 NBatch=         595 AvBLen=       253.9
 IPart=  4 NShTot=      163366 NShNF=      163366 NShFF=           0 NBatch=         591 AvBLen=       276.4
 IPart=  0 NShTot=      122938 NShNF=      122938 NShFF=           0 NBatch=         492 AvBLen=       249.9
 IPart=  6 NShTot=      165605 NShNF=      165605 NShFF=           0 NBatch=         599 AvBLen=       276.5
 CoulSu:  NxtVal=        1343489.
 Forces at end of L703
 I=    0 X=   0.000000000000D+00 Y=   0.000000000000D+00 Z=  -4.065517309927D-01
 I=    1 X=   0.000000000000D+00 Y=   0.000000000000D+00 Z=  -2.079153117194D-04
 I=    2 X=   0.000000000000D+00 Y=   0.000000000000D+00 Z=   2.456728131293D-04
 I=    3 X=   0.000000000000D+00 Y=  -5.784941651221D-05 Z=  -1.887875086837D-05
 I=    4 X=   0.000000000000D+00 Y=   5.784941672538D-05 Z=  -1.887875043849D-05
 FrcOut:
 IF    =    56 IFX   =    68 IFXYZ =    80
 IFFX  =    92 IFFFX =    92 IFLen =    12
 IFFLen=     0 IFFFLn=     0 IEDerv=    92
 LEDerv=   629 IFroze=   725 ICStrt= 68858
 DipInt: DoE/N= T T RetVal/Mat= T F Init=T NMatP=  1 IDeriv=0 Min/MaxMlt=  1  1
 Entering OneElI...
 Multipole integrals L=1 to 1 MinM= 0 MaxM= 0.
 Requested accuracy = 0.1000D-12
 PrsmSu:  NPrtUS=   1 ThrOK=F IAlg=1 NPAlg=1 LenDen=           0.
 Prism:   IPart=     0 DynPar=F LinDyn=F Incr=          15.
 PRISM was handed  1073527826 working-precision words and  1593 shell-pairs
 IPart=  0 NShTot=        1593 NBatch=          53 AvBLen=        30.1
 PrSmSu:  NxtVal=             16.
 Computed dipole moment (without fudge factor):
 X= 0.2297545602508D-14   Y= 0.6750155989721D-13   Z=-0.4065517309927D+00
 Quadrupole    = 1.34459370D+00-4.48709594D-01-8.95884106D-01
                 2.32243673D-15 5.90335390D-16-2.33591368D-13
 -------------------------------------------------------------------
 Center     Atomic                   Forces (Hartrees/Bohr)
 Number     Number              X              Y              Z
 -------------------------------------------------------------------
      1        8           0.000000000    0.000000000    0.000207915
      2        6           0.000000000    0.000000000   -0.000245673
      3        9           0.000000000    0.000057849    0.000018879
      4        9           0.000000000   -0.000057849    0.000018879
 -------------------------------------------------------------------
 Cartesian Forces:  Max     0.000245673 RMS     0.000096173
 Z-matrix is all fixed cartesians, so copy forces.
 Final forces over variables, Energy=-3.12635293D+02:
 -6.91126030D-14 7.56313684D-14-6.65186572D-15 1.33100345D-16
 -1.60125173D-13 4.80196449D-13 5.78494165D-05-5.78494167D-05
  2.07915312D-04-2.45672813D-04 1.88787509D-05 1.88787504D-05
 NDeriv=  12 NFrqRd=  0 LFDDif=       1
 NDeriv=  12 NFrqRd=  0 LFDDif=       1
 At 1st pt Frequency-dependent properties file   721 does not exist.
 D2Numr ... symmetry will not be used.
 Standard basis: Aug-CC-pVTZ (5D, 7F)
 Integral buffers will be    131072 words long.
 Raffenetti 1 integral format.
 Two-electron integral symmetry is turned off.
   184 basis functions,   288 primitive gaussians,   220 cartesian basis functions
    16 alpha electrons       16 beta electrons
       nuclear repulsion energy       119.9410463926 Hartrees.
 NAtoms=    4 NActive=    4 NUniq=    4 SFac= 1.00D+00 NAtFMM=   50 NAOKFM=F Big=F
 One-electron integrals computed using PRISM.
 NBasis=   184 RedAO= T  NBF=   184
 NBsUse=   184 1.00D-06 NBFU=   184
 Initial guess read from the read-write file.
 B after Tr=     0.000000    0.000000    0.000000
         Rot=    1.000000    0.000000    0.000000    0.000000 Ang=   0.00 deg.
 Requested convergence on RMS density matrix=1.00D-08 within 128 cycles.
 Requested convergence on MAX density matrix=1.00D-06.
 Requested convergence on             energy=1.00D-06.
 No special actions if energy rises.
 Keep R1 ints in memory in canonical form, NReq=301063473.
 SCF Done:  E(RHF) =  -311.741239597     A.U. after    6 cycles
             Convg  =    0.3403D-08             -V/T =  2.0014
 ExpMin= 3.57D-02 ExpMax= 1.95D+04 ExpMxC= 6.65D+02 IAcc=3 IRadAn=         5 AccDes= 0.00D+00
 HarFok:  IExCor=  205 AccDes= 0.00D+00 IRadAn=         5 IDoV=-2
 ScaDFX=  1.000000  1.000000  1.000000  1.000000
 DSYEVD returned Info=          93 IAlg= 4 N=    46 NDim=    46 NE2=    23339802 trying DSYEV.
 DSYEVD returned Info=          93 IAlg= 4 N=    46 NDim=    46 NE2=    23339802 trying DSYEV.
 Range of M.O.s used for correlation:     5   184
 NBasis=   184 NAE=    16 NBE=    16 NFC=     4 NFV=     0
 NROrb=    180 NOA=    12 NOB=    12 NVA=   168 NVB=   168

 **** Warning!!: The largest alpha MO coefficient is  0.15547101D+02

 Semi-Direct transformation.
 ModeAB=           2 MOrb=            12 LenV=    1072785587
 LASXX=     33405819 LTotXX=    33405819 LenRXX=    33405819
 LTotAB=    33954012 MaxLAS=    52509600 LenRXY=    52509600
 NonZer=    66811638 LenScr=   100987392 LnRSAI=           0
 LnScr1=           0 LExtra=           0 Total=    186902811
 MaxDsk=          -1 SrtSym=           F ITran=            4
 JobTyp=0 Pass  1:  I=   1 to  12.
 (rs|ai) integrals will be sorted in core.
 Spin components of T(2) and E(2):
     alpha-alpha T2 =       0.2657353130D-01 E2=     -0.1191087855D+00
     alpha-beta  T2 =       0.1371258853D+00 E2=     -0.6576864045D+00
     beta-beta   T2 =       0.2657353130D-01 E2=     -0.1191087855D+00
 ANorm=    0.1090996310D+01
 E2 =    -0.8959039754D+00 EUMP2 =    -0.31263714357256D+03
 R2 and R3 integrals will be kept in memory, NReq=   596397230.
 Iterations=  50 Convergence= 0.100D-07
 Iteration Nr.   1
 **********************
 DD1Dir will call FoFMem   1 times, MxPair=       156
 NAB=    78 NAA=     0 NBB=     0.
 MP4(R+Q)=  0.16056903D-01
 E3=        0.12499247D-01        EUMP3=      -0.31262464433D+03
 E4(DQ)=    0.45721697D-03        UMP4(DQ)=   -0.31262418711D+03
 E4(SDQ)=  -0.11145917D-01        UMP4(SDQ)=  -0.31263579024D+03
 DE(Corr)= -0.86734783     E(Corr)=     -312.60858742    
 NORM(A)=   0.10858757D+01
 Iteration Nr.   2
 **********************
 DD1Dir will call FoFMem   1 times, MxPair=       156
 NAB=    78 NAA=     0 NBB=     0.
 DE(Corr)= -0.89321519     E(CORR)=     -312.63445479     Delta=-2.59D-02
 NORM(A)=   0.10931754D+01
 Iteration Nr.   3
 **********************
 DD1Dir will call FoFMem   1 times, MxPair=       156
 NAB=    78 NAA=     0 NBB=     0.
 DE(Corr)= -0.89145720     E(CORR)=     -312.63269679     Delta= 1.76D-03
 NORM(A)=   0.10954068D+01
 Iteration Nr.   4
 **********************
 DD1Dir will call FoFMem   1 times, MxPair=       156
 NAB=    78 NAA=     0 NBB=     0.
 DE(Corr)= -0.89375990     E(CORR)=     -312.63499949     Delta=-2.30D-03
 NORM(A)=   0.10962132D+01
 Iteration Nr.   5
 **********************
 DD1Dir will call FoFMem   1 times, MxPair=       156
 NAB=    78 NAA=     0 NBB=     0.
 DE(Corr)= -0.89402570     E(CORR)=     -312.63526529     Delta=-2.66D-04
 NORM(A)=   0.10963956D+01
 Iteration Nr.   6
 **********************
 DD1Dir will call FoFMem   1 times, MxPair=       156
 NAB=    78 NAA=     0 NBB=     0.
 DE(Corr)= -0.89405219     E(CORR)=     -312.63529179     Delta=-2.65D-05
 NORM(A)=   0.10964089D+01
 Iteration Nr.   7
 **********************
 DD1Dir will call FoFMem   1 times, MxPair=       156
 NAB=    78 NAA=     0 NBB=     0.
 DE(Corr)= -0.89405381     E(CORR)=     -312.63529341     Delta=-1.62D-06
 NORM(A)=   0.10964087D+01
 Iteration Nr.   8
 **********************
 DD1Dir will call FoFMem   1 times, MxPair=       156
 NAB=    78 NAA=     0 NBB=     0.
 DE(Corr)= -0.89405280     E(CORR)=     -312.63529240     Delta= 1.01D-06
 NORM(A)=   0.10964092D+01
 Iteration Nr.   9
 **********************
 DD1Dir will call FoFMem   1 times, MxPair=       156
 NAB=    78 NAA=     0 NBB=     0.
 DE(Corr)= -0.89405320     E(CORR)=     -312.63529279     Delta=-3.99D-07
 NORM(A)=   0.10964092D+01
 Iteration Nr.  10
 **********************
 DD1Dir will call FoFMem   1 times, MxPair=       156
 NAB=    78 NAA=     0 NBB=     0.
 DE(Corr)= -0.89405310     E(CORR)=     -312.63529269     Delta= 1.00D-07
 NORM(A)=   0.10964093D+01
 Iteration Nr.  11
 **********************
 DD1Dir will call FoFMem   1 times, MxPair=       156
 NAB=    78 NAA=     0 NBB=     0.
 DE(Corr)= -0.89405357     E(CORR)=     -312.63529317     Delta=-4.71D-07
 NORM(A)=   0.10964096D+01
 Iteration Nr.  12
 **********************
 DD1Dir will call FoFMem   1 times, MxPair=       156
 NAB=    78 NAA=     0 NBB=     0.
 DE(Corr)= -0.89405360     E(CORR)=     -312.63529320     Delta=-3.37D-08
 NORM(A)=   0.10964098D+01
 Iteration Nr.  13
 **********************
 DD1Dir will call FoFMem   1 times, MxPair=       156
 NAB=    78 NAA=     0 NBB=     0.
 DE(Corr)= -0.89405370     E(CORR)=     -312.63529330     Delta=-9.62D-08
 NORM(A)=   0.10964099D+01
 Iteration Nr.  14
 **********************
 DD1Dir will call FoFMem   1 times, MxPair=       156
 NAB=    78 NAA=     0 NBB=     0.
 DE(Corr)= -0.89405371     E(CORR)=     -312.63529331     Delta=-1.60D-08
 NORM(A)=   0.10964099D+01
 Iteration Nr.  15
 **********************
 DD1Dir will call FoFMem   1 times, MxPair=       156
 NAB=    78 NAA=     0 NBB=     0.
 DE(Corr)= -0.89405372     E(CORR)=     -312.63529332     Delta=-9.02D-09
 NORM(A)=   0.10964099D+01
 Iteration Nr.  16
 **********************
 DD1Dir will call FoFMem   1 times, MxPair=       156
 NAB=    78 NAA=     0 NBB=     0.
 DE(Corr)= -0.89405373     E(CORR)=     -312.63529332     Delta=-3.84D-09
 NORM(A)=   0.10964099D+01
 Largest amplitude= 5.78D-02

 Z-AMPLITUDE ITERATIONS

 Iteration Nr.   1
 **********************
 DD1Dir will call FoFMem   1 times, MxPair=       156
 NAB=    78 NAA=     0 NBB=     0.
 DE(Z)  -0.87475078D+00          E(Z)=    -0.31261599038D+03
 NORM(A)=   0.10963950D+01
 Iteration Nr.   2
 **********************
 DD1Dir will call FoFMem   1 times, MxPair=       156
 NAB=    78 NAA=     0 NBB=     0.
 DE(Z)  -0.87475073D+00          E(Z)=    -0.31261599033D+03
 NORM(A)=   0.10963749D+01
 Iteration Nr.   3
 **********************
 DD1Dir will call FoFMem   1 times, MxPair=       156
 NAB=    78 NAA=     0 NBB=     0.
 DE(Z)  -0.87475038D+00          E(Z)=    -0.31261598998D+03
 NORM(A)=   0.10963736D+01
 Iteration Nr.   4
 **********************
 DD1Dir will call FoFMem   1 times, MxPair=       156
 NAB=    78 NAA=     0 NBB=     0.
 DE(Z)  -0.87475049D+00          E(Z)=    -0.31261599008D+03
 NORM(A)=   0.10958442D+01
 Iteration Nr.   5
 **********************
 DD1Dir will call FoFMem   1 times, MxPair=       156
 NAB=    78 NAA=     0 NBB=     0.
 DE(Z)  -0.87474313D+00          E(Z)=    -0.31261598272D+03
 NORM(A)=   0.10919681D+01
 Iteration Nr.   6
 **********************
 DD1Dir will call FoFMem   1 times, MxPair=       156
 NAB=    78 NAA=     0 NBB=     0.
 DE(Z)  -0.87469505D+00          E(Z)=    -0.31261593465D+03
 NORM(A)=   0.10919687D+01
 Iteration Nr.   7
 **********************
 DD1Dir will call FoFMem   1 times, MxPair=       156
 NAB=    78 NAA=     0 NBB=     0.
 DE(Z)  -0.87469315D+00          E(Z)=    -0.31261593275D+03
 NORM(A)=   0.10919680D+01
 Iteration Nr.   8
 **********************
 DD1Dir will call FoFMem   1 times, MxPair=       156
 NAB=    78 NAA=     0 NBB=     0.
 DE(Z)  -0.87469395D+00          E(Z)=    -0.31261593355D+03
 NORM(A)=   0.10919682D+01
 Iteration Nr.   9
 **********************
 DD1Dir will call FoFMem   1 times, MxPair=       156
 NAB=    78 NAA=     0 NBB=     0.
 DE(Z)  -0.87469393D+00          E(Z)=    -0.31261593353D+03
 NORM(A)=   0.10919683D+01
 Iteration Nr.  10
 **********************
 DD1Dir will call FoFMem   1 times, MxPair=       156
 NAB=    78 NAA=     0 NBB=     0.
 DE(Z)  -0.87469388D+00          E(Z)=    -0.31261593348D+03
 NORM(A)=   0.10919683D+01
 Iteration Nr.  11
 **********************
 DD1Dir will call FoFMem   1 times, MxPair=       156
 NAB=    78 NAA=     0 NBB=     0.
 DE(Z)  -0.87469393D+00          E(Z)=    -0.31261593353D+03
 NORM(A)=   0.10919683D+01
 Iteration Nr.  12
 **********************
 DD1Dir will call FoFMem   1 times, MxPair=       156
 NAB=    78 NAA=     0 NBB=     0.
 DE(Z)  -0.87469393D+00          E(Z)=    -0.31261593352D+03
 NORM(A)=   0.10919683D+01
 Iteration Nr.  13
 **********************
 DD1Dir will call FoFMem   1 times, MxPair=       156
 NAB=    78 NAA=     0 NBB=     0.
 DE(Z)  -0.87469393D+00          E(Z)=    -0.31261593353D+03
 NORM(A)=   0.10919683D+01
 Discarding MO integrals.
          IDoAtm=1111
          Differentiating once with respect to electric field.
                with respect to dipole field.
          Differentiating once with respect to nuclear coordinates.
          Keep R1 ints in memory in canonical form, NReq=297441390.
          There are     1 degrees of freedom in the 1st order CPHF.  IDoFFX=0.
 LinEq1:  Iter=  0 NonCon=     1 RMS=3.07D-03 Max=8.45D-02
 AX will form     1 AO Fock derivatives at one time.
 LinEq1:  Iter=  1 NonCon=     1 RMS=7.55D-04 Max=1.11D-02
 LinEq1:  Iter=  2 NonCon=     1 RMS=2.24D-04 Max=3.37D-03
 LinEq1:  Iter=  3 NonCon=     1 RMS=9.87D-05 Max=1.57D-03
 LinEq1:  Iter=  4 NonCon=     1 RMS=2.27D-05 Max=3.72D-04
 LinEq1:  Iter=  5 NonCon=     1 RMS=1.09D-05 Max=2.98D-04
 LinEq1:  Iter=  6 NonCon=     1 RMS=2.61D-06 Max=4.75D-05
 LinEq1:  Iter=  7 NonCon=     1 RMS=5.33D-07 Max=1.03D-05
 LinEq1:  Iter=  8 NonCon=     1 RMS=9.45D-08 Max=1.21D-06
 LinEq1:  Iter=  9 NonCon=     1 RMS=1.30D-08 Max=1.78D-07
 LinEq1:  Iter= 10 NonCon=     1 RMS=1.87D-09 Max=2.11D-08
 LinEq1:  Iter= 11 NonCon=     1 RMS=3.90D-10 Max=5.76D-09
 LinEq1:  Iter= 12 NonCon=     0 RMS=5.37D-11 Max=4.71D-10
 Linear equations converged to 1.000D-10 1.000D-09 after    12 iterations.
 End of Minotr Frequency-dependent properties file   721 does not exist.
 End of Minotr Frequency-dependent properties file   722 does not exist.

 **********************************************************************

            Population analysis using the QCI/CC density.

 **********************************************************************

 Alpha  occ. eigenvalues --  -26.39320 -26.39317 -20.62020 -11.53392  -1.76377
 Alpha  occ. eigenvalues --   -1.68672  -1.47833  -0.95857  -0.86621  -0.81835
 Alpha  occ. eigenvalues --   -0.80635  -0.72758  -0.70590  -0.70517  -0.57651
 Alpha  occ. eigenvalues --   -0.55832
 Alpha virt. eigenvalues --    0.05517   0.07195   0.07794   0.07908   0.15335
 Alpha virt. eigenvalues --    0.17098   0.17196   0.19387   0.19972   0.21580
 Alpha virt. eigenvalues --    0.24816   0.24867   0.26163   0.26400   0.28488
 Alpha virt. eigenvalues --    0.31149   0.34849   0.36132   0.38927   0.41644
 Alpha virt. eigenvalues --    0.44482   0.48614   0.50000   0.52365   0.53574
 Alpha virt. eigenvalues --    0.62891   0.66643   0.69289   0.72304   0.78662
 Alpha virt. eigenvalues --    0.81167   0.81739   0.84772   0.91211   0.93360
 Alpha virt. eigenvalues --    0.96339   0.97293   1.03061   1.04429   1.06900
 Alpha virt. eigenvalues --    1.07453   1.10101   1.10333   1.10733   1.14123
 Alpha virt. eigenvalues --    1.14376   1.18942   1.21738   1.24218   1.26913
 Alpha virt. eigenvalues --    1.28118   1.29868   1.37094   1.40956   1.50227
 Alpha virt. eigenvalues --    1.51639   1.52545   1.55885   1.65652   1.67625
 Alpha virt. eigenvalues --    1.69265   1.75897   1.78391   1.79702   2.03908
 Alpha virt. eigenvalues --    2.22592   2.27756   2.28266   2.33547   2.35665
 Alpha virt. eigenvalues --    2.41257   2.48923   2.55052   2.59586   2.61953
 Alpha virt. eigenvalues --    2.67121   2.70616   2.73193   2.73676   2.77226
 Alpha virt. eigenvalues --    2.80215   2.81826   2.83530   2.88476   2.92358
 Alpha virt. eigenvalues --    2.94331   2.94513   2.94659   3.06098   3.08179
 Alpha virt. eigenvalues --    3.10234   3.10284   3.12250   3.20378   3.23210
 Alpha virt. eigenvalues --    3.31543   3.36252   3.39134   3.46230   3.52591
 Alpha virt. eigenvalues --    3.56044   3.60055   3.63428   3.78938   3.81177
 Alpha virt. eigenvalues --    3.95042   4.00409   4.01884   4.03407   4.07662
 Alpha virt. eigenvalues --    4.21239   4.21332   4.40372   4.41403   4.53192
 Alpha virt. eigenvalues --    4.60129   4.75388   4.77281   4.83438   5.26574
 Alpha virt. eigenvalues --    5.33934   5.46049   5.47038   5.56742   5.74210
 Alpha virt. eigenvalues --    6.12029   6.56991   6.58328   6.68905   6.89026
 Alpha virt. eigenvalues --    7.10471   7.13527   7.18849   7.21294   7.24332
 Alpha virt. eigenvalues --    7.39356   7.50334   7.60653   7.69729   7.69940
 Alpha virt. eigenvalues --    8.78675   8.80136   8.84985   8.86881   9.00267
 Alpha virt. eigenvalues --    9.02642   9.11750   9.13076   9.19416   9.25893
 Alpha virt. eigenvalues --    9.26913   9.30296   9.33125   9.33359   9.33821
 Alpha virt. eigenvalues --    9.35107   9.37106   9.56164   9.61366   9.62768
 Alpha virt. eigenvalues --    9.66524   9.75639   9.87652   9.95854  13.36516
 Alpha virt. eigenvalues --   15.05950  16.18579  17.35767
          Condensed to atoms (all electrons):
              1          2          3          4
     1  O    7.946839   0.500016  -0.079667  -0.079667
     2  C    0.500016   4.519564   0.185127   0.185127
     3  F   -0.079667   0.185127   9.104377  -0.048514
     4  F   -0.079667   0.185127  -0.048514   9.104377
 Mulliken atomic charges:
              1
     1  O   -0.287521
     2  C    0.610166
     3  F   -0.161322
     4  F   -0.161322
 Sum of Mulliken atomic charges =   0.00000
 Mulliken charges with hydrogens summed into heavy atoms:
              1
     1  O   -0.287521
     2  C    0.610166
     3  F   -0.161322
     4  F   -0.161322
 Sum of Mulliken charges with hydrogens summed into heavy atoms =   0.00000
 Electronic spatial extent (au):  <R**2>=            239.4176
 Charge=              0.0000 electrons
 Dipole moment (field-independent basis, Debye):
    X=             -0.0017    Y=              0.0000    Z=             -1.0334  Tot=              1.0334
 Quadrupole moment (field-independent basis, Debye-Ang):
   XX=            -18.9049   YY=            -21.3170   ZZ=            -21.9184
   XY=              0.0000   XZ=             -0.0013   YZ=              0.0000
 Traceless Quadrupole moment (field-independent basis, Debye-Ang):
   XX=              1.8085   YY=             -0.6035   ZZ=             -1.2050
   XY=              0.0000   XZ=             -0.0013   YZ=              0.0000
 Octapole moment (field-independent basis, Debye-Ang**2):
  XXX=             -0.0158  YYY=              0.0000  ZZZ=             34.2714  XYY=             -0.0052
  XXY=              0.0000  XXZ=             10.3473  XZZ=             -0.0051  YZZ=              0.0000
  YYZ=             12.0138  XYZ=              0.0000
 Hexadecapole moment (field-independent basis, Debye-Ang**3):
 XXXX=            -13.4823 YYYY=            -79.9306 ZZZZ=           -132.3927 XXXY=              0.0000
 XXXZ=             -0.0111 YYYX=              0.0000 YYYZ=              0.0000 ZZZX=             -0.0125
 ZZZY=              0.0000 XXYY=            -15.6413 XXZZ=            -23.5676 YYZZ=            -36.1536
 XXYZ=              0.0000 YYXZ=             -0.0046 ZZXY=              0.0000
 N-N= 1.199410463926D+02 E-N=-9.819255761568D+02  KE= 3.123814734522D+02
 Use density number 7.
 DipInt: DoE/N= T T RetVal/Mat= T F Init=T NMatP=  1 IDeriv=0 Min/MaxMlt=  1  1
 Entering OneElI...
 Multipole integrals L=1 to 1 MinM= 0 MaxM= 0.
 Requested accuracy = 0.1000D-12
 PrsmSu:  NPrtUS=   1 ThrOK=F IAlg=1 NPAlg=1 LenDen=           0.
 Prism:   IPart=     0 DynPar=F LinDyn=F Incr=          15.
 PRISM was handed  1073475112 working-precision words and  1593 shell-pairs
 IPart=  0 NShTot=        1593 NBatch=          53 AvBLen=        30.1
 PrSmSu:  NxtVal=             16.
 Entering OneElI...
 Calculate overlap and kinetic energy integrals
    NBasis = 220  MinDer = 1  MaxDer = 1
 Requested accuracy = 0.1000D-12
 PrsmSu:  NPrtUS=   8 ThrOK=T IAlg=1 NPAlg=1 LenDen=           0.
 Prism:   IPart=     0 DynPar=F LinDyn=F Incr=           1.
 PRISM was handed   134140892 working-precision words and  1596 shell-pairs
 PRISM was handed   134140892 working-precision words and  1596 shell-pairs
 PRISM was handed   134140892 working-precision words and  1596 shell-pairs
 PRISM was handed   134140892 working-precision words and  1596 shell-pairs
 PRISM was handed   134140892 working-precision words and  1596 shell-pairs
 PRISM was handed   134140892 working-precision words and  1596 shell-pairs
 PRISM was handed   134140892 working-precision words and  1596 shell-pairs
 PRISM was handed   134140892 working-precision words and  1596 shell-pairs
 IPart=  0 NShTot=         213 NBatch=          42 AvBLen=         5.1
 IPart=  5 NShTot=         193 NBatch=          25 AvBLen=         7.7
 IPart=  4 NShTot=         196 NBatch=          28 AvBLen=         7.0
 IPart=  1 NShTot=         210 NBatch=          40 AvBLen=         5.3
 IPart=  3 NShTot=         203 NBatch=          33 AvBLen=         6.2
 IPart=  6 NShTot=         188 NBatch=          22 AvBLen=         8.5
 IPart=  7 NShTot=         188 NBatch=          22 AvBLen=         8.5
 IPart=  2 NShTot=         205 NBatch=          35 AvBLen=         5.9
 PrSmSu:  NxtVal=              9.
 Entering OneElI...
 Calculate potential energy integrals
    NBasis = 220  MinDer = 1  MaxDer = 1
 Requested accuracy = 0.1000D-12
 PrsmSu:  NPrtUS=   8 ThrOK=T IAlg=1 NPAlg=1 LenDen=           0.
 Prism:   IPart=     0 DynPar=F LinDyn=F Incr=           7.
 PRISM was handed   134150527 working-precision words and  1579 shell-pairs
 PRISM was handed   134150527 working-precision words and  1579 shell-pairs
 PRISM was handed   134150527 working-precision words and  1579 shell-pairs
 PRISM was handed   134150527 working-precision words and  1579 shell-pairs
 PRISM was handed   134150527 working-precision words and  1579 shell-pairs
 PRISM was handed   134150527 working-precision words and  1579 shell-pairs
 PRISM was handed   134150527 working-precision words and  1579 shell-pairs
 PRISM was handed   134150527 working-precision words and  1579 shell-pairs
 IPart=  1 NShTot=         872 NBatch=         218 AvBLen=         4.0
 IPart=  5 NShTot=         748 NBatch=         187 AvBLen=         4.0
 IPart=  4 NShTot=         748 NBatch=         187 AvBLen=         4.0
 IPart=  3 NShTot=         796 NBatch=         199 AvBLen=         4.0
 IPart=  0 NShTot=         896 NBatch=         224 AvBLen=         4.0
 IPart=  6 NShTot=         724 NBatch=         181 AvBLen=         4.0
 IPart=  7 NShTot=         724 NBatch=         181 AvBLen=         4.0
 IPart=  2 NShTot=         808 NBatch=         202 AvBLen=         4.0
 PrSmSu:  NxtVal=             57.
 l701 out
 I=    0 X=  -6.622520984684D-04 Y=   0.000000000000D+00 Z=  -4.065523111705D-01
 I=    1 X=   1.688270745366D-02 Y=   0.000000000000D+00 Z=   2.104645494024D+01
 I=    2 X=  -1.484307852421D-02 Y=   0.000000000000D+00 Z=  -4.645668322567D+00
 I=    3 X=  -1.019814464628D-03 Y=  -1.392380156014D+01 Z=  -8.200393308812D+00
 I=    4 X=  -1.019814464819D-03 Y=   1.392380156025D+01 Z=  -8.200393308863D+00
 ICntrl=      2127.
 Calling FoFJK, ICntrl=      2127 FMM=F ISym2X=0 I1Cent= 0 IOpClX= 0 NMat=1 NMatS=1 NMatT=0.
 FoFJK:  IHMeth= 1 ICntrl=  2127 DoSepK=F KAlg= 1 I1Cent= 0 FoldK=F
 FoFCou: FMM=F IPFlag=           0 FMFlag=      100000 FMFlg1=         800
         NFxFlg=           0 DoJE=F BraDBF=F KetDBF=F FulRan=T
         Omega=  0.000000  0.000000  1.000000  0.000000  0.000000 ICntrl=    2127 IOpCl=  0
         NMat0=    1 NMatS0=    1 NMatT0=    0 NMatD0=    1 NMtDS0=    0 NMtDT0=    0
         I1Cent=           0 NGrid=           0.
 Symmetry not used in FoFCou.
 FoFCou:  KetSym=F NOpSet=  1 NOpAb=1 NOp=  1.
 FoFCou:  CnvScl= 1.00D+00 Thresh= 1.00D-10
 PrismS was handed  1073546689 working-precision words and  1593 shell-pairs
 FoFCou: LinMIO=F DoNuc=F BraDBF=F KetDBF=F HaveP=T PDBF=F HaveZ=T HaveW=F
         NIJTC =      10 NIJTAt=       0 NIJTCD=       0 NIJTT =      10
         IJTBeg=       1 IJTEnd=      10 KLTBeg=       1 KLTEnd=      10
         IPTBeg=       1 IPTEnd=      10 IPTBCv=       1 IPTECv=      10
         IZTBeg=       1 IZTEnd=      10 IZTBCv=       1 IZTECv=      10
         IWTBeg=      11 IWTEnd=      10 IWTBCv=      11 IWTECv=      10
         INTBeg=       1 INTEnd=       0 IFTBCv=       1 IFTECv=      10
 NCel replicated for PrismC:     1
 CoulSu:  IncDef=  1024 NBBP=        1269621 NTPThr=   100 NPartT=    8 Incr=        1024 LDynOK=F.
 CoulSu:  NPrtUS=   8 ThrOK=T IAlg=1 NPAlg=1 LenDen=           0.
 Enter PrismC: JobTyp=21 DoJE=F Cont=F.
 PrismC:  IPart=     0 DynPar=T LinDyn=F Incr=        1024 UseFst=F UseS4=T.
 PrismC was handed   134158023 working-precision words and  1593 shell-pairs
 Enter PrismC: JobTyp=21 DoJE=F Cont=F.
 PrismC was handed   134158023 working-precision words and  1593 shell-pairs
 Enter PrismC: JobTyp=21 DoJE=F Cont=F.
 PrismC was handed   134158023 working-precision words and  1593 shell-pairs
 Enter PrismC: JobTyp=21 DoJE=F Cont=F.
 Enter PrismC: JobTyp=21 DoJE=F Cont=F.
 PrismC was handed   134158023 working-precision words and  1593 shell-pairs
 PrismC was handed   134158023 working-precision words and  1593 shell-pairs
 Enter PrismC: JobTyp=21 DoJE=F Cont=F.
 Enter PrismC: JobTyp=21 DoJE=F Cont=F.
 Enter PrismC: JobTyp=21 DoJE=F Cont=F.
 PrismC was handed   134158023 working-precision words and  1593 shell-pairs
 PrismC was handed   134158023 working-precision words and  1593 shell-pairs
 PrismC was handed   134158023 working-precision words and  1593 shell-pairs
 IPart=  6 NShTot=      140939 NShNF=      140939 NShFF=           0 NBatch=         498 AvBLen=       283.0
 IPart=  5 NShTot=      138797 NShNF=      138797 NShFF=           0 NBatch=         551 AvBLen=       251.9
 IPart=  3 NShTot=      164185 NShNF=      164185 NShFF=           0 NBatch=         588 AvBLen=       279.2
 IPart=  2 NShTot=      149412 NShNF=      149412 NShFF=           0 NBatch=         560 AvBLen=       266.8
 IPart=  1 NShTot=      159158 NShNF=      159158 NShFF=           0 NBatch=         547 AvBLen=       291.0
 IPart=  4 NShTot=      136487 NShNF=      136487 NShFF=           0 NBatch=         561 AvBLen=       243.3
 IPart=  0 NShTot=      146533 NShNF=      146533 NShFF=           0 NBatch=         568 AvBLen=       258.0
 IPart=  7 NShTot=      170485 NShNF=      170485 NShFF=           0 NBatch=         591 AvBLen=       288.5
 CoulSu:  NxtVal=        1343489.
 Forces at end of L703
 I=    0 X=  -6.622520984684D-04 Y=   0.000000000000D+00 Z=  -4.065523111705D-01
 I=    1 X=   6.908236292823D-05 Y=   0.000000000000D+00 Z=  -2.073096716728D-04
 I=    2 X=  -1.742067215693D-04 Y=   0.000000000000D+00 Z=   2.452818999723D-04
 I=    3 X=   5.256217932221D-05 Y=  -5.790304741993D-05 Z=  -1.898611464668D-05
 I=    4 X=   5.256217931883D-05 Y=   5.790304740394D-05 Z=  -1.898611382778D-05
 FrcOut:
 IF    =    56 IFX   =    68 IFXYZ =    80
 IFFX  =    92 IFFFX =    92 IFLen =    12
 IFFLen=     0 IFFFLn=     0 IEDerv=    92
 LEDerv=   629 IFroze=   725 ICStrt= 68858
 DipInt: DoE/N= T T RetVal/Mat= T F Init=T NMatP=  1 IDeriv=0 Min/MaxMlt=  1  1
 Entering OneElI...
 Multipole integrals L=1 to 1 MinM= 0 MaxM= 0.
 Requested accuracy = 0.1000D-12
 PrsmSu:  NPrtUS=   1 ThrOK=F IAlg=1 NPAlg=1 LenDen=           0.
 Prism:   IPart=     0 DynPar=F LinDyn=F Incr=          15.
 PRISM was handed  1073527826 working-precision words and  1593 shell-pairs
 IPart=  0 NShTot=        1593 NBatch=          53 AvBLen=        30.1
 PrSmSu:  NxtVal=             16.
 Computed dipole moment (without fudge factor):
 X=-0.6622520984684D-03   Y= 0.2309263891220D-12   Z=-0.4065523111705D+00
 Quadrupole    = 1.34459176D+00-4.48708987D-01-8.95882771D-01
                -5.11210624D-15-9.99119448D-04-1.44504619D-13
 -------------------------------------------------------------------
 Center     Atomic                   Forces (Hartrees/Bohr)
 Number     Number              X              Y              Z
 -------------------------------------------------------------------
      1        8          -0.000069082    0.000000000    0.000207310
      2        6           0.000174207    0.000000000   -0.000245282
      3        9          -0.000052562    0.000057903    0.000018986
      4        9          -0.000052562   -0.000057903    0.000018986
 -------------------------------------------------------------------
 Cartesian Forces:  Max     0.000245282 RMS     0.000112255
 Final forces over variables, Energy=-3.12635293D+02:
 -6.91126030D-14 7.56313684D-14-6.65186572D-15 1.33100345D-16
 -1.60125173D-13 4.80196449D-13 5.78494165D-05-5.78494167D-05
  2.07915312D-04-2.45672813D-04 1.88787509D-05 1.88787504D-05
 NDeriv=  12 NFrqRd=  0 LFDDif=       1
 NDeriv=  12 NFrqRd=  0 LFDDif=       1
 Re-enter D2Numr: IAtom=  1 IXYZ=1 IStep= 1.
 Standard basis: Aug-CC-pVTZ (5D, 7F)
 Integral buffers will be    131072 words long.
 Raffenetti 1 integral format.
 Two-electron integral symmetry is turned off.
   184 basis functions,   288 primitive gaussians,   220 cartesian basis functions
    16 alpha electrons       16 beta electrons
       nuclear repulsion energy       119.9410463926 Hartrees.
 NAtoms=    4 NActive=    4 NUniq=    4 SFac= 1.00D+00 NAtFMM=   50 NAOKFM=F Big=F
 One-electron integrals computed using PRISM.
 NBasis=   184 RedAO= T  NBF=   184
 NBsUse=   184 1.00D-06 NBFU=   184
 Initial guess read from the read-write file.
 B after Tr=     0.000000    0.000000    0.000000
         Rot=    1.000000    0.000000    0.000000    0.000000 Ang=   0.00 deg.
 Requested convergence on RMS density matrix=1.00D-08 within 128 cycles.
 Requested convergence on MAX density matrix=1.00D-06.
 Requested convergence on             energy=1.00D-06.
 No special actions if energy rises.
 Keep R1 ints in memory in canonical form, NReq=301063473.
 SCF Done:  E(RHF) =  -311.741239597     A.U. after    6 cycles
             Convg  =    0.7754D-08             -V/T =  2.0014
 ExpMin= 3.57D-02 ExpMax= 1.95D+04 ExpMxC= 6.65D+02 IAcc=3 IRadAn=         5 AccDes= 0.00D+00
 HarFok:  IExCor=  205 AccDes= 0.00D+00 IRadAn=         5 IDoV=-2
 ScaDFX=  1.000000  1.000000  1.000000  1.000000
 Range of M.O.s used for correlation:     5   184
 NBasis=   184 NAE=    16 NBE=    16 NFC=     4 NFV=     0
 NROrb=    180 NOA=    12 NOB=    12 NVA=   168 NVB=   168

 **** Warning!!: The largest alpha MO coefficient is  0.15547101D+02

 Semi-Direct transformation.
 ModeAB=           2 MOrb=            12 LenV=    1072785587
 LASXX=     33405819 LTotXX=    33405819 LenRXX=    33405819
 LTotAB=    33954012 MaxLAS=    52509600 LenRXY=    52509600
 NonZer=    66811638 LenScr=   100987392 LnRSAI=           0
 LnScr1=           0 LExtra=           0 Total=    186902811
 MaxDsk=          -1 SrtSym=           F ITran=            4
 JobTyp=0 Pass  1:  I=   1 to  12.
 (rs|ai) integrals will be sorted in core.
 Spin components of T(2) and E(2):
     alpha-alpha T2 =       0.2657353029D-01 E2=     -0.1191087843D+00
     alpha-beta  T2 =       0.1371258796D+00 E2=     -0.6576863991D+00
     beta-beta   T2 =       0.2657353029D-01 E2=     -0.1191087843D+00
 ANorm=    0.1090996306D+01
 E2 =    -0.8959039677D+00 EUMP2 =    -0.31263714356481D+03
 R2 and R3 integrals will be kept in memory, NReq=   596397230.
 Iterations=  50 Convergence= 0.100D-07
 Iteration Nr.   1
 **********************
 DD1Dir will call FoFMem   1 times, MxPair=       156
 NAB=    78 NAA=     0 NBB=     0.
 MP4(R+Q)=  0.16056902D-01
 E3=        0.12499246D-01        EUMP3=      -0.31262464432D+03
 E4(DQ)=    0.45721687D-03        UMP4(DQ)=   -0.31262418710D+03
 E4(SDQ)=  -0.11145917D-01        UMP4(SDQ)=  -0.31263579024D+03
 DE(Corr)= -0.86734782     E(Corr)=     -312.60858742    
 NORM(A)=   0.10858757D+01
 Iteration Nr.   2
 **********************
 DD1Dir will call FoFMem   1 times, MxPair=       156
 NAB=    78 NAA=     0 NBB=     0.
 DE(Corr)= -0.89321519     E(CORR)=     -312.63445478     Delta=-2.59D-02
 NORM(A)=   0.10931754D+01
 Iteration Nr.   3
 **********************
 DD1Dir will call FoFMem   1 times, MxPair=       156
 NAB=    78 NAA=     0 NBB=     0.
 DE(Corr)= -0.89145719     E(CORR)=     -312.63269679     Delta= 1.76D-03
 NORM(A)=   0.10954068D+01
 Iteration Nr.   4
 **********************
 DD1Dir will call FoFMem   1 times, MxPair=       156
 NAB=    78 NAA=     0 NBB=     0.
 DE(Corr)= -0.89375989     E(CORR)=     -312.63499949     Delta=-2.30D-03
 NORM(A)=   0.10962131D+01
 Iteration Nr.   5
 **********************
 DD1Dir will call FoFMem   1 times, MxPair=       156
 NAB=    78 NAA=     0 NBB=     0.
 DE(Corr)= -0.89402569     E(CORR)=     -312.63526529     Delta=-2.66D-04
 NORM(A)=   0.10963956D+01
 Iteration Nr.   6
 **********************
 DD1Dir will call FoFMem   1 times, MxPair=       156
 NAB=    78 NAA=     0 NBB=     0.
 DE(Corr)= -0.89405218     E(CORR)=     -312.63529178     Delta=-2.65D-05
 NORM(A)=   0.10964089D+01
 Iteration Nr.   7
 **********************
 DD1Dir will call FoFMem   1 times, MxPair=       156
 NAB=    78 NAA=     0 NBB=     0.
 DE(Corr)= -0.89405381     E(CORR)=     -312.63529340     Delta=-1.62D-06
 NORM(A)=   0.10964087D+01
 Iteration Nr.   8
 **********************
 DD1Dir will call FoFMem   1 times, MxPair=       156
 NAB=    78 NAA=     0 NBB=     0.
 DE(Corr)= -0.89405279     E(CORR)=     -312.63529239     Delta= 1.01D-06
 NORM(A)=   0.10964092D+01
 Iteration Nr.   9
 **********************
 DD1Dir will call FoFMem   1 times, MxPair=       156
 NAB=    78 NAA=     0 NBB=     0.
 DE(Corr)= -0.89405319     E(CORR)=     -312.63529279     Delta=-3.99D-07
 NORM(A)=   0.10964091D+01
 Iteration Nr.  10
 **********************
 DD1Dir will call FoFMem   1 times, MxPair=       156
 NAB=    78 NAA=     0 NBB=     0.
 DE(Corr)= -0.89405309     E(CORR)=     -312.63529269     Delta= 1.00D-07
 NORM(A)=   0.10964093D+01
 Iteration Nr.  11
 **********************
 DD1Dir will call FoFMem   1 times, MxPair=       156
 NAB=    78 NAA=     0 NBB=     0.
 DE(Corr)= -0.89405356     E(CORR)=     -312.63529316     Delta=-4.71D-07
 NORM(A)=   0.10964096D+01
 Iteration Nr.  12
 **********************
 DD1Dir will call FoFMem   1 times, MxPair=       156
 NAB=    78 NAA=     0 NBB=     0.
 DE(Corr)= -0.89405360     E(CORR)=     -312.63529319     Delta=-3.38D-08
 NORM(A)=   0.10964098D+01
 Iteration Nr.  13
 **********************
 DD1Dir will call FoFMem   1 times, MxPair=       156
 NAB=    78 NAA=     0 NBB=     0.
 DE(Corr)= -0.89405369     E(CORR)=     -312.63529329     Delta=-9.62D-08
 NORM(A)=   0.10964099D+01
 Iteration Nr.  14
 **********************
 DD1Dir will call FoFMem   1 times, MxPair=       156
 NAB=    78 NAA=     0 NBB=     0.
 DE(Corr)= -0.89405371     E(CORR)=     -312.63529330     Delta=-1.60D-08
 NORM(A)=   0.10964099D+01
 Iteration Nr.  15
 **********************
 DD1Dir will call FoFMem   1 times, MxPair=       156
 NAB=    78 NAA=     0 NBB=     0.
 DE(Corr)= -0.89405372     E(CORR)=     -312.63529331     Delta=-8.85D-09
 NORM(A)=   0.10964099D+01
 Iteration Nr.  16
 **********************
 DD1Dir will call FoFMem   1 times, MxPair=       156
 NAB=    78 NAA=     0 NBB=     0.
 DE(Corr)= -0.89405372     E(CORR)=     -312.63529332     Delta=-3.84D-09
 NORM(A)=   0.10964099D+01
 Largest amplitude= 5.78D-02

 Z-AMPLITUDE ITERATIONS

 Iteration Nr.   1
 **********************
 DD1Dir will call FoFMem   1 times, MxPair=       156
 NAB=    78 NAA=     0 NBB=     0.
 DE(Z)  -0.87475078D+00          E(Z)=    -0.31261599038D+03
 NORM(A)=   0.10964020D+01
 Iteration Nr.   2
 **********************
 DD1Dir will call FoFMem   1 times, MxPair=       156
 NAB=    78 NAA=     0 NBB=     0.
 DE(Z)  -0.87475075D+00          E(Z)=    -0.31261599035D+03
 NORM(A)=   0.10964029D+01
 Iteration Nr.   3
 **********************
 DD1Dir will call FoFMem   1 times, MxPair=       156
 NAB=    78 NAA=     0 NBB=     0.
 DE(Z)  -0.87475070D+00          E(Z)=    -0.31261599030D+03
 NORM(A)=   0.10964140D+01
 Iteration Nr.   4
 **********************
 DD1Dir will call FoFMem   1 times, MxPair=       156
 NAB=    78 NAA=     0 NBB=     0.
 DE(Z)  -0.87475081D+00          E(Z)=    -0.31261599041D+03
 NORM(A)=   0.10964088D+01
 Iteration Nr.   5
 **********************
 DD1Dir will call FoFMem   1 times, MxPair=       156
 NAB=    78 NAA=     0 NBB=     0.
 DE(Z)  -0.87475074D+00          E(Z)=    -0.31261599034D+03
 NORM(A)=   0.10919592D+01
 Iteration Nr.   6
 **********************
 DD1Dir will call FoFMem   1 times, MxPair=       156
 NAB=    78 NAA=     0 NBB=     0.
 DE(Z)  -0.87468450D+00          E(Z)=    -0.31261592410D+03
 NORM(A)=   0.10919668D+01
 Iteration Nr.   7
 **********************
 DD1Dir will call FoFMem   1 times, MxPair=       156
 NAB=    78 NAA=     0 NBB=     0.
 DE(Z)  -0.87469593D+00          E(Z)=    -0.31261593552D+03
 NORM(A)=   0.10919681D+01
 Iteration Nr.   8
 **********************
 DD1Dir will call FoFMem   1 times, MxPair=       156
 NAB=    78 NAA=     0 NBB=     0.
 DE(Z)  -0.87469367D+00          E(Z)=    -0.31261593327D+03
 NORM(A)=   0.10919682D+01
 Iteration Nr.   9
 **********************
 DD1Dir will call FoFMem   1 times, MxPair=       156
 NAB=    78 NAA=     0 NBB=     0.
 DE(Z)  -0.87469398D+00          E(Z)=    -0.31261593357D+03
 NORM(A)=   0.10919683D+01
 Iteration Nr.  10
 **********************
 DD1Dir will call FoFMem   1 times, MxPair=       156
 NAB=    78 NAA=     0 NBB=     0.
 DE(Z)  -0.87469388D+00          E(Z)=    -0.31261593347D+03
 NORM(A)=   0.10919683D+01
 Iteration Nr.  11
 **********************
 DD1Dir will call FoFMem   1 times, MxPair=       156
 NAB=    78 NAA=     0 NBB=     0.
 DE(Z)  -0.87469392D+00          E(Z)=    -0.31261593351D+03
 NORM(A)=   0.10919683D+01
 Iteration Nr.  12
 **********************
 DD1Dir will call FoFMem   1 times, MxPair=       156
 NAB=    78 NAA=     0 NBB=     0.
 DE(Z)  -0.87469392D+00          E(Z)=    -0.31261593352D+03
 NORM(A)=   0.10919683D+01
 Iteration Nr.  13
 **********************
 DD1Dir will call FoFMem   1 times, MxPair=       156
 NAB=    78 NAA=     0 NBB=     0.
 DE(Z)  -0.87469392D+00          E(Z)=    -0.31261593352D+03
 NORM(A)=   0.10919683D+01
 Iteration Nr.  14
 **********************
 DD1Dir will call FoFMem   1 times, MxPair=       156
 NAB=    78 NAA=     0 NBB=     0.
 DE(Z)  -0.87469394D+00          E(Z)=    -0.31261593353D+03
 NORM(A)=   0.10919685D+01
 Iteration Nr.  15
 **********************
 DD1Dir will call FoFMem   1 times, MxPair=       156
 NAB=    78 NAA=     0 NBB=     0.
 DE(Z)  -0.87469412D+00          E(Z)=    -0.31261593372D+03
 NORM(A)=   0.10919683D+01
 Iteration Nr.  16
 **********************
 DD1Dir will call FoFMem   1 times, MxPair=       156
 NAB=    78 NAA=     0 NBB=     0.
 DE(Z)  -0.87469392D+00          E(Z)=    -0.31261593352D+03
 NORM(A)=   0.10919683D+01
 Iteration Nr.  17
 **********************
 DD1Dir will call FoFMem   1 times, MxPair=       156
 NAB=    78 NAA=     0 NBB=     0.
 DE(Z)  -0.87469393D+00          E(Z)=    -0.31261593352D+03
 NORM(A)=   0.10919683D+01
 Discarding MO integrals.
          IDoAtm=1111
          Differentiating once with respect to electric field.
                with respect to dipole field.
          Differentiating once with respect to nuclear coordinates.
          Keep R1 ints in memory in canonical form, NReq=297441390.
          There are     1 degrees of freedom in the 1st order CPHF.  IDoFFX=0.
 LinEq1:  Iter=  0 NonCon=     1 RMS=3.07D-03 Max=8.45D-02
 AX will form     1 AO Fock derivatives at one time.
 LinEq1:  Iter=  1 NonCon=     1 RMS=7.55D-04 Max=1.11D-02
 LinEq1:  Iter=  2 NonCon=     1 RMS=2.24D-04 Max=3.37D-03
 LinEq1:  Iter=  3 NonCon=     1 RMS=9.87D-05 Max=1.57D-03
 LinEq1:  Iter=  4 NonCon=     1 RMS=2.27D-05 Max=3.72D-04
 LinEq1:  Iter=  5 NonCon=     1 RMS=1.09D-05 Max=2.98D-04
 LinEq1:  Iter=  6 NonCon=     1 RMS=2.61D-06 Max=4.75D-05
 LinEq1:  Iter=  7 NonCon=     1 RMS=5.33D-07 Max=1.03D-05
 LinEq1:  Iter=  8 NonCon=     1 RMS=9.45D-08 Max=1.21D-06
 LinEq1:  Iter=  9 NonCon=     1 RMS=1.30D-08 Max=1.78D-07
 LinEq1:  Iter= 10 NonCon=     1 RMS=1.87D-09 Max=2.11D-08
 LinEq1:  Iter= 11 NonCon=     1 RMS=3.90D-10 Max=5.76D-09
 LinEq1:  Iter= 12 NonCon=     0 RMS=5.37D-11 Max=4.71D-10
 Linear equations converged to 1.000D-10 1.000D-09 after    12 iterations.
 End of Minotr Frequency-dependent properties file   721 does not exist.
 End of Minotr Frequency-dependent properties file   722 does not exist.

 **********************************************************************

            Population analysis using the QCI/CC density.

 **********************************************************************

 Alpha  occ. eigenvalues --  -26.39320 -26.39317 -20.62021 -11.53392  -1.76377
 Alpha  occ. eigenvalues --   -1.68672  -1.47833  -0.95857  -0.86621  -0.81835
 Alpha  occ. eigenvalues --   -0.80635  -0.72758  -0.70590  -0.70517  -0.57651
 Alpha  occ. eigenvalues --   -0.55832
 Alpha virt. eigenvalues --    0.05517   0.07195   0.07794   0.07908   0.15335
 Alpha virt. eigenvalues --    0.17098   0.17196   0.19387   0.19972   0.21580
 Alpha virt. eigenvalues --    0.24816   0.24867   0.26163   0.26400   0.28488
 Alpha virt. eigenvalues --    0.31149   0.34849   0.36132   0.38927   0.41644
 Alpha virt. eigenvalues --    0.44482   0.48614   0.50000   0.52365   0.53574
 Alpha virt. eigenvalues --    0.62891   0.66643   0.69289   0.72304   0.78662
 Alpha virt. eigenvalues --    0.81167   0.81739   0.84772   0.91211   0.93360
 Alpha virt. eigenvalues --    0.96340   0.97293   1.03061   1.04429   1.06900
 Alpha virt. eigenvalues --    1.07453   1.10101   1.10333   1.10733   1.14123
 Alpha virt. eigenvalues --    1.14376   1.18942   1.21738   1.24218   1.26913
 Alpha virt. eigenvalues --    1.28118   1.29868   1.37094   1.40956   1.50227
 Alpha virt. eigenvalues --    1.51639   1.52545   1.55885   1.65652   1.67625
 Alpha virt. eigenvalues --    1.69265   1.75897   1.78391   1.79702   2.03908
 Alpha virt. eigenvalues --    2.22592   2.27756   2.28266   2.33547   2.35665
 Alpha virt. eigenvalues --    2.41257   2.48923   2.55052   2.59586   2.61953
 Alpha virt. eigenvalues --    2.67121   2.70616   2.73193   2.73676   2.77226
 Alpha virt. eigenvalues --    2.80215   2.81826   2.83530   2.88476   2.92358
 Alpha virt. eigenvalues --    2.94331   2.94513   2.94659   3.06098   3.08179
 Alpha virt. eigenvalues --    3.10234   3.10284   3.12250   3.20378   3.23210
 Alpha virt. eigenvalues --    3.31543   3.36252   3.39134   3.46230   3.52591
 Alpha virt. eigenvalues --    3.56044   3.60055   3.63428   3.78938   3.81177
 Alpha virt. eigenvalues --    3.95042   4.00409   4.01884   4.03407   4.07662
 Alpha virt. eigenvalues --    4.21239   4.21332   4.40372   4.41403   4.53192
 Alpha virt. eigenvalues --    4.60129   4.75388   4.77281   4.83438   5.26574
 Alpha virt. eigenvalues --    5.33934   5.46049   5.47038   5.56742   5.74210
 Alpha virt. eigenvalues --    6.12029   6.56991   6.58328   6.68905   6.89026
 Alpha virt. eigenvalues --    7.10471   7.13527   7.18849   7.21294   7.24332
 Alpha virt. eigenvalues --    7.39356   7.50334   7.60653   7.69728   7.69940
 Alpha virt. eigenvalues --    8.78675   8.80136   8.84985   8.86881   9.00267
 Alpha virt. eigenvalues --    9.02642   9.11750   9.13076   9.19416   9.25893
 Alpha virt. eigenvalues --    9.26913   9.30296   9.33125   9.33359   9.33821
 Alpha virt. eigenvalues --    9.35107   9.37106   9.56164   9.61366   9.62768
 Alpha virt. eigenvalues --    9.66524   9.75639   9.87652   9.95854  13.36516
 Alpha virt. eigenvalues --   15.05950  16.18579  17.35767
          Condensed to atoms (all electrons):
              1          2          3          4
     1  O    7.946840   0.500016  -0.079667  -0.079667
     2  C    0.500016   4.519564   0.185127   0.185127
     3  F   -0.079667   0.185127   9.104377  -0.048514
     4  F   -0.079667   0.185127  -0.048514   9.104377
 Mulliken atomic charges:
              1
     1  O   -0.287522
     2  C    0.610166
     3  F   -0.161322
     4  F   -0.161322
 Sum of Mulliken atomic charges =   0.00000
 Mulliken charges with hydrogens summed into heavy atoms:
              1
     1  O   -0.287522
     2  C    0.610166
     3  F   -0.161322
     4  F   -0.161322
 Sum of Mulliken charges with hydrogens summed into heavy atoms =   0.00000
 Electronic spatial extent (au):  <R**2>=            239.4176
 Charge=              0.0000 electrons
 Dipole moment (field-independent basis, Debye):
    X=              0.0017    Y=              0.0000    Z=             -1.0334  Tot=              1.0334
 Quadrupole moment (field-independent basis, Debye-Ang):
   XX=            -18.9049   YY=            -21.3170   ZZ=            -21.9184
   XY=              0.0000   XZ=              0.0013   YZ=              0.0000
 Traceless Quadrupole moment (field-independent basis, Debye-Ang):
   XX=              1.8085   YY=             -0.6035   ZZ=             -1.2050
   XY=              0.0000   XZ=              0.0013   YZ=              0.0000
 Octapole moment (field-independent basis, Debye-Ang**2):
  XXX=              0.0158  YYY=              0.0000  ZZZ=             34.2714  XYY=              0.0052
  XXY=              0.0000  XXZ=             10.3473  XZZ=              0.0051  YZZ=              0.0000
  YYZ=             12.0138  XYZ=              0.0000
 Hexadecapole moment (field-independent basis, Debye-Ang**3):
 XXXX=            -13.4823 YYYY=            -79.9306 ZZZZ=           -132.3927 XXXY=              0.0000
 XXXZ=              0.0111 YYYX=              0.0000 YYYZ=              0.0000 ZZZX=              0.0125
 ZZZY=              0.0000 XXYY=            -15.6413 XXZZ=            -23.5676 YYZZ=            -36.1536
 XXYZ=              0.0000 YYXZ=              0.0046 ZZXY=              0.0000
 N-N= 1.199410463926D+02 E-N=-9.819255768093D+02  KE= 3.123814739976D+02
 Use density number 7.
 DipInt: DoE/N= T T RetVal/Mat= T F Init=T NMatP=  1 IDeriv=0 Min/MaxMlt=  1  1
 Entering OneElI...
 Multipole integrals L=1 to 1 MinM= 0 MaxM= 0.
 Requested accuracy = 0.1000D-12
 PrsmSu:  NPrtUS=   1 ThrOK=F IAlg=1 NPAlg=1 LenDen=           0.
 Prism:   IPart=     0 DynPar=F LinDyn=F Incr=          15.
 PRISM was handed  1073475112 working-precision words and  1593 shell-pairs
 IPart=  0 NShTot=        1593 NBatch=          53 AvBLen=        30.1
 PrSmSu:  NxtVal=             16.
 Entering OneElI...
 Calculate overlap and kinetic energy integrals
    NBasis = 220  MinDer = 1  MaxDer = 1
 Requested accuracy = 0.1000D-12
 PrsmSu:  NPrtUS=   8 ThrOK=T IAlg=1 NPAlg=1 LenDen=           0.
 Prism:   IPart=     0 DynPar=F LinDyn=F Incr=           1.
 PRISM was handed   134140892 working-precision words and  1596 shell-pairs
 PRISM was handed   134140892 working-precision words and  1596 shell-pairs
 PRISM was handed   134140892 working-precision words and  1596 shell-pairs
 PRISM was handed   134140892 working-precision words and  1596 shell-pairs
 PRISM was handed   134140892 working-precision words and  1596 shell-pairs
 PRISM was handed   134140892 working-precision words and  1596 shell-pairs
 PRISM was handed   134140892 working-precision words and  1596 shell-pairs
 PRISM was handed   134140892 working-precision words and  1596 shell-pairs
 IPart=  0 NShTot=         213 NBatch=          42 AvBLen=         5.1
 IPart=  4 NShTot=         196 NBatch=          28 AvBLen=         7.0
 IPart=  3 NShTot=         203 NBatch=          33 AvBLen=         6.2
 IPart=  7 NShTot=         188 NBatch=          22 AvBLen=         8.5
 IPart=  5 NShTot=         193 NBatch=          25 AvBLen=         7.7
 IPart=  2 NShTot=         205 NBatch=          35 AvBLen=         5.9
 IPart=  1 NShTot=         210 NBatch=          40 AvBLen=         5.3
 IPart=  6 NShTot=         188 NBatch=          22 AvBLen=         8.5
 PrSmSu:  NxtVal=              9.
 Entering OneElI...
 Calculate potential energy integrals
    NBasis = 220  MinDer = 1  MaxDer = 1
 Requested accuracy = 0.1000D-12
 PrsmSu:  NPrtUS=   8 ThrOK=T IAlg=1 NPAlg=1 LenDen=           0.
 Prism:   IPart=     0 DynPar=F LinDyn=F Incr=           7.
 PRISM was handed   134150527 working-precision words and  1579 shell-pairs
 PRISM was handed   134150527 working-precision words and  1579 shell-pairs
 PRISM was handed   134150527 working-precision words and  1579 shell-pairs
 PRISM was handed   134150527 working-precision words and  1579 shell-pairs
 PRISM was handed   134150527 working-precision words and  1579 shell-pairs
 PRISM was handed   134150527 working-precision words and  1579 shell-pairs
 PRISM was handed   134150527 working-precision words and  1579 shell-pairs
 PRISM was handed   134150527 working-precision words and  1579 shell-pairs
 IPart=  4 NShTot=         748 NBatch=         187 AvBLen=         4.0
 IPart=  3 NShTot=         796 NBatch=         199 AvBLen=         4.0
 IPart=  0 NShTot=         896 NBatch=         224 AvBLen=         4.0
[...]
 OrtVCM:  Ph=2 NNew=    0 IAdd=    5 IPass= 1 DotMx2= 5.55D-17
 OrtVCM:  IS=    1 I=    5 IndO=    5 Dot= 1.00D+00 DotN= 1.00D+00 ElMax1= 8.13D-01 ElMax1N= 8.13D-01
 OrtVCM:  Ph=2 NNew=    0 IAdd=    6 IPass= 1 DotMx2= 5.55D-17
 OrtVCM:  IS=    1 I=    6 IndO=    6 Dot= 1.00D+00 DotN= 1.00D+00 ElMax1= 5.76D-01 ElMax1N= 5.76D-01
 OrtVCM:  Ph=1 IPass= 1 DotMx1= 8.13D-01
 OrtVCM:  Ph=1 IPass= 2 DotMx1= 8.33D-17
 OrtVCM:  IS=    1 I=    1 IndO=    7 Dot= 9.59D-02 DotN= 9.59D-02 ElMax1= 2.79D-01 ElMax1N= 2.79D-01
 OrtVCM:  Ph=2 NNew=    0 IAdd=    2 IPass= 1 DotMx2= 0.00D+00
 OrtVCM:  IS=    1 I=    2 IndO=    8 Dot= 4.26D-01 DotN= 4.26D-01 ElMax1= 4.26D-01 ElMax1N= 4.26D-01
 OrtVCM:  Ph=2 NNew=    0 IAdd=    3 IPass= 1 DotMx2= 0.00D+00
 OrtVCM:  IS=    1 I=    3 IndO=    9 Dot= 7.58D-01 DotN= 7.58D-01 ElMax1= 7.58D-01 ElMax1N= 7.58D-01
 OrtVCM:  Ph=2 NNew=    0 IAdd=    4 IPass= 1 DotMx2= 9.01D-01
 OrtVCM:  Ph=2 NNew=    0 IAdd=    4 IPass= 2 DotMx2= 2.92D-17
 OrtVCM:  IS=    1 I=    4 IndO=    0 Dot= 3.77D-33 DotN= 3.77D-33 ElMax1= 4.65D-17 ElMax1N= 4.65D-17
 OrtVCM:  Ph=2 NNew=    0 IAdd=    5 IPass= 1 DotMx2= 3.75D-01
 OrtVCM:  Ph=2 NNew=    0 IAdd=    5 IPass= 2 DotMx2= 1.11D-16
 OrtVCM:  IS=    1 I=    5 IndO=   10 Dot= 6.74D-01 DotN= 6.74D-01 ElMax1= 6.74D-01 ElMax1N= 6.74D-01
 OrtVCM:  Ph=2 NNew=    0 IAdd=    6 IPass= 1 DotMx2= 2.41D-01
 OrtVCM:  Ph=2 NNew=    0 IAdd=    6 IPass= 2 DotMx2= 2.78D-17
 OrtVCM:  IS=    1 I=    6 IndO=   11 Dot= 7.60D-01 DotN= 7.60D-01 ElMax1= 7.60D-01 ElMax1N= 7.60D-01
 SchOr2:  IPass= 1 Test2A= 1.00D-01 IOff=     0 NDo=     6 NNew=     5
 OrtVCM:  Ph=1 IPass= 1 DotMx1= 7.07D-01
 OrtVCM:  Ph=1 IPass= 2 DotMx1= 1.18D-16
 OrtVCM:  IS=    1 I=    1 IndO=    0 Dot= 5.10D-64 DotN= 5.10D-64 ElMax1= 2.00D-32 ElMax1N= 2.00D-32
 SchOr2:  IPass= 1 Test2A= 1.00D-01 IOff=     6 NDo=     1 NNew=     0
 OrtVCM:  Ph=1 IPass= 1 DotMx1= 5.37D-01
 OrtVCM:  Ph=1 IPass= 2 DotMx1= 8.66D-17
 OrtVCM:  IS=    1 I=    1 IndO=   12 Dot= 5.00D-01 DotN= 5.00D-01 ElMax1= 5.00D-01 ElMax1N= 5.00D-01
 SchOr2:  IPass= 1 Test2A= 1.00D-01 IOff=     7 NDo=     1 NNew=     1
 VibFq2-Diag2:  N=      6 IV=           5 MDV=  1073672074 NE2=   178945345
 Dipole derivatives wrt mode   1: -2.13055D-04 -1.30750D-04  2.40460D+00
 Vibrational polarizability contributions from mode   1       0.0000000       0.0000000       0.4476364
 Vibrational hyperpolarizability contributions from mode   1       0.0000000       0.0000000       0.0000000
 Dipole derivatives wrt mode   2: -2.73341D-09 -2.90522D+00  5.02191D-04
 Vibrational polarizability contributions from mode   2       0.0000000       0.5728749       0.0000000
 Vibrational hyperpolarizability contributions from mode   2       0.0000000       0.0000000       0.0000000
 Dipole derivatives wrt mode   3: -6.14081D+00  5.50737D-09  3.00692D-03
 Vibrational polarizability contributions from mode   3       1.6087445       0.0000000       0.0000004
 Vibrational hyperpolarizability contributions from mode   3       0.0000000       0.0000000       0.0000000
 Dipole derivatives wrt mode   4: -5.02146D-04  1.65747D-05 -7.67389D+00
 Vibrational polarizability contributions from mode   4       0.0000000       0.0000000       1.6105322
 Vibrational hyperpolarizability contributions from mode   4       0.0000000       0.0000000       0.0000000
 Dipole derivatives wrt mode   5:  8.09537D-12  2.02579D+01 -1.47298D-04
 Vibrational polarizability contributions from mode   5       0.0000000       6.5801898       0.0000000
 Vibrational hyperpolarizability contributions from mode   5       0.0000000       0.0000000       0.0000000
 Dipole derivatives wrt mode   6:  1.28516D-04  4.80863D-05  2.15685D+01
 Vibrational polarizability contributions from mode   6       0.0000000       0.0000000       3.1585736
 Vibrational hyperpolarizability contributions from mode   6       0.0000000       0.0000000       0.0000000
 Diagonal vibrational polarizability:
        1.6087446       7.1530647       5.2167426
 NorSel:  MapVib=      1      2      3      4      5      6
 Harmonic frequencies (cm**-1), IR intensities (KM/Mole), Raman scattering
 activities (A**4/AMU), depolarization ratios for plane and unpolarized
 incident light, reduced masses (AMU), force constants (mDyne/A),
 and normal coordinates:
                           1         2         3         4         5
                           A         A         A         A         A
       Frequencies ---   589.5850  629.6748  794.2347  991.9678 1295.5132
    Reduced masses ---    17.6608   16.9941   12.7423   17.2671   13.2208
   Force constants ---     3.6170    3.9699    4.7358   10.0107   13.0735
    IR Intensities ---     5.7821    8.4403   37.7096   58.8886  410.3827
 Coord Atom Element:
   1     1     8          0.00001   0.00000   0.27647   0.00003   0.00000
   2     1     8          0.00003   0.66620   0.00000   0.00001  -0.08034
   3     1     8          0.39498  -0.00001   0.00002  -0.54597   0.00000
   1     2     6         -0.00004   0.00000  -0.92797  -0.00009   0.00000
   2     2     6         -0.00001  -0.30972   0.00000   0.00000   0.90708
   3     2     6          0.35239  -0.00001   0.00003  -0.34562   0.00000
   1     3     9          0.00001   0.00000   0.17669   0.00002   0.00000
   2     3     9          0.53184  -0.18265  -0.00005   0.41991  -0.25265
   3     3     9         -0.27758  -0.44359  -0.00002   0.33897  -0.14679
   1     4     9          0.00001   0.00000   0.17669   0.00002   0.00000
   2     4     9         -0.53186  -0.18260   0.00005  -0.41991  -0.25265
   3     4     9         -0.27754   0.44360  -0.00002   0.33899   0.14679
                           6
                           A
       Frequencies ---  1990.8569
    Reduced masses ---    13.1622
   Force constants ---    30.7367
    IR Intensities ---   465.1982
 Coord Atom Element:
   1     1     8         -0.00001
   2     1     8          0.00000
   3     1     8         -0.52911
   1     2     6          0.00002
   2     2     6          0.00000
   3     2     6          0.84486
   1     3     9          0.00000
   2     3     9         -0.03439
   3     3     9         -0.04409
   1     4     9          0.00000
   2     4     9          0.03439
   3     4     9         -0.04409
 Harmonic frequencies (cm**-1), IR intensities (KM/Mole), Raman scattering
 activities (A**4/AMU), depolarization ratios for plane and unpolarized
 incident light, reduced masses (AMU), force constants (mDyne/A),
 and normal coordinates:
                     1                      2                      3
                     A                      A                      A
 Frequencies --   589.5850               629.6748               794.2347
 Red. masses --    17.6608                16.9941                12.7423
 Frc consts  --     3.6170                 3.9699                 4.7358
 IR Inten    --     5.7821                 8.4403                37.7096
  Atom  AN      X      Y      Z        X      Y      Z        X      Y      Z
     1   8     0.00   0.00   0.39     0.00   0.67   0.00     0.28   0.00   0.00
     2   6     0.00   0.00   0.35     0.00  -0.31   0.00    -0.93   0.00   0.00
     3   9     0.00   0.53  -0.28     0.00  -0.18  -0.44     0.18   0.00   0.00
     4   9     0.00  -0.53  -0.28     0.00  -0.18   0.44     0.18   0.00   0.00
                     4                      5                      6
                     A                      A                      A
 Frequencies --   991.9678              1295.5132              1990.8569
 Red. masses --    17.2671                13.2208                13.1622
 Frc consts  --    10.0107                13.0735                30.7367
 IR Inten    --    58.8886               410.3827               465.1982
  Atom  AN      X      Y      Z        X      Y      Z        X      Y      Z
     1   8     0.00   0.00  -0.55     0.00  -0.08   0.00     0.00   0.00  -0.53
     2   6     0.00   0.00  -0.35     0.00   0.91   0.00     0.00   0.00   0.84
     3   9     0.00   0.42   0.34     0.00  -0.25  -0.15     0.00  -0.03  -0.04
     4   9     0.00  -0.42   0.34     0.00  -0.25   0.15     0.00   0.03  -0.04

 -------------------
 - Thermochemistry -
 -------------------
 Temperature   298.150 Kelvin.  Pressure   1.00000 Atm.
 Atom     1 has atomic number  8 and mass  15.99491
 Atom     2 has atomic number  6 and mass  12.00000
 Atom     3 has atomic number  9 and mass  18.99840
 Atom     4 has atomic number  9 and mass  18.99840
 Molecular mass:    65.99172 amu.
 Principal axes and moments of inertia in atomic units:
                           1         2         3
     Eigenvalues --   152.13764 153.29673 305.43438
           X            0.00000   0.00000   1.00000
           Y            0.00000   1.00000   0.00000
           Z            1.00000   0.00000   0.00000
 This molecule is an asymmetric top.
 Rotational symmetry number  2.
 Rotational temperatures (Kelvin)      0.56931     0.56501     0.28358
 Rotational constants (GHZ):          11.86256    11.77286     5.90877
 Zero-point vibrational energy      37633.5 (Joules/Mol)
                                    8.99463 (Kcal/Mol)
 Warning -- explicit consideration of   1 degrees of freedom as
           vibrations may cause significant error
 Vibrational temperatures:    848.28   905.96  1142.73  1427.22  1863.95
          (Kelvin)           2864.40
 
 Zero-point correction=                           0.014334 (Hartree/Particle)
 Thermal correction to Energy=                    0.017607
 Thermal correction to Enthalpy=                  0.018551
 Thermal correction to Gibbs Free Energy=        -0.010807
 Sum of electronic and zero-point Energies=           -312.620960
 Sum of electronic and thermal Energies=              -312.617687
 Sum of electronic and thermal Enthalpies=            -312.616743
 Sum of electronic and thermal Free Energies=         -312.646101
 
                     E (Thermal)             CV                S
                      KCal/Mol        Cal/Mol-Kelvin    Cal/Mol-Kelvin
 Total                   11.048              9.194             61.790
 Electronic               0.000              0.000              0.000
 Translational            0.889              2.981             38.479
 Rotational               0.889              2.981             22.103
 Vibrational              9.271              3.233              1.207
 Vibration     1          0.947              1.054              0.468
                       Q            Log10(Q)             Ln(Q)
 Total Bot       0.935590D+05          4.971085         11.446347
 Total V=0       0.366593D+12         11.564184         26.627518
 Vib (Bot)       0.293925D-06         -6.531764        -15.039943
 Vib (Bot)    1  0.255971D+00         -0.591808         -1.362689
 Vib (V=0)       0.115169D+01          0.061335          0.141228
 Vib (V=0)    1  0.106171D+01          0.026007          0.059884
 Electronic      0.100000D+01          0.000000          0.000000
 Translational   0.210712D+08          7.323689         16.863418
 Rotational      0.151064D+05          4.179160          9.622872
 -------------------------------------------------------------------
 Center     Atomic                   Forces (Hartrees/Bohr)
 Number     Number              X              Y              Z
 -------------------------------------------------------------------
      1        8           0.000000000    0.000000000    0.000207915
      2        6           0.000000000    0.000000000   -0.000245673
      3        9           0.000000000    0.000057849    0.000018879
      4        9           0.000000000   -0.000057849    0.000018879
 -------------------------------------------------------------------
 Cartesian Forces:  Max     0.000245673 RMS     0.000096173
 Z-matrix is all fixed cartesians, so copy forces.
 Force constants in Cartesian coordinates: 
                1             2             3             4             5 
      1  0.365636D-01
      2  0.000000D+00  0.108128D+00
      3  0.457864D-05  0.365433D-05  0.101037D+01
      4 -0.922022D-01  0.000000D+00 -0.759434D-05  0.232326D+00
      5  0.000000D+00 -0.102140D+00  0.000000D+00  0.000000D+00  0.581406D+00
      6 -0.146278D-04 -0.110615D-04 -0.879758D+00  0.205788D-04  0.000000D+00
      7  0.278208D-01  0.168600D-05  0.990678D-05 -0.700551D-01 -0.676679D-05
      8  0.330475D-05 -0.298762D-02 -0.396946D-01 -0.413659D-05 -0.239628D+00
      9  0.502460D-05 -0.621014D-01 -0.653265D-01 -0.649223D-05 -0.118162D+00
     10  0.278208D-01 -0.168599D-05  0.973898D-05 -0.700551D-01  0.676676D-05
     11 -0.330483D-05 -0.299242D-02  0.396945D-01  0.413657D-05 -0.239628D+00
     12  0.502456D-05  0.621089D-01 -0.653267D-01 -0.649229D-05  0.118162D+00
                6             7             8             9            10 
      6  0.122176D+01
      7 -0.239750D-04  0.211413D-01
      8 -0.115010D+00  0.613723D-05  0.339467D+00
      9 -0.170976D+00  0.774488D-05  0.167453D+00  0.218231D+00
     10 -0.236726D-04  0.210846D-01  0.000000D+00  0.625604D-05  0.211413D-01
     11  0.115010D+00 -0.105642D-05 -0.968572D-01  0.127769D-01 -0.597963D-05
     12 -0.170976D+00  0.632337D-05 -0.127766D-01  0.180639D-01  0.767753D-05
               11            12 
     11  0.339467D+00
     12 -0.167453D+00  0.218231D+00
 Final forces over variables, Energy=-3.12635293D+02:
 -6.91126030D-14 7.56313684D-14-6.65186572D-15 1.33100345D-16
 -1.60125173D-13 4.80196449D-13 5.78494165D-05-5.78494167D-05
  2.07915312D-04-2.45672813D-04 1.88787509D-05 1.88787504D-05

 GradGradGradGradGradGradGradGradGradGradGradGradGradGradGradGradGradGrad
 Berny optimization.
 Search for a local minimum.
 Step number   1 out of a maximum of    2
 All quantities printed in internal units (Hartrees-Bohrs-Radians)
 Second derivative matrix not updated -- analytic derivatives used.
 The second derivative matrix:
                          X1        Y1        Z1        X2        Y2
           X1           0.03656
           Y1           0.00000   0.10813
           Z1           0.00000   0.00000   1.01037
           X2          -0.09220   0.00000  -0.00001   0.23233
           Y2           0.00000  -0.10214   0.00000   0.00000   0.58141
           Z2          -0.00001  -0.00001  -0.87976   0.00002   0.00000
           X3           0.02782   0.00000   0.00001  -0.07006  -0.00001
           Y3           0.00000  -0.00299  -0.03969   0.00000  -0.23963
           Z3           0.00001  -0.06210  -0.06533  -0.00001  -0.11816
           X4           0.02782   0.00000   0.00001  -0.07006   0.00001
           Y4           0.00000  -0.00299   0.03969   0.00000  -0.23963
           Z4           0.00001   0.06211  -0.06533  -0.00001   0.11816
                          Z2        X3        Y3        Z3        X4
           Z2           1.22176
           X3          -0.00002   0.02114
           Y3          -0.11501   0.00001   0.33947
           Z3          -0.17098   0.00001   0.16745   0.21823
           X4          -0.00002   0.02108   0.00000   0.00001   0.02114
           Y4           0.11501   0.00000  -0.09686   0.01278  -0.00001
           Z4          -0.17098   0.00001  -0.01278   0.01806   0.00001
                          Y4        Z4
           Y4           0.33947
           Z4          -0.16745   0.21823
 ITU=  0
     Eigenvalues ---    0.23329   0.25430   0.30948   0.65366   0.87293
     Eigenvalues ---    2.01050
 Angle between quadratic step and forces=  40.67 degrees.
 Linear search not attempted -- first point.
 TrRot=  0.000000  0.000000  0.000002  0.000000  0.000000  0.000000
 Variable       Old X    -DE/DX   Delta X   Delta X   Delta X     New X
                                 (Linear)    (Quad)   (Total)
    X1        0.00000   0.00000   0.00000   0.00000   0.00000   0.00000
    Y1        0.00000   0.00000   0.00000   0.00000   0.00000   0.00000
    Z1        1.28488   0.00021   0.00000   0.00014   0.00014   1.28502
    X2        0.00000   0.00000   0.00000   0.00000   0.00000   0.00000
    Y2        0.00000   0.00000   0.00000   0.00000   0.00000   0.00000
    Z2       -0.93015  -0.00025   0.00000  -0.00008  -0.00008  -0.93024
    X3        0.00000   0.00000   0.00000   0.00000   0.00000   0.00000
    Y3       -2.00099   0.00006   0.00000   0.00013   0.00013  -2.00086
    Z3       -2.38919   0.00002   0.00000  -0.00003  -0.00003  -2.38922
    X4        0.00000   0.00000   0.00000   0.00000   0.00000   0.00000
    Y4        2.00099  -0.00006   0.00000  -0.00013  -0.00013   2.00086
    Z4       -2.38919   0.00002   0.00000  -0.00003  -0.00003  -2.38922
         Item               Value     Threshold  Converged?
 Maximum Force            0.000246     0.000450     YES
 RMS     Force            0.000096     0.000300     YES
 Maximum Displacement     0.000140     0.001800     YES
 RMS     Displacement     0.000073     0.001200     YES
 Predicted change in Energy=-3.196740D-08
 Optimization completed.
    -- Stationary point found.
 GradGradGradGradGradGradGradGradGradGradGradGradGradGradGradGradGradGrad


 Test job not archived.
 1\1\GINC-TRAPISTA\Freq\RQCISD-FC\Aug-CC-pVTZ\C1F2O1\BRUNS\17-Nov-2021\
 0\\#freq=noraman qcisd/aug-cc-pvtz density=current iop(7/33=1) nosym f
 ormcheck=forcecart\\f2co-frequencies\\0,1\O,0.,0.,0.679927\C,0.,0.,-0.
 492216\F,0.,-1.058878,-1.264305\F,0.,1.058878,-1.264305\\Version=EM64L
 -G09RevB.01\HF=-311.7412397\MP2=-312.6371436\MP3=-312.6246444\MP4D=-31
 2.6402441\MP4DQ=-312.6241872\MP4SDQ=-312.6357903\QCISD=-312.6352934\RM
 SD=8.476e-09\RMSF=9.617e-05\ZeroPoint=0.0143338\Thermal=0.0176066\Dipo
 le=0.,0.,-0.4065517\DipoleDeriv=-0.3504893,0.,0.0001153,0.,-0.5234331,
 0.0000825,0.,0.,-0.9792497,0.6038594,0.,-0.0001499,0.,2.0212983,-0.000
 0069,0.,0.,2.2531011,-0.1267684,0.0000426,0.0001716,0.,-0.7490543,-0.4
 110645,0.,-0.3579589,-0.6371981,-0.1267684,-0.0000426,0.0001622,0.,-0.
 7490539,0.411075,0.,0.3579589,-0.6371944\Quadrupole=1.3445937,-0.44870
 96,-0.8958841,0.,0.,0.\QuadrupoleDeriv=-0.0000222,-0.0000131,0.0000353
 ,0.,-0.5284889,0.,-0.0000117,-0.0000105,0.0000222,0.,0.,0.4362489,-0.8
 341004,0.3610758,0.4730246,0.,0.,0.,0.0000144,0.0000224,-0.0000367,0.,
 -0.8696043,0.,-0.0000009,0.0000015,-0.0000006,0.,0.,-4.3836221,1.92290
 13,-0.1681145,-1.7547868,0.,0.,0.,0.0000304,-0.0000409,0.0000105,0.447
 9141,0.4959543,-0.0001015,-0.2631076,0.2475218,0.0155858,0.,0.,1.77108
 45,-0.4089547,0.039343,0.3696118,0.,0.,0.8431539,0.0000196,-0.0000332,
 0.0000136,-0.4479141,0.4959543,0.0001015,0.263114,-0.2475278,-0.015586
 2,0.,0.,1.7710823,-0.4089535,0.0393409,0.3696125,0.,0.,-0.8431539\PG=C
 02V [C2(C1O1),SGV(F2)]\NImag=0\\0.03656358,0.,0.10812834,0.00000458,0.
 00000365,1.01037162,-0.09220222,0.,-0.00000759,0.23232611,0.,-0.102140
 26,-0.00000044,0.,0.58140581,-0.00001463,-0.00001106,-0.87975799,0.000
 02058,0.00000097,1.22176481,0.02782083,0.00000169,0.00000991,-0.070055
 08,-0.00000677,-0.00002398,0.02114125,0.00000330,-0.00298762,-0.039694
 56,-0.00000414,-0.23962838,-0.11501035,0.00000614,0.33946725,0.0000050
 2,-0.06210145,-0.06532651,-0.00000649,-0.11816214,-0.17097601,0.000007
 74,0.16745328,0.21823091,0.02782083,-0.00000169,0.00000974,-0.07005508
 ,0.00000677,-0.00002367,0.02108461,0.00000090,0.00000626,0.02114125,-0
 .00000330,-0.00299242,0.03969452,0.00000414,-0.23962809,0.11501001,-0.
 00000106,-0.09685720,0.01277689,-0.00000598,0.33946653,0.00000502,0.06
 210885,-0.06532674,-0.00000649,0.11816161,-0.17097581,0.00000632,-0.01
 277659,0.01806393,0.00000768,-0.16745319,0.21823094\\0.,0.,-0.00020792
 ,0.,0.,0.00024567,0.,-0.00005785,-0.00001888,0.,0.00005785,-0.00001888
 \\\@


 Standing in the middle of the road is very dangerous;
 you get knocked down by the traffic from both sides.
                                -- Margaret Thatcher
 Job cpu time:  2 days  3 hours 58 minutes 32.0 seconds.
 File lengths (MBytes):  RWF=  17462 Int=      0 D2E=      0 Chk=     43 Scr=      1
 Normal termination of Gaussian 09 at Wed Nov 17 01:50:53 2021.
