 h2cs-wavefunction
GAUSSIAN            142 MOL ORBITALS    240 PRIMITIVES        4 NUCLEI
  C    1    (CENTRE  1)   0.00000000  0.00000000 -1.04934791  CHARGE =  6.0
  S    2    (CENTRE  2)   0.00000000  0.00000000  2.00381646  CHARGE = 16.0
  H    3    (CENTRE  3)   0.00000000 -1.74285662 -2.13348569  CHARGE =  1.0
  H    4    (CENTRE  4)   0.00000000  1.74285662 -2.15238295  CHARGE =  1.0
CENTRE ASSIGNMENTS    1  1  1  1  1  1  1  1  1  1  1  1  1  1  1  1  1  1  1  1
CENTRE ASSIGNMENTS    1  1  1  1  1  1  1  1  1  1  1  1  1  1  1  1  1  1  1  1
CENTRE ASSIGNMENTS    1  1  1  1  1  1  1  1  1  1  1  1  1  1  1  1  1  1  1  1
CENTRE ASSIGNMENTS    1  1  1  1  1  1  1  1  1  1  1  1  2  2  2  2  2  2  2  2
CENTRE ASSIGNMENTS    2  2  2  2  2  2  2  2  2  2  2  2  2  2  2  2  2  2  2  2
CENTRE ASSIGNMENTS    2  2  2  2  2  2  2  2  2  2  2  2  2  2  2  2  2  2  2  2
CENTRE ASSIGNMENTS    2  2  2  2  2  2  2  2  2  2  2  2  2  2  2  2  2  2  2  2
CENTRE ASSIGNMENTS    2  2  2  2  2  2  2  2  2  2  2  2  2  2  2  2  2  2  2  2
CENTRE ASSIGNMENTS    2  2  2  2  2  2  2  2  2  2  2  2  2  2  2  2  2  2  2  2
CENTRE ASSIGNMENTS    2  2  2  2  2  2  3  3  3  3  3  3  3  3  3  3  3  3  3  3
CENTRE ASSIGNMENTS    3  3  3  3  3  3  3  3  3  3  3  3  3  4  4  4  4  4  4  4
CENTRE ASSIGNMENTS    4  4  4  4  4  4  4  4  4  4  4  4  4  4  4  4  4  4  4  4
TYPE ASSIGNMENTS      1  1  1  1  1  1  1  1  1  1  1  1  1  1  1  1  2  2  2  3
TYPE ASSIGNMENTS      3  3  4  4  4  2  3  4  2  3  4  2  3  4  5  6  7  8  9 10
TYPE ASSIGNMENTS      5  6  7  8  9 10  5  6  7  8  9 10 11 12 13 17 14 15 18 19
TYPE ASSIGNMENTS     16 20 11 12 13 17 14 15 18 19 16 20  1  1  1  1  1  1  1  1
TYPE ASSIGNMENTS      1  1  1  1  1  1  1  1  1  1  1  1  1  1  1  1  1  1  1  1
TYPE ASSIGNMENTS      1  1  1  2  2  2  2  2  2  3  3  3  3  3  3  4  4  4  4  4
TYPE ASSIGNMENTS      4  2  2  2  2  2  2  3  3  3  3  3  3  4  4  4  4  4  4  2
TYPE ASSIGNMENTS      3  4  2  3  4  2  3  4  5  6  7  8  9 10  5  6  7  8  9 10
TYPE ASSIGNMENTS      5  6  7  8  9 10 11 12 13 17 14 15 18 19 16 20 11 12 13 17
TYPE ASSIGNMENTS     14 15 18 19 16 20  1  1  1  1  1  1  2  3  4  2  3  4  2  3
TYPE ASSIGNMENTS      4  5  6  7  8  9 10  5  6  7  8  9 10  1  1  1  1  1  1  2
TYPE ASSIGNMENTS      3  4  2  3  4  2  3  4  5  6  7  8  9 10  5  6  7  8  9 10
EXPONENTS  0.8236000D+04 0.1235000D+04 0.2808000D+03 0.7927000D+02 0.2559000D+02
EXPONENTS  0.8997000D+01 0.3319000D+01 0.2808000D+03 0.7927000D+02 0.2559000D+02
EXPONENTS  0.8997000D+01 0.3319000D+01 0.3643000D+00 0.9059000D+00 0.1285000D+00
EXPONENTS  0.4402000D-01 0.1871000D+02 0.4133000D+01 0.1200000D+01 0.1871000D+02
EXPONENTS  0.4133000D+01 0.1200000D+01 0.1871000D+02 0.4133000D+01 0.1200000D+01
EXPONENTS  0.3827000D+00 0.3827000D+00 0.3827000D+00 0.1209000D+00 0.1209000D+00
EXPONENTS  0.1209000D+00 0.3569000D-01 0.3569000D-01 0.3569000D-01 0.1097000D+01
EXPONENTS  0.1097000D+01 0.1097000D+01 0.1097000D+01 0.1097000D+01 0.1097000D+01
EXPONENTS  0.3180000D+00 0.3180000D+00 0.3180000D+00 0.3180000D+00 0.3180000D+00
EXPONENTS  0.3180000D+00 0.1000000D+00 0.1000000D+00 0.1000000D+00 0.1000000D+00
EXPONENTS  0.1000000D+00 0.1000000D+00 0.7610000D+00 0.7610000D+00 0.7610000D+00
EXPONENTS  0.7610000D+00 0.7610000D+00 0.7610000D+00 0.7610000D+00 0.7610000D+00
EXPONENTS  0.7610000D+00 0.7610000D+00 0.2680000D+00 0.2680000D+00 0.2680000D+00
EXPONENTS  0.2680000D+00 0.2680000D+00 0.2680000D+00 0.2680000D+00 0.2680000D+00
EXPONENTS  0.2680000D+00 0.2680000D+00 0.3741000D+06 0.5605000D+05 0.1276000D+05
EXPONENTS  0.3615000D+04 0.1183000D+04 0.4288000D+03 0.1678000D+03 0.6947000D+02
EXPONENTS  0.2984000D+02 0.1272000D+02 0.5244000D+01 0.3615000D+04 0.1183000D+04
EXPONENTS  0.4288000D+03 0.1678000D+03 0.6947000D+02 0.2984000D+02 0.1272000D+02
EXPONENTS  0.5244000D+01 0.2219000D+01 0.1183000D+04 0.1678000D+03 0.6947000D+02
EXPONENTS  0.2984000D+02 0.1272000D+02 0.5244000D+01 0.2219000D+01 0.3490000D+00
EXPONENTS  0.7767000D+00 0.1322000D+00 0.4970000D-01 0.5744000D+03 0.1358000D+03
EXPONENTS  0.4319000D+02 0.1587000D+02 0.6208000D+01 0.2483000D+01 0.5744000D+03
EXPONENTS  0.1358000D+03 0.4319000D+02 0.1587000D+02 0.6208000D+01 0.2483000D+01
EXPONENTS  0.5744000D+03 0.1358000D+03 0.4319000D+02 0.1587000D+02 0.6208000D+01
EXPONENTS  0.2483000D+01 0.1358000D+03 0.4319000D+02 0.1587000D+02 0.6208000D+01
EXPONENTS  0.2483000D+01 0.3229000D+00 0.1358000D+03 0.4319000D+02 0.1587000D+02
EXPONENTS  0.6208000D+01 0.2483000D+01 0.3229000D+00 0.1358000D+03 0.4319000D+02
EXPONENTS  0.1587000D+02 0.6208000D+01 0.2483000D+01 0.3229000D+00 0.8688000D+00
EXPONENTS  0.8688000D+00 0.8688000D+00 0.1098000D+00 0.1098000D+00 0.1098000D+00
EXPONENTS  0.3510000D-01 0.3510000D-01 0.3510000D-01 0.2690000D+00 0.2690000D+00
EXPONENTS  0.2690000D+00 0.2690000D+00 0.2690000D+00 0.2690000D+00 0.8190000D+00
EXPONENTS  0.8190000D+00 0.8190000D+00 0.8190000D+00 0.8190000D+00 0.8190000D+00
EXPONENTS  0.1010000D+00 0.1010000D+00 0.1010000D+00 0.1010000D+00 0.1010000D+00
EXPONENTS  0.1010000D+00 0.5570000D+00 0.5570000D+00 0.5570000D+00 0.5570000D+00
EXPONENTS  0.5570000D+00 0.5570000D+00 0.5570000D+00 0.5570000D+00 0.5570000D+00
EXPONENTS  0.5570000D+00 0.2180000D+00 0.2180000D+00 0.2180000D+00 0.2180000D+00
EXPONENTS  0.2180000D+00 0.2180000D+00 0.2180000D+00 0.2180000D+00 0.2180000D+00
EXPONENTS  0.2180000D+00 0.3387000D+02 0.5095000D+01 0.1159000D+01 0.3258000D+00
EXPONENTS  0.1027000D+00 0.2526000D-01 0.1407000D+01 0.1407000D+01 0.1407000D+01
EXPONENTS  0.3880000D+00 0.3880000D+00 0.3880000D+00 0.1020000D+00 0.1020000D+00
EXPONENTS  0.1020000D+00 0.1057000D+01 0.1057000D+01 0.1057000D+01 0.1057000D+01
EXPONENTS  0.1057000D+01 0.1057000D+01 0.2470000D+00 0.2470000D+00 0.2470000D+00
EXPONENTS  0.2470000D+00 0.2470000D+00 0.2470000D+00 0.3387000D+02 0.5095000D+01
EXPONENTS  0.1159000D+01 0.3258000D+00 0.1027000D+00 0.2526000D-01 0.1407000D+01
EXPONENTS  0.1407000D+01 0.1407000D+01 0.3880000D+00 0.3880000D+00 0.3880000D+00
EXPONENTS  0.1020000D+00 0.1020000D+00 0.1020000D+00 0.1057000D+01 0.1057000D+01
EXPONENTS  0.1057000D+01 0.1057000D+01 0.1057000D+01 0.1057000D+01 0.2470000D+00
EXPONENTS  0.2470000D+00 0.2470000D+00 0.2470000D+00 0.2470000D+00 0.2470000D+00
MO    1     MO 0.0        OCC NO =    2.0000337  ORB. ENERGY =    0.000000
 -0.88552559D-04 -0.16507981D-03 -0.27900737D-03 -0.41940012D-03 -0.51515792D-03
 -0.43477511D-03 -0.16348680D-03 -0.28504698D-07 -0.21305496D-06 -0.79623502D-06
 -0.22213717D-05 -0.29760257D-05  0.35141314D-05 -0.55184871D-05 -0.19673497D-04
  0.29562083D-06 -0.22041449D-13 -0.20665260D-13 -0.14714896D-13 -0.14506191D-02
 -0.13600476D-02 -0.96843493D-03  0.23186617D-04  0.21738928D-04  0.15479411D-04
 -0.21441089D-14 -0.60912159D-03  0.10015750D-04 -0.37485225D-14  0.16074067D-02
 -0.95810910D-05 -0.16571995D-15  0.29530635D-04 -0.91687036D-07  0.42542296D-06
 -0.34955234D-05  0.30701004D-05 -0.57268691D-14  0.71730164D-15 -0.10624202D-02
  0.19784103D-06 -0.63595847D-06  0.43811745D-06  0.32128512D-14  0.15511175D-14
  0.55585384D-04 -0.31336046D-06  0.10810648D-06  0.20525398D-06  0.53176262D-15
 -0.20860231D-14 -0.21621844D-03 -0.24865249D-15  0.16480023D-03  0.66172772D-06
  0.18463597D-14  0.19885042D-03 -0.41145023D-05 -0.11004022D-14 -0.69325110D-03
  0.21293191D-05  0.26763998D-14 -0.12849467D-15 -0.83563077D-04 -0.98620248D-07
 -0.13650657D-14 -0.12292805D-03  0.95354406D-06  0.17505497D-14  0.37361728D-03
 -0.65768332D-06 -0.11860762D-14 -0.92531838D-04 -0.17299759D-03 -0.29899126D-03
 -0.48360604D-03 -0.73095434D-03 -0.10066755D-02 -0.11766810D-02 -0.10169673D-02
 -0.47462394D-03 -0.64301130D-04  0.47030772D-06 -0.11362991D-05 -0.14607010D-04
 -0.53284274D-04 -0.17977982D-03 -0.39487716D-03 -0.51007358D-03  0.81973164D-04
  0.68765741D-03  0.37737752D-03 -0.12438686D-07 -0.14168437D-06 -0.29418783D-06
 -0.80894181D-06  0.10488860D-06  0.36576665D-05  0.91228011D-05 -0.75517226D-05
  0.20491458D-04  0.78827727D-05 -0.31785697D-08  0.97880500D-10  0.12841365D-09
  0.14084198D-09  0.11588054D-09  0.61085632D-10  0.15893332D-10  0.97723415D+01
  0.12820756D+02  0.14061595D+02  0.11569457D+02  0.60987598D+01  0.15867826D+01
  0.27459719D-01  0.36025590D-01  0.39512275D-01  0.32509510D-01  0.17137165D-01
  0.44587680D-02  0.48624165D-15  0.17453951D-13  0.27691131D-13  0.32882368D-13
  0.49759690D-14 -0.36214170D-13  0.96448560D-04  0.34620819D-02  0.54926798D-02
  0.65223887D-02  0.98700933D-03 -0.71832690D-02  0.26918556D-06  0.96625854D-05
  0.15329934D-04  0.18203826D-04  0.27547187D-05 -0.20048327D-04  0.76387844D-12
  0.66525944D-01  0.19269038D-03  0.63848953D-14 -0.57538256D-03 -0.37424017D-05
  0.77401087D-17 -0.27405381D-04 -0.12515477D-07 -0.74259905D-06 -0.37193268D-06
  0.11145317D-05  0.55722038D-16  0.32597735D-14  0.77618071D-03  0.34566872D-06
  0.10990510D-05 -0.14447198D-05 -0.31415460D-15 -0.29579329D-14 -0.10770342D-02
  0.37031509D-09 -0.21058147D-06  0.21021116D-06 -0.10854694D-15 -0.16587133D-14
 -0.29648336D-04  0.12648447D-14  0.22417677D-05  0.40202733D-06  0.88866072D-16
  0.13113943D-03  0.69060279D-06 -0.38834001D-14 -0.13786474D-03 -0.18966848D-05
 -0.11767920D-14 -0.23066705D-15  0.33922691D-04 -0.12261596D-06  0.12781694D-15
 -0.20036500D-05 -0.31198109D-07  0.56418420D-15 -0.99764424D-04  0.39904598D-06
  0.61101249D-16 -0.10676566D-03 -0.19255626D-03 -0.28392409D-03  0.13264137D-03
  0.23645264D-02  0.25351690D-04 -0.39890982D-14 -0.19588335D-04  0.26778830D-03
  0.39594885D-14 -0.10641302D-04 -0.33422068D-03 -0.19002267D-15  0.31429492D-03
  0.13128942D-03 -0.48756059D-04 -0.14291651D-03  0.19167257D-03  0.61108761D-15
 -0.31075671D-14 -0.11073340D-04  0.25493101D-04 -0.21811539D-04 -0.36815627D-05
 -0.29924178D-15  0.21420595D-14 -0.11655633D-03  0.10811439D-03  0.19498875D-03
  0.28751079D-03 -0.13971847D-03 -0.23565048D-02 -0.25310787D-04  0.93616048D-15
 -0.25802568D-04 -0.25509255D-03 -0.24429923D-14 -0.68467659D-05  0.33414007D-03
 -0.20687942D-14  0.31236749D-03 -0.13491152D-03  0.46296963D-04  0.14217753D-03
 -0.18847449D-03 -0.25702986D-15 -0.20716213D-14 -0.20194590D-04 -0.26461996D-04
  0.21158275D-04  0.53037216D-05  0.21635860D-14  0.94554354D-15 -0.11628808D-03
MO    2     MO 0.0        OCC NO =    2.0000243  ORB. ENERGY =    0.000000
 -0.53390385D-01 -0.99530434D-01 -0.16821999D+00 -0.25286603D+00 -0.31060062D+00
 -0.26213597D+00 -0.98569969D-01 -0.88945636D-05 -0.66481352D-04 -0.24845599D-03
 -0.69315353D-03 -0.92863463D-03  0.10965443D-02 -0.42250087D-02 -0.54261287D-03
 -0.39583054D-04 -0.22101731D-12 -0.20721778D-12 -0.14755140D-12  0.46965515D-05
  0.44033155D-05  0.31354230D-05  0.23950939D-02  0.22455527D-02  0.15989673D-02
 -0.33386228D-13  0.16851315D-05  0.49080213D-04 -0.10426175D-13  0.15775754D-05
 -0.61055056D-03 -0.23324617D-15  0.98483299D-07 -0.42461325D-06  0.18994530D-03
 -0.14373209D-03 -0.46213213D-04  0.36390627D-14 -0.38605223D-13  0.37613938D-05
  0.37530817D-04  0.14759650D-03 -0.18512731D-03  0.21671001D-14  0.35607083D-13
 -0.39186412D-06  0.11231396D-04  0.86430891D-04 -0.97662288D-04 -0.36634471D-15
 -0.57423740D-14 -0.47243998D-06  0.48429606D-14  0.12300917D-05  0.99157349D-05
  0.56624023D-14 -0.10433293D-05 -0.17027311D-03 -0.20191284D-13 -0.26469459D-05
  0.14052591D-03 -0.67878220D-14 -0.20389154D-14  0.26329964D-06  0.58665568D-04
 -0.93553685D-14 -0.46326126D-06  0.10405173D-04  0.15472115D-13 -0.32663767D-06
 -0.18640188D-03 -0.84373469D-15 -0.12122186D+00 -0.22663648D+00 -0.39169521D+00
 -0.63355085D+00 -0.95759091D+00 -0.13188009D+01 -0.15415177D+01 -0.13322838D+01
 -0.62178380D+00 -0.84238062D-01  0.61612932D-03 -0.15096165D-02 -0.19405968D-01
 -0.70790183D-01 -0.23884432D+00 -0.52460931D+00 -0.67765213D+00  0.10890446D+00
  0.91357900D+00  0.50136037D+00 -0.12538276D-04 -0.14281875D-03 -0.29654321D-03
 -0.81541853D-03  0.10572838D-03  0.36869512D-02  0.91958419D-02 -0.76121848D-02
  0.27990863D-01  0.11546892D-02  0.39586954D-05  0.69566668D-09  0.91267512D-09
  0.10010071D-08  0.82359847D-09  0.43415429D-09  0.11295878D-09 -0.22874778D-01
 -0.30010407D-01 -0.32914922D-01 -0.27081406D-01 -0.14275778D-01 -0.37142888D-02
  0.66530424D+01  0.87284133D+01  0.95731804D+01  0.78765244D+01  0.41520558D+01
  0.10802868D+01  0.37225522D-14  0.13362336D-12  0.21199681D-12  0.25173971D-12
  0.38094853D-13 -0.27724720D-12 -0.18590746D-06 -0.66732657D-05 -0.10587303D-04
 -0.12572098D-04 -0.19024898D-05  0.13845964D-04  0.55904063D-04  0.20067116D-02
  0.31836983D-02  0.37805441D-02  0.57209597D-03 -0.41636072D-02  0.53862304D-11
 -0.16143715D-03  0.48593547D-01  0.18180954D-13  0.33243961D-06 -0.64525149D-03
 -0.94608563D-15  0.16812226D-07 -0.13437509D-05 -0.25443426D-03 -0.10205047D-03
  0.35648474D-03  0.43402140D-15  0.40049573D-13 -0.78682216D-06  0.35699753D-03
 -0.38148187D-03  0.24484345D-04  0.14416749D-14 -0.24394831D-13 -0.10435446D-05
 -0.52594092D-05 -0.23246236D-04  0.28505646D-04  0.16158201D-15 -0.42311417D-14
  0.24090729D-06  0.93644426D-14 -0.13784364D-06 -0.69304054D-04 -0.60810471D-14
 -0.29939578D-06  0.20692072D-03 -0.22012281D-13  0.71292671D-06  0.99144384D-06
  0.11949525D-14  0.73456238D-16 -0.10374983D-07 -0.19516850D-04  0.20493187D-14
  0.63272779D-07  0.25449001D-04 -0.22696874D-14 -0.32147830D-07  0.33101548D-04
 -0.16813759D-15 -0.22396756D-04 -0.40393472D-04 -0.59560152D-04 -0.39425529D-03
 -0.44996231D-03  0.32606555D-05 -0.73589266D-14  0.20922244D-04  0.89921013D-04
  0.11644571D-13  0.33289548D-04  0.25145381D-04 -0.46338265D-14  0.35875158D-04
 -0.12649076D-03 -0.10006540D-03  0.19841879D-04  0.80223519D-04  0.13420418D-13
 -0.45100189D-14  0.12944960D-03 -0.31498663D-04  0.21840326D-04  0.96583371D-05
 -0.30992510D-14  0.77880579D-14 -0.64568172D-04 -0.24191343D-04 -0.43630084D-04
 -0.64332533D-04 -0.39858977D-03 -0.45076840D-03  0.28117395D-05 -0.72676330D-14
 -0.17109426D-04  0.85680931D-04  0.67449429D-14 -0.36588049D-04  0.18032322D-04
 -0.39800175D-14 -0.36116036D-04 -0.12666320D-03 -0.10070111D-03  0.22771657D-04
  0.77929453D-04 -0.17235801D-14 -0.11533463D-13 -0.12920426D-03 -0.31569437D-04
  0.22141618D-04  0.94278193D-05  0.42599509D-14  0.76707760D-14  0.63158203D-04
MO    3     MO 0.0        OCC NO =    2.0000101  ORB. ENERGY =    0.000000
 -0.15212751D+00 -0.28359633D+00 -0.47931643D+00 -0.72050200D+00 -0.88500765D+00
 -0.74691524D+00 -0.28085963D+00 -0.23304852D-04 -0.17418933D-03 -0.65098531D-03
 -0.18161477D-02 -0.24331371D-02  0.28730813D-02 -0.12301098D-01 -0.10603347D-03
 -0.10784322D-03  0.31385161D-12  0.29425583D-12  0.20952768D-12 -0.79311890D-05
 -0.74359938D-05 -0.52948706D-05  0.37078039D-02  0.34763019D-02  0.24753340D-02
  0.54707186D-13  0.16578857D-04  0.55402203D-03  0.31862494D-14  0.74979759D-05
 -0.16244499D-03 -0.88035640D-16  0.17185727D-06 -0.38316973D-05  0.45351973D-03
 -0.44076467D-03 -0.12755057D-04 -0.31458462D-14  0.71701606D-13 -0.29492285D-05
 -0.11705718D-03 -0.65455546D-06  0.11771174D-03 -0.62367240D-15 -0.65484797D-13
 -0.54122205D-05  0.13175501D-04  0.60193459D-04 -0.73368960D-04  0.14400116D-15
  0.38909665D-14 -0.19009304D-05 -0.99920616D-14  0.46598234D-05  0.71582643D-04
 -0.29481886D-14 -0.45582889D-05 -0.44923449D-03  0.32924373D-13 -0.94211813D-05
  0.23448657D-03  0.44339375D-14  0.37135627D-14  0.76102387D-06  0.11885361D-03
  0.13691855D-13 -0.11592140D-05 -0.22758206D-04 -0.24832543D-13 -0.11238577D-05
 -0.33380262D-03  0.29934496D-15  0.11191689D+00  0.20923989D+00  0.36162873D+00
  0.58491956D+00  0.88408634D+00  0.12175699D+01  0.14231910D+01  0.12300179D+01
  0.57405575D+00  0.77771958D-01 -0.56883530D-03  0.14064274D-02  0.18079483D-01
  0.65951355D-01  0.22251824D+00  0.48874989D+00  0.63133155D+00 -0.10146035D+00
 -0.85113175D+00 -0.46709013D+00  0.63285642D-05  0.72086281D-04  0.14967710D-03
  0.41157402D-03 -0.53365299D-04 -0.18609503D-02 -0.46415056D-02  0.38421711D-02
 -0.27724620D-01  0.11178881D-02  0.30167501D-04 -0.10412266D-08 -0.13660301D-08
 -0.14982393D-08 -0.12327062D-08 -0.64981262D-09 -0.16906902D-09 -0.13743582D-01
 -0.18030798D-01 -0.19775883D-01 -0.16271001D-01 -0.85771466D-02 -0.22316122D-02
  0.56896086D+01  0.74644429D+01  0.81868784D+01  0.67359169D+01  0.35507924D+01
  0.92384939D+00 -0.54875559D-14 -0.19697928D-12 -0.31251257D-12 -0.37109909D-12
 -0.56157073D-13  0.40870066D-12 -0.97906674D-07 -0.35144219D-05 -0.55757184D-05
 -0.66209945D-05 -0.10019310D-05  0.72918660D-05  0.36606902D-04  0.13140279D-02
  0.20847381D-02  0.24755626D-02  0.37461787D-03 -0.27263987D-02 -0.80585586D-11
 -0.10159535D-03  0.43806839D-01 -0.14129228D-13  0.22308138D-05 -0.11849207D-03
  0.17500863D-14  0.51521691D-07  0.48478580D-06 -0.15110405D-03 -0.13817282D-03
  0.28927687D-03 -0.19002330D-15 -0.66124082D-13 -0.22546605D-05 -0.11347669D-03
  0.47096591D-03 -0.35748923D-03 -0.74669937D-15  0.43621846D-13  0.19876630D-05
  0.62348617D-05  0.20699413D-05 -0.83048029D-05 -0.72592431D-16  0.23506044D-14
 -0.37641396D-06 -0.13360856D-13 -0.30903558D-06 -0.44152408D-04  0.84553288D-14
 -0.16012566D-06  0.20827848D-03  0.31627239D-13  0.10872324D-05 -0.75821261D-04
 -0.40155841D-15 -0.91022300D-15 -0.85447079D-07 -0.12841275D-04 -0.37681575D-14
 -0.52656650D-07  0.19544652D-04  0.64988265D-14  0.30899789D-06  0.18979173D-04
 -0.58932586D-16  0.39781674D-04  0.71747886D-04  0.10579222D-03 -0.34922730D-03
  0.13314057D-04  0.74463370D-05  0.11689711D-13  0.17477353D-03  0.20563023D-03
 -0.17485006D-13  0.13120050D-03  0.17527902D-03  0.51384090D-14  0.75817568D-04
 -0.58687958D-04 -0.23594075D-03  0.11040613D-03  0.12553463D-03 -0.19579094D-13
  0.15952258D-14  0.45201670D-03 -0.64433490D-04  0.97751073D-05  0.54658382D-04
  0.25673683D-14 -0.10391204D-13 -0.57479517D-04  0.36854433D-04  0.66468487D-04
  0.98007746D-04 -0.37699917D-03 -0.15673714D-04  0.64868564D-05  0.13788969D-13
 -0.16442859D-03  0.19745880D-03 -0.15453231D-13 -0.12479723D-03  0.14969020D-03
  0.48707833D-14 -0.72022803D-04 -0.60249422D-04 -0.23535556D-03  0.11492658D-03
  0.12042898D-03  0.98935212D-14  0.52217648D-14 -0.44417501D-03 -0.63759936D-04
  0.99890033D-05  0.53770932D-04 -0.31192598D-14 -0.10357158D-13  0.58099822D-04
MO    4     MO 0.0        OCC NO =    2.0000047  ORB. ENERGY =    0.000000
  0.28524152D+00  0.53174766D+00  0.89872600D+00  0.13509528D+01  0.16594035D+01
  0.14004780D+01  0.52661632D+00  0.30283845D-04  0.22635298D-03  0.84593277D-03
  0.23600207D-02  0.31617771D-02 -0.37334692D-02  0.23561520D-01 -0.49308822D-03
 -0.34470525D-05 -0.17603947D-11 -0.16504819D-11 -0.11752414D-11  0.45085992D-04
  0.42270983D-04  0.30099458D-04  0.42273064D-02  0.39633685D-02  0.28221545D-02
 -0.29261400D-12 -0.37034326D-04 -0.37250826D-03 -0.33368163D-13 -0.72411325D-05
 -0.31130713D-03 -0.27721194D-15  0.16150204D-06 -0.38472148D-05 -0.11776568D-02
  0.59755724D-03  0.58009957D-03 -0.32306517D-14 -0.39733978D-12  0.20658416D-04
  0.18284565D-03  0.11593289D-03 -0.29877854D-03  0.45603791D-14  0.36880846D-12
  0.17038036D-04  0.88433119D-05  0.38909289D-04 -0.47752601D-04 -0.24433379D-15
 -0.34558945D-13  0.10244537D-05  0.50141420D-13 -0.46670457D-05  0.41215888D-03
  0.26893636D-13  0.72952860D-05  0.19024984D-03 -0.17731790D-12  0.67058512D-05
 -0.14267265D-02 -0.19756580D-14 -0.19998588D-13  0.10466613D-05 -0.66189500D-04
 -0.85545519D-13  0.10909413D-05 -0.22714103D-04  0.14554128D-12 -0.42309253D-05
  0.22128260D-03 -0.89053221D-15  0.37063007D-01  0.69293025D-01  0.11975894D+00
  0.19370516D+00  0.29277886D+00  0.40321711D+00  0.47131170D+00  0.40733944D+00
  0.19010744D+00  0.25755386D-01 -0.18837860D-03  0.46489710D-03  0.59762055D-02
  0.21800339D-01  0.73553802D-01  0.16155715D+00  0.20868777D+00 -0.33537901D-01
 -0.28134313D+00 -0.15439748D+00  0.18383952D-05  0.20940464D-04  0.43479951D-04
  0.11955882D-03 -0.15502174D-04 -0.54059055D-03 -0.13483187D-02  0.11161187D-02
 -0.95697264D-02  0.13190605D-02  0.10498936D-03  0.58518501D-08  0.76772946D-08
  0.84203306D-08  0.69279944D-08  0.36520447D-08  0.95019334D-09 -0.85591031D-02
 -0.11229057D-01 -0.12315845D-01 -0.10133106D-01 -0.53415974D-02 -0.13897832D-02
  0.42587818D+01  0.55872796D+01  0.61280365D+01  0.50419638D+01  0.26578367D+01
  0.69151910D+00  0.31131206D-13  0.11174743D-11  0.17729010D-11  0.21052655D-11
  0.31858216D-12 -0.23185813D-11 -0.83477239D-07 -0.29964682D-05 -0.47539719D-05
 -0.56451958D-05 -0.85426692D-06  0.62171945D-05  0.31469660D-04  0.11296233D-02
  0.17921757D-02  0.21281536D-02  0.32204574D-03 -0.23437885D-02  0.45341323D-10
 -0.67389027D-04  0.33219195D-01  0.10979338D-12 -0.20979411D-05 -0.34665945D-03
 -0.90023025D-14 -0.11549471D-06 -0.46329968D-05 -0.13478486D-03 -0.23084137D-03
  0.36562623D-03 -0.34191499D-16  0.37453603D-12 -0.12215011D-05  0.98564660D-04
  0.34096609D-03 -0.43953075D-03  0.96458291D-15 -0.24130828D-12 -0.30515392D-05
 -0.10153456D-04 -0.12208348D-04  0.22361804D-04  0.15677430D-15 -0.22137380D-13
  0.53006314D-06  0.78901716D-13 -0.23032721D-06  0.54375204D-04 -0.45034234D-13
 -0.18032888D-06 -0.28033379D-04 -0.19167091D-12  0.87131051D-06 -0.13509223D-03
  0.14634762D-14  0.37560117D-14  0.68591097D-07 -0.36764408D-04  0.20899110D-13
  0.29245047D-07  0.28598413D-04 -0.32167145D-13 -0.23501834D-06  0.81694812D-04
 -0.34259616D-15 -0.30794285D-03 -0.55538762D-03 -0.81891872D-03 -0.57643386D-03
 -0.49898179D-03 -0.70618631D-05 -0.78481315D-13 -0.82598020D-03 -0.37546787D-03
  0.10570015D-12 -0.42760439D-03 -0.27637469D-03 -0.35161262D-13 -0.37143021D-04
 -0.10443251D-03  0.27311653D-03 -0.43569245D-03  0.16257592D-03  0.87769117D-13
 -0.33556507D-13 -0.95523306D-03  0.49263400D-04 -0.25200421D-04 -0.24062979D-04
 -0.22518786D-13  0.68568511D-13 -0.81228208D-04 -0.30306097D-03 -0.54658295D-03
 -0.80593623D-03 -0.50923642D-03 -0.46427320D-03 -0.71129242D-05 -0.72100432D-13
  0.81067975D-03 -0.37670714D-03  0.96905015D-13  0.38049725D-03 -0.26039415D-03
 -0.35058467D-13  0.30171030D-04 -0.10250173D-03  0.27254876D-03 -0.42307112D-03
  0.15052236D-03 -0.85334633D-13 -0.32771303D-13  0.96118571D-03  0.47281903D-04
 -0.21995866D-04 -0.25286037D-04  0.24920969D-13  0.67553132D-13  0.76418091D-04
MO    5     MO 0.0        OCC NO =    2.0000044  ORB. ENERGY =    0.000000
 -0.18426761D-09 -0.34351194D-09 -0.58058198D-09 -0.87272300D-09 -0.10719839D-08
 -0.90471659D-09 -0.34019706D-09 -0.20177743D-13 -0.15081613D-12 -0.56363431D-12
 -0.15724520D-11 -0.21066521D-11  0.24875633D-11 -0.15174762D-10  0.11720181D-13
 -0.37033012D-13 -0.29467024D-02 -0.27627208D-02 -0.19672218D-02 -0.15403582D-13
 -0.14441837D-13 -0.10283448D-13 -0.23106541D-11 -0.21663851D-11 -0.15425952D-11
 -0.49012542D-03 -0.12075263D-13  0.29164770D-12 -0.49788098D-04 -0.73076584D-13
  0.19014260D-12 -0.22046894D-06 -0.33690198D-14  0.13317730D-14  0.72209398D-12
 -0.39549688D-12 -0.32659710D-12 -0.57988357D-06 -0.66479450D-03  0.10690248D-13
 -0.86734573D-13 -0.95841629D-13  0.18257620D-12  0.28554287D-05  0.61383605D-03
  0.18661003D-13 -0.21399593D-14 -0.23090274D-13  0.25230234D-13 -0.62446792D-06
 -0.54378150D-04 -0.33756713D-15  0.83949488D-04  0.16938939D-14 -0.24892881D-12
  0.45110125D-04 -0.44894588D-14 -0.14478247D-12 -0.29695859D-03 -0.59222292D-15
  0.89156892D-12 -0.15851922D-05 -0.33653060D-04  0.26970630D-14  0.40175759D-13
 -0.14055508D-03  0.52249769D-14  0.98927552D-14  0.24151426D-03 -0.13316166D-13
 -0.13042003D-12  0.33343409D-06 -0.14433184D-09 -0.26984291D-09 -0.46636876D-09
 -0.75433225D-09 -0.11401480D-08 -0.15702198D-08 -0.18353957D-08 -0.15862731D-08
 -0.74032191D-09 -0.10029737D-09  0.73358944D-12 -0.14055269D-13 -0.18067907D-12
 -0.65909129D-12 -0.22237577D-11 -0.48843697D-11 -0.63092733D-11  0.10139539D-11
  0.85058681D-11  0.46679107D-11  0.45150141D-15  0.51428818D-14  0.10678477D-13
  0.29363098D-13 -0.38072629D-14 -0.13276656D-12 -0.33114088D-12  0.27411363D-12
  0.77338922D-12 -0.62736511D-12 -0.37578507D-13  0.97155957D+01  0.12746309D+02
  0.13979942D+02  0.11502276D+02  0.60633457D+01  0.15775685D+01 -0.93189888D-10
 -0.12225983D-09 -0.13409258D-09 -0.11032733D-09 -0.58158297D-10 -0.15131695D-10
 -0.24348893D-08 -0.31944362D-08 -0.35036052D-08 -0.28826608D-08 -0.15195749D-08
 -0.39536480D-09  0.51731393D-04  0.18569310D-02  0.29460676D-02  0.34983649D-02
  0.52939482D-03 -0.38528363D-02 -0.11160971D-14 -0.40063010D-13 -0.63560969D-13
 -0.75476701D-13 -0.11421614D-13  0.83124368D-13 -0.18110071D-13 -0.65007242D-12
 -0.10313562D-11 -0.12247038D-11 -0.18532997D-12  0.13487968D-11  0.75260321D-01
 -0.63188540D-12 -0.18803945D-10  0.17319931D-03  0.20405412D-13  0.20068195D-12
 -0.15183061D-04  0.77461325D-15  0.23372609D-14  0.78515617D-13  0.12106130D-12
 -0.19957692D-12 -0.20337346D-06  0.62424253D-03 -0.19514771D-13 -0.10757338D-12
 -0.12732819D-12  0.23490157D-12  0.11095647D-05 -0.39984112D-03  0.20160273D-13
  0.57575696D-14  0.78988862D-14 -0.13656456D-13  0.18883715D-06 -0.34368020D-04
 -0.30564497D-14  0.12998834D-03  0.44109897D-15 -0.36692110D-13 -0.73632561D-04
 -0.21139574D-14  0.29987754D-13 -0.31633245D-03  0.79066052D-15  0.80088575D-13
  0.12819370D-05  0.66345130D-05 -0.10300759D-14  0.21629167D-13  0.35058385D-04
 -0.29218007D-15 -0.17597228D-13 -0.54961924D-04  0.33824077D-14 -0.47290272D-13
 -0.36120461D-06  0.19424564D-12  0.35033002D-12  0.51656140D-12  0.39623107D-12
  0.28452921D-12 -0.31020034D-15 -0.12743857D-03  0.52562040D-12  0.23378450D-12
  0.16719971D-03  0.26353795D-12  0.20847638D-12 -0.58038558D-04  0.20513164D-13
  0.59295350D-13 -0.17882358D-12  0.26867232D-12 -0.89848731D-13  0.14001240D-03
 -0.57213909D-04  0.61258525D-12 -0.30884095D-13  0.11705075D-13  0.19179021D-13
 -0.37873923D-04  0.11089526D-03  0.50344577D-13  0.18643287D-12  0.33623936D-12
  0.49578473D-12  0.45364843D-12  0.46956743D-12  0.13322387D-13 -0.12389286D-03
 -0.51090097D-12  0.24808993D-12  0.16169582D-03 -0.30025434D-12  0.19117628D-12
 -0.56635378D-04 -0.46222776D-13  0.79933858D-13 -0.18448355D-12  0.27330992D-12
 -0.88826369D-13 -0.14022594D-03 -0.52338341D-04 -0.63364341D-12 -0.31403228D-13
  0.13605528D-13  0.17797699D-13  0.39405389D-04  0.11055594D-03 -0.43392723D-13
MO    6     MO 0.0        OCC NO =    2.0000000  ORB. ENERGY =    0.000000
 -0.80098269D-04 -0.14931931D-03 -0.25236998D-03 -0.37935915D-03 -0.46597476D-03
 -0.39326626D-03 -0.14787838D-03  0.50260841D-07  0.37566865D-06  0.14039595D-05
  0.39168284D-05  0.52474703D-05 -0.61962839D-05  0.17045946D-05 -0.30345283D-04
 -0.72065920D-05 -0.71838539D-12 -0.67353197D-12 -0.47959489D-12 -0.26278877D-07
 -0.24638117D-07 -0.17543807D-07  0.14601290D-04  0.13689638D-04  0.97478377D-05
 -0.12020998D-12  0.31501541D-07 -0.38259428D-04 -0.89894412D-14  0.11407697D-06
  0.40674019D-05  0.38026639D-16  0.83827497D-08 -0.39134431D-06  0.14967895D-05
  0.88714506D-05 -0.10368240D-04  0.63823810D-15 -0.17300107D-12  0.16789048D-06
  0.62641735D-05  0.44614256D-05 -0.10725599D-04 -0.68414274D-14  0.15642038D-12
  0.92653511D-07  0.63352513D-06 -0.88108426D-06  0.24755913D-06  0.16427841D-15
 -0.13757644D-13  0.17128176D-07  0.20693153D-13  0.10173234D-06  0.21100873D-05
  0.10260854D-13 -0.48363158D-07  0.42017711D-06 -0.72340313D-13 -0.25683386D-06
 -0.67504389D-05 -0.23651977D-14 -0.83835448D-14  0.52600654D-07 -0.36085077D-06
 -0.35521963D-13 -0.10681641D-07  0.59571193D-06  0.60672597D-13 -0.14712032D-06
  0.48684038D-06  0.50563839D-14  0.58266945D+00  0.10893592D+01  0.18827365D+01
  0.30452487D+01  0.46027915D+01  0.63389969D+01  0.74095155D+01  0.64038043D+01
  0.29886888D+01  0.40490175D+00 -0.29615097D-02 -0.29342529D-04 -0.37719526D-03
 -0.13759541D-02 -0.46424350D-02 -0.10196870D-01 -0.13171575D-01  0.21167842D-02
  0.17757303D-01  0.97449790D-02  0.19732250D-06  0.22476259D-05  0.46668816D-05
  0.12832739D-04 -0.16639120D-05 -0.58023802D-04 -0.14472058D-03  0.11979760D-03
  0.14000802D-04 -0.17392282D-04  0.33162837D-05  0.23791168D-08  0.31212659D-08
  0.34233532D-08  0.28166319D-08  0.14847682D-08  0.38630876D-09 -0.64358298D-05
 -0.84434427D-05 -0.92606292D-05 -0.76193668D-05 -0.40164969D-05 -0.10450170D-05
  0.11215831D-01  0.14714533D-01  0.16138658D-01  0.13278402D-01  0.69996183D-02
  0.18211690D-02  0.12714944D-13  0.45641096D-12  0.72410742D-12  0.85985535D-12
  0.13011878D-12 -0.94698009D-12 -0.18069805D-08 -0.64862704D-07 -0.10290631D-06
 -0.12219808D-06 -0.18491791D-07  0.13457979D-06  0.70558899D-06  0.25327562D-04
  0.40182812D-04  0.47715857D-04  0.72206668D-05 -0.52550660D-04  0.18433426D-10
 -0.16391990D-06  0.16314990D-03  0.42043945D-13  0.17649379D-08  0.52058334D-05
 -0.37234104D-14 -0.18850558D-09 -0.35702143D-07 -0.58168054D-05 -0.37748080D-05
  0.95916134D-05 -0.12810226D-14  0.15626861D-12 -0.65905227D-07  0.91314517D-05
 -0.15968140D-04  0.68366880D-05  0.30864782D-14 -0.98123631D-13 -0.15008830D-06
  0.59199393D-06  0.48997439D-06 -0.10819683D-05 -0.89178931D-16 -0.82308585D-14
 -0.38641121D-08  0.32520140D-13 -0.19082137D-07 -0.70017985D-05 -0.18359440D-13
  0.75008141D-08  0.12190502D-04 -0.79200980D-13  0.49745598D-07  0.88148935D-05
  0.55926751D-15  0.17753473D-14 -0.10726103D-08 -0.58499575D-07  0.88910302D-14
 -0.40518843D-08 -0.77395905D-08 -0.14217072D-13  0.72697153D-08  0.18323831D-06
  0.88193818D-15 -0.12425533D-05 -0.22409961D-05 -0.33043475D-05  0.27466370D-05
  0.17305461D-04  0.25017023D-06 -0.25938993D-13 -0.58584322D-05 -0.15070969D-05
  0.34637171D-13  0.84802407D-06 -0.12944248D-05 -0.15399898D-13  0.78193126D-06
  0.24936448D-05 -0.24780834D-05 -0.16755416D-05  0.41536250D-05  0.36388049D-13
 -0.14988497D-13 -0.20494819D-05 -0.57884654D-07 -0.43049733D-06  0.48838198D-06
 -0.11839323D-13  0.27853212D-13 -0.18580607D-05 -0.12214466D-05 -0.22029292D-05
 -0.32482178D-05  0.28491892D-05  0.16967806D-04  0.21433053D-06 -0.39780811D-13
  0.59014620D-05 -0.16254977D-05  0.51688882D-13 -0.12970676D-05 -0.18513165D-05
 -0.15003975D-13 -0.76642665D-06  0.24304509D-05 -0.23728958D-05 -0.12554313D-05
  0.36283271D-05 -0.44368060D-13 -0.95167638D-14  0.24600007D-05 -0.50614644D-07