 h2cs-wavefunction
GAUSSIAN            142 MOL ORBITALS    240 PRIMITIVES        4 NUCLEI
  C    1    (CENTRE  1)   0.01889726  0.00000000 -1.04934791  CHARGE =  6.0
  S    2    (CENTRE  2)   0.00000000  0.00000000  2.00381646  CHARGE = 16.0
  H    3    (CENTRE  3)   0.00000000 -1.74285662 -2.13348569  CHARGE =  1.0
  H    4    (CENTRE  4)   0.00000000  1.74285662 -2.13348569  CHARGE =  1.0
CENTRE ASSIGNMENTS    1  1  1  1  1  1  1  1  1  1  1  1  1  1  1  1  1  1  1  1
CENTRE ASSIGNMENTS    1  1  1  1  1  1  1  1  1  1  1  1  1  1  1  1  1  1  1  1
CENTRE ASSIGNMENTS    1  1  1  1  1  1  1  1  1  1  1  1  1  1  1  1  1  1  1  1
CENTRE ASSIGNMENTS    1  1  1  1  1  1  1  1  1  1  1  1  2  2  2  2  2  2  2  2
CENTRE ASSIGNMENTS    2  2  2  2  2  2  2  2  2  2  2  2  2  2  2  2  2  2  2  2
CENTRE ASSIGNMENTS    2  2  2  2  2  2  2  2  2  2  2  2  2  2  2  2  2  2  2  2
CENTRE ASSIGNMENTS    2  2  2  2  2  2  2  2  2  2  2  2  2  2  2  2  2  2  2  2
CENTRE ASSIGNMENTS    2  2  2  2  2  2  2  2  2  2  2  2  2  2  2  2  2  2  2  2
CENTRE ASSIGNMENTS    2  2  2  2  2  2  2  2  2  2  2  2  2  2  2  2  2  2  2  2
CENTRE ASSIGNMENTS    2  2  2  2  2  2  3  3  3  3  3  3  3  3  3  3  3  3  3  3
CENTRE ASSIGNMENTS    3  3  3  3  3  3  3  3  3  3  3  3  3  4  4  4  4  4  4  4
CENTRE ASSIGNMENTS    4  4  4  4  4  4  4  4  4  4  4  4  4  4  4  4  4  4  4  4
TYPE ASSIGNMENTS      1  1  1  1  1  1  1  1  1  1  1  1  1  1  1  1  2  2  2  3
TYPE ASSIGNMENTS      3  3  4  4  4  2  3  4  2  3  4  2  3  4  5  6  7  8  9 10
TYPE ASSIGNMENTS      5  6  7  8  9 10  5  6  7  8  9 10 11 12 13 17 14 15 18 19
TYPE ASSIGNMENTS     16 20 11 12 13 17 14 15 18 19 16 20  1  1  1  1  1  1  1  1
TYPE ASSIGNMENTS      1  1  1  1  1  1  1  1  1  1  1  1  1  1  1  1  1  1  1  1
TYPE ASSIGNMENTS      1  1  1  2  2  2  2  2  2  3  3  3  3  3  3  4  4  4  4  4
TYPE ASSIGNMENTS      4  2  2  2  2  2  2  3  3  3  3  3  3  4  4  4  4  4  4  2
TYPE ASSIGNMENTS      3  4  2  3  4  2  3  4  5  6  7  8  9 10  5  6  7  8  9 10
TYPE ASSIGNMENTS      5  6  7  8  9 10 11 12 13 17 14 15 18 19 16 20 11 12 13 17
TYPE ASSIGNMENTS     14 15 18 19 16 20  1  1  1  1  1  1  2  3  4  2  3  4  2  3
TYPE ASSIGNMENTS      4  5  6  7  8  9 10  5  6  7  8  9 10  1  1  1  1  1  1  2
TYPE ASSIGNMENTS      3  4  2  3  4  2  3  4  5  6  7  8  9 10  5  6  7  8  9 10
EXPONENTS  0.8236000D+04 0.1235000D+04 0.2808000D+03 0.7927000D+02 0.2559000D+02
EXPONENTS  0.8997000D+01 0.3319000D+01 0.2808000D+03 0.7927000D+02 0.2559000D+02
EXPONENTS  0.8997000D+01 0.3319000D+01 0.3643000D+00 0.9059000D+00 0.1285000D+00
EXPONENTS  0.4402000D-01 0.1871000D+02 0.4133000D+01 0.1200000D+01 0.1871000D+02
EXPONENTS  0.4133000D+01 0.1200000D+01 0.1871000D+02 0.4133000D+01 0.1200000D+01
EXPONENTS  0.3827000D+00 0.3827000D+00 0.3827000D+00 0.1209000D+00 0.1209000D+00
EXPONENTS  0.1209000D+00 0.3569000D-01 0.3569000D-01 0.3569000D-01 0.1097000D+01
EXPONENTS  0.1097000D+01 0.1097000D+01 0.1097000D+01 0.1097000D+01 0.1097000D+01
EXPONENTS  0.3180000D+00 0.3180000D+00 0.3180000D+00 0.3180000D+00 0.3180000D+00
EXPONENTS  0.3180000D+00 0.1000000D+00 0.1000000D+00 0.1000000D+00 0.1000000D+00
EXPONENTS  0.1000000D+00 0.1000000D+00 0.7610000D+00 0.7610000D+00 0.7610000D+00
EXPONENTS  0.7610000D+00 0.7610000D+00 0.7610000D+00 0.7610000D+00 0.7610000D+00
EXPONENTS  0.7610000D+00 0.7610000D+00 0.2680000D+00 0.2680000D+00 0.2680000D+00
EXPONENTS  0.2680000D+00 0.2680000D+00 0.2680000D+00 0.2680000D+00 0.2680000D+00
EXPONENTS  0.2680000D+00 0.2680000D+00 0.3741000D+06 0.5605000D+05 0.1276000D+05
EXPONENTS  0.3615000D+04 0.1183000D+04 0.4288000D+03 0.1678000D+03 0.6947000D+02
EXPONENTS  0.2984000D+02 0.1272000D+02 0.5244000D+01 0.3615000D+04 0.1183000D+04
EXPONENTS  0.4288000D+03 0.1678000D+03 0.6947000D+02 0.2984000D+02 0.1272000D+02
EXPONENTS  0.5244000D+01 0.2219000D+01 0.1183000D+04 0.1678000D+03 0.6947000D+02
EXPONENTS  0.2984000D+02 0.1272000D+02 0.5244000D+01 0.2219000D+01 0.3490000D+00
EXPONENTS  0.7767000D+00 0.1322000D+00 0.4970000D-01 0.5744000D+03 0.1358000D+03
EXPONENTS  0.4319000D+02 0.1587000D+02 0.6208000D+01 0.2483000D+01 0.5744000D+03
EXPONENTS  0.1358000D+03 0.4319000D+02 0.1587000D+02 0.6208000D+01 0.2483000D+01
EXPONENTS  0.5744000D+03 0.1358000D+03 0.4319000D+02 0.1587000D+02 0.6208000D+01
EXPONENTS  0.2483000D+01 0.1358000D+03 0.4319000D+02 0.1587000D+02 0.6208000D+01
EXPONENTS  0.2483000D+01 0.3229000D+00 0.1358000D+03 0.4319000D+02 0.1587000D+02
EXPONENTS  0.6208000D+01 0.2483000D+01 0.3229000D+00 0.1358000D+03 0.4319000D+02
EXPONENTS  0.1587000D+02 0.6208000D+01 0.2483000D+01 0.3229000D+00 0.8688000D+00
EXPONENTS  0.8688000D+00 0.8688000D+00 0.1098000D+00 0.1098000D+00 0.1098000D+00
EXPONENTS  0.3510000D-01 0.3510000D-01 0.3510000D-01 0.2690000D+00 0.2690000D+00
EXPONENTS  0.2690000D+00 0.2690000D+00 0.2690000D+00 0.2690000D+00 0.8190000D+00
EXPONENTS  0.8190000D+00 0.8190000D+00 0.8190000D+00 0.8190000D+00 0.8190000D+00
EXPONENTS  0.1010000D+00 0.1010000D+00 0.1010000D+00 0.1010000D+00 0.1010000D+00
EXPONENTS  0.1010000D+00 0.5570000D+00 0.5570000D+00 0.5570000D+00 0.5570000D+00
EXPONENTS  0.5570000D+00 0.5570000D+00 0.5570000D+00 0.5570000D+00 0.5570000D+00
EXPONENTS  0.5570000D+00 0.2180000D+00 0.2180000D+00 0.2180000D+00 0.2180000D+00
EXPONENTS  0.2180000D+00 0.2180000D+00 0.2180000D+00 0.2180000D+00 0.2180000D+00
EXPONENTS  0.2180000D+00 0.3387000D+02 0.5095000D+01 0.1159000D+01 0.3258000D+00
EXPONENTS  0.1027000D+00 0.2526000D-01 0.1407000D+01 0.1407000D+01 0.1407000D+01
EXPONENTS  0.3880000D+00 0.3880000D+00 0.3880000D+00 0.1020000D+00 0.1020000D+00
EXPONENTS  0.1020000D+00 0.1057000D+01 0.1057000D+01 0.1057000D+01 0.1057000D+01
EXPONENTS  0.1057000D+01 0.1057000D+01 0.2470000D+00 0.2470000D+00 0.2470000D+00
EXPONENTS  0.2470000D+00 0.2470000D+00 0.2470000D+00 0.3387000D+02 0.5095000D+01
EXPONENTS  0.1159000D+01 0.3258000D+00 0.1027000D+00 0.2526000D-01 0.1407000D+01
EXPONENTS  0.1407000D+01 0.1407000D+01 0.3880000D+00 0.3880000D+00 0.3880000D+00
EXPONENTS  0.1020000D+00 0.1020000D+00 0.1020000D+00 0.1057000D+01 0.1057000D+01
EXPONENTS  0.1057000D+01 0.1057000D+01 0.1057000D+01 0.1057000D+01 0.2470000D+00
EXPONENTS  0.2470000D+00 0.2470000D+00 0.2470000D+00 0.2470000D+00 0.2470000D+00
MO    1     MO 0.0        OCC NO =    2.0000337  ORB. ENERGY =    0.000000
 -0.16100331D-10 -0.30014260D-10 -0.50728188D-10 -0.76253928D-10 -0.93664293D-10
 -0.79049359D-10 -0.29724623D-10 -0.21710362D-14 -0.16227151D-13 -0.60644567D-13
 -0.16918890D-12 -0.22666648D-12  0.26765085D-12 -0.13432613D-11  0.29729282D-12
  0.37708353D-13 -0.10598934D-12 -0.99371741D-13 -0.70758599D-13 -0.14388593D-02
 -0.13490221D-02 -0.96058410D-03  0.10583190D-12  0.99224130D-13  0.70653491D-13
 -0.15110245D-13 -0.59810577D-03  0.96424115D-13 -0.19458097D-14  0.16103611D-02
  0.90861346D-13 -0.22334575D-16  0.29659787D-04  0.19387636D-14  0.65417126D-13
 -0.45655119D-13 -0.19762007D-13  0.13333369D-04 -0.25051702D-13 -0.10629678D-02
 -0.45494101D-13 -0.16995813D-13  0.62489914D-13 -0.80849716D-05  0.22051660D-13
  0.52415366D-04 -0.24329841D-14 -0.32934776D-14  0.57264617D-14 -0.34801140D-05
 -0.22258725D-14 -0.21482067D-03  0.33782294D-14  0.16674651D-03  0.33227083D-14
  0.20836675D-14  0.19449311D-03 -0.38695951D-13 -0.12218356D-13 -0.69473266D-03
  0.28727826D-13  0.47663037D-05 -0.12494839D-14 -0.81229338D-04  0.13551011D-13
 -0.54451708D-14 -0.12283950D-03 -0.36767739D-14  0.91936224D-14  0.36652751D-03
 -0.36976260D-13 -0.37019050D-06  0.38905269D-10  0.72737318D-10  0.12571171D-09
  0.20333350D-09  0.30733178D-09  0.42325950D-09  0.49473881D-09  0.42758673D-09
  0.19955696D-09  0.27035589D-10 -0.19774219D-12  0.22738577D-12  0.29230212D-11
  0.10662761D-10  0.35975892D-10  0.79019201D-10  0.10207125D-09 -0.16403719D-10
 -0.13760770D-09 -0.75517334D-10  0.14694032D-14  0.16737416D-13  0.34752909D-13
  0.95561673D-13 -0.12390668D-13 -0.43208637D-12 -0.10776920D-11  0.89209785D-12
 -0.43562843D-11 -0.18324748D-12 -0.57717924D-13  0.33636916D-09  0.44129721D-09
  0.48400754D-09  0.39822682D-09  0.20992254D-09  0.54617896D-10  0.97724284D+01
  0.12820870D+02  0.14061720D+02  0.11569560D+02  0.60988140D+01  0.15867967D+01
 -0.27484251D-10 -0.36057774D-10 -0.39547574D-10 -0.32538553D-10 -0.17152475D-10
 -0.44627514D-11  0.18217649D-14  0.65393402D-13  0.10374827D-12  0.12319789D-12
  0.18643088D-13 -0.13568090D-12  0.96388342D-04  0.34599204D-02  0.54892504D-02
  0.65183165D-02  0.98639309D-03 -0.71787841D-02 -0.20833081D-14 -0.74781658D-13
 -0.11864298D-12 -0.14088489D-12 -0.21319598D-13  0.15516004D-12  0.26098789D-11
  0.66518178D-01 -0.92508497D-13  0.62685251D-14 -0.57561415D-03  0.11259713D-12
 -0.52072221D-15 -0.27481871D-04  0.26238878D-14  0.17509182D-13  0.12984360D-13
 -0.30493543D-13 -0.66150917D-05  0.23338500D-13  0.77015211D-03 -0.37115917D-13
  0.61596661D-13 -0.24480744D-13  0.93917002D-05 -0.14128193D-13 -0.10812197D-02
  0.41781334D-14  0.44922413D-14 -0.86703747D-14  0.85007856D-06 -0.12619838D-14
 -0.29926190D-04  0.50217086D-14  0.14810527D-05  0.55081307D-14 -0.18356231D-14
  0.13079222D-03 -0.19863727D-14 -0.13229503D-13 -0.13523538D-03 -0.14538019D-13
  0.48056105D-05  0.19487011D-15  0.33702610D-04  0.28944778D-14  0.12947023D-14
 -0.22232642D-05 -0.33789322D-14 -0.18793126D-14 -0.98884566D-04 -0.53045012D-14
  0.17289041D-05 -0.10702105D-03 -0.19301687D-03 -0.28460326D-03  0.13722844D-03
  0.23669964D-02  0.25554199D-04 -0.48812881D-05 -0.18470460D-04  0.26621815D-03
  0.15130570D-05 -0.14263227D-04 -0.32477874D-03  0.22578528D-05  0.31389252D-03
  0.13271271D-03 -0.49138329D-04 -0.14471638D-03  0.19385471D-03 -0.60247600D-05
 -0.16967148D-05 -0.84347418D-05  0.25277606D-04 -0.22496264D-04 -0.27813423D-05
 -0.68442663D-07 -0.35578774D-05 -0.11633830D-03  0.10702105D-03  0.19301687D-03
  0.28460326D-03 -0.13722844D-03 -0.23669964D-02 -0.25554199D-04  0.48812881D-05
 -0.18470460D-04 -0.26621815D-03 -0.15130570D-05 -0.14263227D-04  0.32477874D-03
 -0.22578528D-05  0.31389252D-03 -0.13271271D-03  0.49138329D-04  0.14471638D-03
 -0.19385471D-03 -0.60247600D-05  0.16967148D-05 -0.84347419D-05 -0.25277606D-04
  0.22496264D-04  0.27813423D-05 -0.68442659D-07  0.35578774D-05 -0.11633830D-03
MO    2     MO 0.0        OCC NO =    2.0000243  ORB. ENERGY =    0.000000
 -0.53353900D-01 -0.99462418D-01 -0.16810504D+00 -0.25269323D+00 -0.31038837D+00
 -0.26195683D+00 -0.98502610D-01 -0.88995497D-05 -0.66518620D-04 -0.24859527D-03
 -0.69354210D-03 -0.92915521D-03  0.10971590D-02 -0.42230140D-02 -0.55223909D-03
 -0.39714329D-04 -0.23642330D-04 -0.22166187D-04 -0.15783646D-04 -0.66037889D-13
 -0.61914718D-13 -0.44086968D-13  0.24027286D-02  0.22527108D-02  0.16040643D-02
  0.33670620D-05 -0.29185644D-13  0.49422776D-04 -0.13946044D-06  0.18949346D-12
 -0.60445672D-03  0.14940562D-08  0.55409630D-14 -0.47289255D-06  0.18980484D-03
 -0.14549200D-03 -0.44312837D-04 -0.25556864D-14 -0.65136390D-05 -0.95268404D-13
  0.38130708D-04  0.14628475D-03 -0.18441546D-03  0.12581375D-14  0.19994085D-05
  0.30612819D-14  0.11050608D-04  0.85313723D-04 -0.96364331D-04 -0.39186816D-15
 -0.73026730D-06 -0.45129090D-14 -0.29868214D-06  0.90235335D-14  0.98870823D-05
  0.26869282D-05  0.22885242D-13 -0.17113318D-03 -0.17908818D-05 -0.49955842D-13
  0.14147194D-03  0.10613712D-14 -0.48899647D-06 -0.11608294D-13  0.58579531D-04
  0.25497652D-05 -0.15799850D-13  0.10672777D-04 -0.10827757D-05  0.50624733D-13
 -0.18641137D-03 -0.92480688D-15 -0.12114374D+00 -0.22649043D+00 -0.39144278D+00
 -0.63314257D+00 -0.95697380D+00 -0.13179511D+01 -0.15405243D+01 -0.13314253D+01
 -0.62138311D+00 -0.84183776D-01  0.61573226D-03 -0.15086397D-02 -0.19393412D-01
 -0.70744380D-01 -0.23868978D+00 -0.52426987D+00 -0.67721367D+00  0.10883400D+00
  0.91298789D+00  0.50103598D+00 -0.12530807D-04 -0.14273369D-03 -0.29636659D-03
 -0.81493284D-03  0.10566540D-03  0.36847552D-02  0.91903646D-02 -0.76076507D-02
  0.27973289D-01  0.11445842D-02  0.42541721D-05 -0.18832694D-01 -0.24707424D-01
 -0.27098697D-01 -0.22295991D-01 -0.11753179D-01 -0.30579561D-02  0.69298552D-09
  0.90915760D-09  0.99714912D-09  0.82042426D-09  0.43248102D-09  0.11252343D-09
  0.66580035D+01  0.87349219D+01  0.95803189D+01  0.78823978D+01  0.41551519D+01
  0.10810924D+01 -0.16605272D-06 -0.59605672D-05 -0.94565893D-05 -0.11229410D-04
 -0.16993057D-05  0.12367228D-04  0.73600684D-14  0.26419430D-12  0.41915088D-12
  0.49772882D-12  0.75319489D-13 -0.54816113D-12  0.55919319D-04  0.20072593D-02
  0.31845671D-02  0.37815758D-02  0.57225209D-03 -0.41647435D-02 -0.14610526D-03
  0.47184313D-11  0.48627276D-01  0.69357088D-05 -0.75426786D-13 -0.64475443D-03
 -0.50902500D-07 -0.28700197D-14 -0.13894717D-05 -0.25510906D-03 -0.10220302D-03
  0.35731209D-03 -0.92674781D-15 -0.77270644D-05  0.88445123D-13  0.35825303D-03
 -0.38147753D-03  0.23224502D-04  0.26498355D-15  0.21373052D-05 -0.94790836D-13
 -0.53392043D-05 -0.23219983D-04  0.28559187D-04  0.54779682D-16 -0.13794065D-05
  0.55389236D-14 -0.64096255D-06  0.66253036D-15 -0.69436909D-04  0.43968123D-06
  0.12819345D-13  0.20745136D-03  0.14832064D-05 -0.14806936D-13  0.85936397D-06
  0.12318099D-14 -0.29580407D-06  0.41537060D-14 -0.19642724D-04 -0.46763322D-06
  0.86060867D-15  0.25720535D-04  0.13550454D-05 -0.13321727D-13  0.33207637D-04
  0.20065261D-15 -0.22691333D-04 -0.40924754D-04 -0.60343526D-04 -0.39317637D-03
 -0.44432766D-03  0.30291179D-05  0.25310781D-05  0.20990176D-04  0.90720156D-04
 -0.82326228D-05  0.34042351D-04  0.25372881D-04 -0.19098581D-05  0.35826117D-04
 -0.12427144D-03 -0.10027353D-03  0.20049929D-04  0.80223600D-04 -0.10567214D-05
 -0.23503740D-05  0.13072175D-03 -0.31284716D-04  0.21756384D-04  0.95283318D-05
  0.12234057D-05 -0.23685725D-05 -0.64524612D-04 -0.22691333D-04 -0.40924754D-04
 -0.60343526D-04 -0.39317637D-03 -0.44432766D-03  0.30291178D-05  0.25310781D-05
 -0.20990176D-04  0.90720156D-04 -0.82326228D-05 -0.34042351D-04  0.25372881D-04
 -0.19098581D-05 -0.35826117D-04 -0.12427144D-03 -0.10027353D-03  0.20049929D-04
  0.80223600D-04  0.10567214D-05 -0.23503740D-05 -0.13072175D-03 -0.31284716D-04
  0.21756384D-04  0.95283318D-05 -0.12234057D-05 -0.23685725D-05  0.64524612D-04
MO    3     MO 0.0        OCC NO =    2.0000101  ORB. ENERGY =    0.000000
 -0.15140549D+00 -0.28225033D+00 -0.47704150D+00 -0.71708236D+00 -0.88080724D+00
 -0.74337024D+00 -0.27952662D+00 -0.23221258D-04 -0.17356451D-03 -0.64865021D-03
 -0.18096331D-02 -0.24244094D-02  0.28627755D-02 -0.12246311D-01 -0.11842304D-03
 -0.10747209D-03 -0.57233725D-04 -0.53660255D-04 -0.38209298D-04  0.10708984D-12
  0.10040353D-12  0.71493296D-13  0.37165040D-02  0.34844588D-02  0.24811422D-02
  0.39134983D-05  0.11929086D-12  0.55406753D-03 -0.84194516D-06 -0.11195884D-12
 -0.15602794D-03  0.57027467D-07 -0.17007710D-14 -0.38070717D-05  0.45276769D-03
 -0.44552975D-03 -0.72379380D-05 -0.21136109D-14 -0.16328300D-04  0.83082301D-13
 -0.11554280D-03 -0.37970450D-05  0.11933985D-03  0.37692356D-14 -0.10728608D-05
 -0.53593887D-13  0.12975949D-04  0.59187698D-04 -0.72163646D-04  0.11669861D-14
 -0.85495737D-06 -0.78254496D-14 -0.10185697D-05 -0.14090921D-13  0.71451574D-04
  0.96378049D-05 -0.35158732D-13 -0.44919690D-03 -0.65820958D-05  0.77431494D-13
  0.23484218D-03 -0.96338849D-15 -0.88560858D-06  0.11047812D-13  0.11867006D-03
  0.45033503D-05  0.12057350D-13 -0.22341205D-04 -0.18465246D-05 -0.45200787D-13
 -0.33366897D-03 -0.90926532D-15  0.11207230D+00  0.20953045D+00  0.36213089D+00
  0.58573179D+00  0.88531400D+00  0.12192607D+01  0.14251673D+01  0.12317259D+01
  0.57485290D+00  0.77879954D-01 -0.56962520D-03  0.14083635D-02  0.18104371D-01
  0.66042142D-01  0.22282455D+00  0.48942269D+00  0.63220062D+00 -0.10160002D+00
 -0.85230340D+00 -0.46773311D+00  0.63427401D-05  0.72247753D-04  0.15001238D-03
  0.41249594D-03 -0.53484836D-04 -0.18651188D-02 -0.46519025D-02  0.38507775D-02
 -0.27763280D-01  0.11056607D-02  0.29055124D-04  0.26047995D-01  0.34173488D-01
  0.37480920D-01  0.30838172D-01  0.16256131D-01  0.42295395D-02 -0.90939405D-09
 -0.11930733D-08 -0.13085432D-08 -0.10766299D-08 -0.56753807D-09 -0.14766273D-09
  0.56963096D+01  0.74732342D+01  0.81965206D+01  0.67438502D+01  0.35549744D+01
  0.92493747D+00  0.14014001D-06  0.50304140D-05  0.79808779D-05  0.94770477D-05
  0.14341271D-05 -0.10437308D-04 -0.89307635D-14 -0.32057539D-12 -0.50860089D-12
 -0.60394796D-12 -0.91393245D-13  0.66514291D-12  0.36612842D-04  0.13142411D-02
  0.20850764D-02  0.24759643D-02  0.37467866D-03 -0.27268411D-02  0.18848108D-03
 -0.62013817D-11  0.43854809D-01  0.47288003D-05  0.94762229D-13 -0.11626595D-03
 -0.98072194D-07  0.30901612D-14  0.49571729D-06 -0.15128460D-03 -0.13815931D-03
  0.28944391D-03  0.10624152D-14 -0.39462079D-05 -0.91811168D-13 -0.11411164D-03
  0.47191231D-03 -0.35780066D-03 -0.13730398D-14  0.10809606D-04  0.10791398D-12
  0.62359561D-05  0.20999424D-05 -0.83358985D-05 -0.12770655D-15 -0.97590604D-06
 -0.70341175D-14  0.43709300D-06 -0.47815940D-15 -0.43869523D-04  0.18366248D-06
 -0.13390014D-13  0.20880524D-03 -0.14949415D-05  0.14824492D-13 -0.77196669D-04
 -0.77051240D-15 -0.31628639D-06 -0.46473134D-14 -0.12972585D-04 -0.18164969D-06
 -0.41151766D-15  0.19695988D-04  0.11305089D-05  0.14353458D-13  0.19221766D-04
 -0.45796757D-16  0.39102484D-04  0.70522941D-04  0.10398603D-03 -0.35789396D-03
  0.68015435D-05  0.70193890D-05  0.52796686D-05  0.17313696D-03  0.20436638D-03
 -0.13542019D-04  0.12729775D-03  0.17090682D-03 -0.12228136D-05  0.74240393D-04
 -0.57294525D-04 -0.23411545D-03  0.11020175D-03  0.12391370D-03  0.75269610D-06
 -0.36354915D-05  0.44864949D-03 -0.63928687D-04  0.94353204D-05  0.54493366D-04
  0.13522602D-05 -0.35104992D-05 -0.58182466D-04  0.39102484D-04  0.70522941D-04
  0.10398603D-03 -0.35789396D-03  0.68015437D-05  0.70193890D-05  0.52796686D-05
 -0.17313696D-03  0.20436638D-03 -0.13542019D-04 -0.12729775D-03  0.17090682D-03
 -0.12228136D-05 -0.74240393D-04 -0.57294525D-04 -0.23411545D-03  0.11020175D-03
  0.12391370D-03 -0.75269609D-06 -0.36354915D-05 -0.44864949D-03 -0.63928687D-04
  0.94353204D-05  0.54493366D-04 -0.13522602D-05 -0.35104992D-05  0.58182466D-04
MO    4     MO 0.0        OCC NO =    2.0000048  ORB. ENERGY =    0.000000
  0.28498841D+00  0.53127581D+00  0.89792851D+00  0.13497540D+01  0.16579311D+01
  0.13992353D+01  0.52614902D+00  0.30230634D-04  0.22595526D-03  0.84444639D-03
  0.23558739D-02  0.31562216D-02 -0.37269092D-02  0.23552991D-01 -0.50683581D-03
 -0.42923492D-05 -0.19248474D-03 -0.18046668D-03 -0.12850302D-03 -0.30807133D-13
 -0.28883646D-13 -0.20566876D-13  0.42279548D-02  0.39639763D-02  0.28225873D-02
 -0.48712161D-04 -0.28794893D-13 -0.37293147D-03 -0.21391084D-05 -0.22563840D-13
 -0.30465717D-03  0.13670802D-07 -0.17951333D-15 -0.38707800D-05 -0.11833231D-02
  0.61170890D-03  0.57161419D-03 -0.44567735D-15 -0.38498507D-04 -0.30592139D-13
  0.18423602D-03  0.11303911D-03 -0.29727512D-03  0.10435277D-14  0.48641642D-04
  0.26231930D-13  0.87608711D-05  0.36962835D-04 -0.45723706D-04  0.24662184D-15
 -0.32041759D-05  0.47742406D-14  0.14149254D-04  0.50338766D-14  0.41245778D-03
 -0.14715524D-04  0.49351030D-14  0.19089878D-03 -0.27732237D-04 -0.20036733D-13
 -0.14282721D-02 -0.26075698D-14 -0.24007218D-05 -0.96737988D-15 -0.67130647D-04
 -0.78772862D-05  0.60067748D-15 -0.22671724D-04  0.15079452D-04  0.23014622D-14
  0.22406366D-03 -0.26451669D-15  0.36723470D-01  0.68658225D-01  0.11866182D+00
  0.19193060D+00  0.29009669D+00  0.39952320D+00  0.46699397D+00  0.40360776D+00
  0.18836585D+00  0.25519439D-01 -0.18665285D-03  0.46059318D-03  0.59208790D-02
  0.21598516D-01  0.72872856D-01  0.16006149D+00  0.20675579D+00 -0.33227414D-01
 -0.27873851D+00 -0.15296810D+00  0.18316783D-05  0.20863954D-04  0.43321090D-04
  0.11912199D-03 -0.15445535D-04 -0.53861541D-03 -0.13433924D-02  0.11120407D-02
 -0.94823553D-02  0.13041620D-02  0.10558924D-03  0.66246822D+00  0.86912063D+00
  0.95323723D+00  0.78429488D+00  0.41343567D+00  0.10756818D+00  0.17523790D-09
  0.22990216D-09  0.25215292D-09  0.20746382D-09  0.10936313D-09  0.28454230D-10
  0.42322284D+01  0.55524430D+01  0.60898282D+01  0.50105272D+01  0.26412651D+01
  0.68720749D+00  0.34607880D-05  0.12422717D-03  0.19708952D-03  0.23403775D-03
  0.35416081D-04 -0.25775160D-03  0.17380139D-14  0.62387105D-13  0.98978706D-13
  0.11753418D-12  0.17786019D-13 -0.12944331D-12  0.31355339D-04  0.11255197D-02
  0.17856652D-02  0.21204226D-02  0.32087583D-03 -0.23352742D-02  0.51096915D-02
  0.11769743D-11  0.33006001D-01  0.12354255D-04 -0.20225384D-13 -0.34614303D-03
 -0.11538402D-05 -0.92188818D-15 -0.46838443D-05 -0.13497505D-03 -0.23051423D-03
  0.36548928D-03 -0.16854017D-16  0.34236269D-04  0.10939102D-13  0.98481871D-04
  0.33778620D-03 -0.43626807D-03 -0.56962079D-15 -0.19546243D-04 -0.11628545D-13
 -0.10296790D-04 -0.12171720D-04  0.22468510D-04 -0.10705437D-15 -0.22310195D-05
  0.19607369D-14  0.84867589D-05  0.27289808D-15  0.53757478D-04 -0.46803881D-05
  0.19420988D-14 -0.27665918D-04 -0.20779889D-04 -0.27607930D-14 -0.13360652D-03
  0.97049179D-15  0.34572104D-06  0.92256784D-15 -0.36821162D-04  0.16314980D-05
 -0.13726467D-16  0.28856771D-04 -0.26686611D-05 -0.27539771D-14  0.81606715D-04
  0.21378962D-15 -0.30706370D-03 -0.55380203D-03 -0.81658077D-03 -0.53765647D-03
 -0.47317678D-03 -0.70818300D-05 -0.20311340D-04 -0.82426655D-03 -0.37049492D-03
  0.13415886D-04 -0.40829861D-03 -0.27021167D-03 -0.47116095D-05 -0.35080597D-04
 -0.10021594D-03  0.27107460D-03 -0.43402221D-03  0.16294761D-03 -0.34457954D-05
 -0.12084286D-04 -0.94746771D-03  0.49417801D-04 -0.24596341D-04 -0.24821460D-04
 -0.12713448D-05  0.52790442D-05 -0.78826018D-04 -0.30706370D-03 -0.55380203D-03
 -0.81658077D-03 -0.53765647D-03 -0.47317678D-03 -0.70818300D-05 -0.20311340D-04
  0.82426655D-03 -0.37049492D-03  0.13415886D-04  0.40829861D-03 -0.27021167D-03
 -0.47116095D-05  0.35080597D-04 -0.10021594D-03  0.27107460D-03 -0.43402221D-03
  0.16294761D-03  0.34457954D-05 -0.12084286D-04  0.94746771D-03  0.49417801D-04
 -0.24596341D-04 -0.24821460D-04  0.12713448D-05  0.52790442D-05  0.78826018D-04
MO    5     MO 0.0        OCC NO =    2.0000043  ORB. ENERGY =    0.000000
 -0.19170993D-01 -0.35738594D-01 -0.60403093D-01 -0.90797114D-01 -0.11152799D+00
 -0.94125691D-01 -0.35393718D-01 -0.20439935D-05 -0.15277585D-04 -0.57095824D-04
 -0.15928846D-03 -0.21340262D-03  0.25198870D-03 -0.15875213D-02  0.55785016D-04
 -0.30214673D-06 -0.29374395D-02 -0.27540362D-02 -0.19610379D-02  0.68830839D-13
  0.64533287D-13  0.45951545D-13 -0.31902360D-03 -0.29910491D-03 -0.21298051D-03
 -0.48990347D-03  0.42348272D-13  0.28627114D-04 -0.49129094D-04 -0.85229836D-13
  0.39603099D-04 -0.18480244D-06 -0.18945950D-14  0.82665061D-06  0.84620962D-04
 -0.44519580D-04 -0.40101382D-04  0.14056182D-14 -0.66320414D-03  0.34472099D-13
 -0.17325022D-04 -0.52866489D-05  0.22611671D-04 -0.29896097D-14  0.61301435D-03
 -0.68810366D-14 -0.11129218D-05 -0.22710886D-05  0.33840104D-05  0.20423731D-15
 -0.53729149D-04  0.14398443D-14  0.83018356D-04 -0.35065054D-14 -0.30675840D-04
  0.45341459D-04 -0.12742026D-13 -0.11557282D-04 -0.29439653D-03  0.23261542D-13
  0.10358480D-03 -0.42388001D-14 -0.33328014D-04  0.69837109D-14  0.62033245D-05
 -0.14119591D-03  0.71252705D-14 -0.14571157D-05  0.24117995D-03 -0.28076403D-13
 -0.17152858D-04  0.25584269D-14 -0.30376358D-02 -0.56791661D-02 -0.98152871D-02
 -0.15875822D-01 -0.23995774D-01 -0.33047149D-01 -0.38628093D-01 -0.33385010D-01
 -0.15580958D-01 -0.21108779D-02  0.15439265D-04 -0.38150298D-04 -0.49041823D-03
 -0.17889752D-02 -0.60359581D-02 -0.13257672D-01 -0.17125296D-01  0.27521809D-02
  0.23087526D-01  0.12670137D-01 -0.13540755D-06 -0.15423762D-05 -0.32025289D-05
 -0.88061411D-05  0.11418173D-05  0.39817360D-04  0.99310819D-04 -0.82208057D-04
  0.78785255D-03 -0.12407447D-03 -0.11598678D-04  0.96928958D+01  0.12716528D+02
  0.13947279D+02  0.11475401D+02  0.60491790D+01  0.15738826D+01 -0.34734455D-09
 -0.45569629D-09 -0.49980021D-09 -0.41122056D-09 -0.21677210D-09 -0.56400022D-10
 -0.29151018D+00 -0.38244477D+00 -0.41945915D+00 -0.34511835D+00 -0.18192677D+00
 -0.47333924D-01  0.51610702D-04  0.18525987D-02  0.29391943D-02  0.34902031D-02
  0.52815972D-03 -0.38438475D-02 -0.36788540D-14 -0.13205479D-12 -0.20950823D-12
 -0.24878459D-12 -0.37647667D-13  0.27399266D-12 -0.22842144D-05 -0.81993318D-04
 -0.13008445D-03 -0.15447130D-03 -0.23375579D-04  0.17012308D-03  0.75093851D-01
 -0.23691449D-11 -0.23023168D-02  0.17158664D-03  0.37754098D-13  0.34005969D-04
 -0.15163362D-04  0.12119007D-14  0.22343472D-06  0.74167479D-05  0.18669057D-04
 -0.26085805D-04 -0.39035323D-15  0.62436613D-03 -0.46327655D-13 -0.46398758D-05
 -0.29183449D-04  0.33823325D-04 -0.15038449D-15 -0.40061424D-03  0.42446189D-13
  0.13346600D-05  0.87415186D-06 -0.22088119D-05 -0.86968314D-16 -0.33930426D-04
 -0.29179416D-14  0.12971809D-03 -0.93863890D-15 -0.44537621D-05 -0.73552049D-04
 -0.67436522D-14  0.56092917D-05 -0.31560221D-03  0.95595689D-14  0.77519945D-05
 -0.40476051D-15  0.67166159D-05 -0.21605956D-14  0.22462960D-05  0.35113131D-04
 -0.38660680D-15 -0.13971091D-05 -0.55262978D-04  0.68683935D-14 -0.53417791D-05
  0.21318445D-15  0.22928338D-04  0.41352201D-04  0.60973797D-04  0.33461850D-04
  0.41412870D-04  0.86683774D-06 -0.12652882D-03  0.56530853D-04  0.32993872D-04
  0.16723797D-03  0.31230274D-04  0.84407508D-05 -0.56907434D-04  0.44307831D-05
  0.58382100D-05 -0.18447578D-04  0.30979510D-04 -0.12531932D-04  0.14090070D-03
 -0.56705498D-04  0.67794776D-04 -0.33684169D-05  0.21038625D-05  0.12645543D-05
 -0.38158309D-04  0.11089767D-03  0.35121937D-05  0.22928338D-04  0.41352201D-04
  0.60973797D-04  0.33461850D-04  0.41412870D-04  0.86683775D-06 -0.12652882D-03
 -0.56530853D-04  0.32993872D-04  0.16723797D-03 -0.31230274D-04  0.84407508D-05
 -0.56907434D-04 -0.44307831D-05  0.58382101D-05 -0.18447578D-04  0.30979510D-04
 -0.12531932D-04 -0.14090070D-03 -0.56705498D-04 -0.67794776D-04 -0.33684169D-05
  0.21038625D-05  0.12645543D-05  0.38158309D-04  0.11089767D-03 -0.35121936D-05
MO    6     MO 0.0        OCC NO =    2.0000000  ORB. ENERGY =    0.000000
 -0.81045747D-04 -0.15108560D-03 -0.25535525D-03 -0.38384656D-03 -0.47148675D-03
 -0.39791819D-03 -0.14962763D-03  0.49232516D-07  0.36798255D-06  0.13752348D-05
  0.38366910D-05  0.51401082D-05 -0.60695094D-05  0.16629437D-05 -0.30782302D-04
 -0.72419473D-05 -0.11917444D-06 -0.11173361D-06 -0.79560987D-07  0.11711416D-12
  0.10980197D-12  0.78185546D-13  0.14563252D-04  0.13653975D-04  0.97224433D-05
  0.23998238D-06 -0.95346463D-13 -0.38207407D-04  0.18487026D-06 -0.46913403D-13
  0.41054119D-05  0.47751389D-08 -0.32316483D-15 -0.39003394D-06  0.14522675D-05
  0.89108658D-05 -0.10363133D-04  0.21256402D-14  0.24139537D-06  0.97938130D-13
  0.63101812D-05  0.42977222D-05 -0.10607903D-04 -0.80874754D-15  0.19626428D-06
  0.44893981D-13  0.63682146D-06 -0.91672034D-06  0.27989887D-06 -0.20881520D-15
  0.55545694D-07  0.98649847D-15  0.53230992D-07 -0.13501856D-13  0.21205791D-05
 -0.63858951D-07  0.15816141D-13  0.39430043D-06 -0.95834025D-07  0.24689427D-13
 -0.67560377D-05  0.18042234D-14 -0.34947453D-07  0.34555069D-14 -0.38309079D-06
  0.68637603D-07  0.49593879D-14  0.61591861D-06  0.36204756D-07 -0.15325909D-13
  0.53335375D-06 -0.43298291D-15  0.58266938D+00  0.10893591D+01  0.18827363D+01
  0.30452484D+01  0.46027910D+01  0.63389962D+01  0.74095147D+01  0.64038036D+01
  0.29886885D+01  0.40490171D+00 -0.29615094D-02 -0.29343672D-04 -0.37720996D-03
 -0.13760077D-02 -0.46426159D-02 -0.10197268D-01 -0.13172088D-01  0.21168667D-02
  0.17757995D-01  0.97453588D-02  0.19754293D-06  0.22501368D-05  0.46720951D-05
  0.12847075D-04 -0.16657708D-05 -0.58088622D-04 -0.14488225D-03  0.11993143D-03
  0.13983237D-04 -0.17654616D-04  0.32744043D-05 -0.80268797D-04 -0.10530810D-03
 -0.11550019D-03 -0.95030078D-04 -0.50094454D-04 -0.13033635D-04 -0.34637741D-09
 -0.45442747D-09 -0.49840859D-09 -0.41007557D-09 -0.21616852D-09 -0.56242984D-10
  0.11193496D-01  0.14685230D-01  0.16106519D-01  0.13251959D-01  0.69856792D-02
  0.18175423D-02 -0.44567598D-08 -0.15997821D-06 -0.25380943D-06 -0.30139092D-06
 -0.45608390D-07  0.33192931D-06 -0.33545915D-14 -0.12041518D-12 -0.19104170D-12
 -0.22685616D-12 -0.34329316D-13  0.24984233D-12  0.70483250D-06  0.25300407D-04
  0.40139730D-04  0.47664698D-04  0.72129252D-05 -0.52494318D-04 -0.12043166D-05
 -0.23492302D-11  0.16287485D-03 -0.15045501D-06  0.26874234D-13  0.52693137D-05
 -0.29931628D-09  0.99157434D-15 -0.33822673D-07 -0.58148128D-05 -0.37575932D-05
  0.95724060D-05  0.45602989D-15 -0.11221812D-06 -0.24086650D-13  0.91746538D-05
 -0.15975081D-04  0.68004271D-05  0.89475503D-16 -0.24875368D-06  0.33642469D-13
  0.59357398D-06  0.49076223D-06 -0.10843362D-05  0.11118458D-15  0.45719054D-07
 -0.19691798D-15 -0.67271491D-07 -0.80881684D-15 -0.69841809D-05 -0.86072765D-07
 -0.54562243D-14  0.12187324D-04  0.28788724D-06  0.78826748D-14  0.87652189D-05
  0.16463384D-14  0.25729537D-08 -0.92243950D-15 -0.58942453D-07  0.46816590D-08
  0.27154315D-15 -0.79195206D-08 -0.12400520D-07  0.24957754D-14  0.18474688D-06
 -0.43838958D-15 -0.12357135D-05 -0.22286601D-05 -0.32861581D-05  0.30299864D-05
  0.17408634D-04  0.23758697D-06 -0.20742504D-07 -0.58334615D-05 -0.14823182D-05
 -0.10515052D-06  0.99937757D-06 -0.14053791D-05  0.57804332D-07  0.75705737D-06
  0.25210280D-05 -0.24397156D-05 -0.16123458D-05  0.40520615D-05 -0.98501911D-07
 -0.11252453D-06 -0.20702096D-05 -0.38508144D-07 -0.43485111D-06  0.47335926D-06
  0.29453707D-07 -0.59545645D-07 -0.18445423D-05 -0.12357135D-05 -0.22286601D-05
 -0.32861581D-05  0.30299866D-05  0.17408634D-04  0.23758697D-06 -0.20742503D-07
  0.58334615D-05 -0.14823181D-05 -0.10515052D-06 -0.99937769D-06 -0.14053790D-05
  0.57804333D-07 -0.75705739D-06  0.25210280D-05 -0.24397157D-05 -0.16123458D-05
  0.40520615D-05  0.98501907D-07 -0.11252453D-06  0.20702095D-05 -0.38508149D-07