 h2cs-wavefunction
GAUSSIAN            142 MOL ORBITALS    240 PRIMITIVES        4 NUCLEI
  C    1    (CENTRE  1)   0.00000000  0.00000000 -1.04934791  CHARGE =  6.0
  S    2    (CENTRE  2)   0.00000000  0.00000000  2.00381646  CHARGE = 16.0
  H    3    (CENTRE  3)   0.01889726 -1.74285662 -2.13348569  CHARGE =  1.0
  H    4    (CENTRE  4)   0.00000000  1.74285662 -2.13348569  CHARGE =  1.0
CENTRE ASSIGNMENTS    1  1  1  1  1  1  1  1  1  1  1  1  1  1  1  1  1  1  1  1
CENTRE ASSIGNMENTS    1  1  1  1  1  1  1  1  1  1  1  1  1  1  1  1  1  1  1  1
CENTRE ASSIGNMENTS    1  1  1  1  1  1  1  1  1  1  1  1  1  1  1  1  1  1  1  1
CENTRE ASSIGNMENTS    1  1  1  1  1  1  1  1  1  1  1  1  2  2  2  2  2  2  2  2
CENTRE ASSIGNMENTS    2  2  2  2  2  2  2  2  2  2  2  2  2  2  2  2  2  2  2  2
CENTRE ASSIGNMENTS    2  2  2  2  2  2  2  2  2  2  2  2  2  2  2  2  2  2  2  2
CENTRE ASSIGNMENTS    2  2  2  2  2  2  2  2  2  2  2  2  2  2  2  2  2  2  2  2
CENTRE ASSIGNMENTS    2  2  2  2  2  2  2  2  2  2  2  2  2  2  2  2  2  2  2  2
CENTRE ASSIGNMENTS    2  2  2  2  2  2  2  2  2  2  2  2  2  2  2  2  2  2  2  2
CENTRE ASSIGNMENTS    2  2  2  2  2  2  3  3  3  3  3  3  3  3  3  3  3  3  3  3
CENTRE ASSIGNMENTS    3  3  3  3  3  3  3  3  3  3  3  3  3  4  4  4  4  4  4  4
CENTRE ASSIGNMENTS    4  4  4  4  4  4  4  4  4  4  4  4  4  4  4  4  4  4  4  4
TYPE ASSIGNMENTS      1  1  1  1  1  1  1  1  1  1  1  1  1  1  1  1  2  2  2  3
TYPE ASSIGNMENTS      3  3  4  4  4  2  3  4  2  3  4  2  3  4  5  6  7  8  9 10
TYPE ASSIGNMENTS      5  6  7  8  9 10  5  6  7  8  9 10 11 12 13 17 14 15 18 19
TYPE ASSIGNMENTS     16 20 11 12 13 17 14 15 18 19 16 20  1  1  1  1  1  1  1  1
TYPE ASSIGNMENTS      1  1  1  1  1  1  1  1  1  1  1  1  1  1  1  1  1  1  1  1
TYPE ASSIGNMENTS      1  1  1  2  2  2  2  2  2  3  3  3  3  3  3  4  4  4  4  4
TYPE ASSIGNMENTS      4  2  2  2  2  2  2  3  3  3  3  3  3  4  4  4  4  4  4  2
TYPE ASSIGNMENTS      3  4  2  3  4  2  3  4  5  6  7  8  9 10  5  6  7  8  9 10
TYPE ASSIGNMENTS      5  6  7  8  9 10 11 12 13 17 14 15 18 19 16 20 11 12 13 17
TYPE ASSIGNMENTS     14 15 18 19 16 20  1  1  1  1  1  1  2  3  4  2  3  4  2  3
TYPE ASSIGNMENTS      4  5  6  7  8  9 10  5  6  7  8  9 10  1  1  1  1  1  1  2
TYPE ASSIGNMENTS      3  4  2  3  4  2  3  4  5  6  7  8  9 10  5  6  7  8  9 10
EXPONENTS  0.8236000D+04 0.1235000D+04 0.2808000D+03 0.7927000D+02 0.2559000D+02
EXPONENTS  0.8997000D+01 0.3319000D+01 0.2808000D+03 0.7927000D+02 0.2559000D+02
EXPONENTS  0.8997000D+01 0.3319000D+01 0.3643000D+00 0.9059000D+00 0.1285000D+00
EXPONENTS  0.4402000D-01 0.1871000D+02 0.4133000D+01 0.1200000D+01 0.1871000D+02
EXPONENTS  0.4133000D+01 0.1200000D+01 0.1871000D+02 0.4133000D+01 0.1200000D+01
EXPONENTS  0.3827000D+00 0.3827000D+00 0.3827000D+00 0.1209000D+00 0.1209000D+00
EXPONENTS  0.1209000D+00 0.3569000D-01 0.3569000D-01 0.3569000D-01 0.1097000D+01
EXPONENTS  0.1097000D+01 0.1097000D+01 0.1097000D+01 0.1097000D+01 0.1097000D+01
EXPONENTS  0.3180000D+00 0.3180000D+00 0.3180000D+00 0.3180000D+00 0.3180000D+00
EXPONENTS  0.3180000D+00 0.1000000D+00 0.1000000D+00 0.1000000D+00 0.1000000D+00
EXPONENTS  0.1000000D+00 0.1000000D+00 0.7610000D+00 0.7610000D+00 0.7610000D+00
EXPONENTS  0.7610000D+00 0.7610000D+00 0.7610000D+00 0.7610000D+00 0.7610000D+00
EXPONENTS  0.7610000D+00 0.7610000D+00 0.2680000D+00 0.2680000D+00 0.2680000D+00
EXPONENTS  0.2680000D+00 0.2680000D+00 0.2680000D+00 0.2680000D+00 0.2680000D+00
EXPONENTS  0.2680000D+00 0.2680000D+00 0.3741000D+06 0.5605000D+05 0.1276000D+05
EXPONENTS  0.3615000D+04 0.1183000D+04 0.4288000D+03 0.1678000D+03 0.6947000D+02
EXPONENTS  0.2984000D+02 0.1272000D+02 0.5244000D+01 0.3615000D+04 0.1183000D+04
EXPONENTS  0.4288000D+03 0.1678000D+03 0.6947000D+02 0.2984000D+02 0.1272000D+02
EXPONENTS  0.5244000D+01 0.2219000D+01 0.1183000D+04 0.1678000D+03 0.6947000D+02
EXPONENTS  0.2984000D+02 0.1272000D+02 0.5244000D+01 0.2219000D+01 0.3490000D+00
EXPONENTS  0.7767000D+00 0.1322000D+00 0.4970000D-01 0.5744000D+03 0.1358000D+03
EXPONENTS  0.4319000D+02 0.1587000D+02 0.6208000D+01 0.2483000D+01 0.5744000D+03
EXPONENTS  0.1358000D+03 0.4319000D+02 0.1587000D+02 0.6208000D+01 0.2483000D+01
EXPONENTS  0.5744000D+03 0.1358000D+03 0.4319000D+02 0.1587000D+02 0.6208000D+01
EXPONENTS  0.2483000D+01 0.1358000D+03 0.4319000D+02 0.1587000D+02 0.6208000D+01
EXPONENTS  0.2483000D+01 0.3229000D+00 0.1358000D+03 0.4319000D+02 0.1587000D+02
EXPONENTS  0.6208000D+01 0.2483000D+01 0.3229000D+00 0.1358000D+03 0.4319000D+02
EXPONENTS  0.1587000D+02 0.6208000D+01 0.2483000D+01 0.3229000D+00 0.8688000D+00
EXPONENTS  0.8688000D+00 0.8688000D+00 0.1098000D+00 0.1098000D+00 0.1098000D+00
EXPONENTS  0.3510000D-01 0.3510000D-01 0.3510000D-01 0.2690000D+00 0.2690000D+00
EXPONENTS  0.2690000D+00 0.2690000D+00 0.2690000D+00 0.2690000D+00 0.8190000D+00
EXPONENTS  0.8190000D+00 0.8190000D+00 0.8190000D+00 0.8190000D+00 0.8190000D+00
EXPONENTS  0.1010000D+00 0.1010000D+00 0.1010000D+00 0.1010000D+00 0.1010000D+00
EXPONENTS  0.1010000D+00 0.5570000D+00 0.5570000D+00 0.5570000D+00 0.5570000D+00
EXPONENTS  0.5570000D+00 0.5570000D+00 0.5570000D+00 0.5570000D+00 0.5570000D+00
EXPONENTS  0.5570000D+00 0.2180000D+00 0.2180000D+00 0.2180000D+00 0.2180000D+00
EXPONENTS  0.2180000D+00 0.2180000D+00 0.2180000D+00 0.2180000D+00 0.2180000D+00
EXPONENTS  0.2180000D+00 0.3387000D+02 0.5095000D+01 0.1159000D+01 0.3258000D+00
EXPONENTS  0.1027000D+00 0.2526000D-01 0.1407000D+01 0.1407000D+01 0.1407000D+01
EXPONENTS  0.3880000D+00 0.3880000D+00 0.3880000D+00 0.1020000D+00 0.1020000D+00
EXPONENTS  0.1020000D+00 0.1057000D+01 0.1057000D+01 0.1057000D+01 0.1057000D+01
EXPONENTS  0.1057000D+01 0.1057000D+01 0.2470000D+00 0.2470000D+00 0.2470000D+00
EXPONENTS  0.2470000D+00 0.2470000D+00 0.2470000D+00 0.3387000D+02 0.5095000D+01
EXPONENTS  0.1159000D+01 0.3258000D+00 0.1027000D+00 0.2526000D-01 0.1407000D+01
EXPONENTS  0.1407000D+01 0.1407000D+01 0.3880000D+00 0.3880000D+00 0.3880000D+00
EXPONENTS  0.1020000D+00 0.1020000D+00 0.1020000D+00 0.1057000D+01 0.1057000D+01
EXPONENTS  0.1057000D+01 0.1057000D+01 0.1057000D+01 0.1057000D+01 0.2470000D+00
EXPONENTS  0.2470000D+00 0.2470000D+00 0.2470000D+00 0.2470000D+00 0.2470000D+00
MO    1     MO 0.0        OCC NO =    2.0000337  ORB. ENERGY =    0.000000
 -0.69044761D-07 -0.12871334D-06 -0.21754309D-06 -0.32700783D-06 -0.40167055D-06
 -0.33899578D-06 -0.12747126D-06  0.54225216D-10  0.40529990D-09  0.15146983D-08
  0.42257723D-08  0.56613698D-08 -0.66850221D-08 -0.24392350D-07  0.22825773D-06
  0.10494150D-07  0.78010276D-05  0.73139592D-05  0.52079747D-05 -0.14389654D-02
 -0.13491216D-02 -0.96065492D-03 -0.25011130D-07 -0.23449524D-07 -0.16697458D-07
  0.32433398D-05 -0.59821250D-03  0.13838874D-08 -0.87327939D-05  0.16108891D-02
 -0.37435392D-07 -0.16074814D-06  0.29652595D-04 -0.34962386D-09  0.16834679D-07
 -0.55152938D-08 -0.11319385D-07 -0.24939034D-05  0.57628079D-05 -0.10629810D-02
 -0.27125438D-07  0.15153134D-07  0.11972304D-07  0.28645224D-05 -0.28427076D-06
  0.52396984D-04 -0.84135332D-08  0.35438905D-08  0.48696427D-08  0.17754746D-05
  0.11654668D-05 -0.21499557D-03 -0.10547257D-05  0.16675709D-03  0.70174492D-08
 -0.60250505D-06  0.19453020D-03 -0.17452078D-07  0.37666821D-05 -0.69480147D-03
 -0.36002696D-08  0.23033072D-05  0.66629306D-06 -0.81254778D-04  0.77773858D-09
 -0.11071556D-07 -0.12289793D-03  0.13547396D-07 -0.19878076D-05  0.36666226D-03
 -0.15880611D-07 -0.20995388D-05  0.52505329D-06  0.98164001D-06  0.16965657D-05
  0.27441251D-05  0.41476533D-05  0.57121773D-05  0.66768397D-05  0.57705763D-05
  0.26931580D-05  0.36486382D-06 -0.26686665D-08  0.65918223D-08  0.84737213D-07
  0.30910917D-06  0.10429267D-05  0.22907350D-05  0.29590048D-05 -0.47553724D-06
 -0.39891922D-05 -0.21892172D-05  0.32629799D-10  0.37167369D-09  0.77172856D-09
  0.21220575D-08 -0.27514913D-09 -0.95949779D-08 -0.23931399D-07  0.19810065D-07
 -0.11130465D-06 -0.16084248D-07 -0.14861080D-08 -0.52978130D-01 -0.69504293D-01
 -0.76231167D-01 -0.62720708D-01 -0.33062791D-01 -0.86023163D-02  0.97722834D+01
  0.12820680D+02  0.14061511D+02  0.11569388D+02  0.60987235D+01  0.15867731D+01
 -0.87372050D-05 -0.11462716D-04 -0.12572119D-04 -0.10343961D-04 -0.54527479D-05
 -0.14187024D-05 -0.52256321D-06 -0.18757736D-04 -0.29759619D-04 -0.35338634D-04
 -0.53476668D-05  0.38919317D-04  0.96391266D-04  0.34600253D-02  0.54894169D-02
  0.65185142D-02  0.98642301D-03 -0.71790018D-02 -0.40539057D-09 -0.14551750D-07
 -0.23086717D-07 -0.27414768D-07 -0.41485770D-08  0.30192566D-07 -0.36060974D-03
  0.66517643D-01 -0.71199526D-07  0.31195189D-05 -0.57540447D-03  0.34773279D-08
  0.14894477D-06 -0.27474543D-04  0.12081248D-09 -0.15913294D-08  0.78306151D-08
 -0.62392857D-08  0.68241589D-06 -0.41760861D-05  0.77029719D-03  0.87399567D-08
 -0.31980945D-08 -0.55418622D-08 -0.99652141D-06  0.58613124D-05 -0.10811636D-02
  0.99462878D-09 -0.57052881D-09 -0.42409997D-09 -0.24554377D-06  0.16246387D-06
 -0.29970945D-04 -0.70931656D-06  0.14840902D-05  0.12635885D-08  0.13945135D-05
  0.13082810D-03  0.33302061D-09  0.73343619D-06 -0.13528037D-03 -0.41237862D-08
 -0.55914684D-06  0.12014790D-07  0.33704328D-04  0.72335652D-09 -0.57221540D-06
 -0.22144820D-05  0.10878391D-08  0.53617103D-06 -0.98898503D-04 -0.32579087D-08
 -0.19623092D-06 -0.10704772D-03 -0.19306497D-03 -0.28467418D-03  0.13737010D-03
  0.23680938D-02  0.25548220D-04  0.12940781D-05 -0.18501683D-04  0.26623500D-03
  0.26068966D-06 -0.14225872D-04 -0.32497385D-03 -0.28393763D-05  0.31405837D-03
  0.13271734D-03 -0.49136951D-04 -0.14473000D-03  0.19386695D-03  0.32798635D-05
 -0.43724480D-06 -0.85397490D-05  0.25280679D-04 -0.22493675D-04 -0.27870048D-05
  0.80893125D-06  0.20725187D-05 -0.11635415D-03  0.10704264D-03  0.19305581D-03
  0.28466067D-03 -0.13746043D-03 -0.23682571D-02 -0.25550899D-04 -0.10935022D-05
 -0.18510957D-04 -0.26626369D-03 -0.10638796D-06 -0.14236947D-04  0.32499885D-03
 -0.56607060D-06  0.31407952D-03 -0.13272022D-03  0.49111236D-04  0.14476642D-03
 -0.19387765D-03  0.12062836D-05  0.52977251D-06 -0.85357424D-05 -0.25286540D-04
  0.22498026D-04  0.27885136D-05 -0.22712002D-06 -0.81103375D-06 -0.11635983D-03
MO    2     MO 0.0        OCC NO =    2.0000243  ORB. ENERGY =    0.000000
 -0.53358630D-01 -0.99471236D-01 -0.16811994D+00 -0.25271563D+00 -0.31041588D+00
 -0.26198005D+00 -0.98511342D-01 -0.88995781D-05 -0.66518832D-04 -0.24859606D-03
 -0.69354431D-03 -0.92915817D-03  0.10971625D-02 -0.42236570D-02 -0.55006841D-03
 -0.39513855D-04  0.32369005D-05  0.30347999D-05  0.21609583D-05  0.35572733D-07
  0.33351698D-07  0.23748396D-07  0.24031519D-02  0.22531077D-02  0.16043469D-02
 -0.13544737D-05 -0.33389215D-07  0.49307377D-04  0.14370181D-05  0.45146929D-08
 -0.60511529D-03  0.55555912D-09  0.55324223D-09 -0.47299619D-06  0.19000489D-03
 -0.14573608D-03 -0.44268814D-04  0.36400734D-05  0.34754819D-05  0.47637961D-07
  0.37919291D-04  0.14672506D-03 -0.18464435D-03 -0.11799820D-05  0.27929986D-06
  0.24288515D-07  0.11038085D-04  0.85501958D-04 -0.96540043D-04 -0.80740640D-06
  0.76260366D-06  0.67130166D-08  0.50148703D-06 -0.40929636D-08  0.98941666D-05
 -0.13139897D-05  0.30493408D-07 -0.17119580D-03 -0.19047139D-06 -0.18214517D-07
  0.14151330D-03 -0.33903165D-05  0.15590573D-06 -0.22145382D-08  0.58665639D-04
 -0.51429239D-06  0.10222688D-07  0.10696882D-04  0.46575208D-07 -0.35790738D-08
 -0.18669380D-03  0.21403713D-05 -0.12113978D+00 -0.22648302D+00 -0.39142997D+00
 -0.63312185D+00 -0.95694248D+00 -0.13179079D+01 -0.15404739D+01 -0.13313817D+01
 -0.62136277D+00 -0.84181021D-01  0.61571211D-03 -0.15085900D-02 -0.19392773D-01
 -0.70742048D-01 -0.23868192D+00 -0.52425259D+00 -0.67719135D+00  0.10883041D+00
  0.91295779D+00  0.50101946D+00 -0.12531203D-04 -0.14273820D-03 -0.29637595D-03
 -0.81495860D-03  0.10566874D-03  0.36848716D-02  0.91906551D-02 -0.76078912D-02
  0.27972331D-01  0.11460764D-02  0.42672787D-05 -0.82577658D-02 -0.10833719D-01
 -0.11882245D-01 -0.97763534D-02 -0.51535377D-02 -0.13408536D-02 -0.17604709D-04
 -0.23096377D-04 -0.25331727D-04 -0.20842182D-04 -0.10986813D-04 -0.28585621D-05
  0.66582272D+01  0.87352154D+01  0.95806408D+01  0.78826626D+01  0.41552915D+01
  0.10811287D+01 -0.66466959D-07 -0.23858734D-05 -0.37852480D-05 -0.44948659D-05
 -0.68019168D-06  0.49503076D-05 -0.17217273D-09 -0.61802489D-08 -0.98051198D-08
 -0.11643279D-07 -0.17619350D-08  0.12823033D-07  0.55924352D-04  0.20074399D-02
  0.31848537D-02  0.37819161D-02  0.57230359D-03 -0.41651183D-02 -0.57153527D-04
 -0.12342283D-06  0.48629296D-01 -0.10916045D-05 -0.96679392D-08 -0.64497327D-03
  0.21954204D-07 -0.19498112D-09 -0.13878466D-05 -0.25513292D-03 -0.10219898D-03
  0.35733189D-03 -0.16582643D-05  0.55655658D-07  0.66749367D-09  0.35812661D-03
 -0.38146098D-03  0.23334374D-04  0.80192681D-05  0.73740867D-06 -0.20487373D-08
 -0.53389454D-05 -0.23226465D-04  0.28565410D-04  0.19395508D-06  0.35527749D-06
  0.22812070D-08 -0.23740984D-06 -0.14214950D-08 -0.69448865D-04 -0.16505283D-06
 -0.20655567D-08  0.20749586D-03  0.87728235D-06  0.63300419D-08  0.85073071D-06
  0.22406629D-05  0.50524347D-07  0.71487125D-09 -0.19640868D-04  0.96997540D-07
 -0.32653255D-09  0.25723882D-04 -0.24857058D-06 -0.18180812D-08  0.33198722D-04
 -0.81044198D-07 -0.22716117D-04 -0.40969452D-04 -0.60409434D-04 -0.39456413D-03
 -0.44562289D-03  0.30151686D-05 -0.12551184D-05  0.20839882D-04  0.90671867D-04
  0.28017093D-05  0.33980344D-04  0.24989919D-04  0.79706353D-06  0.35891978D-04
 -0.12460249D-03 -0.10029016D-03  0.20166895D-04  0.80123262D-04 -0.12131203D-05
 -0.66314441D-06  0.13061910D-03 -0.31329837D-04  0.21810991D-04  0.95188465D-05
 -0.88007901D-06  0.10384136D-05 -0.64585570D-04 -0.22712467D-04 -0.40962869D-04
 -0.60399726D-04 -0.39449467D-03 -0.44558086D-03  0.30142616D-05 -0.10290820D-05
 -0.20856162D-04  0.90701212D-04  0.31702785D-05 -0.34027329D-04  0.24977941D-04
  0.11862697D-05 -0.35902359D-04 -0.12461374D-03 -0.10029285D-03  0.20171466D-04
  0.80121383D-04 -0.13990003D-05  0.75326690D-06 -0.13060828D-03 -0.31335494D-04
  0.21821024D-04  0.95144707D-05 -0.27230330D-06  0.33814513D-06  0.64598199D-04
MO    3     MO 0.0        OCC NO =    2.0000101  ORB. ENERGY =    0.000000
 -0.15141806D+00 -0.28227378D+00 -0.47708114D+00 -0.71714193D+00 -0.88088042D+00
 -0.74343200D+00 -0.27954985D+00 -0.23221688D-04 -0.17356773D-03 -0.64866223D-03
 -0.18096666D-02 -0.24244543D-02  0.28628285D-02 -0.12247765D-01 -0.11541124D-03
 -0.10723618D-03  0.12633575D-04  0.11844779D-04  0.84341886D-05  0.19181095D-06
  0.17983495D-06  0.12805320D-06  0.37168285D-02  0.34847630D-02  0.24813588D-02
 -0.27083897D-05 -0.10450398D-06  0.55396871D-03  0.67268342D-06 -0.32170471D-07
 -0.15667267D-03 -0.12343073D-07 -0.33085329D-10 -0.38060768D-05  0.45311927D-03
 -0.44591866D-03 -0.72006117D-05  0.97472053D-05  0.81304393D-05  0.14792828D-06
 -0.11583148D-03 -0.32372032D-05  0.11906868D-03 -0.12214296D-05 -0.67638995D-06
  0.43454125D-07  0.12953711D-04  0.59390724D-04 -0.72344434D-04 -0.50352472D-06
  0.70693515D-06  0.55786173D-08  0.14026919D-05 -0.18711729D-07  0.71472377D-04
 -0.40921091D-05  0.87211996D-07 -0.44938506D-03 -0.11596672D-06 -0.31076810D-07
  0.23496793D-03 -0.74194841D-05  0.37764681D-06 -0.33285974D-08  0.11878161D-03
 -0.89850538D-06  0.21888696D-07 -0.22303526D-04 -0.23443507D-06 -0.11902904D-07
 -0.33404131D-03  0.33803422D-05  0.11207546D+00  0.20953636D+00  0.36214111D+00
  0.58574833D+00  0.88533899D+00  0.12192951D+01  0.14252075D+01  0.12317607D+01
  0.57486913D+00  0.77882153D-01 -0.56964128D-03  0.14084059D-02  0.18104916D-01
  0.66044132D-01  0.22283126D+00  0.48943744D+00  0.63221967D+00 -0.10160308D+00
 -0.85232908D+00 -0.46774720D+00  0.63423658D-05  0.72243489D-04  0.15000353D-03
  0.41247160D-03 -0.53481680D-04 -0.18650087D-02 -0.46516280D-02  0.38505503D-02
 -0.27764168D-01  0.11069714D-02  0.29061774D-04 -0.22626335D-01 -0.29684464D-01
 -0.32557433D-01 -0.26787275D-01 -0.14120728D-01 -0.36739479D-02 -0.13849635D-03
 -0.18169934D-03 -0.19928485D-03 -0.16396557D-03 -0.86433328D-04 -0.22488326D-04
  0.56958111D+01  0.74725803D+01  0.81958034D+01  0.67432601D+01  0.35546633D+01
  0.92485653D+00 -0.13538359D-06 -0.48596795D-05 -0.77100034D-05 -0.91553925D-05
 -0.13854522D-05  0.10083062D-04 -0.95949089D-09 -0.34441531D-07 -0.54642352D-07
 -0.64886117D-07 -0.98189797D-08  0.71460695D-07  0.36611060D-04  0.13141771D-02
  0.20849749D-02  0.24758438D-02  0.37466042D-03 -0.27267083D-02 -0.16974711D-03
 -0.10430500D-05  0.43851472D-01 -0.14843872D-05 -0.52569231D-08 -0.11641345D-03
  0.35077853D-07 -0.57170315D-11  0.49724913D-06 -0.15129169D-03 -0.13811861D-03
  0.28941030D-03 -0.14288246D-06 -0.55554328D-06 -0.12431148D-07 -0.11408566D-03
  0.47185736D-03 -0.35777170D-03 -0.63532554D-05 -0.28796613D-05 -0.22230509D-07
  0.62418207D-05  0.20936457D-05 -0.83354665D-05  0.44978269D-07  0.42781976D-06
  0.16583633D-08 -0.63830124D-06 -0.13328742D-08 -0.43863890D-04  0.10754700D-06
 -0.13087670D-07  0.20879120D-03  0.18073567D-05  0.17086292D-07 -0.77199527D-04
  0.31010136D-05  0.71832480D-07  0.12158654D-09 -0.12966792D-04  0.23424836D-07
  0.37083585D-09  0.19695737D-04 -0.23892227D-06 -0.73559546D-09  0.19204640D-04
  0.53452398D-08  0.39062058D-04  0.70450030D-04  0.10387853D-03 -0.35972676D-03
  0.52777258D-05  0.70016808D-05 -0.33540782D-05  0.17296465D-03  0.20431577D-03
  0.39256886D-05  0.12720293D-03  0.17034131D-03  0.18285861D-06  0.74290929D-04
 -0.57669194D-04 -0.23413368D-03  0.11041295D-03  0.12372073D-03 -0.50361108D-05
 -0.27218091D-05  0.44849599D-03 -0.63972062D-04  0.95001512D-05  0.54471911D-04
 -0.11623569D-05  0.10713069D-05 -0.58259649D-04  0.39080773D-04  0.70483784D-04
  0.10392830D-03 -0.35951614D-03  0.54296452D-05  0.70032201D-05 -0.14785882D-05
 -0.17303235D-03  0.20438246D-03  0.53052139D-05 -0.12732279D-03  0.17036575D-03
  0.98841670D-06 -0.74318669D-04 -0.57665600D-04 -0.23416197D-03  0.11044041D-03
  0.12372156D-03 -0.24357179D-05  0.21414097D-05 -0.44850297D-03 -0.63984012D-04
  0.95144982D-05  0.54469514D-04 -0.43094673D-06  0.43962076D-06  0.58270927D-04
MO    4     MO 0.0        OCC NO =    2.0000048  ORB. ENERGY =    0.000000
  0.28553559D+00  0.53229587D+00  0.89965254D+00  0.13523456D+01  0.16611143D+01
  0.14019219D+01  0.52715924D+00  0.30289138D-04  0.22639254D-03  0.84608062D-03
  0.23604332D-02  0.31623297D-02 -0.37341217D-02  0.23598545D-01 -0.50926205D-03
 -0.42865866D-05  0.62086942D-04  0.58210455D-04  0.41449312D-04  0.34275846D-07
  0.32135784D-07  0.22882593D-07  0.42387474D-02  0.39740951D-02  0.28297925D-02
  0.18963948D-04  0.34279201D-06 -0.37381286D-03  0.15029206D-05  0.11560895D-07
 -0.30649535D-03  0.41172342D-08 -0.10494892D-08 -0.39104321D-05 -0.11862118D-02
  0.61313763D-03  0.57307413D-03 -0.19508195D-04  0.63336561D-05 -0.19074461D-06
  0.18491450D-03  0.11327489D-03 -0.29818939D-03  0.77847428D-06 -0.15903445D-04
 -0.18005442D-06  0.88139626D-05  0.37091104D-04 -0.45905066D-04 -0.30673276D-06
  0.14457551D-05  0.10916149D-08 -0.56863777D-05  0.45548011D-07  0.41351588D-03
  0.87015139D-05 -0.23801621D-06  0.19113510D-03  0.83576192D-05  0.10137218D-06
 -0.14316827D-02  0.17593598D-04  0.94559780D-06  0.22578028D-07 -0.67374345D-04
  0.24289896D-05 -0.13062593D-07 -0.22486602D-04 -0.52657830D-05 -0.54671491D-07
  0.22460964D-03 -0.26795388D-05  0.36834058D-01  0.68864981D-01  0.11901916D+00
  0.19250858D+00  0.29097028D+00  0.40072631D+00  0.46840026D+00  0.40482318D+00
  0.18893309D+00  0.25596287D-01 -0.18721493D-03  0.46198475D-03  0.59387674D-02
  0.21663770D-01  0.73093023D-01  0.16054508D+00  0.20738045D+00 -0.33327802D-01
 -0.27958065D+00 -0.15343025D+00  0.18363127D-05  0.20916744D-04  0.43430700D-04
  0.11942339D-03 -0.15484615D-04 -0.53997820D-03 -0.13467914D-02  0.11148544D-02
 -0.95111112D-02  0.13095247D-02  0.10612679D-03 -0.25654369D+00 -0.33657074D+00
 -0.36914526D+00 -0.30372160D+00 -0.16010476D+00 -0.41656246D-01 -0.13918664D-02
 -0.18260495D-02 -0.20027811D-02 -0.16478280D-02 -0.86864121D-03 -0.22600410D-03
  0.42405543D+01  0.55633660D+01  0.61018085D+01  0.50203842D+01  0.26464611D+01
  0.68855940D+00 -0.13616454D-05 -0.48877120D-04 -0.77544776D-04 -0.92082043D-04
 -0.13934440D-04  0.10141224D-03 -0.78665919D-08 -0.28237628D-06 -0.44799705D-06
 -0.53198275D-06 -0.80503012D-07  0.58588584D-06  0.31428272D-04  0.11281377D-02
  0.17898187D-02  0.21253548D-02  0.32162220D-03 -0.23407061D-02 -0.19796338D-02
 -0.10757508D-04  0.33072917D-01 -0.38115823D-05 -0.10026914D-08 -0.34758391D-03
  0.44022374D-06  0.30050964D-08 -0.46898535D-05 -0.13515506D-03 -0.23117789D-03
  0.36633294D-03  0.10411887D-05 -0.15071753D-04 -0.11007339D-06  0.98549924D-04
  0.33884689D-03 -0.43739681D-03 -0.26055847D-05  0.97465200D-05  0.67073462D-07
 -0.10357163D-04 -0.12203722D-04  0.22560885D-04  0.20058342D-07  0.68226151D-06
 -0.64544666D-09 -0.30996454D-05  0.11610565D-07  0.53932469D-04  0.20492900D-05
 -0.73651678D-07 -0.27970352D-04  0.72496461D-05  0.38819982D-07 -0.13382706D-03
  0.11479253D-05 -0.19509148D-06 -0.59215845D-08 -0.36884609D-04 -0.79677547D-06
  0.54267021D-08  0.28885734D-04  0.13820499D-05  0.12338051D-07  0.81768094D-04
 -0.57345631D-06 -0.30780349D-03 -0.55513626D-03 -0.81854810D-03 -0.53846629D-03
 -0.47481896D-03 -0.71187535D-05  0.12863922D-04 -0.82602490D-03 -0.37166638D-03
 -0.21629635D-05 -0.40909413D-03 -0.27022187D-03  0.21736688D-05 -0.35179676D-04
 -0.10047615D-03  0.27157103D-03 -0.43492666D-03  0.16335563D-03  0.11073198D-04
  0.10120620D-04 -0.94962460D-03  0.49488751D-04 -0.24625412D-04 -0.24863338D-04
  0.14616160D-05 -0.12089779D-05 -0.78895758D-04 -0.30786456D-03 -0.55524641D-03
 -0.81871051D-03 -0.53888896D-03 -0.47494621D-03 -0.71187574D-05  0.39079983D-05
  0.82622555D-03 -0.37175234D-03 -0.65999006D-05  0.40929590D-03 -0.27046256D-03
  0.17924872D-05  0.35223449D-04 -0.10049442D-03  0.27160498D-03 -0.43493073D-03
  0.16332575D-03  0.42488541D-05 -0.17615163D-06  0.94977584D-03  0.49511886D-04
 -0.24645021D-04 -0.24866865D-04  0.14596838D-06 -0.20644500D-05  0.78921196D-04
MO    5     MO 0.0        OCC NO =    2.0000043  ORB. ENERGY =    0.000000
  0.71444205D-02  0.13318639D-01  0.22510315D-01  0.33837201D-01  0.41562941D-01
  0.35077656D-01  0.13190115D-01  0.76169571D-06  0.56932036D-05  0.21276802D-04
  0.59358963D-04  0.79524646D-04 -0.93903779D-04  0.59161347D-03 -0.20731027D-04
  0.11030777D-06 -0.29436566D-02 -0.27598652D-02 -0.19651884D-02 -0.15966071D-04
 -0.14969206D-04 -0.10658967D-04  0.11208291D-03  0.10508485D-03  0.74826675D-04
 -0.49187407D-03 -0.26605322D-05 -0.11780935D-04 -0.49186364D-04 -0.26652141D-06
 -0.14819964D-04 -0.19074936D-06 -0.10490299D-08 -0.30687195D-06 -0.30011690D-04
  0.16583270D-04  0.13428420D-04 -0.50579996D-06 -0.66443625D-03 -0.36080645D-05
  0.50376902D-05  0.19797750D-05 -0.70174653D-05  0.10384572D-07  0.61489713D-03
  0.33314393D-05  0.53628548D-06  0.84868213D-06 -0.13849676D-05 -0.10689213D-08
 -0.53793966D-04 -0.29150695D-06  0.83738735D-04  0.24118358D-06  0.10749845D-04
  0.44490917D-04  0.87820342D-06  0.62365147D-05 -0.29570712D-03 -0.16017542D-05
 -0.38486051D-04  0.51148720D-06 -0.33402653D-04 -0.76665499D-06 -0.17548629D-05
 -0.14146042D-03  0.99048748D-06 -0.79793646D-06  0.24166837D-03  0.13094775D-05
  0.60625251D-05 -0.71185905D-07  0.11306307D-02  0.21138281D-02  0.36533232D-02
  0.59090997D-02  0.89314064D-02  0.12300396D-01  0.14377665D-01  0.12426150D-01
  0.57993490D-02  0.78568453D-03 -0.57466098D-05  0.14199752D-04  0.18253638D-03
  0.66586647D-03  0.22466170D-02  0.49345790D-02  0.63741300D-02 -0.10243769D-02
 -0.85933049D-02 -0.47158949D-02  0.50438146D-07  0.57452184D-06  0.11929144D-05
  0.32802117D-05 -0.42531712D-06 -0.14831624D-04 -0.36992425D-04  0.30621794D-04
 -0.29323585D-03  0.46152770D-04  0.43112055D-05  0.97120041D+01  0.12741597D+02
  0.13974774D+02  0.11498023D+02  0.60611042D+01  0.15769853D+01  0.52651297D-01
  0.69075508D-01  0.75760883D-01  0.62333772D-01  0.32858820D-01  0.85492470D-02
  0.13081302D+00  0.17161925D+00  0.18822917D+00  0.15486929D+00  0.81638286D-01
  0.21240746D-01  0.51711119D-04  0.18562032D-02  0.29449130D-02  0.34969938D-02
  0.52918734D-03 -0.38513263D-02  0.28032655D-06  0.10062499D-04  0.15964406D-04
  0.18957243D-04  0.28687305D-05 -0.20878083D-04  0.96900764D-06  0.34783141D-04
  0.55184325D-04  0.65529693D-04  0.99163697D-05 -0.72169481D-04  0.75239986D-01
  0.40789505D-03  0.10297274D-02  0.17205776D-03  0.93281657D-06 -0.12252615D-04
 -0.15196141D-04 -0.82373573D-07 -0.11830121D-06 -0.41978191D-05 -0.69491159D-05
  0.11146935D-04  0.29589759D-07  0.62509200D-03  0.33882247D-05  0.26511393D-05
  0.10858362D-04 -0.13509501D-04 -0.86787393D-07 -0.40062724D-03 -0.21717073D-05
 -0.41788013D-06 -0.32572931D-06  0.74360943D-06 -0.17222931D-08 -0.34023662D-04
 -0.18446515D-06  0.12996196D-03 -0.39918717D-06  0.93532137D-06 -0.73623964D-04
  0.29121419D-05  0.25615951D-06 -0.31626192D-03 -0.17145804D-05 -0.30621236D-05
  0.31885452D-07  0.67222774D-05  0.19044959D-06 -0.96430808D-06  0.35134480D-04
 -0.27163664D-06  0.82119357D-06 -0.55301312D-04 -0.29971213D-06  0.20717307D-05
 -0.12129342D-07 -0.85385943D-05 -0.15399706D-04 -0.22706858D-04 -0.12475911D-04
 -0.15410654D-04 -0.32190886D-06 -0.12741927D-03 -0.21759315D-04 -0.12564582D-04
  0.16794830D-03 -0.10712001D-04 -0.27896246D-05 -0.57044866D-04 -0.19528577D-05
 -0.23114408D-05  0.62423250D-05 -0.10777884D-04  0.45355587D-05  0.14075755D-03
 -0.57116305D-04 -0.25245506D-04  0.12074172D-05 -0.98879916D-06 -0.21861807D-06
 -0.38157097D-04  0.11111437D-03 -0.79919677D-06 -0.85401691D-05 -0.15402547D-04
 -0.22711046D-04 -0.12486276D-04 -0.15412418D-04 -0.32195229D-06 -0.12765673D-03
  0.20379390D-04 -0.12566789D-04  0.16785363D-03  0.12538593D-04 -0.27958234D-05
 -0.57071171D-04  0.13345330D-05 -0.23121463D-05  0.77662947D-05 -0.12300994D-04
  0.45346994D-05 -0.14037961D-03 -0.57379619D-04  0.24627614D-04  0.79391042D-06
 -0.57511421D-06 -0.21879621D-06  0.38197993D-04  0.11111007D-03  0.20049892D-05
MO    6     MO 0.0        OCC NO =    2.0000000  ORB. ENERGY =    0.000000
 -0.81022659D-04 -0.15104256D-03 -0.25528250D-03 -0.38373721D-03 -0.47135243D-03
 -0.39780483D-03 -0.14958500D-03  0.49261597D-07  0.36819992D-06  0.13760472D-05
  0.38389573D-05  0.51431444D-05 -0.60730946D-05  0.16607883D-05 -0.30761443D-04
 -0.72430414D-05  0.10703397D-07  0.10035115D-07  0.71455998D-08  0.20299934D-09
  0.19032479D-09  0.13552259D-09  0.14564132D-04  0.13654799D-04  0.97230305D-05
 -0.12963294D-08  0.10274350D-08 -0.38213978D-04 -0.77569041D-07 -0.19166643D-08
  0.41046348D-05 -0.87262780D-09 -0.35856206D-10 -0.38995850D-06  0.14548270D-05
  0.89094351D-05 -0.10364262D-04 -0.80821340D-07 -0.35071716D-07 -0.11887608D-08
  0.63082202D-05  0.43045315D-05 -0.10612752D-04  0.21726370D-07  0.48842986D-08
  0.98514540D-10  0.63676175D-06 -0.91538715D-06  0.27862540D-06  0.16828802D-07
 -0.18853270D-07 -0.24205618D-09 -0.20533247D-07  0.32085169D-09  0.21236324D-05
  0.39029364D-07 -0.10368639D-08  0.38974682D-06  0.22570378D-07  0.74308801D-10
 -0.67606440D-05  0.77526934D-07  0.11486967D-07  0.99367952D-10 -0.38227055D-06
 -0.26544682D-07  0.58347960D-09  0.61674836D-06 -0.79162191D-08 -0.88158345D-09
  0.53006329D-06  0.94437340D-09  0.58266944D+00  0.10893592D+01  0.18827365D+01
  0.30452487D+01  0.46027915D+01  0.63389968D+01  0.74095154D+01  0.64038042D+01
  0.29886888D+01  0.40490175D+00 -0.29615097D-02 -0.29342983D-04 -0.37720109D-03
 -0.13759754D-02 -0.46425068D-02 -0.10197028D-01 -0.13171779D-01  0.21168169D-02
  0.17757578D-01  0.97451297D-02  0.19754241D-06  0.22501309D-05  0.46720828D-05
  0.12847041D-04 -0.16657664D-05 -0.58088470D-04 -0.14488187D-03  0.11993111D-03
  0.13966870D-04 -0.17650522D-04  0.32764135D-05  0.40594669D-05  0.53257897D-05
  0.58412386D-05  0.48059952D-05  0.25334474D-05  0.65915536D-06  0.11589471D-07
  0.15204727D-07  0.16676295D-07  0.13720753D-07  0.72328008D-08  0.18818387D-08
  0.11195318D-01  0.14687621D-01  0.16109141D-01  0.13254116D-01  0.69868164D-02
  0.18178382D-02  0.34925557D-10  0.12536749D-08  0.19889867D-08  0.23618607D-08
  0.35741177D-09 -0.26011759D-08 -0.12790543D-10 -0.45912463D-09 -0.72841273D-09
 -0.86496778D-09 -0.13089242D-09  0.95261053D-09  0.70486856D-06  0.25301702D-04
  0.40141784D-04  0.47667137D-04  0.72132943D-05 -0.52497004D-04  0.72455111D-07
 -0.44604090D-09  0.16289349D-03  0.43467550D-07  0.75504691D-09  0.52686517D-05
  0.18869803D-09  0.10935393D-10 -0.33982407D-07 -0.58154795D-05 -0.37581571D-05
  0.95736366D-05 -0.22308959D-07 -0.28860851D-07 -0.94131898D-09  0.91715633D-05
 -0.15973269D-04  0.68017056D-05  0.27264320D-06  0.10260275D-06  0.61506908D-09
  0.59383862D-06  0.49062807D-06 -0.10844667D-05  0.11190920D-08 -0.92025785D-08
 -0.17010442D-09 -0.30129366D-08  0.59921635D-11 -0.69854268D-05  0.11734579D-07
 -0.21513743D-09  0.12190626D-04 -0.26957692D-08  0.19716094D-09  0.87656546D-05
  0.37138426D-07 -0.93107179D-09 -0.40381171D-10 -0.58991999D-07 -0.21463488D-08
 -0.11799350D-10 -0.80474925D-08  0.49395642D-08  0.13294286D-09  0.18502349D-06
 -0.20924924D-08 -0.12364149D-05 -0.22299252D-05 -0.32880234D-05  0.30151925D-05
  0.17400171D-04  0.23754485D-06  0.42660550D-07 -0.58378581D-05 -0.14819767D-05
  0.36688667D-07  0.10006875D-05 -0.14122851D-05 -0.31174239D-07  0.75759794D-06
  0.25176705D-05 -0.24405064D-05 -0.16086644D-05  0.40491708D-05  0.32093968D-07
  0.23141954D-07 -0.20739021D-05 -0.38879260D-07 -0.43399463D-06  0.47287389D-06
 -0.23738706D-08  0.29662111D-07 -0.18455350D-05 -0.12365382D-05 -0.22301476D-05
 -0.32883513D-05  0.30157069D-05  0.17403235D-04  0.23763812D-06 -0.20633452D-07
  0.58380781D-05 -0.14813855D-05  0.47542725D-07 -0.10007647D-05 -0.14154158D-05
 -0.22958844D-07 -0.75806260D-06  0.25180836D-05 -0.24401756D-05 -0.16083059D-05
  0.40484815D-05 -0.50122026D-07  0.66878855D-09  0.20755165D-05 -0.38896064D-07