 h2cs-wavefunction
GAUSSIAN            142 MOL ORBITALS    240 PRIMITIVES        4 NUCLEI
  C    1    (CENTRE  1)   0.00000000  0.00000000 -1.04934791  CHARGE =  6.0
  S    2    (CENTRE  2)   0.00000000  0.00000000  2.00381646  CHARGE = 16.0
  H    3    (CENTRE  3)   0.00000000 -1.74285662 -2.13348569  CHARGE =  1.0
  H    4    (CENTRE  4)   0.01889726  1.74285662 -2.13348569  CHARGE =  1.0
CENTRE ASSIGNMENTS    1  1  1  1  1  1  1  1  1  1  1  1  1  1  1  1  1  1  1  1
CENTRE ASSIGNMENTS    1  1  1  1  1  1  1  1  1  1  1  1  1  1  1  1  1  1  1  1
CENTRE ASSIGNMENTS    1  1  1  1  1  1  1  1  1  1  1  1  1  1  1  1  1  1  1  1
CENTRE ASSIGNMENTS    1  1  1  1  1  1  1  1  1  1  1  1  2  2  2  2  2  2  2  2
CENTRE ASSIGNMENTS    2  2  2  2  2  2  2  2  2  2  2  2  2  2  2  2  2  2  2  2
CENTRE ASSIGNMENTS    2  2  2  2  2  2  2  2  2  2  2  2  2  2  2  2  2  2  2  2
CENTRE ASSIGNMENTS    2  2  2  2  2  2  2  2  2  2  2  2  2  2  2  2  2  2  2  2
CENTRE ASSIGNMENTS    2  2  2  2  2  2  2  2  2  2  2  2  2  2  2  2  2  2  2  2
CENTRE ASSIGNMENTS    2  2  2  2  2  2  2  2  2  2  2  2  2  2  2  2  2  2  2  2
CENTRE ASSIGNMENTS    2  2  2  2  2  2  3  3  3  3  3  3  3  3  3  3  3  3  3  3
CENTRE ASSIGNMENTS    3  3  3  3  3  3  3  3  3  3  3  3  3  4  4  4  4  4  4  4
CENTRE ASSIGNMENTS    4  4  4  4  4  4  4  4  4  4  4  4  4  4  4  4  4  4  4  4
TYPE ASSIGNMENTS      1  1  1  1  1  1  1  1  1  1  1  1  1  1  1  1  2  2  2  3
TYPE ASSIGNMENTS      3  3  4  4  4  2  3  4  2  3  4  2  3  4  5  6  7  8  9 10
TYPE ASSIGNMENTS      5  6  7  8  9 10  5  6  7  8  9 10 11 12 13 17 14 15 18 19
TYPE ASSIGNMENTS     16 20 11 12 13 17 14 15 18 19 16 20  1  1  1  1  1  1  1  1
TYPE ASSIGNMENTS      1  1  1  1  1  1  1  1  1  1  1  1  1  1  1  1  1  1  1  1
TYPE ASSIGNMENTS      1  1  1  2  2  2  2  2  2  3  3  3  3  3  3  4  4  4  4  4
TYPE ASSIGNMENTS      4  2  2  2  2  2  2  3  3  3  3  3  3  4  4  4  4  4  4  2
TYPE ASSIGNMENTS      3  4  2  3  4  2  3  4  5  6  7  8  9 10  5  6  7  8  9 10
TYPE ASSIGNMENTS      5  6  7  8  9 10 11 12 13 17 14 15 18 19 16 20 11 12 13 17
TYPE ASSIGNMENTS     14 15 18 19 16 20  1  1  1  1  1  1  2  3  4  2  3  4  2  3
TYPE ASSIGNMENTS      4  5  6  7  8  9 10  5  6  7  8  9 10  1  1  1  1  1  1  2
TYPE ASSIGNMENTS      3  4  2  3  4  2  3  4  5  6  7  8  9 10  5  6  7  8  9 10
EXPONENTS  0.8236000D+04 0.1235000D+04 0.2808000D+03 0.7927000D+02 0.2559000D+02
EXPONENTS  0.8997000D+01 0.3319000D+01 0.2808000D+03 0.7927000D+02 0.2559000D+02
EXPONENTS  0.8997000D+01 0.3319000D+01 0.3643000D+00 0.9059000D+00 0.1285000D+00
EXPONENTS  0.4402000D-01 0.1871000D+02 0.4133000D+01 0.1200000D+01 0.1871000D+02
EXPONENTS  0.4133000D+01 0.1200000D+01 0.1871000D+02 0.4133000D+01 0.1200000D+01
EXPONENTS  0.3827000D+00 0.3827000D+00 0.3827000D+00 0.1209000D+00 0.1209000D+00
EXPONENTS  0.1209000D+00 0.3569000D-01 0.3569000D-01 0.3569000D-01 0.1097000D+01
EXPONENTS  0.1097000D+01 0.1097000D+01 0.1097000D+01 0.1097000D+01 0.1097000D+01
EXPONENTS  0.3180000D+00 0.3180000D+00 0.3180000D+00 0.3180000D+00 0.3180000D+00
EXPONENTS  0.3180000D+00 0.1000000D+00 0.1000000D+00 0.1000000D+00 0.1000000D+00
EXPONENTS  0.1000000D+00 0.1000000D+00 0.7610000D+00 0.7610000D+00 0.7610000D+00
EXPONENTS  0.7610000D+00 0.7610000D+00 0.7610000D+00 0.7610000D+00 0.7610000D+00
EXPONENTS  0.7610000D+00 0.7610000D+00 0.2680000D+00 0.2680000D+00 0.2680000D+00
EXPONENTS  0.2680000D+00 0.2680000D+00 0.2680000D+00 0.2680000D+00 0.2680000D+00
EXPONENTS  0.2680000D+00 0.2680000D+00 0.3741000D+06 0.5605000D+05 0.1276000D+05
EXPONENTS  0.3615000D+04 0.1183000D+04 0.4288000D+03 0.1678000D+03 0.6947000D+02
EXPONENTS  0.2984000D+02 0.1272000D+02 0.5244000D+01 0.3615000D+04 0.1183000D+04
EXPONENTS  0.4288000D+03 0.1678000D+03 0.6947000D+02 0.2984000D+02 0.1272000D+02
EXPONENTS  0.5244000D+01 0.2219000D+01 0.1183000D+04 0.1678000D+03 0.6947000D+02
EXPONENTS  0.2984000D+02 0.1272000D+02 0.5244000D+01 0.2219000D+01 0.3490000D+00
EXPONENTS  0.7767000D+00 0.1322000D+00 0.4970000D-01 0.5744000D+03 0.1358000D+03
EXPONENTS  0.4319000D+02 0.1587000D+02 0.6208000D+01 0.2483000D+01 0.5744000D+03
EXPONENTS  0.1358000D+03 0.4319000D+02 0.1587000D+02 0.6208000D+01 0.2483000D+01
EXPONENTS  0.5744000D+03 0.1358000D+03 0.4319000D+02 0.1587000D+02 0.6208000D+01
EXPONENTS  0.2483000D+01 0.1358000D+03 0.4319000D+02 0.1587000D+02 0.6208000D+01
EXPONENTS  0.2483000D+01 0.3229000D+00 0.1358000D+03 0.4319000D+02 0.1587000D+02
EXPONENTS  0.6208000D+01 0.2483000D+01 0.3229000D+00 0.1358000D+03 0.4319000D+02
EXPONENTS  0.1587000D+02 0.6208000D+01 0.2483000D+01 0.3229000D+00 0.8688000D+00
EXPONENTS  0.8688000D+00 0.8688000D+00 0.1098000D+00 0.1098000D+00 0.1098000D+00
EXPONENTS  0.3510000D-01 0.3510000D-01 0.3510000D-01 0.2690000D+00 0.2690000D+00
EXPONENTS  0.2690000D+00 0.2690000D+00 0.2690000D+00 0.2690000D+00 0.8190000D+00
EXPONENTS  0.8190000D+00 0.8190000D+00 0.8190000D+00 0.8190000D+00 0.8190000D+00
EXPONENTS  0.1010000D+00 0.1010000D+00 0.1010000D+00 0.1010000D+00 0.1010000D+00
EXPONENTS  0.1010000D+00 0.5570000D+00 0.5570000D+00 0.5570000D+00 0.5570000D+00
EXPONENTS  0.5570000D+00 0.5570000D+00 0.5570000D+00 0.5570000D+00 0.5570000D+00
EXPONENTS  0.5570000D+00 0.2180000D+00 0.2180000D+00 0.2180000D+00 0.2180000D+00
EXPONENTS  0.2180000D+00 0.2180000D+00 0.2180000D+00 0.2180000D+00 0.2180000D+00
EXPONENTS  0.2180000D+00 0.3387000D+02 0.5095000D+01 0.1159000D+01 0.3258000D+00
EXPONENTS  0.1027000D+00 0.2526000D-01 0.1407000D+01 0.1407000D+01 0.1407000D+01
EXPONENTS  0.3880000D+00 0.3880000D+00 0.3880000D+00 0.1020000D+00 0.1020000D+00
EXPONENTS  0.1020000D+00 0.1057000D+01 0.1057000D+01 0.1057000D+01 0.1057000D+01
EXPONENTS  0.1057000D+01 0.1057000D+01 0.2470000D+00 0.2470000D+00 0.2470000D+00
EXPONENTS  0.2470000D+00 0.2470000D+00 0.2470000D+00 0.3387000D+02 0.5095000D+01
EXPONENTS  0.1159000D+01 0.3258000D+00 0.1027000D+00 0.2526000D-01 0.1407000D+01
EXPONENTS  0.1407000D+01 0.1407000D+01 0.3880000D+00 0.3880000D+00 0.3880000D+00
EXPONENTS  0.1020000D+00 0.1020000D+00 0.1020000D+00 0.1057000D+01 0.1057000D+01
EXPONENTS  0.1057000D+01 0.1057000D+01 0.1057000D+01 0.1057000D+01 0.2470000D+00
EXPONENTS  0.2470000D+00 0.2470000D+00 0.2470000D+00 0.2470000D+00 0.2470000D+00
MO    1     MO 0.0        OCC NO =    2.0000337  ORB. ENERGY =    0.000000
  0.69047569D-07  0.12871858D-06  0.21755193D-06  0.32702113D-06  0.40168689D-06
  0.33900956D-06  0.12747645D-06 -0.54224591D-10 -0.40529522D-09 -0.15146808D-08
 -0.42257236D-08 -0.56613046D-08  0.66849451D-08  0.24392535D-07 -0.22825746D-06
 -0.10494125D-07 -0.78010270D-05 -0.73139586D-05 -0.52079743D-05 -0.14389654D-02
 -0.13491215D-02 -0.96065488D-03  0.25011029D-07  0.23449429D-07  0.16697391D-07
 -0.32433396D-05 -0.59821248D-03 -0.13839268D-08  0.87327940D-05  0.16108891D-02
  0.37435375D-07  0.16074814D-06  0.29652595D-04  0.34962208D-09 -0.16834669D-07
  0.55152940D-08  0.11319375D-07 -0.24939032D-05 -0.57628077D-05 -0.10629810D-02
  0.27125410D-07 -0.15153122D-07 -0.11972288D-07  0.28645224D-05  0.28427070D-06
  0.52396986D-04  0.84135306D-08 -0.35438918D-08 -0.48696389D-08  0.17754746D-05
 -0.11654668D-05 -0.21499557D-03  0.10547257D-05  0.16675709D-03 -0.70174471D-08
  0.60250506D-06  0.19453020D-03  0.17452095D-07 -0.37666821D-05 -0.69480147D-03
  0.36002462D-08  0.23033077D-05 -0.66629306D-06 -0.81254778D-04 -0.77773643D-09
  0.11071577D-07 -0.12289793D-03 -0.13547394D-07  0.19878076D-05  0.36666226D-03
  0.15880603D-07 -0.20995391D-05 -0.52505526D-06 -0.98164370D-06 -0.16965721D-05
 -0.27441354D-05 -0.41476689D-05 -0.57121988D-05 -0.66768648D-05 -0.57705980D-05
 -0.26931681D-05 -0.36486519D-06  0.26686765D-08 -0.65917796D-08 -0.84736663D-07
 -0.30910717D-06 -0.10429199D-05 -0.22907201D-05 -0.29589856D-05  0.47553416D-06
  0.39891664D-05  0.21892030D-05 -0.32629405D-10 -0.37166920D-09 -0.77171925D-09
 -0.21220319D-08  0.27514581D-09  0.95948620D-08  0.23931110D-07 -0.19809826D-07
  0.11130386D-06  0.16084178D-07  0.14861114D-08  0.52978129D-01  0.69504292D-01
  0.76231166D-01  0.62720707D-01  0.33062790D-01  0.86023162D-02  0.97722834D+01
  0.12820680D+02  0.14061511D+02  0.11569388D+02  0.60987235D+01  0.15867731D+01
  0.87369567D-05  0.11462390D-04  0.12571762D-04  0.10343667D-04  0.54525929D-05
  0.14186621D-05  0.52256320D-06  0.18757736D-04  0.29759618D-04  0.35338634D-04
  0.53476667D-05 -0.38919316D-04  0.96391266D-04  0.34600253D-02  0.54894169D-02
  0.65185142D-02  0.98642301D-03 -0.71790018D-02  0.40538774D-09  0.14551649D-07
  0.23086556D-07  0.27414577D-07  0.41485481D-08 -0.30192355D-07  0.36060974D-03
  0.66517643D-01  0.71197728D-07 -0.31195189D-05 -0.57540447D-03 -0.34772946D-08
 -0.14894476D-06 -0.27474542D-04 -0.12081225D-09  0.15913502D-08 -0.78306136D-08
  0.62392634D-08  0.68241768D-06  0.41760860D-05  0.77029719D-03 -0.87400005D-08
  0.31981463D-08  0.55418542D-08 -0.99652892D-06 -0.58613126D-05 -0.10811637D-02
 -0.99462792D-09  0.57052962D-09  0.42409830D-09 -0.24554376D-06 -0.16246386D-06
 -0.29970945D-04  0.70931651D-06  0.14840902D-05 -0.12635839D-08 -0.13945134D-05
  0.13082810D-03 -0.33302974D-09 -0.73343612D-06 -0.13528037D-03  0.41237814D-08
 -0.55914674D-06 -0.12014789D-07  0.33704328D-04 -0.72335514D-09  0.57221539D-06
 -0.22144817D-05 -0.10878400D-08 -0.53617102D-06 -0.98898503D-04  0.32579054D-08
 -0.19623091D-06 -0.10704264D-03 -0.19305580D-03 -0.28466067D-03  0.13746044D-03
  0.23682571D-02  0.25550899D-04  0.10935021D-05 -0.18510959D-04  0.26626369D-03
  0.10638813D-06 -0.14236947D-04 -0.32499885D-03  0.56607056D-06  0.31407952D-03
  0.13272022D-03 -0.49111236D-04 -0.14476642D-03  0.19387765D-03  0.12062835D-05
 -0.52977256D-06 -0.85357430D-05  0.25286540D-04 -0.22498026D-04 -0.27885133D-05
 -0.22711998D-06  0.81103369D-06 -0.11635983D-03  0.10704772D-03  0.19306496D-03
  0.28467418D-03 -0.13737011D-03 -0.23680938D-02 -0.25548220D-04 -0.12940780D-05
 -0.18501685D-04 -0.26623500D-03 -0.26068986D-06 -0.14225871D-04  0.32497385D-03
  0.28393764D-05  0.31405837D-03 -0.13271734D-03  0.49136951D-04  0.14473000D-03
 -0.19386695D-03  0.32798635D-05  0.43724487D-06 -0.85397496D-05 -0.25280679D-04
  0.22493675D-04  0.27870046D-05  0.80893129D-06 -0.20725187D-05 -0.11635415D-03
MO    2     MO 0.0        OCC NO =    2.0000243  ORB. ENERGY =    0.000000
 -0.53358626D-01 -0.99471228D-01 -0.16811993D+00 -0.25271561D+00 -0.31041586D+00
 -0.26198003D+00 -0.98511334D-01 -0.88995776D-05 -0.66518829D-04 -0.24859605D-03
 -0.69354428D-03 -0.92915812D-03  0.10971625D-02 -0.42236566D-02 -0.55006844D-03
 -0.39513857D-04  0.32367849D-05  0.30346916D-05  0.21608812D-05 -0.35572124D-07
 -0.33351128D-07 -0.23747990D-07  0.24031521D-02  0.22531078D-02  0.16043470D-02
 -0.13544998D-05  0.33389218D-07  0.49307382D-04  0.14370146D-05 -0.45147378D-08
 -0.60511530D-03  0.55551058D-09 -0.55324520D-09 -0.47299661D-06  0.19000487D-03
 -0.14573607D-03 -0.44268797D-04 -0.36400731D-05  0.34754620D-05 -0.47637862D-07
  0.37919294D-04  0.14672506D-03 -0.18464436D-03  0.11799820D-05  0.27930743D-06
 -0.24288476D-07  0.11038085D-04  0.85501960D-04 -0.96540045D-04  0.80740641D-06
  0.76260270D-06 -0.67130064D-08  0.50148920D-06  0.40929551D-08  0.98941763D-05
 -0.13139880D-05 -0.30493399D-07 -0.17119580D-03 -0.19047960D-06  0.18214534D-07
  0.14151327D-03  0.33903162D-05  0.15590517D-06  0.22145452D-08  0.58665639D-04
 -0.51429464D-06 -0.10222699D-07  0.10696881D-04  0.46579136D-07  0.35790637D-08
 -0.18669380D-03 -0.21403712D-05 -0.12113978D+00 -0.22648301D+00 -0.39142997D+00
 -0.63312184D+00 -0.95694247D+00 -0.13179079D+01 -0.15404739D+01 -0.13313817D+01
 -0.62136276D+00 -0.84181020D-01  0.61571210D-03 -0.15085900D-02 -0.19392773D-01
 -0.70742047D-01 -0.23868191D+00 -0.52425258D+00 -0.67719133D+00  0.10883041D+00
  0.91295778D+00  0.50101945D+00 -0.12531203D-04 -0.14273819D-03 -0.29637595D-03
 -0.81495858D-03  0.10566874D-03  0.36848716D-02  0.91906549D-02 -0.76078911D-02
  0.27972330D-01  0.11460765D-02  0.42672854D-05 -0.82575952D-02 -0.10833495D-01
 -0.11882000D-01 -0.97761514D-02 -0.51534312D-02 -0.13408259D-02  0.17604106D-04
  0.23095586D-04  0.25330859D-04  0.20841468D-04  0.10986437D-04  0.28584642D-05
  0.66582273D+01  0.87352156D+01  0.95806410D+01  0.78826628D+01  0.41552916D+01
  0.10811287D+01 -0.66465690D-07 -0.23858279D-05 -0.37851758D-05 -0.44947801D-05
 -0.68017871D-06  0.49502132D-05  0.17216864D-09  0.61801019D-08  0.98048866D-08
  0.11643002D-07  0.17618931D-08 -0.12822728D-07  0.55924353D-04  0.20074399D-02
  0.31848538D-02  0.37819162D-02  0.57230360D-03 -0.41651184D-02 -0.57152257D-04
  0.12341818D-06  0.48629297D-01 -0.10916065D-05  0.96679345D-08 -0.64497328D-03
  0.21953910D-07  0.19498241D-09 -0.13878464D-05 -0.25513292D-03 -0.10219898D-03
  0.35733191D-03  0.16582643D-05  0.55669667D-07 -0.66754601D-09  0.35812658D-03
 -0.38146095D-03  0.23334364D-04 -0.80192675D-05  0.73740820D-06  0.20487147D-08
 -0.53389458D-05 -0.23226464D-04  0.28565410D-04 -0.19395507D-06  0.35527700D-06
 -0.22812059D-08 -0.23740743D-06  0.14214992D-08 -0.69448862D-04 -0.16505310D-06
  0.20655179D-08  0.20749586D-03  0.87727538D-06 -0.63300155D-08  0.85072697D-06
 -0.22406629D-05  0.50524451D-07 -0.71487408D-09 -0.19640869D-04  0.96998205D-07
  0.32653774D-09  0.25723883D-04 -0.24857156D-06  0.18180845D-08  0.33198724D-04
  0.81044215D-07 -0.22712474D-04 -0.40962882D-04 -0.60399745D-04 -0.39449468D-03
 -0.44558086D-03  0.30142616D-05 -0.10290855D-05  0.20856144D-04  0.90701205D-04
  0.31702801D-05  0.34027323D-04  0.24977936D-04  0.11862687D-05  0.35902360D-04
 -0.12461374D-03 -0.10029285D-03  0.20171459D-04  0.80121387D-04  0.13990020D-05
  0.75326494D-06  0.13060826D-03 -0.31335494D-04  0.21821023D-04  0.95144708D-05
  0.27230255D-06  0.33814689D-06 -0.64598202D-04 -0.22716124D-04 -0.40969465D-04
 -0.60409452D-04 -0.39456415D-03 -0.44562290D-03  0.30151686D-05 -0.12551217D-05
 -0.20839864D-04  0.90671861D-04  0.28017110D-05 -0.33980338D-04  0.24989914D-04
  0.79706256D-06 -0.35891979D-04 -0.12460249D-03 -0.10029015D-03  0.20166887D-04
  0.80123266D-04  0.12131183D-05 -0.66314620D-06 -0.13061908D-03 -0.31329837D-04
  0.21810990D-04  0.95188466D-05  0.88007975D-06  0.10384154D-05  0.64585572D-04
MO    3     MO 0.0        OCC NO =    2.0000101  ORB. ENERGY =    0.000000
 -0.15141805D+00 -0.28227375D+00 -0.47708110D+00 -0.71714187D+00 -0.88088034D+00
 -0.74343193D+00 -0.27954982D+00 -0.23221686D-04 -0.17356772D-03 -0.64866219D-03
 -0.18096665D-02 -0.24244542D-02  0.28628284D-02 -0.12247764D-01 -0.11541125D-03
 -0.10723618D-03  0.12633555D-04  0.11844761D-04  0.84341752D-05 -0.19181090D-06
 -0.17983491D-06 -0.12805317D-06  0.37168286D-02  0.34847631D-02  0.24813589D-02
 -0.27083927D-05  0.10450430D-06  0.55396868D-03  0.67268315D-06  0.32170613D-07
 -0.15667268D-03 -0.12343077D-07  0.33089204D-10 -0.38060771D-05  0.45311921D-03
 -0.44591862D-03 -0.72005882D-05 -0.97472043D-05  0.81304337D-05 -0.14792832D-06
 -0.11583147D-03 -0.32371992D-05  0.11906867D-03  0.12214296D-05 -0.67638622D-06
 -0.43454337D-07  0.12953711D-04  0.59390724D-04 -0.72344435D-04  0.50352472D-06
  0.70693483D-06 -0.55786794D-08  0.14026923D-05  0.18711739D-07  0.71472398D-04
 -0.40921083D-05 -0.87212058D-07 -0.44938505D-03 -0.11596865D-06  0.31076842D-07
  0.23496786D-03  0.74194832D-05  0.37764660D-06  0.33286120D-08  0.11878161D-03
 -0.89850627D-06 -0.21888707D-07 -0.22303527D-04 -0.23443354D-06  0.11902871D-07
 -0.33404130D-03 -0.33803421D-05  0.11207546D+00  0.20953637D+00  0.36214112D+00
  0.58574834D+00  0.88533901D+00  0.12192951D+01  0.14252075D+01  0.12317607D+01
  0.57486914D+00  0.77882154D-01 -0.56964129D-03  0.14084059D-02  0.18104917D-01
  0.66044133D-01  0.22283127D+00  0.48943745D+00  0.63221969D+00 -0.10160308D+00
 -0.85232910D+00 -0.46774722D+00  0.63423660D-05  0.72243491D-04  0.15000353D-03
  0.41247161D-03 -0.53481681D-04 -0.18650088D-02 -0.46516281D-02  0.38505504D-02
 -0.27764169D-01  0.11069715D-02  0.29061780D-04 -0.22626281D-01 -0.29684394D-01
 -0.32557356D-01 -0.26787212D-01 -0.14120695D-01 -0.36739392D-02  0.13849611D-03
  0.18169903D-03  0.19928451D-03  0.16396529D-03  0.86433178D-04  0.22488287D-04
  0.56958113D+01  0.74725805D+01  0.81958035D+01  0.67432603D+01  0.35546634D+01
  0.92485655D+00 -0.13538328D-06 -0.48596684D-05 -0.77099857D-05 -0.91553716D-05
 -0.13854490D-05  0.10083038D-04  0.95948919D-09  0.34441470D-07  0.54642255D-07
  0.64886002D-07  0.98189624D-08 -0.71460568D-07  0.36611061D-04  0.13141771D-02
  0.20849750D-02  0.24758438D-02  0.37466043D-03 -0.27267084D-02 -0.16974669D-03
  0.10430482D-05  0.43851473D-01 -0.14843863D-05  0.52570020D-08 -0.11641346D-03
  0.35077770D-07  0.57185072D-11  0.49724897D-06 -0.15129170D-03 -0.13811862D-03
  0.28941032D-03  0.14288242D-06 -0.55553886D-06  0.12431080D-07 -0.11408565D-03
  0.47185739D-03 -0.35777174D-03  0.63532555D-05 -0.28796686D-05  0.22230540D-07
  0.62418204D-05  0.20936454D-05 -0.83354658D-05 -0.44978270D-07  0.42781953D-06
 -0.16583809D-08 -0.63830040D-06  0.13328713D-08 -0.43863885D-04  0.10754674D-06
  0.13087650D-07  0.20879119D-03  0.18073545D-05 -0.17086264D-07 -0.77199534D-04
 -0.31010136D-05  0.71832524D-07 -0.12159004D-09 -0.12966794D-04  0.23425051D-07
 -0.37083592D-09  0.19695739D-04 -0.23892262D-06  0.73560604D-09  0.19204644D-04
 -0.53452181D-08  0.39080765D-04  0.70483769D-04  0.10392828D-03 -0.35951615D-03
  0.54296314D-05  0.70032198D-05 -0.14785889D-05  0.17303231D-03  0.20438244D-03
  0.53052148D-05  0.12732277D-03  0.17036574D-03  0.98841637D-06  0.74318666D-04
 -0.57665603D-04 -0.23416195D-03  0.11044039D-03  0.12372156D-03  0.24357187D-05
  0.21414092D-05  0.44850292D-03 -0.63984009D-04  0.95144966D-05  0.54469513D-04
  0.43094646D-06  0.43962146D-06 -0.58270930D-04  0.39062049D-04  0.70450014D-04
  0.10387850D-03 -0.35972678D-03  0.52777113D-05  0.70016805D-05 -0.33540786D-05
 -0.17296461D-03  0.20431575D-03  0.39256897D-05 -0.12720291D-03  0.17034130D-03
  0.18285829D-06 -0.74290927D-04 -0.57669196D-04 -0.23413367D-03  0.11041293D-03
  0.12372074D-03  0.50361093D-05 -0.27218091D-05 -0.44849595D-03 -0.63972060D-04
  0.95001497D-05  0.54471910D-04  0.11623570D-05  0.10713076D-05  0.58259652D-04
MO    4     MO 0.0        OCC NO =    2.0000048  ORB. ENERGY =    0.000000
  0.28553560D+00  0.53229589D+00  0.89965257D+00  0.13523456D+01  0.16611144D+01
  0.14019219D+01  0.52715925D+00  0.30289139D-04  0.22639255D-03  0.84608066D-03
  0.23604333D-02  0.31623298D-02 -0.37341219D-02  0.23598545D-01 -0.50926205D-03
 -0.42865809D-05  0.62086529D-04  0.58210067D-04  0.41449036D-04 -0.34273603D-07
 -0.32133681D-07 -0.22881095D-07  0.42387474D-02  0.39740951D-02  0.28297925D-02
  0.18963878D-04 -0.34279156D-06 -0.37381281D-03  0.15029136D-05 -0.11560782D-07
 -0.30649532D-03  0.41172046D-08  0.10494899D-08 -0.39104319D-05 -0.11862118D-02
  0.61313764D-03  0.57307415D-03  0.19508195D-04  0.63335641D-05  0.19074514D-06
  0.18491451D-03  0.11327488D-03 -0.29818939D-03 -0.77847443D-06 -0.15903360D-04
  0.18005390D-06  0.88139618D-05  0.37091099D-04 -0.45905061D-04  0.30673272D-06
  0.14457477D-05 -0.10916163D-08 -0.56863661D-05 -0.45548043D-07  0.41351588D-03
  0.87015203D-05  0.23801607D-06  0.19113511D-03  0.83575779D-05 -0.10137194D-06
 -0.14316828D-02 -0.17593599D-04  0.94559316D-06 -0.22577916D-07 -0.67374351D-04
  0.24289702D-05  0.13062457D-07 -0.22486602D-04 -0.52657497D-05  0.54671290D-07
  0.22460966D-03  0.26795390D-05  0.36834056D-01  0.68864977D-01  0.11901915D+00
  0.19250857D+00  0.29097026D+00  0.40072629D+00  0.46840023D+00  0.40482315D+00
  0.18893307D+00  0.25596286D-01 -0.18721492D-03  0.46198472D-03  0.59387671D-02
  0.21663769D-01  0.73093018D-01  0.16054507D+00  0.20738043D+00 -0.33327800D-01
 -0.27958063D+00 -0.15343024D+00  0.18363127D-05  0.20916743D-04  0.43430699D-04
  0.11942339D-03 -0.15484614D-04 -0.53997819D-03 -0.13467914D-02  0.11148544D-02
 -0.95111106D-02  0.13095247D-02  0.10612679D-03 -0.25654236D+00 -0.33656898D+00
 -0.36914333D+00 -0.30372002D+00 -0.16010392D+00 -0.41656029D-01  0.13918591D-02
  0.18260400D-02  0.20027706D-02  0.16478194D-02  0.86863667D-03  0.22600292D-03
  0.42405539D+01  0.55633655D+01  0.61018080D+01  0.50203838D+01  0.26464609D+01
  0.68855934D+00 -0.13616382D-05 -0.48876862D-04 -0.77544368D-04 -0.92081558D-04
 -0.13934367D-04  0.10141171D-03  0.78665520D-08  0.28237485D-06  0.44799478D-06
  0.53198005D-06  0.80502604D-07 -0.58588287D-06  0.31428270D-04  0.11281376D-02
  0.17898186D-02  0.21253546D-02  0.32162218D-03 -0.23407059D-02 -0.19796234D-02
  0.10757451D-04  0.33072914D-01 -0.38115590D-05  0.10026389D-08 -0.34758389D-03
  0.44022164D-06 -0.30050834D-08 -0.46898533D-05 -0.13515504D-03 -0.23117788D-03
  0.36633292D-03 -0.10411888D-05 -0.15071667D-04  0.11007289D-06  0.98549922D-04
  0.33884687D-03 -0.43739679D-03  0.26055845D-05  0.97464624D-05 -0.67073155D-07
 -0.10357163D-04 -0.12203722D-04  0.22560884D-04 -0.20058337D-07  0.68225679D-06
  0.64545778D-09 -0.30996273D-05 -0.11610513D-07  0.53932472D-04  0.20492800D-05
  0.73651275D-07 -0.27970367D-04  0.72496019D-05 -0.38819735D-07 -0.13382705D-03
 -0.11479251D-05 -0.19509057D-06  0.59215561D-08 -0.36884608D-04 -0.79677062D-06
 -0.54266651D-08  0.28885732D-04  0.13820423D-05 -0.12338003D-07  0.81768093D-04
  0.57345631D-06 -0.30786457D-03 -0.55524644D-03 -0.81871055D-03 -0.53888895D-03
 -0.47494620D-03 -0.71187576D-05  0.39079807D-05 -0.82622557D-03 -0.37175235D-03
 -0.65998779D-05 -0.40929591D-03 -0.27046256D-03  0.17924793D-05 -0.35223452D-04
 -0.10049441D-03  0.27160499D-03 -0.43493074D-03  0.16332575D-03 -0.42488350D-05
 -0.17615980D-06 -0.94977586D-03  0.49511889D-04 -0.24645022D-04 -0.24866868D-04
 -0.14597368D-06 -0.20644347D-05 -0.78921192D-04 -0.30780350D-03 -0.55513629D-03
 -0.81854814D-03 -0.53846628D-03 -0.47481895D-03 -0.71187537D-05  0.12863905D-04
  0.82602493D-03 -0.37166639D-03 -0.21629407D-05  0.40909413D-03 -0.27022187D-03
  0.21736609D-05  0.35179680D-04 -0.10047614D-03  0.27157104D-03 -0.43492667D-03
  0.16335562D-03 -0.11073218D-04  0.10120613D-04  0.94962463D-03  0.49488754D-04
 -0.24625413D-04 -0.24863341D-04 -0.14616108D-05 -0.12089626D-05  0.78895753D-04
MO    5     MO 0.0        OCC NO =    2.0000043  ORB. ENERGY =    0.000000
  0.71443832D-02  0.13318570D-01  0.22510197D-01  0.33837025D-01  0.41562724D-01
  0.35077473D-01  0.13190046D-01  0.76169180D-06  0.56931743D-05  0.21276692D-04
  0.59358658D-04  0.79524237D-04 -0.93903296D-04  0.59161039D-03 -0.20730945D-04
  0.11030988D-06 -0.29436566D-02 -0.27598651D-02 -0.19651884D-02  0.15966070D-04
  0.14969206D-04  0.10658966D-04  0.11208234D-03  0.10508432D-03  0.74826295D-04
 -0.49187405D-03  0.26605322D-05 -0.11780867D-04 -0.49186360D-04  0.26652163D-06
 -0.14819906D-04 -0.19074934D-06  0.10490354D-08 -0.30687133D-06 -0.30011534D-04
  0.16583188D-04  0.13428345D-04  0.50579738D-06 -0.66443625D-03  0.36080643D-05
  0.50376656D-05  0.19797566D-05 -0.70174222D-05 -0.10384507D-07  0.61489713D-03
 -0.33314394D-05  0.53628401D-06  0.84867511D-06 -0.13849591D-05  0.10688603D-08
 -0.53793966D-04  0.29150693D-06  0.83738736D-04 -0.24118355D-06  0.10749788D-04
  0.44490915D-04 -0.87820347D-06  0.62364945D-05 -0.29570712D-03  0.16017541D-05
 -0.38485857D-04 -0.51148490D-06 -0.33402653D-04  0.76665498D-06 -0.17548556D-05
 -0.14146042D-03 -0.99048750D-06 -0.79793349D-06  0.24166837D-03 -0.13094774D-05
  0.60625004D-05  0.71185606D-07  0.11306273D-02  0.21138216D-02  0.36533120D-02
  0.59090815D-02  0.89313790D-02  0.12300358D-01  0.14377621D-01  0.12426112D-01
  0.57993312D-02  0.78568212D-03 -0.57465922D-05  0.14199706D-04  0.18253579D-03
  0.66586432D-03  0.22466097D-02  0.49345630D-02  0.63741095D-02 -0.10243736D-02
 -0.85932771D-02 -0.47158797D-02  0.50437998D-07  0.57452015D-06  0.11929109D-05
  0.32802021D-05 -0.42531587D-06 -0.14831580D-04 -0.36992316D-04  0.30621704D-04
 -0.29323488D-03  0.46152540D-04  0.43111892D-05  0.97120042D+01  0.12741597D+02
  0.13974774D+02  0.11498023D+02  0.60611042D+01  0.15769853D+01 -0.52651297D-01
 -0.69075507D-01 -0.75760882D-01 -0.62333771D-01 -0.32858820D-01 -0.85492469D-02
  0.13081228D+00  0.17161828D+00  0.18822811D+00  0.15486842D+00  0.81637823D-01
  0.21240626D-01  0.51711119D-04  0.18562032D-02  0.29449130D-02  0.34969938D-02
  0.52918734D-03 -0.38513263D-02 -0.28032654D-06 -0.10062498D-04 -0.15964406D-04
 -0.18957242D-04 -0.28687304D-05  0.20878082D-04  0.96900253D-06  0.34782958D-04
  0.55184034D-04  0.65529348D-04  0.99163175D-05 -0.72169101D-04  0.75239986D-01
 -0.40789504D-03  0.10297216D-02  0.17205776D-03 -0.93281664D-06 -0.12252557D-04
 -0.15196141D-04  0.82373570D-07 -0.11830054D-06 -0.41977945D-05 -0.69490823D-05
  0.11146877D-04 -0.29589662D-07  0.62509200D-03 -0.33882246D-05  0.26511062D-05
  0.10858317D-04 -0.13509423D-04  0.86787257D-07 -0.40062727D-03  0.21717074D-05
 -0.41787863D-06 -0.32572718D-06  0.74360581D-06  0.17223001D-08 -0.34023661D-04
  0.18446515D-06  0.12996196D-03  0.39918717D-06  0.93531435D-06 -0.73623963D-04
 -0.29121418D-05  0.25615896D-06 -0.31626191D-03  0.17145803D-05 -0.30621020D-05
 -0.31885210D-07  0.67222778D-05 -0.19044959D-06 -0.96430247D-06  0.35134480D-04
  0.27163663D-06  0.82118882D-06 -0.55301313D-04  0.29971212D-06  0.20717186D-05
  0.12129263D-07 -0.85401288D-05 -0.15402474D-04 -0.22710939D-04 -0.12486195D-04
 -0.15412344D-04 -0.32195138D-06 -0.12765673D-03 -0.20379280D-04 -0.12566740D-04
  0.16785363D-03 -0.12538538D-04 -0.27957871D-05 -0.57071171D-04 -0.13345290D-05
 -0.23121298D-05  0.77662608D-05 -0.12300936D-04  0.45346750D-05  0.14037961D-03
 -0.57379619D-04 -0.24627488D-04  0.79390457D-06 -0.57511125D-06 -0.21879333D-06
 -0.38197993D-04  0.11111007D-03 -0.20049768D-05 -0.85385540D-05 -0.15399634D-04
 -0.22706751D-04 -0.12475830D-04 -0.15410581D-04 -0.32190797D-06 -0.12741927D-03
  0.21759205D-04 -0.12564533D-04  0.16794830D-03  0.10711946D-04 -0.27895883D-05
 -0.57044867D-04  0.19528538D-05 -0.23114244D-05  0.62422912D-05 -0.10777825D-04
  0.45355342D-05 -0.14075755D-03 -0.57116306D-04  0.25245380D-04  0.12074114D-05
 -0.98879620D-06 -0.21861519D-06  0.38157097D-04  0.11111436D-03  0.79918432D-06
MO    6     MO 0.0        OCC NO =    2.0000000  ORB. ENERGY =    0.000000
 -0.81022877D-04 -0.15104296D-03 -0.25528319D-03 -0.38373824D-03 -0.47135370D-03
 -0.39780590D-03 -0.14958541D-03  0.49261572D-07  0.36819973D-06  0.13760465D-05
  0.38389554D-05  0.51431418D-05 -0.60730915D-05  0.16607703D-05 -0.30761444D-04
 -0.72430415D-05  0.10704187D-07  0.10035855D-07  0.71461268D-08 -0.20312220D-09
 -0.19043997D-09 -0.13560460D-09  0.14564133D-04  0.13654800D-04  0.97230314D-05
 -0.12962043D-08 -0.10269227D-08 -0.38213978D-04 -0.77569028D-07  0.19170595D-08
  0.41046346D-05 -0.87262797D-09  0.35866035D-10 -0.38995851D-06  0.14548279D-05
  0.89094346D-05 -0.10364262D-04  0.80821323D-07 -0.35071553D-07  0.11886085D-08
  0.63082202D-05  0.43045315D-05 -0.10612752D-04 -0.21726364D-07  0.48841643D-08
 -0.98859399D-10  0.63676176D-06 -0.91538707D-06  0.27862531D-06 -0.16828800D-07
 -0.18853255D-07  0.24196695D-09 -0.20533264D-07 -0.32083887D-09  0.21236323D-05
  0.39029343D-07  0.10367750D-08  0.38974641D-06  0.22570448D-07 -0.74258356D-10
 -0.67606433D-05 -0.77526925D-07  0.11486975D-07 -0.99362739D-10 -0.38227042D-06
 -0.26544653D-07 -0.58350388D-09  0.61674834D-06 -0.79162732D-08  0.88159210D-09
  0.53006291D-06 -0.94437874D-09  0.58266944D+00  0.10893592D+01  0.18827365D+01
  0.30452487D+01  0.46027915D+01  0.63389968D+01  0.74095154D+01  0.64038042D+01
  0.29886888D+01  0.40490175D+00 -0.29615097D-02 -0.29342982D-04 -0.37720108D-03
 -0.13759753D-02 -0.46425066D-02 -0.10197028D-01 -0.13171778D-01  0.21168168D-02
  0.17757577D-01  0.97451293D-02  0.19754242D-06  0.22501309D-05  0.46720829D-05
  0.12847041D-04 -0.16657665D-05 -0.58088471D-04 -0.14488187D-03  0.11993112D-03
  0.13966846D-04 -0.17650521D-04  0.32764135D-05  0.40567096D-05  0.53221723D-05
  0.58372711D-05  0.48027308D-05  0.25317266D-05  0.65870765D-06 -0.11484195D-07
 -0.15066611D-07 -0.16524812D-07 -0.13596117D-07 -0.71671001D-08 -0.18647446D-08
  0.11195324D-01  0.14687628D-01  0.16109150D-01  0.13254123D-01  0.69868200D-02
  0.18178391D-02  0.34912328D-10  0.12532000D-08  0.19882333D-08  0.23609660D-08
  0.35727639D-09 -0.26001906D-08  0.12791806D-10  0.45916993D-09  0.72848461D-09
  0.86505313D-09  0.13090534D-09 -0.95270453D-09  0.70486859D-06  0.25301703D-04
  0.40141786D-04  0.47667140D-04  0.72132946D-05 -0.52497007D-04  0.72433980D-07
  0.44681870D-09  0.16289354D-03  0.43467502D-07 -0.75496418D-09  0.52686517D-05
  0.18870213D-09 -0.10934668D-10 -0.33982404D-07 -0.58154797D-05 -0.37581572D-05
  0.95736369D-05  0.22308959D-07 -0.28860997D-07  0.94130440D-09  0.91715629D-05
 -0.15973268D-04  0.68017053D-05 -0.27264319D-06  0.10260280D-06 -0.61509638D-09
  0.59383863D-06  0.49062807D-06 -0.10844667D-05 -0.11190924D-08 -0.92025698D-08
  0.17008555D-09 -0.30129698D-08 -0.59969894D-11 -0.69854269D-05  0.11734607D-07
  0.21513986D-09  0.12190626D-04 -0.26956978D-08 -0.19714889D-09  0.87656546D-05
 -0.37138432D-07 -0.93107306D-09  0.40379510D-10 -0.58992008D-07 -0.21463577D-08
  0.11798505D-10 -0.80474763D-08  0.49395769D-08 -0.13293704D-09  0.18502350D-06
  0.20924927D-08 -0.12365381D-05 -0.22301474D-05 -0.32883511D-05  0.30157072D-05
  0.17403236D-04  0.23763815D-06 -0.20633431D-07 -0.58380777D-05 -0.14813852D-05
  0.47542708D-07  0.10007652D-05 -0.14154155D-05 -0.22958825D-07  0.75806280D-06
  0.25180835D-05 -0.24401759D-05 -0.16083056D-05  0.40484816D-05  0.50122008D-07
  0.66881791D-09 -0.20755157D-05 -0.38896143D-07 -0.43386652D-06  0.47276267D-06
 -0.10943268D-07  0.96528740D-08 -0.18463298D-05 -0.12364148D-05 -0.22299250D-05
 -0.32880231D-05  0.30151917D-05  0.17400170D-04  0.23754484D-06  0.42660568D-07
  0.58378578D-05 -0.14819765D-05  0.36688646D-07 -0.10006874D-05 -0.14122851D-05
 -0.31174223D-07 -0.75759793D-06  0.25176705D-05 -0.24405067D-05 -0.16086642D-05
  0.40491709D-05 -0.32093939D-07  0.23141976D-07  0.20739016D-05 -0.38879339D-07