 h2cs-wavefunction
GAUSSIAN            142 MOL ORBITALS    240 PRIMITIVES        4 NUCLEI
  C    1    (CENTRE  1)   0.00000000  0.00000000 -1.04934791  CHARGE =  6.0
  S    2    (CENTRE  2)   0.00000000  0.00000000  2.00381646  CHARGE = 16.0
  H    3    (CENTRE  3)  -0.01889726 -1.74285662 -2.13348569  CHARGE =  1.0
  H    4    (CENTRE  4)   0.00000000  1.74285662 -2.13348569  CHARGE =  1.0
CENTRE ASSIGNMENTS    1  1  1  1  1  1  1  1  1  1  1  1  1  1  1  1  1  1  1  1
CENTRE ASSIGNMENTS    1  1  1  1  1  1  1  1  1  1  1  1  1  1  1  1  1  1  1  1
CENTRE ASSIGNMENTS    1  1  1  1  1  1  1  1  1  1  1  1  1  1  1  1  1  1  1  1
CENTRE ASSIGNMENTS    1  1  1  1  1  1  1  1  1  1  1  1  2  2  2  2  2  2  2  2
CENTRE ASSIGNMENTS    2  2  2  2  2  2  2  2  2  2  2  2  2  2  2  2  2  2  2  2
CENTRE ASSIGNMENTS    2  2  2  2  2  2  2  2  2  2  2  2  2  2  2  2  2  2  2  2
CENTRE ASSIGNMENTS    2  2  2  2  2  2  2  2  2  2  2  2  2  2  2  2  2  2  2  2
CENTRE ASSIGNMENTS    2  2  2  2  2  2  2  2  2  2  2  2  2  2  2  2  2  2  2  2
CENTRE ASSIGNMENTS    2  2  2  2  2  2  2  2  2  2  2  2  2  2  2  2  2  2  2  2
CENTRE ASSIGNMENTS    2  2  2  2  2  2  3  3  3  3  3  3  3  3  3  3  3  3  3  3
CENTRE ASSIGNMENTS    3  3  3  3  3  3  3  3  3  3  3  3  3  4  4  4  4  4  4  4
CENTRE ASSIGNMENTS    4  4  4  4  4  4  4  4  4  4  4  4  4  4  4  4  4  4  4  4
TYPE ASSIGNMENTS      1  1  1  1  1  1  1  1  1  1  1  1  1  1  1  1  2  2  2  3
TYPE ASSIGNMENTS      3  3  4  4  4  2  3  4  2  3  4  2  3  4  5  6  7  8  9 10
TYPE ASSIGNMENTS      5  6  7  8  9 10  5  6  7  8  9 10 11 12 13 17 14 15 18 19
TYPE ASSIGNMENTS     16 20 11 12 13 17 14 15 18 19 16 20  1  1  1  1  1  1  1  1
TYPE ASSIGNMENTS      1  1  1  1  1  1  1  1  1  1  1  1  1  1  1  1  1  1  1  1
TYPE ASSIGNMENTS      1  1  1  2  2  2  2  2  2  3  3  3  3  3  3  4  4  4  4  4
TYPE ASSIGNMENTS      4  2  2  2  2  2  2  3  3  3  3  3  3  4  4  4  4  4  4  2
TYPE ASSIGNMENTS      3  4  2  3  4  2  3  4  5  6  7  8  9 10  5  6  7  8  9 10
TYPE ASSIGNMENTS      5  6  7  8  9 10 11 12 13 17 14 15 18 19 16 20 11 12 13 17
TYPE ASSIGNMENTS     14 15 18 19 16 20  1  1  1  1  1  1  2  3  4  2  3  4  2  3
TYPE ASSIGNMENTS      4  5  6  7  8  9 10  5  6  7  8  9 10  1  1  1  1  1  1  2
TYPE ASSIGNMENTS      3  4  2  3  4  2  3  4  5  6  7  8  9 10  5  6  7  8  9 10
EXPONENTS  0.8236000D+04 0.1235000D+04 0.2808000D+03 0.7927000D+02 0.2559000D+02
EXPONENTS  0.8997000D+01 0.3319000D+01 0.2808000D+03 0.7927000D+02 0.2559000D+02
EXPONENTS  0.8997000D+01 0.3319000D+01 0.3643000D+00 0.9059000D+00 0.1285000D+00
EXPONENTS  0.4402000D-01 0.1871000D+02 0.4133000D+01 0.1200000D+01 0.1871000D+02
EXPONENTS  0.4133000D+01 0.1200000D+01 0.1871000D+02 0.4133000D+01 0.1200000D+01
EXPONENTS  0.3827000D+00 0.3827000D+00 0.3827000D+00 0.1209000D+00 0.1209000D+00
EXPONENTS  0.1209000D+00 0.3569000D-01 0.3569000D-01 0.3569000D-01 0.1097000D+01
EXPONENTS  0.1097000D+01 0.1097000D+01 0.1097000D+01 0.1097000D+01 0.1097000D+01
EXPONENTS  0.3180000D+00 0.3180000D+00 0.3180000D+00 0.3180000D+00 0.3180000D+00
EXPONENTS  0.3180000D+00 0.1000000D+00 0.1000000D+00 0.1000000D+00 0.1000000D+00
EXPONENTS  0.1000000D+00 0.1000000D+00 0.7610000D+00 0.7610000D+00 0.7610000D+00
EXPONENTS  0.7610000D+00 0.7610000D+00 0.7610000D+00 0.7610000D+00 0.7610000D+00
EXPONENTS  0.7610000D+00 0.7610000D+00 0.2680000D+00 0.2680000D+00 0.2680000D+00
EXPONENTS  0.2680000D+00 0.2680000D+00 0.2680000D+00 0.2680000D+00 0.2680000D+00
EXPONENTS  0.2680000D+00 0.2680000D+00 0.3741000D+06 0.5605000D+05 0.1276000D+05
EXPONENTS  0.3615000D+04 0.1183000D+04 0.4288000D+03 0.1678000D+03 0.6947000D+02
EXPONENTS  0.2984000D+02 0.1272000D+02 0.5244000D+01 0.3615000D+04 0.1183000D+04
EXPONENTS  0.4288000D+03 0.1678000D+03 0.6947000D+02 0.2984000D+02 0.1272000D+02
EXPONENTS  0.5244000D+01 0.2219000D+01 0.1183000D+04 0.1678000D+03 0.6947000D+02
EXPONENTS  0.2984000D+02 0.1272000D+02 0.5244000D+01 0.2219000D+01 0.3490000D+00
EXPONENTS  0.7767000D+00 0.1322000D+00 0.4970000D-01 0.5744000D+03 0.1358000D+03
EXPONENTS  0.4319000D+02 0.1587000D+02 0.6208000D+01 0.2483000D+01 0.5744000D+03
EXPONENTS  0.1358000D+03 0.4319000D+02 0.1587000D+02 0.6208000D+01 0.2483000D+01
EXPONENTS  0.5744000D+03 0.1358000D+03 0.4319000D+02 0.1587000D+02 0.6208000D+01
EXPONENTS  0.2483000D+01 0.1358000D+03 0.4319000D+02 0.1587000D+02 0.6208000D+01
EXPONENTS  0.2483000D+01 0.3229000D+00 0.1358000D+03 0.4319000D+02 0.1587000D+02
EXPONENTS  0.6208000D+01 0.2483000D+01 0.3229000D+00 0.1358000D+03 0.4319000D+02
EXPONENTS  0.1587000D+02 0.6208000D+01 0.2483000D+01 0.3229000D+00 0.8688000D+00
EXPONENTS  0.8688000D+00 0.8688000D+00 0.1098000D+00 0.1098000D+00 0.1098000D+00
EXPONENTS  0.3510000D-01 0.3510000D-01 0.3510000D-01 0.2690000D+00 0.2690000D+00
EXPONENTS  0.2690000D+00 0.2690000D+00 0.2690000D+00 0.2690000D+00 0.8190000D+00
EXPONENTS  0.8190000D+00 0.8190000D+00 0.8190000D+00 0.8190000D+00 0.8190000D+00
EXPONENTS  0.1010000D+00 0.1010000D+00 0.1010000D+00 0.1010000D+00 0.1010000D+00
EXPONENTS  0.1010000D+00 0.5570000D+00 0.5570000D+00 0.5570000D+00 0.5570000D+00
EXPONENTS  0.5570000D+00 0.5570000D+00 0.5570000D+00 0.5570000D+00 0.5570000D+00
EXPONENTS  0.5570000D+00 0.2180000D+00 0.2180000D+00 0.2180000D+00 0.2180000D+00
EXPONENTS  0.2180000D+00 0.2180000D+00 0.2180000D+00 0.2180000D+00 0.2180000D+00
EXPONENTS  0.2180000D+00 0.3387000D+02 0.5095000D+01 0.1159000D+01 0.3258000D+00
EXPONENTS  0.1027000D+00 0.2526000D-01 0.1407000D+01 0.1407000D+01 0.1407000D+01
EXPONENTS  0.3880000D+00 0.3880000D+00 0.3880000D+00 0.1020000D+00 0.1020000D+00
EXPONENTS  0.1020000D+00 0.1057000D+01 0.1057000D+01 0.1057000D+01 0.1057000D+01
EXPONENTS  0.1057000D+01 0.1057000D+01 0.2470000D+00 0.2470000D+00 0.2470000D+00
EXPONENTS  0.2470000D+00 0.2470000D+00 0.2470000D+00 0.3387000D+02 0.5095000D+01
EXPONENTS  0.1159000D+01 0.3258000D+00 0.1027000D+00 0.2526000D-01 0.1407000D+01
EXPONENTS  0.1407000D+01 0.1407000D+01 0.3880000D+00 0.3880000D+00 0.3880000D+00
EXPONENTS  0.1020000D+00 0.1020000D+00 0.1020000D+00 0.1057000D+01 0.1057000D+01
EXPONENTS  0.1057000D+01 0.1057000D+01 0.1057000D+01 0.1057000D+01 0.2470000D+00
EXPONENTS  0.2470000D+00 0.2470000D+00 0.2470000D+00 0.2470000D+00 0.2470000D+00
MO    1     MO 0.0        OCC NO =    2.0000337  ORB. ENERGY =    0.000000
 -0.69051885D-07 -0.12872662D-06 -0.21756553D-06 -0.32704157D-06 -0.40171200D-06
 -0.33903075D-06 -0.12748442D-06  0.54224114D-10  0.40529166D-09  0.15146675D-08
  0.42256864D-08  0.56612547D-08 -0.66848862D-08 -0.24392917D-07  0.22825764D-06
  0.10494137D-07 -0.78010276D-05 -0.73139592D-05 -0.52079747D-05 -0.14389654D-02
 -0.13491215D-02 -0.96065491D-03 -0.25011021D-07 -0.23449422D-07 -0.16697385D-07
 -0.32433398D-05 -0.59821249D-03  0.13839235D-08  0.87327939D-05  0.16108891D-02
 -0.37435374D-07  0.16074814D-06  0.29652595D-04 -0.34962314D-09  0.16834699D-07
 -0.55153083D-08 -0.11319390D-07  0.24939032D-05 -0.57628078D-05 -0.10629810D-02
 -0.27125434D-07  0.15153126D-07  0.11972308D-07 -0.28645224D-05  0.28427080D-06
  0.52396986D-04 -0.84135319D-08  0.35438886D-08  0.48696432D-08 -0.17754746D-05
 -0.11654668D-05 -0.21499558D-03  0.10547257D-05  0.16675709D-03  0.70174472D-08
  0.60250506D-06  0.19453020D-03 -0.17452096D-07 -0.37666821D-05 -0.69480147D-03
 -0.36002451D-08 -0.23033075D-05 -0.66629307D-06 -0.81254779D-04  0.77774167D-09
  0.11071550D-07 -0.12289793D-03  0.13547394D-07  0.19878076D-05  0.36666226D-03
 -0.15880619D-07  0.20995390D-05  0.52504445D-06  0.98162347D-06  0.16965371D-05
  0.27440789D-05  0.41475834D-05  0.57120811D-05  0.66767272D-05  0.57704791D-05
  0.26931127D-05  0.36485767D-06 -0.26686216D-08  0.65918016D-08  0.84736946D-07
  0.30910820D-06  0.10429234D-05  0.22907278D-05  0.29589954D-05 -0.47553574D-06
 -0.39891797D-05 -0.21892104D-05  0.32629541D-10  0.37167076D-09  0.77172248D-09
  0.21220408D-08 -0.27514696D-09 -0.95949022D-08 -0.23931210D-07  0.19809909D-07
 -0.11130428D-06 -0.16084259D-07 -0.14861160D-08  0.52978130D-01  0.69504294D-01
  0.76231168D-01  0.62720709D-01  0.33062791D-01  0.86023164D-02  0.97722834D+01
  0.12820680D+02  0.14061511D+02  0.11569388D+02  0.60987235D+01  0.15867731D+01
 -0.87369324D-05 -0.11462358D-04 -0.12571727D-04 -0.10343638D-04 -0.54525778D-05
 -0.14186582D-05  0.52256321D-06  0.18757736D-04  0.29759619D-04  0.35338634D-04
  0.53476668D-05 -0.38919317D-04  0.96391265D-04  0.34600253D-02  0.54894169D-02
  0.65185142D-02  0.98642301D-03 -0.71790018D-02 -0.40538837D-09 -0.14551672D-07
 -0.23086592D-07 -0.27414619D-07 -0.41485545D-08  0.30192402D-07  0.36060975D-03
  0.66517643D-01 -0.71197536D-07 -0.31195188D-05 -0.57540446D-03  0.34773211D-08
 -0.14894476D-06 -0.27474542D-04  0.12081262D-09 -0.15913424D-08  0.78306156D-08
 -0.62392732D-08 -0.68241679D-06  0.41760861D-05  0.77029719D-03  0.87399842D-08
 -0.31981193D-08 -0.55418648D-08  0.99652516D-06 -0.58613125D-05 -0.10811636D-02
  0.99462884D-09 -0.57052861D-09 -0.42410023D-09  0.24554376D-06 -0.16246387D-06
 -0.29970945D-04  0.70931656D-06  0.14840897D-05  0.12635855D-08 -0.13945135D-05
  0.13082810D-03  0.33302853D-09 -0.73343620D-06 -0.13528037D-03 -0.41237851D-08
  0.55914680D-06 -0.12014790D-07  0.33704328D-04  0.72335594D-09  0.57221540D-06
 -0.22144819D-05  0.10878400D-08 -0.53617103D-06 -0.98898503D-04 -0.32579078D-08
  0.19623091D-06 -0.10704772D-03 -0.19306497D-03 -0.28467419D-03  0.13737010D-03
  0.23680938D-02  0.25548221D-04 -0.12940780D-05 -0.18501683D-04  0.26623500D-03
 -0.26068972D-06 -0.14225870D-04 -0.32497385D-03  0.28393763D-05  0.31405837D-03
  0.13271734D-03 -0.49136951D-04 -0.14473000D-03  0.19386695D-03 -0.32798634D-05
  0.43724482D-06 -0.85397499D-05  0.25280680D-04 -0.22493675D-04 -0.27870050D-05
 -0.80893127D-06 -0.20725187D-05 -0.11635415D-03  0.10704264D-03  0.19305581D-03
  0.28466068D-03 -0.13746043D-03 -0.23682571D-02 -0.25550899D-04  0.10935021D-05
 -0.18510957D-04 -0.26626369D-03  0.10638806D-06 -0.14236946D-04  0.32499885D-03
  0.56607056D-06  0.31407952D-03 -0.13272022D-03  0.49111236D-04  0.14476642D-03
 -0.19387765D-03 -0.12062836D-05 -0.52977254D-06 -0.85357434D-05 -0.25286540D-04
  0.22498026D-04  0.27885137D-05  0.22712000D-06  0.81103373D-06 -0.11635983D-03
MO    2     MO 0.0        OCC NO =    2.0000243  ORB. ENERGY =    0.000000
 -0.53358630D-01 -0.99471235D-01 -0.16811994D+00 -0.25271563D+00 -0.31041588D+00
 -0.26198005D+00 -0.98511342D-01 -0.88995780D-05 -0.66518832D-04 -0.24859606D-03
 -0.69354431D-03 -0.92915816D-03  0.10971625D-02 -0.42236569D-02 -0.55006841D-03
 -0.39513855D-04 -0.32368428D-05 -0.30347459D-05 -0.21609199D-05  0.35572456D-07
  0.33351439D-07  0.23748211D-07  0.24031519D-02  0.22531077D-02  0.16043469D-02
  0.13544867D-05 -0.33389280D-07  0.49307380D-04 -0.14370164D-05  0.45146451D-08
 -0.60511529D-03 -0.55553542D-09  0.55324196D-09 -0.47299639D-06  0.19000489D-03
 -0.14573608D-03 -0.44268812D-04 -0.36400734D-05 -0.34754720D-05  0.47637945D-07
  0.37919291D-04  0.14672506D-03 -0.18464435D-03  0.11799820D-05 -0.27930370D-06
  0.24288536D-07  0.11038085D-04  0.85501958D-04 -0.96540043D-04  0.80740640D-06
 -0.76260318D-06  0.67130166D-08 -0.50148815D-06 -0.40929649D-08  0.98941682D-05
  0.13139889D-05  0.30493416D-07 -0.17119580D-03  0.19047552D-06 -0.18214521D-07
  0.14151330D-03  0.33903165D-05 -0.15590544D-06 -0.22145414D-08  0.58665639D-04
  0.51429351D-06  0.10222699D-07  0.10696882D-04 -0.46577184D-07 -0.35790748D-08
 -0.18669380D-03 -0.21403713D-05 -0.12113978D+00 -0.22648302D+00 -0.39142997D+00
 -0.63312185D+00 -0.95694248D+00 -0.13179079D+01 -0.15404739D+01 -0.13313817D+01
 -0.62136277D+00 -0.84181021D-01  0.61571211D-03 -0.15085900D-02 -0.19392773D-01
 -0.70742048D-01 -0.23868192D+00 -0.52425259D+00 -0.67719134D+00  0.10883041D+00
  0.91295779D+00  0.50101946D+00 -0.12531203D-04 -0.14273820D-03 -0.29637595D-03
 -0.81495859D-03  0.10566874D-03  0.36848716D-02  0.91906550D-02 -0.76078911D-02
  0.27972331D-01  0.11460764D-02  0.42672811D-05  0.82576795D-02  0.10833606D-01
  0.11882121D-01  0.97762513D-02  0.51534838D-02  0.13408396D-02 -0.17604532D-04
 -0.23096145D-04 -0.25331472D-04 -0.20841972D-04 -0.10986703D-04 -0.28585334D-05
  0.66582272D+01  0.87352154D+01  0.95806408D+01  0.78826627D+01  0.41552916D+01
  0.10811287D+01  0.66466320D-07  0.23858505D-05  0.37852116D-05  0.44948227D-05
  0.68018515D-06 -0.49502601D-05 -0.17217189D-09 -0.61802185D-08 -0.98050716D-08
 -0.11643222D-07 -0.17619263D-08  0.12822970D-07  0.55924352D-04  0.20074399D-02
  0.31848537D-02  0.37819161D-02  0.57230359D-03 -0.41651183D-02  0.57152884D-04
 -0.12342135D-06  0.48629296D-01  0.10916055D-05 -0.96679264D-08 -0.64497327D-03
 -0.21954055D-07 -0.19498117D-09 -0.13878465D-05 -0.25513292D-03 -0.10219898D-03
  0.35733190D-03  0.16582643D-05 -0.55662707D-07  0.66750885D-09  0.35812660D-03
 -0.38146097D-03  0.23334368D-04 -0.80192680D-05 -0.73740832D-06 -0.20487032D-08
 -0.53389455D-05 -0.23226464D-04  0.28565410D-04 -0.19395508D-06 -0.35527724D-06
  0.22812056D-08  0.23740863D-06 -0.14214956D-08 -0.69448864D-04  0.16505297D-06
 -0.20655393D-08  0.20749586D-03 -0.87727886D-06  0.63300261D-08  0.85072933D-06
 -0.22406629D-05 -0.50524400D-07  0.71487201D-09 -0.19640868D-04 -0.96997874D-07
 -0.32653529D-09  0.25723882D-04  0.24857107D-06 -0.18180807D-08  0.33198722D-04
  0.81044200D-07 -0.22716119D-04 -0.40969456D-04 -0.60409439D-04 -0.39456414D-03
 -0.44562290D-03  0.30151686D-05  0.12551201D-05  0.20839880D-04  0.90671867D-04
 -0.28017101D-05  0.33980344D-04  0.24989919D-04 -0.79706304D-06  0.35891978D-04
 -0.12460249D-03 -0.10029016D-03  0.20166894D-04  0.80123262D-04  0.12131194D-05
  0.66314537D-06  0.13061909D-03 -0.31329837D-04  0.21810991D-04  0.95188467D-05
  0.88007938D-06 -0.10384144D-05 -0.64585570D-04 -0.22712469D-04 -0.40962872D-04
 -0.60399731D-04 -0.39449468D-03 -0.44558086D-03  0.30142616D-05  0.10290837D-05
 -0.20856160D-04  0.90701211D-04 -0.31702793D-05 -0.34027329D-04  0.24977941D-04
 -0.11862692D-05 -0.35902359D-04 -0.12461374D-03 -0.10029285D-03  0.20171466D-04
  0.80121383D-04  0.13990012D-05 -0.75326593D-06 -0.13060828D-03 -0.31335494D-04
  0.21821023D-04  0.95144709D-05  0.27230293D-06 -0.33814601D-06  0.64598199D-04
MO    3     MO 0.0        OCC NO =    2.0000101  ORB. ENERGY =    0.000000
 -0.15141807D+00 -0.28227378D+00 -0.47708115D+00 -0.71714195D+00 -0.88088044D+00
 -0.74343202D+00 -0.27954985D+00 -0.23221688D-04 -0.17356773D-03 -0.64866224D-03
 -0.18096667D-02 -0.24244544D-02  0.28628286D-02 -0.12247765D-01 -0.11541122D-03
 -0.10723618D-03 -0.12633565D-04 -0.11844770D-04 -0.84341821D-05  0.19181092D-06
  0.17983493D-06  0.12805319D-06  0.37168284D-02  0.34847629D-02  0.24813588D-02
  0.27083913D-05 -0.10450400D-06  0.55396870D-03 -0.67268331D-06 -0.32170527D-07
 -0.15667267D-03  0.12343074D-07 -0.33087202D-10 -0.38060768D-05  0.45311928D-03
 -0.44591866D-03 -0.72006211D-05 -0.97472055D-05 -0.81304368D-05  0.14792830D-06
 -0.11583148D-03 -0.32372044D-05  0.11906869D-03  0.12214296D-05  0.67638799D-06
  0.43454144D-07  0.12953711D-04  0.59390723D-04 -0.72344433D-04  0.50352471D-06
 -0.70693499D-06  0.55786335D-08 -0.14026923D-05 -0.18711733D-07  0.71472371D-04
  0.40921090D-05  0.87212002D-07 -0.44938506D-03  0.11596775D-06 -0.31076801D-07
  0.23496795D-03  0.74194843D-05 -0.37764670D-06 -0.33286010D-08  0.11878161D-03
  0.89850579D-06  0.21888702D-07 -0.22303525D-04  0.23443431D-06 -0.11902899D-07
 -0.33404132D-03 -0.33803422D-05  0.11207546D+00  0.20953636D+00  0.36214111D+00
  0.58574833D+00  0.88533899D+00  0.12192951D+01  0.14252075D+01  0.12317607D+01
  0.57486912D+00  0.77882152D-01 -0.56964128D-03  0.14084059D-02  0.18104916D-01
  0.66044131D-01  0.22283126D+00  0.48943744D+00  0.63221967D+00 -0.10160308D+00
 -0.85232908D+00 -0.46774720D+00  0.63423658D-05  0.72243489D-04  0.15000353D-03
  0.41247160D-03 -0.53481680D-04 -0.18650087D-02 -0.46516280D-02  0.38505503D-02
 -0.27764168D-01  0.11069714D-02  0.29061774D-04  0.22626306D-01  0.29684427D-01
  0.32557392D-01  0.26787242D-01  0.14120711D-01  0.36739433D-02 -0.13849640D-03
 -0.18169939D-03 -0.19928491D-03 -0.16396562D-03 -0.86433353D-04 -0.22488333D-04
  0.56958111D+01  0.74725802D+01  0.81958033D+01  0.67432600D+01  0.35546633D+01
  0.92485652D+00  0.13538343D-06  0.48596738D-05  0.77099942D-05  0.91553816D-05
  0.13854506D-05 -0.10083050D-04 -0.95949176D-09 -0.34441562D-07 -0.54642402D-07
 -0.64886176D-07 -0.98189887D-08  0.71460760D-07  0.36611060D-04  0.13141771D-02
  0.20849749D-02  0.24758437D-02  0.37466042D-03 -0.27267083D-02  0.16974689D-03
 -0.10430502D-05  0.43851471D-01  0.14843867D-05 -0.52569268D-08 -0.11641344D-03
 -0.35077807D-07 -0.57169622D-11  0.49724919D-06 -0.15129169D-03 -0.13811861D-03
  0.28941030D-03  0.14288248D-06  0.55554103D-06 -0.12431145D-07 -0.11408567D-03
  0.47185736D-03 -0.35777169D-03  0.63532554D-05  0.28796651D-05 -0.22230507D-07
  0.62418209D-05  0.20936460D-05 -0.83354669D-05 -0.44978268D-07 -0.42781965D-06
  0.16583672D-08  0.63830081D-06 -0.13328744D-08 -0.43863890D-04 -0.10754685D-06
 -0.13087662D-07  0.20879120D-03 -0.18073556D-05  0.17086286D-07 -0.77199524D-04
 -0.31010135D-05 -0.71832505D-07  0.12158672D-09 -0.12966792D-04 -0.23424944D-07
  0.37083501D-09  0.19695736D-04  0.23892246D-06 -0.73559518D-09  0.19204639D-04
 -0.53452481D-08  0.39062067D-04  0.70450046D-04  0.10387855D-03 -0.35972675D-03
  0.52777339D-05  0.70016808D-05  0.33540788D-05  0.17296466D-03  0.20431578D-03
 -0.39256891D-05  0.12720293D-03  0.17034131D-03 -0.18285842D-06  0.74290929D-04
 -0.57669192D-04 -0.23413368D-03  0.11041296D-03  0.12372073D-03  0.50361106D-05
  0.27218095D-05  0.44849600D-03 -0.63972063D-04  0.95001515D-05  0.54471911D-04
  0.11623570D-05 -0.10713072D-05 -0.58259648D-04  0.39080782D-04  0.70483800D-04
  0.10392832D-03 -0.35951612D-03  0.54296535D-05  0.70032202D-05  0.14785886D-05
 -0.17303236D-03  0.20438246D-03 -0.53052145D-05 -0.12732280D-03  0.17036576D-03
 -0.98841652D-06 -0.74318669D-04 -0.57665599D-04 -0.23416197D-03  0.11044042D-03
  0.12372155D-03  0.24357184D-05 -0.21414095D-05 -0.44850298D-03 -0.63984012D-04
  0.95144984D-05  0.54469514D-04  0.43094663D-06 -0.43962109D-06  0.58270926D-04
MO    4     MO 0.0        OCC NO =    2.0000048  ORB. ENERGY =    0.000000
  0.28553559D+00  0.53229587D+00  0.89965254D+00  0.13523456D+01  0.16611143D+01
  0.14019219D+01  0.52715923D+00  0.30289138D-04  0.22639254D-03  0.84608062D-03
  0.23604332D-02  0.31623297D-02 -0.37341217D-02  0.23598545D-01 -0.50926207D-03
 -0.42865889D-05 -0.62086791D-04 -0.58210313D-04 -0.41449211D-04  0.34275000D-07
  0.32134991D-07  0.22882028D-07  0.42387475D-02  0.39740952D-02  0.28297926D-02
 -0.18963922D-04  0.34279198D-06 -0.37381284D-03 -0.15029181D-05  0.11560986D-07
 -0.30649535D-03 -0.41172224D-08 -0.10494854D-08 -0.39104322D-05 -0.11862117D-02
  0.61313762D-03  0.57307413D-03  0.19508195D-04 -0.63336224D-05 -0.19074485D-06
  0.18491450D-03  0.11327489D-03 -0.29818939D-03 -0.77847431D-06  0.15903414D-04
 -0.18005431D-06  0.88139628D-05  0.37091104D-04 -0.45905067D-04  0.30673277D-06
 -0.14457524D-05  0.10915743D-08  0.56863733D-05  0.45548031D-07  0.41351588D-03
 -0.87015161D-05 -0.23801618D-06  0.19113509D-03 -0.83576038D-05  0.10137209D-06
 -0.14316827D-02 -0.17593598D-04 -0.94559609D-06  0.22577991D-07 -0.67374343D-04
 -0.24289824D-05 -0.13062548D-07 -0.22486603D-04  0.52657706D-05 -0.54671425D-07
  0.22460963D-03  0.26795388D-05  0.36834060D-01  0.68864986D-01  0.11901916D+00
  0.19250859D+00  0.29097029D+00  0.40072634D+00  0.46840029D+00  0.40482320D+00
  0.18893310D+00  0.25596289D-01 -0.18721495D-03  0.46198477D-03  0.59387678D-02
  0.21663771D-01  0.73093027D-01  0.16054508D+00  0.20738046D+00 -0.33327804D-01
 -0.27958066D+00 -0.15343026D+00  0.18363128D-05  0.20916745D-04  0.43430702D-04
  0.11942340D-03 -0.15484615D-04 -0.53997823D-03 -0.13467915D-02  0.11148545D-02
 -0.95111117D-02  0.13095248D-02  0.10612680D-03  0.25654320D+00  0.33657009D+00
  0.36914454D+00  0.30372101D+00  0.16010445D+00  0.41656166D-01 -0.13918636D-02
 -0.18260459D-02 -0.20027771D-02 -0.16478247D-02 -0.86863949D-03 -0.22600366D-03
  0.42405543D+01  0.55633661D+01  0.61018086D+01  0.50203843D+01  0.26464612D+01
  0.68855941D+00  0.13616427D-05  0.48877024D-04  0.77544624D-04  0.92081863D-04
  0.13934413D-04 -0.10141205D-03 -0.78665764D-08 -0.28237573D-06 -0.44799617D-06
 -0.53198171D-06 -0.80502854D-07  0.58588469D-06  0.31428273D-04  0.11281377D-02
  0.17898187D-02  0.21253548D-02  0.32162220D-03 -0.23407061D-02  0.19796299D-02
 -0.10757486D-04  0.33072917D-01  0.38115737D-05 -0.10026284D-08 -0.34758391D-03
 -0.44022296D-06  0.30050921D-08 -0.46898535D-05 -0.13515506D-03 -0.23117789D-03
  0.36633295D-03 -0.10411887D-05  0.15071721D-04 -0.11007321D-06  0.98549925D-04
  0.33884690D-03 -0.43739682D-03  0.26055848D-05 -0.97464976D-05  0.67073331D-07
 -0.10357163D-04 -0.12203722D-04  0.22560885D-04 -0.20058342D-07 -0.68225977D-06
 -0.64546225D-09  0.30996387D-05  0.11610545D-07  0.53932469D-04 -0.20492863D-05
 -0.73651530D-07 -0.27970350D-04 -0.72496298D-05  0.38819896D-07 -0.13382706D-03
 -0.11479253D-05  0.19509114D-06 -0.59215748D-08 -0.36884610D-04  0.79677367D-06
  0.54266881D-08  0.28885734D-04 -0.13820471D-05  0.12338036D-07  0.81768095D-04
  0.57345631D-06 -0.30780350D-03 -0.55513628D-03 -0.81854812D-03 -0.53846631D-03
 -0.47481896D-03 -0.71187533D-05 -0.12863916D-04 -0.82602491D-03 -0.37166638D-03
  0.21629548D-05 -0.40909412D-03 -0.27022187D-03 -0.21736659D-05 -0.35179675D-04
 -0.10047615D-03  0.27157103D-03 -0.43492666D-03  0.16335563D-03 -0.11073205D-04
 -0.10120617D-04 -0.94962460D-03  0.49488750D-04 -0.24625412D-04 -0.24863338D-04
 -0.14616140D-05  0.12089722D-05 -0.78895759D-04 -0.30786457D-03 -0.55524643D-03
 -0.81871053D-03 -0.53888897D-03 -0.47494621D-03 -0.71187573D-05 -0.39079917D-05
  0.82622556D-03 -0.37175234D-03  0.65998919D-05  0.40929590D-03 -0.27046256D-03
 -0.17924843D-05  0.35223447D-04 -0.10049442D-03  0.27160498D-03 -0.43493073D-03
  0.16332576D-03 -0.42488469D-05  0.17615458D-06  0.94977583D-03  0.49511885D-04
 -0.24645021D-04 -0.24866864D-04 -0.14597032D-06  0.20644443D-05  0.78921197D-04
MO    5     MO 0.0        OCC NO =    2.0000043  ORB. ENERGY =    0.000000
 -0.71444067D-02 -0.13318613D-01 -0.22510271D-01 -0.33837136D-01 -0.41562861D-01
 -0.35077589D-01 -0.13190089D-01 -0.76169428D-06 -0.56931928D-05 -0.21276762D-04
 -0.59358852D-04 -0.79524496D-04  0.93903602D-04 -0.59161233D-03  0.20730996D-04
 -0.11030860D-06 -0.29436567D-02 -0.27598653D-02 -0.19651885D-02  0.15966071D-04
  0.14969207D-04  0.10658967D-04 -0.11208270D-03 -0.10508466D-03 -0.74826536D-04
 -0.49187409D-03  0.26605324D-05  0.11780908D-04 -0.49186367D-04  0.26652134D-06
  0.14819941D-04 -0.19074937D-06  0.10490283D-08  0.30687171D-06  0.30011632D-04
 -0.16583239D-04 -0.13428393D-04 -0.50579900D-06 -0.66443626D-03  0.36080646D-05
 -0.50376812D-05 -0.19797678D-05  0.70174490D-05  0.10384553D-07  0.61489713D-03
 -0.33314393D-05 -0.53628492D-06 -0.84867933D-06  0.13849642D-05 -0.10688970D-08
 -0.53793966D-04  0.29150696D-06  0.83738736D-04 -0.24118359D-06 -0.10749824D-04
  0.44490917D-04 -0.87820344D-06 -0.62365077D-05 -0.29570712D-03  0.16017542D-05
  0.38485979D-04  0.51148635D-06 -0.33402653D-04  0.76665500D-06  0.17548603D-05
 -0.14146042D-03 -0.99048748D-06  0.79793539D-06  0.24166837D-03 -0.13094775D-05
 -0.60625164D-05 -0.71185799D-07 -0.11306297D-02 -0.21138261D-02 -0.36533198D-02
 -0.59090942D-02 -0.89313982D-02 -0.12300384D-01 -0.14377652D-01 -0.12426139D-01
 -0.57993436D-02 -0.78568381D-03  0.57466046D-05 -0.14199738D-04 -0.18253620D-03
 -0.66586582D-03 -0.22466148D-02 -0.49345742D-02 -0.63741238D-02  0.10243759D-02
  0.85932965D-02  0.47158903D-02 -0.50438107D-07 -0.57452140D-06 -0.11929135D-05
 -0.32802092D-05  0.42531680D-06  0.14831612D-04  0.36992397D-04 -0.30621770D-04
  0.29323555D-03 -0.46152679D-04 -0.43111994D-05  0.97120041D+01  0.12741597D+02
  0.13974774D+02  0.11498023D+02  0.60611042D+01  0.15769853D+01 -0.52651298D-01
 -0.69075509D-01 -0.75760884D-01 -0.62333773D-01 -0.32858821D-01 -0.85492471D-02
 -0.13081273D+00 -0.17161887D+00 -0.18822876D+00 -0.15486895D+00 -0.81638105D-01
 -0.21240699D-01  0.51711119D-04  0.18562033D-02  0.29449130D-02  0.34969938D-02
  0.52918734D-03 -0.38513263D-02 -0.28032656D-06 -0.10062499D-04 -0.15964407D-04
 -0.18957243D-04 -0.28687306D-05  0.20878083D-04 -0.96900567D-06 -0.34783070D-04
 -0.55184212D-04 -0.65529559D-04 -0.99163496D-05  0.72169334D-04  0.75239986D-01
 -0.40789505D-03 -0.10297251D-02  0.17205776D-03 -0.93281652D-06  0.12252593D-04
 -0.15196141D-04  0.82373574D-07  0.11830096D-06  0.41978093D-05  0.69491033D-05
 -0.11146913D-04  0.29589728D-07  0.62509201D-03 -0.33882247D-05 -0.26511246D-05
 -0.10858346D-04  0.13509470D-04 -0.86787374D-07 -0.40062723D-03  0.21717074D-05
  0.41787956D-06  0.32572846D-06 -0.74360802D-06 -0.17222960D-08 -0.34023662D-04
  0.18446515D-06  0.12996196D-03  0.39918717D-06 -0.93531880D-06 -0.73623962D-04
 -0.29121419D-05 -0.25615891D-06 -0.31626192D-03  0.17145804D-05  0.30621153D-05
  0.31885355D-07  0.67222775D-05 -0.19044959D-06  0.96430594D-06  0.35134480D-04
  0.27163664D-06 -0.82119172D-06 -0.55301312D-04  0.29971214D-06 -0.20717261D-05
 -0.12129313D-07  0.85385797D-05  0.15399680D-04  0.22706819D-04  0.12475881D-04
  0.15410626D-04  0.32190853D-06 -0.12741927D-03  0.21759275D-04  0.12564564D-04
  0.16794830D-03  0.10711981D-04  0.27896111D-05 -0.57044867D-04  0.19528563D-05
  0.23114344D-05 -0.62423127D-05  0.10777862D-04 -0.45355494D-05  0.14075755D-03
 -0.57116306D-04  0.25245459D-04 -0.12074151D-05  0.98879811D-06  0.21861703D-06
 -0.38157097D-04  0.11111437D-03  0.79919199D-06  0.85401545D-05  0.15402520D-04
  0.22711007D-04  0.12486245D-04  0.15412390D-04  0.32195196D-06 -0.12765674D-03
 -0.20379350D-04  0.12566771D-04  0.16785363D-03 -0.12538573D-04  0.27958099D-05
 -0.57071171D-04 -0.13345315D-05  0.23121399D-05 -0.77662824D-05  0.12300973D-04
 -0.45346902D-05 -0.14037961D-03 -0.57379620D-04 -0.24627567D-04 -0.79390831D-06
  0.57511315D-06  0.21879516D-06  0.38197994D-04  0.11111007D-03 -0.20049844D-05
MO    6     MO 0.0        OCC NO =    2.0000000  ORB. ENERGY =    0.000000
 -0.81022917D-04 -0.15104304D-03 -0.25528332D-03 -0.38373844D-03 -0.47135394D-03
 -0.39780610D-03 -0.14958548D-03  0.49261570D-07  0.36819971D-06  0.13760464D-05
  0.38389552D-05  0.51431416D-05 -0.60730912D-05  0.16607668D-05 -0.30761443D-04
 -0.72430414D-05 -0.10703602D-07 -0.10035307D-07 -0.71457367D-08  0.20298585D-09
  0.19031213D-09  0.13551358D-09  0.14564129D-04  0.13654797D-04  0.97230289D-05
  0.12963012D-08  0.10274216D-08 -0.38213978D-04  0.77569036D-07 -0.19166460D-08
  0.41046349D-05  0.87262784D-09 -0.35855822D-10 -0.38995850D-06  0.14548281D-05
  0.89094346D-05 -0.10364263D-04  0.80821324D-07  0.35071674D-07 -0.11887652D-08
  0.63082201D-05  0.43045314D-05 -0.10612751D-04 -0.21726368D-07 -0.48842712D-08
  0.98519351D-10  0.63676175D-06 -0.91538714D-06  0.27862540D-06 -0.16828802D-07
  0.18853266D-07 -0.24205855D-09  0.20533249D-07  0.32085479D-09  0.21236321D-05
 -0.39029352D-07 -0.10368592D-08  0.38974650D-06 -0.22570394D-07  0.74294857D-10
 -0.67606429D-05 -0.77526920D-07 -0.11486969D-07  0.99367406D-10 -0.38227045D-06
  0.26544675D-07  0.58347811D-09  0.61674837D-06  0.79162312D-08 -0.88158033D-09
  0.53006300D-06 -0.94437690D-09  0.58266944D+00  0.10893592D+01  0.18827365D+01
  0.30452487D+01  0.46027915D+01  0.63389968D+01  0.74095154D+01  0.64038042D+01
  0.29886888D+01  0.40490175D+00 -0.29615097D-02 -0.29342982D-04 -0.37720109D-03
 -0.13759753D-02 -0.46425067D-02 -0.10197028D-01 -0.13171779D-01  0.21168169D-02
  0.17757578D-01  0.97451296D-02  0.19754241D-06  0.22501309D-05  0.46720829D-05
  0.12847041D-04 -0.16657664D-05 -0.58088470D-04 -0.14488187D-03  0.11993111D-03
  0.13966862D-04 -0.17650523D-04  0.32764134D-05 -0.40587276D-05 -0.53248198D-05
 -0.58401749D-05 -0.48051200D-05 -0.25329861D-05 -0.65903533D-06  0.11705070D-07
  0.15356387D-07  0.16842633D-07  0.13857611D-07  0.73049444D-08  0.19006091D-08
  0.11195318D-01  0.14687620D-01  0.16109141D-01  0.13254116D-01  0.69868162D-02
  0.18178382D-02 -0.34922353D-10 -0.12535599D-08 -0.19888042D-08 -0.23616440D-08
 -0.35737899D-09  0.26009373D-08 -0.12789403D-10 -0.45908368D-09 -0.72834777D-09
 -0.86489064D-09 -0.13088075D-09  0.95252557D-09  0.70486855D-06  0.25301701D-04
  0.40141784D-04  0.47667137D-04  0.72132942D-05 -0.52497003D-04 -0.72449493D-07
 -0.44525800D-09  0.16289349D-03 -0.43467536D-07  0.75503963D-09  0.52686519D-05
 -0.18869902D-09  0.10935056D-10 -0.33982404D-07 -0.58154795D-05 -0.37581570D-05
  0.95736365D-05  0.22308959D-07  0.28860883D-07 -0.94131035D-09  0.91715632D-05
 -0.15973269D-04  0.68017055D-05 -0.27264320D-06 -0.10260275D-06  0.61505498D-09
  0.59383863D-06  0.49062807D-06 -0.10844667D-05 -0.11190920D-08  0.92025760D-08
 -0.17010474D-09  0.30129447D-08  0.59920904D-11 -0.69854269D-05 -0.11734588D-07
 -0.21513625D-09  0.12190626D-04  0.26957537D-08  0.19715998D-09  0.87656547D-05
 -0.37138427D-07  0.93107193D-09 -0.40380772D-10 -0.58991982D-07  0.21463510D-08
 -0.11799323D-10 -0.80474995D-08 -0.49395667D-08  0.13294164D-09  0.18502345D-06
  0.20924920D-08 -0.12364147D-05 -0.22299248D-05 -0.32880228D-05  0.30151927D-05
  0.17400171D-04  0.23754486D-06 -0.42660546D-07 -0.58378575D-05 -0.14819764D-05
 -0.36688661D-07  0.10006878D-05 -0.14122849D-05  0.31174236D-07  0.75759800D-06
  0.25176706D-05 -0.24405067D-05 -0.16086640D-05  0.40491707D-05 -0.32093952D-07
 -0.23141953D-07 -0.20739013D-05 -0.38879322D-07 -0.43399461D-06  0.47287393D-06
  0.23738692D-08 -0.29662105D-07 -0.18455350D-05 -0.12365380D-05 -0.22301472D-05
 -0.32883507D-05  0.30157071D-05  0.17403235D-04  0.23763813D-06  0.20633449D-07
  0.58380775D-05 -0.14813852D-05 -0.47542725D-07 -0.10007651D-05 -0.14154156D-05
  0.22958840D-07 -0.75806265D-06  0.25180836D-05 -0.24401759D-05 -0.16083056D-05
  0.40484814D-05  0.50122027D-07 -0.66879818D-09  0.20755156D-05 -0.38896126D-07