 h2cs-wavefunction
GAUSSIAN            142 MOL ORBITALS    240 PRIMITIVES        4 NUCLEI
  C    1    (CENTRE  1)   0.00000000  0.00000000 -1.04934791  CHARGE =  6.0
  S    2    (CENTRE  2)   0.00000000  0.00000000  2.00381646  CHARGE = 16.0
  H    3    (CENTRE  3)   0.00000000 -1.72395936 -2.13348569  CHARGE =  1.0
  H    4    (CENTRE  4)   0.00000000  1.74285662 -2.13348569  CHARGE =  1.0
CENTRE ASSIGNMENTS    1  1  1  1  1  1  1  1  1  1  1  1  1  1  1  1  1  1  1  1
CENTRE ASSIGNMENTS    1  1  1  1  1  1  1  1  1  1  1  1  1  1  1  1  1  1  1  1
CENTRE ASSIGNMENTS    1  1  1  1  1  1  1  1  1  1  1  1  1  1  1  1  1  1  1  1
CENTRE ASSIGNMENTS    1  1  1  1  1  1  1  1  1  1  1  1  2  2  2  2  2  2  2  2
CENTRE ASSIGNMENTS    2  2  2  2  2  2  2  2  2  2  2  2  2  2  2  2  2  2  2  2
CENTRE ASSIGNMENTS    2  2  2  2  2  2  2  2  2  2  2  2  2  2  2  2  2  2  2  2
CENTRE ASSIGNMENTS    2  2  2  2  2  2  2  2  2  2  2  2  2  2  2  2  2  2  2  2
CENTRE ASSIGNMENTS    2  2  2  2  2  2  2  2  2  2  2  2  2  2  2  2  2  2  2  2
CENTRE ASSIGNMENTS    2  2  2  2  2  2  2  2  2  2  2  2  2  2  2  2  2  2  2  2
CENTRE ASSIGNMENTS    2  2  2  2  2  2  3  3  3  3  3  3  3  3  3  3  3  3  3  3
CENTRE ASSIGNMENTS    3  3  3  3  3  3  3  3  3  3  3  3  3  4  4  4  4  4  4  4
CENTRE ASSIGNMENTS    4  4  4  4  4  4  4  4  4  4  4  4  4  4  4  4  4  4  4  4
TYPE ASSIGNMENTS      1  1  1  1  1  1  1  1  1  1  1  1  1  1  1  1  2  2  2  3
TYPE ASSIGNMENTS      3  3  4  4  4  2  3  4  2  3  4  2  3  4  5  6  7  8  9 10
TYPE ASSIGNMENTS      5  6  7  8  9 10  5  6  7  8  9 10 11 12 13 17 14 15 18 19
TYPE ASSIGNMENTS     16 20 11 12 13 17 14 15 18 19 16 20  1  1  1  1  1  1  1  1
TYPE ASSIGNMENTS      1  1  1  1  1  1  1  1  1  1  1  1  1  1  1  1  1  1  1  1
TYPE ASSIGNMENTS      1  1  1  2  2  2  2  2  2  3  3  3  3  3  3  4  4  4  4  4
TYPE ASSIGNMENTS      4  2  2  2  2  2  2  3  3  3  3  3  3  4  4  4  4  4  4  2
TYPE ASSIGNMENTS      3  4  2  3  4  2  3  4  5  6  7  8  9 10  5  6  7  8  9 10
TYPE ASSIGNMENTS      5  6  7  8  9 10 11 12 13 17 14 15 18 19 16 20 11 12 13 17
TYPE ASSIGNMENTS     14 15 18 19 16 20  1  1  1  1  1  1  2  3  4  2  3  4  2  3
TYPE ASSIGNMENTS      4  5  6  7  8  9 10  5  6  7  8  9 10  1  1  1  1  1  1  2
TYPE ASSIGNMENTS      3  4  2  3  4  2  3  4  5  6  7  8  9 10  5  6  7  8  9 10
EXPONENTS  0.8236000D+04 0.1235000D+04 0.2808000D+03 0.7927000D+02 0.2559000D+02
EXPONENTS  0.8997000D+01 0.3319000D+01 0.2808000D+03 0.7927000D+02 0.2559000D+02
EXPONENTS  0.8997000D+01 0.3319000D+01 0.3643000D+00 0.9059000D+00 0.1285000D+00
EXPONENTS  0.4402000D-01 0.1871000D+02 0.4133000D+01 0.1200000D+01 0.1871000D+02
EXPONENTS  0.4133000D+01 0.1200000D+01 0.1871000D+02 0.4133000D+01 0.1200000D+01
EXPONENTS  0.3827000D+00 0.3827000D+00 0.3827000D+00 0.1209000D+00 0.1209000D+00
EXPONENTS  0.1209000D+00 0.3569000D-01 0.3569000D-01 0.3569000D-01 0.1097000D+01
EXPONENTS  0.1097000D+01 0.1097000D+01 0.1097000D+01 0.1097000D+01 0.1097000D+01
EXPONENTS  0.3180000D+00 0.3180000D+00 0.3180000D+00 0.3180000D+00 0.3180000D+00
EXPONENTS  0.3180000D+00 0.1000000D+00 0.1000000D+00 0.1000000D+00 0.1000000D+00
EXPONENTS  0.1000000D+00 0.1000000D+00 0.7610000D+00 0.7610000D+00 0.7610000D+00
EXPONENTS  0.7610000D+00 0.7610000D+00 0.7610000D+00 0.7610000D+00 0.7610000D+00
EXPONENTS  0.7610000D+00 0.7610000D+00 0.2680000D+00 0.2680000D+00 0.2680000D+00
EXPONENTS  0.2680000D+00 0.2680000D+00 0.2680000D+00 0.2680000D+00 0.2680000D+00
EXPONENTS  0.2680000D+00 0.2680000D+00 0.3741000D+06 0.5605000D+05 0.1276000D+05
EXPONENTS  0.3615000D+04 0.1183000D+04 0.4288000D+03 0.1678000D+03 0.6947000D+02
EXPONENTS  0.2984000D+02 0.1272000D+02 0.5244000D+01 0.3615000D+04 0.1183000D+04
EXPONENTS  0.4288000D+03 0.1678000D+03 0.6947000D+02 0.2984000D+02 0.1272000D+02
EXPONENTS  0.5244000D+01 0.2219000D+01 0.1183000D+04 0.1678000D+03 0.6947000D+02
EXPONENTS  0.2984000D+02 0.1272000D+02 0.5244000D+01 0.2219000D+01 0.3490000D+00
EXPONENTS  0.7767000D+00 0.1322000D+00 0.4970000D-01 0.5744000D+03 0.1358000D+03
EXPONENTS  0.4319000D+02 0.1587000D+02 0.6208000D+01 0.2483000D+01 0.5744000D+03
EXPONENTS  0.1358000D+03 0.4319000D+02 0.1587000D+02 0.6208000D+01 0.2483000D+01
EXPONENTS  0.5744000D+03 0.1358000D+03 0.4319000D+02 0.1587000D+02 0.6208000D+01
EXPONENTS  0.2483000D+01 0.1358000D+03 0.4319000D+02 0.1587000D+02 0.6208000D+01
EXPONENTS  0.2483000D+01 0.3229000D+00 0.1358000D+03 0.4319000D+02 0.1587000D+02
EXPONENTS  0.6208000D+01 0.2483000D+01 0.3229000D+00 0.1358000D+03 0.4319000D+02
EXPONENTS  0.1587000D+02 0.6208000D+01 0.2483000D+01 0.3229000D+00 0.8688000D+00
EXPONENTS  0.8688000D+00 0.8688000D+00 0.1098000D+00 0.1098000D+00 0.1098000D+00
EXPONENTS  0.3510000D-01 0.3510000D-01 0.3510000D-01 0.2690000D+00 0.2690000D+00
EXPONENTS  0.2690000D+00 0.2690000D+00 0.2690000D+00 0.2690000D+00 0.8190000D+00
EXPONENTS  0.8190000D+00 0.8190000D+00 0.8190000D+00 0.8190000D+00 0.8190000D+00
EXPONENTS  0.1010000D+00 0.1010000D+00 0.1010000D+00 0.1010000D+00 0.1010000D+00
EXPONENTS  0.1010000D+00 0.5570000D+00 0.5570000D+00 0.5570000D+00 0.5570000D+00
EXPONENTS  0.5570000D+00 0.5570000D+00 0.5570000D+00 0.5570000D+00 0.5570000D+00
EXPONENTS  0.5570000D+00 0.2180000D+00 0.2180000D+00 0.2180000D+00 0.2180000D+00
EXPONENTS  0.2180000D+00 0.2180000D+00 0.2180000D+00 0.2180000D+00 0.2180000D+00
EXPONENTS  0.2180000D+00 0.3387000D+02 0.5095000D+01 0.1159000D+01 0.3258000D+00
EXPONENTS  0.1027000D+00 0.2526000D-01 0.1407000D+01 0.1407000D+01 0.1407000D+01
EXPONENTS  0.3880000D+00 0.3880000D+00 0.3880000D+00 0.1020000D+00 0.1020000D+00
EXPONENTS  0.1020000D+00 0.1057000D+01 0.1057000D+01 0.1057000D+01 0.1057000D+01
EXPONENTS  0.1057000D+01 0.1057000D+01 0.2470000D+00 0.2470000D+00 0.2470000D+00
EXPONENTS  0.2470000D+00 0.2470000D+00 0.2470000D+00 0.3387000D+02 0.5095000D+01
EXPONENTS  0.1159000D+01 0.3258000D+00 0.1027000D+00 0.2526000D-01 0.1407000D+01
EXPONENTS  0.1407000D+01 0.1407000D+01 0.3880000D+00 0.3880000D+00 0.3880000D+00
EXPONENTS  0.1020000D+00 0.1020000D+00 0.1020000D+00 0.1057000D+01 0.1057000D+01
EXPONENTS  0.1057000D+01 0.1057000D+01 0.1057000D+01 0.1057000D+01 0.2470000D+00
EXPONENTS  0.2470000D+00 0.2470000D+00 0.2470000D+00 0.2470000D+00 0.2470000D+00
MO    1     MO 0.0        OCC NO =    2.0000337  ORB. ENERGY =    0.000000
  0.12877600D-04  0.24006440D-04  0.40574154D-04  0.60990521D-04  0.74915931D-04
  0.63226403D-04  0.23774779D-04 -0.97672948D-08 -0.73004478D-07 -0.27283440D-06
 -0.76116550D-06 -0.10197519D-05  0.12041369D-05  0.45428699D-05 -0.42202466D-04
 -0.19253659D-05 -0.54131970D-13 -0.50752163D-13 -0.36138563D-13 -0.14315211D-02
 -0.13421420D-02 -0.95568508D-03  0.44230588D-05  0.41468987D-05  0.29528389D-05
 -0.10967733D-13 -0.60119863D-03 -0.30761614D-06 -0.50132961D-14  0.16232979D-02
  0.68863932D-05 -0.23946606D-15  0.29998497D-04  0.63855232D-07 -0.55315254D-06
 -0.15916963D-05  0.21448489D-05  0.26942949D-14 -0.70446543D-14 -0.10584639D-02
  0.21003001D-05  0.14975859D-06 -0.22500587D-05 -0.14414665D-14  0.66851371D-14
  0.51492933D-04 -0.23150595D-06  0.11381320D-05 -0.90662608D-06 -0.72527362D-15
 -0.15557382D-14 -0.21494098D-03  0.75453994D-15  0.16861212D-03 -0.13194129D-05
  0.31535512D-15  0.19382882D-03  0.91274671D-06 -0.25789749D-14 -0.69966519D-03
  0.30454921D-05 -0.74563555D-15 -0.17074086D-15 -0.83013865D-04 -0.13551065D-06
 -0.16956764D-14 -0.12288844D-03 -0.38599443D-06  0.22078989D-14  0.37193004D-03
  0.79252639D-06  0.62910707D-15 -0.95854367D-04 -0.17920939D-03 -0.30972710D-03
 -0.50097082D-03 -0.75720063D-03 -0.10428220D-02 -0.12189320D-02 -0.10534834D-02
 -0.49166620D-03 -0.66609982D-04  0.48719500D-06 -0.12035375D-05 -0.15471354D-04
 -0.56437274D-04 -0.19041797D-03 -0.41824329D-03 -0.54025625D-03  0.86823777D-04
  0.72834829D-03  0.39970815D-03 -0.58987672D-08 -0.67190625D-07 -0.13951196D-06
 -0.38362245D-06  0.49741057D-07  0.17345660D-05  0.43262832D-05 -0.35812345D-05
  0.20299584D-04  0.30092145D-05  0.27370657D-06  0.16160070D-09  0.21201092D-09
  0.23253010D-09  0.19131876D-09  0.10085237D-09  0.26239890D-10  0.97724471D+01
  0.12820895D+02  0.14061747D+02  0.11569582D+02  0.60988257D+01  0.15867997D+01
  0.14367033D-02  0.18848730D-02  0.20672978D-02  0.17009103D-02  0.89662322D-03
  0.23328450D-03  0.85535320D-15  0.30703443D-13  0.48711782D-13  0.57843747D-13
  0.87532835D-14 -0.63704757D-13  0.96490939D-04  0.34636031D-02  0.54950932D-02
  0.65252546D-02  0.98744301D-03 -0.71864252D-02  0.73411186D-07  0.26351408D-05
  0.41807170D-05  0.49644732D-05  0.75125565D-06 -0.54674978D-05  0.12461368D-11
  0.66516709D-01  0.11916863D-04  0.51057125D-14 -0.57792703D-03 -0.63251242D-06
 -0.91743683D-16 -0.27534493D-04 -0.21910917D-07 -0.39001782D-06 -0.75314017D-06
  0.11431580D-05 -0.20714970D-15  0.75197560D-14  0.77456649D-03 -0.62278578D-06
 -0.42741969D-06  0.10502055D-05  0.97620625D-15 -0.55861349D-14 -0.10832536D-02
  0.63971234D-07 -0.14192633D-06  0.77955101D-07  0.13189827D-15 -0.13928538D-14
 -0.29465218D-04  0.22160779D-14  0.16559137D-05 -0.23592290D-06 -0.15467802D-14
  0.13068445D-03  0.50270464D-06 -0.51014536D-14 -0.13565219D-03  0.20506405D-06
  0.28034367D-15 -0.12035533D-15  0.33884088D-04 -0.13213159D-06  0.37475930D-15
 -0.21280899D-05 -0.49244522D-08 -0.13693302D-16 -0.99524173D-04  0.40131922D-06
 -0.44118103D-15 -0.10641254D-03 -0.19191939D-03 -0.28298504D-03  0.14654588D-03
  0.24142494D-02  0.26585478D-04 -0.17173446D-14 -0.20260700D-04  0.27288780D-03
  0.75169830D-15 -0.15344390D-04 -0.33759098D-03 -0.15364322D-14  0.31709884D-03
  0.13514392D-03 -0.47455148D-04 -0.14781157D-03  0.19526672D-03 -0.15155744D-14
 -0.12476783D-14 -0.10202806D-04  0.25772395D-04 -0.22351967D-04 -0.34204282D-05
 -0.66392563D-15  0.10029960D-14 -0.11567588D-03  0.10735124D-03  0.19361239D-03
  0.28548135D-03 -0.13013772D-03 -0.23840645D-02 -0.26092053D-04 -0.27068455D-14
 -0.20904838D-04 -0.26759171D-03  0.38873117D-14 -0.13580907D-04  0.33286309D-03
  0.58014943D-15  0.31548304D-03 -0.13459995D-03  0.47739711D-04  0.14557004D-03
 -0.19330975D-03 -0.27542478D-14 -0.38536819D-14 -0.99420179D-05 -0.25275234D-04
  0.22135595D-04  0.31396387D-05 -0.37754643D-15  0.18485684D-14 -0.11758992D-03
MO    2     MO 0.0        OCC NO =    2.0000243  ORB. ENERGY =    0.000000
 -0.53301234D-01 -0.99364237D-01 -0.16793910D+00 -0.25244379D+00 -0.31008198D+00
 -0.26169825D+00 -0.98405376D-01 -0.88916158D-05 -0.66459320D-04 -0.24837365D-03
 -0.69292381D-03 -0.92832687D-03  0.10961809D-02 -0.42221791D-02 -0.54269476D-03
 -0.40745756D-04  0.15402286D-12  0.14440622D-12  0.10282583D-12 -0.34469717D-05
 -0.32317551D-05 -0.23012022D-05  0.24022129D-02  0.22522273D-02  0.16037200D-02
  0.27257969D-13  0.47229146D-05  0.52775565D-04  0.10977257D-14  0.66616123D-06
 -0.60512815D-03 -0.17334148D-15 -0.10127224D-06 -0.44936773D-06  0.19139634D-03
 -0.14759525D-03 -0.43801090D-04  0.59658620D-14  0.44351294D-13 -0.52966668D-05
  0.38382112D-04  0.14850184D-03 -0.18688395D-03 -0.31593941D-14 -0.41129150D-13
 -0.42275296D-05  0.11282329D-04  0.86397489D-04 -0.97679819D-04  0.98626482D-16
  0.15705894D-14 -0.49478570D-06 -0.47767439D-14 -0.59269476D-06  0.99572840D-05
 -0.29227179D-14 -0.14626546D-05 -0.17173402D-03  0.17252950D-13  0.32407389D-05
  0.14186216D-03  0.80338000D-14  0.18986021D-14 -0.10899503D-06  0.59084837D-04
  0.91403537D-14 -0.38953554D-06  0.10074659D-04 -0.14836160D-13  0.71652061D-06
 -0.18732917D-03 -0.26574048D-15 -0.12114372D+00 -0.22649039D+00 -0.39144272D+00
 -0.63314246D+00 -0.95697364D+00 -0.13179508D+01 -0.15405240D+01 -0.13314250D+01
 -0.62138300D+00 -0.84183762D-01  0.61573216D-03 -0.15086406D-02 -0.19393424D-01
 -0.70744421D-01 -0.23868992D+00 -0.52427018D+00 -0.67721407D+00  0.10883406D+00
  0.91298842D+00  0.50103627D+00 -0.12534499D-04 -0.14277574D-03 -0.29645390D-03
 -0.81517293D-03  0.10569653D-03  0.36858408D-02  0.91930722D-02 -0.76098920D-02
  0.27972187D-01  0.11533111D-02  0.52251890D-05 -0.57023811D-09 -0.74811997D-09
 -0.82052569D-09 -0.67510382D-09 -0.35587635D-09 -0.92592332D-10 -0.48500102D-02
 -0.63629375D-02 -0.69787654D-02 -0.57419179D-02 -0.30268127D-02 -0.78751972D-03
  0.66583921D+01  0.87354317D+01  0.95808781D+01  0.78828579D+01  0.41553945D+01
  0.10811555D+01 -0.29591693D-14 -0.10622125D-12 -0.16852268D-12 -0.20011551D-12
 -0.30282751D-13  0.22039219D-12 -0.33218818D-07 -0.11924104D-05 -0.18917890D-05
 -0.22464414D-05 -0.33994580D-06  0.24740618D-05  0.55938039D-04  0.20079312D-02
  0.31856332D-02  0.37828417D-02  0.57244366D-03 -0.41661377D-02 -0.44222533D-11
 -0.33243515D-04  0.48630241D-01 -0.69681022D-14  0.70583328D-06 -0.64595011D-03
  0.10430514D-14  0.58494152D-07 -0.14324584D-05 -0.25504587D-03 -0.10229701D-03
  0.35734288D-03  0.12073095D-15 -0.38236792D-13 -0.58176303D-07  0.35815878D-03
 -0.38131020D-03  0.23151424D-04 -0.17263474D-14  0.26737380D-13  0.11328949D-05
 -0.53186554D-05 -0.23221130D-04  0.28539785D-04 -0.24138602D-16  0.85284085D-15
 -0.70472893D-07 -0.73963079D-14  0.97790384D-07 -0.69457882D-04  0.45939162D-14
  0.34555029D-08  0.20734349D-03  0.17595008D-13 -0.29682665D-06  0.10301603D-05
 -0.85421721D-15 -0.58618259D-15 -0.34675855D-07 -0.19588400D-04 -0.23037138D-14
  0.16405821D-07  0.25603516D-04  0.40622616D-14  0.87621744D-07  0.33161684D-04
 -0.44976626D-15 -0.22178896D-04 -0.40000552D-04 -0.58980790D-04 -0.38822991D-03
 -0.44567578D-03  0.29940191D-05  0.77581587D-14  0.20928872D-04  0.95740561D-04
 -0.14687118D-13  0.46212899D-04  0.20889121D-04  0.22515265D-14  0.39178366D-04
 -0.12827031D-03 -0.10110241D-03  0.21138211D-04  0.79964198D-04 -0.12565416D-13
 -0.17319548D-16  0.12702842D-03 -0.31875138D-04  0.22947704D-04  0.89274346D-05
  0.55276323D-15 -0.74670843D-14 -0.65735235D-04 -0.22879080D-04 -0.41263362D-04
 -0.60842804D-04 -0.40125645D-03 -0.45385516D-03  0.31593292D-05  0.95411944D-14
 -0.20325727D-04  0.90378337D-04 -0.11218280D-13 -0.31459738D-04  0.23187416D-04
  0.19492359D-14 -0.35186862D-04 -0.12616570D-03 -0.10051442D-03  0.20175517D-04
  0.80338907D-04  0.30884511D-14  0.46648959D-14 -0.12916382D-03 -0.31447629D-04
  0.21712225D-04  0.97354047D-05 -0.12716431D-14 -0.63601461D-14  0.64790644D-04
MO    3     MO 0.0        OCC NO =    2.0000101  ORB. ENERGY =    0.000000
 -0.15132638D+00 -0.28210287D+00 -0.47679228D+00 -0.71670772D+00 -0.88034707D+00
 -0.74298187D+00 -0.27938059D+00 -0.23184546D-04 -0.17329012D-03 -0.64762473D-03
 -0.18067721D-02 -0.24205766D-02  0.28582496D-02 -0.12250557D-01 -0.11538308D-03
 -0.10846174D-03  0.22040557D-14  0.20664424D-14  0.14714301D-14 -0.22902788D-04
 -0.21472819D-04 -0.15289927D-04  0.37067399D-02  0.34753043D-02  0.24746237D-02
  0.12662365D-14  0.16456703D-04  0.56131615D-03  0.19460343D-14  0.66867924D-05
 -0.15281862D-03 -0.50399206D-17 -0.52716155D-08 -0.37372825D-05  0.45785249D-03
 -0.45036312D-03 -0.74893684D-05  0.20613978D-15  0.37512445D-14 -0.19138428D-04
 -0.11489356D-03 -0.34967998D-05  0.11839036D-03  0.38041081D-15 -0.52203158D-14
 -0.87206855D-05  0.13146473D-04  0.59877427D-04 -0.73023900D-04  0.14473142D-14
  0.14168717D-16 -0.33602435D-06 -0.85915649D-15 -0.72755346D-06  0.71321270D-04
  0.22835292D-14 -0.36145929D-05 -0.45116816D-03  0.29394029D-15  0.57972533D-05
  0.23720435D-03 -0.94630903D-14 -0.51133925D-17 -0.29573122D-06  0.11954561D-03
  0.72765549D-15 -0.11036417D-05 -0.23682353D-04 -0.71231531D-15  0.19908354D-05
 -0.33495448D-03  0.34751298D-14  0.11207667D+00  0.20953863D+00  0.36214503D+00
  0.58575466D+00  0.88534856D+00  0.12193083D+01  0.14252229D+01  0.12317740D+01
  0.57487534D+00  0.77882994D-01 -0.56964743D-03  0.14084340D-02  0.18105278D-01
  0.66045450D-01  0.22283571D+00  0.48944721D+00  0.63223230D+00 -0.10160511D+00
 -0.85234610D+00 -0.46775655D+00  0.63361853D-05  0.72173090D-04  0.14985735D-03
  0.41206966D-03 -0.53429564D-04 -0.18631913D-02 -0.46470951D-02  0.38467980D-02
 -0.27764922D-01  0.11066146D-02  0.28712662D-04 -0.48501362D-11 -0.63631028D-11
 -0.69789467D-11 -0.57420671D-11 -0.30268913D-11 -0.78754018D-12  0.29863398D-02
  0.39179080D-02  0.42970971D-02  0.35355221D-02  0.18637262D-02  0.48490650D-03
  0.56978373D+01  0.74752385D+01  0.81987189D+01  0.67456589D+01  0.35559278D+01
  0.92518553D+00 -0.63064472D-16 -0.22637390D-14 -0.35914787D-14 -0.42647708D-14
 -0.64537223D-15  0.46968981D-14  0.42477653D-07  0.15247622D-05  0.24190734D-05
  0.28725754D-05  0.43469638D-06 -0.31636388D-05  0.36579838D-04  0.13130564D-02
  0.20831969D-02  0.24737324D-02  0.37434091D-03 -0.27243830D-02 -0.42403666D-13
  0.23162065D-04  0.43868408D-01 -0.78712753D-15 -0.50537836D-06 -0.11524082D-03
  0.38317217D-16  0.36663616D-07  0.50661370D-06 -0.15079283D-03 -0.13796747D-03
  0.28876030D-03 -0.79029193D-15 -0.19703672D-14  0.17595686D-05 -0.11351907D-03
  0.47315369D-03 -0.35963462D-03  0.16560629D-14  0.42295380D-15  0.12471901D-05
  0.63022492D-05  0.21786160D-05 -0.84808652D-05 -0.45403615D-15  0.24749860D-15
  0.11957198D-06 -0.55029724D-15  0.35828499D-06 -0.43559640D-04 -0.74029236D-15
  0.28770678D-06  0.20805197D-03  0.23911841D-14 -0.13625618D-05 -0.77373052D-04
  0.26444646D-15 -0.29064267D-16  0.13622291D-08 -0.12872529D-04 -0.50647328D-16
  0.99456716D-07  0.19528393D-04  0.13784013D-15 -0.10354340D-06  0.19089194D-04
  0.15425928D-14  0.41801960D-04  0.75391555D-04  0.11116480D-03 -0.33431150D-03
  0.21367448D-04  0.72849892D-05  0.45949302D-14  0.17921816D-03  0.21532519D-03
 -0.56607746D-14  0.15160481D-03  0.17198682D-03  0.13097119D-14  0.78720893D-04
 -0.58590561D-04 -0.23629661D-03  0.11151466D-03  0.12478195D-03  0.32243626D-15
 -0.88436665D-16  0.44458831D-03 -0.65355068D-04  0.10842670D-04  0.54512399D-04
 -0.10497362D-14  0.84667021D-15 -0.59083852D-04  0.38254695D-04  0.68993918D-04
  0.10173149D-03 -0.37358559D-03 -0.72480783D-05  0.69931249D-05  0.79532484D-15
 -0.17179945D-03  0.20312988D-03 -0.19938483D-14 -0.12014326D-03  0.16759316D-03
 -0.23533985D-14 -0.72347973D-04 -0.59260883D-04 -0.23391381D-03  0.10922884D-03
  0.12468498D-03  0.48544471D-14 -0.24330966D-14 -0.44450462D-03 -0.63889591D-04
  0.89449104D-05  0.54944681D-04  0.93157525D-15 -0.19321546D-14  0.58522154D-04
MO    4     MO 0.0        OCC NO =    2.0000048  ORB. ENERGY =    0.000000
  0.28568436D+00  0.53257321D+00  0.90012128D+00  0.13530502D+01  0.16619798D+01
  0.14026523D+01  0.52743390D+00  0.30241025D-04  0.22603293D-03  0.84473666D-03
  0.23566838D-02  0.31573065D-02 -0.37281903D-02  0.23632422D-01 -0.51575234D-03
 -0.69336305D-05 -0.13361542D-11 -0.12527295D-11 -0.89201804D-12  0.55846380D-04
  0.52359531D-04  0.37283105D-04  0.42657251D-02  0.39993885D-02  0.28478028D-02
 -0.22124266D-12 -0.44051570D-04 -0.38973597D-03 -0.17772476D-13 -0.46096637D-06
 -0.31041571D-03  0.47385313D-16  0.20140913D-06 -0.39658998D-05 -0.11969582D-02
  0.62089915D-03  0.57605906D-03  0.16924550D-14 -0.30239201D-12  0.41324370D-04
  0.18711821D-03  0.11736419D-03 -0.30448241D-03  0.11520871D-14  0.28244364D-12
  0.17176444D-04  0.91239533D-05  0.37771196D-04 -0.46895149D-04  0.33690889D-15
 -0.24943474D-13  0.12547661D-05  0.38902965D-13  0.38881729D-06  0.41358282D-03
  0.20656715D-13  0.92157465D-05  0.19645840D-03 -0.13736561D-12 -0.10382198D-04
 -0.14372069D-02 -0.31215914D-14 -0.15692632D-13 -0.17411431D-05 -0.67714898D-04
 -0.65367580D-13  0.37400150D-06 -0.22479697D-04  0.11244548D-12  0.48494278D-05
  0.22562439D-03  0.11300414D-14  0.36831295D-01  0.68859816D-01  0.11901023D+00
  0.19249414D+00  0.29094845D+00  0.40069625D+00  0.46836513D+00  0.40479281D+00
  0.18891891D+00  0.25594368D-01 -0.18720089D-03  0.46195390D-03  0.59383709D-02
  0.21662323D-01  0.73088142D-01  0.16053436D+00  0.20736660D+00 -0.33325577D-01
 -0.27956198D+00 -0.15342001D+00  0.18412564D-05  0.20973055D-04  0.43547622D-04
  0.11974490D-03 -0.15526302D-04 -0.54143191D-03 -0.13504172D-02  0.11178558D-02
 -0.95144760D-02  0.13294783D-02  0.11010566D-03  0.44534384D-08  0.58426580D-08
  0.64081313D-08  0.52724174D-08  0.27793187D-08  0.72312644D-09  0.25797303D-03
  0.33844595D-03  0.37120196D-03  0.30541379D-03  0.16099678D-03  0.41888335D-04
  0.42395908D+01  0.55621020D+01  0.61004221D+01  0.50192436D+01  0.26458598D+01
  0.68840296D+00  0.23668702D-13  0.84960301D-12  0.13479165D-11  0.16006095D-11
  0.24221440D-12 -0.17627910D-11  0.90121750D-07  0.32349771D-05  0.51323722D-05
  0.60945346D-05  0.92226372D-06 -0.67120625D-05  0.31621554D-04  0.11350756D-02
  0.18008259D-02  0.21384256D-02  0.32360015D-03 -0.23551013D-02  0.34508438D-10
  0.51601091D-05  0.33071106D-01  0.78660541D-13 -0.36619847D-05 -0.35410499D-03
 -0.70090620D-14 -0.11469700D-06 -0.48635684D-05 -0.13693801D-03 -0.23341246D-03
  0.37035048D-03 -0.48909120D-15  0.28779151D-12  0.52606833D-05  0.96943340D-04
  0.33794877D-03 -0.43489211D-03  0.40581492D-15 -0.18684423D-12 -0.26638210D-05
 -0.10579861D-04 -0.12416964D-04  0.22996825D-04 -0.13188678D-15 -0.15241685D-13
  0.80827736D-06  0.59554330D-13 -0.92398399D-07  0.52634237D-04 -0.34216601D-13
  0.19602627D-06 -0.26025022D-04 -0.14444639D-12  0.81168932D-07 -0.13187769D-03
 -0.46460885D-15  0.31699660D-14  0.29634996D-06 -0.37205513D-04  0.16264756D-13
  0.66448762D-08  0.29260060D-04 -0.25774654D-13 -0.89569475D-06  0.82356480D-04
  0.34231488D-15 -0.31803661D-03 -0.57359213D-03 -0.84576125D-03 -0.58500692D-03
 -0.49172615D-03 -0.71198657D-05 -0.56302464D-13 -0.84294390D-03 -0.38588222D-03
  0.75856513D-13 -0.43863101D-03 -0.30064752D-03 -0.27113268D-13 -0.37125996D-04
 -0.10499145D-03  0.26634468D-03 -0.42325218D-03  0.15690750D-03  0.66384437D-13
 -0.25170851D-13 -0.95705128D-03  0.51720415D-04 -0.25853190D-04 -0.25867225D-04
 -0.19138183D-13  0.52454732D-13 -0.84949927D-04 -0.30658893D-03 -0.55294576D-03
 -0.81531820D-03 -0.50690424D-03 -0.46852346D-03 -0.71357016D-05 -0.56446140D-13
  0.82352371D-03 -0.37026475D-03  0.76015624D-13  0.39290982D-03 -0.25594354D-03
 -0.27660111D-13  0.33101100D-04 -0.10162643D-03  0.26735472D-03 -0.42994189D-03
  0.16258717D-03 -0.65319633D-13 -0.26525821D-13  0.94041363D-03  0.48772845D-04
 -0.23594147D-04 -0.25178698D-04  0.18407611D-13  0.50874874D-13  0.76969207D-04
MO    5     MO 0.0        OCC NO =    2.0000043  ORB. ENERGY =    0.000000
 -0.13417009D-09 -0.25012008D-09 -0.42273701D-09 -0.63545257D-09 -0.78053967D-09
 -0.65874794D-09 -0.24770643D-09 -0.14187622D-13 -0.10604368D-12 -0.39630945D-12
 -0.11056417D-11 -0.14812550D-11  0.17490859D-11 -0.11098482D-10  0.38384806D-12
  0.11895561D-13 -0.29426136D-02 -0.27588873D-02 -0.19644921D-02 -0.18941631D-13
 -0.17758983D-13 -0.12645454D-13 -0.17823224D-11 -0.16710406D-11 -0.11898804D-11
 -0.49576816D-03  0.51931392D-13  0.10992643D-12 -0.48127777D-04 -0.10017252D-14
  0.46420396D-14 -0.22620187D-06 -0.41604347D-15 -0.52064272D-15  0.57274114D-12
 -0.29985900D-12 -0.27288214D-12  0.14491793D-06 -0.66331619D-03 -0.53206126D-14
 -0.10598674D-12 -0.69399963D-14  0.11292674D-12  0.42808738D-05  0.61727444D-03
 -0.23878253D-13 -0.51652069D-14  0.10075729D-15  0.50644496D-14 -0.43416794D-06
 -0.55003447D-04  0.32879931D-14  0.84851190D-04 -0.32909196D-14 -0.18906687D-12
  0.45244975D-04 -0.89880439D-14 -0.91651165D-13 -0.29979854D-03  0.18860803D-13
  0.65885177D-12 -0.49774293D-05 -0.33629731D-04  0.13371612D-14  0.40391652D-13
 -0.14347181D-03 -0.10590927D-14  0.16245553D-13  0.24436100D-03 -0.29523908D-14
 -0.13742051D-12 -0.61425195D-06  0.36764658D-10  0.68735231D-10  0.11879491D-09
  0.19214587D-09  0.29042205D-09  0.39997129D-09  0.46751774D-09  0.40406044D-09
  0.18857711D-09  0.25548061D-10 -0.18686220D-12 -0.30252414D-12 -0.38889174D-11
 -0.14186212D-10 -0.47863926D-10 -0.10513066D-09 -0.13580014D-09  0.21824237D-10
  0.18307941D-09  0.10047162D-09 -0.16630709D-14 -0.18943411D-13 -0.39333351D-13
 -0.10815673D-12  0.14023762D-13  0.48903546D-12  0.12197321D-11 -0.10096766D-11
  0.59934184D-11 -0.37569575D-12 -0.16978260D-13  0.97155568D+01  0.12746258D+02
  0.13979887D+02  0.11502230D+02  0.60633214D+01  0.15775622D+01 -0.16300002D-09
 -0.21384676D-09 -0.23454361D-09 -0.19297542D-09 -0.10172567D-09 -0.26467105D-10
 -0.15486065D-08 -0.20316836D-08 -0.22283172D-08 -0.18333923D-08 -0.96646018D-09
 -0.25145476D-09  0.51787259D-04  0.18589364D-02  0.29492491D-02  0.35021429D-02
  0.52996653D-03 -0.38569971D-02 -0.16636186D-14 -0.59716641D-13 -0.94741948D-13
 -0.11250316D-12 -0.17024693D-13  0.12390253D-12 -0.10794563D-13 -0.38747766D-12
 -0.61474302D-12 -0.72998848D-12 -0.11046650D-12  0.80395447D-12  0.75270240D-01
 -0.10972051D-11 -0.12231071D-10  0.17361983D-03  0.76042344D-14  0.72914797D-13
 -0.15126137D-04  0.60032775D-15  0.10355740D-14  0.39446994D-13  0.97290850D-13
 -0.13673784D-12  0.50245498D-07  0.62778461D-03 -0.87828177D-14 -0.19867078D-13
 -0.17932440D-12  0.19919148D-12 -0.41691861D-06 -0.40191385D-03  0.13083202D-13
  0.34852065D-14  0.21153501D-14 -0.56005566D-14  0.13506564D-06 -0.34491105D-04
  0.12485809D-14  0.13030901D-03  0.45269217D-15 -0.33748303D-13 -0.73448896D-04
 -0.22929902D-14  0.36607995D-13 -0.31747815D-03  0.93491374D-15  0.64636914D-13
  0.75820316D-06  0.67345335D-05 -0.50868067D-15  0.15080629D-13  0.35279944D-04
  0.36374958D-15 -0.10241320D-13 -0.55483544D-04  0.11622924D-14 -0.35000568D-13
 -0.26862380D-06  0.14635387D-12  0.26395524D-12  0.38920184D-12  0.14724500D-12
  0.49685490D-13  0.17543129D-15 -0.12951349D-03  0.38593554D-12  0.16875619D-12
  0.17358845D-03  0.18958633D-12  0.12336228D-12 -0.58967890D-04  0.13580420D-13
  0.18269269D-13 -0.12930063D-12  0.19663596D-12 -0.67335331D-13  0.14441717D-03
 -0.56817687D-04  0.44276695D-12 -0.29749175D-13  0.17839793D-13  0.11909382D-13
 -0.39598350D-04  0.11470231D-03  0.34443499D-13  0.13653514D-12  0.24624675D-12
  0.36309070D-12  0.55914265D-13  0.59620264D-13  0.44743591D-15 -0.12786083D-03
 -0.36794632D-12  0.16666464D-12  0.16768014D-03 -0.13873839D-12  0.89857111D-13
 -0.57366804D-04 -0.13230499D-13  0.16044282D-13 -0.12456147D-12  0.18725713D-12
 -0.62695661D-13 -0.13984210D-03 -0.58202894D-04 -0.42221681D-12 -0.27173676D-13
  0.14710337D-13  0.12463340D-13  0.39160739D-04  0.11265226D-03 -0.29496865D-13
MO    6     MO 0.0        OCC NO =    2.0000000  ORB. ENERGY =    0.000000
 -0.80692596D-04 -0.15042725D-03 -0.25424255D-03 -0.38217398D-03 -0.46943228D-03
 -0.39618429D-03 -0.14897564D-03  0.48587457D-07  0.36316114D-06  0.13572161D-05
  0.37864216D-05  0.50727610D-05 -0.59899849D-05  0.17448900D-05 -0.31476759D-04
 -0.72933329D-05  0.29898990D-12  0.28032204D-12  0.19960599D-12 -0.29124474D-07
 -0.27306046D-07 -0.19443531D-07  0.14549554D-04  0.13641131D-04  0.97132982D-05
  0.54788071D-13 -0.19172246D-06 -0.38272231D-04  0.12780013D-13  0.28024181D-06
  0.42238686D-05  0.41559610D-15  0.58454499D-08 -0.38836836D-06  0.13964128D-05
  0.89229654D-05 -0.10319378D-04  0.11533118D-14  0.65004573D-13  0.18271727D-06
  0.63674363D-05  0.43654783D-05 -0.10732915D-04 -0.39110480D-15 -0.60990448D-13
 -0.15776984D-07  0.63676584D-06 -0.93228818D-06  0.29552234D-06 -0.17260739D-15
  0.67280245D-14  0.25654446D-07 -0.72055459D-14 -0.21418232D-07  0.21240354D-05
 -0.73452521D-14  0.50405104D-07  0.42078035D-06  0.28961890D-13  0.13849592D-07
 -0.67928866D-05 -0.27564962D-14  0.27218037D-14 -0.45272451D-07 -0.37419295D-06
  0.15149827D-13 -0.20110480D-07  0.59091743D-06 -0.23315238D-13  0.15592783D-06
  0.53166142D-06  0.67275691D-15  0.58266965D+00  0.10893596D+01  0.18827372D+01
  0.30452498D+01  0.46027931D+01  0.63389991D+01  0.74095180D+01  0.64038065D+01
  0.29886898D+01  0.40490189D+00 -0.29615108D-02 -0.29340473D-04 -0.37716883D-03
 -0.13758577D-02 -0.46421097D-02 -0.10196156D-01 -0.13170652D-01  0.21166359D-02
  0.17756059D-01  0.97442962D-02  0.19758673D-06  0.22506356D-05  0.46731309D-05
  0.12849923D-04 -0.16661401D-05 -0.58101500D-04 -0.14491437D-03  0.11995802D-03
  0.13868678D-04 -0.17672758D-04  0.32960821D-05 -0.10121714D-08 -0.13279114D-08
 -0.14564314D-08 -0.11983079D-08 -0.63167977D-09 -0.16435120D-09  0.20202613D-05
  0.26504679D-05  0.29069897D-05  0.23917835D-05  0.12608123D-05  0.32803964D-06
  0.11203347D-01  0.14698155D-01  0.16120695D-01  0.13263622D-01  0.69918274D-02
  0.18191420D-02 -0.53355359D-14 -0.19152243D-12 -0.30385513D-12 -0.36081865D-12
 -0.54601372D-13  0.39737855D-12  0.24126416D-08  0.86603291D-07  0.13739829D-06
  0.16315626D-06  0.24689842D-07 -0.17968805D-06  0.70663186D-06  0.25364996D-04
  0.40242203D-04  0.47786381D-04  0.72313390D-05 -0.52628330D-04 -0.78414212D-11
  0.15641543D-06  0.16307654D-03 -0.22541526D-13 -0.96017914D-07  0.52311371D-05
  0.13054418D-14 -0.18431689D-08 -0.35543485D-07 -0.58366054D-05 -0.37888480D-05
  0.96254535D-05 -0.47612730D-15 -0.61019623D-13  0.14535817D-06  0.91741585D-05
 -0.15974581D-04  0.68004222D-05 -0.79188042D-15  0.39730375D-13 -0.97443105D-08
  0.58970331D-06  0.48904480D-06 -0.10787481D-05 -0.95656778D-17  0.49961400D-14
  0.22221357D-07 -0.13371395D-13  0.10792009D-07 -0.69950836D-05  0.71418962D-14
  0.72561109D-08  0.12192701D-04  0.32972288D-13 -0.39632137D-07  0.87925500D-05
 -0.10230238D-14 -0.38826821D-15  0.53026522D-08 -0.63995283D-07 -0.32285292D-14
  0.36638983D-08 -0.73278027D-09  0.43933338D-14 -0.19571855D-07  0.19271863D-06
 -0.72419463D-16 -0.12712917D-05 -0.22928268D-05 -0.33807718D-05  0.32038401D-05
  0.17956262D-04  0.25024731D-06  0.18873201D-13 -0.58338608D-05 -0.14014007D-05
 -0.21833503D-13  0.11101199D-05 -0.18294975D-05  0.45758886D-14  0.76797588D-06
  0.25960081D-05 -0.25303813D-05 -0.14249011D-05  0.39552824D-05 -0.14703693D-13
  0.68793907D-14 -0.23358816D-05 -0.28875996D-07 -0.42622561D-06  0.45510161D-06
  0.26281134D-14 -0.12583031D-13 -0.19304348D-05 -0.12488424D-05 -0.22523387D-05
 -0.33210721D-05  0.31026108D-05  0.17374294D-04  0.23251441D-06  0.18129728D-13
  0.58207313D-05 -0.15106831D-05 -0.20164970D-13 -0.10072831D-05 -0.12434176D-05
  0.50109651D-14 -0.73531219D-06  0.25177946D-05 -0.25100843D-05 -0.15784451D-05
  0.40885294D-05  0.14639669D-13  0.99196859D-14  0.20626724D-05 -0.39259116D-07