 h2cs-wavefunction
GAUSSIAN            142 MOL ORBITALS    240 PRIMITIVES        4 NUCLEI
  C    1    (CENTRE  1)   0.00000000  0.00000000 -1.04934791  CHARGE =  6.0
  S    2    (CENTRE  2)   0.00000000  0.00000000  2.00381646  CHARGE = 16.0
  H    3    (CENTRE  3)   0.00000000 -1.76175388 -2.13348569  CHARGE =  1.0
  H    4    (CENTRE  4)   0.00000000  1.74285662 -2.13348569  CHARGE =  1.0
CENTRE ASSIGNMENTS    1  1  1  1  1  1  1  1  1  1  1  1  1  1  1  1  1  1  1  1
CENTRE ASSIGNMENTS    1  1  1  1  1  1  1  1  1  1  1  1  1  1  1  1  1  1  1  1
CENTRE ASSIGNMENTS    1  1  1  1  1  1  1  1  1  1  1  1  1  1  1  1  1  1  1  1
CENTRE ASSIGNMENTS    1  1  1  1  1  1  1  1  1  1  1  1  2  2  2  2  2  2  2  2
CENTRE ASSIGNMENTS    2  2  2  2  2  2  2  2  2  2  2  2  2  2  2  2  2  2  2  2
CENTRE ASSIGNMENTS    2  2  2  2  2  2  2  2  2  2  2  2  2  2  2  2  2  2  2  2
CENTRE ASSIGNMENTS    2  2  2  2  2  2  2  2  2  2  2  2  2  2  2  2  2  2  2  2
CENTRE ASSIGNMENTS    2  2  2  2  2  2  2  2  2  2  2  2  2  2  2  2  2  2  2  2
CENTRE ASSIGNMENTS    2  2  2  2  2  2  2  2  2  2  2  2  2  2  2  2  2  2  2  2
CENTRE ASSIGNMENTS    2  2  2  2  2  2  3  3  3  3  3  3  3  3  3  3  3  3  3  3
CENTRE ASSIGNMENTS    3  3  3  3  3  3  3  3  3  3  3  3  3  4  4  4  4  4  4  4
CENTRE ASSIGNMENTS    4  4  4  4  4  4  4  4  4  4  4  4  4  4  4  4  4  4  4  4
TYPE ASSIGNMENTS      1  1  1  1  1  1  1  1  1  1  1  1  1  1  1  1  2  2  2  3
TYPE ASSIGNMENTS      3  3  4  4  4  2  3  4  2  3  4  2  3  4  5  6  7  8  9 10
TYPE ASSIGNMENTS      5  6  7  8  9 10  5  6  7  8  9 10 11 12 13 17 14 15 18 19
TYPE ASSIGNMENTS     16 20 11 12 13 17 14 15 18 19 16 20  1  1  1  1  1  1  1  1
TYPE ASSIGNMENTS      1  1  1  1  1  1  1  1  1  1  1  1  1  1  1  1  1  1  1  1
TYPE ASSIGNMENTS      1  1  1  2  2  2  2  2  2  3  3  3  3  3  3  4  4  4  4  4
TYPE ASSIGNMENTS      4  2  2  2  2  2  2  3  3  3  3  3  3  4  4  4  4  4  4  2
TYPE ASSIGNMENTS      3  4  2  3  4  2  3  4  5  6  7  8  9 10  5  6  7  8  9 10
TYPE ASSIGNMENTS      5  6  7  8  9 10 11 12 13 17 14 15 18 19 16 20 11 12 13 17
TYPE ASSIGNMENTS     14 15 18 19 16 20  1  1  1  1  1  1  2  3  4  2  3  4  2  3
TYPE ASSIGNMENTS      4  5  6  7  8  9 10  5  6  7  8  9 10  1  1  1  1  1  1  2
TYPE ASSIGNMENTS      3  4  2  3  4  2  3  4  5  6  7  8  9 10  5  6  7  8  9 10
EXPONENTS  0.8236000D+04 0.1235000D+04 0.2808000D+03 0.7927000D+02 0.2559000D+02
EXPONENTS  0.8997000D+01 0.3319000D+01 0.2808000D+03 0.7927000D+02 0.2559000D+02
EXPONENTS  0.8997000D+01 0.3319000D+01 0.3643000D+00 0.9059000D+00 0.1285000D+00
EXPONENTS  0.4402000D-01 0.1871000D+02 0.4133000D+01 0.1200000D+01 0.1871000D+02
EXPONENTS  0.4133000D+01 0.1200000D+01 0.1871000D+02 0.4133000D+01 0.1200000D+01
EXPONENTS  0.3827000D+00 0.3827000D+00 0.3827000D+00 0.1209000D+00 0.1209000D+00
EXPONENTS  0.1209000D+00 0.3569000D-01 0.3569000D-01 0.3569000D-01 0.1097000D+01
EXPONENTS  0.1097000D+01 0.1097000D+01 0.1097000D+01 0.1097000D+01 0.1097000D+01
EXPONENTS  0.3180000D+00 0.3180000D+00 0.3180000D+00 0.3180000D+00 0.3180000D+00
EXPONENTS  0.3180000D+00 0.1000000D+00 0.1000000D+00 0.1000000D+00 0.1000000D+00
EXPONENTS  0.1000000D+00 0.1000000D+00 0.7610000D+00 0.7610000D+00 0.7610000D+00
EXPONENTS  0.7610000D+00 0.7610000D+00 0.7610000D+00 0.7610000D+00 0.7610000D+00
EXPONENTS  0.7610000D+00 0.7610000D+00 0.2680000D+00 0.2680000D+00 0.2680000D+00
EXPONENTS  0.2680000D+00 0.2680000D+00 0.2680000D+00 0.2680000D+00 0.2680000D+00
EXPONENTS  0.2680000D+00 0.2680000D+00 0.3741000D+06 0.5605000D+05 0.1276000D+05
EXPONENTS  0.3615000D+04 0.1183000D+04 0.4288000D+03 0.1678000D+03 0.6947000D+02
EXPONENTS  0.2984000D+02 0.1272000D+02 0.5244000D+01 0.3615000D+04 0.1183000D+04
EXPONENTS  0.4288000D+03 0.1678000D+03 0.6947000D+02 0.2984000D+02 0.1272000D+02
EXPONENTS  0.5244000D+01 0.2219000D+01 0.1183000D+04 0.1678000D+03 0.6947000D+02
EXPONENTS  0.2984000D+02 0.1272000D+02 0.5244000D+01 0.2219000D+01 0.3490000D+00
EXPONENTS  0.7767000D+00 0.1322000D+00 0.4970000D-01 0.5744000D+03 0.1358000D+03
EXPONENTS  0.4319000D+02 0.1587000D+02 0.6208000D+01 0.2483000D+01 0.5744000D+03
EXPONENTS  0.1358000D+03 0.4319000D+02 0.1587000D+02 0.6208000D+01 0.2483000D+01
EXPONENTS  0.5744000D+03 0.1358000D+03 0.4319000D+02 0.1587000D+02 0.6208000D+01
EXPONENTS  0.2483000D+01 0.1358000D+03 0.4319000D+02 0.1587000D+02 0.6208000D+01
EXPONENTS  0.2483000D+01 0.3229000D+00 0.1358000D+03 0.4319000D+02 0.1587000D+02
EXPONENTS  0.6208000D+01 0.2483000D+01 0.3229000D+00 0.1358000D+03 0.4319000D+02
EXPONENTS  0.1587000D+02 0.6208000D+01 0.2483000D+01 0.3229000D+00 0.8688000D+00
EXPONENTS  0.8688000D+00 0.8688000D+00 0.1098000D+00 0.1098000D+00 0.1098000D+00
EXPONENTS  0.3510000D-01 0.3510000D-01 0.3510000D-01 0.2690000D+00 0.2690000D+00
EXPONENTS  0.2690000D+00 0.2690000D+00 0.2690000D+00 0.2690000D+00 0.8190000D+00
EXPONENTS  0.8190000D+00 0.8190000D+00 0.8190000D+00 0.8190000D+00 0.8190000D+00
EXPONENTS  0.1010000D+00 0.1010000D+00 0.1010000D+00 0.1010000D+00 0.1010000D+00
EXPONENTS  0.1010000D+00 0.5570000D+00 0.5570000D+00 0.5570000D+00 0.5570000D+00
EXPONENTS  0.5570000D+00 0.5570000D+00 0.5570000D+00 0.5570000D+00 0.5570000D+00
EXPONENTS  0.5570000D+00 0.2180000D+00 0.2180000D+00 0.2180000D+00 0.2180000D+00
EXPONENTS  0.2180000D+00 0.2180000D+00 0.2180000D+00 0.2180000D+00 0.2180000D+00
EXPONENTS  0.2180000D+00 0.3387000D+02 0.5095000D+01 0.1159000D+01 0.3258000D+00
EXPONENTS  0.1027000D+00 0.2526000D-01 0.1407000D+01 0.1407000D+01 0.1407000D+01
EXPONENTS  0.3880000D+00 0.3880000D+00 0.3880000D+00 0.1020000D+00 0.1020000D+00
EXPONENTS  0.1020000D+00 0.1057000D+01 0.1057000D+01 0.1057000D+01 0.1057000D+01
EXPONENTS  0.1057000D+01 0.1057000D+01 0.2470000D+00 0.2470000D+00 0.2470000D+00
EXPONENTS  0.2470000D+00 0.2470000D+00 0.2470000D+00 0.3387000D+02 0.5095000D+01
EXPONENTS  0.1159000D+01 0.3258000D+00 0.1027000D+00 0.2526000D-01 0.1407000D+01
EXPONENTS  0.1407000D+01 0.1407000D+01 0.3880000D+00 0.3880000D+00 0.3880000D+00
EXPONENTS  0.1020000D+00 0.1020000D+00 0.1020000D+00 0.1057000D+01 0.1057000D+01
EXPONENTS  0.1057000D+01 0.1057000D+01 0.1057000D+01 0.1057000D+01 0.2470000D+00
EXPONENTS  0.2470000D+00 0.2470000D+00 0.2470000D+00 0.2470000D+00 0.2470000D+00
MO    1     MO 0.0        OCC NO =    2.0000337  ORB. ENERGY =    0.000000
 -0.12577268D-04 -0.23446562D-04 -0.39627884D-04 -0.59568101D-04 -0.73168743D-04
 -0.61751838D-04 -0.23220304D-04  0.10218442D-07  0.76376523D-07  0.28543650D-06
  0.79632340D-06  0.10668538D-05 -0.12597554D-05 -0.44523505D-05  0.41994184D-04
  0.19442047D-05  0.86035045D-13  0.80663324D-13  0.57437092D-13 -0.14468082D-02
 -0.13564746D-02 -0.96589074D-03 -0.48037396D-05 -0.45038113D-05 -0.32069819D-05
  0.15073138D-13 -0.59505481D-03  0.20326128D-06  0.15667054D-14  0.15985944D-02
 -0.69210966D-05  0.64527767D-16  0.29304112D-04 -0.65084322D-07  0.66745286D-06
  0.13656002D-05 -0.20330530D-05 -0.16722305D-14  0.24173591D-13 -0.10675639D-02
 -0.21752021D-05  0.76852375D-08  0.21675169D-05  0.16974843D-14 -0.20788094D-13
  0.53147133D-04  0.21570296D-06 -0.11063166D-05  0.89061367D-06 -0.64090370D-17
  0.70549863D-15 -0.21509918D-03 -0.28238353D-14  0.16496248D-03  0.12694076D-05
  0.24759709D-15  0.19514694D-03 -0.91871358D-06  0.82239088D-14 -0.69003439D-03
 -0.28895092D-05 -0.16114881D-15  0.10827438D-14 -0.79509293D-04  0.15124654D-06
  0.39702434D-14 -0.12291419D-03  0.41195822D-06 -0.72184748D-14  0.36144207D-03
 -0.86569783D-06 -0.89785945D-15  0.97869298D-04  0.18297651D-03  0.31623779D-03
  0.51150160D-03  0.77311755D-03  0.10647429D-02  0.12445548D-02  0.10756284D-02
  0.50200139D-03  0.68010174D-04 -0.49743621D-06  0.12284802D-05  0.15791989D-04
  0.57606907D-04  0.19436428D-03  0.42691116D-03  0.55145278D-03 -0.88623153D-04
 -0.74344292D-03 -0.40799188D-03  0.61415298D-08  0.69955842D-07  0.14525355D-06
  0.39941036D-06 -0.51788140D-07 -0.18059518D-05 -0.45043305D-05  0.37286196D-05
 -0.20766762D-04 -0.29281783D-05 -0.27401958D-06 -0.28031120D-09 -0.36775235D-09
 -0.40334474D-09 -0.33185990D-09 -0.17493767D-09 -0.45515491D-10  0.97724029D+01
  0.12820837D+02  0.14061683D+02  0.11569529D+02  0.60987981D+01  0.15867925D+01
 -0.17861571D-02 -0.23433365D-02 -0.25701330D-02 -0.21146280D-02 -0.11147116D-02
 -0.29002700D-03 -0.15225784D-14 -0.54653913D-13 -0.86709803D-13 -0.10296523D-12
 -0.15581353D-13  0.11339817D-12  0.96293892D-04  0.34565300D-02  0.54838715D-02
  0.65119292D-02  0.98542653D-03 -0.71717496D-02 -0.76132795D-07 -0.27328347D-05
 -0.43357108D-05 -0.51485236D-05 -0.77910732D-06  0.56701971D-05 -0.21737576D-11
  0.66520575D-01 -0.14346431D-04 -0.33534115D-14 -0.57280371D-03  0.65005923D-06
  0.45006307D-15 -0.27411969D-04  0.22609785D-07  0.38765167D-06  0.77031368D-06
 -0.11579653D-05  0.45325966D-15 -0.20118726D-13  0.76602059D-03  0.60875901D-06
  0.38635582D-06 -0.99511483D-06 -0.31101473D-16  0.12931514D-13 -0.10790434D-02
 -0.60270950D-07  0.13868118D-06 -0.78410227D-07  0.44543840D-16  0.58903189D-15
 -0.30497059D-04 -0.39720157D-14  0.13038854D-05  0.23020221D-06  0.18003168D-14
  0.13099881D-03 -0.49280158D-06  0.10115730D-13 -0.13491047D-03 -0.19780506D-06
  0.84335913D-15 -0.26987983D-15  0.33525004D-04  0.13462497D-06 -0.10444517D-14
 -0.23105024D-05  0.39935934D-08  0.18540912D-14 -0.98264509D-04 -0.40786849D-06
 -0.19149333D-15 -0.10766806D-03 -0.19418379D-03 -0.28632388D-03  0.12825062D-03
  0.23231514D-02  0.24525004D-04  0.24258699D-14 -0.16868419D-04  0.25969345D-03
 -0.32473372D-14 -0.13141816D-04 -0.31255530D-03  0.72930704D-15  0.31113172D-03
  0.13035963D-03 -0.50744819D-04 -0.14174129D-03  0.19248611D-03 -0.30106090D-14
  0.27295876D-14 -0.68717373D-05  0.24805000D-04 -0.22642192D-04 -0.21628082D-05
  0.43232360D-15 -0.29230975D-14 -0.11686523D-03  0.10673272D-03  0.19249686D-03
  0.28383651D-03 -0.14515394D-03 -0.23531865D-02 -0.25019449D-04  0.43906704D-14
 -0.16162079D-04 -0.26498331D-03 -0.74634055D-14 -0.14731394D-04  0.31705037D-03
  0.64501647D-15  0.31276975D-03 -0.13087588D-03  0.50514751D-04  0.14396045D-03
 -0.19447520D-03  0.28521447D-14 -0.19951443D-14 -0.70685765D-05 -0.25305886D-04
  0.22867006D-04  0.24388796D-05  0.40264149D-15 -0.30968892D-14 -0.11510551D-03
MO    2     MO 0.0        OCC NO =    2.0000243  ORB. ENERGY =    0.000000
 -0.53415951D-01 -0.99578094D-01 -0.16830055D+00 -0.25298711D+00 -0.31074935D+00
 -0.26226149D+00 -0.98617169D-01 -0.89078446D-05 -0.66580619D-04 -0.24882698D-03
 -0.69418852D-03 -0.93002123D-03  0.10981817D-02 -0.42253429D-02 -0.55679579D-03
 -0.38289074D-04 -0.20438026D-12 -0.19161948D-12 -0.13644449D-12  0.32064600D-05
  0.30062600D-05  0.21406362D-05  0.24038464D-02  0.22537588D-02  0.16048105D-02
 -0.29203599D-13 -0.48765621D-05  0.45945135D-04  0.78974421D-14 -0.54020966D-06
 -0.60528042D-03  0.41409546D-15  0.10178169D-06 -0.49884539D-06  0.18864276D-03
 -0.14380714D-03 -0.44835615D-04  0.23968949D-14 -0.47780163D-13  0.53203332D-05
  0.37413066D-04  0.14522529D-03 -0.18263836D-03 -0.32900507D-14  0.39301845D-13
  0.41713220D-05  0.10797878D-04  0.84680611D-04 -0.95478489D-04 -0.45810942D-15
 -0.22463620D-14  0.45687164D-06  0.56847295D-14  0.52584022D-06  0.99072584D-05
  0.66990133D-14  0.15213514D-05 -0.17071003D-03 -0.23753202D-13 -0.30988721D-05
  0.14098825D-03  0.66514072D-14 -0.31592152D-14  0.10259268D-06  0.58277559D-04
 -0.85995967D-14  0.38865175D-06  0.11324885D-04  0.18077242D-13 -0.69642980D-06
 -0.18615756D-03 -0.33022686D-15 -0.12113813D+00 -0.22647994D+00 -0.39142466D+00
 -0.63311325D+00 -0.95692949D+00 -0.13178900D+01 -0.15404530D+01 -0.13313636D+01
 -0.62135433D+00 -0.84179878D-01  0.61570375D-03 -0.15085681D-02 -0.19392492D-01
 -0.70741022D-01 -0.23867846D+00 -0.52424499D+00 -0.67718153D+00  0.10882883D+00
  0.91294456D+00  0.50101220D+00 -0.12528273D-04 -0.14270482D-03 -0.29630664D-03
 -0.81476801D-03  0.10564403D-03  0.36840099D-02  0.91885057D-02 -0.76061120D-02
  0.27972992D-01  0.11394574D-02  0.33680411D-05  0.60560810D-09  0.79452338D-09
  0.87142020D-09  0.71697829D-09  0.37795019D-09  0.98335529D-10  0.51711006D-02
  0.67841899D-02  0.74407880D-02  0.61220563D-02  0.32272000D-02  0.83965673D-03
  0.66579298D+01  0.87348253D+01  0.95802129D+01  0.78823106D+01  0.41551060D+01
  0.10810804D+01  0.33382341D-14  0.11982802D-12  0.19011015D-12  0.22574998D-12
  0.34161922D-13 -0.24862406D-12  0.36202464D-07  0.12995103D-05  0.20617057D-05
  0.24482122D-05  0.37047904D-06 -0.26962770D-05  0.55911119D-04  0.20069649D-02
  0.31841001D-02  0.37810212D-02  0.57216817D-03 -0.41641327D-02  0.46844529D-11
  0.35532335D-04  0.48627492D-01  0.39870197D-14 -0.67839065D-06 -0.64408597D-03
 -0.12572225D-14 -0.57382566D-07 -0.13445258D-05 -0.25522316D-03 -0.10209174D-03
  0.35731490D-03  0.92528130D-16  0.44231411D-13  0.77182652D-07  0.35811263D-03
 -0.38165713D-03  0.23544493D-04 -0.13458981D-14 -0.24445325D-13 -0.10982812D-05
 -0.53560369D-05 -0.23235541D-04  0.28591578D-04  0.86371130D-16 -0.18650118D-15
  0.60738187D-07  0.81133692D-14 -0.96484060D-07 -0.69436097D-04 -0.48889146D-14
  0.56395427D-08  0.20765356D-03 -0.19451193D-13  0.28381264D-06  0.65472802D-06
 -0.59275044D-15  0.85438668D-15  0.35063355D-07 -0.19689281D-04  0.26045694D-14
 -0.19147808D-07  0.25835050D-04 -0.51677294D-14 -0.86042256D-07  0.33232793D-04
 -0.53718424D-15 -0.23202704D-04 -0.41847033D-04 -0.61703426D-04 -0.40089301D-03
 -0.44553222D-03  0.30346525D-05 -0.31391221D-14  0.20484355D-04  0.85521367D-04
  0.17146867D-14  0.22021869D-04  0.28704655D-04 -0.63471513D-14  0.32756593D-04
 -0.12113280D-03 -0.99315789D-04  0.19120674D-04  0.80195115D-04  0.24163420D-14
 -0.74934162D-14  0.13359965D-03 -0.30791711D-04  0.20697868D-04  0.10093843D-04
 -0.56617754D-14  0.50983633D-14 -0.63454863D-04 -0.22556629D-04 -0.40681810D-04
 -0.59985304D-04 -0.38829982D-03 -0.43819637D-03  0.28651650D-05 -0.60410952D-14
 -0.21310473D-04  0.90976250D-04  0.69597377D-14 -0.36547984D-04  0.26578489D-04
 -0.49540633D-14 -0.36564172D-04 -0.12318160D-03 -0.10009136D-03  0.20219007D-04
  0.79872357D-04 -0.93030448D-14 -0.40215220D-14 -0.13191989D-03 -0.31235196D-04
  0.21947861D-04  0.92873343D-05  0.42026782D-14  0.72085002D-14  0.64415453D-04
MO    3     MO 0.0        OCC NO =    2.0000101  ORB. ENERGY =    0.000000
 -0.15153391D+00 -0.28248973D+00 -0.47744614D+00 -0.71769059D+00 -0.88155435D+00
 -0.74400077D+00 -0.27976372D+00 -0.23261827D-04 -0.17386775D-03 -0.64978347D-03
 -0.18127947D-02 -0.24286451D-02  0.28677770D-02 -0.12247658D-01 -0.11475206D-03
 -0.10598272D-03  0.29029496D-12  0.27216998D-12  0.19380124D-12  0.22605897D-04
  0.21194466D-04  0.15091722D-04  0.37262795D-02  0.34936239D-02  0.24876684D-02
  0.48556622D-13 -0.16656649D-04  0.54671397D-03  0.11561704D-13 -0.65216715D-05
 -0.16061175D-03  0.39343280D-15  0.73044774D-08 -0.38753917D-05  0.44853673D-03
 -0.44132488D-03 -0.72118556D-05 -0.64871144D-14  0.59773413D-13  0.19159458D-04
 -0.11691603D-03 -0.25239552D-05  0.11943999D-03  0.39515054D-14 -0.56943477D-13
  0.86555089D-05  0.12754708D-04  0.58965485D-04 -0.71720192D-04 -0.40275857D-15
  0.61420151D-14  0.30780947D-06 -0.62334934D-14  0.55528295D-06  0.71772020D-04
 -0.59610086D-14  0.37729422D-05 -0.44769712D-03  0.24661489D-13 -0.54387910D-05
  0.23238106D-03 -0.26497418D-15  0.27013415D-14  0.27330600D-06  0.11808878D-03
  0.13430452D-13  0.11106365D-05 -0.20932585D-04 -0.21534477D-13 -0.19305545D-05
 -0.33333377D-03 -0.50129661D-15  0.11206936D+00  0.20952495D+00  0.36212139D+00
  0.58571642D+00  0.88529077D+00  0.12192287D+01  0.14251299D+01  0.12316936D+01
  0.57483781D+00  0.77877910D-01 -0.56961025D-03  0.14083172D-02  0.18103776D-01
  0.66039973D-01  0.22281723D+00  0.48940662D+00  0.63217986D+00 -0.10159668D+00
 -0.85227541D+00 -0.46771775D+00  0.63478150D-05  0.72305559D-04  0.15013241D-03
  0.41282599D-03 -0.53527630D-04 -0.18666111D-02 -0.46556246D-02  0.38538586D-02
 -0.27762238D-01  0.11076200D-02  0.29423222D-04 -0.94813564D-09 -0.12439000D-08
 -0.13642891D-08 -0.11224960D-08 -0.59171607D-09 -0.15395339D-09 -0.28552041D-02
 -0.37458654D-02 -0.41084036D-02 -0.33802707D-02 -0.17818865D-02 -0.46361336D-03
  0.56936235D+01  0.74697103D+01  0.81926556D+01  0.67406702D+01  0.35532981D+01
  0.92450132D+00 -0.50359727D-14 -0.18076942D-12 -0.28679521D-12 -0.34056052D-12
 -0.51535783D-13  0.37506777D-12 -0.40721910D-07 -0.14617386D-05 -0.23190850D-05
 -0.27538423D-05 -0.41672893D-06  0.30328750D-05  0.36640481D-04  0.13152332D-02
  0.20866504D-02  0.24778334D-02  0.37496150D-03 -0.27288996D-02 -0.73456544D-11
 -0.22146104D-04  0.43833465D-01 -0.20682487D-13  0.52382579D-06 -0.11761275D-03
  0.12283741D-14 -0.35622107D-07  0.48805364D-06 -0.15178463D-03 -0.13825354D-03
  0.29003817D-03  0.27349753D-16 -0.58347177D-13 -0.17150437D-05 -0.11465251D-03
  0.47060083D-03 -0.35594832D-03  0.69721248D-15  0.39471389D-13 -0.11954481D-05
  0.61851295D-05  0.20062832D-05 -0.81914127D-05  0.13503077D-15  0.46608611D-14
 -0.12418461D-06 -0.12611650D-13 -0.34862582D-06 -0.44156653D-04  0.68928817D-14
 -0.28042908D-06  0.20952304D-03  0.30942067D-13  0.13263065D-05 -0.77053076D-04
  0.53513590D-15 -0.40663278D-15 -0.61478036D-09 -0.13056740D-04 -0.31228991D-14
 -0.10100335D-06  0.19855963D-04  0.43427975D-14  0.10284769D-06  0.19314257D-04
  0.36743448D-16  0.36531432D-04  0.65885943D-04  0.97148784D-04 -0.38491543D-03
 -0.10342098D-04  0.67253899D-05  0.10859318D-13  0.16625658D-03  0.19317366D-03
 -0.14138933D-13  0.10309526D-03  0.16821167D-03  0.41094692D-14  0.70000244D-04
 -0.56838313D-04 -0.23160170D-03  0.10904124D-03  0.12256046D-03 -0.11087410D-13
  0.11498306D-13  0.45094797D-03 -0.62612578D-04  0.81714044D-05  0.54441174D-04
  0.36107542D-14 -0.10314386D-13 -0.57461818D-04  0.39889084D-04  0.71941605D-04
  0.10607785D-03 -0.34650361D-03  0.17086593D-04  0.70011336D-05  0.17022561D-13
 -0.17412963D-03  0.20556116D-03 -0.20087990D-13 -0.13431292D-03  0.17282425D-03
  0.50711309D-14 -0.76204196D-04 -0.56184606D-04 -0.23444960D-03  0.11169029D-03
  0.12275931D-03  0.11409629D-13  0.70686576D-14 -0.45226017D-03 -0.64092314D-04
  0.10103051D-04  0.53989263D-04 -0.22695977D-14 -0.11332434D-13  0.58038001D-04
MO    4     MO 0.0        OCC NO =    2.0000048  ORB. ENERGY =    0.000000
  0.28555269D+00  0.53232774D+00  0.89970640D+00  0.13524265D+01  0.16612138D+01
  0.14020058D+01  0.52719079D+00  0.30355846D-04  0.22689114D-03  0.84794401D-03
  0.23656318D-02  0.31692944D-02 -0.37423457D-02  0.23579842D-01 -0.50464950D-03
 -0.18422229D-05  0.15212836D-11  0.14263001D-11  0.10156106D-11 -0.55733767D-04
 -0.52253949D-04 -0.37207925D-04  0.42154218D-02  0.39522259D-02  0.28142203D-02
  0.25541617D-12  0.44462308D-04 -0.35786006D-03  0.31906470D-13  0.79059082D-06
 -0.30312895D-03  0.37029563D-15 -0.19379495D-06 -0.38663221D-05 -0.11760562D-02
  0.60525954D-03  0.57079661D-03 -0.40235507D-14  0.34168868D-12 -0.41686093D-04
  0.18315130D-03  0.10908895D-03 -0.29224025D-03  0.46967175D-14 -0.31341631D-12
 -0.17434350D-04  0.85452377D-05  0.36472500D-04 -0.45017738D-04 -0.53713592D-15
  0.27941326D-13 -0.12305352D-05 -0.42006386D-13 -0.20996412D-06  0.41350500D-03
 -0.22679908D-13 -0.96668123D-05  0.18581103D-03  0.14869906D-12  0.10296705D-04
 -0.14263260D-02 -0.12384647D-14  0.16541845D-13  0.17314238D-05 -0.67072736D-04
  0.72027875D-13 -0.40264942D-06 -0.22533780D-04 -0.12165341D-12 -0.47916219D-05
  0.22375199D-03 -0.12159179D-14  0.36878443D-01  0.68947964D-01  0.11916257D+00
  0.19274055D+00  0.29132090D+00  0.40120919D+00  0.46896469D+00  0.40531099D+00
  0.18916075D+00  0.25627131D-01 -0.18744053D-03  0.46253985D-03  0.59459032D-02
  0.21689800D-01  0.73180848D-01  0.16073798D+00  0.20762963D+00 -0.33367847D-01
 -0.27991658D+00 -0.15361461D+00  0.18332711D-05  0.20882098D-04  0.43358763D-04
  0.11922559D-03 -0.15458967D-04 -0.53908381D-03 -0.13445606D-02  0.11130078D-02
 -0.95186427D-02  0.12919517D-02  0.10244231D-03 -0.49841407D-08 -0.65389091D-08
 -0.71717681D-08 -0.59007148D-08 -0.31105213D-08 -0.80929914D-09 -0.13985726D-03
 -0.18348477D-03 -0.20124308D-03 -0.16557674D-03 -0.87282644D-04 -0.22709302D-04
  0.42459699D+01  0.55704711D+01  0.61096012D+01  0.50267958D+01  0.26498409D+01
  0.68943877D+00 -0.26560221D-13 -0.95339591D-12 -0.15125865D-11 -0.17961501D-11
 -0.27180485D-12  0.19781448D-11 -0.88783745D-07 -0.31869485D-05 -0.50561738D-05
 -0.60040512D-05 -0.90857121D-06  0.66124110D-05  0.31273746D-04  0.11225908D-02
  0.17810185D-02  0.21149048D-02  0.32004085D-03 -0.23291973D-02 -0.38607090D-10
 -0.42186207D-05  0.33110076D-01 -0.90503282D-13  0.35875749D-05 -0.34168731D-03
  0.76485470D-14  0.11336852D-06 -0.45263698D-05 -0.13356535D-03 -0.22920999D-03
  0.36277533D-03  0.25176428D-15 -0.31835480D-12 -0.52052516D-05  0.10014345D-03
  0.34006312D-03 -0.44020657D-03 -0.17458910D-14  0.20303410D-12  0.25870630D-05
 -0.10154450D-04 -0.12006189D-04  0.22160639D-04  0.14909044D-15  0.18376815D-13
 -0.79357217D-06 -0.66715514D-13  0.91450763D-07  0.55195825D-04  0.37031768D-13
 -0.17854554D-06 -0.29787840D-04  0.16311477D-12 -0.95806752D-07 -0.13579964D-03
  0.10784827D-14 -0.32730773D-14 -0.29465035D-06 -0.36594390D-04 -0.17773500D-13
 -0.80661248D-08  0.28543021D-04  0.27592732D-13  0.89201718D-06  0.81240149D-04
 -0.34375988D-15 -0.29825959D-03 -0.53792346D-03 -0.79316783D-03 -0.49243405D-03
 -0.45813568D-03 -0.71002502D-05  0.66729344D-13 -0.80813714D-03 -0.35740330D-03
 -0.83562822D-13 -0.37923132D-03 -0.24048794D-03  0.27383574D-13 -0.33156918D-04
 -0.96137567D-04  0.27596410D-03 -0.44540427D-03  0.16944017D-03 -0.70910088D-13
  0.29284341D-13 -0.94019615D-03  0.47285622D-04 -0.23344092D-04 -0.23941530D-04
  0.18913720D-13 -0.55699739D-13 -0.72926812D-04 -0.30934742D-03 -0.55792082D-03
 -0.82265392D-03 -0.57024368D-03 -0.48183439D-03 -0.71178018D-05  0.68869705D-13
  0.82915259D-03 -0.37347024D-03 -0.90715465D-13  0.42545896D-03 -0.28459244D-03
  0.28740924D-13  0.37339070D-04 -0.99515649D-04  0.27583986D-03 -0.43994265D-03
  0.16410280D-03  0.70955915D-13  0.30268693D-13  0.95943027D-03  0.50242544D-04
 -0.25685869D-04 -0.24556675D-04 -0.17864312D-13 -0.57069416D-13  0.80877986D-04
MO    5     MO 0.0        OCC NO =    2.0000043  ORB. ENERGY =    0.000000
  0.13507859D-09  0.25181371D-09  0.42559947D-09  0.63975539D-09  0.78582491D-09
  0.66320850D-09  0.24938372D-09  0.13689360D-13  0.10231949D-12  0.38239128D-12
  0.10668121D-11  0.14292341D-11 -0.16876590D-11  0.11148177D-10 -0.45856901D-13
  0.16475983D-13 -0.29460729D-02 -0.27621306D-02 -0.19668015D-02 -0.64108719D-13
 -0.60105999D-13 -0.42799052D-13  0.23788010D-11  0.22302772D-11  0.15880902D-11
 -0.48889249D-03  0.45040908D-13 -0.15936352D-12 -0.50256909D-04  0.84012174D-13
 -0.15161412D-12 -0.15960563D-06  0.19248739D-14 -0.17907101D-14 -0.56989905D-12
  0.27594368D-12  0.29395537D-12 -0.89060742D-07 -0.66535186D-03 -0.60309173D-13
  0.54893294D-13  0.65996433D-13 -0.12088973D-12 -0.41347839D-05  0.61306902D-03
 -0.36815324D-13  0.32490115D-14  0.22246630D-13 -0.25495642D-13  0.42223094D-06
 -0.52667622D-04 -0.11705375D-13  0.82935436D-04  0.45117630D-14  0.22003570D-12
  0.43273471D-04 -0.35660675D-14  0.69125809D-13 -0.29207978D-03 -0.99692215D-14
 -0.72923292D-12  0.48447028D-05 -0.33207939D-04 -0.24098277D-14 -0.22812710D-13
 -0.13957511D-03 -0.59525011D-14 -0.12235348D-13  0.23919893D-03  0.13181984D-13
  0.80673477D-13  0.56966749D-06 -0.28455988D-09 -0.53201335D-09 -0.91947721D-09
 -0.14872165D-08 -0.22478779D-08 -0.30957933D-08 -0.36186054D-08 -0.31274435D-08
 -0.14595942D-08 -0.19774298D-09  0.14463207D-11  0.48499329D-12  0.62345400D-11
  0.22742706D-10  0.76733326D-10  0.16854081D-09  0.21770876D-09 -0.34987650D-10
 -0.29350480D-09 -0.16107165D-09  0.22071541D-14  0.25140857D-13  0.52201482D-13
  0.14354082D-12 -0.18611715D-13 -0.64902621D-12 -0.16187744D-11  0.13399980D-11
 -0.93463377D-11  0.70138389D-12  0.39730675D-13  0.97155724D+01  0.12746279D+02
  0.13979909D+02  0.11502248D+02  0.60633311D+01  0.15775647D+01  0.28133669D-09
  0.36909774D-09  0.40482034D-09  0.33307398D-09  0.17557766D-09  0.45682006D-10
  0.23126240D-08  0.30340312D-08  0.33276756D-08  0.27379113D-08  0.14432711D-08
  0.37551200D-09  0.51675278D-04  0.18549167D-02  0.29428719D-02  0.34945701D-02
  0.52882056D-03 -0.38486570D-02  0.28906883D-14  0.10376308D-12  0.16462273D-12
  0.19548444D-12  0.29581948D-13 -0.21529187D-12  0.15666637D-13  0.56236383D-12
  0.89220431D-12  0.10594652D-11  0.16032502D-12 -0.11668154D-11  0.75264435D-01
  0.19090249D-11  0.18147239D-10  0.17063191D-03 -0.14190255D-13 -0.14012081D-12
 -0.15275214D-04 -0.72692981D-15 -0.14109217D-14 -0.64685144D-13 -0.12057544D-12
  0.18526058D-12 -0.39369177D-07  0.62288316D-03  0.22241384D-13  0.13749214D-13
  0.25268360D-12 -0.26643281D-12  0.39575766D-06 -0.39957231D-03 -0.33181177D-13
 -0.38689279D-14 -0.44417549D-14  0.83106828D-14 -0.13206182D-06 -0.33587197D-04
 -0.16076314D-14  0.12971498D-03 -0.26663023D-15  0.30195133D-13 -0.73879125D-04
  0.45844093D-14 -0.11221904D-13 -0.31526581D-03 -0.37845187D-14 -0.79363495D-13
 -0.75324443D-06  0.67147283D-05  0.95527890D-15 -0.18544372D-13  0.35017586D-04
 -0.18556635D-15  0.14936220D-13 -0.55161771D-04 -0.26802704D-14  0.40696896D-13
  0.25956196D-06 -0.15144045D-12 -0.27312910D-12 -0.40272869D-12 -0.30939596D-12
 -0.14269393D-12 -0.10900817D-14 -0.12592025D-03 -0.40217524D-12 -0.16325325D-12
  0.16262763D-03 -0.19445501D-12 -0.13560079D-12 -0.55291373D-04 -0.20391515D-15
 -0.47300330D-13  0.12677618D-12 -0.22461782D-12  0.97841633D-13  0.13669995D-03
 -0.57739541D-04 -0.45403051D-12  0.20041104D-13 -0.11405719D-13 -0.86353847D-14
 -0.36838898D-04  0.10769459D-03 -0.42459501D-13 -0.14713066D-12 -0.26535621D-12
 -0.39126757D-12 -0.44039054D-12 -0.40962646D-12 -0.77575179D-14 -0.12760528D-03
  0.41545083D-12 -0.19317125D-12  0.16829711D-03  0.26314005D-12 -0.14722757D-12
 -0.56823775D-04  0.35933583D-13 -0.63336999D-13  0.13991665D-12 -0.22855279D-12
  0.88636143D-13 -0.14105774D-03 -0.56520832D-04  0.48459717D-12  0.19274831D-13
 -0.12632923D-13 -0.66419073D-14  0.37229077D-04  0.10966761D-03  0.40348742D-13
MO    6     MO 0.0        OCC NO =    2.0000000  ORB. ENERGY =    0.000000
 -0.81315746D-04 -0.15158893D-03 -0.25620595D-03 -0.38512532D-03 -0.47305748D-03
 -0.39924383D-03 -0.15012610D-03  0.49933455D-07  0.37322164D-06  0.13948145D-05
  0.38913152D-05  0.52132895D-05 -0.61559229D-05  0.15835786D-05 -0.30074307D-04
 -0.71946163D-05 -0.16325248D-11 -0.15305957D-11 -0.10898753D-11  0.24410388D-07
  0.22886291D-07  0.16296402D-07  0.14574231D-04  0.13664268D-04  0.97297729D-05
 -0.27186152D-12  0.18984283D-06 -0.38150353D-04 -0.23316281D-13 -0.27184380D-06
  0.39890959D-05  0.49321239D-16 -0.56381650D-08 -0.39146213D-06  0.15139636D-05
  0.88962551D-05 -0.10410219D-04  0.35365232D-14 -0.37568441D-12 -0.18527562D-06
  0.62503201D-05  0.42527788D-05 -0.10503099D-04 -0.80247217D-14  0.34464115D-12
  0.10877707D-07  0.63646756D-06 -0.89884443D-06  0.26237686D-06  0.42190685D-15
 -0.29406469D-13 -0.25923880D-07  0.48212473D-13  0.18952051D-07  0.21247529D-05
  0.19732865D-13 -0.52721626D-07  0.35489474D-06 -0.16437028D-12 -0.41345254D-08
 -0.67291536D-05  0.75416931D-14 -0.18816401D-13  0.44487252D-07 -0.38894314D-06
 -0.78057717D-13  0.20040340D-07  0.64176090D-06  0.13450692D-12 -0.15350210D-06
  0.52506854D-06  0.31588643D-14  0.58266924D+00  0.10893588D+01  0.18827359D+01
  0.30452477D+01  0.46027899D+01  0.63389947D+01  0.74095129D+01  0.64038020D+01
  0.29886878D+01  0.40490161D+00 -0.29615087D-02 -0.29345383D-04 -0.37723194D-03
 -0.13760879D-02 -0.46428865D-02 -0.10197862D-01 -0.13172856D-01  0.21169901D-02
  0.17759030D-01  0.97459267D-02  0.19749583D-06  0.22496003D-05  0.46709811D-05
  0.12844012D-04 -0.16653736D-05 -0.58074772D-04 -0.14484770D-03  0.11990283D-03
  0.14061023D-04 -0.17627797D-04  0.32579568D-05  0.53685584D-08  0.70432434D-08
  0.77249137D-08  0.63558263D-08  0.33504302D-08  0.87171892D-09 -0.19545183D-05
 -0.25642168D-05 -0.28123909D-05 -0.23139505D-05 -0.12197831D-05 -0.31736463D-06
  0.11187980D-01  0.14677994D-01  0.16098583D-01  0.13245429D-01  0.69822369D-02
  0.18166467D-02  0.28655823D-13  0.10286188D-11  0.16319296D-11  0.19378663D-11
  0.29325025D-12 -0.21342204D-11 -0.23776136D-08 -0.85345940D-07 -0.13540347D-06
 -0.16078747D-06 -0.24331382D-07  0.17707924D-06  0.70317328D-06  0.25240849D-04
  0.40045239D-04  0.47552493D-04  0.71959456D-05 -0.52370743D-04  0.41591971D-10
 -0.15396545D-06  0.16272125D-03  0.93032162D-13  0.95596709D-07  0.53037602D-05
 -0.85112960D-14  0.18134302D-08 -0.32531535D-07 -0.57956612D-05 -0.37283664D-05
  0.95240275D-05 -0.59425380D-15  0.34890111D-12 -0.14421537D-06  0.91703785D-05
 -0.15973053D-04  0.68026748D-05 -0.11516803D-14 -0.22285800D-12  0.11937588D-07
  0.59782810D-06  0.49200974D-06 -0.10898378D-05 -0.29684157D-15 -0.18211281D-13
 -0.22125402D-07  0.71712779D-13 -0.10477069D-07 -0.69758841D-05 -0.39844472D-13
 -0.71001101D-08  0.12188682D-04 -0.17529386D-12  0.38531316D-07  0.87389709D-05
 -0.15166073D-14  0.39143560D-14 -0.53018078D-08 -0.54210984D-07  0.19735842D-13
 -0.36887143D-08 -0.15024102D-07 -0.31478910D-13  0.19594138D-07  0.17765706D-06
  0.59451336D-15 -0.12020234D-05 -0.21678987D-05 -0.31965654D-05  0.28304662D-05
  0.16874239D-04  0.22561963D-06 -0.67304742D-13 -0.58328172D-05 -0.15612834D-05
  0.85298837D-13  0.90143968D-06 -0.10197827D-05 -0.32141592D-13  0.74888656D-06
  0.24435047D-05 -0.23522950D-05 -0.17780711D-05  0.41303660D-05  0.78267630D-13
 -0.31098442D-13 -0.18180101D-05 -0.48812242D-07 -0.44068631D-06  0.48949855D-06
 -0.22997749D-13  0.59717847D-13 -0.17619494D-05 -0.12250411D-05 -0.22094121D-05
 -0.32577769D-05  0.29194619D-05  0.17423460D-04  0.24231131D-06 -0.71863543D-13
  0.58564742D-05 -0.14524292D-05  0.10065023D-12 -0.99606916D-06 -0.15889229D-05
 -0.32743615D-13 -0.77944742D-06  0.25177447D-05 -0.23743749D-05 -0.16346519D-05
  0.40090268D-05 -0.89184928D-13 -0.25151273D-13  0.20924691D-05 -0.38759454D-07