 h2cs-wavefunction
GAUSSIAN            142 MOL ORBITALS    240 PRIMITIVES        4 NUCLEI
  C    1    (CENTRE  1)   0.00000000  0.00000000 -1.04934791  CHARGE =  6.0
  S    2    (CENTRE  2)   0.00000000  0.00000000  2.00381646  CHARGE = 16.0
  H    3    (CENTRE  3)   0.00000000 -1.74285662 -2.13348569  CHARGE =  1.0
  H    4    (CENTRE  4)   0.00000000  1.74285662 -2.13348569  CHARGE =  1.0
CENTRE ASSIGNMENTS    1  1  1  1  1  1  1  1  1  1  1  1  1  1  1  1  1  1  1  1
CENTRE ASSIGNMENTS    1  1  1  1  1  1  1  1  1  1  1  1  1  1  1  1  1  1  1  1
CENTRE ASSIGNMENTS    1  1  1  1  1  1  1  1  1  1  1  1  1  1  1  1  1  1  1  1
CENTRE ASSIGNMENTS    1  1  1  1  1  1  1  1  1  1  1  1  2  2  2  2  2  2  2  2
CENTRE ASSIGNMENTS    2  2  2  2  2  2  2  2  2  2  2  2  2  2  2  2  2  2  2  2
CENTRE ASSIGNMENTS    2  2  2  2  2  2  2  2  2  2  2  2  2  2  2  2  2  2  2  2
CENTRE ASSIGNMENTS    2  2  2  2  2  2  2  2  2  2  2  2  2  2  2  2  2  2  2  2
CENTRE ASSIGNMENTS    2  2  2  2  2  2  2  2  2  2  2  2  2  2  2  2  2  2  2  2
CENTRE ASSIGNMENTS    2  2  2  2  2  2  2  2  2  2  2  2  2  2  2  2  2  2  2  2
CENTRE ASSIGNMENTS    2  2  2  2  2  2  3  3  3  3  3  3  3  3  3  3  3  3  3  3
CENTRE ASSIGNMENTS    3  3  3  3  3  3  3  3  3  3  3  3  3  4  4  4  4  4  4  4
CENTRE ASSIGNMENTS    4  4  4  4  4  4  4  4  4  4  4  4  4  4  4  4  4  4  4  4
TYPE ASSIGNMENTS      1  1  1  1  1  1  1  1  1  1  1  1  1  1  1  1  2  2  2  3
TYPE ASSIGNMENTS      3  3  4  4  4  2  3  4  2  3  4  2  3  4  5  6  7  8  9 10
TYPE ASSIGNMENTS      5  6  7  8  9 10  5  6  7  8  9 10 11 12 13 17 14 15 18 19
TYPE ASSIGNMENTS     16 20 11 12 13 17 14 15 18 19 16 20  1  1  1  1  1  1  1  1
TYPE ASSIGNMENTS      1  1  1  1  1  1  1  1  1  1  1  1  1  1  1  1  1  1  1  1
TYPE ASSIGNMENTS      1  1  1  2  2  2  2  2  2  3  3  3  3  3  3  4  4  4  4  4
TYPE ASSIGNMENTS      4  2  2  2  2  2  2  3  3  3  3  3  3  4  4  4  4  4  4  2
TYPE ASSIGNMENTS      3  4  2  3  4  2  3  4  5  6  7  8  9 10  5  6  7  8  9 10
TYPE ASSIGNMENTS      5  6  7  8  9 10 11 12 13 17 14 15 18 19 16 20 11 12 13 17
TYPE ASSIGNMENTS     14 15 18 19 16 20  1  1  1  1  1  1  2  3  4  2  3  4  2  3
TYPE ASSIGNMENTS      4  5  6  7  8  9 10  5  6  7  8  9 10  1  1  1  1  1  1  2
TYPE ASSIGNMENTS      3  4  2  3  4  2  3  4  5  6  7  8  9 10  5  6  7  8  9 10
EXPONENTS  0.8236000D+04 0.1235000D+04 0.2808000D+03 0.7927000D+02 0.2559000D+02
EXPONENTS  0.8997000D+01 0.3319000D+01 0.2808000D+03 0.7927000D+02 0.2559000D+02
EXPONENTS  0.8997000D+01 0.3319000D+01 0.3643000D+00 0.9059000D+00 0.1285000D+00
EXPONENTS  0.4402000D-01 0.1871000D+02 0.4133000D+01 0.1200000D+01 0.1871000D+02
EXPONENTS  0.4133000D+01 0.1200000D+01 0.1871000D+02 0.4133000D+01 0.1200000D+01
EXPONENTS  0.3827000D+00 0.3827000D+00 0.3827000D+00 0.1209000D+00 0.1209000D+00
EXPONENTS  0.1209000D+00 0.3569000D-01 0.3569000D-01 0.3569000D-01 0.1097000D+01
EXPONENTS  0.1097000D+01 0.1097000D+01 0.1097000D+01 0.1097000D+01 0.1097000D+01
EXPONENTS  0.3180000D+00 0.3180000D+00 0.3180000D+00 0.3180000D+00 0.3180000D+00
EXPONENTS  0.3180000D+00 0.1000000D+00 0.1000000D+00 0.1000000D+00 0.1000000D+00
EXPONENTS  0.1000000D+00 0.1000000D+00 0.7610000D+00 0.7610000D+00 0.7610000D+00
EXPONENTS  0.7610000D+00 0.7610000D+00 0.7610000D+00 0.7610000D+00 0.7610000D+00
EXPONENTS  0.7610000D+00 0.7610000D+00 0.2680000D+00 0.2680000D+00 0.2680000D+00
EXPONENTS  0.2680000D+00 0.2680000D+00 0.2680000D+00 0.2680000D+00 0.2680000D+00
EXPONENTS  0.2680000D+00 0.2680000D+00 0.3741000D+06 0.5605000D+05 0.1276000D+05
EXPONENTS  0.3615000D+04 0.1183000D+04 0.4288000D+03 0.1678000D+03 0.6947000D+02
EXPONENTS  0.2984000D+02 0.1272000D+02 0.5244000D+01 0.3615000D+04 0.1183000D+04
EXPONENTS  0.4288000D+03 0.1678000D+03 0.6947000D+02 0.2984000D+02 0.1272000D+02
EXPONENTS  0.5244000D+01 0.2219000D+01 0.1183000D+04 0.1678000D+03 0.6947000D+02
EXPONENTS  0.2984000D+02 0.1272000D+02 0.5244000D+01 0.2219000D+01 0.3490000D+00
EXPONENTS  0.7767000D+00 0.1322000D+00 0.4970000D-01 0.5744000D+03 0.1358000D+03
EXPONENTS  0.4319000D+02 0.1587000D+02 0.6208000D+01 0.2483000D+01 0.5744000D+03
EXPONENTS  0.1358000D+03 0.4319000D+02 0.1587000D+02 0.6208000D+01 0.2483000D+01
EXPONENTS  0.5744000D+03 0.1358000D+03 0.4319000D+02 0.1587000D+02 0.6208000D+01
EXPONENTS  0.2483000D+01 0.1358000D+03 0.4319000D+02 0.1587000D+02 0.6208000D+01
EXPONENTS  0.2483000D+01 0.3229000D+00 0.1358000D+03 0.4319000D+02 0.1587000D+02
EXPONENTS  0.6208000D+01 0.2483000D+01 0.3229000D+00 0.1358000D+03 0.4319000D+02
EXPONENTS  0.1587000D+02 0.6208000D+01 0.2483000D+01 0.3229000D+00 0.8688000D+00
EXPONENTS  0.8688000D+00 0.8688000D+00 0.1098000D+00 0.1098000D+00 0.1098000D+00
EXPONENTS  0.3510000D-01 0.3510000D-01 0.3510000D-01 0.2690000D+00 0.2690000D+00
EXPONENTS  0.2690000D+00 0.2690000D+00 0.2690000D+00 0.2690000D+00 0.8190000D+00
EXPONENTS  0.8190000D+00 0.8190000D+00 0.8190000D+00 0.8190000D+00 0.8190000D+00
EXPONENTS  0.1010000D+00 0.1010000D+00 0.1010000D+00 0.1010000D+00 0.1010000D+00
EXPONENTS  0.1010000D+00 0.5570000D+00 0.5570000D+00 0.5570000D+00 0.5570000D+00
EXPONENTS  0.5570000D+00 0.5570000D+00 0.5570000D+00 0.5570000D+00 0.5570000D+00
EXPONENTS  0.5570000D+00 0.2180000D+00 0.2180000D+00 0.2180000D+00 0.2180000D+00
EXPONENTS  0.2180000D+00 0.2180000D+00 0.2180000D+00 0.2180000D+00 0.2180000D+00
EXPONENTS  0.2180000D+00 0.3387000D+02 0.5095000D+01 0.1159000D+01 0.3258000D+00
EXPONENTS  0.1027000D+00 0.2526000D-01 0.1407000D+01 0.1407000D+01 0.1407000D+01
EXPONENTS  0.3880000D+00 0.3880000D+00 0.3880000D+00 0.1020000D+00 0.1020000D+00
EXPONENTS  0.1020000D+00 0.1057000D+01 0.1057000D+01 0.1057000D+01 0.1057000D+01
EXPONENTS  0.1057000D+01 0.1057000D+01 0.2470000D+00 0.2470000D+00 0.2470000D+00
EXPONENTS  0.2470000D+00 0.2470000D+00 0.2470000D+00 0.3387000D+02 0.5095000D+01
EXPONENTS  0.1159000D+01 0.3258000D+00 0.1027000D+00 0.2526000D-01 0.1407000D+01
EXPONENTS  0.1407000D+01 0.1407000D+01 0.3880000D+00 0.3880000D+00 0.3880000D+00
EXPONENTS  0.1020000D+00 0.1020000D+00 0.1020000D+00 0.1057000D+01 0.1057000D+01
EXPONENTS  0.1057000D+01 0.1057000D+01 0.1057000D+01 0.1057000D+01 0.2470000D+00
EXPONENTS  0.2470000D+00 0.2470000D+00 0.2470000D+00 0.2470000D+00 0.2470000D+00
MO    1     MO 0.0        OCC NO =    2.0000337  ORB. ENERGY =    0.000000
 -0.12820216D-10 -0.23899465D-10 -0.40393352D-10 -0.60718742D-10 -0.74582100D-10
 -0.62944661D-10 -0.23668836D-10 -0.17804733D-14 -0.13307935D-13 -0.49734792D-13
 -0.13875233D-12 -0.18588986D-12  0.21950127D-12 -0.10190260D-11 -0.22910114D-12
 -0.33501758D-13 -0.13640304D-12 -0.12788652D-12 -0.91062821D-13 -0.14389369D-02
 -0.13490948D-02 -0.96063588D-03  0.35200074D-12  0.33002307D-12  0.23499608D-12
 -0.20146792D-13 -0.59821222D-03  0.79181591D-13  0.24732275D-14  0.16110411D-02
 -0.24936592D-13  0.10517999D-15  0.29653008D-04 -0.16754682D-15  0.42927991D-13
 -0.41269500D-13 -0.16584903D-14  0.65045598D-14 -0.34451371D-13 -0.10629676D-02
  0.18395813D-13 -0.14648424D-13 -0.37473881D-14 -0.61125028D-14  0.31269405D-13
  0.52365693D-04  0.33512497D-14  0.33495560D-14 -0.67008057D-14 -0.21038563D-14
 -0.16991413D-14 -0.21502695D-03  0.44612936D-14  0.16676981D-03  0.11922945D-14
  0.32541462D-15  0.19452875D-03 -0.43903303D-13 -0.13709295D-13 -0.69483817D-03
  0.40326419D-13  0.11417236D-13 -0.19710079D-14 -0.81259061D-04  0.70035947D-14
 -0.62324412D-14 -0.12291611D-03 -0.31363794D-14  0.12145465D-13  0.36669329D-03
 -0.17874405D-13  0.47424328D-15 -0.97163880D-11 -0.18165766D-10 -0.31395843D-10
 -0.50781482D-10 -0.76754511D-10 -0.10570685D-09 -0.12355844D-09 -0.10678756D-09
 -0.49838309D-10 -0.67519973D-11  0.49385081D-13 -0.46323425D-13 -0.59548297D-12
 -0.21722363D-11 -0.73290714D-11 -0.16097929D-10 -0.20794134D-10  0.33417942D-11
  0.28033682D-10  0.15384523D-10 -0.63090301D-15 -0.71863775D-14 -0.14921510D-13
 -0.41030364D-13  0.53200579D-14  0.18552062D-12  0.46271789D-12 -0.38303117D-12
  0.78746000D-12  0.12084266D-12  0.10208071D-13  0.44131162D-09  0.57897575D-09
  0.63501109D-09  0.52246800D-09  0.27541542D-09  0.71657912D-10  0.97724270D+01
  0.12820868D+02  0.14061718D+02  0.11569558D+02  0.60988131D+01  0.15867965D+01
  0.78674388D-09  0.10321632D-08  0.11320597D-08  0.93142460D-09  0.49099409D-09
  0.12774743D-09  0.23597511D-14  0.84704755D-13  0.13438622D-12  0.15957951D-12
  0.24148586D-13 -0.17574888D-12  0.96393359D-04  0.34601004D-02  0.54895361D-02
  0.65186557D-02  0.98644443D-03 -0.71791577D-02  0.60692675D-14  0.21786019D-12
  0.34564065D-12  0.41043767D-12  0.62110037D-13 -0.45202521D-12  0.34207067D-11
  0.66518647D-01  0.58515250D-11  0.49420753D-14 -0.57538918D-03 -0.57081706D-13
 -0.75147770D-15 -0.27474135D-04 -0.58580846D-15 -0.26925081D-13 -0.16145600D-13
  0.43070680D-13  0.28212406D-15  0.31284579D-13  0.77032490D-03  0.23140497D-13
 -0.38691187D-14 -0.19271378D-13 -0.20953973D-14 -0.21679706D-13 -0.10811839D-02
 -0.85586380D-15 -0.14962784D-14  0.23521422D-14  0.53736077D-15 -0.68410998D-15
 -0.29976873D-04  0.60974640D-14  0.14794415D-05 -0.64581861D-14 -0.26442116D-14
  0.13084508D-03  0.23097720D-13 -0.15648180D-13 -0.13528341D-03 -0.37231618D-14
  0.31042955D-14  0.49638608D-15  0.33706337D-04 -0.23758627D-14  0.17878738D-14
 -0.22181218D-05  0.34860485D-14 -0.32770320D-14 -0.98900889D-04  0.36415396D-14
 -0.94734781D-15 -0.10704720D-03 -0.19306403D-03 -0.28467281D-03  0.13746150D-03
  0.23684678D-02  0.25551414D-04  0.18658140D-14 -0.18509166D-04  0.26627153D-03
  0.35437261D-15 -0.14232291D-04 -0.32502786D-03 -0.62043040D-14  0.31410993D-03
  0.13272776D-03 -0.49117680D-04 -0.14476519D-03  0.19388287D-03  0.51378822D-14
 -0.51598066D-15 -0.85471669D-05  0.25288596D-04 -0.22498479D-04 -0.27901169D-05
 -0.38369251D-14  0.25987216D-14 -0.11636251D-03  0.10704720D-03  0.19306403D-03
  0.28467281D-03 -0.13746150D-03 -0.23684678D-02 -0.25551414D-04 -0.73168414D-14
 -0.18509166D-04 -0.26627153D-03  0.11920534D-13 -0.14232291D-04  0.32502786D-03
  0.56655102D-16  0.31410993D-03 -0.13272776D-03  0.49117680D-04  0.14476519D-03
 -0.19388287D-03 -0.13281646D-13 -0.16181910D-14 -0.85471670D-05 -0.25288596D-04
  0.22498479D-04  0.27901169D-05  0.24837168D-15  0.62740314D-14 -0.11636251D-03
MO    2     MO 0.0        OCC NO =    2.0000243  ORB. ENERGY =    0.000000
 -0.53358513D-01 -0.99471018D-01 -0.16811957D+00 -0.25271507D+00 -0.31041520D+00
 -0.26197948D+00 -0.98511126D-01 -0.88993961D-05 -0.66517472D-04 -0.24859098D-03
 -0.69353013D-03 -0.92913917D-03  0.10971401D-02 -0.42237009D-02 -0.54970778D-03
 -0.39483063D-04  0.21143094D-12  0.19822995D-12  0.14115153D-12  0.16089756D-12
  0.15085169D-12  0.10741539D-12  0.24031493D-02  0.22531052D-02  0.16043451D-02
  0.41393736D-13 -0.83471001D-13  0.49303531D-04  0.12664789D-14 -0.11044116D-12
 -0.60520063D-03 -0.30942446D-15  0.17846662D-14 -0.47288813D-06  0.19006023D-03
 -0.14579404D-03 -0.44266187D-04 -0.34549713D-15  0.42278973D-13  0.11461399D-12
  0.37885697D-04  0.14680082D-03 -0.18468652D-03  0.55545298D-15 -0.38942052D-13
  0.80718964D-13  0.11035080D-04  0.85534287D-04 -0.96569367D-04 -0.21735100D-15
  0.34084631D-14  0.37082198D-13 -0.73069931D-14 -0.17984472D-13  0.98951253D-05
 -0.63277857D-15  0.17992886D-13 -0.17122006D-03  0.22553758D-13  0.35960529D-13
  0.14153468D-03  0.36898791D-15  0.23629909D-14  0.16585088D-14  0.58678279D-04
  0.84041158D-14  0.73031223D-14  0.10706796D-04 -0.15493088D-13 -0.12278649D-13
 -0.18674163D-03 -0.77957612D-15 -0.12114002D+00 -0.22648346D+00 -0.39143074D+00
 -0.63312309D+00 -0.95694436D+00 -0.13179105D+01 -0.15404769D+01 -0.13313843D+01
 -0.62136399D+00 -0.84181186D-01  0.61571332D-03 -0.15085930D-02 -0.19392811D-01
 -0.70742187D-01 -0.23868239D+00 -0.52425362D+00 -0.67719268D+00  0.10883063D+00
  0.91295959D+00  0.50102045D+00 -0.12531311D-04 -0.14273942D-03 -0.29637850D-03
 -0.81496561D-03  0.10566965D-03  0.36849033D-02  0.91907341D-02 -0.76079566D-02
  0.27972385D-01  0.11462805D-02  0.42690254D-05 -0.69304928D-09 -0.90924124D-09
 -0.99724086D-09 -0.82049974D-09 -0.43252081D-09 -0.11253378D-09 -0.75374634D-09
 -0.98887234D-09 -0.10845789D-08 -0.89235888D-09 -0.47040086D-09 -0.12238946D-09
  0.66582183D+01  0.87352038D+01  0.95806281D+01  0.78826522D+01  0.41552860D+01
  0.10811273D+01 -0.36580912D-14 -0.13130949D-12 -0.20832580D-12 -0.24738050D-12
 -0.37435190D-13  0.27244629D-12 -0.72210185D-14 -0.25920301D-12 -0.41123208D-12
 -0.48832548D-12 -0.73896516D-13  0.53780500D-12  0.55924554D-04  0.20074471D-02
  0.31848652D-02  0.37819298D-02  0.57230566D-03 -0.41651333D-02 -0.53605231D-11
 -0.51038354D-11  0.48629273D-01 -0.10856339D-13  0.52747512D-14 -0.64499539D-03
  0.13324802D-14  0.62350043D-15 -0.13877488D-05 -0.25513587D-03 -0.10219097D-03
  0.35732684D-03  0.35905855D-15 -0.40711594D-13 -0.25683755D-13  0.35813760D-03
 -0.38148453D-03  0.23346932D-04  0.51126968D-15  0.24756079D-13  0.69231642D-13
 -0.53370372D-05 -0.23227796D-04  0.28564833D-04  0.47325484D-16  0.18024513D-14
  0.11807214D-13 -0.86572031D-14  0.45109108D-16 -0.69450525D-04  0.67847572D-14
 -0.57174090D-14  0.20750897D-03  0.19186852D-13  0.55820817D-14  0.84260261D-06
 -0.75759878D-15 -0.39466165D-15 -0.43219989D-15 -0.19639369D-04 -0.24905534D-14
  0.88531067D-15  0.25721196D-04  0.36745384D-14  0.41128899D-15  0.33196912D-04
 -0.34500044D-15 -0.22715740D-04 -0.40968773D-04 -0.60408431D-04 -0.39472923D-03
 -0.44579895D-03  0.30125902D-05  0.87599185D-14  0.20828692D-04  0.90694391D-04
 -0.93940920D-14  0.34014399D-04  0.24914956D-04  0.44814325D-14  0.35913261D-04
 -0.12466552D-03 -0.10029835D-03  0.20192398D-04  0.80105950D-04 -0.10529334D-13
  0.25106507D-14  0.13059268D-03 -0.31340315D-04  0.21828473D-04  0.95118426D-05
  0.26752092D-14 -0.67409903D-14 -0.64604656D-04 -0.22715740D-04 -0.40968773D-04
 -0.60408431D-04 -0.39472923D-03 -0.44579895D-03  0.30125902D-05  0.90669208D-14
 -0.20828692D-04  0.90694391D-04 -0.10672716D-13 -0.34014399D-04  0.24914956D-04
  0.52191762D-14 -0.35913261D-04 -0.12466552D-03 -0.10029835D-03  0.20192398D-04
  0.80105950D-04  0.13339905D-13  0.23174808D-14 -0.13059268D-03 -0.31340315D-04
  0.21828473D-04  0.95118426D-05 -0.28330276D-14 -0.61009682D-14  0.64604656D-04
MO    3     MO 0.0        OCC NO =    2.0000101  ORB. ENERGY =    0.000000
 -0.15142082D+00 -0.28227891D+00 -0.47708981D+00 -0.71715497D+00 -0.88089644D+00
 -0.74344552D+00 -0.27955493D+00 -0.23221665D-04 -0.17356756D-03 -0.64866160D-03
 -0.18096649D-02 -0.24244520D-02  0.28628257D-02 -0.12248095D-01 -0.11496873D-03
 -0.10720171D-03  0.54235859D-12  0.50849566D-12  0.36207920D-12  0.27893708D-13
  0.26152125D-13  0.18621871D-13  0.37167500D-02  0.34846893D-02  0.24813064D-02
  0.98014890D-13  0.28747634D-12  0.55397542D-03  0.12588088D-13  0.51628319D-14
 -0.15675412D-03  0.14881254D-15 -0.22998751D-14 -0.38056284D-05  0.45324970D-03
 -0.44604050D-03 -0.72091987D-05  0.99092398D-15  0.11941245D-12 -0.26542873D-13
 -0.11587333D-03 -0.31505332D-05  0.11902386D-03  0.39185350D-15 -0.11588566D-12
 -0.14189851D-12  0.12950150D-04  0.59424652D-04 -0.72374802D-04  0.22962075D-14
  0.99544800D-14 -0.12220079D-13 -0.16348472D-13  0.11164291D-14  0.71471524D-04
 -0.59800777D-14 -0.54415976D-13 -0.44945019D-03  0.55025494D-13  0.51066689D-13
  0.23503561D-03 -0.69216583D-15  0.57179198D-14  0.90696816D-14  0.11880041D-03
  0.27608907D-13  0.24657206D-15 -0.22290652D-04 -0.44762667D-13 -0.27455617D-13
 -0.33411059D-03  0.18608554D-14  0.11207503D+00  0.20953556D+00  0.36213973D+00
  0.58574609D+00  0.88533561D+00  0.12192904D+01  0.14252020D+01  0.12317560D+01
  0.57486693D+00  0.77881855D-01 -0.56963910D-03  0.14084009D-02  0.18104851D-01
  0.66043895D-01  0.22283046D+00  0.48943569D+00  0.63221741D+00 -0.10160272D+00
 -0.85232603D+00 -0.46774553D+00  0.63422061D-05  0.72241670D-04  0.14999975D-03
  0.41246122D-03 -0.53480333D-04 -0.18649618D-02 -0.46515109D-02  0.38504533D-02
 -0.27764079D-01  0.11071511D-02  0.29058508D-04 -0.18086462D-08 -0.23728409D-08
 -0.26024930D-08 -0.21412528D-08 -0.11287467D-08 -0.29367867D-09 -0.49537398D-09
 -0.64990250D-09 -0.71280238D-09 -0.58647233D-09 -0.30915487D-09 -0.80436281D-10
  0.56958183D+01  0.74725897D+01  0.81958136D+01  0.67432686D+01  0.35546678D+01
  0.92485769D+00 -0.96116775D-14 -0.34501723D-12 -0.54737848D-12 -0.64999516D-12
 -0.98361400D-13  0.71585584D-12 -0.50787602D-14 -0.18230530D-12 -0.28923193D-12
 -0.34345405D-12 -0.51973650D-13  0.37825449D-12  0.36610961D-04  0.13141736D-02
  0.20849693D-02  0.24758371D-02  0.37465941D-03 -0.27267010D-02 -0.14011378D-10
 -0.33680885D-11  0.43851586D-01 -0.32757503D-13  0.58928167D-13 -0.11642457D-03
  0.27544639D-14  0.24085354D-14  0.49747424D-06 -0.15129067D-03 -0.13810999D-03
  0.28940066D-03 -0.58677802D-15 -0.11566739D-12 -0.60387858D-13 -0.11410387D-03
  0.47187310D-03 -0.35776923D-03 -0.14407605D-16  0.75399763D-13  0.50231651D-13
  0.62442712D-05  0.20928071D-05 -0.83370784D-05 -0.61811859D-15  0.66150404D-14
 -0.48205462D-14 -0.24130666D-13 -0.24993420D-14 -0.43865253D-04  0.13761780D-13
 -0.80874843D-14  0.20880846D-03  0.58630219D-13  0.15585510D-13 -0.77212696D-04
 -0.24616397D-14 -0.11499441D-14 -0.28986442D-14 -0.12964730D-04 -0.64923262D-14
 -0.50719948D-15  0.19692658D-04  0.99421585D-14  0.92031319D-14  0.19201532D-04
  0.14151218D-14  0.39073787D-04  0.70471184D-04  0.10390972D-03 -0.35985743D-03
  0.51489010D-05  0.70003592D-05  0.24649597D-13  0.17300006D-03  0.20437333D-03
 -0.36581632D-13  0.12729253D-03  0.17027388D-03  0.12646197D-13  0.74322463D-04
 -0.57727212D-04 -0.23416719D-03  0.11047397D-03  0.12369322D-03 -0.31424275D-13
  0.51212511D-14  0.44848222D-03 -0.63987980D-04  0.95221816D-05  0.54465799D-04
  0.62729479D-14 -0.20213049D-13 -0.58279869D-04  0.39073787D-04  0.70471184D-04
  0.10390972D-03 -0.35985743D-03  0.51489009D-05  0.70003592D-05  0.28341040D-13
 -0.17300006D-03  0.20437333D-03 -0.36006217D-13 -0.12729253D-03  0.17027388D-03
  0.65706090D-14 -0.74322463D-04 -0.57727212D-04 -0.23416719D-03  0.11047397D-03
  0.12369322D-03  0.28530329D-13  0.94405982D-14 -0.44848222D-03 -0.63987980D-04
  0.95221816D-05  0.54465799D-04 -0.54547969D-14 -0.23437777D-13  0.58279869D-04
MO    4     MO 0.0        OCC NO =    2.0000048  ORB. ENERGY =    0.000000
  0.28562353D+00  0.53245980D+00  0.89992960D+00  0.13527620D+01  0.16616259D+01
  0.14023536D+01  0.52732158D+00  0.30298288D-04  0.22646093D-03  0.84633619D-03
  0.23611462D-02  0.31632849D-02 -0.37352497D-02  0.23605956D-01 -0.50971346D-03
 -0.42979458D-05 -0.37514158D-11 -0.35171908D-11 -0.25044494D-11 -0.25554499D-13
 -0.23958968D-13 -0.17060212D-13  0.42404339D-02  0.39756764D-02  0.28309184D-02
 -0.62183329D-12  0.10359650D-12 -0.37406402D-03 -0.58888948D-13  0.95765603D-13
 -0.30680294D-03 -0.13433376D-15  0.30873702D-14 -0.39173032D-05 -0.11867506D-02
  0.61349239D-03  0.57325823D-03  0.22851236D-14 -0.84545651D-12 -0.52624445D-13
  0.18499381D-03  0.11332065D-03 -0.29831446D-03 -0.12562713D-14  0.78126539D-12
 -0.53455015D-13  0.88261532D-05  0.37111473D-04 -0.45937626D-04  0.85779281D-15
 -0.68396126D-13  0.32193912D-14  0.10667165D-12  0.27617430D-14  0.41366215D-03
  0.57794894D-13 -0.13467817D-13  0.19133981D-03 -0.37780985D-12  0.51825883D-14
 -0.14323262D-02 -0.22489400D-15 -0.42862662D-13 -0.34692953D-14 -0.67402093D-04
 -0.17951090D-12 -0.83261937D-14 -0.22500058D-04  0.30809889D-12  0.18734080D-13
  0.22470634D-03  0.15997000D-14  0.36851855D-01  0.68898255D-01  0.11907666D+00
  0.19260160D+00  0.29111087D+00  0.40091993D+00  0.46862658D+00  0.40501878D+00
  0.18902437D+00  0.25608655D-01 -0.18730539D-03  0.46220858D-03  0.59416448D-02
  0.21674266D-01  0.73128437D-01  0.16062286D+00  0.20748093D+00 -0.33343950D-01
 -0.27971611D+00 -0.15350459D+00  0.18370925D-05  0.20925626D-04  0.43449143D-04
  0.11947411D-03 -0.15491190D-04 -0.54020751D-03 -0.13473633D-02  0.11153278D-02
 -0.95157551D-02  0.13104449D-02  0.10623034D-03  0.12339874D-07  0.16189212D-07
  0.17756062D-07  0.14609153D-07  0.77011149D-08  0.20036852D-08  0.35185140D-10
  0.46160902D-10  0.50628519D-10  0.41655621D-10  0.21958475D-10  0.57131821D-11
  0.42425754D+01  0.55660176D+01  0.61047167D+01  0.50227770D+01  0.26477225D+01
  0.68888758D+00  0.65764160D-13  0.23606460D-11  0.37452241D-11  0.44473387D-11
  0.67299957D-12 -0.48979648D-11  0.52535575D-15  0.18857976D-13  0.29918652D-13
  0.35527482D-13  0.53762444D-14 -0.39127299D-13  0.31444498D-04  0.11287201D-02
  0.17907427D-02  0.21264521D-02  0.32178825D-03 -0.23419146D-02  0.95598050D-10
  0.25066384D-12  0.33088951D-01  0.21730054D-12 -0.23102691D-13 -0.34783114D-03
 -0.19386173D-13 -0.52818786D-15 -0.46926965D-05 -0.13522785D-03 -0.23129779D-03
  0.36652565D-03 -0.43346384D-15  0.79650344D-12  0.23423022D-13  0.98567256D-04
  0.33901708D-03 -0.43758434D-03 -0.29873369D-15 -0.51038639D-12 -0.20430953D-13
 -0.10365940D-04 -0.12209641D-04  0.22575581D-04 -0.27064450D-15 -0.42876141D-13
  0.48954095D-14  0.16534682D-12  0.79638171D-15  0.53930757D-04 -0.93915770D-13
  0.22607117D-14 -0.27936293D-04 -0.40212468D-12 -0.46498568D-14 -0.13385598D-03
 -0.11559952D-14  0.86946838D-14  0.99775964D-15 -0.36899431D-04  0.44764687D-13
  0.10600752D-14  0.28898497D-04 -0.70848738D-13 -0.40533541D-14  0.81799797D-04
  0.77240265D-15 -0.30797739D-03 -0.55544991D-03 -0.81901057D-03 -0.53886026D-03
 -0.47516009D-03 -0.71247604D-05 -0.15958484D-12 -0.82647858D-03 -0.37193495D-03
  0.20844363D-12 -0.40937693D-03 -0.27037835D-03 -0.72637115D-13 -0.35224442D-04
 -0.10053624D-03  0.27168666D-03 -0.43508416D-03  0.16339750D-03  0.17760252D-12
 -0.74546394D-13 -0.95005453D-03  0.49515874D-04 -0.24646408D-04 -0.24869466D-04
 -0.50384162D-13  0.14117692D-12 -0.78931605D-04 -0.30797739D-03 -0.55544991D-03
 -0.81901057D-03 -0.53886026D-03 -0.47516009D-03 -0.71247604D-05 -0.15985119D-12
  0.82647858D-03 -0.37193495D-03  0.21189147D-12  0.40937693D-03 -0.27037835D-03
 -0.74518931D-13  0.35224442D-04 -0.10053624D-03  0.27168666D-03 -0.43508416D-03
  0.16339750D-03 -0.17616912D-12 -0.73289233D-13  0.95005453D-03  0.49515874D-04
 -0.24646408D-04 -0.24869466D-04  0.49567106D-13  0.14034706D-12  0.78931605D-04
MO    5     MO 0.0        OCC NO =    2.0000043  ORB. ENERGY =    0.000000
 -0.39474628D-09 -0.73588659D-09 -0.12437486D-08 -0.18695861D-08 -0.22964517D-08
 -0.19381242D-08 -0.72878531D-09 -0.43306853D-13 -0.32369190D-12 -0.12097105D-11
 -0.33749040D-11 -0.45214409D-11  0.53389786D-11 -0.32564978D-10  0.57743562D-12
 -0.12771350D-13 -0.29443597D-02 -0.27605244D-02 -0.19656578D-02  0.54965662D-13
  0.51533802D-13  0.36695137D-13 -0.45280833D-11 -0.42453660D-11 -0.30229535D-11
 -0.49224189D-03  0.39565075D-13  0.61885664D-12 -0.49231200D-04 -0.40527258D-13
  0.32435115D-12 -0.19254490D-06 -0.92075545D-15  0.48829632D-14  0.16043675D-11
 -0.88075260D-12 -0.72361490D-12  0.87694500D-15 -0.66439561D-03  0.36738925D-13
 -0.24994673D-12 -0.14043550D-12  0.39038223D-12  0.43697105D-14  0.61514003D-03
 -0.88972671D-14 -0.79197905D-14 -0.29039329D-13  0.36959119D-13  0.11090175D-14
 -0.53817599D-04  0.14644717D-13  0.83872565D-04 -0.86833582D-14 -0.51095475D-12
  0.44251383D-04 -0.73620854D-14 -0.34509412D-12 -0.29586908D-03  0.33412160D-13
  0.18779584D-11  0.11538816D-14 -0.33411843D-04  0.20598613D-15  0.11099510D-12
 -0.14150792D-03  0.24609695D-14  0.24682163D-13  0.24174345D-03 -0.30789279D-14
 -0.35766747D-12 -0.23846247D-14 -0.18545572D-09 -0.34672814D-09 -0.59924929D-09
 -0.96926102D-09 -0.14650056D-08 -0.20176160D-08 -0.23583474D-08 -0.20382433D-08
 -0.95125877D-09 -0.12887469D-09  0.94260805D-12 -0.42488007D-12 -0.54617905D-11
 -0.19923827D-10 -0.67222498D-10 -0.14765077D-09 -0.19072452D-09  0.30651053D-10
  0.25712590D-09  0.14110738D-09 -0.20890961D-14 -0.23796104D-13 -0.49409290D-13
 -0.13586300D-12  0.17616198D-13  0.61431060D-12  0.15321882D-11 -0.12683232D-11
  0.89150585D-11 -0.13756240D-11 -0.13720534D-12  0.97155647D+01  0.12746268D+02
  0.13979898D+02  0.11502239D+02  0.60633263D+01  0.15775634D+01 -0.44393398D-09
 -0.58241614D-09 -0.63878445D-09 -0.52557261D-09 -0.27705199D-09 -0.72083718D-10
 -0.38562006D-08 -0.50591158D-08 -0.55487552D-08 -0.45653486D-08 -0.24065922D-08
 -0.62615002D-09  0.51730523D-04  0.18568998D-02  0.29460180D-02  0.34983060D-02
  0.52938591D-03 -0.38527715D-02 -0.41725166D-14 -0.14977512D-12 -0.23762198D-12
 -0.28216881D-12 -0.42699578D-13  0.31075953D-12 -0.29337106D-13 -0.10530739D-11
 -0.16707282D-11 -0.19839385D-11 -0.30022219D-12  0.21849608D-11  0.75267323D-01
 -0.30106494D-11 -0.30438611D-10  0.17210705D-03  0.12886182D-13  0.37892765D-12
 -0.15201744D-04  0.12216576D-14  0.62504989D-14  0.12903243D-12  0.26299064D-12
 -0.39202307D-12  0.43926187D-15  0.62529869D-03 -0.18742075D-13 -0.12541611D-12
 -0.36599855D-12  0.49141466D-12 -0.11695020D-14 -0.40073459D-03  0.42938603D-13
  0.14097159D-13  0.14415033D-13 -0.28512191D-13 -0.23539163D-15 -0.34033568D-04
  0.42104822D-14  0.13000867D-03  0.76415260D-15 -0.79227966D-13 -0.73665762D-04
 -0.41415643D-14  0.84900486D-13 -0.31636026D-03  0.18491065D-14  0.15278341D-12
 -0.22917339D-14  0.67242148D-05 -0.81900698D-15  0.43568817D-13  0.35147275D-04
  0.41399060D-15 -0.32208349D-13 -0.55319920D-04  0.20430303D-14 -0.98498102D-13
 -0.17773100D-16  0.40030475D-12  0.72196610D-12  0.10645386D-11  0.62701283D-12
  0.49277797D-12  0.10429418D-13 -0.12774047D-03  0.10867493D-11  0.50887848D-12
  0.16801696D-03  0.57517642D-12  0.38824534D-12 -0.57091943D-04  0.53145568D-13
  0.10580166D-12 -0.39671150D-12  0.59420148D-12 -0.19748998D-12  0.14046449D-03
 -0.57352988D-04  0.13126186D-11 -0.78941690D-13  0.37162195D-13  0.41779496D-13
 -0.38190187D-04  0.11114934D-03  0.89162794D-13  0.39062312D-12  0.70450488D-12
  0.10387920D-11  0.59340252D-12  0.65726956D-12  0.11195030D-13 -0.12774047D-03
 -0.10870083D-11  0.52660064D-12  0.16801696D-03 -0.53871220D-12  0.37924697D-12
 -0.57091943D-04 -0.73871902D-13  0.10692455D-12 -0.39608467D-12  0.56584153D-12
 -0.16975686D-12 -0.14046449D-03 -0.57352988D-04 -0.13040980D-11 -0.76159914D-13
  0.33677081D-13  0.42482834D-13  0.38190187D-04  0.11114934D-03 -0.82253742D-13
MO    6     MO 0.0        OCC NO =    2.0000000  ORB. ENERGY =    0.000000
 -0.81019152D-04 -0.15103602D-03 -0.25527145D-03 -0.38372060D-03 -0.47133203D-03
 -0.39778761D-03 -0.14957853D-03  0.49259808D-07  0.36818655D-06  0.13759972D-05
  0.38388179D-05  0.51429577D-05 -0.60728741D-05  0.16610389D-05 -0.30762255D-04
 -0.72435097D-05 -0.76230942D-12 -0.71471353D-12 -0.50891861D-12 -0.28107264D-13
 -0.26352347D-13 -0.18764441D-13  0.14564449D-04  0.13655097D-04  0.97232422D-05
 -0.12210070D-12  0.17597572D-13 -0.38214620D-04 -0.13532491D-13  0.76473285D-13
  0.41049958D-05 -0.49101140D-16  0.18054154D-14 -0.38993919D-06  0.14544732D-05
  0.89095140D-05 -0.10363987D-04  0.17648828D-15 -0.15918200D-12 -0.24647386D-13
  0.63083634D-05  0.43053870D-05 -0.10613750D-04  0.20055496D-14  0.15149022D-12
 -0.11614224D-13  0.63676918D-06 -0.91534919D-06  0.27858001D-06  0.22895541D-16
 -0.14826237D-13  0.70275192D-14  0.20498183D-13  0.96946812D-15  0.21238042D-05
  0.13549089D-13  0.62459154D-14  0.38991549D-06 -0.75043638D-13 -0.91543198D-14
 -0.67613282D-05 -0.41726112D-14 -0.85532558D-14 -0.52329657D-14 -0.38218275D-06
 -0.35853479D-13 -0.69211264D-14  0.61670849D-06  0.61513247D-13  0.22620023D-13
  0.52983976D-06  0.54771001D-15  0.58266944D+00  0.10893592D+01  0.18827365D+01
  0.30452487D+01  0.46027915D+01  0.63389969D+01  0.74095154D+01  0.64038042D+01
  0.29886888D+01  0.40490175D+00 -0.29615097D-02 -0.29342927D-04 -0.37720037D-03
 -0.13759727D-02 -0.46424979D-02 -0.10197008D-01 -0.13171754D-01  0.21168129D-02
  0.17757544D-01  0.97451110D-02  0.19754255D-06  0.22501324D-05  0.46720860D-05
  0.12847050D-04 -0.16657676D-05 -0.58088509D-04 -0.14488197D-03  0.11993119D-03
  0.13965412D-04 -0.17649982D-04  0.32767858D-05  0.25156771D-08  0.33004253D-08
  0.36198523D-08  0.29783054D-08  0.15699933D-08  0.40848272D-09  0.99318255D-10
  0.13029990D-09  0.14291079D-09  0.11758270D-09  0.61982912D-10  0.16126788D-10
  0.11195421D-01  0.14687756D-01  0.16109290D-01  0.13254238D-01  0.69868807D-02
  0.18178549D-02  0.13354877D-13  0.47938174D-12  0.76055115D-12  0.90313116D-12
  0.13666755D-12 -0.99464081D-12  0.12783652D-14  0.45887726D-13  0.72802028D-13
  0.86450175D-13  0.13082190D-13 -0.95209729D-13  0.70487769D-06  0.25302029D-04
  0.40142304D-04  0.47667754D-04  0.72133877D-05 -0.52497684D-04  0.19489865D-10
  0.69060167D-12  0.16289493D-03  0.47347481D-13 -0.29330109D-13  0.52682951D-05
 -0.39088753D-14 -0.45023492D-15 -0.34012973D-07 -0.58156853D-05 -0.37582501D-05
  0.95739354D-05 -0.47573178D-15  0.15820081D-12  0.31985371D-13  0.91721960D-05
 -0.15973947D-04  0.68017508D-05  0.82891528D-15 -0.10165034D-12 -0.21055012D-13
  0.59383668D-06  0.49059624D-06 -0.10844329D-05  0.15220300D-16 -0.94554555D-14
  0.47117483D-14  0.33408572D-13  0.83965346D-15 -0.69855040D-05 -0.19725898D-13
  0.37916845D-14  0.12190904D-04 -0.80499816D-13 -0.63106449D-14  0.87656083D-05
  0.86645533D-15  0.14884779D-14  0.13770480D-14 -0.59022640D-07  0.89516609D-14
  0.69625411D-15 -0.80329705D-08 -0.13417094D-13 -0.48273981D-14  0.18510089D-06
  0.19896259D-15 -0.12366590D-05 -0.22303654D-05 -0.32886725D-05  0.30145099D-05
  0.17402063D-04  0.23761540D-06 -0.30699267D-13 -0.58385374D-05 -0.14812753D-05
  0.40298069D-13  0.10011144D-05 -0.14152967D-05 -0.15502431D-13  0.75792599D-06
  0.25176794D-05 -0.24406386D-05 -0.16077911D-05  0.40484298D-05  0.35744007D-13
 -0.17473639D-13 -0.20754527D-05 -0.38819608D-07 -0.43384807D-06  0.47266768D-06
 -0.11192795D-13  0.28641558D-13 -0.18462336D-05 -0.12366590D-05 -0.22303654D-05
 -0.32886725D-05  0.30145098D-05  0.17402063D-04  0.23761539D-06 -0.30232621D-13
  0.58385374D-05 -0.14812753D-05  0.38095318D-13 -0.10011144D-05 -0.14152967D-05
 -0.15690903D-13 -0.75792596D-06  0.25176794D-05 -0.24406386D-05 -0.16077911D-05
  0.40484298D-05 -0.32950654D-13 -0.18804978D-13  0.20754527D-05 -0.38819605D-07