 Entering Gaussian System, Link 0=/home/bruns/programas/chemistry/gaussian/g09/g09
 Input=GAUSSIAN.com
 Output=GAUSSIAN.log
 Initial command:
 /home/bruns/programas/chemistry/gaussian/g09/l1.exe /home/bruns/programas/chemistry/gaussian/work/Gau-23902.inp -scrdir=/home/bruns/programas/chemistry/gaussian/work/
 Entering Link 1 = /home/bruns/programas/chemistry/gaussian/g09/l1.exe PID=     23904.
  
 Copyright (c) 1988,1990,1992,1993,1995,1998,2003,2009,2010,
            Gaussian, Inc.  All Rights Reserved.
  
 This is part of the Gaussian(R) 09 program.  It is based on
 the Gaussian(R) 03 system (copyright 2003, Gaussian, Inc.),
 the Gaussian(R) 98 system (copyright 1998, Gaussian, Inc.),
 the Gaussian(R) 94 system (copyright 1995, Gaussian, Inc.),
 the Gaussian 92(TM) system (copyright 1992, Gaussian, Inc.),
 the Gaussian 90(TM) system (copyright 1990, Gaussian, Inc.),
 the Gaussian 88(TM) system (copyright 1988, Gaussian, Inc.),
 the Gaussian 86(TM) system (copyright 1986, Carnegie Mellon
 University), and the Gaussian 82(TM) system (copyright 1983,
 Carnegie Mellon University). Gaussian is a federally registered
 trademark of Gaussian, Inc.
  
 This software contains proprietary and confidential information,
 including trade secrets, belonging to Gaussian, Inc.
  
 This software is provided under written license and may be
 used, copied, transmitted, or stored only in accord with that
 written license.
  
 The following legend is applicable only to US Government
 contracts under FAR:
  
                    RESTRICTED RIGHTS LEGEND
  
 Use, reproduction and disclosure by the US Government is
 subject to restrictions as set forth in subparagraphs (a)
 and (c) of the Commercial Computer Software - Restricted
 Rights clause in FAR 52.227-19.
  
 Gaussian, Inc.
 340 Quinnipiac St., Bldg. 40, Wallingford CT 06492
  
  
 ---------------------------------------------------------------
 Warning -- This program may not be used in any manner that
 competes with the business of Gaussian, Inc. or will provide
 assistance to any competitor of Gaussian, Inc.  The licensee
 of this program is prohibited from giving any competitor of
 Gaussian, Inc. access to this program.  By using this program,
 the user acknowledges that Gaussian, Inc. is engaged in the
 business of creating and licensing software in the field of
 computational chemistry and represents and warrants to the
 licensee that it is not a competitor of Gaussian, Inc. and that
 it will not use this program in any manner prohibited above.
 ---------------------------------------------------------------
  

 Cite this work as:
 Gaussian 09, Revision B.01,
 M. J. Frisch, G. W. Trucks, H. B. Schlegel, G. E. Scuseria, 
 M. A. Robb, J. R. Cheeseman, G. Scalmani, V. Barone, B. Mennucci, 
 G. A. Petersson, H. Nakatsuji, M. Caricato, X. Li, H. P. Hratchian, 
 A. F. Izmaylov, J. Bloino, G. Zheng, J. L. Sonnenberg, M. Hada, 
 M. Ehara, K. Toyota, R. Fukuda, J. Hasegawa, M. Ishida, T. Nakajima, 
 Y. Honda, O. Kitao, H. Nakai, T. Vreven, J. A. Montgomery, Jr., 
 J. E. Peralta, F. Ogliaro, M. Bearpark, J. J. Heyd, E. Brothers, 
 K. N. Kudin, V. N. Staroverov, T. Keith, R. Kobayashi, J. Normand, 
 K. Raghavachari, A. Rendell, J. C. Burant, S. S. Iyengar, J. Tomasi, 
 M. Cossi, N. Rega, J. M. Millam, M. Klene, J. E. Knox, J. B. Cross, 
 V. Bakken, C. Adamo, J. Jaramillo, R. Gomperts, R. E. Stratmann, 
 O. Yazyev, A. J. Austin, R. Cammi, C. Pomelli, J. W. Ochterski, 
 R. L. Martin, K. Morokuma, V. G. Zakrzewski, G. A. Voth, 
 P. Salvador, J. J. Dannenberg, S. Dapprich, A. D. Daniels, 
 O. Farkas, J. B. Foresman, J. V. Ortiz, J. Cioslowski, 
 and D. J. Fox, Gaussian, Inc., Wallingford CT, 2010.
 
 ******************************************
 Gaussian 09:  EM64L-G09RevB.01 12-Aug-2010
                17-Nov-2021 
 ******************************************
 %nproc=8
 Will use up to    8 processors via shared memory.
 %mem=8GB
 -----------------------------------------------------
 # qcisd/aug-cc-pvtz nosymm density=current output=wfn
 -----------------------------------------------------
 1/30=1,38=1/1;
 2/12=2,15=1,17=6,18=5,40=1/2;
 3/5=16,6=1,7=10,11=9,16=1,25=1,30=1,71=1/1,2,3;
 4//1;
 5/5=2,38=5/2;
 8/6=4,9=120000,10=1/1,4;
 9/5=8,15=1/13;
 11/28=-7,31=1,32=3,42=3/11;
 10/5=6,13=10,31=1/2;
 6/7=2,8=2,9=2,10=2,22=-1,31=1/1;
 99/5=1,6=1100,9=1/99;
 -----------------
 h2cs-wavefunction
 -----------------
 Symbolic Z-matrix:
 Charge =  0 Multiplicity = 1
 C                     0.        0.       -0.54529 
 S                     0.        0.        1.06037 
 H                     0.       -0.92228  -1.12899 
 H                     0.        0.92228  -1.12899 
 
                          Input orientation:                          
 ---------------------------------------------------------------------
 Center     Atomic      Atomic             Coordinates (Angstroms)
 Number     Number       Type             X           Y           Z
 ---------------------------------------------------------------------
      1          6           0        0.000000    0.000000   -0.545291
      2         16           0        0.000000    0.000000    1.060374
      3          1           0        0.000000   -0.922280   -1.128992
      4          1           0        0.000000    0.922280   -1.128992
 ---------------------------------------------------------------------
                    Distance matrix (angstroms):
                    1          2          3          4
     1  C    0.000000
     2  S    1.605665   0.000000
     3  H    1.091470   2.375694   0.000000
     4  H    1.091470   2.375694   1.844560   0.000000
 Symmetry turned off by external request.
 Stoichiometry    CH2S
 Framework group  C2V[C2(CS),SGV(H2)]
 Deg. of freedom     3
 Full point group                 C2V     NOp   4
 Rotational constants (GHZ):    294.7653806     17.7917325     16.7789712
 Standard basis: Aug-CC-pVTZ (5D, 7F)
 Integral buffers will be    131072 words long.
 Raffenetti 1 integral format.
 Two-electron integral symmetry is turned off.
   142 basis functions,   240 primitive gaussians,   164 cartesian basis functions
    12 alpha electrons       12 beta electrons
       nuclear repulsion energy        44.8713366312 Hartrees.
 NAtoms=    4 NActive=    4 NUniq=    4 SFac= 1.00D+00 NAtFMM=   50 NAOKFM=F Big=F
 One-electron integrals computed using PRISM.
 NBasis=   142 RedAO= T  NBF=   142
 NBsUse=   142 1.00D-06 NBFU=   142
 Harris functional with IExCor=  205 diagonalized for initial guess.
 ExpMin= 2.53D-02 ExpMax= 3.74D+05 ExpMxC= 1.18D+03 IAcc=3 IRadAn=         0 AccDes= 0.00D+00
 HarFok:  IExCor=  205 AccDes= 0.00D+00 IRadAn=         0 IDoV= 1
 ScaDFX=  1.000000  1.000000  1.000000  1.000000
 FoFCou: FMM=F IPFlag=           0 FMFlag=      100000 FMFlg1=           0
         NFxFlg=           0 DoJE=T BraDBF=F KetDBF=T FulRan=T
         Omega=  0.000000  0.000000  1.000000  0.000000  0.000000 ICntrl=     500 IOpCl=  0
         NMat0=    1 NMatS0=    1 NMatT0=    0 NMatD0=    1 NMtDS0=    0 NMtDT0=    0
         I1Cent=           4 NGrid=           0.
 Symmetry not used in FoFCou.
 Requested convergence on RMS density matrix=1.00D-08 within 128 cycles.
 Requested convergence on MAX density matrix=1.00D-06.
 Requested convergence on             energy=1.00D-06.
 No special actions if energy rises.
 Keep R1 ints in memory in canonical form, NReq=93884347.
 SCF Done:  E(RHF) =  -436.557710315     A.U. after   11 cycles
             Convg  =    0.5928D-08             -V/T =  2.0002
 ExpMin= 2.53D-02 ExpMax= 3.74D+05 ExpMxC= 1.18D+03 IAcc=3 IRadAn=         5 AccDes= 0.00D+00
 HarFok:  IExCor=  205 AccDes= 0.00D+00 IRadAn=         5 IDoV=-2
 ScaDFX=  1.000000  1.000000  1.000000  1.000000
 Range of M.O.s used for correlation:     7   142
 NBasis=   142 NAE=    12 NBE=    12 NFC=     6 NFV=     0
 NROrb=    136 NOA=     6 NOB=     6 NVA=   130 NVB=   130

 **** Warning!!: The largest alpha MO coefficient is  0.44325775D+02

 Semi-Direct transformation.
 ModeAB=           2 MOrb=             6 LenV=    1073081925
 LASXX=      7286295 LTotXX=     7286295 LenRXX=     7286295
 LTotAB=     7445736 MaxLAS=    11040480 LenRXY=    11040480
 NonZer=    14572590 LenScr=    22628352 LnRSAI=           0
 LnScr1=           0 LExtra=           0 Total=     40955127
 MaxDsk=          -1 SrtSym=           F ITran=            4
 JobTyp=0 Pass  1:  I=   1 to   6.
 (rs|ai) integrals will be sorted in core.
 Spin components of T(2) and E(2):
     alpha-alpha T2 =       0.1678066364D-01 E2=     -0.3866236032D-01
     alpha-beta  T2 =       0.1048150794D+00 E2=     -0.2633194123D+00
     beta-beta   T2 =       0.1678066364D-01 E2=     -0.3866236032D-01
 ANorm=    0.1066947237D+01
 E2 =    -0.3406441329D+00 EUMP2 =    -0.43689835444741D+03
 R2 and R3 integrals will be kept in memory, NReq=   185320410.
 Iterations=  50 Convergence= 0.100D-07
 Iteration Nr.   1
 **********************
 DD1Dir will call FoFMem   1 times, MxPair=        42
 NAB=    21 NAA=     0 NBB=     0.
 MP4(R+Q)=  0.11588080D-01
 E3=       -0.22861750D-01        EUMP3=      -0.43692121620D+03
 E4(DQ)=    0.16032759D-02        UMP4(DQ)=   -0.43691961292D+03
 E4(SDQ)=  -0.18041035D-02        UMP4(SDQ)=  -0.43692302030D+03
 DE(Corr)= -0.35191780     E(Corr)=     -436.90962812    
 NORM(A)=   0.10736127D+01
 Iteration Nr.   2
 **********************
 DD1Dir will call FoFMem   1 times, MxPair=        42
 NAB=    21 NAA=     0 NBB=     0.
 DE(Corr)= -0.36322390     E(CORR)=     -436.92093422     Delta=-1.13D-02
 NORM(A)=   0.10808770D+01
 Iteration Nr.   3
 **********************
 DD1Dir will call FoFMem   1 times, MxPair=        42
 NAB=    21 NAA=     0 NBB=     0.
 DE(Corr)= -0.36417377     E(CORR)=     -436.92188408     Delta=-9.50D-04
 NORM(A)=   0.10832057D+01
 Iteration Nr.   4
 **********************
 DD1Dir will call FoFMem   1 times, MxPair=        42
 NAB=    21 NAA=     0 NBB=     0.
 DE(Corr)= -0.36546670     E(CORR)=     -436.92317701     Delta=-1.29D-03
 NORM(A)=   0.10841394D+01
 Iteration Nr.   5
 **********************
 DD1Dir will call FoFMem   1 times, MxPair=        42
 NAB=    21 NAA=     0 NBB=     0.
 DE(Corr)= -0.36565507     E(CORR)=     -436.92336538     Delta=-1.88D-04
 NORM(A)=   0.10844766D+01
 Iteration Nr.   6
 **********************
 DD1Dir will call FoFMem   1 times, MxPair=        42
 NAB=    21 NAA=     0 NBB=     0.
 DE(Corr)= -0.36568541     E(CORR)=     -436.92339572     Delta=-3.03D-05
 NORM(A)=   0.10844895D+01
 Iteration Nr.   7
 **********************
 DD1Dir will call FoFMem   1 times, MxPair=        42
 NAB=    21 NAA=     0 NBB=     0.
 DE(Corr)= -0.36568665     E(CORR)=     -436.92339697     Delta=-1.25D-06
 NORM(A)=   0.10845003D+01
 Iteration Nr.   8
 **********************
 DD1Dir will call FoFMem   1 times, MxPair=        42
 NAB=    21 NAA=     0 NBB=     0.
 DE(Corr)= -0.36568382     E(CORR)=     -436.92339413     Delta= 2.84D-06
 NORM(A)=   0.10844995D+01
 Iteration Nr.   9
 **********************
 DD1Dir will call FoFMem   1 times, MxPair=        42
 NAB=    21 NAA=     0 NBB=     0.
 DE(Corr)= -0.36568613     E(CORR)=     -436.92339645     Delta=-2.31D-06
 NORM(A)=   0.10845006D+01
 Iteration Nr.  10
 **********************
 DD1Dir will call FoFMem   1 times, MxPair=        42
 NAB=    21 NAA=     0 NBB=     0.
 DE(Corr)= -0.36568585     E(CORR)=     -436.92339617     Delta= 2.80D-07
 NORM(A)=   0.10845014D+01
 Iteration Nr.  11
 **********************
 DD1Dir will call FoFMem   1 times, MxPair=        42
 NAB=    21 NAA=     0 NBB=     0.
 DE(Corr)= -0.36568635     E(CORR)=     -436.92339666     Delta=-4.99D-07
 NORM(A)=   0.10845019D+01
 Iteration Nr.  12
 **********************
 DD1Dir will call FoFMem   1 times, MxPair=        42
 NAB=    21 NAA=     0 NBB=     0.
 DE(Corr)= -0.36568646     E(CORR)=     -436.92339677     Delta=-1.06D-07
 NORM(A)=   0.10845023D+01
 Iteration Nr.  13
 **********************
 DD1Dir will call FoFMem   1 times, MxPair=        42
 NAB=    21 NAA=     0 NBB=     0.
 DE(Corr)= -0.36568654     E(CORR)=     -436.92339686     Delta=-8.68D-08
 NORM(A)=   0.10845025D+01
 Iteration Nr.  14
 **********************
 DD1Dir will call FoFMem   1 times, MxPair=        42
 NAB=    21 NAA=     0 NBB=     0.
 DE(Corr)= -0.36568657     E(CORR)=     -436.92339688     Delta=-2.70D-08
 NORM(A)=   0.10845025D+01
 Iteration Nr.  15
 **********************
 DD1Dir will call FoFMem   1 times, MxPair=        42
 NAB=    21 NAA=     0 NBB=     0.
 DE(Corr)= -0.36568658     E(CORR)=     -436.92339689     Delta=-8.70D-09
 NORM(A)=   0.10845025D+01
 Iteration Nr.  16
 **********************
 DD1Dir will call FoFMem   1 times, MxPair=        42
 NAB=    21 NAA=     0 NBB=     0.
 DE(Corr)= -0.36568658     E(CORR)=     -436.92339689     Delta=-1.30D-09
 NORM(A)=   0.10845025D+01
 Dominant configurations:
 ***********************
 Spin Case        I    J    A    B          Value
   ABAB          11   11   14   14      -0.112134D+00
 Largest amplitude= 1.12D-01

 Z-AMPLITUDE ITERATIONS

 Iteration Nr.   1
 **********************
 DD1Dir will call FoFMem   1 times, MxPair=        42
 NAB=    21 NAA=     0 NBB=     0.
 DE(Z)  -0.34981917D+00          E(Z)=    -0.43690752948D+03
 NORM(A)=   0.10844970D+01
 Iteration Nr.   2
 **********************
 DD1Dir will call FoFMem   1 times, MxPair=        42
 NAB=    21 NAA=     0 NBB=     0.
 DE(Z)  -0.34981891D+00          E(Z)=    -0.43690752922D+03
 NORM(A)=   0.10845181D+01
 Iteration Nr.   3
 **********************
 DD1Dir will call FoFMem   1 times, MxPair=        42
 NAB=    21 NAA=     0 NBB=     0.
 DE(Z)  -0.34981993D+00          E(Z)=    -0.43690753024D+03
 NORM(A)=   0.10844911D+01
 Iteration Nr.   4
 **********************
 DD1Dir will call FoFMem   1 times, MxPair=        42
 NAB=    21 NAA=     0 NBB=     0.
 DE(Z)  -0.34981861D+00          E(Z)=    -0.43690752893D+03
 NORM(A)=   0.10844598D+01
 Iteration Nr.   5
 **********************
 DD1Dir will call FoFMem   1 times, MxPair=        42
 NAB=    21 NAA=     0 NBB=     0.
 DE(Z)  -0.34981705D+00          E(Z)=    -0.43690752737D+03
 NORM(A)=   0.10764297D+01
 Iteration Nr.   6
 **********************
 DD1Dir will call FoFMem   1 times, MxPair=        42
 NAB=    21 NAA=     0 NBB=     0.
 DE(Z)  -0.34940807D+00          E(Z)=    -0.43690711838D+03
 NORM(A)=   0.10764257D+01
 Iteration Nr.   7
 **********************
 DD1Dir will call FoFMem   1 times, MxPair=        42
 NAB=    21 NAA=     0 NBB=     0.
 DE(Z)  -0.34940682D+00          E(Z)=    -0.43690711713D+03
 NORM(A)=   0.10764239D+01
 Iteration Nr.   8
 **********************
 DD1Dir will call FoFMem   1 times, MxPair=        42
 NAB=    21 NAA=     0 NBB=     0.
 DE(Z)  -0.34940689D+00          E(Z)=    -0.43690711720D+03
 NORM(A)=   0.10764239D+01
 Iteration Nr.   9
 **********************
 DD1Dir will call FoFMem   1 times, MxPair=        42
 NAB=    21 NAA=     0 NBB=     0.
 DE(Z)  -0.34940681D+00          E(Z)=    -0.43690711713D+03
 NORM(A)=   0.10764239D+01
 Iteration Nr.  10
 **********************
 DD1Dir will call FoFMem   1 times, MxPair=        42
 NAB=    21 NAA=     0 NBB=     0.
 DE(Z)  -0.34940685D+00          E(Z)=    -0.43690711716D+03
 NORM(A)=   0.10764240D+01
 Iteration Nr.  11
 **********************
 DD1Dir will call FoFMem   1 times, MxPair=        42
 NAB=    21 NAA=     0 NBB=     0.
 DE(Z)  -0.34940685D+00          E(Z)=    -0.43690711716D+03
 NORM(A)=   0.10764240D+01
 Discarding MO integrals.
          Differentiating once with respect to electric field.
                with respect to dipole field.
          Electric field/nuclear overlap derivatives assumed to be zero.
          Keep R1 ints in memory in canonical form, NReq=93478140.
          There are     1 degrees of freedom in the 1st order CPHF.  IDoFFX=0.
 LinEq1:  Iter=  0 NonCon=     1 RMS=2.91D-03 Max=4.34D-02
 AX will form     1 AO Fock derivatives at one time.
 LinEq1:  Iter=  1 NonCon=     1 RMS=9.82D-04 Max=1.16D-02
 LinEq1:  Iter=  2 NonCon=     1 RMS=4.65D-04 Max=1.28D-02
 LinEq1:  Iter=  3 NonCon=     1 RMS=1.55D-04 Max=2.39D-03
 LinEq1:  Iter=  4 NonCon=     1 RMS=3.91D-05 Max=5.26D-04
 LinEq1:  Iter=  5 NonCon=     1 RMS=8.58D-06 Max=9.65D-05
 LinEq1:  Iter=  6 NonCon=     1 RMS=1.54D-06 Max=2.19D-05
 LinEq1:  Iter=  7 NonCon=     1 RMS=1.98D-07 Max=2.64D-06
 LinEq1:  Iter=  8 NonCon=     1 RMS=2.25D-08 Max=2.23D-07
 LinEq1:  Iter=  9 NonCon=     1 RMS=3.58D-09 Max=3.66D-08
 LinEq1:  Iter= 10 NonCon=     1 RMS=5.06D-10 Max=5.75D-09
 LinEq1:  Iter= 11 NonCon=     0 RMS=6.21D-11 Max=6.17D-10
 Linear equations converged to 1.000D-10 1.000D-09 after    11 iterations.
 End of Minotr Frequency-dependent properties file   721 does not exist.
 End of Minotr Frequency-dependent properties file   722 does not exist.

 **********************************************************************

            Population analysis using the QCI/CC density.

 **********************************************************************

     Natural Orbital Coefficients:
                           1         2         3         4         5
     Eigenvalues --     2.00003   2.00002   2.00001   2.00000   2.00000
   1 1   C  1S          0.00000  -0.16379  -0.44118   0.86090   0.00000
   2        2S          0.00000   0.00318   0.00789  -0.01050   0.00000
   3        3S          0.00000  -0.00654  -0.01800   0.03588   0.00000
   4        4S          0.00000  -0.00368  -0.00052  -0.00303   0.00000
   5        5S          0.00000  -0.00067  -0.00158   0.00003   0.00000
   6        6PX         0.00000   0.00000   0.00000   0.00000  -0.00138
   7        6PY        -0.00069   0.00000   0.00000   0.00000   0.00000
   8        6PZ         0.00000   0.00116   0.00176   0.00191   0.00000
   9        7PX         0.00000   0.00000   0.00000   0.00000  -0.00114
  10        7PY        -0.00150   0.00000   0.00000   0.00000   0.00000
  11        7PZ         0.00000   0.00012   0.00131  -0.00082   0.00000
  12        8PX         0.00000   0.00000   0.00000   0.00000  -0.00049
  13        8PY         0.01591   0.00000   0.00000   0.00000   0.00000
  14        8PZ         0.00000  -0.00622  -0.00158  -0.00291   0.00000
  15        9PX         0.00000   0.00000   0.00000   0.00000  -0.00001
  16        9PY         0.00136   0.00000   0.00000   0.00000   0.00000
  17        9PZ         0.00000  -0.00003  -0.00017  -0.00015   0.00000
  18       10D 0        0.00000  -0.00002   0.00000   0.00032   0.00000
  19       10D+1        0.00000   0.00000   0.00000   0.00000  -0.00020
  20       10D-1       -0.00032   0.00000   0.00000   0.00000   0.00000
  21       10D+2        0.00000   0.00010   0.00026  -0.00053   0.00000
  22       10D-2        0.00000   0.00000   0.00000   0.00000   0.00000
  23       11D 0        0.00000  -0.00082   0.00056  -0.00130   0.00000
  24       11D+1        0.00000   0.00000   0.00000   0.00000   0.00164
  25       11D-1        0.00022   0.00000   0.00000   0.00000   0.00000
  26       11D+2        0.00000  -0.00030  -0.00031   0.00017   0.00000
  27       11D-2        0.00000   0.00000   0.00000   0.00000   0.00000
  28       12D 0        0.00000  -0.00342  -0.00248  -0.00160   0.00000
  29       12D+1        0.00000   0.00000   0.00000   0.00000  -0.00107
  30       12D-1       -0.00433   0.00000   0.00000   0.00000   0.00000
  31       12D+2        0.00000  -0.00151  -0.00091  -0.00060   0.00000
  32       12D-2        0.00000   0.00000   0.00000   0.00000   0.00000
  33       13F 0        0.00000   0.00001   0.00009   0.00052   0.00000
  34       13F+1        0.00000   0.00000   0.00000   0.00000  -0.00015
  35       13F-1       -0.00036   0.00000   0.00000   0.00000   0.00000
  36       13F+2        0.00000  -0.00010  -0.00021   0.00053   0.00000
  37       13F-2        0.00000   0.00000   0.00000   0.00000   0.00000
  38       13F+3        0.00000   0.00000   0.00000   0.00000   0.00002
  39       13F-3        0.00002   0.00000   0.00000   0.00000   0.00000
  40       14F 0        0.00000   0.00082   0.00157  -0.00087   0.00000
  41       14F+1        0.00000   0.00000   0.00000   0.00000   0.00130
  42       14F-1        0.00204   0.00000   0.00000   0.00000   0.00000
  43       14F+2        0.00000   0.00069   0.00104  -0.00085   0.00000
  44       14F-2        0.00000   0.00000   0.00000   0.00000   0.00000
  45       14F+3        0.00000   0.00000   0.00000   0.00000   0.00044
  46       14F-3       -0.00015   0.00000   0.00000   0.00000   0.00000
  47 2   S  1S          0.00000  -0.20364   0.19567   0.06164   0.00000
  48        2S          0.00000   0.69550  -0.67448  -0.21207   0.00000
  49        3S          0.00000  -0.02011   0.01060   0.00289   0.00000
  50        4S          0.00000   0.04661  -0.04808  -0.01577   0.00000
  51        5S          0.00000   0.00789   0.00723   0.00819   0.00000
  52        6S          0.00000   0.00016   0.00044   0.00130   0.00000
  53        7PX         0.00000   0.00000   0.00000   0.00000   0.97150
  54        7PY         0.97716   0.00000   0.00000   0.00000   0.00000
  55        7PZ         0.00000   0.67685   0.56316   0.41525   0.00000
  56        8PX         0.00000   0.00000   0.00000   0.00000  -0.01114
  57        8PY        -0.02068   0.00000   0.00000   0.00000   0.00000
  58        8PZ         0.00000  -0.01223  -0.00780  -0.00650   0.00000
  59        9PX         0.00000   0.00000   0.00000   0.00000   0.06297
  60        9PY         0.05568   0.00000   0.00000   0.00000   0.00000
  61        9PZ         0.00000   0.04136   0.03628   0.02709   0.00000
  62       10PX         0.00000   0.00000   0.00000   0.00000   0.00190
  63       10PY        -0.00638   0.00000   0.00000   0.00000   0.00000
  64       10PZ         0.00000  -0.00739  -0.00132  -0.00370   0.00000
  65       11PX         0.00000   0.00000   0.00000   0.00000  -0.00070
  66       11PY        -0.00127   0.00000   0.00000   0.00000   0.00000
  67       11PZ         0.00000  -0.00007   0.00002  -0.00020   0.00000
  68       12D 0        0.00000   0.00223   0.00177   0.00213   0.00000
  69       12D+1        0.00000   0.00000   0.00000   0.00000   0.00222
  70       12D-1        0.00276   0.00000   0.00000   0.00000   0.00000
  71       12D+2        0.00000  -0.00054  -0.00004   0.00034   0.00000
  72       12D-2        0.00000   0.00000   0.00000   0.00000   0.00000
  73       13D 0        0.00000   0.00002  -0.00030  -0.00039   0.00000
  74       13D+1        0.00000   0.00000   0.00000   0.00000  -0.00019
  75       13D-1       -0.00053   0.00000   0.00000   0.00000   0.00000
  76       13D+2        0.00000   0.00036  -0.00030  -0.00012   0.00000
  77       13D-2        0.00000   0.00000   0.00000   0.00000   0.00000
  78       14D 0        0.00000   0.00099  -0.00027   0.00073   0.00000
  79       14D+1        0.00000   0.00000   0.00000   0.00000  -0.00066
  80       14D-1       -0.00057   0.00000   0.00000   0.00000   0.00000
  81       14D+2        0.00000   0.00035   0.00007   0.00004   0.00000
  82       14D-2        0.00000   0.00000   0.00000   0.00000   0.00000
  83       15F 0        0.00000  -0.00018  -0.00011   0.00016   0.00000
  84       15F+1        0.00000   0.00000   0.00000   0.00000  -0.00033
  85       15F-1       -0.00014   0.00000   0.00000   0.00000   0.00000
  86       15F+2        0.00000   0.00014   0.00018   0.00007   0.00000
  87       15F-2        0.00000   0.00000   0.00000   0.00000   0.00000
  88       15F+3        0.00000   0.00000   0.00000   0.00000   0.00016
  89       15F-3        0.00010   0.00000   0.00000   0.00000   0.00000
  90       16F 0        0.00000  -0.00042  -0.00028  -0.00076   0.00000
  91       16F+1        0.00000   0.00000   0.00000   0.00000  -0.00048
  92       16F-1       -0.00087   0.00000   0.00000   0.00000   0.00000
  93       16F+2        0.00000  -0.00004   0.00000  -0.00029   0.00000
  94       16F-2        0.00000   0.00000   0.00000   0.00000   0.00000
  95       16F+3        0.00000   0.00000   0.00000   0.00000  -0.00019
  96       16F-3       -0.00024   0.00000   0.00000   0.00000   0.00000
  97 3   H  1S         -0.00043  -0.00010   0.00013  -0.00118   0.00000
  98        2S          0.00036  -0.00136  -0.00126  -0.00174   0.00000
  99        3S          0.01833  -0.00360  -0.00009  -0.00371   0.00000
 100        4S          0.00057   0.00007   0.00015  -0.00016   0.00000
 101        5PX         0.00000   0.00000   0.00000   0.00000  -0.00006
 102        5PY        -0.00001   0.00001   0.00007  -0.00037   0.00000
 103        5PZ         0.00012   0.00004   0.00009  -0.00017   0.00000
 104        6PX         0.00000   0.00000   0.00000   0.00000   0.00037
 105        6PY        -0.00005   0.00007   0.00026  -0.00092   0.00000
 106        6PZ        -0.00079   0.00004   0.00034  -0.00062   0.00000
 107        7PX         0.00000   0.00000   0.00000   0.00000  -0.00070
 108        7PY         0.00383   0.00042   0.00086  -0.00040   0.00000
 109        7PZ         0.00164  -0.00160  -0.00074  -0.00126   0.00000
 110        8D 0        0.00010   0.00004   0.00007   0.00008   0.00000
 111        8D+1        0.00000   0.00000   0.00000   0.00000  -0.00002
 112        8D-1       -0.00001   0.00004   0.00014  -0.00031   0.00000
 113        8D+2        0.00003  -0.00004  -0.00011   0.00023   0.00000
 114        8D-2        0.00000   0.00000   0.00000   0.00000   0.00004
 115        9D 0       -0.00004   0.00007   0.00038  -0.00018   0.00000
 116        9D+1        0.00000   0.00000   0.00000   0.00000   0.00045
 117        9D-1       -0.00048  -0.00027  -0.00024  -0.00032   0.00000
 118        9D+2        0.00020  -0.00022  -0.00029   0.00029   0.00000
 119        9D-2        0.00000   0.00000   0.00000   0.00000  -0.00015
 120 4   H  1S          0.00043  -0.00010   0.00013  -0.00118   0.00000
 121        2S         -0.00036  -0.00136  -0.00126  -0.00174   0.00000
 122        3S         -0.01833  -0.00360  -0.00009  -0.00371   0.00000
 123        4S         -0.00057   0.00007   0.00015  -0.00016   0.00000
 124        5PX         0.00000   0.00000   0.00000   0.00000  -0.00006
 125        5PY        -0.00001  -0.00001  -0.00007   0.00037   0.00000
 126        5PZ        -0.00012   0.00004   0.00009  -0.00017   0.00000
 127        6PX         0.00000   0.00000   0.00000   0.00000   0.00037
 128        6PY        -0.00005  -0.00007  -0.00026   0.00092   0.00000
 129        6PZ         0.00079   0.00004   0.00034  -0.00062   0.00000
 130        7PX         0.00000   0.00000   0.00000   0.00000  -0.00070
 131        7PY         0.00383  -0.00042  -0.00086   0.00040   0.00000
 132        7PZ        -0.00164  -0.00160  -0.00074  -0.00126   0.00000
 133        8D 0       -0.00010   0.00004   0.00007   0.00008   0.00000
 134        8D+1        0.00000   0.00000   0.00000   0.00000  -0.00002
 135        8D-1       -0.00001  -0.00004  -0.00014   0.00031   0.00000
 136        8D+2       -0.00003  -0.00004  -0.00011   0.00023   0.00000
 137        8D-2        0.00000   0.00000   0.00000   0.00000  -0.00004
 138        9D 0        0.00004   0.00007   0.00038  -0.00018   0.00000
 139        9D+1        0.00000   0.00000   0.00000   0.00000   0.00045
 140        9D-1       -0.00048   0.00027   0.00024   0.00032   0.00000
 141        9D+2       -0.00020  -0.00022  -0.00029   0.00029   0.00000
 142        9D-2        0.00000   0.00000   0.00000   0.00000   0.00015
                           6         7         8         9        10
     Eigenvalues --     2.00000   1.97249   1.96165   1.95883   1.94188
   1 1   C  1S         -0.00025  -0.13779   0.07965   0.00000   0.06046
   2        2S         -0.00002   0.36852  -0.22269   0.00000  -0.16745
   3        3S          0.00000   0.08166  -0.05251   0.00000  -0.03907
   4        4S         -0.00018   0.24595  -0.22253   0.00000  -0.08968
   5        5S         -0.00010   0.01890   0.00516   0.00000  -0.00574
   6        6PX         0.00000   0.00000   0.00000   0.00000   0.00000
   7        6PY         0.00000   0.00000   0.00000   0.24686   0.00000
   8        6PZ         0.00001   0.01772   0.16704   0.00000  -0.18249
   9        7PX         0.00000   0.00000   0.00000   0.00000   0.00000
  10        7PY         0.00000   0.00000   0.00000   0.33876   0.00000
  11        7PZ        -0.00009   0.00892   0.21574   0.00000  -0.23106
  12        8PX         0.00000   0.00000   0.00000   0.00000   0.00000
  13        8PY         0.00000   0.00000   0.00000   0.22500   0.00000
  14        8PZ         0.00004  -0.03059   0.10232   0.00000  -0.12769
  15        9PX         0.00000   0.00000   0.00000   0.00000   0.00000
  16        9PY         0.00000   0.00000   0.00000   0.00623   0.00000
  17        9PZ        -0.00002   0.00184   0.00740   0.00000  -0.00610
  18       10D 0       -0.00001   0.00892   0.00879   0.00000  -0.01089
  19       10D+1        0.00000   0.00000   0.00000   0.00000   0.00000
  20       10D-1        0.00000   0.00000   0.00000  -0.01400   0.00000
  21       10D+2        0.00000  -0.00681   0.00991   0.00000  -0.00300
  22       10D-2        0.00000   0.00000   0.00000   0.00000   0.00000
  23       11D 0       -0.00005   0.01020   0.01482   0.00000  -0.01294
  24       11D+1        0.00000   0.00000   0.00000   0.00000   0.00000
  25       11D-1        0.00000   0.00000   0.00000  -0.03883   0.00000
  26       11D+2        0.00000  -0.01715   0.02529   0.00000  -0.00780
  27       11D-2        0.00000   0.00000   0.00000   0.00000   0.00000
  28       12D 0        0.00001  -0.01102  -0.00340   0.00000  -0.00136
  29       12D+1        0.00000   0.00000   0.00000   0.00000   0.00000
  30       12D-1        0.00000   0.00000   0.00000  -0.03795   0.00000
  31       12D+2        0.00003  -0.00425   0.00302   0.00000  -0.00378
  32       12D-2        0.00000   0.00000   0.00000   0.00000   0.00000
  33       13F 0        0.00000   0.00593   0.00135   0.00000  -0.00510
  34       13F+1        0.00000   0.00000   0.00000   0.00000   0.00000
  35       13F-1        0.00000   0.00000   0.00000   0.00581   0.00000
  36       13F+2        0.00000   0.00390  -0.00231   0.00000  -0.00030
  37       13F-2        0.00000   0.00000   0.00000   0.00000   0.00000
  38       13F+3        0.00000   0.00000   0.00000   0.00000   0.00000
  39       13F-3        0.00000   0.00000   0.00000  -0.00234   0.00000
  40       14F 0        0.00000   0.00554  -0.00593   0.00000  -0.00002
  41       14F+1        0.00000   0.00000   0.00000   0.00000   0.00000
  42       14F-1        0.00000   0.00000   0.00000   0.00327   0.00000
  43       14F+2        0.00000   0.00722  -0.00728   0.00000   0.00018
  44       14F-2        0.00000   0.00000   0.00000   0.00000   0.00000
  45       14F+3        0.00000   0.00000   0.00000   0.00000   0.00000
  46       14F-3        0.00000   0.00000   0.00000  -0.00285   0.00000
  47 2   S  1S          0.99625   0.04628   0.04764   0.00000   0.02765
  48        2S          0.01370  -0.17896  -0.18091   0.00000  -0.10726
  49        3S          0.00032   0.36824   0.39269   0.00000   0.24035
  50        4S          0.00002   0.04607   0.05388   0.00000   0.03452
  51        5S         -0.00012   0.19589   0.20842   0.00000   0.32315
  52        6S          0.00004  -0.01649  -0.02874   0.00000   0.05958
  53        7PX         0.00000   0.00000   0.00000   0.00000   0.00000
  54        7PY         0.00000   0.00000   0.00000  -0.04030   0.00000
  55        7PZ         0.00114   0.04301   0.02208   0.00000  -0.18256
  56        8PX         0.00000   0.00000   0.00000   0.00000   0.00000
  57        8PY         0.00000   0.00000   0.00000   0.09284   0.00000
  58        8PZ        -0.00015  -0.05642  -0.03003   0.00000   0.38715
  59        9PX         0.00000   0.00000   0.00000   0.00000   0.00000
  60        9PY         0.00000   0.00000   0.00000   0.04033   0.00000
  61        9PZ         0.00014  -0.03072  -0.01751   0.00000   0.17596
  62       10PX         0.00000   0.00000   0.00000   0.00000   0.00000
  63       10PY         0.00000   0.00000   0.00000   0.03239   0.00000
  64       10PZ         0.00006   0.01416   0.00635   0.00000   0.11918
  65       11PX         0.00000   0.00000   0.00000   0.00000   0.00000
  66       11PY         0.00000   0.00000   0.00000  -0.00189   0.00000
  67       11PZ         0.00000   0.00619   0.00559   0.00000  -0.00323
  68       12D 0        0.00006   0.01222   0.00097   0.00000  -0.02871
  69       12D+1        0.00000   0.00000   0.00000   0.00000   0.00000
  70       12D-1        0.00000   0.00000   0.00000  -0.02271   0.00000
  71       12D+2       -0.00001   0.00039   0.00148   0.00000  -0.00053
  72       12D-2        0.00000   0.00000   0.00000   0.00000   0.00000
  73       13D 0        0.00001   0.02295   0.01031   0.00000  -0.04710
  74       13D+1        0.00000   0.00000   0.00000   0.00000   0.00000
  75       13D-1        0.00000   0.00000   0.00000  -0.02235   0.00000
  76       13D+2        0.00001   0.00111   0.00139   0.00000  -0.00015
  77       13D-2        0.00000   0.00000   0.00000   0.00000   0.00000
  78       14D 0       -0.00004  -0.00917  -0.00484   0.00000   0.00235
  79       14D+1        0.00000   0.00000   0.00000   0.00000   0.00000
  80       14D-1        0.00000   0.00000   0.00000  -0.00235   0.00000
  81       14D+2        0.00000  -0.00120  -0.00205   0.00000  -0.00062
  82       14D-2        0.00000   0.00000   0.00000   0.00000   0.00000
  83       15F 0       -0.00002  -0.00800  -0.00508   0.00000   0.01377
  84       15F+1        0.00000   0.00000   0.00000   0.00000   0.00000
  85       15F-1        0.00000   0.00000   0.00000   0.00877   0.00000
  86       15F+2        0.00000  -0.00042  -0.00044   0.00000   0.00342
  87       15F-2        0.00000   0.00000   0.00000   0.00000   0.00000
  88       15F+3        0.00000   0.00000   0.00000   0.00000   0.00000
  89       15F-3        0.00000   0.00000   0.00000   0.00078   0.00000
  90       16F 0        0.00000   0.00367   0.00284   0.00000  -0.00458
  91       16F+1        0.00000   0.00000   0.00000   0.00000   0.00000
  92       16F-1        0.00000   0.00000   0.00000   0.00083   0.00000
  93       16F+2        0.00000  -0.00047  -0.00072   0.00000   0.00064
  94       16F-2        0.00000   0.00000   0.00000   0.00000   0.00000
  95       16F+3        0.00000   0.00000   0.00000   0.00000   0.00000
  96       16F-3        0.00000   0.00000   0.00000   0.00084   0.00000
  97 3   H  1S          0.00000   0.06589  -0.10171  -0.13936   0.03312
  98        2S          0.00001   0.04885  -0.10281  -0.15730   0.04862
  99        3S          0.00013  -0.03358   0.01468   0.07180   0.01603
 100        4S          0.00001  -0.00021   0.00309   0.00298  -0.00151
 101        5PX         0.00000   0.00000   0.00000   0.00000   0.00000
 102        5PY         0.00000   0.00514  -0.00953  -0.00782   0.00358
 103        5PZ         0.00000   0.00326  -0.00334  -0.00840  -0.00095
 104        6PX         0.00000   0.00000   0.00000   0.00000   0.00000
 105        6PY         0.00000  -0.00375  -0.00226   0.01270   0.00250
 106        6PZ         0.00000  -0.00353   0.00837  -0.00087  -0.00892
 107        7PX         0.00000   0.00000   0.00000   0.00000   0.00000
 108        7PY         0.00001  -0.01016   0.01483   0.03063  -0.00145
 109        7PZ         0.00003  -0.01387   0.00479   0.01307   0.00137
 110        8D 0        0.00000   0.00027   0.00133  -0.00139  -0.00155
 111        8D+1        0.00000   0.00000   0.00000   0.00000   0.00000
 112        8D-1        0.00000   0.00034  -0.00108  -0.00243   0.00010
 113        8D+2        0.00000  -0.00051   0.00158   0.00007  -0.00078
 114        8D-2        0.00000   0.00000   0.00000   0.00000   0.00000
 115        9D 0        0.00000  -0.00009  -0.00029  -0.00184  -0.00049
 116        9D+1        0.00000   0.00000   0.00000   0.00000   0.00000
 117        9D-1       -0.00001  -0.00380   0.00341   0.00350  -0.00052
 118        9D+2        0.00000   0.00151  -0.00072  -0.00294  -0.00020
 119        9D-2        0.00000   0.00000   0.00000   0.00000   0.00000
 120 4   H  1S          0.00000   0.06589  -0.10171   0.13936   0.03312
 121        2S          0.00001   0.04885  -0.10281   0.15730   0.04862
 122        3S          0.00013  -0.03358   0.01468  -0.07180   0.01603
 123        4S          0.00001  -0.00021   0.00309  -0.00298  -0.00151
 124        5PX         0.00000   0.00000   0.00000   0.00000   0.00000
 125        5PY         0.00000  -0.00514   0.00953  -0.00782  -0.00358
 126        5PZ         0.00000   0.00326  -0.00334   0.00840  -0.00095
 127        6PX         0.00000   0.00000   0.00000   0.00000   0.00000
 128        6PY         0.00000   0.00375   0.00226   0.01270  -0.00250
 129        6PZ         0.00000  -0.00353   0.00837   0.00087  -0.00892
 130        7PX         0.00000   0.00000   0.00000   0.00000   0.00000
 131        7PY        -0.00001   0.01016  -0.01483   0.03063   0.00145
 132        7PZ         0.00003  -0.01387   0.00479  -0.01307   0.00137
 133        8D 0        0.00000   0.00027   0.00133   0.00139  -0.00155
 134        8D+1        0.00000   0.00000   0.00000   0.00000   0.00000
 135        8D-1        0.00000  -0.00034   0.00108  -0.00243  -0.00010
 136        8D+2        0.00000  -0.00051   0.00158  -0.00007  -0.00078
 137        8D-2        0.00000   0.00000   0.00000   0.00000   0.00000
 138        9D 0        0.00000  -0.00009  -0.00029   0.00184  -0.00049
 139        9D+1        0.00000   0.00000   0.00000   0.00000   0.00000
 140        9D-1        0.00001   0.00380  -0.00341   0.00350   0.00052
 141        9D+2        0.00000   0.00151  -0.00072   0.00294  -0.00020
 142        9D-2        0.00000   0.00000   0.00000   0.00000   0.00000
                          11        12        13        14        15
     Eigenvalues --     1.94070   1.90054   0.08272   0.03650   0.02682
   1 1   C  1S          0.00000   0.00000   0.00000  -0.11277   0.00000
   2        2S          0.00000   0.00000   0.00000   0.39050   0.00000
   3        3S          0.00000   0.00000   0.00000   0.15897   0.00000
   4        4S          0.00000   0.00000   0.00000   0.16155   0.00000
   5        5S          0.00000   0.00000   0.00000   0.09753   0.00000
   6        6PX         0.00000   0.19059  -0.30177   0.00000   0.00000
   7        6PY        -0.04043   0.00000   0.00000   0.00000   0.26757
   8        6PZ         0.00000   0.00000   0.00000   0.27063   0.00000
   9        7PX         0.00000   0.26619  -0.46013   0.00000   0.00000
  10        7PY        -0.05337   0.00000   0.00000   0.00000   0.62360
  11        7PZ         0.00000   0.00000   0.00000   0.52694   0.00000
  12        8PX         0.00000   0.17803  -0.20538   0.00000   0.00000
  13        8PY        -0.00493   0.00000   0.00000   0.00000   0.18151
  14        8PZ         0.00000   0.00000   0.00000   0.48499   0.00000
  15        9PX         0.00000   0.01309  -0.00568   0.00000   0.00000
  16        9PY        -0.00259   0.00000   0.00000   0.00000  -0.00566
  17        9PZ         0.00000   0.00000   0.00000   0.03785   0.00000
  18       10D 0        0.00000   0.00000   0.00000   0.00444   0.00000
  19       10D+1        0.00000   0.01165  -0.00332   0.00000   0.00000
  20       10D-1        0.01877   0.00000   0.00000   0.00000   0.06857
  21       10D+2        0.00000   0.00000   0.00000   0.00230   0.00000
  22       10D-2        0.00000   0.00000   0.00000   0.00000   0.00000
  23       11D 0        0.00000   0.00000   0.00000   0.09430   0.00000
  24       11D+1        0.00000   0.03298  -0.03865   0.00000   0.00000
  25       11D-1        0.03620   0.00000   0.00000   0.00000   0.03845
  26       11D+2        0.00000   0.00000   0.00000   0.05585   0.00000
  27       11D-2        0.00000   0.00000   0.00000   0.00000   0.00000
  28       12D 0        0.00000   0.00000   0.00000   0.08076   0.00000
  29       12D+1        0.00000   0.01124  -0.01477   0.00000   0.00000
  30       12D-1       -0.02290   0.00000   0.00000   0.00000  -0.02201
  31       12D+2        0.00000   0.00000   0.00000   0.03372   0.00000
  32       12D-2        0.00000   0.00000   0.00000   0.00000   0.00000
  33       13F 0        0.00000   0.00000   0.00000   0.01361   0.00000
  34       13F+1        0.00000   0.00648  -0.00620   0.00000   0.00000
  35       13F-1        0.00450   0.00000   0.00000   0.00000   0.03277
  36       13F+2        0.00000   0.00000   0.00000   0.00240   0.00000
  37       13F-2        0.00000   0.00000   0.00000   0.00000   0.00000
  38       13F+3        0.00000   0.00031   0.00013   0.00000   0.00000
  39       13F-3        0.00143   0.00000   0.00000   0.00000  -0.00416
  40       14F 0        0.00000   0.00000   0.00000  -0.00634   0.00000
  41       14F+1        0.00000   0.00092  -0.01679   0.00000   0.00000
  42       14F-1        0.00093   0.00000   0.00000   0.00000   0.06735
  43       14F+2        0.00000   0.00000   0.00000  -0.03604   0.00000
  44       14F-2        0.00000   0.00000   0.00000   0.00000   0.00000
  45       14F+3        0.00000   0.00053  -0.00501   0.00000   0.00000
  46       14F-3       -0.00052   0.00000   0.00000   0.00000   0.00340
  47 2   S  1S          0.00000   0.00000   0.00000  -0.02429   0.00000
  48        2S          0.00000   0.00000   0.00000   0.06948   0.00000
  49        3S          0.00000   0.00000   0.00000  -0.25183   0.00000
  50        4S          0.00000   0.00000   0.00000   0.00155   0.00000
  51        5S          0.00000   0.00000   0.00000  -0.78768   0.00000
  52        6S          0.00000   0.00000   0.00000  -0.26603   0.00000
  53        7PX         0.00000  -0.17462  -0.20066   0.00000   0.00000
  54        7PY        -0.21534   0.00000   0.00000   0.00000   0.08430
  55        7PZ         0.00000   0.00000   0.00000  -0.19339   0.00000
  56        8PX         0.00000   0.39366   0.53324   0.00000   0.00000
  57        8PY         0.52567   0.00000   0.00000   0.00000  -0.24282
  58        8PZ         0.00000   0.00000   0.00000   0.74239   0.00000
  59        9PX         0.00000   0.15985   0.20802   0.00000   0.00000
  60        9PY         0.22252   0.00000   0.00000   0.00000  -0.12679
  61        9PZ         0.00000   0.00000   0.00000   0.20919   0.00000
  62       10PX         0.00000   0.20681   0.16276   0.00000   0.00000
  63       10PY         0.40588   0.00000   0.00000   0.00000   0.08866
  64       10PZ         0.00000   0.00000   0.00000   0.49749   0.00000
  65       11PX         0.00000   0.00415   0.00192   0.00000   0.00000
  66       11PY         0.04173   0.00000   0.00000   0.00000   0.02511
  67       11PZ         0.00000   0.00000   0.00000   0.03335   0.00000
  68       12D 0        0.00000   0.00000   0.00000   0.10219   0.00000
  69       12D+1        0.00000  -0.03686   0.03888   0.00000   0.00000
  70       12D-1        0.00276   0.00000   0.00000   0.00000  -0.27542
  71       12D+2        0.00000   0.00000   0.00000   0.08987   0.00000
  72       12D-2        0.00000   0.00000   0.00000   0.00000   0.00000
  73       13D 0        0.00000   0.00000   0.00000   0.16775   0.00000
  74       13D+1        0.00000  -0.03556   0.05310   0.00000   0.00000
  75       13D-1       -0.00032   0.00000   0.00000   0.00000  -0.24332
  76       13D+2        0.00000   0.00000   0.00000   0.05620   0.00000
  77       13D-2        0.00000   0.00000   0.00000   0.00000   0.00000
  78       14D 0        0.00000   0.00000   0.00000  -0.06794   0.00000
  79       14D+1        0.00000  -0.00349  -0.01941   0.00000   0.00000
  80       14D-1       -0.01342   0.00000   0.00000   0.00000  -0.02997
  81       14D+2        0.00000   0.00000   0.00000   0.01458   0.00000
  82       14D-2        0.00000   0.00000   0.00000   0.00000   0.00000
  83       15F 0        0.00000   0.00000   0.00000  -0.01919   0.00000
  84       15F+1        0.00000   0.01098  -0.01567   0.00000   0.00000
  85       15F-1        0.00367   0.00000   0.00000   0.00000   0.03143
  86       15F+2        0.00000   0.00000   0.00000  -0.00482   0.00000
  87       15F-2        0.00000   0.00000   0.00000   0.00000   0.00000
  88       15F+3        0.00000   0.00378   0.00210   0.00000   0.00000
  89       15F-3        0.00443   0.00000   0.00000   0.00000   0.00350
  90       16F 0        0.00000   0.00000   0.00000   0.01046   0.00000
  91       16F+1        0.00000  -0.00099   0.00556   0.00000   0.00000
  92       16F-1        0.00188   0.00000   0.00000   0.00000   0.00062
  93       16F+2        0.00000   0.00000   0.00000  -0.01264   0.00000
  94       16F-2        0.00000   0.00000   0.00000   0.00000   0.00000
  95       16F+3        0.00000   0.00242   0.00266   0.00000   0.00000
  96       16F-3        0.00335   0.00000   0.00000   0.00000   0.00214
  97 3   H  1S          0.05306   0.00000   0.00000  -0.03373   0.17917
  98        2S          0.09226   0.00000   0.00000   0.08841   0.57541
  99        3S          0.16580   0.00000   0.00000   0.26606   0.30550
 100        4S          0.01600   0.00000   0.00000   0.01214   0.01276
 101        5PX         0.00000   0.00418  -0.01008   0.00000   0.00000
 102        5PY         0.00266   0.00000   0.00000  -0.00692   0.00648
 103        5PZ         0.00055   0.00000   0.00000   0.00524  -0.01238
 104        6PX         0.00000   0.01424  -0.01679   0.00000   0.00000
 105        6PY        -0.00017   0.00000   0.00000   0.02280   0.15195
 106        6PZ        -0.00198   0.00000   0.00000   0.03841   0.02364
 107        7PX         0.00000   0.00260   0.00874   0.00000   0.00000
 108        7PY         0.01932   0.00000   0.00000   0.04254   0.07403
 109        7PZ        -0.00078   0.00000   0.00000   0.06457   0.01040
 110        8D 0       -0.00094   0.00000   0.00000   0.00248  -0.01074
 111        8D+1        0.00000   0.00137  -0.00296   0.00000   0.00000
 112        8D-1        0.00009   0.00000   0.00000   0.00253  -0.00362
 113        8D+2       -0.00057   0.00000   0.00000   0.00182  -0.00753
 114        8D-2        0.00000   0.00141  -0.00479   0.00000   0.00000
 115        9D 0       -0.00088   0.00000   0.00000   0.00209  -0.00492
 116        9D+1        0.00000   0.00021  -0.00075   0.00000   0.00000
 117        9D-1       -0.00048   0.00000   0.00000   0.01159   0.02932
 118        9D+2        0.00059   0.00000   0.00000   0.00142  -0.02289
 119        9D-2        0.00000   0.00284   0.00386   0.00000   0.00000
 120 4   H  1S         -0.05306   0.00000   0.00000  -0.03373  -0.17917
 121        2S         -0.09226   0.00000   0.00000   0.08841  -0.57541
 122        3S         -0.16580   0.00000   0.00000   0.26606  -0.30550
 123        4S         -0.01600   0.00000   0.00000   0.01214  -0.01276
 124        5PX         0.00000   0.00418  -0.01008   0.00000   0.00000
 125        5PY         0.00266   0.00000   0.00000   0.00692   0.00648
 126        5PZ        -0.00055   0.00000   0.00000   0.00524   0.01238
 127        6PX         0.00000   0.01424  -0.01679   0.00000   0.00000
 128        6PY        -0.00017   0.00000   0.00000  -0.02280   0.15195
 129        6PZ         0.00198   0.00000   0.00000   0.03841  -0.02364
 130        7PX         0.00000   0.00260   0.00874   0.00000   0.00000
 131        7PY         0.01932   0.00000   0.00000  -0.04254   0.07403
 132        7PZ         0.00078   0.00000   0.00000   0.06457  -0.01040
 133        8D 0        0.00094   0.00000   0.00000   0.00248   0.01074
 134        8D+1        0.00000   0.00137  -0.00296   0.00000   0.00000
 135        8D-1        0.00009   0.00000   0.00000  -0.00253  -0.00362
 136        8D+2        0.00057   0.00000   0.00000   0.00182   0.00753
 137        8D-2        0.00000  -0.00141   0.00479   0.00000   0.00000
 138        9D 0        0.00088   0.00000   0.00000   0.00209   0.00492
 139        9D+1        0.00000   0.00021  -0.00075   0.00000   0.00000
 140        9D-1       -0.00048   0.00000   0.00000  -0.01159   0.02932
 141        9D+2       -0.00059   0.00000   0.00000   0.00142   0.02289
 142        9D-2        0.00000  -0.00284  -0.00386   0.00000   0.00000
                          16        17        18        19        20
     Eigenvalues --     0.02043   0.01797   0.01700   0.01597   0.01327
   1 1   C  1S         -0.14839   0.00000   0.08381   0.00000   0.00000
   2        2S          0.57059   0.00000  -0.31858   0.00000   0.00000
   3        3S          0.30423   0.00000  -0.18547   0.00000   0.00000
   4        4S          0.15422   0.00000  -0.32884   0.00000   0.00000
   5        5S         -0.03142   0.00000  -0.08645   0.00000   0.00000
   6        6PX         0.00000   0.00000   0.00000   0.00000   0.08478
   7        6PY         0.00000   0.00000   0.00000   0.44844   0.00000
   8        6PZ        -0.31406   0.00000   0.01931   0.00000   0.00000
   9        7PX         0.00000   0.00000   0.00000   0.00000   0.10784
  10        7PY         0.00000   0.00000   0.00000   0.76573   0.00000
  11        7PZ        -0.55908   0.00000  -0.04075   0.00000   0.00000
  12        8PX         0.00000   0.00000   0.00000   0.00000   0.04305
  13        8PY         0.00000   0.00000   0.00000   0.55074   0.00000
  14        8PZ        -0.29172   0.00000   0.01607   0.00000   0.00000
  15        9PX         0.00000   0.00000   0.00000   0.00000  -0.01059
  16        9PY         0.00000   0.00000   0.00000   0.03086   0.00000
  17        9PZ        -0.02760   0.00000  -0.00998   0.00000   0.00000
  18       10D 0       -0.00636   0.00000   0.00502   0.00000   0.00000
  19       10D+1        0.00000   0.00000   0.00000   0.00000  -0.14829
  20       10D-1        0.00000   0.00000   0.00000  -0.08899   0.00000
  21       10D+2        0.03037   0.00000   0.03986   0.00000   0.00000
  22       10D-2        0.00000   0.04398   0.00000   0.00000   0.00000
  23       11D 0       -0.06066   0.00000   0.01701   0.00000   0.00000
  24       11D+1        0.00000   0.00000   0.00000   0.00000  -0.26634
  25       11D-1        0.00000   0.00000   0.00000  -0.33643   0.00000
  26       11D+2        0.03302   0.00000   0.10866   0.00000   0.00000
  27       11D-2        0.00000   0.08566   0.00000   0.00000   0.00000
  28       12D 0       -0.06008   0.00000  -0.02695   0.00000   0.00000
  29       12D+1        0.00000   0.00000   0.00000   0.00000  -0.04368
  30       12D-1        0.00000   0.00000   0.00000  -0.06887   0.00000
  31       12D+2       -0.04729   0.00000   0.01641   0.00000   0.00000
  32       12D-2        0.00000   0.00787   0.00000   0.00000   0.00000
  33       13F 0       -0.01647   0.00000   0.00233   0.00000   0.00000
  34       13F+1        0.00000   0.00000   0.00000   0.00000  -0.05055
  35       13F-1        0.00000   0.00000   0.00000  -0.02238   0.00000
  36       13F+2        0.01796   0.00000   0.02335   0.00000   0.00000
  37       13F-2        0.00000   0.02603   0.00000   0.00000   0.00000
  38       13F+3        0.00000   0.00000   0.00000   0.00000  -0.01066
  39       13F-3        0.00000   0.00000   0.00000  -0.01927   0.00000
  40       14F 0       -0.01141   0.00000  -0.02274   0.00000   0.00000
  41       14F+1        0.00000   0.00000   0.00000   0.00000  -0.03020
  42       14F-1        0.00000   0.00000   0.00000   0.00385   0.00000
  43       14F+2        0.02706   0.00000  -0.01079   0.00000   0.00000
  44       14F-2        0.00000   0.01985   0.00000   0.00000   0.00000
  45       14F+3        0.00000   0.00000   0.00000   0.00000  -0.00283
  46       14F-3        0.00000   0.00000   0.00000  -0.04741   0.00000
  47 2   S  1S          0.00157   0.00000   0.00491   0.00000   0.00000
  48        2S         -0.00263   0.00000  -0.04149   0.00000   0.00000
  49        3S          0.02245   0.00000   0.01317   0.00000   0.00000
  50        4S         -0.01232   0.00000   0.04014   0.00000   0.00000
  51        5S          0.41514   0.00000   0.14927   0.00000   0.00000
  52        6S          0.18060   0.00000   0.10012   0.00000   0.00000
  53        7PX         0.00000   0.00000   0.00000   0.00000   0.03626
  54        7PY         0.00000   0.00000   0.00000   0.03729   0.00000
  55        7PZ        -0.01813   0.00000   0.04870   0.00000   0.00000
  56        8PX         0.00000   0.00000   0.00000   0.00000   0.00108
  57        8PY         0.00000   0.00000   0.00000  -0.03889   0.00000
  58        8PZ        -0.12217   0.00000  -0.16450   0.00000   0.00000
  59        9PX         0.00000   0.00000   0.00000   0.00000  -0.06663
  60        9PY         0.00000   0.00000   0.00000  -0.05692   0.00000
  61        9PZ         0.03749   0.00000  -0.05916   0.00000   0.00000
  62       10PX         0.00000   0.00000   0.00000   0.00000   0.20507
  63       10PY         0.00000   0.00000   0.00000   0.04387   0.00000
  64       10PZ        -0.30799   0.00000  -0.08027   0.00000   0.00000
  65       11PX         0.00000   0.00000   0.00000   0.00000   0.02049
  66       11PY         0.00000   0.00000   0.00000   0.03019   0.00000
  67       11PZ        -0.02700   0.00000  -0.01210   0.00000   0.00000
  68       12D 0        0.03642   0.00000   0.13191   0.00000   0.00000
  69       12D+1        0.00000   0.00000   0.00000   0.00000   0.44092
  70       12D-1        0.00000   0.00000   0.00000   0.41278   0.00000
  71       12D+2        0.13648   0.00000   0.57128   0.00000   0.00000
  72       12D-2        0.00000   0.59494   0.00000   0.00000   0.00000
  73       13D 0       -0.04175   0.00000   0.05885   0.00000   0.00000
  74       13D+1        0.00000   0.00000   0.00000   0.00000   0.42981
  75       13D-1        0.00000   0.00000   0.00000   0.29931   0.00000
  76       13D+2        0.09962   0.00000   0.41350   0.00000   0.00000
  77       13D-2        0.00000   0.44179   0.00000   0.00000   0.00000
  78       14D 0        0.06502   0.00000   0.04176   0.00000   0.00000
  79       14D+1        0.00000   0.00000   0.00000   0.00000  -0.06960
  80       14D-1        0.00000   0.00000   0.00000   0.06121   0.00000
  81       14D+2        0.01405   0.00000   0.04541   0.00000   0.00000
  82       14D-2        0.00000   0.04789   0.00000   0.00000   0.00000
  83       15F 0        0.00206   0.00000   0.00393   0.00000   0.00000
  84       15F+1        0.00000   0.00000   0.00000   0.00000  -0.06012
  85       15F-1        0.00000   0.00000   0.00000   0.00351   0.00000
  86       15F+2       -0.01453   0.00000  -0.02170   0.00000   0.00000
  87       15F-2        0.00000  -0.00776   0.00000   0.00000   0.00000
  88       15F+3        0.00000   0.00000   0.00000   0.00000  -0.02161
  89       15F-3        0.00000   0.00000   0.00000  -0.00180   0.00000
  90       16F 0       -0.02851   0.00000  -0.01942   0.00000   0.00000
  91       16F+1        0.00000   0.00000   0.00000   0.00000   0.02765
  92       16F-1        0.00000   0.00000   0.00000  -0.02598   0.00000
  93       16F+2       -0.00741   0.00000  -0.02556   0.00000   0.00000
  94       16F-2        0.00000  -0.01070   0.00000   0.00000   0.00000
  95       16F+3        0.00000   0.00000   0.00000   0.00000  -0.00909
  96       16F-3        0.00000   0.00000   0.00000   0.00115   0.00000
  97 3   H  1S         -0.23740   0.00000   0.06087   0.07529   0.00000
  98        2S         -0.60838   0.00000   0.22067   0.71456   0.00000
  99        3S         -0.30600   0.00000   0.11070   0.74463   0.00000
 100        4S         -0.01260   0.00000   0.00200   0.05181   0.00000
 101        5PX         0.00000  -0.00914   0.00000   0.00000   0.02606
 102        5PY         0.01817   0.00000  -0.01007  -0.03317   0.00000
 103        5PZ        -0.00396   0.00000  -0.01219  -0.02012   0.00000
 104        6PX         0.00000  -0.01395   0.00000   0.00000   0.03960
 105        6PY        -0.05721   0.00000  -0.00099   0.10068   0.00000
 106        6PZ        -0.04123   0.00000   0.01109   0.06977   0.00000
 107        7PX         0.00000  -0.00092   0.00000   0.00000  -0.00870
 108        7PY        -0.02519   0.00000   0.01925   0.12212   0.00000
 109        7PZ        -0.04588   0.00000  -0.00854   0.08063   0.00000
 110        8D 0       -0.00732   0.00000   0.00109   0.00395   0.00000
 111        8D+1        0.00000  -0.00345   0.00000   0.00000   0.00289
 112        8D-1        0.00619   0.00000  -0.00551  -0.00911   0.00000
 113        8D+2       -0.00598   0.00000   0.00572   0.01001   0.00000
 114        8D-2        0.00000  -0.00785   0.00000   0.00000   0.01663
 115        9D 0        0.00307   0.00000   0.00310  -0.00779   0.00000
 116        9D+1        0.00000   0.00210   0.00000   0.00000  -0.00204
 117        9D-1       -0.00003   0.00000  -0.00051   0.00468   0.00000
 118        9D+2        0.00956   0.00000   0.01020  -0.00261   0.00000
 119        9D-2        0.00000  -0.00025   0.00000   0.00000  -0.00445
 120 4   H  1S         -0.23740   0.00000   0.06087  -0.07529   0.00000
 121        2S         -0.60838   0.00000   0.22067  -0.71456   0.00000
 122        3S         -0.30600   0.00000   0.11070  -0.74463   0.00000
 123        4S         -0.01260   0.00000   0.00200  -0.05181   0.00000
 124        5PX         0.00000   0.00914   0.00000   0.00000   0.02606
 125        5PY        -0.01817   0.00000   0.01007  -0.03317   0.00000
 126        5PZ        -0.00396   0.00000  -0.01219   0.02012   0.00000
 127        6PX         0.00000   0.01395   0.00000   0.00000   0.03960
 128        6PY         0.05721   0.00000   0.00099   0.10068   0.00000
 129        6PZ        -0.04123   0.00000   0.01109  -0.06977   0.00000
 130        7PX         0.00000   0.00092   0.00000   0.00000  -0.00870
 131        7PY         0.02519   0.00000  -0.01925   0.12212   0.00000
 132        7PZ        -0.04588   0.00000  -0.00854  -0.08063   0.00000
 133        8D 0       -0.00732   0.00000   0.00109  -0.00395   0.00000
 134        8D+1        0.00000   0.00345   0.00000   0.00000   0.00289
 135        8D-1       -0.00619   0.00000   0.00551  -0.00911   0.00000
 136        8D+2       -0.00598   0.00000   0.00572  -0.01001   0.00000
 137        8D-2        0.00000  -0.00785   0.00000   0.00000  -0.01663
 138        9D 0        0.00307   0.00000   0.00310   0.00779   0.00000
 139        9D+1        0.00000  -0.00210   0.00000   0.00000  -0.00204
 140        9D-1        0.00003   0.00000   0.00051   0.00468   0.00000
 141        9D+2        0.00956   0.00000   0.01020   0.00261   0.00000
 142        9D-2        0.00000  -0.00025   0.00000   0.00000   0.00445
                          21        22        23        24        25
     Eigenvalues --     0.01194   0.01020   0.00816   0.00668   0.00644
   1 1   C  1S         -0.00992   0.00000  -0.03239   0.00000   0.00000
   2        2S          0.00723   0.00000   0.11361   0.00000   0.00000
   3        3S         -0.00540   0.00000   0.11104   0.00000   0.00000
   4        4S          0.09558   0.00000  -0.11326   0.00000   0.00000
   5        5S          0.06206   0.00000  -0.03892   0.00000   0.00000
   6        6PX         0.00000   0.00000   0.00000  -0.39375   0.00000
   7        6PY         0.00000   0.14646   0.00000   0.00000   0.00000
   8        6PZ         0.11773   0.00000  -0.12736   0.00000   0.00000
   9        7PX         0.00000   0.00000   0.00000  -0.46226   0.00000
  10        7PY         0.00000   0.43268   0.00000   0.00000   0.00000
  11        7PZ         0.27293   0.00000  -0.11650   0.00000   0.00000
  12        8PX         0.00000   0.00000   0.00000   0.18101   0.00000
  13        8PY         0.00000  -1.11541   0.00000   0.00000   0.00000
  14        8PZ        -0.28860   0.00000   0.38327   0.00000   0.00000
  15        9PX         0.00000   0.00000   0.00000   0.01003   0.00000
  16        9PY         0.00000  -0.10710   0.00000   0.00000   0.00000
  17        9PZ        -0.01361   0.00000   0.00620   0.00000   0.00000
  18       10D 0       -0.18895   0.00000  -0.09191   0.00000   0.00000
  19       10D+1        0.00000   0.00000   0.00000  -0.08291   0.00000
  20       10D-1        0.00000  -0.02872   0.00000   0.00000   0.00000
  21       10D+2        0.00714   0.00000  -0.15471   0.00000   0.00000
  22       10D-2        0.00000   0.00000   0.00000   0.00000   0.30585
  23       11D 0       -0.28615   0.00000  -0.22384   0.00000   0.00000
  24       11D+1        0.00000   0.00000   0.00000  -0.11030   0.00000
  25       11D-1        0.00000  -0.29286   0.00000   0.00000   0.00000
  26       11D+2        0.05933   0.00000  -0.30961   0.00000   0.00000
  27       11D-2        0.00000   0.00000   0.00000   0.00000   0.46116
  28       12D 0       -0.06607   0.00000   0.16954   0.00000   0.00000
  29       12D+1        0.00000   0.00000   0.00000  -0.07469   0.00000
  30       12D-1        0.00000   0.16841   0.00000   0.00000   0.00000
  31       12D+2       -0.04131   0.00000   0.09349   0.00000   0.00000
  32       12D-2        0.00000   0.00000   0.00000   0.00000   0.04302
  33       13F 0       -0.04553   0.00000   0.01244   0.00000   0.00000
  34       13F+1        0.00000   0.00000   0.00000  -0.06504   0.00000
  35       13F-1        0.00000   0.05149   0.00000   0.00000   0.00000
  36       13F+2        0.00149   0.00000   0.01761   0.00000   0.00000
  37       13F-2        0.00000   0.00000   0.00000   0.00000  -0.02519
  38       13F+3        0.00000   0.00000   0.00000   0.02170   0.00000
  39       13F-3        0.00000  -0.01101   0.00000   0.00000   0.00000
  40       14F 0       -0.05696   0.00000   0.01410   0.00000   0.00000
  41       14F+1        0.00000   0.00000   0.00000   0.00128   0.00000
  42       14F-1        0.00000  -0.15561   0.00000   0.00000   0.00000
  43       14F+2        0.01209   0.00000   0.01295   0.00000   0.00000
  44       14F-2        0.00000   0.00000   0.00000   0.00000   0.07829
  45       14F+3        0.00000   0.00000   0.00000   0.01844   0.00000
  46       14F-3        0.00000  -0.02060   0.00000   0.00000   0.00000
  47 2   S  1S         -0.03367   0.00000   0.06223   0.00000   0.00000
  48        2S          0.13656   0.00000  -0.22414   0.00000   0.00000
  49        3S         -0.34562   0.00000   0.77527   0.00000   0.00000
  50        4S         -0.20556   0.00000   0.53732   0.00000   0.00000
  51        5S          0.70616   0.00000  -1.36620   0.00000   0.00000
  52        6S          0.18252   0.00000  -0.16390   0.00000   0.00000
  53        7PX         0.00000   0.00000   0.00000   0.20226   0.00000
  54        7PY         0.00000  -0.32081   0.00000   0.00000   0.00000
  55        7PZ        -0.13079   0.00000  -0.09147   0.00000   0.00000
  56        8PX         0.00000   0.00000   0.00000  -0.33456   0.00000
  57        8PY         0.00000   0.60539   0.00000   0.00000   0.00000
  58        8PZ         0.12625   0.00000  -0.02641   0.00000   0.00000
  59        9PX         0.00000   0.00000   0.00000  -0.37503   0.00000
  60        9PY         0.00000   0.60834   0.00000   0.00000   0.00000
  61        9PZ         0.20924   0.00000   0.17673   0.00000   0.00000
  62       10PX         0.00000   0.00000   0.00000   0.82591   0.00000
  63       10PY         0.00000  -0.86426   0.00000   0.00000   0.00000
  64       10PZ        -0.40392   0.00000  -0.02865   0.00000   0.00000
  65       11PX         0.00000   0.00000   0.00000   0.02532   0.00000
  66       11PY         0.00000  -0.09837   0.00000   0.00000   0.00000
  67       11PZ        -0.03746   0.00000  -0.00307   0.00000   0.00000
  68       12D 0       -0.35403   0.00000   0.03725   0.00000   0.00000
  69       12D+1        0.00000   0.00000   0.00000  -0.23613   0.00000
  70       12D-1        0.00000  -0.28483   0.00000   0.00000   0.00000
  71       12D+2        0.05821   0.00000   0.13664   0.00000   0.00000
  72       12D-2        0.00000   0.00000   0.00000   0.00000  -0.18245
  73       13D 0       -0.34696   0.00000  -0.01775   0.00000   0.00000
  74       13D+1        0.00000   0.00000   0.00000  -0.10348   0.00000
  75       13D-1        0.00000  -0.07170   0.00000   0.00000   0.00000
  76       13D+2        0.05378   0.00000   0.04081   0.00000   0.00000
  77       13D-2        0.00000   0.00000   0.00000   0.00000  -0.14734
  78       14D 0        0.09513   0.00000  -0.01074   0.00000   0.00000
  79       14D+1        0.00000   0.00000   0.00000  -0.16222   0.00000
  80       14D-1        0.00000   0.03613   0.00000   0.00000   0.00000
  81       14D+2       -0.00048   0.00000   0.01332   0.00000   0.00000
  82       14D-2        0.00000   0.00000   0.00000   0.00000  -0.02126
  83       15F 0        0.06415   0.00000   0.00872   0.00000   0.00000
  84       15F+1        0.00000   0.00000   0.00000  -0.08281   0.00000
  85       15F-1        0.00000   0.00606   0.00000   0.00000   0.00000
  86       15F+2        0.00202   0.00000   0.00997   0.00000   0.00000
  87       15F-2        0.00000   0.00000   0.00000   0.00000  -0.09885
  88       15F+3        0.00000   0.00000   0.00000   0.06251   0.00000
  89       15F-3        0.00000  -0.01467   0.00000   0.00000   0.00000
  90       16F 0        0.00452   0.00000   0.00719   0.00000   0.00000
  91       16F+1        0.00000   0.00000   0.00000   0.08296   0.00000
  92       16F-1        0.00000   0.04196   0.00000   0.00000   0.00000
  93       16F+2        0.00029   0.00000   0.00831   0.00000   0.00000
  94       16F-2        0.00000   0.00000   0.00000   0.00000   0.01237
  95       16F+3        0.00000   0.00000   0.00000   0.01478   0.00000
  96       16F-3        0.00000   0.01740   0.00000   0.00000   0.00000
  97 3   H  1S          0.00978   0.01697   0.14234   0.00000   0.00000
  98        2S          0.06640   0.27172  -0.09230   0.00000   0.00000
  99        3S         -0.29949  -1.38584   0.14232   0.00000   0.00000
 100        4S         -0.02062  -0.12867   0.00466   0.00000   0.00000
 101        5PX         0.00000   0.00000   0.00000   0.00142  -0.09341
 102        5PY        -0.01900  -0.01394   0.02251   0.00000   0.00000
 103        5PZ         0.02936  -0.00478   0.06143   0.00000   0.00000
 104        6PX         0.00000   0.00000   0.00000   0.09228  -0.20738
 105        6PY        -0.00666   0.08494  -0.01699   0.00000   0.00000
 106        6PZ         0.07486   0.16158   0.03430   0.00000   0.00000
 107        7PX         0.00000   0.00000   0.00000   0.02083  -0.01404
 108        7PY        -0.02998  -0.25332  -0.03136   0.00000   0.00000
 109        7PZ        -0.04783  -0.10371   0.11750   0.00000   0.00000
 110        8D 0        0.01338  -0.00173   0.01376   0.00000   0.00000
 111        8D+1        0.00000   0.00000   0.00000  -0.00213  -0.03542
 112        8D-1        0.01192  -0.00083   0.02079   0.00000   0.00000
 113        8D+2        0.01367  -0.00047  -0.00586   0.00000   0.00000
 114        8D-2        0.00000   0.00000   0.00000   0.00480  -0.04994
 115        9D 0       -0.00595   0.00687   0.00020   0.00000   0.00000
 116        9D+1        0.00000   0.00000   0.00000   0.04011   0.01168
 117        9D-1        0.01987   0.05292   0.00746   0.00000   0.00000
 118        9D+2       -0.00395  -0.02319  -0.01048   0.00000   0.00000
 119        9D-2        0.00000   0.00000   0.00000   0.02783  -0.02340
 120 4   H  1S          0.00978  -0.01697   0.14234   0.00000   0.00000
 121        2S          0.06640  -0.27172  -0.09230   0.00000   0.00000
 122        3S         -0.29949   1.38584   0.14232   0.00000   0.00000
 123        4S         -0.02062   0.12867   0.00466   0.00000   0.00000
 124        5PX         0.00000   0.00000   0.00000   0.00142   0.09341
 125        5PY         0.01900  -0.01394  -0.02251   0.00000   0.00000
 126        5PZ         0.02936   0.00478   0.06143   0.00000   0.00000
 127        6PX         0.00000   0.00000   0.00000   0.09228   0.20738
 128        6PY         0.00666   0.08494   0.01699   0.00000   0.00000
 129        6PZ         0.07486  -0.16158   0.03430   0.00000   0.00000
 130        7PX         0.00000   0.00000   0.00000   0.02083   0.01404
 131        7PY         0.02998  -0.25332   0.03136   0.00000   0.00000
 132        7PZ        -0.04783   0.10371   0.11750   0.00000   0.00000
 133        8D 0        0.01338   0.00173   0.01376   0.00000   0.00000
 134        8D+1        0.00000   0.00000   0.00000  -0.00213   0.03542
 135        8D-1       -0.01192  -0.00083  -0.02079   0.00000   0.00000
 136        8D+2        0.01367   0.00047  -0.00586   0.00000   0.00000
 137        8D-2        0.00000   0.00000   0.00000  -0.00480  -0.04994
 138        9D 0       -0.00595  -0.00687   0.00020   0.00000   0.00000
 139        9D+1        0.00000   0.00000   0.00000   0.04011  -0.01168
 140        9D-1       -0.01987   0.05292  -0.00746   0.00000   0.00000
 141        9D+2       -0.00395   0.02319  -0.01048   0.00000   0.00000
 142        9D-2        0.00000   0.00000   0.00000  -0.02783  -0.02340
                          26        27        28        29        30
     Eigenvalues --     0.00601   0.00488   0.00463   0.00353   0.00235
   1 1   C  1S          0.03437   0.00000   0.13230   0.00000  -0.01447
   2        2S         -0.11240   0.00000  -0.53121   0.00000   0.07719
   3        3S         -0.11706   0.00000  -0.42868   0.00000   0.04005
   4        4S          0.35959   0.00000  -0.82527   0.00000   0.97664
   5        5S          0.09489   0.00000  -0.38466   0.00000   0.29169
   6        6PX         0.00000   0.00000   0.00000   0.12501   0.00000
   7        6PY         0.00000  -0.05635   0.00000   0.00000   0.00000
   8        6PZ         0.21782   0.00000  -0.39443   0.00000   0.04364
   9        7PX         0.00000   0.00000   0.00000   0.11358   0.00000
  10        7PY         0.00000   0.09314   0.00000   0.00000   0.00000
  11        7PZ         0.27561   0.00000  -0.47303   0.00000   0.12365
  12        8PX         0.00000   0.00000   0.00000   0.44002   0.00000
  13        8PY         0.00000   0.30629   0.00000   0.00000   0.00000
  14        8PZ         0.62578   0.00000  -0.22169   0.00000  -0.11154
  15        9PX         0.00000   0.00000   0.00000   0.02220   0.00000
  16        9PY         0.00000   0.00521   0.00000   0.00000   0.00000
  17        9PZ         0.04606   0.00000  -0.09391   0.00000   0.01232
  18       10D 0        0.01722   0.00000  -0.18510   0.00000   0.06724
  19       10D+1        0.00000   0.00000   0.00000   0.32471   0.00000
  20       10D-1        0.00000   0.27213   0.00000   0.00000   0.00000
  21       10D+2        0.20186   0.00000   0.05867   0.00000  -0.16372
  22       10D-2        0.00000   0.00000   0.00000   0.00000   0.00000
  23       11D 0        0.10617   0.00000  -0.35831   0.00000   0.05333
  24       11D+1        0.00000   0.00000   0.00000   0.60177   0.00000
  25       11D-1        0.00000   0.56139   0.00000   0.00000   0.00000
  26       11D+2        0.44176   0.00000   0.07392   0.00000  -0.36644
  27       11D-2        0.00000   0.00000   0.00000   0.00000   0.00000
  28       12D 0        0.20085   0.00000   0.20804   0.00000  -0.28604
  29       12D+1        0.00000   0.00000   0.00000   0.13021   0.00000
  30       12D-1        0.00000   0.34893   0.00000   0.00000   0.00000
  31       12D+2        0.11029   0.00000   0.10822   0.00000  -0.29834
  32       12D-2        0.00000   0.00000   0.00000   0.00000   0.00000
  33       13F 0       -0.03051   0.00000  -0.06135   0.00000  -0.10133
  34       13F+1        0.00000   0.00000   0.00000  -0.01648   0.00000
  35       13F-1        0.00000  -0.06184   0.00000   0.00000   0.00000
  36       13F+2       -0.01665   0.00000  -0.02930   0.00000  -0.19628
  37       13F-2        0.00000   0.00000   0.00000   0.00000   0.00000
  38       13F+3        0.00000   0.00000   0.00000   0.05981   0.00000
  39       13F-3        0.00000   0.01118   0.00000   0.00000   0.00000
  40       14F 0       -0.10443   0.00000  -0.11738   0.00000  -0.10786
  41       14F+1        0.00000   0.00000   0.00000   0.04479   0.00000
  42       14F-1        0.00000  -0.02245   0.00000   0.00000   0.00000
  43       14F+2       -0.05685   0.00000  -0.08929   0.00000  -0.19577
  44       14F-2        0.00000   0.00000   0.00000   0.00000   0.00000
  45       14F+3        0.00000   0.00000   0.00000   0.02261   0.00000
  46       14F-3        0.00000   0.04927   0.00000   0.00000   0.00000
  47 2   S  1S          0.05048   0.00000   0.00534   0.00000   0.00643
  48        2S         -0.15834   0.00000  -0.01640   0.00000  -0.02752
  49        3S          0.69041   0.00000   0.06179   0.00000   0.11636
  50        4S          0.50192   0.00000  -0.01661   0.00000   0.16986
  51        5S         -2.01978   0.00000   0.67774   0.00000  -0.31580
  52        6S         -0.36686   0.00000   0.69652   0.00000  -0.24226
  53        7PX         0.00000   0.00000   0.00000   0.17469   0.00000
  54        7PY         0.00000  -0.06228   0.00000   0.00000   0.00000
  55        7PZ        -0.17503   0.00000  -0.00107   0.00000  -0.07776
  56        8PX         0.00000   0.00000   0.00000  -0.29178   0.00000
  57        8PY         0.00000  -0.02794   0.00000   0.00000   0.00000
  58        8PZ         0.23660   0.00000  -0.36358   0.00000  -0.02830
  59        9PX         0.00000   0.00000   0.00000  -0.34722   0.00000
  60        9PY         0.00000   0.15710   0.00000   0.00000   0.00000
  61        9PZ         0.34583   0.00000   0.02562   0.00000   0.16179
  62       10PX         0.00000   0.00000   0.00000  -0.01301   0.00000
  63       10PY         0.00000  -0.96838   0.00000   0.00000   0.00000
  64       10PZ         0.30967   0.00000  -0.98814   0.00000   0.37622
  65       11PX         0.00000   0.00000   0.00000  -0.00314   0.00000
  66       11PY         0.00000  -0.06373   0.00000   0.00000   0.00000
  67       11PZ         0.02084   0.00000  -0.10204   0.00000   0.04489
  68       12D 0       -0.19166   0.00000   0.67225   0.00000  -0.14332
  69       12D+1        0.00000   0.00000   0.00000   0.45739   0.00000
  70       12D-1        0.00000   0.45913   0.00000   0.00000   0.00000
  71       12D+2       -0.04527   0.00000  -0.04431   0.00000   0.14812
  72       12D-2        0.00000   0.00000   0.00000   0.00000   0.00000
  73       13D 0       -0.14153   0.00000   0.38609   0.00000  -0.03348
  74       13D+1        0.00000   0.00000   0.00000   0.30906   0.00000
  75       13D-1        0.00000   0.33290   0.00000   0.00000   0.00000
  76       13D+2       -0.14883   0.00000  -0.08822   0.00000   0.17813
  77       13D-2        0.00000   0.00000   0.00000   0.00000   0.00000
  78       14D 0       -0.09686   0.00000   0.28894   0.00000  -0.12018
  79       14D+1        0.00000   0.00000   0.00000   0.11014   0.00000
  80       14D-1        0.00000   0.23102   0.00000   0.00000   0.00000
  81       14D+2        0.01794   0.00000  -0.00499   0.00000   0.04018
  82       14D-2        0.00000   0.00000   0.00000   0.00000   0.00000
  83       15F 0       -0.01607   0.00000   0.15377   0.00000   0.13222
  84       15F+1        0.00000   0.00000   0.00000   0.10372   0.00000
  85       15F-1        0.00000   0.16634   0.00000   0.00000   0.00000
  86       15F+2       -0.06126   0.00000  -0.04172   0.00000   0.37971
  87       15F-2        0.00000   0.00000   0.00000   0.00000   0.00000
  88       15F+3        0.00000   0.00000   0.00000   0.01749   0.00000
  89       15F-3        0.00000  -0.01627   0.00000   0.00000   0.00000
  90       16F 0        0.03698   0.00000  -0.11077   0.00000   0.07652
  91       16F+1        0.00000   0.00000   0.00000  -0.08110   0.00000
  92       16F-1        0.00000  -0.06830   0.00000   0.00000   0.00000
  93       16F+2        0.01299   0.00000  -0.03204   0.00000   0.04738
  94       16F-2        0.00000   0.00000   0.00000   0.00000   0.00000
  95       16F+3        0.00000   0.00000   0.00000  -0.01789   0.00000
  96       16F-3        0.00000  -0.00813   0.00000   0.00000   0.00000
  97 3   H  1S         -0.10124   0.22521  -0.09198   0.00000  -0.29700
  98        2S          0.40288  -0.26277   0.05582   0.00000  -0.13667
  99        3S          0.45157  -0.70852   0.06358   0.00000  -0.16355
 100        4S          0.01068  -0.01954  -0.01699   0.00000  -0.01168
 101        5PX         0.00000   0.00000   0.00000  -0.09402   0.00000
 102        5PY        -0.02980   0.10265  -0.03098   0.00000  -0.03552
 103        5PZ        -0.06024   0.00576   0.02431   0.00000  -0.01856
 104        6PX         0.00000   0.00000   0.00000  -0.13718   0.00000
 105        6PY         0.05994   0.08141  -0.06431   0.00000  -0.00793
 106        6PZ         0.01000  -0.04662   0.03982   0.00000  -0.08127
 107        7PX         0.00000   0.00000   0.00000  -0.00833   0.00000
 108        7PY         0.02251  -0.05199  -0.09773   0.00000   0.13464
 109        7PZ         0.12387   0.03273   0.09759   0.00000  -0.14461
 110        8D 0       -0.01525  -0.02093   0.00800   0.00000   0.00137
 111        8D+1        0.00000   0.00000   0.00000  -0.01672   0.00000
 112        8D-1       -0.01811   0.01382   0.00671   0.00000  -0.02205
 113        8D+2        0.01090  -0.02970   0.02061   0.00000   0.00704
 114        8D-2        0.00000   0.00000   0.00000  -0.05114   0.00000
 115        9D 0       -0.00391  -0.01862  -0.01703   0.00000  -0.01270
 116        9D+1        0.00000   0.00000   0.00000  -0.00004   0.00000
 117        9D-1        0.01659   0.02386   0.01239   0.00000  -0.00189
 118        9D+2        0.02472  -0.03175   0.03417   0.00000  -0.01269
 119        9D-2        0.00000   0.00000   0.00000   0.01114   0.00000
 120 4   H  1S         -0.10124  -0.22521  -0.09198   0.00000  -0.29700
 121        2S          0.40288   0.26277   0.05582   0.00000  -0.13667
 122        3S          0.45157   0.70852   0.06358   0.00000  -0.16355
 123        4S          0.01068   0.01954  -0.01699   0.00000  -0.01168
 124        5PX         0.00000   0.00000   0.00000  -0.09402   0.00000
 125        5PY         0.02980   0.10265   0.03098   0.00000   0.03552
 126        5PZ        -0.06024  -0.00576   0.02431   0.00000  -0.01856
 127        6PX         0.00000   0.00000   0.00000  -0.13718   0.00000
 128        6PY        -0.05994   0.08141   0.06431   0.00000   0.00793
 129        6PZ         0.01000   0.04662   0.03982   0.00000  -0.08127
 130        7PX         0.00000   0.00000   0.00000  -0.00833   0.00000
 131        7PY        -0.02251  -0.05199   0.09773   0.00000  -0.13464
 132        7PZ         0.12387  -0.03273   0.09759   0.00000  -0.14461
 133        8D 0       -0.01525   0.02093   0.00800   0.00000   0.00137
 134        8D+1        0.00000   0.00000   0.00000  -0.01672   0.00000
 135        8D-1        0.01811   0.01382  -0.00671   0.00000   0.02205
 136        8D+2        0.01090   0.02970   0.02061   0.00000   0.00704
 137        8D-2        0.00000   0.00000   0.00000   0.05114   0.00000
 138        9D 0       -0.00391   0.01862  -0.01703   0.00000  -0.01270
 139        9D+1        0.00000   0.00000   0.00000  -0.00004   0.00000
 140        9D-1       -0.01659   0.02386  -0.01239   0.00000   0.00189
 141        9D+2        0.02472   0.03175   0.03417   0.00000  -0.01269
 142        9D-2        0.00000   0.00000   0.00000  -0.01114   0.00000
                          31        32        33        34        35
     Eigenvalues --     0.00210   0.00195   0.00194   0.00184   0.00154
   1 1   C  1S          0.00000   0.00000   0.04373   0.00000   0.00000
   2        2S          0.00000   0.00000  -0.18928   0.00000   0.00000
   3        3S          0.00000   0.00000  -0.18015   0.00000   0.00000
   4        4S          0.00000   0.00000  -0.02168   0.00000   0.00000
   5        5S          0.00000   0.00000  -0.00719   0.00000   0.00000
   6        6PX         0.00000   0.00000   0.00000   0.00000  -0.32751
   7        6PY        -0.15520   0.00000   0.00000   0.31608   0.00000
   8        6PZ         0.00000   0.00000   0.07903   0.00000   0.00000
[...]
 138        9D 0        1.03741   0.50299   0.00000   0.32011   1.36913
 139        9D+1        0.00000   0.00000   0.04109   0.00000   0.00000
 140        9D-1       -0.62100   0.23047   0.00000  -1.21195  -0.32579
 141        9D+2       -0.08583   0.28288   0.00000   0.42775   1.37664
 142        9D-2        0.00000   0.00000   1.09498   0.00000   0.00000
                         136       137       138       139       140
     Eigenvalues --     0.00000   0.00000   0.00000   0.00000   0.00000
   1 1   C  1S          0.00000   0.40153   0.00000  -0.07901  -0.07973
   2        2S          0.00000   2.35033   0.00000  -0.42920  -0.44832
   3        3S          0.00000  -0.11420   0.00000   0.05439   0.02096
   4        4S          0.00000  25.46067   0.00000 -17.71276  -2.91932
   5        5S          0.00000  16.95949   0.00000  -2.64179   4.90958
   6        6PX         0.00000   0.00000  -0.02017   0.00000   0.00000
   7        6PY        -0.04127   0.00000   0.00000   0.00000   0.00000
   8        6PZ         0.00000   0.05666   0.00000   0.01811   0.01058
   9        7PX         0.00000   0.00000   0.34191   0.00000   0.00000
  10        7PY         2.80939   0.00000   0.00000   0.00000   0.00000
  11        7PZ         0.00000  -2.04841   0.00000   0.30046   0.32836
  12        8PX         0.00000   0.00000  -0.11483   0.00000   0.00000
  13        8PY        16.40867   0.00000   0.00000   0.00000   0.00000
  14        8PZ         0.00000  -8.14094   0.00000   0.62956   9.23724
  15        9PX         0.00000   0.00000  -2.92718   0.00000   0.00000
  16        9PY         6.48782   0.00000   0.00000   0.00000   0.00000
  17        9PZ         0.00000  -0.82256   0.00000  -1.70353   5.80434
  18       10D 0        0.00000   0.00274   0.00000   0.00278  -0.01313
  19       10D+1        0.00000   0.00000  -0.00049   0.00000   0.00000
  20       10D-1       -0.08076   0.00000   0.00000   0.00000   0.00000
  21       10D+2        0.00000  -0.13826   0.00000   0.01153   0.01222
  22       10D-2        0.00000   0.00000   0.00000   0.00000   0.00000
  23       11D 0        0.00000   0.10956   0.00000  -0.33162   0.23397
  24       11D+1        0.00000   0.00000  -0.28261   0.00000   0.00000
  25       11D-1       -1.76225   0.00000   0.00000   0.00000   0.00000
  26       11D+2        0.00000  -1.19148   0.00000   0.50142   0.31217
  27       11D-2        0.00000   0.00000   0.00000   0.00000   0.00000
  28       12D 0        0.00000   3.84750   0.00000   0.62015   1.79748
  29       12D+1        0.00000   0.00000  -2.74741   0.00000   0.00000
  30       12D-1       -7.34877   0.00000   0.00000   0.00000   0.00000
  31       12D+2        0.00000   0.76654   0.00000   0.88589   0.93762
  32       12D-2        0.00000   0.00000   0.00000   0.00000   0.00000
  33       13F 0        0.00000   0.09100   0.00000   0.01358  -0.00351
  34       13F+1        0.00000   0.00000   0.01436   0.00000   0.00000
  35       13F-1        0.06797   0.00000   0.00000   0.00000   0.00000
  36       13F+2        0.00000   0.13151   0.00000  -0.02743  -0.01804
  37       13F-2        0.00000   0.00000   0.00000   0.00000   0.00000
  38       13F+3        0.00000   0.00000  -0.00319   0.00000   0.00000
  39       13F-3       -0.06750   0.00000   0.00000   0.00000   0.00000
  40       14F 0        0.00000  -0.15678   0.00000  -0.59225  -0.00524
  41       14F+1        0.00000   0.00000   0.03387   0.00000   0.00000
  42       14F-1       -0.38727   0.00000   0.00000   0.00000   0.00000
  43       14F+2        0.00000   0.28062   0.00000  -0.22964  -0.10124
  44       14F-2        0.00000   0.00000   0.00000   0.00000   0.00000
  45       14F+3        0.00000   0.00000  -0.01445   0.00000   0.00000
  46       14F-3       -0.16252   0.00000   0.00000   0.00000   0.00000
  47 2   S  1S          0.00000   0.01492   0.00000   0.01294   0.00257
  48        2S          0.00000   0.19613   0.00000   0.20142   0.01783
  49        3S          0.00000   0.62171   0.00000   0.56701   0.09968
  50        4S          0.00000   0.03250   0.00000  -0.08668   0.10205
  51        5S          0.00000  -3.00970   0.00000   2.14336  -5.86340
  52        6S          0.00000 -10.10567   0.00000  -2.47430 -16.20049
  53        7PX         0.00000   0.00000   0.00327   0.00000   0.00000
  54        7PY        -0.00587   0.00000   0.00000   0.00000   0.00000
  55        7PZ         0.00000  -0.00269   0.00000  -0.04268  -0.00398
  56        8PX         0.00000   0.00000  -0.03384   0.00000   0.00000
  57        8PY        -0.07307   0.00000   0.00000   0.00000   0.00000
  58        8PZ         0.00000  -0.22323   0.00000  -1.04926   0.06280
  59        9PX         0.00000   0.00000  -0.01732   0.00000   0.00000
  60        9PY         0.03170   0.00000   0.00000   0.00000   0.00000
  61        9PZ         0.00000  -0.03338   0.00000   0.08833   0.02867
  62       10PX         0.00000   0.00000   2.30580   0.00000   0.00000
  63       10PY         4.39934   0.00000   0.00000   0.00000   0.00000
  64       10PZ         0.00000   3.98245   0.00000   0.34108   6.75133
  65       11PX         0.00000   0.00000   2.77803   0.00000   0.00000
  66       11PY        -0.56834   0.00000   0.00000   0.00000   0.00000
  67       11PZ         0.00000   2.94851   0.00000   2.71570   2.25857
  68       12D 0        0.00000  -0.31354   0.00000   0.68300  -0.30942
  69       12D+1        0.00000   0.00000   0.12212   0.00000   0.00000
  70       12D-1       -0.34057   0.00000   0.00000   0.00000   0.00000
  71       12D+2        0.00000  -0.05939   0.00000   0.02210  -0.02421
  72       12D-2        0.00000   0.00000   0.00000   0.00000   0.00000
  73       13D 0        0.00000   0.06221   0.00000  -0.04995   0.02463
  74       13D+1        0.00000   0.00000  -0.04566   0.00000   0.00000
  75       13D-1       -0.00587   0.00000   0.00000   0.00000   0.00000
  76       13D+2        0.00000   0.01587   0.00000   0.00079   0.00833
  77       13D-2        0.00000   0.00000   0.00000   0.00000   0.00000
  78       14D 0        0.00000  -1.54289   0.00000  -1.17106  -1.54663
  79       14D+1        0.00000   0.00000  -1.94061   0.00000   0.00000
  80       14D-1       -2.02488   0.00000   0.00000   0.00000   0.00000
  81       14D+2        0.00000   0.21375   0.00000   0.22001  -0.05495
  82       14D-2        0.00000   0.00000   0.00000   0.00000   0.00000
  83       15F 0        0.00000  -0.05941   0.00000  -0.03706  -0.01640
  84       15F+1        0.00000   0.00000  -0.02860   0.00000   0.00000
  85       15F-1        0.00346   0.00000   0.00000   0.00000   0.00000
  86       15F+2        0.00000   0.01308   0.00000   0.01353  -0.00876
  87       15F-2        0.00000   0.00000   0.00000   0.00000   0.00000
  88       15F+3        0.00000   0.00000   0.00442   0.00000   0.00000
  89       15F-3        0.02941   0.00000   0.00000   0.00000   0.00000
  90       16F 0        0.00000   0.39349   0.00000  -0.01201   0.13794
  91       16F+1        0.00000   0.00000   0.24019   0.00000   0.00000
  92       16F-1        0.30970   0.00000   0.00000   0.00000   0.00000
  93       16F+2        0.00000  -0.12640   0.00000  -0.11538   0.03954
  94       16F-2        0.00000   0.00000   0.00000   0.00000   0.00000
  95       16F+3        0.00000   0.00000  -0.01566   0.00000   0.00000
  96       16F-3       -0.08392   0.00000   0.00000   0.00000   0.00000
  97 3   H  1S         -0.05026   0.10036   0.00000  -0.02062  -0.01673
  98        2S          3.56274  -3.71071   0.00000   1.45571   0.87210
  99        3S         29.19480 -11.72860   0.00000   9.32883   7.97605
 100        4S          5.19156  -1.30939   0.00000   0.62131   2.11518
 101        5PX         0.00000   0.00000   0.07396   0.00000   0.00000
 102        5PY        -0.11320   0.07030   0.00000  -0.03796  -0.02844
 103        5PZ        -0.07648   0.04780   0.00000  -0.00049  -0.01715
 104        6PX         0.00000   0.00000  -0.38218   0.00000   0.00000
 105        6PY         1.68669  -2.03209   0.00000   0.65434   0.40954
 106        6PZ         1.42048  -0.96222   0.00000   0.39027   0.24390
 107        7PX         0.00000   0.00000  -0.97726   0.00000   0.00000
 108        7PY         4.85719  -4.93783   0.00000   2.14339   1.65796
 109        7PZ         3.40333   2.31645   0.00000   3.62712   1.06082
 110        8D 0       -0.03170  -0.03870   0.00000  -0.01336   0.00998
 111        8D+1        0.00000   0.00000  -0.00690   0.00000   0.00000
 112        8D-1        0.04763  -0.16864   0.00000  -0.01975   0.01415
 113        8D+2       -0.12486   0.11773   0.00000   0.01330  -0.01568
 114        8D-2        0.00000   0.00000   0.07491   0.00000   0.00000
 115        9D 0        0.23176   0.49416   0.00000  -0.00729  -0.07278
 116        9D+1        0.00000   0.00000   0.02951   0.00000   0.00000
 117        9D-1        0.87379  -0.02403   0.00000   0.53407   0.08146
 118        9D+2        0.15294   0.57957   0.00000  -0.18286  -0.06464
 119        9D-2        0.00000   0.00000  -0.50266   0.00000   0.00000
 120 4   H  1S          0.05026   0.10036   0.00000  -0.02062  -0.01673
 121        2S         -3.56274  -3.71071   0.00000   1.45571   0.87210
 122        3S        -29.19480 -11.72860   0.00000   9.32883   7.97605
 123        4S         -5.19156  -1.30939   0.00000   0.62131   2.11518
 124        5PX         0.00000   0.00000   0.07396   0.00000   0.00000
 125        5PY        -0.11320  -0.07030   0.00000   0.03796   0.02844
 126        5PZ         0.07648   0.04780   0.00000  -0.00049  -0.01715
 127        6PX         0.00000   0.00000  -0.38218   0.00000   0.00000
 128        6PY         1.68669   2.03209   0.00000  -0.65434  -0.40954
 129        6PZ        -1.42048  -0.96222   0.00000   0.39027   0.24390
 130        7PX         0.00000   0.00000  -0.97726   0.00000   0.00000
 131        7PY         4.85719   4.93783   0.00000  -2.14339  -1.65796
 132        7PZ        -3.40333   2.31645   0.00000   3.62712   1.06082
 133        8D 0        0.03170  -0.03870   0.00000  -0.01336   0.00998
 134        8D+1        0.00000   0.00000  -0.00690   0.00000   0.00000
 135        8D-1        0.04763   0.16864   0.00000   0.01975  -0.01415
 136        8D+2        0.12486   0.11773   0.00000   0.01330  -0.01568
 137        8D-2        0.00000   0.00000  -0.07491   0.00000   0.00000
 138        9D 0       -0.23176   0.49416   0.00000  -0.00729  -0.07278
 139        9D+1        0.00000   0.00000   0.02951   0.00000   0.00000
 140        9D-1        0.87379   0.02403   0.00000  -0.53407  -0.08146
 141        9D+2       -0.15294   0.57957   0.00000  -0.18286  -0.06464
 142        9D-2        0.00000   0.00000   0.50266   0.00000   0.00000
                         141       142
     Eigenvalues --     0.00000   0.00000
   1 1   C  1S          0.00000  -0.00499
   2        2S          0.00000  -0.01570
   3        3S          0.00000   0.04616
   4        4S          0.00000   8.10420
   5        5S          0.00000  16.12405
   6        6PX         0.00000   0.00000
   7        6PY        -0.00837   0.00000
   8        6PZ         0.00000   0.00368
   9        7PX         0.00000   0.00000
  10        7PY        -0.16373   0.00000
  11        7PZ         0.00000  -0.06675
  12        8PX         0.00000   0.00000
  13        8PY        -5.22056   0.00000
  14        8PZ         0.00000   1.14607
  15        9PX         0.00000   0.00000
  16        9PY        -5.32488   0.00000
  17        9PZ         0.00000   1.17082
  18       10D 0        0.00000   0.00890
  19       10D+1        0.00000   0.00000
  20       10D-1       -0.01517   0.00000
  21       10D+2        0.00000  -0.01241
  22       10D-2        0.00000   0.00000
  23       11D 0        0.00000  -0.08025
  24       11D+1        0.00000   0.00000
  25       11D-1        0.12673   0.00000
  26       11D+2        0.00000   0.02291
  27       11D-2        0.00000   0.00000
  28       12D 0        0.00000   0.41855
  29       12D+1        0.00000   0.00000
  30       12D-1       -0.90651   0.00000
  31       12D+2        0.00000  -0.36901
  32       12D-2        0.00000   0.00000
  33       13F 0        0.00000  -0.01220
  34       13F+1        0.00000   0.00000
  35       13F-1        0.00517   0.00000
  36       13F+2        0.00000  -0.00536
  37       13F-2        0.00000   0.00000
  38       13F+3        0.00000   0.00000
  39       13F-3        0.00373   0.00000
  40       14F 0        0.00000   0.02424
  41       14F+1        0.00000   0.00000
  42       14F-1       -0.09257   0.00000
  43       14F+2        0.00000  -0.04779
  44       14F-2        0.00000   0.00000
  45       14F+3        0.00000   0.00000
  46       14F-3       -0.01189   0.00000
  47 2   S  1S          0.00000   0.00299
  48        2S          0.00000   0.04609
  49        3S          0.00000   0.13059
  50        4S          0.00000  -0.01385
  51        5S          0.00000  -1.78461
  52        6S          0.00000  -8.74277
  53        7PX         0.00000   0.00000
  54        7PY        -0.00560   0.00000
  55        7PZ         0.00000  -0.00253
  56        8PX         0.00000   0.00000
  57        8PY        -0.04672   0.00000
  58        8PZ         0.00000  -0.03929
  59        9PX         0.00000   0.00000
  60        9PY         0.02437   0.00000
  61        9PZ         0.00000   0.01127
  62       10PX         0.00000   0.00000
  63       10PY         1.31534   0.00000
  64       10PZ         0.00000   2.31041
  65       11PX         0.00000   0.00000
  66       11PY         0.55663   0.00000
  67       11PZ         0.00000   2.30607
  68       12D 0        0.00000  -0.04625
  69       12D+1        0.00000   0.00000
  70       12D-1       -0.08316   0.00000
  71       12D+2        0.00000   0.03505
  72       12D-2        0.00000   0.00000
  73       13D 0        0.00000   0.00713
  74       13D+1        0.00000   0.00000
  75       13D-1        0.00248   0.00000
  76       13D+2        0.00000  -0.00800
  77       13D-2        0.00000   0.00000
  78       14D 0        0.00000  -0.63154
  79       14D+1        0.00000   0.00000
  80       14D-1       -0.45103   0.00000
  81       14D+2        0.00000  -0.07940
  82       14D-2        0.00000   0.00000
  83       15F 0        0.00000  -0.01503
  84       15F+1        0.00000   0.00000
  85       15F-1       -0.00073   0.00000
  86       15F+2        0.00000  -0.00631
  87       15F-2        0.00000   0.00000
  88       15F+3        0.00000   0.00000
  89       15F-3       -0.00364   0.00000
  90       16F 0        0.00000   0.06349
  91       16F+1        0.00000   0.00000
  92       16F-1        0.03735   0.00000
  93       16F+2        0.00000   0.01281
  94       16F-2        0.00000   0.00000
  95       16F+3        0.00000   0.00000
  96       16F-3        0.02201   0.00000
  97 3   H  1S         -0.01412  -0.01357
  98        2S         -0.03332   0.19175
  99        3S         -8.52343  -4.85472
 100        4S         -8.19648  -2.44068
 101        5PX         0.00000   0.00000
 102        5PY         0.02188   0.00803
 103        5PZ         0.00641   0.01562
 104        6PX         0.00000   0.00000
 105        6PY        -0.25999  -0.08684
 106        6PZ        -0.09376  -0.14897
 107        7PX         0.00000   0.00000
 108        7PY        -2.61376  -1.15975
 109        7PZ        -2.37532  -1.00279
 110        8D 0        0.00784   0.00647
 111        8D+1        0.00000   0.00000
 112        8D-1        0.01328   0.01171
 113        8D+2       -0.02651  -0.00100
 114        8D-2        0.00000   0.00000
 115        9D 0       -0.02326  -0.04596
 116        9D+1        0.00000   0.00000
 117        9D-1       -0.19891  -0.19917
 118        9D+2        0.24043   0.07364
 119        9D-2        0.00000   0.00000
 120 4   H  1S          0.01412  -0.01357
 121        2S          0.03332   0.19175
 122        3S          8.52343  -4.85472
 123        4S          8.19648  -2.44068
 124        5PX         0.00000   0.00000
 125        5PY         0.02188  -0.00803
 126        5PZ        -0.00641   0.01562
 127        6PX         0.00000   0.00000
 128        6PY        -0.25999   0.08684
 129        6PZ         0.09376  -0.14897
 130        7PX         0.00000   0.00000
 131        7PY        -2.61376   1.15975
 132        7PZ         2.37532  -1.00279
 133        8D 0       -0.00784   0.00647
 134        8D+1        0.00000   0.00000
 135        8D-1        0.01328  -0.01171
 136        8D+2        0.02651  -0.00100
 137        8D-2        0.00000   0.00000
 138        9D 0        0.02326  -0.04596
 139        9D+1        0.00000   0.00000
 140        9D-1       -0.19891   0.19917
 141        9D+2       -0.24043   0.07364
 142        9D-2        0.00000   0.00000
          Condensed to atoms (all electrons):
              1          2          3          4
     1  C    6.179548   0.270830   0.183625   0.183625
     2  S    0.270830  16.034516  -0.120409  -0.120409
     3  H    0.183625  -0.120409   0.656126  -0.160422
     4  H    0.183625  -0.120409  -0.160422   0.656126
 Mulliken atomic charges:
              1
     1  C   -0.817629
     2  S   -0.064529
     3  H    0.441079
     4  H    0.441079
 Sum of Mulliken atomic charges =   0.00000
 Mulliken charges with hydrogens summed into heavy atoms:
              1
     1  C    0.064529
     2  S   -0.064529
 Sum of Mulliken charges with hydrogens summed into heavy atoms =   0.00000
 Electronic spatial extent (au):  <R**2>=            130.0443
 Charge=              0.0000 electrons
 Dipole moment (field-independent basis, Debye):
    X=              0.0000    Y=              0.0000    Z=             -1.7299  Tot=              1.7299
 Quadrupole moment (field-independent basis, Debye-Ang):
   XX=            -19.9537   YY=            -20.5818   ZZ=            -18.9826
   XY=              0.0000   XZ=              0.0000   YZ=              0.0000
 Traceless Quadrupole moment (field-independent basis, Debye-Ang):
   XX=             -0.1143   YY=             -0.7425   ZZ=              0.8568
   XY=              0.0000   XZ=              0.0000   YZ=              0.0000
 Octapole moment (field-independent basis, Debye-Ang**2):
  XXX=              0.0000  YYY=              0.0000  ZZZ=            -27.7969  XYY=              0.0000
  XXY=              0.0000  XXZ=             -8.5861  XZZ=              0.0000  YZZ=              0.0000
  YYZ=            -13.1310  XYZ=              0.0000
 Hexadecapole moment (field-independent basis, Debye-Ang**3):
 XXXX=            -25.2168 YYYY=            -35.1576 ZZZZ=           -127.0714 XXXY=              0.0000
 XXXZ=              0.0000 YYYX=              0.0000 YYYZ=              0.0000 ZZZX=              0.0000
 ZZZY=              0.0000 XXYY=            -10.4880 XXZZ=            -25.2596 YYZZ=            -29.5278
 XXYZ=              0.0000 YYXZ=              0.0000 ZZXY=              0.0000
 N-N= 4.487133663123D+01 E-N=-1.127709856943D+03  KE= 4.368785088786D+02
 1\1\GINC-TRAPISTA\SP\RQCISD-FC\Aug-CC-pVTZ\C1H2S1\BRUNS\17-Nov-2021\0\
 \# qcisd/aug-cc-pvtz nosymm density=current output=wfn\\h2cs-wavefunct
 ion\\0,1\C,0,0.,0.,-0.545291\S,0,0.,0.,1.060374\H,0,0.,-0.92228,-1.128
 992\H,0,0.,0.92228,-1.128992\\Version=EM64L-G09RevB.01\HF=-436.5577103
 \MP2=-436.8983544\MP3=-436.9212162\MP4D=-436.931201\MP4DQ=-436.9196129
 \MP4SDQ=-436.9230203\QCISD=-436.9233969\RMSD=5.928e-09\Dipole=0.,0.,-0
 .6806091\Quadrupole=-0.0850008,-0.5520187,0.6370195,0.,0.,0.\PG=C02V [
 C2(C1S1),SGV(H2)]\\@

 Writing a WFN file to GAUSSIAN.wfn.


 IF YOU PERCEIVE THAT THERE ARE FOUR POSSIBLE WAYS IN
 WHICH A PROCEDURE CAN GO WRONG AND CIRCUMVENT THESE, 
 THEN A FIFTH WAY WILL DEVELOP.

                              -- MURPHY'S TWELFTH LAW
 Job cpu time:  0 days  0 hours 21 minutes 40.4 seconds.
 File lengths (MBytes):  RWF=   5923 Int=      0 D2E=      0 Chk=      2 Scr=      1
 Normal termination of Gaussian 09 at Wed Nov 17 16:58:56 2021.
