 h2cs-wavefunction
GAUSSIAN            142 MOL ORBITALS    240 PRIMITIVES        4 NUCLEI
  C    1    (CENTRE  1)   0.00000000  0.00000000 -1.04934791  CHARGE =  6.0
  S    2    (CENTRE  2)   0.00000000  0.00000000  2.00381646  CHARGE = 16.0
  H    3    (CENTRE  3)   0.00000000 -1.74285662 -2.13348569  CHARGE =  1.0
  H    4    (CENTRE  4)   0.00000000  1.76175388 -2.13348569  CHARGE =  1.0
CENTRE ASSIGNMENTS    1  1  1  1  1  1  1  1  1  1  1  1  1  1  1  1  1  1  1  1
CENTRE ASSIGNMENTS    1  1  1  1  1  1  1  1  1  1  1  1  1  1  1  1  1  1  1  1
CENTRE ASSIGNMENTS    1  1  1  1  1  1  1  1  1  1  1  1  1  1  1  1  1  1  1  1
CENTRE ASSIGNMENTS    1  1  1  1  1  1  1  1  1  1  1  1  2  2  2  2  2  2  2  2
CENTRE ASSIGNMENTS    2  2  2  2  2  2  2  2  2  2  2  2  2  2  2  2  2  2  2  2
CENTRE ASSIGNMENTS    2  2  2  2  2  2  2  2  2  2  2  2  2  2  2  2  2  2  2  2
CENTRE ASSIGNMENTS    2  2  2  2  2  2  2  2  2  2  2  2  2  2  2  2  2  2  2  2
CENTRE ASSIGNMENTS    2  2  2  2  2  2  2  2  2  2  2  2  2  2  2  2  2  2  2  2
CENTRE ASSIGNMENTS    2  2  2  2  2  2  2  2  2  2  2  2  2  2  2  2  2  2  2  2
CENTRE ASSIGNMENTS    2  2  2  2  2  2  3  3  3  3  3  3  3  3  3  3  3  3  3  3
CENTRE ASSIGNMENTS    3  3  3  3  3  3  3  3  3  3  3  3  3  4  4  4  4  4  4  4
CENTRE ASSIGNMENTS    4  4  4  4  4  4  4  4  4  4  4  4  4  4  4  4  4  4  4  4
TYPE ASSIGNMENTS      1  1  1  1  1  1  1  1  1  1  1  1  1  1  1  1  2  2  2  3
TYPE ASSIGNMENTS      3  3  4  4  4  2  3  4  2  3  4  2  3  4  5  6  7  8  9 10
TYPE ASSIGNMENTS      5  6  7  8  9 10  5  6  7  8  9 10 11 12 13 17 14 15 18 19
TYPE ASSIGNMENTS     16 20 11 12 13 17 14 15 18 19 16 20  1  1  1  1  1  1  1  1
TYPE ASSIGNMENTS      1  1  1  1  1  1  1  1  1  1  1  1  1  1  1  1  1  1  1  1
TYPE ASSIGNMENTS      1  1  1  2  2  2  2  2  2  3  3  3  3  3  3  4  4  4  4  4
TYPE ASSIGNMENTS      4  2  2  2  2  2  2  3  3  3  3  3  3  4  4  4  4  4  4  2
TYPE ASSIGNMENTS      3  4  2  3  4  2  3  4  5  6  7  8  9 10  5  6  7  8  9 10
TYPE ASSIGNMENTS      5  6  7  8  9 10 11 12 13 17 14 15 18 19 16 20 11 12 13 17
TYPE ASSIGNMENTS     14 15 18 19 16 20  1  1  1  1  1  1  2  3  4  2  3  4  2  3
TYPE ASSIGNMENTS      4  5  6  7  8  9 10  5  6  7  8  9 10  1  1  1  1  1  1  2
TYPE ASSIGNMENTS      3  4  2  3  4  2  3  4  5  6  7  8  9 10  5  6  7  8  9 10
EXPONENTS  0.8236000D+04 0.1235000D+04 0.2808000D+03 0.7927000D+02 0.2559000D+02
EXPONENTS  0.8997000D+01 0.3319000D+01 0.2808000D+03 0.7927000D+02 0.2559000D+02
EXPONENTS  0.8997000D+01 0.3319000D+01 0.3643000D+00 0.9059000D+00 0.1285000D+00
EXPONENTS  0.4402000D-01 0.1871000D+02 0.4133000D+01 0.1200000D+01 0.1871000D+02
EXPONENTS  0.4133000D+01 0.1200000D+01 0.1871000D+02 0.4133000D+01 0.1200000D+01
EXPONENTS  0.3827000D+00 0.3827000D+00 0.3827000D+00 0.1209000D+00 0.1209000D+00
EXPONENTS  0.1209000D+00 0.3569000D-01 0.3569000D-01 0.3569000D-01 0.1097000D+01
EXPONENTS  0.1097000D+01 0.1097000D+01 0.1097000D+01 0.1097000D+01 0.1097000D+01
EXPONENTS  0.3180000D+00 0.3180000D+00 0.3180000D+00 0.3180000D+00 0.3180000D+00
EXPONENTS  0.3180000D+00 0.1000000D+00 0.1000000D+00 0.1000000D+00 0.1000000D+00
EXPONENTS  0.1000000D+00 0.1000000D+00 0.7610000D+00 0.7610000D+00 0.7610000D+00
EXPONENTS  0.7610000D+00 0.7610000D+00 0.7610000D+00 0.7610000D+00 0.7610000D+00
EXPONENTS  0.7610000D+00 0.7610000D+00 0.2680000D+00 0.2680000D+00 0.2680000D+00
EXPONENTS  0.2680000D+00 0.2680000D+00 0.2680000D+00 0.2680000D+00 0.2680000D+00
EXPONENTS  0.2680000D+00 0.2680000D+00 0.3741000D+06 0.5605000D+05 0.1276000D+05
EXPONENTS  0.3615000D+04 0.1183000D+04 0.4288000D+03 0.1678000D+03 0.6947000D+02
EXPONENTS  0.2984000D+02 0.1272000D+02 0.5244000D+01 0.3615000D+04 0.1183000D+04
EXPONENTS  0.4288000D+03 0.1678000D+03 0.6947000D+02 0.2984000D+02 0.1272000D+02
EXPONENTS  0.5244000D+01 0.2219000D+01 0.1183000D+04 0.1678000D+03 0.6947000D+02
EXPONENTS  0.2984000D+02 0.1272000D+02 0.5244000D+01 0.2219000D+01 0.3490000D+00
EXPONENTS  0.7767000D+00 0.1322000D+00 0.4970000D-01 0.5744000D+03 0.1358000D+03
EXPONENTS  0.4319000D+02 0.1587000D+02 0.6208000D+01 0.2483000D+01 0.5744000D+03
EXPONENTS  0.1358000D+03 0.4319000D+02 0.1587000D+02 0.6208000D+01 0.2483000D+01
EXPONENTS  0.5744000D+03 0.1358000D+03 0.4319000D+02 0.1587000D+02 0.6208000D+01
EXPONENTS  0.2483000D+01 0.1358000D+03 0.4319000D+02 0.1587000D+02 0.6208000D+01
EXPONENTS  0.2483000D+01 0.3229000D+00 0.1358000D+03 0.4319000D+02 0.1587000D+02
EXPONENTS  0.6208000D+01 0.2483000D+01 0.3229000D+00 0.1358000D+03 0.4319000D+02
EXPONENTS  0.1587000D+02 0.6208000D+01 0.2483000D+01 0.3229000D+00 0.8688000D+00
EXPONENTS  0.8688000D+00 0.8688000D+00 0.1098000D+00 0.1098000D+00 0.1098000D+00
EXPONENTS  0.3510000D-01 0.3510000D-01 0.3510000D-01 0.2690000D+00 0.2690000D+00
EXPONENTS  0.2690000D+00 0.2690000D+00 0.2690000D+00 0.2690000D+00 0.8190000D+00
EXPONENTS  0.8190000D+00 0.8190000D+00 0.8190000D+00 0.8190000D+00 0.8190000D+00
EXPONENTS  0.1010000D+00 0.1010000D+00 0.1010000D+00 0.1010000D+00 0.1010000D+00
EXPONENTS  0.1010000D+00 0.5570000D+00 0.5570000D+00 0.5570000D+00 0.5570000D+00
EXPONENTS  0.5570000D+00 0.5570000D+00 0.5570000D+00 0.5570000D+00 0.5570000D+00
EXPONENTS  0.5570000D+00 0.2180000D+00 0.2180000D+00 0.2180000D+00 0.2180000D+00
EXPONENTS  0.2180000D+00 0.2180000D+00 0.2180000D+00 0.2180000D+00 0.2180000D+00
EXPONENTS  0.2180000D+00 0.3387000D+02 0.5095000D+01 0.1159000D+01 0.3258000D+00
EXPONENTS  0.1027000D+00 0.2526000D-01 0.1407000D+01 0.1407000D+01 0.1407000D+01
EXPONENTS  0.3880000D+00 0.3880000D+00 0.3880000D+00 0.1020000D+00 0.1020000D+00
EXPONENTS  0.1020000D+00 0.1057000D+01 0.1057000D+01 0.1057000D+01 0.1057000D+01
EXPONENTS  0.1057000D+01 0.1057000D+01 0.2470000D+00 0.2470000D+00 0.2470000D+00
EXPONENTS  0.2470000D+00 0.2470000D+00 0.2470000D+00 0.3387000D+02 0.5095000D+01
EXPONENTS  0.1159000D+01 0.3258000D+00 0.1027000D+00 0.2526000D-01 0.1407000D+01
EXPONENTS  0.1407000D+01 0.1407000D+01 0.3880000D+00 0.3880000D+00 0.3880000D+00
EXPONENTS  0.1020000D+00 0.1020000D+00 0.1020000D+00 0.1057000D+01 0.1057000D+01
EXPONENTS  0.1057000D+01 0.1057000D+01 0.1057000D+01 0.1057000D+01 0.2470000D+00
EXPONENTS  0.2470000D+00 0.2470000D+00 0.2470000D+00 0.2470000D+00 0.2470000D+00
MO    1     MO 0.0        OCC NO =    2.0000337  ORB. ENERGY =    0.000000
  0.12577278D-04  0.23446580D-04  0.39627915D-04  0.59568147D-04  0.73168799D-04
  0.61751885D-04  0.23220321D-04 -0.10218442D-07 -0.76376525D-07 -0.28543651D-06
 -0.79632343D-06 -0.10668538D-05  0.12597555D-05  0.44523513D-05 -0.41994185D-04
 -0.19442047D-05  0.24097554D-12  0.22592988D-12  0.16087554D-12 -0.14468082D-02
 -0.13564746D-02 -0.96589076D-03  0.48037415D-05  0.45038130D-05  0.32069832D-05
  0.40604625D-13 -0.59505482D-03 -0.20326123D-06  0.15542445D-14  0.15985944D-02
  0.69210963D-05 -0.83940582D-16  0.29304112D-04  0.65084316D-07 -0.66745295D-06
 -0.13656002D-05  0.20330531D-05 -0.33198889D-14  0.59280365D-13 -0.10675639D-02
  0.21752021D-05 -0.76851490D-08 -0.21675170D-05  0.40731473D-14 -0.54115792D-13
  0.53147133D-04 -0.21570295D-06  0.11063167D-05 -0.89061372D-06  0.10050116D-14
  0.35656944D-14 -0.21509918D-03 -0.70197265D-14  0.16496248D-03 -0.12694075D-05
 -0.37732809D-14  0.19514694D-03  0.91871352D-06  0.24832460D-13 -0.69003439D-03
  0.28895091D-05 -0.33188033D-14  0.29234286D-14 -0.79509293D-04 -0.15124652D-06
  0.11759816D-13 -0.12291419D-03 -0.41195822D-06 -0.20530102D-13  0.36144207D-03
  0.86569777D-06 -0.15366917D-14 -0.97869278D-04 -0.18297647D-03 -0.31623773D-03
 -0.51150149D-03 -0.77311739D-03 -0.10647427D-02 -0.12445546D-02 -0.10756282D-02
 -0.50200129D-03 -0.68010160D-04  0.49743610D-06 -0.12284805D-05 -0.15791993D-04
 -0.57606920D-04 -0.19436432D-03 -0.42691126D-03 -0.55145290D-03  0.88623173D-04
  0.74344308D-03  0.40799197D-03 -0.61415327D-08 -0.69955875D-07 -0.14525361D-06
 -0.39941055D-06  0.51788165D-07  0.18059526D-05  0.45043326D-05 -0.37286213D-05
  0.20766766D-04  0.29281790D-05  0.27401963D-06 -0.79903865D-09 -0.10482933D-08
 -0.11497508D-08 -0.94598036D-09 -0.49866706D-09 -0.12974379D-09  0.97724029D+01
  0.12820837D+02  0.14061683D+02  0.11569529D+02  0.60987981D+01  0.15867925D+01
  0.17861601D-02  0.23433405D-02  0.25701374D-02  0.21146316D-02  0.11147136D-02
  0.29002750D-03 -0.42667268D-14 -0.15315685D-12 -0.24298718D-12 -0.28853982D-12
 -0.43663681D-13  0.31777609D-12  0.96293892D-04  0.34565300D-02  0.54838715D-02
  0.65119292D-02  0.98542653D-03 -0.71717496D-02  0.76132820D-07  0.27328356D-05
  0.43357122D-05  0.51485253D-05  0.77910758D-06 -0.56701990D-05 -0.61933662D-11
  0.66520575D-01  0.14346454D-04 -0.11747345D-13 -0.57280371D-03 -0.65005950D-06
  0.13419497D-14 -0.27411969D-04 -0.22609787D-07 -0.38765178D-06 -0.77031375D-06
  0.11579655D-05  0.43435316D-15 -0.53164200D-13  0.76602059D-03 -0.60875892D-06
 -0.38635584D-06  0.99511476D-06  0.54181209D-15  0.33783342D-13 -0.10790434D-02
  0.60270948D-07 -0.13868119D-06  0.78410238D-07 -0.18487026D-15  0.19961491D-14
 -0.30497059D-04 -0.10532939D-13  0.13038857D-05 -0.23020223D-06  0.57891752D-14
  0.13099881D-03  0.49280167D-06  0.25809641D-13 -0.13491047D-03  0.19780503D-06
 -0.14297077D-14 -0.76610859D-15  0.33525004D-04 -0.13462498D-06 -0.30457836D-14
 -0.23105024D-05 -0.39935819D-08  0.53441094D-14 -0.98264509D-04  0.40786851D-06
  0.39312106D-15 -0.10673272D-03 -0.19249686D-03 -0.28383651D-03  0.14515394D-03
  0.23531865D-02  0.25019449D-04  0.79719983D-14 -0.16162079D-04  0.26498331D-03
 -0.10048027D-13 -0.14731394D-04 -0.31705037D-03  0.61554435D-14  0.31276975D-03
  0.13087588D-03 -0.50514751D-04 -0.14396045D-03  0.19447520D-03 -0.97847721D-14
  0.46362974D-14 -0.70685764D-05  0.25305886D-04 -0.22867006D-04 -0.24388797D-05
  0.41110913D-14 -0.81364036D-14 -0.11510551D-03  0.10766806D-03  0.19418379D-03
  0.28632388D-03 -0.12825062D-03 -0.23231514D-02 -0.24525003D-04  0.12918595D-13
 -0.16868419D-04 -0.25969345D-03 -0.18630652D-13 -0.13141816D-04  0.31255530D-03
  0.27984078D-14  0.31113172D-03 -0.13035963D-03  0.50744819D-04  0.14174129D-03
 -0.19248611D-03  0.14715632D-13  0.41676518D-14 -0.68717371D-05 -0.24805000D-04
  0.22642192D-04  0.21628083D-05 -0.13783574D-14 -0.10029012D-13 -0.11686523D-03
MO    2     MO 0.0        OCC NO =    2.0000243  ORB. ENERGY =    0.000000
 -0.53415951D-01 -0.99578094D-01 -0.16830054D+00 -0.25298711D+00 -0.31074935D+00
 -0.26226149D+00 -0.98617169D-01 -0.89078446D-05 -0.66580619D-04 -0.24882698D-03
 -0.69418852D-03 -0.93002123D-03  0.10981817D-02 -0.42253429D-02 -0.55679579D-03
 -0.38289074D-04 -0.11171009D-13 -0.10473531D-13 -0.74577783D-14 -0.32064593D-05
 -0.30062594D-05 -0.21406358D-05  0.24038464D-02  0.22537588D-02  0.16048105D-02
  0.22106195D-14  0.48765621D-05  0.45945137D-04  0.81158101D-15  0.54020917D-06
 -0.60528042D-03 -0.49468619D-16 -0.10178170D-06 -0.49884540D-06  0.18864275D-03
 -0.14380714D-03 -0.44835613D-04  0.12802664D-14  0.10369764D-13 -0.53203327D-05
  0.37413066D-04  0.14522529D-03 -0.18263836D-03 -0.58767364D-14 -0.74132490D-14
 -0.41713219D-05  0.10797878D-04  0.84680611D-04 -0.95478489D-04 -0.18912261D-15
 -0.59855059D-15 -0.45687155D-06 -0.33200535D-15 -0.52584028D-06  0.99072593D-05
  0.31310466D-14 -0.15213514D-05 -0.17071003D-03 -0.21350306D-14  0.30988723D-05
  0.14098825D-03  0.62111157D-14 -0.18013923D-15 -0.10259267D-06  0.58277559D-04
  0.80323368D-15 -0.38865171D-06  0.11324885D-04 -0.26281597D-15  0.69642972D-06
 -0.18615756D-03  0.22710800D-14 -0.12113813D+00 -0.22647994D+00 -0.39142466D+00
 -0.63311325D+00 -0.95692949D+00 -0.13178900D+01 -0.15404530D+01 -0.13313636D+01
 -0.62135433D+00 -0.84179878D-01  0.61570375D-03 -0.15085681D-02 -0.19392492D-01
 -0.70741022D-01 -0.23867846D+00 -0.52424498D+00 -0.67718153D+00  0.10882883D+00
  0.91294455D+00  0.50101220D+00 -0.12528273D-04 -0.14270482D-03 -0.29630664D-03
 -0.81476801D-03  0.10564403D-03  0.36840099D-02  0.91885057D-02 -0.76061120D-02
  0.27972992D-01  0.11394574D-02  0.33680416D-05  0.13399792D-10  0.17579765D-10
  0.19281197D-10  0.15863988D-10  0.83625926D-11  0.21757893D-11 -0.51711035D-02
 -0.67841937D-02 -0.74407923D-02 -0.61220597D-02 -0.32272018D-02 -0.83965720D-03
  0.66579298D+01  0.87348253D+01  0.95802130D+01  0.78823106D+01  0.41551060D+01
  0.10810804D+01  0.55029586D-16  0.19753217D-14  0.31338974D-14  0.37214070D-14
  0.56314697D-15 -0.40984782D-14 -0.36202493D-07 -0.12995113D-05 -0.20617073D-05
 -0.24482142D-05 -0.37047933D-06  0.26962791D-05  0.55911119D-04  0.20069649D-02
  0.31841001D-02  0.37810212D-02  0.57216817D-03 -0.41641327D-02  0.98893946D-13
 -0.35532355D-04  0.48627493D-01  0.94629803D-15  0.67839078D-06 -0.64408598D-03
  0.31656874D-16  0.57382574D-07 -0.13445258D-05 -0.25522316D-03 -0.10209174D-03
  0.35731490D-03 -0.71905159D-16 -0.18868269D-14 -0.77182836D-07  0.35811263D-03
 -0.38165712D-03  0.23544495D-04  0.14529090D-14  0.18896235D-14  0.10982815D-05
 -0.53560369D-05 -0.23235541D-04  0.28591578D-04 -0.22080840D-16 -0.28609541D-15
 -0.60738169D-07 -0.32246417D-15  0.96484062D-07 -0.69436097D-04 -0.22335558D-15
 -0.56395784D-08  0.20765356D-03  0.11907481D-14 -0.28381261D-06  0.65472811D-06
  0.16773841D-14 -0.11519728D-15 -0.35063363D-07 -0.19689281D-04  0.10461837D-16
  0.19147810D-07  0.25835050D-04  0.33513001D-15  0.86042277D-07  0.33232793D-04
  0.42925642D-15 -0.22556629D-04 -0.40681810D-04 -0.59985305D-04 -0.38829982D-03
 -0.43819637D-03  0.28651649D-05  0.45182535D-14  0.21310472D-04  0.90976250D-04
 -0.10852211D-13  0.36547984D-04  0.26578489D-04 -0.17254070D-14  0.36564172D-04
 -0.12318160D-03 -0.10009136D-03  0.20219007D-04  0.79872357D-04 -0.57531284D-14
 -0.41134065D-14  0.13191989D-03 -0.31235196D-04  0.21947861D-04  0.92873343D-05
 -0.31684788D-14 -0.13404126D-14 -0.64415454D-04 -0.23202704D-04 -0.41847033D-04
 -0.61703426D-04 -0.40089301D-03 -0.44553222D-03  0.30346525D-05  0.19154343D-15
 -0.20484355D-04  0.85521367D-04 -0.63300720D-16 -0.22021869D-04  0.28704654D-04
 -0.21850156D-15 -0.32756593D-04 -0.12113280D-03 -0.99315789D-04  0.19120673D-04
  0.80195116D-04 -0.33986035D-15  0.72827273D-15 -0.13359965D-03 -0.30791711D-04
  0.20697868D-04  0.10093843D-04  0.33437698D-15  0.39156684D-16  0.63454863D-04
MO    3     MO 0.0        OCC NO =    2.0000101  ORB. ENERGY =    0.000000
 -0.15153390D+00 -0.28248973D+00 -0.47744612D+00 -0.71769057D+00 -0.88155432D+00
 -0.74400075D+00 -0.27976371D+00 -0.23261827D-04 -0.17386774D-03 -0.64978346D-03
 -0.18127947D-02 -0.24286451D-02  0.28677770D-02 -0.12247658D-01 -0.11475206D-03
 -0.10598272D-03  0.84396884D-13  0.79127443D-13  0.56343453D-13 -0.22605897D-04
 -0.21194465D-04 -0.15091722D-04  0.37262796D-02  0.34936240D-02  0.24876684D-02
  0.23391827D-13  0.16656649D-04  0.54671397D-03  0.15022671D-13  0.65216712D-05
 -0.16061175D-03  0.65815457D-15 -0.73044794D-08 -0.38753918D-05  0.44853672D-03
 -0.44132487D-03 -0.72118478D-05 -0.11162315D-14  0.12729750D-13 -0.19159457D-04
 -0.11691603D-03 -0.25239544D-05  0.11943999D-03 -0.10831437D-14 -0.16510948D-13
 -0.86555085D-05  0.12754708D-04  0.58965485D-04 -0.71720193D-04 -0.80927335D-15
  0.32419551D-14 -0.30780937D-06 -0.14889995D-14 -0.55528297D-06  0.71772026D-04
 -0.20781345D-14 -0.37729420D-05 -0.44769712D-03  0.65451329D-14  0.54387909D-05
  0.23238104D-03  0.41976620D-15 -0.30261208D-15 -0.27330602D-06  0.11808878D-03
  0.57401503D-14 -0.11106365D-05 -0.20932586D-04 -0.48323140D-14  0.19305545D-05
 -0.33333376D-03  0.64193424D-15  0.11206936D+00  0.20952495D+00  0.36212139D+00
  0.58571643D+00  0.88529077D+00  0.12192287D+01  0.14251299D+01  0.12316936D+01
  0.57483782D+00  0.77877911D-01 -0.56961026D-03  0.14083172D-02  0.18103776D-01
  0.66039973D-01  0.22281723D+00  0.48940662D+00  0.63217986D+00 -0.10159668D+00
 -0.85227541D+00 -0.46771775D+00  0.63478150D-05  0.72305560D-04  0.15013241D-03
  0.41282599D-03 -0.53527630D-04 -0.18666111D-02 -0.46556246D-02  0.38538586D-02
 -0.27762238D-01  0.11076200D-02  0.29423223D-04 -0.28564674D-09 -0.37475228D-09
 -0.41102215D-09 -0.33817664D-09 -0.17826750D-09 -0.46381849D-10  0.28552032D-02
  0.37458643D-02  0.41084024D-02  0.33802698D-02  0.17818860D-02  0.46361322D-03
  0.56936236D+01  0.74697103D+01  0.81926556D+01  0.67406703D+01  0.35532981D+01
  0.92450133D+00 -0.14928326D-14 -0.53586168D-13 -0.85015799D-13 -0.10095365D-12
 -0.15276949D-13  0.11118277D-12  0.40721903D-07  0.14617384D-05  0.23190847D-05
  0.27538419D-05  0.41672886D-06 -0.30328746D-05  0.36640482D-04  0.13152332D-02
  0.20866505D-02  0.24778334D-02  0.37496151D-03 -0.27288996D-02 -0.22089234D-11
  0.22146099D-04  0.43833465D-01 -0.11582680D-13 -0.52382588D-06 -0.11761275D-03
 -0.41454970D-16  0.35622106D-07  0.48805357D-06 -0.15178464D-03 -0.13825354D-03
  0.29003818D-03 -0.43219410D-15 -0.13921298D-13  0.17150437D-05 -0.11465251D-03
  0.47060084D-03 -0.35594833D-03  0.18584741D-16  0.86914958D-14  0.11954482D-05
  0.61851293D-05  0.20062831D-05 -0.81914125D-05  0.19776036D-15  0.33310042D-14
  0.12418464D-06 -0.40246380D-14  0.34862582D-06 -0.44156652D-04  0.16961192D-14
  0.28042908D-06  0.20952303D-03  0.10377795D-13 -0.13263065D-05 -0.77053078D-04
 -0.15852901D-15  0.23025587D-15  0.61478335D-09 -0.13056740D-04 -0.51946072D-15
  0.10100335D-06  0.19855963D-04 -0.17130688D-15 -0.10284770D-06  0.19314258D-04
 -0.45867547D-15  0.39889080D-04  0.71941598D-04  0.10607784D-03 -0.34650362D-03
  0.17086587D-04  0.70011335D-05  0.11841713D-13  0.17412962D-03  0.20556116D-03
 -0.15118374D-13  0.13431292D-03  0.17282425D-03 -0.16476418D-14  0.76204196D-04
 -0.56184607D-04 -0.23444960D-03  0.11169028D-03  0.12275931D-03 -0.80677182D-14
  0.12129506D-14  0.45226016D-03 -0.64092313D-04  0.10103051D-04  0.53989262D-04
 -0.16950169D-14 -0.60275044D-14 -0.58038002D-04  0.36531428D-04  0.65885936D-04
  0.97148774D-04 -0.38491543D-03 -0.10342102D-04  0.67253898D-05  0.97653199D-14
 -0.16625657D-03  0.19317366D-03 -0.11500062D-13 -0.10309526D-03  0.16821166D-03
  0.53422174D-15 -0.70000244D-04 -0.56838314D-04 -0.23160170D-03  0.10904123D-03
  0.12256047D-03  0.25520045D-14  0.33866191D-14 -0.45094796D-03 -0.62612578D-04
  0.81714041D-05  0.54441174D-04  0.69002643D-15 -0.49736386D-14  0.57461819D-04
MO    4     MO 0.0        OCC NO =    2.0000048  ORB. ENERGY =    0.000000
  0.28555269D+00  0.53232774D+00  0.89970641D+00  0.13524265D+01  0.16612138D+01
  0.14020058D+01  0.52719080D+00  0.30355847D-04  0.22689115D-03  0.84794402D-03
  0.23656318D-02  0.31692944D-02 -0.37423457D-02  0.23579842D-01 -0.50464950D-03
 -0.18422215D-05  0.40594966D-11  0.38060361D-11  0.27101245D-11  0.55733767D-04
  0.52253949D-04  0.37207925D-04  0.42154218D-02  0.39522259D-02  0.28142203D-02
  0.67587253D-12 -0.44462308D-04 -0.35786007D-03  0.76628360D-13 -0.79059116D-06
 -0.30312895D-03  0.52516880D-15  0.19379494D-06 -0.38663221D-05 -0.11760562D-02
  0.60525954D-03  0.57079662D-03  0.39025982D-15  0.91255345D-12  0.41686094D-04
  0.18315131D-03  0.10908895D-03 -0.29224025D-03 -0.79244034D-14 -0.84049140D-12
  0.17434351D-04  0.85452376D-05  0.36472500D-04 -0.45017737D-04  0.27393984D-15
  0.73726312D-13  0.12305352D-05 -0.11308647D-12  0.20996411D-06  0.41350500D-03
 -0.60019317D-13  0.96668124D-05  0.18581103D-03  0.39927872D-12 -0.10296705D-04
 -0.14263260D-02  0.52405275D-14  0.45013956D-13 -0.17314237D-05 -0.67072738D-04
  0.19240230D-12  0.40264945D-06 -0.22533780D-04 -0.32744417D-12  0.47916218D-05
  0.22375199D-03  0.22162929D-14  0.36878441D-01  0.68947961D-01  0.11916257D+00
  0.19274054D+00  0.29132088D+00  0.40120917D+00  0.46896467D+00  0.40531097D+00
  0.18916074D+00  0.25627130D-01 -0.18744052D-03  0.46253983D-03  0.59459030D-02
  0.21689799D-01  0.73180846D-01  0.16073797D+00  0.20762962D+00 -0.33367846D-01
 -0.27991657D+00 -0.15361460D+00  0.18332711D-05  0.20882097D-04  0.43358762D-04
  0.11922558D-03 -0.15458966D-04 -0.53908379D-03 -0.13445606D-02  0.11130078D-02
 -0.95186424D-02  0.12919517D-02  0.10244231D-03 -0.13355025D-07 -0.17521033D-07
 -0.19216781D-07 -0.15810989D-07 -0.83346543D-08 -0.21685203D-08  0.13985590D-03
  0.18348299D-03  0.20124113D-03  0.16557514D-03  0.87281800D-04  0.22709083D-04
  0.42459699D+01  0.55704710D+01  0.61096011D+01  0.50267957D+01  0.26498409D+01
  0.68943876D+00 -0.71056727D-13 -0.25506261D-11 -0.40466322D-11 -0.48052516D-11
 -0.72716122D-12  0.52921431D-11  0.88783731D-07  0.31869481D-05  0.50561730D-05
  0.60040503D-05  0.90857107D-06 -0.66124100D-05  0.31273745D-04  0.11225908D-02
  0.17810185D-02  0.21149048D-02  0.32004084D-03 -0.23291973D-02 -0.10345373D-09
  0.42186113D-05  0.33110075D-01 -0.23860993D-12 -0.35875749D-05 -0.34168731D-03
  0.20772297D-13 -0.11336852D-06 -0.45263699D-05 -0.13356534D-03 -0.22920999D-03
  0.36277533D-03 -0.37417700D-15 -0.85390116D-12  0.52052515D-05  0.10014345D-03
  0.34006311D-03 -0.44020656D-03  0.23072370D-14  0.54502425D-12 -0.25870628D-05
 -0.10154450D-04 -0.12006189D-04  0.22160639D-04 -0.11336528D-15  0.47640655D-13
  0.79357217D-06 -0.17841642D-12 -0.91450767D-07  0.55195825D-04  0.10081931D-12
  0.17854552D-06 -0.29787843D-04  0.43442994D-12  0.95806782D-07 -0.13579963D-03
 -0.10049287D-14 -0.89387973D-14  0.29465035D-06 -0.36594390D-04 -0.47915936D-13
  0.80661240D-08  0.28543021D-04  0.74732328D-13 -0.89201716D-06  0.81240148D-04
  0.46228640D-15 -0.30934742D-03 -0.55792082D-03 -0.82265392D-03 -0.57024368D-03
 -0.48183439D-03 -0.71178019D-05  0.18101624D-12 -0.82915259D-03 -0.37347024D-03
 -0.23698943D-12 -0.42545896D-03 -0.28459244D-03  0.76900987D-13 -0.37339071D-04
 -0.99515648D-04  0.27583986D-03 -0.43994266D-03  0.16410280D-03 -0.19421726D-12
  0.82017720D-13 -0.95943028D-03  0.50242545D-04 -0.25685869D-04 -0.24556676D-04
  0.49933688D-13 -0.15178438D-12 -0.80877986D-04 -0.29825959D-03 -0.53792346D-03
 -0.79316782D-03 -0.49243404D-03 -0.45813568D-03 -0.71002503D-05  0.17593300D-12
  0.80813714D-03 -0.35740330D-03 -0.22383073D-12  0.37923132D-03 -0.24048795D-03
  0.75935910D-13  0.33156919D-04 -0.96137566D-04  0.27596410D-03 -0.44540427D-03
  0.16944017D-03  0.18432520D-12  0.80548144D-13  0.94019616D-03  0.47285623D-04
 -0.23344092D-04 -0.23941531D-04 -0.50725023D-13 -0.14871260D-12  0.72926811D-04
MO    5     MO 0.0        OCC NO =    2.0000043  ORB. ENERGY =    0.000000
  0.38813840D-09  0.72356818D-09  0.12229288D-08  0.18382901D-08  0.22580101D-08
  0.19056809D-08  0.71658577D-09  0.41129331D-13  0.30741627D-12  0.11488848D-11
  0.32052096D-11  0.42940973D-11 -0.50705282D-11  0.32049655D-10 -0.65264446D-12
  0.11115573D-13 -0.29460727D-02 -0.27621305D-02 -0.19668014D-02 -0.49599115D-13
 -0.46502323D-13 -0.33112425D-13  0.58687892D-11  0.55023629D-11  0.39180102D-11
 -0.48889247D-03 -0.86912076D-13 -0.43276799D-12 -0.50256905D-04  0.13499741D-12
 -0.37267365D-12 -0.15960555D-06  0.22948057D-14 -0.40192158D-14 -0.15942033D-11
  0.81438471D-12  0.77981859D-12  0.89060725D-07 -0.66535185D-03 -0.25190838D-13
  0.24341302D-12  0.13469367D-12 -0.37810669D-12  0.41347839D-05  0.61306902D-03
  0.79222044D-14  0.11377601D-13  0.48391817D-13 -0.59769418D-13 -0.42223094D-06
 -0.52667622D-04 -0.42178256D-13  0.82935435D-04  0.15984437D-13  0.57186402D-12
  0.43273470D-04  0.20646396D-13  0.23491700D-12 -0.29207978D-03 -0.68599707D-13
 -0.19505091D-11 -0.48447027D-05 -0.33207939D-04 -0.22809519D-14 -0.87144520D-13
 -0.13957511D-03 -0.74733736D-14 -0.34526995D-13  0.23919893D-03  0.14316229D-13
  0.29596055D-12 -0.56966749D-06  0.44996393D-10  0.84125288D-10  0.14539350D-09
  0.23516800D-09  0.35544856D-09  0.48952626D-09  0.57219659D-09  0.49453098D-09
  0.23080018D-09  0.31268361D-10 -0.22870129D-12  0.67963699D-12  0.87366650D-11
  0.31870098D-10  0.10752892D-09  0.23618176D-09  0.30508241D-09 -0.49029340D-10
 -0.41129788D-09 -0.22571497D-09  0.27195270D-14  0.30977104D-13  0.64319634D-13
  0.17686266D-12 -0.22932275D-13 -0.79969239D-12 -0.19945598D-11  0.16510677D-11
 -0.13928668D-10  0.17032855D-11  0.11386772D-12  0.97155724D+01  0.12746279D+02
  0.13979909D+02  0.11502248D+02  0.60633311D+01  0.15775647D+01  0.80402769D-09
  0.10548386D-08  0.11569297D-08  0.95188687D-09  0.50178064D-09  0.13055388D-09
  0.59947475D-08  0.78647678D-08  0.86259482D-08  0.70971703D-08  0.37412247D-08
  0.97339629D-09  0.51675278D-04  0.18549167D-02  0.29428719D-02  0.34945701D-02
  0.52882056D-03 -0.38486569D-02  0.78733712D-14  0.28261963D-12  0.44838313D-12
  0.53244121D-12  0.80572389D-13 -0.58639075D-12  0.43343929D-13  0.15558577D-11
  0.24684072D-11  0.29311579D-11  0.44356144D-12 -0.32281571D-11  0.75264435D-01
  0.54731638D-11  0.46708016D-10  0.17063191D-03 -0.74002105D-14 -0.43736636D-12
 -0.15275214D-04 -0.15781961D-14 -0.51507583D-14 -0.18107514D-12 -0.31266988D-12
  0.49374501D-12  0.39369177D-07  0.62288315D-03  0.43007872D-13  0.13619352D-12
  0.48636106D-12 -0.62255458D-12 -0.39575764D-06 -0.39957233D-03 -0.85806637D-13
 -0.12858166D-13 -0.15286818D-13  0.28144984D-13  0.13206182D-06 -0.33587197D-04
 -0.11888562D-13  0.12971498D-03 -0.99123337D-15  0.80706533D-13 -0.73879127D-04
  0.84096420D-14 -0.43248631D-13 -0.31526580D-03 -0.54359419D-14 -0.19887097D-12
  0.75324443D-06  0.67147283D-05  0.15650638D-14 -0.50156171D-13  0.35017586D-04
 -0.97821589D-15  0.39001471D-13 -0.55161771D-04 -0.37169756D-14  0.11146704D-12
 -0.25956196D-06 -0.43289792D-12 -0.78074922D-12 -0.11512143D-11 -0.73974751D-12
 -0.34475886D-12 -0.69285977D-14 -0.12760528D-03 -0.11252649D-11 -0.48704251D-12
  0.16829711D-03 -0.57618128D-12 -0.36851255D-12 -0.56823775D-04 -0.99829894D-14
 -0.12569014D-12  0.36131136D-12 -0.61152807D-12  0.25021671D-12  0.14105774D-03
 -0.56520831D-04 -0.12857442D-11  0.69131893D-13 -0.38894075D-13 -0.30237817D-13
 -0.37229077D-04  0.10966761D-03 -0.11483505D-12 -0.39953069D-12 -0.72057005D-12
 -0.10624801D-11 -0.69818543D-12 -0.88930177D-12 -0.12073469D-13 -0.12592025D-03
  0.11091807D-11 -0.49490591D-12  0.16262763D-03  0.50224404D-12 -0.32573426D-12
 -0.55291373D-04  0.81332927D-13 -0.13405445D-12  0.37483116D-12 -0.58773452D-12
  0.21290336D-12 -0.13669995D-03 -0.57739540D-04  0.12750399D-11  0.60254267D-13
 -0.29602166D-13 -0.30652101D-13  0.36838898D-04  0.10769459D-03  0.96549823D-13
MO    6     MO 0.0        OCC NO =    2.0000000  ORB. ENERGY =    0.000000
 -0.81315524D-04 -0.15158852D-03 -0.25620525D-03 -0.38512427D-03 -0.47305619D-03
 -0.39924273D-03 -0.15012569D-03  0.49933479D-07  0.37322182D-06  0.13948151D-05
  0.38913171D-05  0.52132921D-05 -0.61559258D-05  0.15835968D-05 -0.30074307D-04
 -0.71946162D-05 -0.41752377D-13 -0.39145507D-13 -0.27873933D-13 -0.24410247D-07
 -0.22886158D-07 -0.16296308D-07  0.14574234D-04  0.13664270D-04  0.97297745D-05
 -0.64380345D-14 -0.18984290D-06 -0.38150353D-04 -0.15378272D-14  0.27184355D-06
  0.39890956D-05  0.11387277D-16  0.56381582D-08 -0.39146213D-06  0.15139627D-05
  0.88962556D-05 -0.10410218D-04 -0.30853636D-14 -0.81115949D-14  0.18527578D-06
  0.62503202D-05  0.42527790D-05 -0.10503099D-04  0.76691443D-15  0.79371347D-14
 -0.10877673D-07  0.63646756D-06 -0.89884439D-06  0.26237683D-06  0.58341468D-15
 -0.86371596D-15  0.25923888D-07  0.81588349D-15 -0.18952060D-07  0.21247532D-05
  0.95079677D-15  0.52721621D-07  0.35489495D-06 -0.33984472D-14  0.41345599D-08
 -0.67291546D-05 -0.62726927D-15 -0.37388922D-15 -0.44487240D-07 -0.38894320D-06
 -0.19557423D-14 -0.20040318D-07  0.64176090D-06  0.30774100D-14  0.15350204D-06
  0.52506870D-06  0.86605572D-16  0.58266924D+00  0.10893588D+01  0.18827359D+01
  0.30452477D+01  0.46027899D+01  0.63389947D+01  0.74095129D+01  0.64038020D+01
  0.29886878D+01  0.40490161D+00 -0.29615087D-02 -0.29345383D-04 -0.37723194D-03
 -0.13760879D-02 -0.46428865D-02 -0.10197862D-01 -0.13172856D-01  0.21169900D-02
  0.17759030D-01  0.97459267D-02  0.19749583D-06  0.22496003D-05  0.46709811D-05
  0.12844012D-04 -0.16653736D-05 -0.58074772D-04 -0.14484770D-03  0.11990283D-03
  0.14061021D-04 -0.17627796D-04  0.32579568D-05  0.15254571D-09  0.20013129D-09
  0.21950072D-09  0.18059858D-09  0.95201302D-10  0.24769588D-10  0.19538149D-05
  0.25632941D-05  0.28113789D-05  0.23131178D-05  0.12193442D-05  0.31725043D-06
  0.11187982D-01  0.14677996D-01  0.16098585D-01  0.13245431D-01  0.69822382D-02
  0.18166470D-02  0.76813386D-15  0.27572650D-13  0.43744700D-13  0.51945489D-13
  0.78607217D-14 -0.57208860D-13  0.23776061D-08  0.85345671D-07  0.13540305D-06
  0.16078696D-06  0.24331306D-07 -0.17707868D-06  0.70317329D-06  0.25240849D-04
  0.40045240D-04  0.47552494D-04  0.71959457D-05 -0.52370744D-04  0.11824961D-11
  0.15396063D-06  0.16272126D-03  0.33450782D-14 -0.95596631D-07  0.53037600D-05
 -0.24281113D-15 -0.18134276D-08 -0.32531535D-07 -0.57956612D-05 -0.37283665D-05
  0.95240277D-05  0.28944519D-17  0.80731449D-14  0.14421527D-06  0.91703786D-05
 -0.15973053D-04  0.68026746D-05  0.25406225D-14 -0.66667626D-14 -0.11937483D-07
  0.59782809D-06  0.49200973D-06 -0.10898378D-05 -0.88216671D-16 -0.59388817D-15
  0.22125395D-07  0.18450878D-14  0.10477067D-07 -0.69758841D-05 -0.87687909D-15
  0.71000963D-08  0.12188681D-04 -0.46583844D-14 -0.38531298D-07  0.87389708D-05
 -0.92733922D-16  0.43929635D-16  0.53018031D-08 -0.54211004D-07  0.48091946D-15
  0.36887129D-08 -0.15024091D-07 -0.61270837D-15 -0.19594122D-07  0.17765710D-06
  0.27949671D-15 -0.12250413D-05 -0.22094125D-05 -0.32577774D-05  0.29194612D-05
  0.17423460D-04  0.24231129D-06 -0.50258889D-14 -0.58564748D-05 -0.14524295D-05
  0.32026088D-14  0.99606871D-06 -0.15889232D-05  0.12223073D-15  0.77944734D-06
  0.25177446D-05 -0.23743746D-05 -0.16346522D-05  0.40090268D-05  0.17468410D-14
  0.66592560D-15 -0.20924699D-05 -0.38759419D-07 -0.43049820D-06  0.46925761D-06
 -0.61059173D-16  0.20628534D-14 -0.18692488D-05 -0.12020236D-05 -0.21678991D-05
 -0.31965660D-05  0.28304657D-05  0.16874239D-04  0.22561963D-06 -0.10339018D-14
  0.58328178D-05 -0.15612837D-05  0.19025332D-14 -0.90143936D-06 -0.10197829D-05
 -0.16444129D-14 -0.74888655D-06  0.24435046D-05 -0.23522947D-05 -0.17780714D-05
  0.41303661D-05 -0.31070705D-14 -0.19894805D-14  0.18180108D-05 -0.48812205D-07