 Entering Gaussian System, Link 0=/home/bruns/programas/chemistry/gaussian/g09/g09
 Input=GAUSSIAN.com
 Output=GAUSSIAN.log
 Initial command:
 /home/bruns/programas/chemistry/gaussian/g09/l1.exe /home/bruns/programas/chemistry/gaussian/work/Gau-25667.inp -scrdir=/home/bruns/programas/chemistry/gaussian/work/
 Entering Link 1 = /home/bruns/programas/chemistry/gaussian/g09/l1.exe PID=     25669.
  
 Copyright (c) 1988,1990,1992,1993,1995,1998,2003,2009,2010,
            Gaussian, Inc.  All Rights Reserved.
  
 This is part of the Gaussian(R) 09 program.  It is based on
 the Gaussian(R) 03 system (copyright 2003, Gaussian, Inc.),
 the Gaussian(R) 98 system (copyright 1998, Gaussian, Inc.),
 the Gaussian(R) 94 system (copyright 1995, Gaussian, Inc.),
 the Gaussian 92(TM) system (copyright 1992, Gaussian, Inc.),
 the Gaussian 90(TM) system (copyright 1990, Gaussian, Inc.),
 the Gaussian 88(TM) system (copyright 1988, Gaussian, Inc.),
 the Gaussian 86(TM) system (copyright 1986, Carnegie Mellon
 University), and the Gaussian 82(TM) system (copyright 1983,
 Carnegie Mellon University). Gaussian is a federally registered
 trademark of Gaussian, Inc.
  
 This software contains proprietary and confidential information,
 including trade secrets, belonging to Gaussian, Inc.
  
 This software is provided under written license and may be
 used, copied, transmitted, or stored only in accord with that
 written license.
  
 The following legend is applicable only to US Government
 contracts under FAR:
  
                    RESTRICTED RIGHTS LEGEND
  
 Use, reproduction and disclosure by the US Government is
 subject to restrictions as set forth in subparagraphs (a)
 and (c) of the Commercial Computer Software - Restricted
 Rights clause in FAR 52.227-19.
  
 Gaussian, Inc.
 340 Quinnipiac St., Bldg. 40, Wallingford CT 06492
  
  
 ---------------------------------------------------------------
 Warning -- This program may not be used in any manner that
 competes with the business of Gaussian, Inc. or will provide
 assistance to any competitor of Gaussian, Inc.  The licensee
 of this program is prohibited from giving any competitor of
 Gaussian, Inc. access to this program.  By using this program,
 the user acknowledges that Gaussian, Inc. is engaged in the
 business of creating and licensing software in the field of
 computational chemistry and represents and warrants to the
 licensee that it is not a competitor of Gaussian, Inc. and that
 it will not use this program in any manner prohibited above.
 ---------------------------------------------------------------
  

 Cite this work as:
 Gaussian 09, Revision B.01,
 M. J. Frisch, G. W. Trucks, H. B. Schlegel, G. E. Scuseria, 
 M. A. Robb, J. R. Cheeseman, G. Scalmani, V. Barone, B. Mennucci, 
 G. A. Petersson, H. Nakatsuji, M. Caricato, X. Li, H. P. Hratchian, 
 A. F. Izmaylov, J. Bloino, G. Zheng, J. L. Sonnenberg, M. Hada, 
 M. Ehara, K. Toyota, R. Fukuda, J. Hasegawa, M. Ishida, T. Nakajima, 
 Y. Honda, O. Kitao, H. Nakai, T. Vreven, J. A. Montgomery, Jr., 
 J. E. Peralta, F. Ogliaro, M. Bearpark, J. J. Heyd, E. Brothers, 
 K. N. Kudin, V. N. Staroverov, T. Keith, R. Kobayashi, J. Normand, 
 K. Raghavachari, A. Rendell, J. C. Burant, S. S. Iyengar, J. Tomasi, 
 M. Cossi, N. Rega, J. M. Millam, M. Klene, J. E. Knox, J. B. Cross, 
 V. Bakken, C. Adamo, J. Jaramillo, R. Gomperts, R. E. Stratmann, 
 O. Yazyev, A. J. Austin, R. Cammi, C. Pomelli, J. W. Ochterski, 
 R. L. Martin, K. Morokuma, V. G. Zakrzewski, G. A. Voth, 
 P. Salvador, J. J. Dannenberg, S. Dapprich, A. D. Daniels, 
 O. Farkas, J. B. Foresman, J. V. Ortiz, J. Cioslowski, 
 and D. J. Fox, Gaussian, Inc., Wallingford CT, 2010.
 
 ******************************************
 Gaussian 09:  EM64L-G09RevB.01 12-Aug-2010
                17-Nov-2021 
 ******************************************
 %nproc=8
 Will use up to    8 processors via shared memory.
 %mem=8GB
 -----------------------------------------------------
 # qcisd/aug-cc-pvtz nosymm density=current output=wfn
 -----------------------------------------------------
 1/30=1,38=1/1;
 2/12=2,15=1,17=6,18=5,40=1/2;
 3/5=16,6=1,7=10,11=9,16=1,25=1,30=1,71=1/1,2,3;
 4//1;
 5/5=2,38=5/2;
 8/6=4,9=120000,10=1/1,4;
 9/5=8,15=1/13;
 11/28=-7,31=1,32=3,42=3/11;
 10/5=6,13=10,31=1/2;
 6/7=2,8=2,9=2,10=2,22=-1,31=1/1;
 99/5=1,6=1100,9=1/99;
 -----------------
 h2cs-wavefunction
 -----------------
 Symbolic Z-matrix:
 Charge =  0 Multiplicity = 1
 C                     0.        0.       -0.55529 
 S                     0.       -0.01      1.06037 
 H                     0.       -0.92228  -1.12899 
 H                     0.        0.92228  -1.12899 
 
                          Input orientation:                          
 ---------------------------------------------------------------------
 Center     Atomic      Atomic             Coordinates (Angstroms)
 Number     Number       Type             X           Y           Z
 ---------------------------------------------------------------------
      1          6           0        0.000000    0.000000   -0.555291
      2         16           0        0.000000   -0.010000    1.060374
      3          1           0        0.000000   -0.922280   -1.128992
      4          1           0        0.000000    0.922280   -1.128992
 ---------------------------------------------------------------------
                    Distance matrix (angstroms):
                    1          2          3          4
     1  C    0.000000
     2  S    1.615696   0.000000
     3  H    1.086155   2.371830   0.000000
     4  H    1.086155   2.379594   1.844560   0.000000
 Symmetry turned off by external request.
 Stoichiometry    CH2S
 Framework group  CS[SG(CH2S)]
 Deg. of freedom     5
 Full point group                 CS      NOp   2
 Rotational constants (GHZ):    294.7725064     17.6280969     16.6333811
 Standard basis: Aug-CC-pVTZ (5D, 7F)
 Integral buffers will be    131072 words long.
 Raffenetti 1 integral format.
 Two-electron integral symmetry is turned off.
   142 basis functions,   240 primitive gaussians,   164 cartesian basis functions
    12 alpha electrons       12 beta electrons
       nuclear repulsion energy        44.7033451864 Hartrees.
 NAtoms=    4 NActive=    4 NUniq=    4 SFac= 1.00D+00 NAtFMM=   50 NAOKFM=F Big=F
 One-electron integrals computed using PRISM.
 NBasis=   142 RedAO= T  NBF=   142
 NBsUse=   142 1.00D-06 NBFU=   142
 Harris functional with IExCor=  205 diagonalized for initial guess.
 ExpMin= 2.53D-02 ExpMax= 3.74D+05 ExpMxC= 1.18D+03 IAcc=3 IRadAn=         0 AccDes= 0.00D+00
 HarFok:  IExCor=  205 AccDes= 0.00D+00 IRadAn=         0 IDoV= 1
 ScaDFX=  1.000000  1.000000  1.000000  1.000000
 FoFCou: FMM=F IPFlag=           0 FMFlag=      100000 FMFlg1=           0
         NFxFlg=           0 DoJE=T BraDBF=F KetDBF=T FulRan=T
         Omega=  0.000000  0.000000  1.000000  0.000000  0.000000 ICntrl=     500 IOpCl=  0
         NMat0=    1 NMatS0=    1 NMatT0=    0 NMatD0=    1 NMtDS0=    0 NMtDT0=    0
         I1Cent=           4 NGrid=           0.
 Symmetry not used in FoFCou.
 Requested convergence on RMS density matrix=1.00D-08 within 128 cycles.
 Requested convergence on MAX density matrix=1.00D-06.
 Requested convergence on             energy=1.00D-06.
 No special actions if energy rises.
 Keep R1 ints in memory in canonical form, NReq=93884347.
 SCF Done:  E(RHF) =  -436.557582831     A.U. after   11 cycles
             Convg  =    0.6269D-08             -V/T =  2.0003
 ExpMin= 2.53D-02 ExpMax= 3.74D+05 ExpMxC= 1.18D+03 IAcc=3 IRadAn=         5 AccDes= 0.00D+00
 HarFok:  IExCor=  205 AccDes= 0.00D+00 IRadAn=         5 IDoV=-2
 ScaDFX=  1.000000  1.000000  1.000000  1.000000
 Range of M.O.s used for correlation:     7   142
 NBasis=   142 NAE=    12 NBE=    12 NFC=     6 NFV=     0
 NROrb=    136 NOA=     6 NOB=     6 NVA=   130 NVB=   130

 **** Warning!!: The largest alpha MO coefficient is  0.44500313D+02

 Semi-Direct transformation.
 ModeAB=           2 MOrb=             6 LenV=    1073081981
 LASXX=      7286295 LTotXX=     7286295 LenRXX=     7286295
 LTotAB=     7445736 MaxLAS=    11040480 LenRXY=    11040480
 NonZer=    14572590 LenScr=    22628352 LnRSAI=           0
 LnScr1=           0 LExtra=           0 Total=     40955127
 MaxDsk=          -1 SrtSym=           F ITran=            4
 JobTyp=0 Pass  1:  I=   1 to   6.
 (rs|ai) integrals will be sorted in core.
 Spin components of T(2) and E(2):
     alpha-alpha T2 =       0.1684020257D-01 E2=     -0.3867690966D-01
     alpha-beta  T2 =       0.1052182411D+00 E2=     -0.2635171290D+00
     beta-beta   T2 =       0.1684020257D-01 E2=     -0.3867690966D-01
 ANorm=    0.1067191944D+01
 E2 =    -0.3408709484D+00 EUMP2 =    -0.43689845377919D+03
 R2 and R3 integrals will be kept in memory, NReq=   185320410.
 Iterations=  50 Convergence= 0.100D-07
 Iteration Nr.   1
 **********************
 DD1Dir will call FoFMem   1 times, MxPair=        42
 NAB=    21 NAA=     0 NBB=     0.
 MP4(R+Q)=  0.11663409D-01
 E3=       -0.22811994D-01        EUMP3=      -0.43692126577D+03
 E4(DQ)=    0.16434993D-02        UMP4(DQ)=   -0.43691962227D+03
 E4(SDQ)=  -0.18393945D-02        UMP4(SDQ)=  -0.43692310517D+03
 DE(Corr)= -0.35201953     E(Corr)=     -436.90960236    
 NORM(A)=   0.10738376D+01
 Iteration Nr.   2
 **********************
 DD1Dir will call FoFMem   1 times, MxPair=        42
 NAB=    21 NAA=     0 NBB=     0.
 DE(Corr)= -0.36344115     E(CORR)=     -436.92102398     Delta=-1.14D-02
 NORM(A)=   0.10812052D+01
 Iteration Nr.   3
 **********************
 DD1Dir will call FoFMem   1 times, MxPair=        42
 NAB=    21 NAA=     0 NBB=     0.
 DE(Corr)= -0.36436812     E(CORR)=     -436.92195095     Delta=-9.27D-04
 NORM(A)=   0.10836317D+01
 Iteration Nr.   4
 **********************
 DD1Dir will call FoFMem   1 times, MxPair=        42
 NAB=    21 NAA=     0 NBB=     0.
 DE(Corr)= -0.36569621     E(CORR)=     -436.92327904     Delta=-1.33D-03
 NORM(A)=   0.10846228D+01
 Iteration Nr.   5
 **********************
 DD1Dir will call FoFMem   1 times, MxPair=        42
 NAB=    21 NAA=     0 NBB=     0.
 DE(Corr)= -0.36589377     E(CORR)=     -436.92347660     Delta=-1.98D-04
 NORM(A)=   0.10849844D+01
 Iteration Nr.   6
 **********************
 DD1Dir will call FoFMem   1 times, MxPair=        42
 NAB=    21 NAA=     0 NBB=     0.
 DE(Corr)= -0.36592579     E(CORR)=     -436.92350862     Delta=-3.20D-05
 NORM(A)=   0.10849991D+01
 Iteration Nr.   7
 **********************
 DD1Dir will call FoFMem   1 times, MxPair=        42
 NAB=    21 NAA=     0 NBB=     0.
 DE(Corr)= -0.36592718     E(CORR)=     -436.92351002     Delta=-1.40D-06
 NORM(A)=   0.10850107D+01
 Iteration Nr.   8
 **********************
 DD1Dir will call FoFMem   1 times, MxPair=        42
 NAB=    21 NAA=     0 NBB=     0.
 DE(Corr)= -0.36592423     E(CORR)=     -436.92350706     Delta= 2.96D-06
 NORM(A)=   0.10850097D+01
 Iteration Nr.   9
 **********************
 DD1Dir will call FoFMem   1 times, MxPair=        42
 NAB=    21 NAA=     0 NBB=     0.
 DE(Corr)= -0.36592668     E(CORR)=     -436.92350951     Delta=-2.45D-06
 NORM(A)=   0.10850110D+01
 Iteration Nr.  10
 **********************
 DD1Dir will call FoFMem   1 times, MxPair=        42
 NAB=    21 NAA=     0 NBB=     0.
 DE(Corr)= -0.36592636     E(CORR)=     -436.92350919     Delta= 3.20D-07
 NORM(A)=   0.10850118D+01
 Iteration Nr.  11
 **********************
 DD1Dir will call FoFMem   1 times, MxPair=        42
 NAB=    21 NAA=     0 NBB=     0.
 DE(Corr)= -0.36592688     E(CORR)=     -436.92350971     Delta=-5.24D-07
 NORM(A)=   0.10850123D+01
 Iteration Nr.  12
 **********************
 DD1Dir will call FoFMem   1 times, MxPair=        42
 NAB=    21 NAA=     0 NBB=     0.
 DE(Corr)= -0.36592699     E(CORR)=     -436.92350982     Delta=-1.08D-07
 NORM(A)=   0.10850127D+01
 Iteration Nr.  13
 **********************
 DD1Dir will call FoFMem   1 times, MxPair=        42
 NAB=    21 NAA=     0 NBB=     0.
 DE(Corr)= -0.36592708     E(CORR)=     -436.92350991     Delta=-9.01D-08
 NORM(A)=   0.10850129D+01
 Iteration Nr.  14
 **********************
 DD1Dir will call FoFMem   1 times, MxPair=        42
 NAB=    21 NAA=     0 NBB=     0.
 DE(Corr)= -0.36592711     E(CORR)=     -436.92350994     Delta=-2.93D-08
 NORM(A)=   0.10850130D+01
 Iteration Nr.  15
 **********************
 DD1Dir will call FoFMem   1 times, MxPair=        42
 NAB=    21 NAA=     0 NBB=     0.
 DE(Corr)= -0.36592712     E(CORR)=     -436.92350995     Delta=-9.03D-09
 NORM(A)=   0.10850130D+01
 Iteration Nr.  16
 **********************
 DD1Dir will call FoFMem   1 times, MxPair=        42
 NAB=    21 NAA=     0 NBB=     0.
 DE(Corr)= -0.36592712     E(CORR)=     -436.92350995     Delta=-1.46D-09
 NORM(A)=   0.10850130D+01
 Dominant configurations:
 ***********************
 Spin Case        I    J    A    B          Value
   ABAB          11   11   14   14      -0.114481D+00
 Largest amplitude= 1.14D-01

 Z-AMPLITUDE ITERATIONS

 Iteration Nr.   1
 **********************
 DD1Dir will call FoFMem   1 times, MxPair=        42
 NAB=    21 NAA=     0 NBB=     0.
 DE(Z)  -0.34991009D+00          E(Z)=    -0.43690749292D+03
 NORM(A)=   0.10850050D+01
 Iteration Nr.   2
 **********************
 DD1Dir will call FoFMem   1 times, MxPair=        42
 NAB=    21 NAA=     0 NBB=     0.
 DE(Z)  -0.34990973D+00          E(Z)=    -0.43690749256D+03
 NORM(A)=   0.10850193D+01
 Iteration Nr.   3
 **********************
 DD1Dir will call FoFMem   1 times, MxPair=        42
 NAB=    21 NAA=     0 NBB=     0.
 DE(Z)  -0.34991038D+00          E(Z)=    -0.43690749321D+03
 NORM(A)=   0.10850103D+01
 Iteration Nr.   4
 **********************
 DD1Dir will call FoFMem   1 times, MxPair=        42
 NAB=    21 NAA=     0 NBB=     0.
 DE(Z)  -0.34990996D+00          E(Z)=    -0.43690749279D+03
 NORM(A)=   0.10850164D+01
 Iteration Nr.   5
 **********************
 DD1Dir will call FoFMem   1 times, MxPair=        42
 NAB=    21 NAA=     0 NBB=     0.
 DE(Z)  -0.34991025D+00          E(Z)=    -0.43690749308D+03
 NORM(A)=   0.10768158D+01
 Iteration Nr.   6
 **********************
 DD1Dir will call FoFMem   1 times, MxPair=        42
 NAB=    21 NAA=     0 NBB=     0.
 DE(Z)  -0.34951201D+00          E(Z)=    -0.43690709484D+03
 NORM(A)=   0.10767963D+01
 Iteration Nr.   7
 **********************
 DD1Dir will call FoFMem   1 times, MxPair=        42
 NAB=    21 NAA=     0 NBB=     0.
 DE(Z)  -0.34950886D+00          E(Z)=    -0.43690709170D+03
 NORM(A)=   0.10767921D+01
 Iteration Nr.   8
 **********************
 DD1Dir will call FoFMem   1 times, MxPair=        42
 NAB=    21 NAA=     0 NBB=     0.
 DE(Z)  -0.34950918D+00          E(Z)=    -0.43690709201D+03
 NORM(A)=   0.10767904D+01
 Iteration Nr.   9
 **********************
 DD1Dir will call FoFMem   1 times, MxPair=        42
 NAB=    21 NAA=     0 NBB=     0.
 DE(Z)  -0.34950859D+00          E(Z)=    -0.43690709142D+03
 NORM(A)=   0.10767908D+01
 Iteration Nr.  10
 **********************
 DD1Dir will call FoFMem   1 times, MxPair=        42
 NAB=    21 NAA=     0 NBB=     0.
 DE(Z)  -0.34950876D+00          E(Z)=    -0.43690709159D+03
 NORM(A)=   0.10767908D+01
 Iteration Nr.  11
 **********************
 DD1Dir will call FoFMem   1 times, MxPair=        42
 NAB=    21 NAA=     0 NBB=     0.
 DE(Z)  -0.34950874D+00          E(Z)=    -0.43690709157D+03
 NORM(A)=   0.10767908D+01
 Iteration Nr.  12
 **********************
 DD1Dir will call FoFMem   1 times, MxPair=        42
 NAB=    21 NAA=     0 NBB=     0.
 DE(Z)  -0.34950875D+00          E(Z)=    -0.43690709158D+03
 NORM(A)=   0.10767908D+01
 Iteration Nr.  13
 **********************
 DD1Dir will call FoFMem   1 times, MxPair=        42
 NAB=    21 NAA=     0 NBB=     0.
 DE(Z)  -0.34950875D+00          E(Z)=    -0.43690709158D+03
 NORM(A)=   0.10767908D+01
 Discarding MO integrals.
          Differentiating once with respect to electric field.
                with respect to dipole field.
          Electric field/nuclear overlap derivatives assumed to be zero.
          Keep R1 ints in memory in canonical form, NReq=93478140.
          There are     1 degrees of freedom in the 1st order CPHF.  IDoFFX=0.
 LinEq1:  Iter=  0 NonCon=     1 RMS=2.95D-03 Max=4.36D-02
 AX will form     1 AO Fock derivatives at one time.
 LinEq1:  Iter=  1 NonCon=     1 RMS=9.86D-04 Max=1.21D-02
 LinEq1:  Iter=  2 NonCon=     1 RMS=4.76D-04 Max=1.32D-02
 LinEq1:  Iter=  3 NonCon=     1 RMS=1.60D-04 Max=2.46D-03
 LinEq1:  Iter=  4 NonCon=     1 RMS=3.99D-05 Max=5.26D-04
 LinEq1:  Iter=  5 NonCon=     1 RMS=8.74D-06 Max=9.99D-05
 LinEq1:  Iter=  6 NonCon=     1 RMS=1.55D-06 Max=2.20D-05
 LinEq1:  Iter=  7 NonCon=     1 RMS=2.01D-07 Max=2.70D-06
 LinEq1:  Iter=  8 NonCon=     1 RMS=2.32D-08 Max=2.27D-07
 LinEq1:  Iter=  9 NonCon=     1 RMS=3.70D-09 Max=3.77D-08
 LinEq1:  Iter= 10 NonCon=     1 RMS=5.19D-10 Max=5.82D-09
 LinEq1:  Iter= 11 NonCon=     0 RMS=6.51D-11 Max=6.48D-10
 Linear equations converged to 1.000D-10 1.000D-09 after    11 iterations.
 End of Minotr Frequency-dependent properties file   721 does not exist.
 End of Minotr Frequency-dependent properties file   722 does not exist.

 **********************************************************************

            Population analysis using the QCI/CC density.

 **********************************************************************

     Natural Orbital Coefficients:
                           1         2         3         4         5
     Eigenvalues --     2.00003   2.00002   2.00001   2.00000   2.00000
   1 1   C  1S         -0.00033  -0.15977  -0.45348   0.85526   0.00000
   2        2S          0.00001   0.00306   0.00798  -0.01042   0.00000
   3        3S         -0.00001  -0.00638  -0.01851   0.03567   0.00000
   4        4S          0.00005  -0.00359  -0.00075  -0.00333   0.00000
   5        5S          0.00003  -0.00058  -0.00157  -0.00006   0.00000
   6        6PX         0.00000   0.00000   0.00000   0.00000  -0.00135
   7        6PY        -0.00066   0.00000  -0.00001  -0.00001   0.00000
   8        6PZ         0.00001   0.00110   0.00170   0.00194   0.00000
   9        7PX         0.00000   0.00000   0.00000   0.00000  -0.00115
  10        7PY        -0.00139   0.00000   0.00001  -0.00002   0.00000
  11        7PZ         0.00002   0.00011   0.00129  -0.00087   0.00000
  12        8PX         0.00000   0.00000   0.00000   0.00000  -0.00048
  13        8PY         0.01585   0.00005   0.00005  -0.00006   0.00000
  14        8PZ        -0.00006  -0.00595  -0.00154  -0.00302   0.00000
  15        9PX         0.00000   0.00000   0.00000   0.00000  -0.00001
  16        9PY         0.00134   0.00001   0.00001   0.00000   0.00000
  17        9PZ         0.00000  -0.00002  -0.00017  -0.00018   0.00000
  18       10D 0        0.00000  -0.00002   0.00000   0.00030   0.00000
  19       10D+1        0.00000   0.00000   0.00000   0.00000  -0.00020
  20       10D-1       -0.00032   0.00000   0.00000   0.00000   0.00000
  21       10D+2        0.00000   0.00010   0.00027  -0.00054   0.00000
  22       10D-2        0.00000   0.00000   0.00000   0.00000   0.00000
  23       11D 0        0.00001  -0.00083   0.00054  -0.00135   0.00000
  24       11D+1        0.00000   0.00000   0.00000   0.00000   0.00160
  25       11D-1        0.00014   0.00002   0.00000   0.00003   0.00000
  26       11D+2        0.00000  -0.00028  -0.00029   0.00019   0.00000
  27       11D-2        0.00000   0.00000   0.00000   0.00000  -0.00001
  28       12D 0       -0.00002  -0.00330  -0.00247  -0.00157   0.00000
  29       12D+1        0.00000   0.00000   0.00000   0.00000  -0.00106
  30       12D-1       -0.00424   0.00004  -0.00001   0.00003   0.00000
  31       12D+2       -0.00002  -0.00147  -0.00092  -0.00056   0.00000
  32       12D-2        0.00000   0.00000   0.00000   0.00000   0.00000
  33       13F 0        0.00000   0.00001   0.00009   0.00052   0.00000
  34       13F+1        0.00000   0.00000   0.00000   0.00000  -0.00015
  35       13F-1       -0.00036   0.00000  -0.00001  -0.00001   0.00000
  36       13F+2       -0.00001  -0.00010  -0.00022   0.00053   0.00000
  37       13F-2        0.00000   0.00000   0.00000   0.00000   0.00000
  38       13F+3        0.00000   0.00000   0.00000   0.00000   0.00002
  39       13F-3        0.00001   0.00000   0.00000   0.00000   0.00000
  40       14F 0        0.00003   0.00077   0.00156  -0.00089   0.00000
  41       14F+1        0.00000   0.00000   0.00000   0.00000   0.00130
  42       14F-1        0.00197  -0.00002  -0.00005  -0.00002   0.00000
  43       14F+2        0.00003   0.00067   0.00106  -0.00084   0.00000
  44       14F-2        0.00000   0.00000   0.00000   0.00000  -0.00001
  45       14F+3        0.00000   0.00000   0.00000   0.00000   0.00045
  46       14F-3       -0.00017  -0.00001  -0.00001   0.00000   0.00000
  47 2   S  1S         -0.00006  -0.20714   0.19161   0.06302   0.00000
  48        2S          0.00019   0.70749  -0.66040  -0.21677   0.00000
  49        3S         -0.00002  -0.02027   0.01026   0.00297   0.00000
  50        4S          0.00001   0.04744  -0.04708  -0.01614   0.00000
  51        5S          0.00004   0.00733   0.00709   0.00839   0.00000
  52        6S          0.00000   0.00006   0.00039   0.00142   0.00000
  53        7PX         0.00000   0.00000   0.00000   0.00000   0.97149
  54        7PY         0.97713  -0.00636  -0.00530  -0.00361   0.00000
  55        7PZ         0.00905   0.66570   0.56953   0.42426   0.00000
  56        8PX         0.00000   0.00000   0.00000   0.00000  -0.01104
  57        8PY        -0.02057   0.00011   0.00008   0.00008   0.00000
  58        8PZ        -0.00018  -0.01193  -0.00781  -0.00671   0.00000
  59        9PX         0.00000   0.00000   0.00000   0.00000   0.06295
  60        9PY         0.05563  -0.00038  -0.00034  -0.00024   0.00000
  61        9PZ         0.00052   0.04067   0.03668   0.02768   0.00000
  62       10PX         0.00000   0.00000   0.00000   0.00000   0.00191
  63       10PY        -0.00639   0.00004   0.00004   0.00003   0.00000
  64       10PZ        -0.00008  -0.00716  -0.00129  -0.00386   0.00000
  65       11PX         0.00000   0.00000   0.00000   0.00000  -0.00070
  66       11PY        -0.00127   0.00000   0.00000   0.00000   0.00000
  67       11PZ        -0.00001  -0.00006   0.00002  -0.00022   0.00000
  68       12D 0        0.00003   0.00216   0.00175   0.00222   0.00000
  69       12D+1        0.00000   0.00000   0.00000   0.00000   0.00218
  70       12D-1        0.00269  -0.00002  -0.00003  -0.00004   0.00000
  71       12D+2        0.00001  -0.00053  -0.00005   0.00034   0.00000
  72       12D-2        0.00000   0.00000   0.00000   0.00000  -0.00001
  73       13D 0       -0.00001   0.00002  -0.00031  -0.00038   0.00000
  74       13D+1        0.00000   0.00000   0.00000   0.00000  -0.00020
  75       13D-1       -0.00054   0.00000   0.00001   0.00000   0.00000
  76       13D+2        0.00000   0.00037  -0.00029  -0.00012   0.00000
  77       13D-2        0.00000   0.00000   0.00000   0.00000   0.00000
  78       14D 0        0.00000   0.00096  -0.00028   0.00076   0.00000
  79       14D+1        0.00000   0.00000   0.00000   0.00000  -0.00066
  80       14D-1       -0.00058  -0.00001  -0.00001  -0.00001   0.00000
  81       14D+2        0.00000   0.00035   0.00008   0.00004   0.00000
  82       14D-2        0.00000   0.00000   0.00000   0.00000   0.00001
  83       15F 0        0.00000  -0.00018  -0.00011   0.00014   0.00000
  84       15F+1        0.00000   0.00000   0.00000   0.00000  -0.00033
  85       15F-1       -0.00014   0.00000   0.00000   0.00000   0.00000
  86       15F+2        0.00000   0.00014   0.00019   0.00007   0.00000
  87       15F-2        0.00000   0.00000   0.00000   0.00000   0.00000
  88       15F+3        0.00000   0.00000   0.00000   0.00000   0.00016
  89       15F-3        0.00010   0.00000   0.00000   0.00000   0.00000
  90       16F 0       -0.00001  -0.00041  -0.00027  -0.00077   0.00000
  91       16F+1        0.00000   0.00000   0.00000   0.00000  -0.00047
  92       16F-1       -0.00084   0.00001   0.00001   0.00002   0.00000
  93       16F+2       -0.00001  -0.00004   0.00000  -0.00029   0.00000
  94       16F-2        0.00000   0.00000   0.00000   0.00000   0.00000
  95       16F+3        0.00000   0.00000   0.00000   0.00000  -0.00019
  96       16F-3       -0.00024   0.00000   0.00000   0.00000   0.00000
  97 3   H  1S         -0.00042  -0.00009   0.00016  -0.00120   0.00000
  98        2S          0.00041  -0.00129  -0.00116  -0.00179   0.00000
  99        3S          0.01827  -0.00346   0.00009  -0.00376   0.00000
 100        4S          0.00056   0.00007   0.00017  -0.00016   0.00000
 101        5PX         0.00000   0.00000   0.00000   0.00000  -0.00006
 102        5PY        -0.00001   0.00001   0.00008  -0.00038   0.00000
 103        5PZ         0.00012   0.00004   0.00009  -0.00017   0.00000
 104        6PX         0.00000   0.00000   0.00000   0.00000   0.00039
 105        6PY        -0.00003   0.00006   0.00027  -0.00096   0.00000
 106        6PZ        -0.00074   0.00007   0.00042  -0.00061   0.00000
 107        7PX         0.00000   0.00000   0.00000   0.00000  -0.00070
 108        7PY         0.00382   0.00043   0.00091  -0.00045   0.00000
 109        7PZ         0.00161  -0.00150  -0.00069  -0.00122   0.00000
 110        8D 0        0.00011   0.00005   0.00007   0.00009   0.00000
 111        8D+1        0.00000   0.00000   0.00000   0.00000  -0.00002
 112        8D-1        0.00000   0.00004   0.00014  -0.00030   0.00000
 113        8D+2        0.00003  -0.00004  -0.00011   0.00023   0.00000
 114        8D-2        0.00000   0.00000   0.00000   0.00000   0.00004
 115        9D 0       -0.00002   0.00007   0.00038  -0.00017   0.00000
 116        9D+1        0.00000   0.00000   0.00000   0.00000   0.00045
 117        9D-1       -0.00048  -0.00026  -0.00024  -0.00032   0.00000
 118        9D+2        0.00019  -0.00021  -0.00030   0.00030   0.00000
 119        9D-2        0.00000   0.00000   0.00000   0.00000  -0.00015
 120 4   H  1S          0.00042  -0.00009   0.00015  -0.00121   0.00000
 121        2S         -0.00048  -0.00128  -0.00118  -0.00172   0.00000
 122        3S         -0.01837  -0.00343  -0.00001  -0.00359   0.00000
 123        4S         -0.00057   0.00006   0.00015  -0.00016   0.00000
 124        5PX         0.00000   0.00000   0.00000   0.00000  -0.00006
 125        5PY        -0.00001  -0.00001  -0.00008   0.00038   0.00000
 126        5PZ        -0.00012   0.00004   0.00009  -0.00017   0.00000
 127        6PX         0.00000   0.00000   0.00000   0.00000   0.00038
 128        6PY        -0.00003  -0.00009  -0.00031   0.00092   0.00000
 129        6PZ         0.00075   0.00005   0.00036  -0.00063   0.00000
 130        7PX         0.00000   0.00000   0.00000   0.00000  -0.00069
 131        7PY         0.00383  -0.00045  -0.00090   0.00041   0.00000
 132        7PZ        -0.00162  -0.00153  -0.00072  -0.00122   0.00000
 133        8D 0       -0.00011   0.00004   0.00007   0.00009   0.00000
 134        8D+1        0.00000   0.00000   0.00000   0.00000  -0.00002
 135        8D-1        0.00000  -0.00004  -0.00014   0.00030   0.00000
 136        8D+2       -0.00003  -0.00004  -0.00011   0.00022   0.00000
 137        8D-2        0.00000   0.00000   0.00000   0.00000  -0.00005
 138        9D 0        0.00002   0.00007   0.00038  -0.00018   0.00000
 139        9D+1        0.00000   0.00000   0.00000   0.00000   0.00045
 140        9D-1       -0.00047   0.00026   0.00024   0.00032   0.00000
 141        9D+2       -0.00020  -0.00022  -0.00030   0.00030   0.00000
 142        9D-2        0.00000   0.00000   0.00000   0.00000   0.00016
                           6         7         8         9        10
     Eigenvalues --     2.00000   1.97243   1.96168   1.95912   1.94155
   1 1   C  1S         -0.00024  -0.13848   0.07870   0.00020   0.06004
   2        2S         -0.00002   0.37066  -0.22030  -0.00052  -0.16614
   3        3S          0.00000   0.08229  -0.05222  -0.00014  -0.03860
   4        4S         -0.00020   0.24951  -0.22165  -0.00044  -0.08746
   5        5S         -0.00011   0.01886   0.00523   0.00034  -0.00560
   6        6PX         0.00000   0.00000   0.00000   0.00000   0.00000
   7        6PY         0.00000  -0.00046  -0.00174   0.24769   0.00058
   8        6PZ         0.00001   0.01412   0.16539   0.00140  -0.18341
   9        7PX         0.00000   0.00000   0.00000   0.00000   0.00000
  10        7PY         0.00000  -0.00061  -0.00227   0.33922   0.00070
  11        7PZ        -0.00009   0.00525   0.21405   0.00172  -0.23357
  12        8PX         0.00000   0.00000   0.00000   0.00000   0.00000
  13        8PY         0.00000   0.00002  -0.00137   0.22515  -0.00010
  14        8PZ         0.00004  -0.03165   0.10247   0.00112  -0.12992
  15        9PX         0.00000   0.00000   0.00000   0.00000   0.00000
  16        9PY         0.00000   0.00002  -0.00003   0.00612  -0.00009
  17        9PZ        -0.00002   0.00164   0.00753   0.00012  -0.00629
  18       10D 0       -0.00001   0.00849   0.00889   0.00007  -0.01086
  19       10D+1        0.00000   0.00000   0.00000   0.00000   0.00000
  20       10D-1        0.00000  -0.00008   0.00001  -0.01423  -0.00004
  21       10D+2        0.00000  -0.00706   0.00992   0.00006  -0.00307
  22       10D-2        0.00000   0.00000   0.00000   0.00000   0.00000
  23       11D 0       -0.00005   0.00971   0.01563   0.00023  -0.01363
  24       11D+1        0.00000   0.00000   0.00000   0.00000   0.00000
  25       11D-1        0.00000  -0.00009   0.00021  -0.03874  -0.00023
  26       11D+2        0.00001  -0.01772   0.02557   0.00016  -0.00827
  27       11D-2        0.00000   0.00000   0.00000   0.00000   0.00000
  28       12D 0        0.00001  -0.01054  -0.00262   0.00010  -0.00176
  29       12D+1        0.00000   0.00000   0.00000   0.00000   0.00000
  30       12D-1        0.00000   0.00011   0.00007  -0.03719   0.00080
  31       12D+2        0.00003  -0.00421   0.00333  -0.00002  -0.00396
  32       12D-2        0.00000   0.00000   0.00000   0.00000   0.00000
  33       13F 0        0.00000   0.00585   0.00136   0.00008  -0.00510
  34       13F+1        0.00000   0.00000   0.00000   0.00000   0.00000
  35       13F-1        0.00000  -0.00009  -0.00008   0.00561   0.00005
  36       13F+2        0.00000   0.00386  -0.00223   0.00006  -0.00028
  37       13F-2        0.00000   0.00000   0.00000   0.00000   0.00000
  38       13F+3        0.00000   0.00000   0.00000   0.00000   0.00000
  39       13F-3        0.00000  -0.00001   0.00000  -0.00232   0.00000
  40       14F 0       -0.00001   0.00565  -0.00588  -0.00001   0.00009
  41       14F+1        0.00000   0.00000   0.00000   0.00000   0.00000
  42       14F-1        0.00000  -0.00014  -0.00015   0.00328   0.00029
  43       14F+2        0.00000   0.00736  -0.00722  -0.00001   0.00022
  44       14F-2        0.00000   0.00000   0.00000   0.00000   0.00000
  45       14F+3        0.00000   0.00000   0.00000   0.00000   0.00000
  46       14F-3        0.00000  -0.00005   0.00000  -0.00296   0.00007
  47 2   S  1S          0.99624   0.04566   0.04848   0.00035   0.02728
  48        2S          0.01376  -0.17652  -0.18418  -0.00136  -0.10593
  49        3S          0.00032   0.36357   0.39959   0.00292   0.23711
  50        4S          0.00002   0.04550   0.05480   0.00040   0.03424
  51        5S         -0.00011   0.19454   0.21233   0.00149   0.31955
  52        6S          0.00004  -0.01530  -0.02871  -0.00028   0.05932
  53        7PX         0.00000   0.00000   0.00000   0.00000   0.00000
  54        7PY        -0.00001  -0.00021  -0.00013  -0.03899   0.00298
  55        7PZ         0.00112   0.04159   0.02189  -0.00033  -0.18226
  56        8PX         0.00000   0.00000   0.00000   0.00000   0.00000
  57        8PY         0.00000   0.00020   0.00026   0.08992  -0.00699
  58        8PZ        -0.00015  -0.05432  -0.02945   0.00090   0.38700
  59        9PX         0.00000   0.00000   0.00000   0.00000   0.00000
  60        9PY         0.00000   0.00010   0.00009   0.03902  -0.00296
  61        9PZ         0.00014  -0.02944  -0.01711   0.00036   0.17542
  62       10PX         0.00000   0.00000   0.00000   0.00000   0.00000
  63       10PY         0.00000  -0.00015   0.00002   0.03091  -0.00431
  64       10PZ         0.00006   0.01367   0.00665   0.00033   0.12021
  65       11PX         0.00000   0.00000   0.00000   0.00000   0.00000
  66       11PY         0.00000  -0.00004  -0.00005  -0.00183  -0.00024
  67       11PZ         0.00000   0.00600   0.00561   0.00001  -0.00313
  68       12D 0        0.00006   0.01214   0.00108  -0.00027  -0.02884
  69       12D+1        0.00000   0.00000   0.00000   0.00000   0.00000
  70       12D-1        0.00000  -0.00012  -0.00001  -0.02223   0.00053
  71       12D+2       -0.00001   0.00036   0.00144  -0.00012  -0.00052
  72       12D-2        0.00000   0.00000   0.00000   0.00000   0.00000
  73       13D 0        0.00001   0.02226   0.01012  -0.00026  -0.04666
  74       13D+1        0.00000   0.00000   0.00000   0.00000   0.00000
  75       13D-1        0.00000  -0.00021  -0.00009  -0.02179   0.00064
  76       13D+2        0.00001   0.00109   0.00140  -0.00010  -0.00015
  77       13D-2        0.00000   0.00000   0.00000   0.00000   0.00000
  78       14D 0       -0.00004  -0.00882  -0.00479  -0.00002   0.00209
  79       14D+1        0.00000   0.00000   0.00000   0.00000   0.00000
  80       14D-1        0.00000   0.00012   0.00010  -0.00219   0.00021
  81       14D+2        0.00000  -0.00120  -0.00211  -0.00004  -0.00057
  82       14D-2        0.00000   0.00000   0.00000   0.00000   0.00000
  83       15F 0       -0.00002  -0.00776  -0.00498   0.00012   0.01365
  84       15F+1        0.00000   0.00000   0.00000   0.00000   0.00000
  85       15F-1        0.00000   0.00012   0.00007   0.00859  -0.00034
  86       15F+2        0.00000  -0.00041  -0.00042   0.00009   0.00342
  87       15F-2        0.00000   0.00000   0.00000   0.00000   0.00000
  88       15F+3        0.00000   0.00000   0.00000   0.00000   0.00000
  89       15F-3        0.00000   0.00000   0.00000   0.00075  -0.00006
  90       16F 0        0.00000   0.00348   0.00275   0.00000  -0.00440
  91       16F+1        0.00000   0.00000   0.00000   0.00000   0.00000
  92       16F-1        0.00000  -0.00004  -0.00006   0.00084   0.00003
  93       16F+2        0.00000  -0.00043  -0.00069   0.00002   0.00062
  94       16F-2        0.00000   0.00000   0.00000   0.00000   0.00000
  95       16F+3        0.00000   0.00000   0.00000   0.00000   0.00000
  96       16F-3        0.00000   0.00000   0.00001   0.00083  -0.00004
  97 3   H  1S          0.00000   0.06801  -0.09989  -0.14089   0.03292
  98        2S          0.00001   0.05038  -0.09940  -0.15763   0.04730
  99        3S          0.00013  -0.03426   0.01578   0.07292   0.01338
 100        4S          0.00001  -0.00030   0.00312   0.00300  -0.00172
 101        5PX         0.00000   0.00000   0.00000   0.00000   0.00000
 102        5PY         0.00000   0.00539  -0.00945  -0.00810   0.00359
 103        5PZ         0.00000   0.00335  -0.00315  -0.00845  -0.00107
 104        6PX         0.00000   0.00000   0.00000   0.00000   0.00000
 105        6PY         0.00000  -0.00384  -0.00212   0.01270   0.00244
 106        6PZ         0.00000  -0.00348   0.00871  -0.00083  -0.00959
 107        7PX         0.00000   0.00000   0.00000   0.00000   0.00000
 108        7PY         0.00001  -0.01059   0.01463   0.03080  -0.00189
 109        7PZ         0.00003  -0.01365   0.00487   0.01291   0.00139
 110        8D 0        0.00000   0.00028   0.00138  -0.00132  -0.00162
 111        8D+1        0.00000   0.00000   0.00000   0.00000   0.00000
 112        8D-1        0.00000   0.00041  -0.00097  -0.00246   0.00000
 113        8D+2        0.00000  -0.00055   0.00158   0.00011  -0.00078
 114        8D-2        0.00000   0.00000   0.00000   0.00000   0.00000
 115        9D 0        0.00000  -0.00003  -0.00032  -0.00184  -0.00046
 116        9D+1        0.00000   0.00000   0.00000   0.00000   0.00000
 117        9D-1       -0.00001  -0.00382   0.00341   0.00344  -0.00062
 118        9D+2        0.00000   0.00154  -0.00064  -0.00298  -0.00026
 119        9D-2        0.00000   0.00000   0.00000   0.00000   0.00000
 120 4   H  1S          0.00000   0.06775  -0.10163   0.13977   0.03368
 121        2S          0.00001   0.05019  -0.10122   0.15628   0.04848
 122        3S          0.00013  -0.03420   0.01664  -0.07282   0.01709
 123        4S          0.00000  -0.00034   0.00315  -0.00299  -0.00137
 124        5PX         0.00000   0.00000   0.00000   0.00000   0.00000
 125        5PY         0.00000  -0.00537   0.00957  -0.00796  -0.00365
 126        5PZ         0.00000   0.00331  -0.00327   0.00840  -0.00104
 127        6PX         0.00000   0.00000   0.00000   0.00000   0.00000
 128        6PY         0.00000   0.00366   0.00185   0.01286  -0.00214
 129        6PZ         0.00000  -0.00363   0.00849   0.00100  -0.00925
 130        7PX         0.00000   0.00000   0.00000   0.00000   0.00000
 131        7PY        -0.00001   0.01052  -0.01503   0.03065   0.00140
 132        7PZ         0.00003  -0.01371   0.00508  -0.01269   0.00112
 133        8D 0        0.00000   0.00024   0.00134   0.00136  -0.00159
 134        8D+1        0.00000   0.00000   0.00000   0.00000   0.00000
 135        8D-1        0.00000  -0.00039   0.00102  -0.00244  -0.00003
 136        8D+2        0.00000  -0.00057   0.00157  -0.00007  -0.00077
 137        8D-2        0.00000   0.00000   0.00000   0.00000   0.00000
 138        9D 0        0.00000  -0.00005  -0.00035   0.00186  -0.00046
 139        9D+1        0.00000   0.00000   0.00000   0.00000   0.00000
 140        9D-1        0.00001   0.00380  -0.00342   0.00335   0.00062
 141        9D+2        0.00000   0.00150  -0.00071   0.00300  -0.00018
 142        9D-2        0.00000   0.00000   0.00000   0.00000   0.00000
                          11        12        13        14        15
     Eigenvalues --     1.94077   1.89917   0.08404   0.03696   0.02642
   1 1   C  1S          0.00034   0.00000   0.00000  -0.11158   0.00004
   2        2S         -0.00092   0.00000   0.00000   0.38439  -0.00035
   3        3S         -0.00023   0.00000   0.00000   0.15497  -0.00022
   4        4S         -0.00037   0.00000   0.00000   0.15622   0.00685
   5        5S          0.00045   0.00000   0.00000   0.09693   0.00134
   6        6PX         0.00000   0.19013  -0.30158   0.00000   0.00000
   7        6PY        -0.04031   0.00000   0.00000   0.00033   0.26236
   8        6PZ        -0.00180   0.00000   0.00000   0.27301  -0.00099
   9        7PX         0.00000   0.26563  -0.45883   0.00000   0.00000
  10        7PY        -0.05312   0.00000   0.00000   0.00044   0.61531
  11        7PZ        -0.00232   0.00000   0.00000   0.52861  -0.00228
  12        8PX         0.00000   0.17864  -0.20559   0.00000   0.00000
  13        8PY        -0.00340   0.00000   0.00000  -0.00253   0.17064
  14        8PZ        -0.00148   0.00000   0.00000   0.48073  -0.00545
  15        9PX         0.00000   0.01321  -0.00563   0.00000   0.00000
  16        9PY        -0.00202   0.00000   0.00000  -0.00047  -0.00656
  17        9PZ        -0.00014   0.00000   0.00000   0.03817  -0.00040
  18       10D 0        0.00001   0.00000   0.00000   0.00385   0.00018
  19       10D+1        0.00000   0.01135  -0.00308   0.00000   0.00000
  20       10D-1        0.01840   0.00000   0.00000   0.00024   0.06977
  21       10D+2        0.00003   0.00000   0.00000   0.00223   0.00023
  22       10D-2        0.00000  -0.00007   0.00001   0.00000   0.00000
  23       11D 0        0.00012   0.00000   0.00000   0.09529   0.00132
  24       11D+1        0.00000   0.03283  -0.03725   0.00000   0.00000
  25       11D-1        0.03582   0.00000   0.00000  -0.00106   0.04496
  26       11D+2        0.00002   0.00000   0.00000   0.05648   0.00037
  27       11D-2        0.00000  -0.00018   0.00024   0.00000   0.00000
  28       12D 0        0.00015   0.00000   0.00000   0.08162  -0.00184
  29       12D+1        0.00000   0.01107  -0.01436   0.00000   0.00000
  30       12D-1       -0.02252   0.00000   0.00000  -0.00045  -0.02005
  31       12D+2       -0.00009   0.00000   0.00000   0.03427  -0.00152
  32       12D-2        0.00000  -0.00011   0.00022   0.00000   0.00000
  33       13F 0        0.00002   0.00000   0.00000   0.01352   0.00025
  34       13F+1        0.00000   0.00634  -0.00593   0.00000   0.00000
  35       13F-1        0.00449   0.00000   0.00000  -0.00013   0.03294
  36       13F+2        0.00005   0.00000   0.00000   0.00238   0.00033
  37       13F-2        0.00000  -0.00008   0.00007   0.00000   0.00000
  38       13F+3        0.00000   0.00032   0.00010   0.00000   0.00000
  39       13F-3        0.00143   0.00000   0.00000  -0.00001  -0.00372
  40       14F 0        0.00002   0.00000   0.00000  -0.00577   0.00082
  41       14F+1        0.00000   0.00119  -0.01608   0.00000   0.00000
  42       14F-1        0.00094   0.00000   0.00000   0.00052   0.06773
  43       14F+2        0.00004   0.00000   0.00000  -0.03522   0.00111
  44       14F-2        0.00000  -0.00002   0.00025   0.00000   0.00000
  45       14F+3        0.00000   0.00060  -0.00504   0.00000   0.00000
  46       14F-3       -0.00052   0.00000   0.00000   0.00030   0.00409
  47 2   S  1S          0.00016   0.00000   0.00000  -0.02427   0.00005
  48        2S         -0.00062   0.00000   0.00000   0.07023  -0.00011
  49        3S          0.00138   0.00000   0.00000  -0.24967   0.00061
  50        4S          0.00020   0.00000   0.00000   0.00117  -0.00014
  51        5S          0.00179   0.00000   0.00000  -0.77621   0.00547
  52        6S          0.00042   0.00000   0.00000  -0.26440   0.00129
  53        7PX         0.00000  -0.17464  -0.20034   0.00000   0.00000
  54        7PY        -0.21558   0.00000   0.00000   0.00171   0.08421
  55        7PZ        -0.00302   0.00000   0.00000  -0.19479   0.00088
  56        8PX         0.00000   0.39380   0.53026   0.00000   0.00000
  57        8PY         0.52625   0.00000   0.00000  -0.00599  -0.24047
  58        8PZ         0.00698   0.00000   0.00000   0.74082  -0.00380
  59        9PX         0.00000   0.15982   0.20750   0.00000   0.00000
  60        9PY         0.22280   0.00000   0.00000  -0.00191  -0.12736
  61        9PZ         0.00304   0.00000   0.00000   0.21015  -0.00114
  62       10PX         0.00000   0.20852   0.16197   0.00000   0.00000
  63       10PY         0.40546   0.00000   0.00000  -0.00336   0.09246
  64       10PZ         0.00395   0.00000   0.00000   0.49342  -0.00203
  65       11PX         0.00000   0.00447   0.00189   0.00000   0.00000
  66       11PY         0.04148   0.00000   0.00000  -0.00012   0.02509
  67       11PZ         0.00029   0.00000   0.00000   0.03312   0.00001
  68       12D 0       -0.00016   0.00000   0.00000   0.09899  -0.00493
  69       12D+1        0.00000  -0.03657   0.03881   0.00000   0.00000
  70       12D-1        0.00256   0.00000   0.00000  -0.00252  -0.28240
  71       12D+2        0.00001   0.00000   0.00000   0.08723  -0.00280
  72       12D-2        0.00000   0.00020  -0.00032   0.00000   0.00000
  73       13D 0       -0.00037   0.00000   0.00000   0.16423  -0.00449
  74       13D+1        0.00000  -0.03494   0.05166   0.00000   0.00000
  75       13D-1       -0.00036   0.00000   0.00000  -0.00292  -0.24742
  76       13D+2       -0.00002   0.00000   0.00000   0.05466  -0.00221
  77       13D-2        0.00000   0.00021  -0.00035   0.00000   0.00000
  78       14D 0       -0.00005   0.00000   0.00000  -0.06708  -0.00012
  79       14D+1        0.00000  -0.00379  -0.01885   0.00000   0.00000
  80       14D-1       -0.01334   0.00000   0.00000   0.00069  -0.03105
  81       14D+2       -0.00008   0.00000   0.00000   0.01423  -0.00015
  82       14D-2        0.00000   0.00000   0.00009   0.00000   0.00000
  83       15F 0        0.00018   0.00000   0.00000  -0.01843   0.00076
  84       15F+1        0.00000   0.01081  -0.01556   0.00000   0.00000
  85       15F-1        0.00367   0.00000   0.00000   0.00052   0.03129
  86       15F+2        0.00011   0.00000   0.00000  -0.00452   0.00047
  87       15F-2        0.00000  -0.00014   0.00016   0.00000   0.00000
  88       15F+3        0.00000   0.00380   0.00231   0.00000   0.00000
  89       15F-3        0.00444   0.00000   0.00000   0.00006   0.00349
  90       16F 0       -0.00001   0.00000   0.00000   0.01044   0.00009
  91       16F+1        0.00000  -0.00081   0.00502   0.00000   0.00000
  92       16F-1        0.00198   0.00000   0.00000  -0.00001   0.00114
  93       16F+2        0.00007   0.00000   0.00000  -0.01211   0.00009
  94       16F-2        0.00000   0.00000  -0.00002   0.00000   0.00000
  95       16F+3        0.00000   0.00242   0.00281   0.00000   0.00000
  96       16F-3        0.00333   0.00000   0.00000   0.00010   0.00207
  97 3   H  1S          0.05234   0.00000   0.00000  -0.03164   0.17796
  98        2S          0.09033   0.00000   0.00000   0.09250   0.56483
  99        3S          0.16372   0.00000   0.00000   0.26382   0.28776
 100        4S          0.01593   0.00000   0.00000   0.01187   0.01119
 101        5PX         0.00000   0.00426  -0.01017   0.00000   0.00000
 102        5PY         0.00269   0.00000   0.00000  -0.00703   0.00659
 103        5PZ         0.00045   0.00000   0.00000   0.00547  -0.01306
 104        6PX         0.00000   0.01441  -0.01687   0.00000   0.00000
 105        6PY        -0.00022   0.00000   0.00000   0.02346   0.15150
 106        6PZ        -0.00224   0.00000   0.00000   0.03762   0.02135
 107        7PX         0.00000   0.00255   0.00885   0.00000   0.00000
 108        7PY         0.01939   0.00000   0.00000   0.04156   0.07221
 109        7PZ        -0.00089   0.00000   0.00000   0.06314   0.00719
 110        8D 0       -0.00096   0.00000   0.00000   0.00247  -0.01074
 111        8D+1        0.00000   0.00138  -0.00289   0.00000   0.00000
 112        8D-1        0.00006   0.00000   0.00000   0.00258  -0.00416
 113        8D+2       -0.00057   0.00000   0.00000   0.00194  -0.00757
 114        8D-2        0.00000   0.00146  -0.00487   0.00000   0.00000
 115        9D 0       -0.00089   0.00000   0.00000   0.00179  -0.00436
 116        9D+1        0.00000   0.00031  -0.00057   0.00000   0.00000
 117        9D-1       -0.00047   0.00000   0.00000   0.01149   0.02888
 118        9D+2        0.00059   0.00000   0.00000   0.00142  -0.02327
 119        9D-2        0.00000   0.00279   0.00383   0.00000   0.00000
 120 4   H  1S         -0.05158   0.00000   0.00000  -0.03371  -0.17874
 121        2S         -0.08936   0.00000   0.00000   0.08769  -0.56994
 122        3S         -0.16305   0.00000   0.00000   0.26460  -0.29813
 123        4S         -0.01601   0.00000   0.00000   0.01233  -0.01173
 124        5PX         0.00000   0.00424  -0.01017   0.00000   0.00000
 125        5PY         0.00261   0.00000   0.00000   0.00712   0.00663
 126        5PZ        -0.00051   0.00000   0.00000   0.00547   0.01271
 127        6PX         0.00000   0.01440  -0.01679   0.00000   0.00000
 128        6PY        -0.00034   0.00000   0.00000  -0.02177   0.15213
 129        6PZ         0.00197   0.00000   0.00000   0.03836  -0.02070
 130        7PX         0.00000   0.00263   0.00871   0.00000   0.00000
 131        7PY         0.01927   0.00000   0.00000  -0.04165   0.07237
 132        7PZ         0.00118   0.00000   0.00000   0.06383  -0.00944
 133        8D 0        0.00092   0.00000   0.00000   0.00263   0.01090
 134        8D+1        0.00000   0.00138  -0.00292   0.00000   0.00000
 135        8D-1        0.00006   0.00000   0.00000  -0.00255  -0.00414
 136        8D+2        0.00055   0.00000   0.00000   0.00198   0.00758
 137        8D-2        0.00000  -0.00144   0.00484   0.00000   0.00000
 138        9D 0        0.00084   0.00000   0.00000   0.00204   0.00511
 139        9D+1        0.00000   0.00028  -0.00067   0.00000   0.00000
 140        9D-1       -0.00051   0.00000   0.00000  -0.01146   0.02879
 141        9D+2       -0.00061   0.00000   0.00000   0.00160   0.02312
 142        9D-2        0.00000  -0.00280  -0.00387   0.00000   0.00000
                          16        17        18        19        20
     Eigenvalues --     0.02024   0.01796   0.01698   0.01596   0.01328
   1 1   C  1S         -0.14782   0.00000   0.08755  -0.00013   0.00000
   2        2S          0.56831   0.00000  -0.33264   0.00037   0.00000
   3        3S          0.30498   0.00000  -0.19350   0.00036   0.00000
   4        4S          0.14486   0.00000  -0.32892  -0.00611   0.00000
   5        5S         -0.03176   0.00000  -0.08505  -0.00238   0.00000
   6        6PX         0.00000   0.00024   0.00000   0.00000   0.08620
   7        6PY        -0.00212   0.00000  -0.00267   0.45429   0.00000
   8        6PZ        -0.31102   0.00000   0.02641   0.00025   0.00000
   9        7PX         0.00000   0.00000   0.00000   0.00000   0.10821
  10        7PY        -0.00323   0.00000  -0.00294   0.78094   0.00000
  11        7PZ        -0.55049   0.00000  -0.02737  -0.00059   0.00000
  12        8PX         0.00000  -0.00004   0.00000   0.00000   0.04425
  13        8PY         0.00026   0.00000  -0.00239   0.55543   0.00000
  14        8PZ        -0.27383   0.00000   0.02284  -0.00443   0.00000
  15        9PX         0.00000   0.00001   0.00000   0.00000  -0.01035
  16        9PY         0.00009   0.00000  -0.00024   0.03105   0.00000
  17        9PZ        -0.02646   0.00000  -0.00952  -0.00049   0.00000
  18       10D 0       -0.00410   0.00000   0.00539  -0.00135   0.00000
  19       10D+1        0.00000   0.00013   0.00000   0.00000  -0.14652
  20       10D-1        0.00031   0.00000   0.00051  -0.08614   0.00000
  21       10D+2        0.03237   0.00000   0.03786   0.00010   0.00000
  22       10D-2        0.00000   0.04318   0.00000   0.00000   0.00069
  23       11D 0       -0.05709   0.00000   0.01879  -0.00305   0.00000
  24       11D+1        0.00000   0.00070   0.00000   0.00000  -0.26550
  25       11D-1        0.00176   0.00000   0.00141  -0.33385   0.00000
  26       11D+2        0.03853   0.00000   0.10534   0.00049   0.00000
  27       11D-2        0.00000   0.08474   0.00000   0.00000   0.00094
  28       12D 0       -0.06209   0.00000  -0.02338  -0.00017   0.00000
  29       12D+1        0.00000   0.00012   0.00000   0.00000  -0.04404
  30       12D-1       -0.00267   0.00000  -0.00101  -0.06882   0.00000
  31       12D+2       -0.04745   0.00000   0.01840   0.00045   0.00000
  32       12D-2        0.00000   0.00789   0.00000   0.00000  -0.00019
  33       13F 0       -0.01606   0.00000   0.00301  -0.00054   0.00000
  34       13F+1        0.00000   0.00017   0.00000   0.00000  -0.05007
  35       13F-1       -0.00001   0.00000   0.00002  -0.02206   0.00000
  36       13F+2        0.01795   0.00000   0.02232  -0.00004   0.00000
  37       13F-2        0.00000   0.02545   0.00000   0.00000   0.00053
  38       13F+3        0.00000   0.00025   0.00000   0.00000  -0.01079
  39       13F-3       -0.00009   0.00000  -0.00014  -0.01947   0.00000
  40       14F 0       -0.01145   0.00000  -0.02144  -0.00091   0.00000
  41       14F+1        0.00000   0.00019   0.00000   0.00000  -0.02974
  42       14F-1       -0.00008   0.00000  -0.00046   0.00207   0.00000
  43       14F+2        0.02606   0.00000  -0.01073  -0.00016   0.00000
  44       14F-2        0.00000   0.01988   0.00000   0.00000   0.00053
  45       14F+3        0.00000   0.00035   0.00000   0.00000  -0.00283
  46       14F-3        0.00005   0.00000   0.00002  -0.04840   0.00000
  47 2   S  1S          0.00173   0.00000   0.00488  -0.00006   0.00000
  48        2S         -0.00460   0.00000  -0.04187   0.00002   0.00000
  49        3S          0.02166   0.00000   0.01207  -0.00093   0.00000
  50        4S         -0.01012   0.00000   0.04108  -0.00050   0.00000
  51        5S          0.39746   0.00000   0.13265   0.00892   0.00000
  52        6S          0.17397   0.00000   0.09509   0.00480   0.00000
  53        7PX         0.00000   0.00005   0.00000   0.00000   0.03383
  54        7PY         0.00039   0.00000  -0.00067   0.03593   0.00000
  55        7PZ        -0.01659   0.00000   0.04905   0.00019   0.00000
  56        8PX         0.00000  -0.00010   0.00000   0.00000   0.00188
  57        8PY         0.00010   0.00000   0.00177  -0.03751   0.00000
  58        8PZ        -0.11876   0.00000  -0.15884  -0.00289   0.00000
  59        9PX         0.00000  -0.00010   0.00000   0.00000  -0.06227
  60        9PY        -0.00071   0.00000   0.00093  -0.05465   0.00000
  61        9PZ         0.03549   0.00000  -0.06006   0.00005   0.00000
  62       10PX         0.00000   0.00013   0.00000   0.00000   0.19892
  63       10PY         0.00548   0.00000   0.00130   0.04167   0.00000
  64       10PZ        -0.29679   0.00000  -0.07066  -0.00622   0.00000
  65       11PX         0.00000   0.00002   0.00000   0.00000   0.02057
  66       11PY         0.00032   0.00000  -0.00006   0.02977   0.00000
  67       11PZ        -0.02614   0.00000  -0.01140  -0.00058   0.00000
  68       12D 0        0.03994   0.00000   0.13358   0.00479   0.00000
  69       12D+1        0.00000   0.00461   0.00000   0.00000   0.44564
  70       12D-1       -0.00254   0.00000  -0.00943   0.40749   0.00000
  71       12D+2        0.15079   0.00000   0.56810   0.00777   0.00000
  72       12D-2        0.00000   0.59560   0.00000   0.00000  -0.00357
  73       13D 0       -0.03735   0.00000   0.06241   0.00211   0.00000
  74       13D+1        0.00000   0.00343   0.00000   0.00000   0.42932
  75       13D-1       -0.00080   0.00000  -0.00628   0.29441   0.00000
  76       13D+2        0.10941   0.00000   0.41093   0.00578   0.00000
  77       13D-2        0.00000   0.44183   0.00000   0.00000  -0.00317
  78       14D 0        0.06321   0.00000   0.03995   0.00247   0.00000
  79       14D+1        0.00000   0.00034   0.00000   0.00000  -0.06821
  80       14D-1       -0.00216   0.00000  -0.00170   0.06080   0.00000
  81       14D+2        0.01563   0.00000   0.04546   0.00068   0.00000
  82       14D-2        0.00000   0.04840   0.00000   0.00000   0.00046
  83       15F 0        0.00131   0.00000   0.00351   0.00048   0.00000
  84       15F+1        0.00000  -0.00006   0.00000   0.00000  -0.05987
  85       15F-1        0.00011   0.00000   0.00023   0.00412   0.00000
  86       15F+2       -0.01499   0.00000  -0.02076  -0.00005   0.00000
  87       15F-2        0.00000  -0.00728   0.00000   0.00000   0.00088
  88       15F+3        0.00000  -0.00002   0.00000   0.00000  -0.02176
  89       15F-3        0.00004   0.00000   0.00011  -0.00170   0.00000
  90       16F 0       -0.02824   0.00000  -0.01881  -0.00069   0.00000
  91       16F+1        0.00000  -0.00016   0.00000   0.00000   0.02643
  92       16F-1        0.00074   0.00000   0.00094  -0.02614   0.00000
  93       16F+2       -0.00837   0.00000  -0.02562  -0.00035   0.00000
  94       16F-2        0.00000  -0.01125   0.00000   0.00000  -0.00009
  95       16F+3        0.00000  -0.00012   0.00000   0.00000  -0.00913
  96       16F-3        0.00009   0.00000   0.00023   0.00123   0.00000
  97 3   H  1S         -0.23819   0.00000   0.06667   0.07811   0.00000
  98        2S         -0.60249   0.00000   0.23234   0.73082   0.00000
  99        3S         -0.28986   0.00000   0.11718   0.74999   0.00000
 100        4S         -0.01184   0.00000   0.00187   0.05164   0.00000
 101        5PX         0.00000  -0.00916   0.00000   0.00000   0.02583
 102        5PY         0.01842   0.00000  -0.01036  -0.03346   0.00000
 103        5PZ        -0.00456   0.00000  -0.01171  -0.01993   0.00000
 104        6PX         0.00000  -0.01357   0.00000   0.00000   0.03790
 105        6PY        -0.05633   0.00000   0.00064   0.10445   0.00000
 106        6PZ        -0.03975   0.00000   0.01172   0.07062   0.00000
 107        7PX         0.00000  -0.00108   0.00000   0.00000  -0.00976
 108        7PY        -0.02057   0.00000   0.01958   0.12410   0.00000
 109        7PZ        -0.04532   0.00000  -0.00736   0.07927   0.00000
 110        8D 0       -0.00765   0.00000   0.00148   0.00404   0.00000
 111        8D+1        0.00000  -0.00321   0.00000   0.00000   0.00249
 112        8D-1        0.00605   0.00000  -0.00540  -0.00915   0.00000
 113        8D+2       -0.00632   0.00000   0.00580   0.01022   0.00000
 114        8D-2        0.00000  -0.00773   0.00000   0.00000   0.01630
 115        9D 0        0.00366   0.00000   0.00299  -0.00838   0.00000
 116        9D+1        0.00000   0.00214   0.00000   0.00000  -0.00180
 117        9D-1        0.00040   0.00000  -0.00044   0.00495   0.00000
 118        9D+2        0.00971   0.00000   0.00973  -0.00326   0.00000
 119        9D-2        0.00000  -0.00017   0.00000   0.00000  -0.00505
 120 4   H  1S         -0.23669   0.00000   0.06717  -0.07916   0.00000
 121        2S         -0.59558   0.00000   0.23778  -0.73163   0.00000
 122        3S         -0.29551   0.00000   0.12051  -0.75388   0.00000
 123        4S         -0.01184   0.00000   0.00261  -0.05185   0.00000
 124        5PX         0.00000   0.00914   0.00000   0.00000   0.02608
 125        5PY        -0.01816   0.00000   0.01087  -0.03328   0.00000
 126        5PZ        -0.00480   0.00000  -0.01197   0.02023   0.00000
 127        6PX         0.00000   0.01420   0.00000   0.00000   0.03866
 128        6PY         0.05507   0.00000  -0.00116   0.10496   0.00000
 129        6PZ        -0.03941   0.00000   0.01155  -0.07115   0.00000
 130        7PX         0.00000   0.00125   0.00000   0.00000  -0.00910
 131        7PY         0.02186   0.00000  -0.01954   0.12529   0.00000
 132        7PZ        -0.04436   0.00000  -0.00626  -0.08055   0.00000
 133        8D 0       -0.00769   0.00000   0.00142  -0.00398   0.00000
 134        8D+1        0.00000   0.00334   0.00000   0.00000   0.00259
 135        8D-1       -0.00598   0.00000   0.00564  -0.00923   0.00000
 136        8D+2       -0.00623   0.00000   0.00592  -0.01002   0.00000
 137        8D-2        0.00000  -0.00782   0.00000   0.00000  -0.01659
 138        9D 0        0.00344   0.00000   0.00279   0.00759   0.00000
 139        9D+1        0.00000  -0.00198   0.00000   0.00000  -0.00191
 140        9D-1       -0.00041   0.00000   0.00061   0.00492   0.00000
 141        9D+2        0.00953   0.00000   0.00978   0.00343   0.00000
 142        9D-2        0.00000  -0.00030   0.00000   0.00000   0.00490
                          21        22        23        24        25
     Eigenvalues --     0.01199   0.01025   0.00818   0.00669   0.00645
   1 1   C  1S         -0.01090  -0.00058  -0.03451   0.00000   0.00000
   2        2S          0.01006   0.00276   0.12151   0.00000   0.00000
   3        3S         -0.00290   0.00185   0.11728   0.00000   0.00000
   4        4S          0.12423  -0.00638  -0.09679   0.00000   0.00000
   5        5S          0.06621  -0.00259  -0.03739   0.00000   0.00000
   6        6PX         0.00000   0.00000   0.00000   0.39163  -0.00362
   7        6PY        -0.00318   0.14482  -0.00055   0.00000   0.00000
   8        6PZ         0.11610  -0.00101  -0.12748   0.00000   0.00000
   9        7PX         0.00000   0.00000   0.00000   0.46079  -0.00488
  10        7PY        -0.00446   0.42407  -0.00218   0.00000   0.00000
  11        7PZ         0.26152  -0.00290  -0.11848   0.00000   0.00000
  12        8PX         0.00000   0.00000   0.00000  -0.18771   0.00064
  13        8PY         0.00007  -1.10742   0.00455   0.00000   0.00000
  14        8PZ        -0.28125   0.00681   0.36593   0.00000   0.00000
  15        9PX         0.00000   0.00000   0.00000  -0.01089   0.00015
  16        9PY        -0.00063  -0.10745   0.00020   0.00000   0.00000
  17        9PZ        -0.01259   0.00040   0.00613   0.00000   0.00000
  18       10D 0       -0.18682   0.00029  -0.09187   0.00000   0.00000
  19       10D+1        0.00000   0.00000   0.00000   0.08126   0.00041
  20       10D-1        0.00160  -0.02913   0.00106   0.00000   0.00000
  21       10D+2        0.00757  -0.00050  -0.15595   0.00000   0.00000
  22       10D-2        0.00000   0.00000   0.00000   0.00251   0.30655
  23       11D 0       -0.28511  -0.00120  -0.22358   0.00000   0.00000
  24       11D+1        0.00000   0.00000   0.00000   0.10827   0.00123
  25       11D-1        0.00207  -0.28149   0.00368   0.00000   0.00000
  26       11D+2        0.05851  -0.00155  -0.31319   0.00000   0.00000
  27       11D-2        0.00000   0.00000   0.00000   0.00399   0.45772
  28       12D 0       -0.06788   0.00091   0.16324   0.00000   0.00000
  29       12D+1        0.00000   0.00000   0.00000   0.07138  -0.00089
  30       12D-1        0.00155   0.15792   0.00134   0.00000   0.00000
  31       12D+2       -0.04169   0.00082   0.09028   0.00000   0.00000
  32       12D-2        0.00000   0.00000   0.00000   0.00032   0.04116
  33       13F 0       -0.04567   0.00064   0.01262   0.00000   0.00000
  34       13F+1        0.00000   0.00000   0.00000   0.06443  -0.00051
  35       13F-1        0.00089   0.05025  -0.00019   0.00000   0.00000
  36       13F+2        0.00186   0.00059   0.01794   0.00000   0.00000
  37       13F-2        0.00000   0.00000   0.00000  -0.00088  -0.02501
  38       13F+3        0.00000   0.00000   0.00000  -0.02225   0.00054
  39       13F-3        0.00016  -0.01049   0.00027   0.00000   0.00000
  40       14F 0       -0.05599  -0.00178   0.01462   0.00000   0.00000
  41       14F+1        0.00000   0.00000   0.00000  -0.00204   0.00031
  42       14F-1        0.00174  -0.15207   0.00318   0.00000   0.00000
  43       14F+2        0.01340  -0.00188   0.01347   0.00000   0.00000
  44       14F-2        0.00000   0.00000   0.00000   0.00053   0.07937
  45       14F+3        0.00000   0.00000   0.00000  -0.01938   0.00124
  46       14F-3        0.00035  -0.01946   0.00086   0.00000   0.00000
  47 2   S  1S         -0.03305   0.00023   0.06197   0.00000   0.00000
  48        2S          0.13334  -0.00099  -0.22396   0.00000   0.00000
  49        3S         -0.34021   0.00241   0.77039   0.00000   0.00000
  50        4S         -0.20184   0.00144   0.53466   0.00000   0.00000
  51        5S          0.69286  -0.00753  -1.34383   0.00000   0.00000
  52        6S          0.17749  -0.00075  -0.16348   0.00000   0.00000
  53        7PX         0.00000   0.00000   0.00000  -0.20371   0.00201
  54        7PY        -0.00053  -0.32070   0.00139   0.00000   0.00000
  55        7PZ        -0.12892  -0.00216  -0.08961   0.00000   0.00000
  56        8PX         0.00000   0.00000   0.00000   0.34188  -0.00280
  57        8PY         0.00079   0.59982  -0.00265   0.00000   0.00000
  58        8PZ         0.12385   0.00371  -0.02638   0.00000   0.00000
  59        9PX         0.00000   0.00000   0.00000   0.37679  -0.00384
  60        9PY         0.00122   0.60743  -0.00272   0.00000   0.00000
  61        9PZ         0.20595   0.00441   0.17321   0.00000   0.00000
  62       10PX         0.00000   0.00000   0.00000  -0.82256   0.00919
  63       10PY        -0.00198  -0.86092  -0.00091   0.00000   0.00000
  64       10PZ        -0.39883  -0.00457  -0.02850   0.00000   0.00000
  65       11PX         0.00000   0.00000   0.00000  -0.02665   0.00027
  66       11PY        -0.00034  -0.09838   0.00012   0.00000   0.00000
  67       11PZ        -0.03709  -0.00086  -0.00278   0.00000   0.00000
  68       12D 0       -0.35956  -0.00177   0.03615   0.00000   0.00000
  69       12D+1        0.00000   0.00000   0.00000   0.22436  -0.00416
  70       12D-1        0.00267  -0.28563   0.00068   0.00000   0.00000
  71       12D+2        0.06171  -0.00172   0.13541   0.00000   0.00000
  72       12D-2        0.00000   0.00000   0.00000  -0.00321  -0.17960
  73       13D 0       -0.35003  -0.00005  -0.01778   0.00000   0.00000
  74       13D+1        0.00000   0.00000   0.00000   0.09836  -0.00220
  75       13D-1        0.00294  -0.07581   0.00058   0.00000   0.00000
  76       13D+2        0.05624  -0.00061   0.04055   0.00000   0.00000
  77       13D-2        0.00000   0.00000   0.00000  -0.00227  -0.14644
  78       14D 0        0.09305  -0.00007  -0.01168   0.00000   0.00000
  79       14D+1        0.00000   0.00000   0.00000   0.15985  -0.00206
  80       14D-1       -0.00064   0.03562   0.00042   0.00000   0.00000
  81       14D+2       -0.00049  -0.00004   0.01364   0.00000   0.00000
  82       14D-2        0.00000   0.00000   0.00000  -0.00122  -0.01993
  83       15F 0        0.06359  -0.00032   0.00790   0.00000   0.00000
  84       15F+1        0.00000   0.00000   0.00000   0.08139  -0.00199
  85       15F-1       -0.00141   0.00488  -0.00059   0.00000   0.00000
  86       15F+2        0.00206  -0.00017   0.00975   0.00000   0.00000
  87       15F-2        0.00000   0.00000   0.00000  -0.00116  -0.09736
  88       15F+3        0.00000   0.00000   0.00000  -0.06213  -0.00009
  89       15F-3       -0.00012  -0.01440  -0.00003   0.00000   0.00000
  90       16F 0        0.00510   0.00046   0.00738   0.00000   0.00000
  91       16F+1        0.00000   0.00000   0.00000  -0.08108   0.00097
  92       16F-1        0.00000   0.04088  -0.00034   0.00000   0.00000
  93       16F+2        0.00032   0.00074   0.00822   0.00000   0.00000
  94       16F-2        0.00000   0.00000   0.00000   0.00106   0.01138
  95       16F+3        0.00000   0.00000   0.00000  -0.01435   0.00031
  96       16F-3        0.00003   0.01745  -0.00026   0.00000   0.00000
  97 3   H  1S          0.00987   0.01625   0.14495   0.00000   0.00000
  98        2S          0.05325   0.26425  -0.10747   0.00000   0.00000
  99        3S         -0.31087  -1.36830   0.13067   0.00000   0.00000
 100        4S         -0.02163  -0.12811   0.00461   0.00000   0.00000
 101        5PX         0.00000   0.00000   0.00000  -0.00178  -0.09461
 102        5PY        -0.01787  -0.01429   0.02399   0.00000   0.00000
 103        5PZ         0.02963  -0.00476   0.06153   0.00000   0.00000
 104        6PX         0.00000   0.00000   0.00000  -0.09467  -0.20670
 105        6PY        -0.00700   0.08214  -0.01775   0.00000   0.00000
 106        6PZ         0.07067   0.15634   0.03048   0.00000   0.00000
 107        7PX         0.00000   0.00000   0.00000  -0.02203  -0.01467
 108        7PY        -0.03072  -0.25114  -0.03165   0.00000   0.00000
 109        7PZ        -0.04953  -0.10296   0.11385   0.00000   0.00000
 110        8D 0        0.01261  -0.00168   0.01319   0.00000   0.00000
 111        8D+1        0.00000   0.00000   0.00000   0.00199  -0.03495
 112        8D-1        0.01195  -0.00123   0.02084   0.00000   0.00000
 113        8D+2        0.01331  -0.00025  -0.00628   0.00000   0.00000
 114        8D-2        0.00000   0.00000   0.00000  -0.00482  -0.05051
 115        9D 0       -0.00604   0.00500   0.00044   0.00000   0.00000
 116        9D+1        0.00000   0.00000   0.00000  -0.04031   0.01264
 117        9D-1        0.01900   0.05211   0.00709   0.00000   0.00000
 118        9D+2       -0.00423  -0.02241  -0.01101   0.00000   0.00000
 119        9D-2        0.00000   0.00000   0.00000  -0.02837  -0.02372
 120 4   H  1S          0.00980  -0.01648   0.14273   0.00000   0.00000
 121        2S          0.06001  -0.26398  -0.10386   0.00000   0.00000
 122        3S         -0.30044   1.37657   0.12590   0.00000   0.00000
 123        4S         -0.01983   0.12871   0.00423   0.00000   0.00000
 124        5PX         0.00000   0.00000   0.00000  -0.00005   0.09416
 125        5PY         0.01873  -0.01435  -0.02328   0.00000   0.00000
 126        5PZ         0.02920   0.00490   0.06146   0.00000   0.00000
 127        6PX         0.00000   0.00000   0.00000  -0.09084   0.20908
 128        6PY         0.00812   0.08322   0.01898   0.00000   0.00000
 129        6PZ         0.07267  -0.15690   0.03467   0.00000   0.00000
 130        7PX         0.00000   0.00000   0.00000  -0.02208   0.01514
 131        7PY         0.03023  -0.25192   0.03366   0.00000   0.00000
 132        7PZ        -0.04941   0.10435   0.11247   0.00000   0.00000
 133        8D 0        0.01297   0.00170   0.01353   0.00000   0.00000
 134        8D+1        0.00000   0.00000   0.00000   0.00263   0.03511
 135        8D-1       -0.01190  -0.00124  -0.02082   0.00000   0.00000
 136        8D+2        0.01372   0.00024  -0.00603   0.00000   0.00000
 137        8D-2        0.00000   0.00000   0.00000   0.00411  -0.05043
 138        9D 0       -0.00592  -0.00513   0.00053   0.00000   0.00000
 139        9D+1        0.00000   0.00000   0.00000  -0.04059  -0.01159
 140        9D-1       -0.01904   0.05174  -0.00771   0.00000   0.00000
 141        9D+2       -0.00377   0.02317  -0.01077   0.00000   0.00000
 142        9D-2        0.00000   0.00000   0.00000   0.02801  -0.02416
                          26        27        28        29        30
     Eigenvalues --     0.00601   0.00489   0.00464   0.00354   0.00234
   1 1   C  1S          0.03562   0.00139   0.13061   0.00000  -0.01415
   2        2S         -0.11809  -0.00492  -0.52381   0.00000   0.07864
   3        3S         -0.12194  -0.00405  -0.42122   0.00000   0.03954
   4        4S          0.32538  -0.01362  -0.80000   0.00000   0.91924
   5        5S          0.08681  -0.00798  -0.38191   0.00000   0.28430
   6        6PX         0.00000   0.00000   0.00000   0.12411   0.00000
   7        6PY        -0.00084  -0.05940   0.00169   0.00000   0.00000
   8        6PZ         0.21694  -0.00482  -0.39367   0.00000   0.03866
   9        7PX         0.00000   0.00000   0.00000   0.11510   0.00000
  10        7PY         0.00065   0.08580   0.00190   0.00000  -0.00246
  11        7PZ         0.27454  -0.00547  -0.47115   0.00000   0.11714
  12        8PX         0.00000   0.00000   0.00000   0.43429   0.00000
  13        8PY        -0.00621   0.29360  -0.00338   0.00000  -0.01364
  14        8PZ         0.62363  -0.00702  -0.23226   0.00000  -0.08636
  15        9PX         0.00000   0.00000   0.00000   0.02185   0.00000
  16        9PY        -0.00049   0.00383  -0.00039   0.00000  -0.00044
  17        9PZ         0.04613  -0.00111  -0.09363   0.00000   0.01216
  18       10D 0        0.01843   0.00024  -0.18669   0.00000   0.06946
  19       10D+1        0.00000   0.00000   0.00000   0.32611   0.00000
  20       10D-1        0.00073   0.27406  -0.00196   0.00000   0.00031
  21       10D+2        0.20094   0.00007   0.05904   0.00000  -0.16246
  22       10D-2        0.00000   0.00000   0.00000  -0.00130   0.00000
  23       11D 0        0.10758  -0.00051  -0.36430   0.00000   0.05295
  24       11D+1        0.00000   0.00000   0.00000   0.60426   0.00000
  25       11D-1        0.00058   0.56602  -0.00585   0.00000   0.00090
  26       11D+2        0.44061  -0.00006   0.07271   0.00000  -0.36652
  27       11D-2        0.00000   0.00000   0.00000  -0.00177   0.00000
  28       12D 0        0.20114   0.00072   0.20006   0.00000  -0.26907
  29       12D+1        0.00000   0.00000   0.00000   0.13051   0.00000
  30       12D-1       -0.00211   0.36366  -0.00880   0.00000   0.00451
  31       12D+2        0.11237   0.00133   0.10608   0.00000  -0.29014
  32       12D-2        0.00000   0.00000   0.00000  -0.00107   0.00000
  33       13F 0       -0.02998  -0.00038  -0.06135   0.00000  -0.10330
  34       13F+1        0.00000   0.00000   0.00000  -0.01434   0.00000
  35       13F-1       -0.00010  -0.05985   0.00168   0.00000   0.00244
  36       13F+2       -0.01700  -0.00043  -0.02850   0.00000  -0.19515
  37       13F-2        0.00000   0.00000   0.00000   0.00038   0.00000
  38       13F+3        0.00000   0.00000   0.00000   0.05899   0.00000
  39       13F-3       -0.00025   0.01145   0.00012   0.00000   0.00130
  40       14F 0       -0.10393  -0.00133  -0.11719   0.00000  -0.11013
  41       14F+1        0.00000   0.00000   0.00000   0.04666   0.00000
  42       14F-1       -0.00131  -0.00792   0.00324   0.00000   0.00196
  43       14F+2       -0.05716  -0.00139  -0.08780   0.00000  -0.19940
  44       14F-2        0.00000   0.00000   0.00000  -0.00053   0.00000
  45       14F+3        0.00000   0.00000   0.00000   0.02251   0.00000
  46       14F-3       -0.00025   0.05207   0.00076   0.00000   0.00202
  47 2   S  1S          0.05119  -0.00013   0.00486   0.00000   0.00620
  48        2S         -0.16166   0.00067  -0.01711   0.00000  -0.02582
  49        3S          0.69797  -0.00167   0.05158   0.00000   0.11389
  50        4S          0.50822  -0.00265  -0.01900   0.00000   0.16412
  51        5S         -2.01366   0.02576   0.68787   0.00000  -0.31676
  52        6S         -0.36451   0.01128   0.69448   0.00000  -0.23172
  53        7PX         0.00000   0.00000   0.00000   0.17175   0.00000
  54        7PY         0.00082  -0.06452   0.00040   0.00000   0.00051
  55        7PZ        -0.17349   0.00117  -0.00412   0.00000  -0.07976
  56        8PX         0.00000   0.00000   0.00000  -0.28730   0.00000
  57        8PY        -0.00022  -0.03176   0.00307   0.00000   0.00219
  58        8PZ         0.23102  -0.00718  -0.35486   0.00000  -0.03326
  59        9PX         0.00000   0.00000   0.00000  -0.34046   0.00000
  60        9PY        -0.00145   0.16226  -0.00131   0.00000  -0.00122
  61        9PZ         0.34272  -0.00196   0.03256   0.00000   0.16725
  62       10PX         0.00000   0.00000   0.00000  -0.01898   0.00000
  63       10PY        -0.00398  -0.98018   0.01858   0.00000   0.00056
  64       10PZ         0.30850  -0.01914  -0.99419   0.00000   0.35541
  65       11PX         0.00000   0.00000   0.00000  -0.00223   0.00000
  66       11PY        -0.00021  -0.06329   0.00148   0.00000  -0.00048
  67       11PZ         0.02077  -0.00198  -0.10218   0.00000   0.04285
  68       12D 0       -0.19006   0.01306   0.66770   0.00000  -0.13601
  69       12D+1        0.00000   0.00000   0.00000   0.45838   0.00000
  70       12D-1        0.00359   0.46333  -0.01305   0.00000  -0.00177
  71       12D+2       -0.04242   0.00320  -0.04509   0.00000   0.14479
  72       12D-2        0.00000   0.00000   0.00000  -0.00355   0.00000
  73       13D 0       -0.14073   0.00823   0.38245   0.00000  -0.03132
  74       13D+1        0.00000   0.00000   0.00000   0.31007   0.00000
  75       13D-1        0.00434   0.33223  -0.00698   0.00000  -0.00148
  76       13D+2       -0.14785   0.00202  -0.08854   0.00000   0.17947
  77       13D-2        0.00000   0.00000   0.00000  -0.00268   0.00000
  78       14D 0       -0.09690   0.00589   0.28979   0.00000  -0.11370
  79       14D+1        0.00000   0.00000   0.00000   0.11080   0.00000
  80       14D-1        0.00112   0.23533  -0.00696   0.00000   0.00069
  81       14D+2        0.01853   0.00145  -0.00503   0.00000   0.03662
  82       14D-2        0.00000   0.00000   0.00000  -0.00062   0.00000
  83       15F 0       -0.01581   0.00400   0.15195   0.00000   0.13504
  84       15F+1        0.00000   0.00000   0.00000   0.10539   0.00000
  85       15F-1        0.00176   0.16506  -0.00370   0.00000  -0.00642
  86       15F+2       -0.05988   0.00149  -0.04218   0.00000   0.37923
  87       15F-2        0.00000   0.00000   0.00000  -0.00189   0.00000
  88       15F+3        0.00000   0.00000   0.00000   0.01721   0.00000
  89       15F-3        0.00030  -0.01627   0.00051   0.00000  -0.00266
  90       16F 0        0.03774  -0.00238  -0.11086   0.00000   0.07460
  91       16F+1        0.00000   0.00000   0.00000  -0.08159   0.00000
  92       16F-1       -0.00097  -0.07007   0.00351   0.00000  -0.00177
  93       16F+2        0.01274  -0.00151  -0.03197   0.00000   0.04941
  94       16F-2        0.00000   0.00000   0.00000   0.00088   0.00000
  95       16F+3        0.00000   0.00000   0.00000  -0.01771   0.00000
  96       16F-3       -0.00010  -0.00809   0.00042   0.00000  -0.00005
  97 3   H  1S         -0.10146   0.22156  -0.09096   0.00000  -0.29713
  98        2S          0.41309  -0.27229   0.05598   0.00000  -0.13436
  99        3S          0.45771  -0.72947   0.05774   0.00000  -0.15904
 100        4S          0.01112  -0.01986  -0.01764   0.00000  -0.01204
 101        5PX         0.00000   0.00000   0.00000  -0.09353   0.00000
 102        5PY        -0.03031   0.10242  -0.03139   0.00000  -0.03647
 103        5PZ        -0.05995   0.00384   0.02565   0.00000  -0.01696
 104        6PX         0.00000   0.00000   0.00000  -0.13438   0.00000
 105        6PY         0.06167   0.08119  -0.06189   0.00000  -0.01004
 106        6PZ         0.01023  -0.05533   0.03735   0.00000  -0.08284
 107        7PX         0.00000   0.00000   0.00000  -0.00839   0.00000
 108        7PY         0.02257  -0.05827  -0.09690   0.00000   0.13004
 109        7PZ         0.12302   0.03477   0.09028   0.00000  -0.13553
 110        8D 0       -0.01496  -0.02188   0.00737   0.00000   0.00145
 111        8D+1        0.00000   0.00000   0.00000  -0.01548   0.00000
 112        8D-1       -0.01812   0.01235   0.00697   0.00000  -0.02234
 113        8D+2        0.01100  -0.02980   0.02050   0.00000   0.00736
 114        8D-2        0.00000   0.00000   0.00000  -0.05105   0.00000
 115        9D 0       -0.00430  -0.01983  -0.01741   0.00000  -0.01253
 116        9D+1        0.00000   0.00000   0.00000   0.00014   0.00000
 117        9D-1        0.01691   0.02317   0.01338   0.00000  -0.00202
 118        9D+2        0.02489  -0.03148   0.03346   0.00000  -0.01147
 119        9D-2        0.00000   0.00000   0.00000   0.01124   0.00000
 120 4   H  1S         -0.10198  -0.22492  -0.08855   0.00000  -0.29478
 121        2S          0.41371   0.27243   0.04758   0.00000  -0.12711
 122        3S          0.46427   0.72394   0.03847   0.00000  -0.13185
 123        4S          0.01168   0.01982  -0.01674   0.00000  -0.01120
 124        5PX         0.00000   0.00000   0.00000  -0.09441   0.00000
 125        5PY         0.03082   0.10285   0.02967   0.00000   0.03535
 126        5PZ        -0.05988  -0.00395   0.02551   0.00000  -0.01766
 127        6PX         0.00000   0.00000   0.00000  -0.13634   0.00000
 128        6PY        -0.06099   0.08244   0.06493   0.00000   0.00960
 129        6PZ         0.00933   0.05515   0.04007   0.00000  -0.08303
 130        7PX         0.00000   0.00000   0.00000  -0.00777   0.00000
 131        7PY        -0.02353  -0.05574   0.10103   0.00000  -0.13726
 132        7PZ         0.12553  -0.03656   0.09520   0.00000  -0.13632
 133        8D 0       -0.01493   0.02182   0.00771   0.00000   0.00160
 134        8D+1        0.00000   0.00000   0.00000  -0.01591   0.00000
 135        8D-1        0.01821   0.01262  -0.00742   0.00000   0.02226
 136        8D+2        0.01117   0.02994   0.02034   0.00000   0.00733
 137        8D-2        0.00000   0.00000   0.00000   0.05143   0.00000
 138        9D 0       -0.00429   0.01896  -0.01724   0.00000  -0.01354
 139        9D+1        0.00000   0.00000   0.00000  -0.00005   0.00000
 140        9D-1       -0.01626   0.02253  -0.01339   0.00000   0.00177
 141        9D+2        0.02513   0.03211   0.03335   0.00000  -0.01181
 142        9D-2        0.00000   0.00000   0.00000  -0.01096   0.00000
                          31        32        33        34        35
     Eigenvalues --     0.00208   0.00195   0.00194   0.00185   0.00154
   1 1   C  1S          0.00202   0.00000   0.04385  -0.00088   0.00000
   2        2S         -0.00844   0.00000  -0.19159   0.00371   0.00000
[...]
 137        8D-2        0.00000   0.00000   0.16771   0.00000   0.00000
 138        9D 0        0.49117   1.02669   0.00000   0.32861   1.35681
 139        9D+1        0.00000   0.00000  -0.06510   0.00000   0.00000
 140        9D-1       -0.62193  -0.19940   0.00000  -1.22453  -0.34614
 141        9D+2       -0.24940   0.12674   0.00000   0.45979   1.37571
 142        9D-2        0.00000   0.00000  -1.09236   0.00000   0.00000
                         136       137       138       139       140
     Eigenvalues --     0.00000   0.00000   0.00000   0.00000   0.00000
   1 1   C  1S          0.00570   0.41789   0.00000  -0.07390  -0.07855
   2        2S          0.03367   2.45015   0.00000  -0.39851  -0.44183
   3        3S         -0.00070  -0.10170   0.00000   0.05437   0.02096
   4        4S          0.20727  25.55140   0.00000 -17.73536  -3.44400
   5        5S          0.17707  16.71048   0.00000  -2.46014   4.70815
   6        6PX         0.00000   0.00000  -0.02078   0.00000   0.00000
   7        6PY        -0.04141   0.00030   0.00000  -0.00032   0.00005
   8        6PZ         0.00064   0.05440   0.00000   0.01797   0.01113
   9        7PX         0.00000   0.00000   0.35617   0.00000   0.00000
  10        7PY         2.92143  -0.00761   0.00000   0.01188  -0.00068
  11        7PZ        -0.02840  -2.07907   0.00000   0.28875   0.32599
  12        8PX         0.00000   0.00000   0.00677   0.00000   0.00000
  13        8PY        16.86747  -0.10261   0.00000   0.01257  -0.00929
  14        8PZ        -0.01229  -8.27019   0.00000   0.43271   9.10869
  15        9PX         0.00000   0.00000  -2.90385   0.00000   0.00000
  16        9PY         6.51863  -0.08467   0.00000   0.02920  -0.02125
  17        9PZ        -0.01382  -0.79385   0.00000  -1.74251   5.75187
  18       10D 0       -0.00012   0.00070   0.00000   0.00306  -0.01204
  19       10D+1        0.00000   0.00000  -0.00038   0.00000   0.00000
  20       10D-1       -0.08458   0.00080   0.00000  -0.00058   0.00015
  21       10D+2       -0.00271  -0.14589   0.00000   0.00873   0.01162
  22       10D-2        0.00000   0.00000   0.00069   0.00000   0.00000
  23       11D 0        0.00022   0.10277   0.00000  -0.29579   0.23278
  24       11D+1        0.00000   0.00000  -0.28513   0.00000   0.00000
  25       11D-1       -1.77543  -0.01101   0.00000  -0.00252   0.00175
  26       11D+2       -0.01068  -1.19318   0.00000   0.52464   0.32973
  27       11D-2        0.00000   0.00000  -0.00729   0.00000   0.00000
  28       12D 0        0.01617   3.87756   0.00000   0.82538   1.84734
  29       12D+1        0.00000   0.00000  -2.65777   0.00000   0.00000
  30       12D-1       -7.07256   0.02402   0.00000  -0.04464  -0.01430
  31       12D+2       -0.01868   0.82963   0.00000   0.98842   0.97240
  32       12D-2        0.00000   0.00000   0.00545   0.00000   0.00000
  33       13F 0        0.00084   0.09510   0.00000   0.01589  -0.00254
  34       13F+1        0.00000   0.00000   0.01524   0.00000   0.00000
  35       13F-1        0.06602  -0.00130   0.00000   0.00102   0.00060
  36       13F+2        0.00272   0.13409   0.00000  -0.02673  -0.01792
  37       13F-2        0.00000   0.00000  -0.00003   0.00000   0.00000
  38       13F+3        0.00000   0.00000  -0.00482   0.00000   0.00000
  39       13F-3       -0.06972  -0.00048   0.00000  -0.00046   0.00015
  40       14F 0        0.00051  -0.18027   0.00000  -0.62144  -0.02369
  41       14F+1        0.00000   0.00000   0.02559   0.00000   0.00000
  42       14F-1       -0.36035   0.01829   0.00000  -0.00240  -0.00596
  43       14F+2       -0.00525   0.26032   0.00000  -0.24379  -0.11041
  44       14F-2        0.00000   0.00000   0.00280   0.00000   0.00000
  45       14F+3        0.00000   0.00000  -0.01840   0.00000   0.00000
  46       14F-3       -0.16553   0.00610   0.00000   0.00136  -0.00053
  47 2   S  1S          0.00013   0.01508   0.00000   0.01319   0.00273
  48        2S          0.00210   0.19898   0.00000   0.20502   0.02023
  49        3S          0.00555   0.62902   0.00000   0.57771   0.10703
  50        4S         -0.00181   0.03053   0.00000  -0.08689   0.10210
  51        5S         -0.10511  -2.91605   0.00000   1.97377  -5.67260
  52        6S         -0.04245  -9.82986   0.00000  -2.54272 -16.02459
  53        7PX         0.00000   0.00000   0.00380   0.00000   0.00000
  54        7PY        -0.00623   0.00016   0.00000   0.00038   0.00000
  55        7PZ         0.00042  -0.00311   0.00000  -0.04209  -0.00479
  56        8PX         0.00000   0.00000  -0.02315   0.00000   0.00000
  57        8PY        -0.08445   0.00215   0.00000   0.01008  -0.00010
  58        8PZ         0.00798  -0.23500   0.00000  -1.04124   0.03950
  59        9PX         0.00000   0.00000  -0.01898   0.00000   0.00000
  60        9PY         0.03193  -0.00073   0.00000  -0.00070   0.00009
  61        9PZ        -0.00054  -0.03344   0.00000   0.08578   0.02907
  62       10PX         0.00000   0.00000   2.17375   0.00000   0.00000
  63       10PY         4.10474  -0.05307   0.00000   0.05037  -0.03864
  64       10PZ         0.05859   3.85063   0.00000   0.37576   6.64000
  65       11PX         0.00000   0.00000   2.74472   0.00000   0.00000
  66       11PY        -0.57489   0.00193   0.00000  -0.00960  -0.01444
  67       11PZ         0.01084   2.86168   0.00000   2.73070   2.27342
  68       12D 0       -0.00680  -0.30946   0.00000   0.67988  -0.29764
  69       12D+1        0.00000   0.00000   0.12321   0.00000   0.00000
  70       12D-1       -0.30506   0.00527   0.00000  -0.01625   0.00224
  71       12D+2       -0.00077  -0.05693   0.00000   0.02154  -0.02305
  72       12D-2        0.00000   0.00000  -0.00102   0.00000   0.00000
  73       13D 0        0.00027   0.06384   0.00000  -0.05052   0.02448
  74       13D+1        0.00000   0.00000  -0.04633   0.00000   0.00000
  75       13D-1       -0.00741  -0.00115   0.00000   0.00067  -0.00032
  76       13D+2       -0.00028   0.01652   0.00000   0.00131   0.00829
  77       13D-2        0.00000   0.00000   0.00029   0.00000   0.00000
  78       14D 0       -0.01855  -1.47719   0.00000  -1.16451  -1.53417
  79       14D+1        0.00000   0.00000  -1.87501   0.00000   0.00000
  80       14D-1       -1.90826   0.02599   0.00000  -0.01560   0.01223
  81       14D+2       -0.00955   0.21134   0.00000   0.22010  -0.05470
  82       14D-2        0.00000   0.00000   0.01258   0.00000   0.00000
  83       15F 0       -0.00027  -0.05836   0.00000  -0.03523  -0.01645
  84       15F+1        0.00000   0.00000  -0.02620   0.00000   0.00000
  85       15F-1        0.00421   0.00210   0.00000   0.00049   0.00006
  86       15F+2        0.00027   0.01152   0.00000   0.01327  -0.00911
  87       15F-2        0.00000   0.00000   0.00030   0.00000   0.00000
  88       15F+3        0.00000   0.00000   0.00446   0.00000   0.00000
  89       15F-3        0.02820  -0.00068   0.00000  -0.00004   0.00027
  90       16F 0        0.00422   0.38393   0.00000  -0.01340   0.13676
  91       16F+1        0.00000   0.00000   0.23002   0.00000   0.00000
  92       16F-1        0.28721  -0.00761   0.00000   0.00694  -0.00078
  93       16F+2        0.00026  -0.12665   0.00000  -0.11743   0.03894
  94       16F-2        0.00000   0.00000  -0.00229   0.00000   0.00000
  95       16F+3        0.00000   0.00000  -0.01544   0.00000   0.00000
  96       16F-3       -0.08088   0.00201   0.00000   0.00059  -0.00098
  97 3   H  1S         -0.04929   0.10169   0.00000  -0.01938  -0.01639
  98        2S          3.65257  -3.73741   0.00000   1.51250   0.91656
  99        3S         29.46146 -11.91418   0.00000   9.41947   8.14407
 100        4S          5.24010  -1.37073   0.00000   0.62260   2.12297
 101        5PX         0.00000   0.00000   0.07594   0.00000   0.00000
 102        5PY        -0.11334   0.06703   0.00000  -0.03495  -0.02781
 103        5PZ        -0.07346   0.04262   0.00000   0.00050  -0.01689
 104        6PX         0.00000   0.00000  -0.39919   0.00000   0.00000
 105        6PY         1.73370  -2.05830   0.00000   0.63759   0.41249
 106        6PZ         1.40228  -0.95682   0.00000   0.39393   0.25068
 107        7PX         0.00000   0.00000  -0.97065   0.00000   0.00000
 108        7PY         5.01851  -5.02948   0.00000   2.03027   1.66494
 109        7PZ         3.44926   2.32377   0.00000   3.77818   1.11563
 110        8D 0       -0.03327  -0.03396   0.00000  -0.01471   0.00912
 111        8D+1        0.00000   0.00000  -0.00584   0.00000   0.00000
 112        8D-1        0.04956  -0.17142   0.00000  -0.02213   0.01289
 113        8D+2       -0.12245   0.12389   0.00000   0.01317  -0.01584
 114        8D-2        0.00000   0.00000   0.07394   0.00000   0.00000
 115        9D 0        0.21620   0.48154   0.00000   0.00255  -0.07115
 116        9D+1        0.00000   0.00000   0.01550   0.00000   0.00000
 117        9D-1        0.86293  -0.01621   0.00000   0.54939   0.08961
 118        9D+2        0.12130   0.58671   0.00000  -0.15612  -0.05741
 119        9D-2        0.00000   0.00000  -0.51080   0.00000   0.00000
 120 4   H  1S          0.05227   0.10102   0.00000  -0.01918  -0.01691
 121        2S         -3.72193  -3.73364   0.00000   1.49713   0.92823
 122        3S        -29.66310 -11.74771   0.00000   9.26479   8.06639
 123        4S         -5.28932  -1.25209   0.00000   0.56316   2.13066
 124        5PX         0.00000   0.00000   0.07597   0.00000   0.00000
 125        5PY        -0.11390  -0.06856   0.00000   0.03476   0.02804
 126        5PZ         0.07503   0.04029   0.00000   0.00043  -0.01654
 127        6PX         0.00000   0.00000  -0.39146   0.00000   0.00000
 128        6PY         1.77843   2.08136   0.00000  -0.62806  -0.41831
 129        6PZ        -1.43275  -0.92396   0.00000   0.38543   0.24366
 130        7PX         0.00000   0.00000  -0.95141   0.00000   0.00000
 131        7PY         5.07212   5.08657   0.00000  -2.03033  -1.65974
 132        7PZ        -3.43283   2.40082   0.00000   3.76981   1.07432
 133        8D 0        0.03304  -0.03594   0.00000  -0.01390   0.01027
 134        8D+1        0.00000   0.00000  -0.00653   0.00000   0.00000
 135        8D-1        0.05336   0.17335   0.00000   0.02246  -0.01422
 136        8D+2        0.12694   0.11973   0.00000   0.01516  -0.01546
 137        8D-2        0.00000   0.00000  -0.07396   0.00000   0.00000
 138        9D 0       -0.20508   0.51447   0.00000  -0.00231  -0.08114
 139        9D+1        0.00000   0.00000   0.02394   0.00000   0.00000
 140        9D-1        0.87405  -0.00377   0.00000  -0.54140  -0.08040
 141        9D+2       -0.11023   0.61725   0.00000  -0.16270  -0.06199
 142        9D-2        0.00000   0.00000   0.50198   0.00000   0.00000
                         141       142
     Eigenvalues --     0.00000   0.00000
   1 1   C  1S         -0.00066  -0.00350
   2        2S         -0.00356  -0.00731
   3        3S          0.00046   0.04598
   4        4S          0.06853   8.09649
   5        5S          0.23798  16.08331
   6        6PX         0.00000   0.00000
   7        6PY        -0.00790   0.00019
   8        6PZ         0.00012   0.00389
   9        7PX         0.00000   0.00000
  10        7PY        -0.16329  -0.00238
  11        7PZ        -0.00080  -0.06849
  12        8PX         0.00000   0.00000
  13        8PY        -5.09015   0.03132
  14        8PZ         0.02346   1.14674
  15        9PX         0.00000   0.00000
  16        9PY        -5.27085   0.04541
  17        9PZ         0.02329   1.19742
  18       10D 0        0.00007   0.00940
  19       10D+1        0.00000   0.00000
  20       10D-1       -0.01480   0.00028
  21       10D+2       -0.00024  -0.01266
  22       10D-2        0.00000   0.00000
  23       11D 0       -0.00066  -0.08471
  24       11D+1        0.00000   0.00000
  25       11D-1        0.12855   0.00306
  26       11D+2        0.00124   0.01909
  27       11D-2        0.00000   0.00000
  28       12D 0        0.00844   0.42384
  29       12D+1        0.00000   0.00000
  30       12D-1       -0.92188   0.03555
  31       12D+2       -0.01073  -0.36873
  32       12D-2        0.00000   0.00000
  33       13F 0       -0.00012  -0.01197
  34       13F+1        0.00000   0.00000
  35       13F-1        0.00470  -0.00015
  36       13F+2       -0.00018  -0.00520
  37       13F-2        0.00000   0.00000
  38       13F+3        0.00000   0.00000
  39       13F-3        0.00389   0.00027
  40       14F 0       -0.00006   0.02234
  41       14F+1        0.00000   0.00000
  42       14F-1       -0.09494   0.00224
  43       14F+2       -0.00066  -0.04645
  44       14F-2        0.00000   0.00000
  45       14F+3        0.00000   0.00000
  46       14F-3       -0.01308   0.00036
  47 2   S  1S          0.00002   0.00305
  48        2S          0.00033   0.04718
  49        3S          0.00091   0.13321
  50        4S         -0.00022  -0.01478
  51        5S         -0.04154  -1.74481
  52        6S         -0.14600  -8.69019
  53        7PX         0.00000   0.00000
  54        7PY        -0.00566   0.00013
  55        7PZ        -0.00003  -0.00282
  56        8PX         0.00000   0.00000
  57        8PY        -0.04869   0.00128
  58        8PZ         0.00004  -0.04474
  59        9PX         0.00000   0.00000
  60        9PY         0.02452  -0.00053
  61        9PZ         0.00028   0.01205
  62       10PX         0.00000   0.00000
  63       10PY         1.28861  -0.05368
  64       10PZ         0.04366   2.29499
  65       11PX         0.00000   0.00000
  66       11PY         0.52581  -0.02477
  67       11PZ         0.03702   2.30265
  68       12D 0       -0.00119  -0.04484
  69       12D+1        0.00000   0.00000
  70       12D-1       -0.08096   0.00339
  71       12D+2       -0.00016   0.03441
  72       12D-2        0.00000   0.00000
  73       13D 0        0.00009   0.00717
  74       13D+1        0.00000   0.00000
  75       13D-1        0.00212  -0.00024
  76       13D+2       -0.00014  -0.00793
  77       13D-2        0.00000   0.00000
  78       14D 0       -0.01439  -0.63233
  79       14D+1        0.00000   0.00000
  80       14D-1       -0.44284   0.02307
  81       14D+2       -0.00585  -0.07937
  82       14D-2        0.00000   0.00000
  83       15F 0       -0.00041  -0.01522
  84       15F+1        0.00000   0.00000
  85       15F-1       -0.00041   0.00027
  86       15F+2        0.00002  -0.00621
  87       15F-2        0.00000   0.00000
  88       15F+3        0.00000   0.00000
  89       15F-3       -0.00350   0.00018
  90       16F 0        0.00195   0.06414
  91       16F+1        0.00000   0.00000
  92       16F-1        0.03703  -0.00289
  93       16F+2        0.00102   0.01286
  94       16F-2        0.00000   0.00000
  95       16F+3        0.00000   0.00000
  96       16F-3        0.02135  -0.00054
  97 3   H  1S         -0.01353  -0.01264
  98        2S         -0.03624   0.17081
  99        3S         -8.40205  -4.82471
 100        4S         -8.21195  -2.35238
 101        5PX         0.00000   0.00000
 102        5PY         0.02114   0.00788
 103        5PZ         0.00605   0.01558
 104        6PX         0.00000   0.00000
 105        6PY        -0.25857  -0.09047
 106        6PZ        -0.08665  -0.15337
 107        7PX         0.00000   0.00000
 108        7PY        -2.58324  -1.14403
 109        7PZ        -2.32494  -0.95983
 110        8D 0        0.00743   0.00632
 111        8D+1        0.00000   0.00000
 112        8D-1        0.01216   0.01091
 113        8D+2       -0.02566  -0.00015
 114        8D-2        0.00000   0.00000
 115        9D 0       -0.01649  -0.04486
 116        9D+1        0.00000   0.00000
 117        9D-1       -0.18994  -0.19667
 118        9D+2        0.23919   0.07035
 119        9D-2        0.00000   0.00000
 120 4   H  1S          0.01324  -0.01345
 121        2S          0.04219   0.18767
 122        3S          8.31594  -4.92394
 123        4S          8.15326  -2.52690
 124        5PX         0.00000   0.00000
 125        5PY         0.02103  -0.00851
 126        5PZ        -0.00550   0.01568
 127        6PX         0.00000   0.00000
 128        6PY        -0.25856   0.09239
 129        6PZ         0.08434  -0.15159
 130        7PX         0.00000   0.00000
 131        7PY        -2.57309   1.18767
 132        7PZ         2.32201  -1.02272
 133        8D 0       -0.00735   0.00647
 134        8D+1        0.00000   0.00000
 135        8D-1        0.01217  -0.01154
 136        8D+2        0.02582  -0.00130
 137        8D-2        0.00000   0.00000
 138        9D 0        0.01646  -0.04616
 139        9D+1        0.00000   0.00000
 140        9D-1       -0.18880   0.20040
 141        9D+2       -0.23887   0.07782
 142        9D-2        0.00000   0.00000
          Condensed to atoms (all electrons):
              1          2          3          4
     1  C    6.185050   0.274407   0.184841   0.181801
     2  S    0.274407  16.028273  -0.119339  -0.117863
     3  H    0.184841  -0.119339   0.649372  -0.160306
     4  H    0.181801  -0.117863  -0.160306   0.650220
 Mulliken atomic charges:
              1
     1  C   -0.826099
     2  S   -0.065479
     3  H    0.445431
     4  H    0.446147
 Sum of Mulliken atomic charges =   0.00000
 Mulliken charges with hydrogens summed into heavy atoms:
              1
     1  C    0.065479
     2  S   -0.065479
 Sum of Mulliken charges with hydrogens summed into heavy atoms =   0.00000
 Electronic spatial extent (au):  <R**2>=            130.2916
 Charge=              0.0000 electrons
 Dipole moment (field-independent basis, Debye):
    X=              0.0000    Y=              0.0079    Z=             -1.7525  Tot=              1.7525
 Quadrupole moment (field-independent basis, Debye-Ang):
   XX=            -19.9780   YY=            -20.5752   ZZ=            -18.9725
   XY=              0.0000   XZ=              0.0000   YZ=             -0.0181
 Traceless Quadrupole moment (field-independent basis, Debye-Ang):
   XX=             -0.1361   YY=             -0.7333   ZZ=              0.8694
   XY=              0.0000   XZ=              0.0000   YZ=             -0.0181
 Octapole moment (field-independent basis, Debye-Ang**2):
  XXX=              0.0000  YYY=              0.4491  ZZZ=            -27.6815  XYY=              0.0000
  XXY=              0.1265  XXZ=             -8.5634  XZZ=              0.0000  YZZ=              0.0932
  YYZ=            -13.1328  XYZ=              0.0000
 Hexadecapole moment (field-independent basis, Debye-Ang**3):
 XXXX=            -25.3178 YYYY=            -35.1255 ZZZZ=           -127.3623 XXXY=              0.0000
 XXXZ=              0.0000 YYYX=              0.0000 YYYZ=              0.4642 ZZZX=              0.0000
 ZZZY=              0.2616 XXYY=            -10.5029 XXZZ=            -25.3324 YYZZ=            -29.5532
 XXYZ=              0.1183 YYXZ=              0.0000 ZZXY=              0.0000
 N-N= 4.470334518642D+01 E-N=-1.127362184163D+03  KE= 4.368673165717D+02
 1\1\GINC-TRAPISTA\SP\RQCISD-FC\Aug-CC-pVTZ\C1H2S1\BRUNS\17-Nov-2021\0\
 \# qcisd/aug-cc-pvtz nosymm density=current output=wfn\\h2cs-wavefunct
 ion\\0,1\C,0,0.,0.,-0.555291\S,0,0.,-0.01,1.060374\H,0,0.,-0.92228,-1.
 128992\H,0,0.,0.92228,-1.128992\\Version=EM64L-G09RevB.01\HF=-436.5575
 828\MP2=-436.8984538\MP3=-436.9212658\MP4D=-436.9312857\MP4DQ=-436.919
 6223\MP4SDQ=-436.9231052\QCISD=-436.9235099\RMSD=6.269e-09\Dipole=0.,0
 .0031087,-0.6894692\Quadrupole=-0.101192,-0.545194,0.646386,0.,0.,-0.0
 134297\PG=CS [SG(C1H2S1)]\\@

 Writing a WFN file to GAUSSIAN.wfn.


    WHAT WE HAVE LEARNED
 IS LIKE A HANDFUL OF EARTH;
  WHAT WE HAVE YET TO LEARN
   IS LIKE THE WHOLE WORLD.

         -- AVVAYIAR
 Job cpu time:  0 days  0 hours 22 minutes 23.4 seconds.
 File lengths (MBytes):  RWF=   5923 Int=      0 D2E=      0 Chk=      2 Scr=      1
 Normal termination of Gaussian 09 at Wed Nov 17 17:22:15 2021.
