 Entering Gaussian System, Link 0=/home/bruns/programas/chemistry/gaussian/g09/g09
 Input=GAUSSIAN.com
 Output=GAUSSIAN.log
 Initial command:
 /home/bruns/programas/chemistry/gaussian/g09/l1.exe /home/bruns/programas/chemistry/gaussian/work/Gau-31589.inp -scrdir=/home/bruns/programas/chemistry/gaussian/work/
 Entering Link 1 = /home/bruns/programas/chemistry/gaussian/g09/l1.exe PID=     31591.
  
 Copyright (c) 1988,1990,1992,1993,1995,1998,2003,2009,2010,
            Gaussian, Inc.  All Rights Reserved.
  
 This is part of the Gaussian(R) 09 program.  It is based on
 the Gaussian(R) 03 system (copyright 2003, Gaussian, Inc.),
 the Gaussian(R) 98 system (copyright 1998, Gaussian, Inc.),
 the Gaussian(R) 94 system (copyright 1995, Gaussian, Inc.),
 the Gaussian 92(TM) system (copyright 1992, Gaussian, Inc.),
 the Gaussian 90(TM) system (copyright 1990, Gaussian, Inc.),
 the Gaussian 88(TM) system (copyright 1988, Gaussian, Inc.),
 the Gaussian 86(TM) system (copyright 1986, Carnegie Mellon
 University), and the Gaussian 82(TM) system (copyright 1983,
 Carnegie Mellon University). Gaussian is a federally registered
 trademark of Gaussian, Inc.
  
 This software contains proprietary and confidential information,
 including trade secrets, belonging to Gaussian, Inc.
  
 This software is provided under written license and may be
 used, copied, transmitted, or stored only in accord with that
 written license.
  
 The following legend is applicable only to US Government
 contracts under FAR:
  
                    RESTRICTED RIGHTS LEGEND
  
 Use, reproduction and disclosure by the US Government is
 subject to restrictions as set forth in subparagraphs (a)
 and (c) of the Commercial Computer Software - Restricted
 Rights clause in FAR 52.227-19.
  
 Gaussian, Inc.
 340 Quinnipiac St., Bldg. 40, Wallingford CT 06492
  
  
 ---------------------------------------------------------------
 Warning -- This program may not be used in any manner that
 competes with the business of Gaussian, Inc. or will provide
 assistance to any competitor of Gaussian, Inc.  The licensee
 of this program is prohibited from giving any competitor of
 Gaussian, Inc. access to this program.  By using this program,
 the user acknowledges that Gaussian, Inc. is engaged in the
 business of creating and licensing software in the field of
 computational chemistry and represents and warrants to the
 licensee that it is not a competitor of Gaussian, Inc. and that
 it will not use this program in any manner prohibited above.
 ---------------------------------------------------------------
  

 Cite this work as:
 Gaussian 09, Revision B.01,
 M. J. Frisch, G. W. Trucks, H. B. Schlegel, G. E. Scuseria, 
 M. A. Robb, J. R. Cheeseman, G. Scalmani, V. Barone, B. Mennucci, 
 G. A. Petersson, H. Nakatsuji, M. Caricato, X. Li, H. P. Hratchian, 
 A. F. Izmaylov, J. Bloino, G. Zheng, J. L. Sonnenberg, M. Hada, 
 M. Ehara, K. Toyota, R. Fukuda, J. Hasegawa, M. Ishida, T. Nakajima, 
 Y. Honda, O. Kitao, H. Nakai, T. Vreven, J. A. Montgomery, Jr., 
 J. E. Peralta, F. Ogliaro, M. Bearpark, J. J. Heyd, E. Brothers, 
 K. N. Kudin, V. N. Staroverov, T. Keith, R. Kobayashi, J. Normand, 
 K. Raghavachari, A. Rendell, J. C. Burant, S. S. Iyengar, J. Tomasi, 
 M. Cossi, N. Rega, J. M. Millam, M. Klene, J. E. Knox, J. B. Cross, 
 V. Bakken, C. Adamo, J. Jaramillo, R. Gomperts, R. E. Stratmann, 
 O. Yazyev, A. J. Austin, R. Cammi, C. Pomelli, J. W. Ochterski, 
 R. L. Martin, K. Morokuma, V. G. Zakrzewski, G. A. Voth, 
 P. Salvador, J. J. Dannenberg, S. Dapprich, A. D. Daniels, 
 O. Farkas, J. B. Foresman, J. V. Ortiz, J. Cioslowski, 
 and D. J. Fox, Gaussian, Inc., Wallingford CT, 2010.
 
 ******************************************
 Gaussian 09:  EM64L-G09RevB.01 12-Aug-2010
                17-Nov-2021 
 ******************************************
 %nproc=8
 Will use up to    8 processors via shared memory.
 %mem=8GB
 -----------------------------------------------------
 # qcisd/aug-cc-pvtz nosymm density=current output=wfn
 -----------------------------------------------------
 1/30=1,38=1/1;
 2/12=2,15=1,17=6,18=5,40=1/2;
 3/5=16,6=1,7=10,11=9,16=1,25=1,30=1,71=1/1,2,3;
 4//1;
 5/5=2,38=5/2;
 8/6=4,9=120000,10=1/1,4;
 9/5=8,15=1/13;
 11/28=-7,31=1,32=3,42=3/11;
 10/5=6,13=10,31=1/2;
 6/7=2,8=2,9=2,10=2,22=-1,31=1/1;
 99/5=1,6=1100,9=1/99;
 -----------------
 h2cs-wavefunction
 -----------------
 Symbolic Z-matrix:
 Charge =  0 Multiplicity = 1
 C                     0.        0.       -0.55529 
 S                     0.        0.        1.06037 
 H                     0.       -0.92228  -1.12899 
 H                     0.        0.92228  -1.11899 
 
                          Input orientation:                          
 ---------------------------------------------------------------------
 Center     Atomic      Atomic             Coordinates (Angstroms)
 Number     Number       Type             X           Y           Z
 ---------------------------------------------------------------------
      1          6           0        0.000000    0.000000   -0.555291
      2         16           0        0.000000    0.000000    1.060374
      3          1           0        0.000000   -0.922280   -1.128992
      4          1           0        0.000000    0.922280   -1.118992
 ---------------------------------------------------------------------
                    Distance matrix (angstroms):
                    1          2          3          4
     1  C    0.000000
     2  S    1.615665   0.000000
     3  H    1.086155   2.375694   0.000000
     4  H    1.080907   2.366482   1.844587   0.000000
 Symmetry turned off by external request.
 Stoichiometry    CH2S
 Framework group  CS[SG(CH2S)]
 Deg. of freedom     5
 Full point group                 CS      NOp   2
 Rotational constants (GHZ):    294.7659323     17.6494050     16.6523301
 Standard basis: Aug-CC-pVTZ (5D, 7F)
 Integral buffers will be    131072 words long.
 Raffenetti 1 integral format.
 Two-electron integral symmetry is turned off.
   142 basis functions,   240 primitive gaussians,   164 cartesian basis functions
    12 alpha electrons       12 beta electrons
       nuclear repulsion energy        44.7320462548 Hartrees.
 NAtoms=    4 NActive=    4 NUniq=    4 SFac= 1.00D+00 NAtFMM=   50 NAOKFM=F Big=F
 One-electron integrals computed using PRISM.
 NBasis=   142 RedAO= T  NBF=   142
 NBsUse=   142 1.00D-06 NBFU=   142
 Harris functional with IExCor=  205 diagonalized for initial guess.
 ExpMin= 2.53D-02 ExpMax= 3.74D+05 ExpMxC= 1.18D+03 IAcc=3 IRadAn=         0 AccDes= 0.00D+00
 HarFok:  IExCor=  205 AccDes= 0.00D+00 IRadAn=         0 IDoV= 1
 ScaDFX=  1.000000  1.000000  1.000000  1.000000
 FoFCou: FMM=F IPFlag=           0 FMFlag=      100000 FMFlg1=           0
         NFxFlg=           0 DoJE=T BraDBF=F KetDBF=T FulRan=T
         Omega=  0.000000  0.000000  1.000000  0.000000  0.000000 ICntrl=     500 IOpCl=  0
         NMat0=    1 NMatS0=    1 NMatT0=    0 NMatD0=    1 NMtDS0=    0 NMtDT0=    0
         I1Cent=           4 NGrid=           0.
 Symmetry not used in FoFCou.
 Requested convergence on RMS density matrix=1.00D-08 within 128 cycles.
 Requested convergence on MAX density matrix=1.00D-06.
 Requested convergence on             energy=1.00D-06.
 No special actions if energy rises.
 Keep R1 ints in memory in canonical form, NReq=93884347.
 SCF Done:  E(RHF) =  -436.557632349     A.U. after   11 cycles
             Convg  =    0.6581D-08             -V/T =  2.0003
 ExpMin= 2.53D-02 ExpMax= 3.74D+05 ExpMxC= 1.18D+03 IAcc=3 IRadAn=         5 AccDes= 0.00D+00
 HarFok:  IExCor=  205 AccDes= 0.00D+00 IRadAn=         5 IDoV=-2
 ScaDFX=  1.000000  1.000000  1.000000  1.000000
 Range of M.O.s used for correlation:     7   142
 NBasis=   142 NAE=    12 NBE=    12 NFC=     6 NFV=     0
 NROrb=    136 NOA=     6 NOB=     6 NVA=   130 NVB=   130

 **** Warning!!: The largest alpha MO coefficient is  0.44624521D+02

 Semi-Direct transformation.
 ModeAB=           2 MOrb=             6 LenV=    1073081967
 LASXX=      7286295 LTotXX=     7286295 LenRXX=     7286295
 LTotAB=     7445736 MaxLAS=    11040480 LenRXY=    11040480
 NonZer=    14572590 LenScr=    22628352 LnRSAI=           0
 LnScr1=           0 LExtra=           0 Total=     40955127
 MaxDsk=          -1 SrtSym=           F ITran=            4
 JobTyp=0 Pass  1:  I=   1 to   6.
 (rs|ai) integrals will be sorted in core.
 Spin components of T(2) and E(2):
     alpha-alpha T2 =       0.1682806423D-01 E2=     -0.3867147402D-01
     alpha-beta  T2 =       0.1051298849D+00 E2=     -0.2634646390D+00
     beta-beta   T2 =       0.1682806423D-01 E2=     -0.3867147402D-01
 ANorm=    0.1067139172D+01
 E2 =    -0.3408075870D+00 EUMP2 =    -0.43689843993559D+03
 R2 and R3 integrals will be kept in memory, NReq=   185320410.
 Iterations=  50 Convergence= 0.100D-07
 Iteration Nr.   1
 **********************
 DD1Dir will call FoFMem   1 times, MxPair=        42
 NAB=    21 NAA=     0 NBB=     0.
 MP4(R+Q)=  0.11658825D-01
 E3=       -0.22828013D-01        EUMP3=      -0.43692126795D+03
 E4(DQ)=    0.16544945D-02        UMP4(DQ)=   -0.43691961345D+03
 E4(SDQ)=  -0.18200639D-02        UMP4(SDQ)=  -0.43692308801D+03
 DE(Corr)= -0.35197678     E(Corr)=     -436.90960912    
 NORM(A)=   0.10737828D+01
 Iteration Nr.   2
 **********************
 DD1Dir will call FoFMem   1 times, MxPair=        42
 NAB=    21 NAA=     0 NBB=     0.
 DE(Corr)= -0.36337717     E(CORR)=     -436.92100952     Delta=-1.14D-02
 NORM(A)=   0.10811376D+01
 Iteration Nr.   3
 **********************
 DD1Dir will call FoFMem   1 times, MxPair=        42
 NAB=    21 NAA=     0 NBB=     0.
 DE(Corr)= -0.36430549     E(CORR)=     -436.92193784     Delta=-9.28D-04
 NORM(A)=   0.10835582D+01
 Iteration Nr.   4
 **********************
 DD1Dir will call FoFMem   1 times, MxPair=        42
 NAB=    21 NAA=     0 NBB=     0.
 DE(Corr)= -0.36562960     E(CORR)=     -436.92326195     Delta=-1.32D-03
 NORM(A)=   0.10845469D+01
 Iteration Nr.   5
 **********************
 DD1Dir will call FoFMem   1 times, MxPair=        42
 NAB=    21 NAA=     0 NBB=     0.
 DE(Corr)= -0.36582648     E(CORR)=     -436.92345883     Delta=-1.97D-04
 NORM(A)=   0.10849068D+01
 Iteration Nr.   6
 **********************
 DD1Dir will call FoFMem   1 times, MxPair=        42
 NAB=    21 NAA=     0 NBB=     0.
 DE(Corr)= -0.36585832     E(CORR)=     -436.92349067     Delta=-3.18D-05
 NORM(A)=   0.10849213D+01
 Iteration Nr.   7
 **********************
 DD1Dir will call FoFMem   1 times, MxPair=        42
 NAB=    21 NAA=     0 NBB=     0.
 DE(Corr)= -0.36585972     E(CORR)=     -436.92349206     Delta=-1.39D-06
 NORM(A)=   0.10849329D+01
 Iteration Nr.   8
 **********************
 DD1Dir will call FoFMem   1 times, MxPair=        42
 NAB=    21 NAA=     0 NBB=     0.
 DE(Corr)= -0.36585677     E(CORR)=     -436.92348912     Delta= 2.94D-06
 NORM(A)=   0.10849319D+01
 Iteration Nr.   9
 **********************
 DD1Dir will call FoFMem   1 times, MxPair=        42
 NAB=    21 NAA=     0 NBB=     0.
 DE(Corr)= -0.36585922     E(CORR)=     -436.92349157     Delta=-2.45D-06
 NORM(A)=   0.10849332D+01
 Iteration Nr.  10
 **********************
 DD1Dir will call FoFMem   1 times, MxPair=        42
 NAB=    21 NAA=     0 NBB=     0.
 DE(Corr)= -0.36585890     E(CORR)=     -436.92349125     Delta= 3.18D-07
 NORM(A)=   0.10849340D+01
 Iteration Nr.  11
 **********************
 DD1Dir will call FoFMem   1 times, MxPair=        42
 NAB=    21 NAA=     0 NBB=     0.
 DE(Corr)= -0.36585942     E(CORR)=     -436.92349177     Delta=-5.21D-07
 NORM(A)=   0.10849345D+01
 Iteration Nr.  12
 **********************
 DD1Dir will call FoFMem   1 times, MxPair=        42
 NAB=    21 NAA=     0 NBB=     0.
 DE(Corr)= -0.36585953     E(CORR)=     -436.92349188     Delta=-1.08D-07
 NORM(A)=   0.10849349D+01
 Iteration Nr.  13
 **********************
 DD1Dir will call FoFMem   1 times, MxPair=        42
 NAB=    21 NAA=     0 NBB=     0.
 DE(Corr)= -0.36585962     E(CORR)=     -436.92349197     Delta=-8.92D-08
 NORM(A)=   0.10849351D+01
 Iteration Nr.  14
 **********************
 DD1Dir will call FoFMem   1 times, MxPair=        42
 NAB=    21 NAA=     0 NBB=     0.
 DE(Corr)= -0.36585965     E(CORR)=     -436.92349200     Delta=-2.93D-08
 NORM(A)=   0.10849351D+01
 Iteration Nr.  15
 **********************
 DD1Dir will call FoFMem   1 times, MxPair=        42
 NAB=    21 NAA=     0 NBB=     0.
 DE(Corr)= -0.36585966     E(CORR)=     -436.92349200     Delta=-9.02D-09
 NORM(A)=   0.10849351D+01
 Iteration Nr.  16
 **********************
 DD1Dir will call FoFMem   1 times, MxPair=        42
 NAB=    21 NAA=     0 NBB=     0.
 DE(Corr)= -0.36585966     E(CORR)=     -436.92349201     Delta=-1.53D-09
 NORM(A)=   0.10849352D+01
 Dominant configurations:
 ***********************
 Spin Case        I    J    A    B          Value
   ABAB          11   11   14   14      -0.114498D+00
 Largest amplitude= 1.14D-01

 Z-AMPLITUDE ITERATIONS

 Iteration Nr.   1
 **********************
 DD1Dir will call FoFMem   1 times, MxPair=        42
 NAB=    21 NAA=     0 NBB=     0.
 DE(Z)  -0.34985431D+00          E(Z)=    -0.43690748665D+03
 NORM(A)=   0.10849259D+01
 Iteration Nr.   2
 **********************
 DD1Dir will call FoFMem   1 times, MxPair=        42
 NAB=    21 NAA=     0 NBB=     0.
 DE(Z)  -0.34985389D+00          E(Z)=    -0.43690748624D+03
 NORM(A)=   0.10849487D+01
 Iteration Nr.   3
 **********************
 DD1Dir will call FoFMem   1 times, MxPair=        42
 NAB=    21 NAA=     0 NBB=     0.
 DE(Z)  -0.34985494D+00          E(Z)=    -0.43690748728D+03
 NORM(A)=   0.10849206D+01
 Iteration Nr.   4
 **********************
 DD1Dir will call FoFMem   1 times, MxPair=        42
 NAB=    21 NAA=     0 NBB=     0.
 DE(Z)  -0.34985363D+00          E(Z)=    -0.43690748598D+03
 NORM(A)=   0.10849803D+01
 Iteration Nr.   5
 **********************
 DD1Dir will call FoFMem   1 times, MxPair=        42
 NAB=    21 NAA=     0 NBB=     0.
 DE(Z)  -0.34985645D+00          E(Z)=    -0.43690748879D+03
 NORM(A)=   0.10767284D+01
 Iteration Nr.   6
 **********************
 DD1Dir will call FoFMem   1 times, MxPair=        42
 NAB=    21 NAA=     0 NBB=     0.
 DE(Z)  -0.34945476D+00          E(Z)=    -0.43690708711D+03
 NORM(A)=   0.10767228D+01
 Iteration Nr.   7
 **********************
 DD1Dir will call FoFMem   1 times, MxPair=        42
 NAB=    21 NAA=     0 NBB=     0.
 DE(Z)  -0.34945319D+00          E(Z)=    -0.43690708553D+03
 NORM(A)=   0.10767219D+01
 Iteration Nr.   8
 **********************
 DD1Dir will call FoFMem   1 times, MxPair=        42
 NAB=    21 NAA=     0 NBB=     0.
 DE(Z)  -0.34945362D+00          E(Z)=    -0.43690708597D+03
 NORM(A)=   0.10767218D+01
 Iteration Nr.   9
 **********************
 DD1Dir will call FoFMem   1 times, MxPair=        42
 NAB=    21 NAA=     0 NBB=     0.
 DE(Z)  -0.34945351D+00          E(Z)=    -0.43690708585D+03
 NORM(A)=   0.10767218D+01
 Iteration Nr.  10
 **********************
 DD1Dir will call FoFMem   1 times, MxPair=        42
 NAB=    21 NAA=     0 NBB=     0.
 DE(Z)  -0.34945352D+00          E(Z)=    -0.43690708587D+03
 NORM(A)=   0.10767218D+01
 Iteration Nr.  11
 **********************
 DD1Dir will call FoFMem   1 times, MxPair=        42
 NAB=    21 NAA=     0 NBB=     0.
 DE(Z)  -0.34945352D+00          E(Z)=    -0.43690708587D+03
 NORM(A)=   0.10767218D+01
 Iteration Nr.  12
 **********************
 DD1Dir will call FoFMem   1 times, MxPair=        42
 NAB=    21 NAA=     0 NBB=     0.
 DE(Z)  -0.34945352D+00          E(Z)=    -0.43690708586D+03
 NORM(A)=   0.10767218D+01
 Discarding MO integrals.
          Differentiating once with respect to electric field.
                with respect to dipole field.
          Electric field/nuclear overlap derivatives assumed to be zero.
          Keep R1 ints in memory in canonical form, NReq=93478140.
          There are     1 degrees of freedom in the 1st order CPHF.  IDoFFX=0.
 LinEq1:  Iter=  0 NonCon=     1 RMS=2.95D-03 Max=4.36D-02
 AX will form     1 AO Fock derivatives at one time.
 LinEq1:  Iter=  1 NonCon=     1 RMS=9.84D-04 Max=1.22D-02
 LinEq1:  Iter=  2 NonCon=     1 RMS=4.75D-04 Max=1.32D-02
 LinEq1:  Iter=  3 NonCon=     1 RMS=1.60D-04 Max=2.46D-03
 LinEq1:  Iter=  4 NonCon=     1 RMS=3.98D-05 Max=5.23D-04
 LinEq1:  Iter=  5 NonCon=     1 RMS=8.71D-06 Max=9.97D-05
 LinEq1:  Iter=  6 NonCon=     1 RMS=1.54D-06 Max=2.18D-05
 LinEq1:  Iter=  7 NonCon=     1 RMS=2.00D-07 Max=2.68D-06
 LinEq1:  Iter=  8 NonCon=     1 RMS=2.32D-08 Max=2.26D-07
 LinEq1:  Iter=  9 NonCon=     1 RMS=3.71D-09 Max=3.79D-08
 LinEq1:  Iter= 10 NonCon=     1 RMS=5.20D-10 Max=5.78D-09
 LinEq1:  Iter= 11 NonCon=     0 RMS=6.77D-11 Max=6.64D-10
 Linear equations converged to 1.000D-10 1.000D-09 after    11 iterations.
 End of Minotr Frequency-dependent properties file   721 does not exist.
 End of Minotr Frequency-dependent properties file   722 does not exist.

 **********************************************************************

            Population analysis using the QCI/CC density.

 **********************************************************************

     Natural Orbital Coefficients:
                           1         2         3         4         5
     Eigenvalues --     2.00003   2.00002   2.00001   2.00000   2.00000
   1 1   C  1S          0.00026  -0.15969  -0.45129   0.85644   0.00000
   2        2S         -0.00001   0.00306   0.00796  -0.01042   0.00000
   3        3S          0.00001  -0.00638  -0.01843   0.03574   0.00000
   4        4S          0.00012  -0.00365  -0.00082  -0.00344   0.00000
   5        5S         -0.00001  -0.00058  -0.00156  -0.00008   0.00000
   6        6PX         0.00000   0.00000   0.00000   0.00000  -0.00135
   7        6PY        -0.00065   0.00000   0.00000  -0.00002   0.00000
   8        6PZ        -0.00001   0.00110   0.00170   0.00194   0.00000
   9        7PX         0.00000   0.00000   0.00000   0.00000  -0.00115
  10        7PY        -0.00137   0.00000  -0.00004   0.00009   0.00000
  11        7PZ        -0.00002   0.00012   0.00129  -0.00087   0.00000
  12        8PX         0.00000   0.00000   0.00000   0.00000  -0.00048
  13        8PY         0.01589  -0.00002  -0.00008   0.00007   0.00000
  14        8PZ         0.00009  -0.00590  -0.00149  -0.00298   0.00000
  15        9PX         0.00000   0.00000   0.00000   0.00000  -0.00001
  16        9PY         0.00135   0.00000  -0.00001  -0.00001   0.00000
  17        9PZ         0.00000  -0.00002  -0.00017  -0.00018   0.00000
  18       10D 0        0.00000  -0.00002   0.00000   0.00029   0.00000
  19       10D+1        0.00000   0.00000   0.00000   0.00000  -0.00020
  20       10D-1       -0.00032   0.00000   0.00000  -0.00001   0.00000
  21       10D+2        0.00000   0.00010   0.00027  -0.00054   0.00000
  22       10D-2        0.00000   0.00000   0.00000   0.00000   0.00000
  23       11D 0        0.00000  -0.00083   0.00054  -0.00134   0.00000
  24       11D+1        0.00000   0.00000   0.00000   0.00000   0.00161
  25       11D-1        0.00013   0.00000   0.00001  -0.00004   0.00000
  26       11D+2        0.00000  -0.00028  -0.00028   0.00020   0.00000
  27       11D-2        0.00000   0.00000   0.00000   0.00000  -0.00001
  28       12D 0       -0.00001  -0.00326  -0.00244  -0.00151   0.00000
  29       12D+1        0.00000   0.00000   0.00000   0.00000  -0.00105
  30       12D-1       -0.00422   0.00001   0.00004  -0.00002   0.00000
  31       12D+2        0.00001  -0.00145  -0.00090  -0.00052   0.00000
  32       12D-2        0.00000   0.00000   0.00000   0.00000   0.00001
  33       13F 0        0.00000   0.00001   0.00009   0.00052   0.00000
  34       13F+1        0.00000   0.00000   0.00000   0.00000  -0.00015
  35       13F-1       -0.00036   0.00000   0.00000   0.00000   0.00000
  36       13F+2        0.00000  -0.00010  -0.00022   0.00053   0.00000
  37       13F-2        0.00000   0.00000   0.00000   0.00000   0.00000
  38       13F+3        0.00000   0.00000   0.00000   0.00000   0.00002
  39       13F-3        0.00001   0.00000   0.00000   0.00000   0.00000
  40       14F 0        0.00000   0.00077   0.00156  -0.00090   0.00000
  41       14F+1        0.00000   0.00000   0.00000   0.00000   0.00130
  42       14F-1        0.00193   0.00000   0.00001   0.00002   0.00000
  43       14F+2       -0.00001   0.00067   0.00106  -0.00085   0.00000
  44       14F-2        0.00000   0.00000   0.00000   0.00000   0.00000
  45       14F+3        0.00000   0.00000   0.00000   0.00000   0.00045
  46       14F-3       -0.00018   0.00000   0.00001   0.00000   0.00000
  47 2   S  1S          0.00015  -0.20699   0.19189   0.06264   0.00000
  48        2S         -0.00051   0.70697  -0.66138  -0.21547   0.00000
  49        3S          0.00002  -0.02025   0.01028   0.00297   0.00000
  50        4S         -0.00003   0.04741  -0.04715  -0.01604   0.00000
  51        5S         -0.00005   0.00728   0.00702   0.00833   0.00000
  52        6S          0.00000   0.00006   0.00037   0.00143   0.00000
  53        7PX         0.00000   0.00000   0.00000   0.00000   0.97148
  54        7PY         0.97717   0.00225   0.00138   0.00085   0.00000
  55        7PZ        -0.00272   0.66627   0.57017   0.42260   0.00000
  56        8PX         0.00000   0.00000   0.00000   0.00000  -0.01104
  57        8PY        -0.02056  -0.00004  -0.00002  -0.00002   0.00000
  58        8PZ         0.00006  -0.01194  -0.00781  -0.00671   0.00000
  59        9PX         0.00000   0.00000   0.00000   0.00000   0.06296
  60        9PY         0.05563   0.00013   0.00008   0.00006   0.00000
  61        9PZ        -0.00016   0.04070   0.03672   0.02757   0.00000
  62       10PX         0.00000   0.00000   0.00000   0.00000   0.00190
  63       10PY        -0.00638   0.00000  -0.00002   0.00002   0.00000
  64       10PZ         0.00004  -0.00716  -0.00127  -0.00387   0.00000
  65       11PX         0.00000   0.00000   0.00000   0.00000  -0.00070
  66       11PY        -0.00127   0.00000   0.00000   0.00001   0.00000
  67       11PZ         0.00000  -0.00007   0.00002  -0.00022   0.00000
  68       12D 0       -0.00001   0.00217   0.00175   0.00222   0.00000
  69       12D+1        0.00000   0.00000   0.00000   0.00000   0.00219
  70       12D-1        0.00267   0.00000   0.00001   0.00000   0.00000
  71       12D+2        0.00000  -0.00054  -0.00005   0.00034   0.00000
  72       12D-2        0.00000   0.00000   0.00000   0.00000   0.00000
  73       13D 0        0.00000   0.00002  -0.00031  -0.00038   0.00000
  74       13D+1        0.00000   0.00000   0.00000   0.00000  -0.00020
  75       13D-1       -0.00054   0.00000   0.00000   0.00000   0.00000
  76       13D+2        0.00000   0.00037  -0.00029  -0.00012   0.00000
  77       13D-2        0.00000   0.00000   0.00000   0.00000   0.00000
  78       14D 0       -0.00001   0.00096  -0.00028   0.00077   0.00000
  79       14D+1        0.00000   0.00000   0.00000   0.00000  -0.00065
  80       14D-1       -0.00059  -0.00001   0.00001  -0.00001   0.00000
  81       14D+2        0.00000   0.00034   0.00008   0.00003   0.00000
  82       14D-2        0.00000   0.00000   0.00000   0.00000   0.00000
  83       15F 0        0.00000  -0.00018  -0.00011   0.00014   0.00000
  84       15F+1        0.00000   0.00000   0.00000   0.00000  -0.00033
  85       15F-1       -0.00014   0.00000   0.00000   0.00000   0.00000
  86       15F+2        0.00000   0.00014   0.00019   0.00007   0.00000
  87       15F-2        0.00000   0.00000   0.00000   0.00000   0.00000
  88       15F+3        0.00000   0.00000   0.00000   0.00000   0.00016
  89       15F-3        0.00010   0.00000   0.00000   0.00000   0.00000
  90       16F 0        0.00000  -0.00041  -0.00027  -0.00077   0.00000
  91       16F+1        0.00000   0.00000   0.00000   0.00000  -0.00048
  92       16F-1       -0.00084   0.00000   0.00000   0.00000   0.00000
  93       16F+2        0.00000  -0.00004   0.00000  -0.00028   0.00000
  94       16F-2        0.00000   0.00000   0.00000   0.00000   0.00000
  95       16F+3        0.00000   0.00000   0.00000   0.00000  -0.00019
  96       16F-3       -0.00024   0.00000   0.00000   0.00000   0.00000
  97 3   H  1S         -0.00042  -0.00009   0.00015  -0.00121   0.00000
  98        2S          0.00046  -0.00128  -0.00120  -0.00163   0.00000
  99        3S          0.01835  -0.00341  -0.00002  -0.00349   0.00000
 100        4S          0.00057   0.00006   0.00014  -0.00016   0.00000
 101        5PX         0.00000   0.00000   0.00000   0.00000  -0.00006
 102        5PY        -0.00001   0.00001   0.00008  -0.00038   0.00000
 103        5PZ         0.00012   0.00004   0.00009  -0.00017   0.00000
 104        6PX         0.00000   0.00000   0.00000   0.00000   0.00039
 105        6PY        -0.00004   0.00008   0.00028  -0.00090   0.00000
 106        6PZ        -0.00072   0.00006   0.00038  -0.00061   0.00000
 107        7PX         0.00000   0.00000   0.00000   0.00000  -0.00068
 108        7PY         0.00382   0.00044   0.00089  -0.00041   0.00000
 109        7PZ         0.00163  -0.00149  -0.00069  -0.00118   0.00000
 110        8D 0        0.00011   0.00004   0.00007   0.00009   0.00000
 111        8D+1        0.00000   0.00000   0.00000   0.00000  -0.00002
 112        8D-1        0.00000   0.00004   0.00014  -0.00030   0.00000
 113        8D+2        0.00003  -0.00004  -0.00011   0.00022   0.00000
 114        8D-2        0.00000   0.00000   0.00000   0.00000   0.00004
 115        9D 0       -0.00001   0.00007   0.00038  -0.00018   0.00000
 116        9D+1        0.00000   0.00000   0.00000   0.00000   0.00045
 117        9D-1       -0.00047  -0.00026  -0.00024  -0.00031   0.00000
 118        9D+2        0.00020  -0.00021  -0.00030   0.00030   0.00000
 119        9D-2        0.00000   0.00000   0.00000   0.00000  -0.00016
 120 4   H  1S          0.00041  -0.00008   0.00016  -0.00123   0.00000
 121        2S         -0.00044  -0.00127  -0.00111  -0.00185   0.00000
 122        3S         -0.01841  -0.00341   0.00021  -0.00376   0.00000
 123        4S         -0.00057   0.00007   0.00017  -0.00016   0.00000
 124        5PX         0.00000   0.00000   0.00000   0.00000  -0.00006
 125        5PY        -0.00001  -0.00001  -0.00008   0.00039   0.00000
 126        5PZ        -0.00013   0.00004   0.00010  -0.00017   0.00000
 127        6PX         0.00000   0.00000   0.00000   0.00000   0.00040
 128        6PY        -0.00005  -0.00007  -0.00030   0.00100   0.00000
 129        6PZ         0.00072   0.00007   0.00044  -0.00064   0.00000
 130        7PX         0.00000   0.00000   0.00000   0.00000  -0.00070
 131        7PY         0.00384  -0.00043  -0.00093   0.00049   0.00000
 132        7PZ        -0.00159  -0.00149  -0.00067  -0.00120   0.00000
 133        8D 0       -0.00011   0.00005   0.00007   0.00010   0.00000
 134        8D+1        0.00000   0.00000   0.00000   0.00000  -0.00002
 135        8D-1        0.00000  -0.00004  -0.00014   0.00030   0.00000
 136        8D+2       -0.00003  -0.00004  -0.00011   0.00023   0.00000
 137        8D-2        0.00000   0.00000   0.00000   0.00000  -0.00004
 138        9D 0        0.00000   0.00007   0.00039  -0.00017   0.00000
 139        9D+1        0.00000   0.00000   0.00000   0.00000   0.00045
 140        9D-1       -0.00047   0.00027   0.00024   0.00033   0.00000
 141        9D+2       -0.00019  -0.00021  -0.00030   0.00032   0.00000
 142        9D-2        0.00000   0.00000   0.00000   0.00000   0.00015
                           6         7         8         9        10
     Eigenvalues --     2.00000   1.97247   1.96172   1.95927   1.94156
   1 1   C  1S         -0.00025  -0.13883   0.07823   0.00316   0.05984
   2        2S         -0.00002   0.37163  -0.21906  -0.00872  -0.16558
   3        3S          0.00000   0.08254  -0.05197  -0.00192  -0.03845
   4        4S         -0.00020   0.25050  -0.22225  -0.00758  -0.08605
   5        5S         -0.00011   0.01880   0.00505   0.00001  -0.00523
   6        6PX         0.00000   0.00000   0.00000   0.00000   0.00000
   7        6PY         0.00000   0.00148  -0.00837   0.24789   0.00071
   8        6PZ         0.00001   0.01351   0.16536   0.00535  -0.18355
   9        7PX         0.00000   0.00000   0.00000   0.00000   0.00000
  10        7PY         0.00000   0.00217  -0.01151   0.33945   0.00099
  11        7PZ        -0.00009   0.00455   0.21384   0.00709  -0.23373
  12        8PX         0.00000   0.00000   0.00000   0.00000   0.00000
  13        8PY         0.00000   0.00114  -0.00748   0.22497   0.00064
  14        8PZ         0.00004  -0.03187   0.10272   0.00372  -0.13034
  15        9PX         0.00000   0.00000   0.00000   0.00000   0.00000
  16        9PY         0.00000  -0.00003  -0.00021   0.00604   0.00011
  17        9PZ        -0.00002   0.00157   0.00757   0.00021  -0.00632
  18       10D 0       -0.00001   0.00839   0.00901   0.00011  -0.01089
  19       10D+1        0.00000   0.00000   0.00000   0.00000   0.00000
  20       10D-1        0.00000  -0.00008   0.00044  -0.01423  -0.00012
  21       10D+2        0.00000  -0.00715   0.00994   0.00024  -0.00308
  22       10D-2        0.00000   0.00000   0.00000   0.00000   0.00000
  23       11D 0       -0.00005   0.00947   0.01594   0.00011  -0.01371
  24       11D+1        0.00000   0.00000   0.00000   0.00000   0.00000
  25       11D-1        0.00000  -0.00022   0.00116  -0.03870  -0.00021
  26       11D+2        0.00001  -0.01793   0.02575   0.00062  -0.00840
  27       11D-2        0.00000   0.00000   0.00000   0.00000   0.00000
  28       12D 0        0.00001  -0.01043  -0.00222  -0.00037  -0.00187
  29       12D+1        0.00000   0.00000   0.00000   0.00000   0.00000
  30       12D-1        0.00000  -0.00014   0.00132  -0.03688  -0.00029
  31       12D+2        0.00003  -0.00417   0.00358  -0.00003  -0.00410
  32       12D-2        0.00000   0.00000   0.00000   0.00000   0.00000
  33       13F 0        0.00000   0.00584   0.00138   0.00000  -0.00509
  34       13F+1        0.00000   0.00000   0.00000   0.00000   0.00000
  35       13F-1        0.00000   0.00000  -0.00013   0.00556  -0.00005
  36       13F+2        0.00000   0.00383  -0.00219  -0.00013  -0.00027
  37       13F-2        0.00000   0.00000   0.00000   0.00000   0.00000
  38       13F+3        0.00000   0.00000   0.00000   0.00000   0.00000
  39       13F-3        0.00000  -0.00002   0.00009  -0.00232  -0.00002
  40       14F 0       -0.00001   0.00568  -0.00590  -0.00017   0.00012
  41       14F+1        0.00000   0.00000   0.00000   0.00000   0.00000
  42       14F-1        0.00000  -0.00001   0.00009   0.00316  -0.00018
  43       14F+2        0.00000   0.00740  -0.00722  -0.00024   0.00023
  44       14F-2        0.00000   0.00000   0.00000   0.00000   0.00000
  45       14F+3        0.00000   0.00000   0.00000   0.00000   0.00000
  46       14F-3        0.00000  -0.00004   0.00016  -0.00303  -0.00005
  47 2   S  1S          0.99624   0.04545   0.04867   0.00129   0.02726
  48        2S          0.01376  -0.17573  -0.18492  -0.00486  -0.10585
  49        3S          0.00032   0.36186   0.40107   0.01067   0.23693
  50        4S          0.00002   0.04526   0.05496   0.00149   0.03422
  51        5S         -0.00011   0.19359   0.21278   0.00587   0.31939
  52        6S          0.00004  -0.01504  -0.02867  -0.00078   0.05908
  53        7PX         0.00000   0.00000   0.00000   0.00000   0.00000
  54        7PY         0.00000  -0.00013   0.00114  -0.03858   0.00156
  55        7PZ         0.00112   0.04149   0.02208   0.00041  -0.18234
  56        8PX         0.00000   0.00000   0.00000   0.00000   0.00000
  57        8PY         0.00000   0.00034  -0.00265   0.08896  -0.00378
  58        8PZ        -0.00015  -0.05424  -0.02977  -0.00051   0.38727
  59        9PX         0.00000   0.00000   0.00000   0.00000   0.00000
  60        9PY         0.00000   0.00016  -0.00113   0.03860  -0.00164
  61        9PZ         0.00014  -0.02938  -0.01725  -0.00033   0.17551
  62       10PX         0.00000   0.00000   0.00000   0.00000   0.00000
  63       10PY         0.00000   0.00014  -0.00081   0.03014  -0.00282
  64       10PZ         0.00006   0.01360   0.00655   0.00030   0.12065
  65       11PX         0.00000   0.00000   0.00000   0.00000   0.00000
  66       11PY         0.00000   0.00001   0.00008  -0.00186  -0.00035
  67       11PZ         0.00000   0.00596   0.00559   0.00016  -0.00304
  68       12D 0        0.00006   0.01216   0.00118  -0.00005  -0.02891
  69       12D+1        0.00000   0.00000   0.00000   0.00000   0.00000
  70       12D-1        0.00000  -0.00011   0.00073  -0.02218  -0.00014
  71       12D+2       -0.00001   0.00035   0.00143   0.00003  -0.00052
  72       12D-2        0.00000   0.00000   0.00000   0.00000   0.00000
  73       13D 0        0.00001   0.02222   0.01019   0.00021  -0.04666
  74       13D+1        0.00000   0.00000   0.00000   0.00000   0.00000
  75       13D-1        0.00000  -0.00011   0.00072  -0.02177  -0.00007
  76       13D+2        0.00001   0.00108   0.00142   0.00002  -0.00016
  77       13D-2        0.00000   0.00000   0.00000   0.00000   0.00000
  78       14D 0       -0.00004  -0.00880  -0.00475  -0.00016   0.00200
  79       14D+1        0.00000   0.00000   0.00000   0.00000   0.00000
  80       14D-1        0.00000  -0.00004   0.00004  -0.00211   0.00003
  81       14D+2        0.00000  -0.00121  -0.00216  -0.00005  -0.00054
  82       14D-2        0.00000   0.00000   0.00000   0.00000   0.00000
  83       15F 0       -0.00002  -0.00775  -0.00502  -0.00012   0.01365
  84       15F+1        0.00000   0.00000   0.00000   0.00000   0.00000
  85       15F-1        0.00000   0.00004  -0.00028   0.00856   0.00001
  86       15F+2        0.00000  -0.00041  -0.00042  -0.00001   0.00342
  87       15F-2        0.00000   0.00000   0.00000   0.00000   0.00000
  88       15F+3        0.00000   0.00000   0.00000   0.00000   0.00000
  89       15F-3        0.00000   0.00000  -0.00002   0.00074  -0.00003
  90       16F 0        0.00000   0.00347   0.00274   0.00008  -0.00438
  91       16F+1        0.00000   0.00000   0.00000   0.00000   0.00000
  92       16F-1        0.00000   0.00000   0.00000   0.00083  -0.00001
  93       16F+2        0.00000  -0.00042  -0.00067  -0.00002   0.00060
  94       16F-2        0.00000   0.00000   0.00000   0.00000   0.00000
  95       16F+3        0.00000   0.00000   0.00000   0.00000   0.00000
  96       16F-3        0.00000   0.00001  -0.00003   0.00083  -0.00002
  97 3   H  1S          0.00000   0.06755  -0.09596  -0.14383   0.03293
  98        2S          0.00001   0.05008  -0.09495  -0.16031   0.04713
  99        3S          0.00014  -0.03368   0.01405   0.07329   0.01443
 100        4S          0.00000  -0.00036   0.00306   0.00304  -0.00163
 101        5PX         0.00000   0.00000   0.00000   0.00000   0.00000
 102        5PY         0.00000   0.00537  -0.00922  -0.00837   0.00360
 103        5PZ         0.00000   0.00331  -0.00293  -0.00853  -0.00107
 104        6PX         0.00000   0.00000   0.00000   0.00000   0.00000
 105        6PY         0.00000  -0.00358  -0.00240   0.01271   0.00223
 106        6PZ         0.00000  -0.00355   0.00854  -0.00058  -0.00935
 107        7PX         0.00000   0.00000   0.00000   0.00000   0.00000
 108        7PY         0.00001  -0.01041   0.01371   0.03124  -0.00168
 109        7PZ         0.00003  -0.01354   0.00476   0.01296   0.00116
 110        8D 0        0.00000   0.00025   0.00140  -0.00130  -0.00160
 111        8D+1        0.00000   0.00000   0.00000   0.00000   0.00000
 112        8D-1        0.00000   0.00040  -0.00092  -0.00248   0.00001
 113        8D+2        0.00000  -0.00057   0.00157   0.00014  -0.00078
 114        8D-2        0.00000   0.00000   0.00000   0.00000   0.00000
 115        9D 0        0.00000  -0.00006  -0.00028  -0.00184  -0.00045
 116        9D+1        0.00000   0.00000   0.00000   0.00000   0.00000
 117        9D-1       -0.00001  -0.00379   0.00328   0.00351  -0.00059
 118        9D+2        0.00000   0.00148  -0.00053  -0.00305  -0.00024
 119        9D-2        0.00000   0.00000   0.00000   0.00000   0.00000
 120 4   H  1S          0.00000   0.06939  -0.10519   0.13747   0.03352
 121        2S          0.00001   0.05090  -0.10383   0.15247   0.04774
 122        3S          0.00014  -0.03531   0.02002  -0.07356   0.01532
 123        4S          0.00001  -0.00033   0.00326  -0.00287  -0.00150
 124        5PX         0.00000   0.00000   0.00000   0.00000   0.00000
 125        5PY         0.00000  -0.00554   0.00983  -0.00787  -0.00364
 126        5PZ         0.00000   0.00340  -0.00337   0.00833  -0.00116
 127        6PX         0.00000   0.00000   0.00000   0.00000   0.00000
 128        6PY         0.00000   0.00406   0.00136   0.01307  -0.00223
 129        6PZ         0.00000  -0.00361   0.00885   0.00108  -0.00972
 130        7PX         0.00000   0.00000   0.00000   0.00000   0.00000
 131        7PY        -0.00001   0.01102  -0.01593   0.03035   0.00162
 132        7PZ         0.00003  -0.01370   0.00538  -0.01237   0.00148
 133        8D 0        0.00000   0.00028   0.00137   0.00135  -0.00166
 134        8D+1        0.00000   0.00000   0.00000   0.00000   0.00000
 135        8D-1        0.00000  -0.00044   0.00100  -0.00244   0.00007
 136        8D+2        0.00000  -0.00057   0.00158  -0.00004  -0.00078
 137        8D-2        0.00000   0.00000   0.00000   0.00000   0.00000
 138        9D 0        0.00000   0.00000  -0.00047   0.00186  -0.00041
 139        9D+1        0.00000   0.00000   0.00000   0.00000   0.00000
 140        9D-1        0.00001   0.00390  -0.00352   0.00324   0.00057
 141        9D+2        0.00000   0.00161  -0.00076   0.00300  -0.00026
 142        9D-2        0.00000   0.00000   0.00000   0.00000   0.00000
                          11        12        13        14        15
     Eigenvalues --     1.94079   1.89920   0.08404   0.03695   0.02626
   1 1   C  1S          0.00054   0.00000   0.00000  -0.11101   0.00261
   2        2S         -0.00151   0.00000   0.00000   0.38222  -0.00916
   3        3S         -0.00037   0.00000   0.00000   0.15383  -0.00418
   4        4S         -0.00032   0.00000   0.00000   0.15208  -0.01070
   5        5S         -0.00013   0.00000   0.00000   0.09654  -0.00091
   6        6PX         0.00000   0.19017  -0.30149   0.00000   0.00000
   7        6PY        -0.04024   0.00000   0.00000  -0.00207   0.25943
   8        6PZ        -0.00131   0.00000   0.00000   0.27410   0.00753
   9        7PX         0.00000   0.26567  -0.45877   0.00000   0.00000
  10        7PY        -0.05307   0.00000   0.00000  -0.00504   0.61097
  11        7PZ        -0.00177   0.00000   0.00000   0.53035   0.01384
  12        8PX         0.00000   0.17890  -0.20580   0.00000   0.00000
  13        8PY        -0.00293   0.00000   0.00000  -0.00263   0.16607
  14        8PZ        -0.00077   0.00000   0.00000   0.48199   0.00999
  15        9PX         0.00000   0.01324  -0.00568   0.00000   0.00000
  16        9PY        -0.00191   0.00000   0.00000   0.00005  -0.00700
  17        9PZ        -0.00001   0.00000   0.00000   0.03845   0.00074
  18       10D 0       -0.00001   0.00000   0.00000   0.00392   0.00048
  19       10D+1        0.00000   0.01135  -0.00304   0.00000   0.00000
  20       10D-1        0.01836   0.00000   0.00000  -0.00017   0.07071
  21       10D+2        0.00002   0.00000   0.00000   0.00215  -0.00006
  22       10D-2        0.00000   0.00001  -0.00003   0.00000   0.00000
  23       11D 0        0.00001   0.00000   0.00000   0.09602   0.00100
  24       11D+1        0.00000   0.03284  -0.03720   0.00000   0.00000
  25       11D-1        0.03570   0.00000   0.00000   0.00054   0.04832
  26       11D+2        0.00001   0.00000   0.00000   0.05693   0.00063
  27       11D-2        0.00000   0.00000  -0.00004   0.00000   0.00000
  28       12D 0       -0.00011   0.00000   0.00000   0.08235   0.00225
  29       12D+1        0.00000   0.01110  -0.01450   0.00000   0.00000
  30       12D-1       -0.02274   0.00000   0.00000   0.00011  -0.01854
  31       12D+2        0.00002   0.00000   0.00000   0.03494   0.00184
  32       12D-2        0.00000   0.00016  -0.00017   0.00000   0.00000
  33       13F 0       -0.00003   0.00000   0.00000   0.01353   0.00026
  34       13F+1        0.00000   0.00633  -0.00590   0.00000   0.00000
  35       13F-1        0.00453   0.00000   0.00000  -0.00010   0.03322
  36       13F+2        0.00001   0.00000   0.00000   0.00236  -0.00040
  37       13F-2        0.00000   0.00001  -0.00001   0.00000   0.00000
  38       13F+3        0.00000   0.00031   0.00011   0.00000   0.00000
  39       13F-3        0.00144   0.00000   0.00000   0.00003  -0.00346
  40       14F 0        0.00001   0.00000   0.00000  -0.00589   0.00001
  41       14F+1        0.00000   0.00123  -0.01599   0.00000   0.00000
  42       14F-1        0.00089   0.00000   0.00000  -0.00019   0.06808
  43       14F+2       -0.00002   0.00000   0.00000  -0.03540  -0.00090
  44       14F-2        0.00000   0.00001  -0.00002   0.00000   0.00000
  45       14F+3        0.00000   0.00059  -0.00500   0.00000   0.00000
  46       14F-3       -0.00054   0.00000   0.00000   0.00002   0.00433
  47 2   S  1S          0.00021   0.00000   0.00000  -0.02426  -0.00008
  48        2S         -0.00082   0.00000   0.00000   0.07022   0.00017
  49        3S          0.00183   0.00000   0.00000  -0.24960  -0.00105
  50        4S          0.00026   0.00000   0.00000   0.00121   0.00032
  51        5S          0.00255   0.00000   0.00000  -0.77809  -0.01057
  52        6S          0.00045   0.00000   0.00000  -0.26545  -0.00369
  53        7PX         0.00000  -0.17458  -0.20039   0.00000   0.00000
  54        7PY        -0.21567   0.00000   0.00000  -0.00050   0.08386
  55        7PZ        -0.00118   0.00000   0.00000  -0.19464  -0.00016
  56        8PX         0.00000   0.39360   0.53035   0.00000   0.00000
  57        8PY         0.52652   0.00000   0.00000   0.00140  -0.24020
  58        8PZ         0.00241   0.00000   0.00000   0.74091   0.00393
  59        9PX         0.00000   0.15974   0.20751   0.00000   0.00000
  60        9PY         0.22289   0.00000   0.00000   0.00063  -0.12704
  61        9PZ         0.00111   0.00000   0.00000   0.21000  -0.00005
  62       10PX         0.00000   0.20838   0.16222   0.00000   0.00000
  63       10PY         0.40590   0.00000   0.00000  -0.00022   0.09232
  64       10PZ         0.00055   0.00000   0.00000   0.49444   0.00652
  65       11PX         0.00000   0.00446   0.00191   0.00000   0.00000
  66       11PY         0.04152   0.00000   0.00000  -0.00013   0.02500
  67       11PZ        -0.00005   0.00000   0.00000   0.03324   0.00048
  68       12D 0       -0.00024   0.00000   0.00000   0.09908   0.00122
  69       12D+1        0.00000  -0.03657   0.03875   0.00000   0.00000
  70       12D-1        0.00249   0.00000   0.00000   0.00092  -0.28532
  71       12D+2       -0.00001   0.00000   0.00000   0.08737   0.00010
  72       12D-2        0.00000   0.00002   0.00005   0.00000   0.00000
  73       13D 0       -0.00036   0.00000   0.00000   0.16445   0.00219
  74       13D+1        0.00000  -0.03496   0.05162   0.00000   0.00000
  75       13D-1       -0.00035   0.00000   0.00000   0.00078  -0.24991
  76       13D+2        0.00000   0.00000   0.00000   0.05473   0.00000
  77       13D-2        0.00000   0.00001   0.00002   0.00000   0.00000
  78       14D 0       -0.00003   0.00000   0.00000  -0.06716  -0.00100
  79       14D+1        0.00000  -0.00379  -0.01894   0.00000   0.00000
  80       14D-1       -0.01342   0.00000   0.00000   0.00011  -0.03118
  81       14D+2       -0.00003   0.00000   0.00000   0.01420  -0.00007
  82       14D-2        0.00000  -0.00001   0.00002   0.00000   0.00000
  83       15F 0        0.00009   0.00000   0.00000  -0.01842  -0.00027
  84       15F+1        0.00000   0.01080  -0.01555   0.00000   0.00000
  85       15F-1        0.00368   0.00000   0.00000  -0.00018   0.03128
  86       15F+2        0.00002   0.00000   0.00000  -0.00451   0.00007
  87       15F-2        0.00000   0.00000  -0.00002   0.00000   0.00000
  88       15F+3        0.00000   0.00380   0.00228   0.00000   0.00000
  89       15F-3        0.00445   0.00000   0.00000  -0.00002   0.00353
  90       16F 0       -0.00004   0.00000   0.00000   0.01051   0.00032
  91       16F+1        0.00000  -0.00082   0.00504   0.00000   0.00000
  92       16F-1        0.00200   0.00000   0.00000  -0.00007   0.00119
  93       16F+2        0.00000   0.00000   0.00000  -0.01211   0.00001
  94       16F-2        0.00000   0.00000  -0.00003   0.00000   0.00000
  95       16F+3        0.00000   0.00241   0.00280   0.00000   0.00000
  96       16F-3        0.00334   0.00000   0.00000  -0.00001   0.00207
  97 3   H  1S          0.05199   0.00000   0.00000  -0.03278   0.18213
  98        2S          0.08990   0.00000   0.00000   0.08856   0.57621
  99        3S          0.16378   0.00000   0.00000   0.26320   0.29714
 100        4S          0.01603   0.00000   0.00000   0.01221   0.01137
 101        5PX         0.00000   0.00425  -0.01017   0.00000   0.00000
 102        5PY         0.00267   0.00000   0.00000  -0.00712   0.00650
 103        5PZ         0.00046   0.00000   0.00000   0.00554  -0.01277
 104        6PX         0.00000   0.01440  -0.01682   0.00000   0.00000
 105        6PY        -0.00030   0.00000   0.00000   0.02161   0.15293
 106        6PZ        -0.00219   0.00000   0.00000   0.03790   0.02130
 107        7PX         0.00000   0.00268   0.00866   0.00000   0.00000
 108        7PY         0.01939   0.00000   0.00000   0.04079   0.07235
 109        7PZ        -0.00107   0.00000   0.00000   0.06363   0.00969
 110        8D 0       -0.00096   0.00000   0.00000   0.00262  -0.01078
 111        8D+1        0.00000   0.00138  -0.00290   0.00000   0.00000
 112        8D-1        0.00005   0.00000   0.00000   0.00255  -0.00425
 113        8D+2       -0.00057   0.00000   0.00000   0.00203  -0.00757
 114        8D-2        0.00000   0.00145  -0.00486   0.00000   0.00000
 115        9D 0       -0.00086   0.00000   0.00000   0.00200  -0.00475
 116        9D+1        0.00000   0.00031  -0.00059   0.00000   0.00000
 117        9D-1       -0.00052   0.00000   0.00000   0.01131   0.02880
 118        9D+2        0.00061   0.00000   0.00000   0.00176  -0.02340
 119        9D-2        0.00000   0.00279   0.00383   0.00000   0.00000
 120 4   H  1S         -0.05141   0.00000   0.00000  -0.03099  -0.17351
 121        2S         -0.08863   0.00000   0.00000   0.09734  -0.55046
 122        3S         -0.16344   0.00000   0.00000   0.27074  -0.27669
 123        4S         -0.01601   0.00000   0.00000   0.01229  -0.01039
 124        5PX         0.00000   0.00432  -0.01031   0.00000   0.00000
 125        5PY         0.00264   0.00000   0.00000   0.00709   0.00685
 126        5PZ        -0.00042   0.00000   0.00000   0.00563   0.01351
 127        6PX         0.00000   0.01448  -0.01677   0.00000   0.00000
 128        6PY        -0.00034   0.00000   0.00000  -0.02432   0.15054
 129        6PZ         0.00215   0.00000   0.00000   0.03780  -0.01827
 130        7PX         0.00000   0.00240   0.00905   0.00000   0.00000
 131        7PY         0.01962   0.00000   0.00000  -0.04272   0.07063
 132        7PZ         0.00129   0.00000   0.00000   0.06353  -0.00545
 133        8D 0        0.00094   0.00000   0.00000   0.00247   0.01089
 134        8D+1        0.00000   0.00139  -0.00286   0.00000   0.00000
 135        8D-1        0.00002   0.00000   0.00000  -0.00265  -0.00460
 136        8D+2        0.00055   0.00000   0.00000   0.00196   0.00761
 137        8D-2        0.00000  -0.00149   0.00493   0.00000   0.00000
 138        9D 0        0.00090   0.00000   0.00000   0.00154   0.00442
 139        9D+1        0.00000   0.00027  -0.00051   0.00000   0.00000
 140        9D-1       -0.00046   0.00000   0.00000  -0.01156   0.02831
 141        9D+2       -0.00059   0.00000   0.00000   0.00139   0.02336
 142        9D-2        0.00000  -0.00276  -0.00393   0.00000   0.00000
                          16        17        18        19        20
     Eigenvalues --     0.02016   0.01797   0.01696   0.01593   0.01328
   1 1   C  1S         -0.14717   0.00000   0.08981  -0.00475   0.00000
   2        2S          0.56554   0.00000  -0.34130   0.01833   0.00000
   3        3S          0.30415   0.00000  -0.19848   0.01128   0.00000
   4        4S          0.13422   0.00000  -0.33157   0.01836   0.00000
   5        5S         -0.03361   0.00000  -0.08463   0.00398   0.00000
   6        6PX         0.00000  -0.00018   0.00000   0.00000   0.08649
   7        6PY         0.00060   0.00000   0.01071   0.45715   0.00000
   8        6PZ        -0.30947   0.00000   0.03024  -0.00437   0.00000
   9        7PX         0.00000  -0.00028   0.00000   0.00000   0.10831
  10        7PY         0.00045   0.00000   0.01843   0.78780   0.00000
  11        7PZ        -0.54732   0.00000  -0.02109  -0.00447   0.00000
  12        8PX         0.00000  -0.00011   0.00000   0.00000   0.04409
  13        8PY        -0.00614   0.00000   0.01297   0.55949   0.00000
  14        8PZ        -0.26674   0.00000   0.02478   0.00018   0.00000
  15        9PX         0.00000   0.00000   0.00000   0.00000  -0.01040
  16        9PY        -0.00042   0.00000   0.00066   0.03136   0.00000
  17        9PZ        -0.02614   0.00000  -0.00936   0.00023   0.00000
  18       10D 0       -0.00314   0.00000   0.00511  -0.00005   0.00000
  19       10D+1        0.00000   0.00015   0.00000   0.00000  -0.14650
  20       10D-1        0.00275   0.00000  -0.00292  -0.08512   0.00000
  21       10D+2        0.03353   0.00000   0.03715  -0.00063   0.00000
  22       10D-2        0.00000   0.04312   0.00000   0.00000   0.00026
  23       11D 0       -0.05577   0.00000   0.01904  -0.00169   0.00000
  24       11D+1        0.00000   0.00005   0.00000   0.00000  -0.26522
  25       11D-1        0.00737   0.00000  -0.01003  -0.33239   0.00000
  26       11D+2        0.04139   0.00000   0.10430  -0.00308   0.00000
  27       11D-2        0.00000   0.08471   0.00000   0.00000   0.00010
  28       12D 0       -0.06323   0.00000  -0.02230  -0.00147   0.00000
  29       12D+1        0.00000   0.00007   0.00000   0.00000  -0.04454
  30       12D-1        0.00501   0.00000  -0.00083  -0.06878   0.00000
  31       12D+2       -0.04760   0.00000   0.01897  -0.00216   0.00000
  32       12D-2        0.00000   0.00755   0.00000   0.00000   0.00026
  33       13F 0       -0.01592   0.00000   0.00324  -0.00030   0.00000
  34       13F+1        0.00000   0.00004   0.00000   0.00000  -0.05015
  35       13F-1        0.00101   0.00000  -0.00073  -0.02190   0.00000
  36       13F+2        0.01813   0.00000   0.02209  -0.00052   0.00000
  37       13F-2        0.00000   0.02546   0.00000   0.00000   0.00009
  38       13F+3        0.00000   0.00001   0.00000   0.00000  -0.01083
  39       13F-3        0.00038   0.00000  -0.00047  -0.01953   0.00000
  40       14F 0       -0.01156   0.00000  -0.02110   0.00081   0.00000
  41       14F+1        0.00000  -0.00005   0.00000   0.00000  -0.02951
  42       14F-1        0.00191   0.00000   0.00022   0.00122   0.00000
  43       14F+2        0.02544   0.00000  -0.01089   0.00052   0.00000
  44       14F-2        0.00000   0.01980   0.00000   0.00000   0.00000
  45       14F+3        0.00000  -0.00019   0.00000   0.00000  -0.00260
  46       14F-3        0.00085   0.00000  -0.00110  -0.04886   0.00000
  47 2   S  1S          0.00179   0.00000   0.00486  -0.00004   0.00000
  48        2S         -0.00521   0.00000  -0.04186   0.00083   0.00000
  49        3S          0.02162   0.00000   0.01160   0.00076   0.00000
  50        4S         -0.00933   0.00000   0.04110  -0.00058   0.00000
  51        5S          0.39476   0.00000   0.12930  -0.00274   0.00000
  52        6S          0.17341   0.00000   0.09388  -0.00292   0.00000
  53        7PX         0.00000  -0.00003   0.00000   0.00000   0.03373
  54        7PY         0.00078   0.00000   0.00066   0.03642   0.00000
  55        7PZ        -0.01600   0.00000   0.04933  -0.00158   0.00000
  56        8PX         0.00000   0.00009   0.00000   0.00000   0.00182
  57        8PY        -0.00379   0.00000  -0.00022  -0.03861   0.00000
  58        8PZ        -0.11893   0.00000  -0.15804   0.00406   0.00000
  59        9PX         0.00000   0.00005   0.00000   0.00000  -0.06209
  60        9PY        -0.00129   0.00000  -0.00093  -0.05548   0.00000
  61        9PZ         0.03470   0.00000  -0.06057   0.00201   0.00000
  62       10PX         0.00000  -0.00017   0.00000   0.00000   0.19910
  63       10PY        -0.00244   0.00000  -0.00011   0.04258   0.00000
  64       10PZ        -0.29455   0.00000  -0.06816   0.00110   0.00000
  65       11PX         0.00000  -0.00003   0.00000   0.00000   0.02066
  66       11PY        -0.00020   0.00000   0.00067   0.02991   0.00000
  67       11PZ        -0.02606   0.00000  -0.01120   0.00040   0.00000
  68       12D 0        0.04285   0.00000   0.13306  -0.00296   0.00000
  69       12D+1        0.00000  -0.00081   0.00000   0.00000   0.44606
  70       12D-1       -0.00987   0.00000   0.01286   0.40468   0.00000
  71       12D+2        0.15858   0.00000   0.56590  -0.01350   0.00000
  72       12D-2        0.00000   0.59568   0.00000   0.00000   0.00072
  73       13D 0       -0.03499   0.00000   0.06254  -0.00145   0.00000
  74       13D+1        0.00000  -0.00061   0.00000   0.00000   0.42947
  75       13D-1       -0.00883   0.00000   0.00954   0.29187   0.00000
  76       13D+2        0.11486   0.00000   0.40931  -0.00992   0.00000
  77       13D-2        0.00000   0.44179   0.00000   0.00000   0.00048
  78       14D 0        0.06313   0.00000   0.03952  -0.00120   0.00000
  79       14D+1        0.00000   0.00001   0.00000   0.00000  -0.06839
  80       14D-1        0.00019   0.00000   0.00200   0.06075   0.00000
  81       14D+2        0.01636   0.00000   0.04530  -0.00086   0.00000
  82       14D-2        0.00000   0.04856   0.00000   0.00000  -0.00002
  83       15F 0        0.00106   0.00000   0.00364  -0.00038   0.00000
  84       15F+1        0.00000   0.00001   0.00000   0.00000  -0.05991
  85       15F-1        0.00057   0.00000  -0.00012   0.00451   0.00000
  86       15F+2       -0.01542   0.00000  -0.02046   0.00018   0.00000
  87       15F-2        0.00000  -0.00720   0.00000   0.00000  -0.00009
  88       15F+3        0.00000  -0.00003   0.00000   0.00000  -0.02182
  89       15F-3        0.00017   0.00000  -0.00003  -0.00160   0.00000
  90       16F 0       -0.02841   0.00000  -0.01851   0.00022   0.00000
  91       16F+1        0.00000   0.00002   0.00000   0.00000   0.02636
  92       16F-1       -0.00011   0.00000  -0.00074  -0.02619   0.00000
  93       16F+2       -0.00879   0.00000  -0.02551   0.00048   0.00000
  94       16F-2        0.00000  -0.01128   0.00000   0.00000  -0.00004
  95       16F+3        0.00000   0.00002   0.00000   0.00000  -0.00918
  96       16F-3       -0.00004   0.00000   0.00004   0.00126   0.00000
  97 3   H  1S         -0.23451   0.00000   0.07152   0.07515   0.00000
  98        2S         -0.59466   0.00000   0.26007   0.72162   0.00000
  99        3S         -0.29837   0.00000   0.13849   0.74921   0.00000
 100        4S         -0.01213   0.00000   0.00345   0.05183   0.00000
 101        5PX         0.00000  -0.00916   0.00000   0.00000   0.02590
 102        5PY         0.01861   0.00000  -0.01183  -0.03267   0.00000
 103        5PZ        -0.00507   0.00000  -0.01215  -0.01999   0.00000
 104        6PX         0.00000  -0.01398   0.00000   0.00000   0.03829
 105        6PY        -0.05445   0.00000   0.00416   0.10533   0.00000
 106        6PZ        -0.04084   0.00000   0.01375   0.07090   0.00000
 107        7PX         0.00000  -0.00136   0.00000   0.00000  -0.00953
 108        7PY        -0.02145   0.00000   0.02239   0.12581   0.00000
 109        7PZ        -0.04562   0.00000  -0.00412   0.07959   0.00000
 110        8D 0       -0.00804   0.00000   0.00173   0.00378   0.00000
 111        8D+1        0.00000  -0.00327   0.00000   0.00000   0.00251
 112        8D-1        0.00577   0.00000  -0.00580  -0.00898   0.00000
 113        8D+2       -0.00649   0.00000   0.00625   0.00977   0.00000
 114        8D-2        0.00000  -0.00780   0.00000   0.00000   0.01644
 115        9D 0        0.00378   0.00000   0.00253  -0.00786   0.00000
 116        9D+1        0.00000   0.00196   0.00000   0.00000  -0.00170
 117        9D-1        0.00049   0.00000  -0.00051   0.00524   0.00000
 118        9D+2        0.00948   0.00000   0.00953  -0.00388   0.00000
 119        9D-2        0.00000  -0.00018   0.00000   0.00000  -0.00511
 120 4   H  1S         -0.23997   0.00000   0.06896  -0.08486   0.00000
 121        2S         -0.59290   0.00000   0.22635  -0.75585   0.00000
 122        3S         -0.27433   0.00000   0.10563  -0.76546   0.00000
 123        4S         -0.01086   0.00000   0.00115  -0.05231   0.00000
 124        5PX         0.00000   0.00928   0.00000   0.00000   0.02600
 125        5PY        -0.01799   0.00000   0.01019  -0.03453   0.00000
 126        5PZ        -0.00498   0.00000  -0.01124   0.02024   0.00000
 127        6PX         0.00000   0.01360   0.00000   0.00000   0.03811
 128        6PY         0.05560   0.00000   0.00102   0.10700   0.00000
 129        6PZ        -0.03684   0.00000   0.01031  -0.07083   0.00000
 130        7PX         0.00000   0.00145   0.00000   0.00000  -0.00996
 131        7PY         0.01706   0.00000  -0.01709   0.12646   0.00000
 132        7PZ        -0.04359   0.00000  -0.00855  -0.07927   0.00000
 133        8D 0       -0.00760   0.00000   0.00162  -0.00428   0.00000
 134        8D+1        0.00000   0.00312   0.00000   0.00000   0.00227
 135        8D-1       -0.00602   0.00000   0.00528  -0.00960   0.00000
 136        8D+2       -0.00627   0.00000   0.00579  -0.01066   0.00000
 137        8D-2        0.00000  -0.00780   0.00000   0.00000  -0.01641
 138        9D 0        0.00374   0.00000   0.00314   0.00850   0.00000
 139        9D+1        0.00000  -0.00214   0.00000   0.00000  -0.00139
 140        9D-1       -0.00053   0.00000   0.00055   0.00456   0.00000
 141        9D+2        0.00992   0.00000   0.00974   0.00333   0.00000
 142        9D-2        0.00000  -0.00020   0.00000   0.00000   0.00509
                          21        22        23        24        25
     Eigenvalues --     0.01199   0.01026   0.00820   0.00669   0.00646
   1 1   C  1S         -0.01173   0.00016  -0.03517   0.00000   0.00000
   2        2S          0.01289  -0.00051   0.12381   0.00000   0.00000
   3        3S         -0.00118   0.00020   0.11913   0.00000   0.00000
   4        4S          0.13335  -0.00760  -0.08215   0.00000   0.00000
   5        5S          0.06791  -0.00007  -0.03530   0.00000   0.00000
   6        6PX         0.00000   0.00000   0.00000   0.39141  -0.00587
   7        6PY         0.00108   0.14459   0.00015   0.00000   0.00000
   8        6PZ         0.11503   0.00062  -0.12824   0.00000   0.00000
   9        7PX         0.00000   0.00000   0.00000   0.46135  -0.00815
  10        7PY         0.00059   0.42273   0.00096   0.00000   0.00000
  11        7PZ         0.25940   0.00317  -0.12003   0.00000   0.00000
  12        8PX         0.00000   0.00000   0.00000  -0.18799   0.00299
  13        8PY         0.00437  -1.10653   0.00086   0.00000   0.00000
  14        8PZ        -0.28088  -0.00891   0.35878   0.00000   0.00000
  15        9PX         0.00000   0.00000   0.00000  -0.01088   0.00022
  16        9PY         0.00095  -0.10802   0.00017   0.00000   0.00000
  17        9PZ        -0.01259  -0.00075   0.00622   0.00000   0.00000
  18       10D 0       -0.18683  -0.00062  -0.09186   0.00000   0.00000
  19       10D+1        0.00000   0.00000   0.00000   0.08124  -0.00100
  20       10D-1        0.00037  -0.02902   0.00055   0.00000   0.00000
  21       10D+2        0.00765  -0.00004  -0.15622   0.00000   0.00000
  22       10D-2        0.00000   0.00000   0.00000   0.00467   0.30683
  23       11D 0       -0.28467  -0.00217  -0.22339   0.00000   0.00000
  24       11D+1        0.00000   0.00000   0.00000   0.10810  -0.00029
  25       11D-1        0.00033  -0.27949   0.00012   0.00000   0.00000
  26       11D+2        0.05839  -0.00045  -0.31472   0.00000   0.00000
  27       11D-2        0.00000   0.00000   0.00000   0.00753   0.45617
  28       12D 0       -0.06945  -0.00038   0.15973   0.00000   0.00000
  29       12D+1        0.00000   0.00000   0.00000   0.07076  -0.00050
  30       12D-1        0.00005   0.15453  -0.00535   0.00000   0.00000
  31       12D+2       -0.04268  -0.00118   0.08824   0.00000   0.00000
  32       12D-2        0.00000   0.00000   0.00000  -0.00015   0.04097
  33       13F 0       -0.04589  -0.00005   0.01256   0.00000   0.00000
  34       13F+1        0.00000   0.00000   0.00000   0.06445  -0.00133
  35       13F-1       -0.00010   0.05007  -0.00014   0.00000   0.00000
  36       13F+2        0.00192  -0.00022   0.01799   0.00000   0.00000
  37       13F-2        0.00000   0.00000   0.00000  -0.00044  -0.02460
  38       13F+3        0.00000   0.00000   0.00000  -0.02237   0.00024
  39       13F-3       -0.00007  -0.01028  -0.00025   0.00000   0.00000
  40       14F 0       -0.05531  -0.00049   0.01501   0.00000   0.00000
  41       14F+1        0.00000   0.00000   0.00000  -0.00246   0.00034
  42       14F-1        0.00011  -0.15048  -0.00166   0.00000   0.00000
  43       14F+2        0.01395   0.00012   0.01397   0.00000   0.00000
  44       14F-2        0.00000   0.00000   0.00000   0.00117   0.08012
  45       14F+3        0.00000   0.00000   0.00000  -0.01972   0.00018
  46       14F-3       -0.00019  -0.01903  -0.00049   0.00000   0.00000
  47 2   S  1S         -0.03305  -0.00007   0.06189   0.00000   0.00000
  48        2S          0.13316   0.00047  -0.22359   0.00000   0.00000
  49        3S         -0.34055  -0.00037   0.76931   0.00000   0.00000
  50        4S         -0.20177  -0.00040   0.53356   0.00000   0.00000
  51        5S          0.69296   0.00615  -1.33651   0.00000   0.00000
  52        6S          0.17710   0.00101  -0.16463   0.00000   0.00000
  53        7PX         0.00000   0.00000   0.00000  -0.20377   0.00330
  54        7PY         0.00100  -0.32080   0.00023   0.00000   0.00000
  55        7PZ        -0.12919  -0.00005  -0.08936   0.00000   0.00000
  56        8PX         0.00000   0.00000   0.00000   0.34231  -0.00595
  57        8PY        -0.00164   0.59892   0.00043   0.00000   0.00000
  58        8PZ         0.12453  -0.00074  -0.02648   0.00000   0.00000
  59        9PX         0.00000   0.00000   0.00000   0.37683  -0.00608
  60        9PY        -0.00186   0.60759  -0.00048   0.00000   0.00000
  61        9PZ         0.20649  -0.00013   0.17266   0.00000   0.00000
  62       10PX         0.00000   0.00000   0.00000  -0.82167   0.01251
  63       10PY         0.00248  -0.86132   0.00461   0.00000   0.00000
  64       10PZ        -0.39877  -0.00191  -0.02852   0.00000   0.00000
  65       11PX         0.00000   0.00000   0.00000  -0.02662   0.00038
  66       11PY         0.00031  -0.09849   0.00025   0.00000   0.00000
  67       11PZ        -0.03702   0.00003  -0.00249   0.00000   0.00000
  68       12D 0       -0.36028  -0.00053   0.03545   0.00000   0.00000
  69       12D+1        0.00000   0.00000   0.00000   0.22350  -0.00271
  70       12D-1        0.00084  -0.28464  -0.00127   0.00000   0.00000
  71       12D+2        0.06163   0.00026   0.13552   0.00000   0.00000
  72       12D-2        0.00000   0.00000   0.00000  -0.00262  -0.17980
  73       13D 0       -0.35044  -0.00068  -0.01785   0.00000   0.00000
  74       13D+1        0.00000   0.00000   0.00000   0.09786  -0.00131
  75       13D-1        0.00024  -0.07595  -0.00079   0.00000   0.00000
  76       13D+2        0.05623   0.00015   0.04066   0.00000   0.00000
  77       13D-2        0.00000   0.00000   0.00000  -0.00199  -0.14644
  78       14D 0        0.09267   0.00073  -0.01209   0.00000   0.00000
  79       14D+1        0.00000   0.00000   0.00000   0.15955  -0.00229
  80       14D-1        0.00003   0.03603  -0.00094   0.00000   0.00000
  81       14D+2       -0.00058   0.00054   0.01401   0.00000   0.00000
  82       14D-2        0.00000   0.00000   0.00000  -0.00009  -0.01990
  83       15F 0        0.06359   0.00029   0.00781   0.00000   0.00000
  84       15F+1        0.00000   0.00000   0.00000   0.08158  -0.00122
  85       15F-1        0.00023   0.00469   0.00009   0.00000   0.00000
  86       15F+2        0.00200   0.00012   0.00969   0.00000   0.00000
  87       15F-2        0.00000   0.00000   0.00000  -0.00145  -0.09739
  88       15F+3        0.00000   0.00000   0.00000  -0.06218   0.00099
  89       15F-3        0.00008  -0.01442   0.00003   0.00000   0.00000
  90       16F 0        0.00527  -0.00008   0.00752   0.00000   0.00000
  91       16F+1        0.00000   0.00000   0.00000  -0.08086   0.00111
  92       16F-1       -0.00015   0.04031   0.00011   0.00000   0.00000
  93       16F+2        0.00038  -0.00027   0.00804   0.00000   0.00000
  94       16F-2        0.00000   0.00000   0.00000   0.00003   0.01137
  95       16F+3        0.00000   0.00000   0.00000  -0.01437   0.00015
  96       16F-3       -0.00004   0.01750   0.00009   0.00000   0.00000
  97 3   H  1S          0.00929   0.01689   0.14333   0.00000   0.00000
  98        2S          0.05399   0.26323  -0.10932   0.00000   0.00000
  99        3S         -0.30363  -1.37218   0.12712   0.00000   0.00000
 100        4S         -0.01991  -0.12901   0.00453   0.00000   0.00000
 101        5PX         0.00000   0.00000   0.00000  -0.00231  -0.09424
 102        5PY        -0.01820  -0.01432   0.02382   0.00000   0.00000
 103        5PZ         0.02933  -0.00465   0.06139   0.00000   0.00000
 104        6PX         0.00000   0.00000   0.00000  -0.09583  -0.20685
 105        6PY        -0.00805   0.08303  -0.01905   0.00000   0.00000
 106        6PZ         0.07119   0.15569   0.03305   0.00000   0.00000
 107        7PX         0.00000   0.00000   0.00000  -0.02303  -0.01446
 108        7PY        -0.02969  -0.25051  -0.03200   0.00000   0.00000
 109        7PZ        -0.04990  -0.10532   0.10988   0.00000   0.00000
 110        8D 0        0.01274  -0.00169   0.01334   0.00000   0.00000
 111        8D+1        0.00000   0.00000   0.00000   0.00179  -0.03503
 112        8D-1        0.01191  -0.00120   0.02087   0.00000   0.00000
 113        8D+2        0.01351  -0.00026  -0.00619   0.00000   0.00000
 114        8D-2        0.00000   0.00000   0.00000  -0.00520  -0.05046
 115        9D 0       -0.00572   0.00456   0.00061   0.00000   0.00000
 116        9D+1        0.00000   0.00000   0.00000  -0.04043   0.01270
 117        9D-1        0.01876   0.05200   0.00753   0.00000   0.00000
 118        9D+2       -0.00397  -0.02303  -0.01105   0.00000   0.00000
 119        9D-2        0.00000   0.00000   0.00000  -0.02838  -0.02370
 120 4   H  1S          0.00960  -0.01597   0.14612   0.00000   0.00000
 121        2S          0.05080  -0.26545  -0.11566   0.00000   0.00000
 122        3S         -0.31712   1.37394   0.11342   0.00000   0.00000
 123        4S         -0.02200   0.12895   0.00399   0.00000   0.00000
 124        5PX         0.00000   0.00000   0.00000   0.00087   0.09543
 125        5PY         0.01778  -0.01471  -0.02463   0.00000   0.00000
 126        5PZ         0.02991   0.00504   0.06140   0.00000   0.00000
 127        6PX         0.00000   0.00000   0.00000  -0.09071   0.20944
 128        6PY         0.00682   0.08347   0.01881   0.00000   0.00000
 129        6PZ         0.07111  -0.15427   0.03056   0.00000   0.00000
 130        7PX         0.00000   0.00000   0.00000  -0.02185   0.01536
 131        7PY         0.03139  -0.25255   0.03434   0.00000   0.00000
 132        7PZ        -0.05074   0.10263   0.11150   0.00000   0.00000
 133        8D 0        0.01238   0.00178   0.01285   0.00000   0.00000
 134        8D+1        0.00000   0.00000   0.00000   0.00301   0.03451
 135        8D-1       -0.01221  -0.00163  -0.02082   0.00000   0.00000
 136        8D+2        0.01329   0.00012  -0.00648   0.00000   0.00000
 137        8D-2        0.00000   0.00000   0.00000   0.00344  -0.05102
 138        9D 0       -0.00589  -0.00358   0.00092   0.00000   0.00000
 139        9D+1        0.00000   0.00000   0.00000  -0.04094  -0.01203
 140        9D-1       -0.01904   0.05136  -0.00732   0.00000   0.00000
 141        9D+2       -0.00444   0.02272  -0.01126   0.00000   0.00000
 142        9D-2        0.00000   0.00000   0.00000   0.02845  -0.02474
                          26        27        28        29        30
     Eigenvalues --     0.00602   0.00489   0.00464   0.00353   0.00234
   1 1   C  1S          0.03640  -0.00084   0.13005   0.00000  -0.01424
   2        2S         -0.12118   0.00343  -0.52222   0.00000   0.08008
   3        3S         -0.12458   0.00255  -0.41947   0.00000   0.04050
   4        4S          0.31021  -0.00238  -0.79742   0.00000   0.90472
   5        5S          0.08206   0.00249  -0.38346   0.00000   0.28536
   6        6PX         0.00000   0.00000   0.00000   0.12372   0.00000
   7        6PY        -0.00054  -0.05977   0.00101   0.00000  -0.00043
   8        6PZ         0.21614   0.00276  -0.39527   0.00000   0.03771
   9        7PX         0.00000   0.00000   0.00000   0.11584   0.00000
  10        7PY        -0.00306   0.08375   0.00107   0.00000   0.00506
  11        7PZ         0.27417   0.00380  -0.47227   0.00000   0.11648
  12        8PX         0.00000   0.00000   0.00000   0.43549   0.00000
  13        8PY        -0.00315   0.29020   0.00537   0.00000  -0.00669
  14        8PZ         0.62330   0.00738  -0.23853   0.00000  -0.07229
  15        9PX         0.00000   0.00000   0.00000   0.02195   0.00000
  16        9PY        -0.00013   0.00371   0.00078   0.00000  -0.00025
  17        9PZ         0.04609   0.00081  -0.09365   0.00000   0.01267
  18       10D 0        0.01807   0.00151  -0.18708   0.00000   0.07064
  19       10D+1        0.00000   0.00000   0.00000   0.32698   0.00000
  20       10D-1       -0.00085   0.27526   0.00292   0.00000   0.00189
  21       10D+2        0.20083   0.00017   0.05852   0.00000  -0.16216
  22       10D-2        0.00000   0.00000   0.00000  -0.00099   0.00000
  23       11D 0        0.10666   0.00483  -0.36654   0.00000   0.05314
  24       11D+1        0.00000   0.00000   0.00000   0.60516   0.00000
  25       11D-1       -0.00088   0.56714   0.00650   0.00000   0.00174
  26       11D+2        0.44092   0.00202   0.06994   0.00000  -0.36660
  27       11D-2        0.00000   0.00000   0.00000  -0.00084   0.00000
  28       12D 0        0.20176   0.00208   0.19445   0.00000  -0.26167
  29       12D+1        0.00000   0.00000   0.00000   0.13113   0.00000
  30       12D-1        0.00200   0.37166   0.00363   0.00000   0.00635
  31       12D+2        0.11380   0.00114   0.10381   0.00000  -0.28701
  32       12D-2        0.00000   0.00000   0.00000   0.00084   0.00000
  33       13F 0       -0.02995  -0.00036  -0.06179   0.00000  -0.10426
  34       13F+1        0.00000   0.00000   0.00000  -0.01379   0.00000
  35       13F-1        0.00029  -0.05905  -0.00009   0.00000   0.00190
  36       13F+2       -0.01701  -0.00018  -0.02850   0.00000  -0.19531
  37       13F-2        0.00000   0.00000   0.00000  -0.00054   0.00000
  38       13F+3        0.00000   0.00000   0.00000   0.05902   0.00000
  39       13F-3        0.00031   0.01162   0.00020   0.00000  -0.00045
  40       14F 0       -0.10438   0.00124  -0.11673   0.00000  -0.11041
  41       14F+1        0.00000   0.00000   0.00000   0.04701   0.00000
  42       14F-1        0.00186  -0.00176   0.00041   0.00000   0.00079
  43       14F+2       -0.05767   0.00124  -0.08762   0.00000  -0.20024
  44       14F-2        0.00000   0.00000   0.00000  -0.00041   0.00000
  45       14F+3        0.00000   0.00000   0.00000   0.02245   0.00000
  46       14F-3        0.00038   0.05363  -0.00017   0.00000  -0.00053
  47 2   S  1S          0.05131   0.00001   0.00471   0.00000   0.00607
  48        2S         -0.16207  -0.00027  -0.01660   0.00000  -0.02509
  49        3S          0.69947  -0.00019   0.04950   0.00000   0.11256
  50        4S          0.50904   0.00084  -0.02073   0.00000   0.16249
  51        5S         -2.01204  -0.01354   0.70363   0.00000  -0.32699
  52        6S         -0.36209  -0.00652   0.69719   0.00000  -0.23323
  53        7PX         0.00000   0.00000   0.00000   0.17155   0.00000
  54        7PY        -0.00032  -0.06456  -0.00021   0.00000   0.00020
  55        7PZ        -0.17366  -0.00054  -0.00405   0.00000  -0.08076
  56        8PX         0.00000   0.00000   0.00000  -0.28729   0.00000
  57        8PY        -0.00021  -0.03517  -0.00116   0.00000  -0.00086
  58        8PZ         0.22955   0.00402  -0.35653   0.00000  -0.03225
  59        9PX         0.00000   0.00000   0.00000  -0.34007   0.00000
  60        9PY         0.00062   0.16253   0.00068   0.00000  -0.00043
  61        9PZ         0.34318   0.00099   0.03241   0.00000   0.16960
  62       10PX         0.00000   0.00000   0.00000  -0.02131   0.00000
  63       10PY        -0.00285  -0.98863  -0.00900   0.00000  -0.00327
  64       10PZ         0.30477   0.00857  -0.99969   0.00000   0.35427
  65       11PX         0.00000   0.00000   0.00000  -0.00232   0.00000
  66       11PY        -0.00027  -0.06355  -0.00057   0.00000   0.00008
  67       11PZ         0.02033   0.00095  -0.10247   0.00000   0.04282
  68       12D 0       -0.18788  -0.00518   0.66854   0.00000  -0.13510
  69       12D+1        0.00000   0.00000   0.00000   0.45906   0.00000
  70       12D-1        0.00030   0.46709   0.00506   0.00000   0.00172
  71       12D+2       -0.04217   0.00000  -0.04472   0.00000   0.14489
  72       12D-2        0.00000   0.00000   0.00000   0.00059   0.00000
  73       13D 0       -0.13949  -0.00303   0.38282   0.00000  -0.03108
  74       13D+1        0.00000   0.00000   0.00000   0.31023   0.00000
  75       13D-1       -0.00036   0.33272   0.00248   0.00000  -0.00023
  76       13D+2       -0.14796   0.00060  -0.08808   0.00000   0.17964
  77       13D-2        0.00000   0.00000   0.00000   0.00053   0.00000
  78       14D 0       -0.09578  -0.00212   0.29071   0.00000  -0.11259
  79       14D+1        0.00000   0.00000   0.00000   0.11152   0.00000
  80       14D-1        0.00083   0.23877   0.00304   0.00000   0.00205
  81       14D+2        0.01849  -0.00016  -0.00497   0.00000   0.03595
  82       14D-2        0.00000   0.00000   0.00000  -0.00016   0.00000
  83       15F 0       -0.01540  -0.00104   0.15252   0.00000   0.13593
  84       15F+1        0.00000   0.00000   0.00000   0.10610   0.00000
  85       15F-1       -0.00026   0.16570   0.00134   0.00000   0.00321
  86       15F+2       -0.05987   0.00036  -0.04196   0.00000   0.37967
  87       15F-2        0.00000   0.00000   0.00000   0.00053   0.00000
  88       15F+3        0.00000   0.00000   0.00000   0.01733   0.00000
  89       15F-3        0.00004  -0.01630  -0.00016   0.00000  -0.00019
  90       16F 0        0.03757   0.00085  -0.11090   0.00000   0.07407
  91       16F+1        0.00000   0.00000   0.00000  -0.08175   0.00000
  92       16F-1        0.00000  -0.07104  -0.00128   0.00000   0.00018
  93       16F+2        0.01279   0.00056  -0.03214   0.00000   0.04981
  94       16F-2        0.00000   0.00000   0.00000   0.00002   0.00000
  95       16F+3        0.00000   0.00000   0.00000  -0.01775   0.00000
  96       16F-3        0.00003  -0.00820  -0.00013   0.00000  -0.00025
  97 3   H  1S         -0.10159   0.22326  -0.08752   0.00000  -0.29695
  98        2S          0.41500  -0.27260   0.04593   0.00000  -0.12818
  99        3S          0.45876  -0.73288   0.03661   0.00000  -0.14485
 100        4S          0.01148  -0.01975  -0.01678   0.00000  -0.01164
 101        5PX         0.00000   0.00000   0.00000  -0.09402   0.00000
 102        5PY        -0.03085   0.10294  -0.02955   0.00000  -0.03567
 103        5PZ        -0.05963   0.00372   0.02605   0.00000  -0.01736
 104        6PX         0.00000   0.00000   0.00000  -0.13551   0.00000
 105        6PY         0.06109   0.08369  -0.06390   0.00000  -0.00909
 106        6PZ         0.00911  -0.05845   0.03792   0.00000  -0.08282
 107        7PX         0.00000   0.00000   0.00000  -0.00737   0.00000
 108        7PY         0.02139  -0.05878  -0.09949   0.00000   0.13181
 109        7PZ         0.12469   0.03713   0.09015   0.00000  -0.13174
 110        8D 0       -0.01486  -0.02222   0.00741   0.00000   0.00122
 111        8D+1        0.00000   0.00000   0.00000  -0.01561   0.00000
 112        8D-1       -0.01819   0.01227   0.00740   0.00000  -0.02238
 113        8D+2        0.01118  -0.03009   0.02015   0.00000   0.00717
 114        8D-2        0.00000   0.00000   0.00000  -0.05133   0.00000
 115        9D 0       -0.00436  -0.01942  -0.01721   0.00000  -0.01309
 116        9D+1        0.00000   0.00000   0.00000   0.00008   0.00000
 117        9D-1        0.01630   0.02233   0.01321   0.00000  -0.00155
 118        9D+2        0.02534  -0.03183   0.03292   0.00000  -0.01162
 119        9D-2        0.00000   0.00000   0.00000   0.01110   0.00000
 120 4   H  1S         -0.10326  -0.22211  -0.08981   0.00000  -0.29355
 121        2S          0.42390   0.27996   0.05109   0.00000  -0.12960
 122        3S          0.47370   0.74209   0.04346   0.00000  -0.12884
 123        4S          0.01203   0.02023  -0.01763   0.00000  -0.01146
 124        5PX         0.00000   0.00000   0.00000  -0.09443   0.00000
 125        5PY         0.03140   0.10256   0.03077   0.00000   0.03602
 126        5PZ        -0.05969  -0.00207   0.02644   0.00000  -0.01605
 127        6PX         0.00000   0.00000   0.00000  -0.13404   0.00000
 128        6PY        -0.06289   0.08107   0.06236   0.00000   0.01106
 129        6PZ         0.01053   0.06049   0.03668   0.00000  -0.08441
 130        7PX         0.00000   0.00000   0.00000  -0.00855   0.00000
 131        7PY        -0.02488  -0.06045   0.09811   0.00000  -0.13568
 132        7PZ         0.12423  -0.03645   0.08816   0.00000  -0.13149
 133        8D 0       -0.01461   0.02254   0.00698   0.00000   0.00185
 134        8D+1        0.00000   0.00000   0.00000  -0.01486   0.00000
 135        8D-1        0.01810   0.01125  -0.00739   0.00000   0.02234
 136        8D+2        0.01134   0.02984   0.02033   0.00000   0.00763
 137        8D-2        0.00000   0.00000   0.00000   0.05144   0.00000
 138        9D 0       -0.00483   0.02070  -0.01737   0.00000  -0.01287
 139        9D+1        0.00000   0.00000   0.00000  -0.00005   0.00000
 140        9D-1       -0.01711   0.02246  -0.01381   0.00000   0.00233
 141        9D+2        0.02502   0.03169   0.03293   0.00000  -0.01102
 142        9D-2        0.00000   0.00000   0.00000  -0.01141   0.00000
                          31        32        33        34        35
     Eigenvalues --     0.00207   0.00195   0.00194   0.00186   0.00154
   1 1   C  1S         -0.00114   0.00000   0.04374  -0.00029   0.00000
   2        2S          0.00528   0.00000  -0.19210   0.00158   0.00000
   3        3S          0.00494   0.00000  -0.18377   0.00083   0.00000
   4        4S         -0.00267   0.00000   0.13191   0.00806   0.00000
   5        5S          0.00080   0.00000   0.00936  -0.00125   0.00000
   6        6PX         0.00000  -0.00212   0.00000   0.00000  -0.33904
[...]
 137        8D-2        0.00000   0.00000   0.17265   0.00000   0.00000
 138        9D 0        0.67696   0.92761   0.00000   0.25651   1.36164
 139        9D+1        0.00000   0.00000  -0.04874   0.00000   0.00000
 140        9D-1        0.13432  -0.66601   0.00000  -1.20981  -0.38899
 141        9D+2        0.21338  -0.17970   0.00000   0.46573   1.39486
 142        9D-2        0.00000   0.00000  -1.13477   0.00000   0.00000
                         136       137       138       139       140
     Eigenvalues --     0.00000   0.00000   0.00000   0.00000   0.00000
   1 1   C  1S         -0.00997   0.42340   0.00000  -0.07084  -0.07831
   2        2S         -0.05810   2.48467   0.00000  -0.37998  -0.44068
   3        3S          0.00353  -0.09606   0.00000   0.05427   0.02074
   4        4S         -0.37125  25.72145   0.00000 -17.69624  -3.62037
   5        5S         -0.36814  16.64041   0.00000  -2.35663   4.65718
   6        6PX         0.00000   0.00000  -0.02081   0.00000   0.00000
   7        6PY        -0.04133  -0.00107   0.00000   0.00050  -0.00007
   8        6PZ        -0.00209   0.05292   0.00000   0.01829   0.01138
   9        7PX         0.00000   0.00000   0.35817   0.00000   0.00000
  10        7PY         2.96257   0.14384   0.00000  -0.02348  -0.00862
  11        7PZ         0.05984  -2.08480   0.00000   0.27145   0.32493
  12        8PX         0.00000   0.00000   0.01066   0.00000   0.00000
  13        8PY        16.92555   0.63296   0.00000  -0.06044  -0.07579
  14        8PZ         0.28783  -8.30442   0.00000   0.34894   9.08416
  15        9PX         0.00000   0.00000  -2.90152   0.00000   0.00000
  16        9PY         6.54722   0.21591   0.00000  -0.04341  -0.01516
  17        9PZ         0.07049  -0.77436   0.00000  -1.74763   5.73677
  18       10D 0       -0.00056  -0.00138   0.00000   0.00277  -0.01181
  19       10D+1        0.00000   0.00000  -0.00049   0.00000   0.00000
  20       10D-1       -0.08668  -0.00475   0.00000   0.00061   0.00014
  21       10D+2        0.00445  -0.14837   0.00000   0.00682   0.01141
  22       10D-2        0.00000   0.00000  -0.00041   0.00000   0.00000
  23       11D 0       -0.02528   0.10885   0.00000  -0.28233   0.23447
  24       11D+1        0.00000   0.00000  -0.28474   0.00000   0.00000
  25       11D-1       -1.76892  -0.05545   0.00000   0.00554  -0.00101
  26       11D+2        0.00012  -1.19713   0.00000   0.53115   0.33713
  27       11D-2        0.00000   0.00000   0.00750   0.00000   0.00000
  28       12D 0       -0.19387   3.88843   0.00000   0.90288   1.88209
  29       12D+1        0.00000   0.00000  -2.65318   0.00000   0.00000
  30       12D-1       -7.06245  -0.20538   0.00000   0.02043  -0.00914
  31       12D+2       -0.07302   0.85236   0.00000   1.03020   0.99408
  32       12D-2        0.00000   0.00000   0.01207   0.00000   0.00000
  33       13F 0       -0.00299   0.09605   0.00000   0.01705  -0.00217
  34       13F+1        0.00000   0.00000   0.01574   0.00000   0.00000
  35       13F-1        0.06632  -0.00014   0.00000  -0.00127  -0.00043
  36       13F+2       -0.00403   0.13474   0.00000  -0.02536  -0.01775
  37       13F-2        0.00000   0.00000  -0.00007   0.00000   0.00000
  38       13F+3        0.00000   0.00000  -0.00500   0.00000   0.00000
  39       13F-3       -0.07066  -0.00317   0.00000   0.00041  -0.00004
  40       14F 0        0.01484  -0.18281   0.00000  -0.63321  -0.03112
  41       14F+1        0.00000   0.00000   0.02085   0.00000   0.00000
  42       14F-1       -0.38052  -0.01598   0.00000   0.01786   0.00500
  43       14F+2        0.00398   0.25493   0.00000  -0.25155  -0.11446
  44       14F-2        0.00000   0.00000  -0.00250   0.00000   0.00000
  45       14F+3        0.00000   0.00000  -0.01800   0.00000   0.00000
  46       14F-3       -0.17018  -0.01241   0.00000   0.00248   0.00179
  47 2   S  1S         -0.00051   0.01514   0.00000   0.01346   0.00283
  48        2S         -0.00720   0.19977   0.00000   0.20898   0.02180
  49        3S         -0.02180   0.63162   0.00000   0.58967   0.11136
  50        4S         -0.00022   0.03223   0.00000  -0.08631   0.10147
  51        5S          0.13127  -2.94806   0.00000   1.90941  -5.67474
  52        6S          0.14632  -9.78963   0.00000  -2.62779 -15.98911
  53        7PX         0.00000   0.00000   0.00400   0.00000   0.00000
  54        7PY        -0.00596  -0.00028   0.00000  -0.00025   0.00005
  55        7PZ        -0.00025  -0.00261   0.00000  -0.04205  -0.00498
  56        8PX         0.00000   0.00000  -0.01987   0.00000   0.00000
  57        8PY        -0.07877  -0.00317   0.00000  -0.00579   0.00036
  58        8PZ         0.00170  -0.22383   0.00000  -1.04283   0.03405
  59        9PX         0.00000   0.00000  -0.01962   0.00000   0.00000
  60        9PY         0.03139   0.00158   0.00000   0.00056  -0.00031
  61        9PZ         0.00217  -0.03538   0.00000   0.08486   0.02921
  62       10PX         0.00000   0.00000   2.17097   0.00000   0.00000
  63       10PY         4.12241   0.09072   0.00000  -0.04510   0.00188
  64       10PZ        -0.05513   3.85271   0.00000   0.40881   6.61713
  65       11PX         0.00000   0.00000   2.74545   0.00000   0.00000
  66       11PY        -0.57200  -0.02661   0.00000  -0.00069  -0.00081
  67       11PZ        -0.04754   2.83285   0.00000   2.75165   2.26790
  68       12D 0        0.00739  -0.31916   0.00000   0.67705  -0.29345
  69       12D+1        0.00000   0.00000   0.12135   0.00000   0.00000
  70       12D-1       -0.31252  -0.00526   0.00000   0.01051  -0.00016
  71       12D+2        0.00000  -0.05650   0.00000   0.02278  -0.02275
  72       12D-2        0.00000   0.00000  -0.00003   0.00000   0.00000
  73       13D 0       -0.00143   0.06430   0.00000  -0.05013   0.02447
  74       13D+1        0.00000   0.00000  -0.04648   0.00000   0.00000
  75       13D-1       -0.00701  -0.00025   0.00000  -0.00011   0.00015
  76       13D+2       -0.00026   0.01695   0.00000   0.00138   0.00833
  77       13D-2        0.00000   0.00000   0.00009   0.00000   0.00000
  78       14D 0        0.00776  -1.46285   0.00000  -1.16622  -1.52388
  79       14D+1        0.00000   0.00000  -1.87448   0.00000   0.00000
  80       14D-1       -1.91914  -0.03892   0.00000   0.02422   0.00247
  81       14D+2       -0.00224   0.21475   0.00000   0.22064  -0.05549
  82       14D-2        0.00000   0.00000  -0.00067   0.00000   0.00000
  83       15F 0        0.00049  -0.05678   0.00000  -0.03483  -0.01625
  84       15F+1        0.00000   0.00000  -0.02607   0.00000   0.00000
  85       15F-1        0.00364  -0.00039   0.00000  -0.00015   0.00016
  86       15F+2       -0.00003   0.01106   0.00000   0.01284  -0.00925
  87       15F-2        0.00000   0.00000  -0.00003   0.00000   0.00000
  88       15F+3        0.00000   0.00000   0.00455   0.00000   0.00000
  89       15F-3        0.02820   0.00084   0.00000  -0.00021  -0.00018
  90       16F 0       -0.00535   0.38158   0.00000  -0.01343   0.13417
  91       16F+1        0.00000   0.00000   0.23055   0.00000   0.00000
  92       16F-1        0.29192   0.00578   0.00000  -0.00664  -0.00083
  93       16F+2        0.00348  -0.12808   0.00000  -0.11867   0.03887
  94       16F-2        0.00000   0.00000   0.00007   0.00000   0.00000
  95       16F+3        0.00000   0.00000  -0.01575   0.00000   0.00000
  96       16F-3       -0.08093  -0.00179   0.00000   0.00055   0.00058
  97 3   H  1S         -0.05384   0.10016   0.00000  -0.01844  -0.01669
  98        2S          3.74633  -3.59528   0.00000   1.49755   0.93557
  99        3S         29.85323 -10.88185   0.00000   9.19305   8.08410
 100        4S          5.34953  -1.13352   0.00000   0.53551   2.12251
 101        5PX         0.00000   0.00000   0.07512   0.00000   0.00000
 102        5PY        -0.11492   0.06519   0.00000  -0.03418  -0.02798
 103        5PZ        -0.07540   0.03717   0.00000   0.00110  -0.01649
 104        6PX         0.00000   0.00000  -0.38873   0.00000   0.00000
 105        6PY         1.81005  -2.01695   0.00000   0.61390   0.41648
 106        6PZ         1.44666  -0.87515   0.00000   0.37454   0.24482
 107        7PX         0.00000   0.00000  -0.94928   0.00000   0.00000
 108        7PY         5.20843  -4.93680   0.00000   1.96130   1.64870
 109        7PZ         3.34862   2.50098   0.00000   3.79437   1.09395
 110        8D 0       -0.03257  -0.03578   0.00000  -0.01381   0.01027
 111        8D+1        0.00000   0.00000  -0.00651   0.00000   0.00000
 112        8D-1        0.05731  -0.17067   0.00000  -0.02406   0.01360
 113        8D+2       -0.12896   0.11762   0.00000   0.01629  -0.01527
 114        8D-2        0.00000   0.00000   0.07397   0.00000   0.00000
 115        9D 0        0.20121   0.51725   0.00000  -0.00104  -0.08193
 116        9D+1        0.00000   0.00000   0.02129   0.00000   0.00000
 117        9D-1        0.87008   0.03042   0.00000   0.54109   0.08379
 118        9D+2        0.09287   0.61247   0.00000  -0.15209  -0.05908
 119        9D-2        0.00000   0.00000  -0.50238   0.00000   0.00000
 120 4   H  1S          0.04809   0.10339   0.00000  -0.01811  -0.01657
 121        2S         -3.70493  -3.92627   0.00000   1.53966   0.95386
 122        3S        -29.42340 -12.85727   0.00000   9.48264   8.27298
 123        4S         -5.27099  -1.48376   0.00000   0.63652   2.13631
 124        5PX         0.00000   0.00000   0.07546   0.00000   0.00000
 125        5PY        -0.10860  -0.06800   0.00000   0.03347   0.02746
 126        5PZ         0.07223   0.03917   0.00000   0.00055  -0.01618
 127        6PX         0.00000   0.00000  -0.39851   0.00000   0.00000
 128        6PY         1.71500   2.15419   0.00000  -0.62472  -0.41913
 129        6PZ        -1.40867  -0.97512   0.00000   0.39464   0.25034
 130        7PX         0.00000   0.00000  -0.97999   0.00000   0.00000
 131        7PY         4.89222   5.28207   0.00000  -1.99780  -1.67657
 132        7PZ        -3.49182   2.29192   0.00000   3.85180   1.13246
 133        8D 0        0.03604  -0.03112   0.00000  -0.01497   0.00888
 134        8D+1        0.00000   0.00000  -0.00672   0.00000   0.00000
 135        8D-1        0.04786   0.17627   0.00000   0.02404  -0.01293
 136        8D+2        0.12435   0.12882   0.00000   0.01388  -0.01614
 137        8D-2        0.00000   0.00000  -0.07301   0.00000   0.00000
 138        9D 0       -0.22835   0.49211   0.00000   0.00517  -0.07403
 139        9D+1        0.00000   0.00000   0.01891   0.00000   0.00000
 140        9D-1        0.86923   0.01730   0.00000  -0.55525  -0.08940
 141        9D+2       -0.14662   0.60795   0.00000  -0.14497  -0.05533
 142        9D-2        0.00000   0.00000   0.51027   0.00000   0.00000
                         141       142
     Eigenvalues --     0.00000   0.00000
   1 1   C  1S          0.00011  -0.00260
   2        2S          0.00168  -0.00232
   3        3S          0.00307   0.04560
   4        4S          0.51839   8.15774
   5        5S          0.99677  16.08948
   6        6PX         0.00000   0.00000
   7        6PY        -0.00768   0.00022
   8        6PZ         0.00012   0.00401
   9        7PX         0.00000   0.00000
  10        7PY        -0.16358   0.01962
  11        7PZ        -0.00568  -0.07086
  12        8PX         0.00000   0.00000
  13        8PY        -5.04835   0.32292
  14        8PZ         0.04709   1.13662
  15        9PX         0.00000   0.00000
  16        9PY        -5.24621   0.33662
  17        9PZ         0.05116   1.20535
  18       10D 0        0.00058   0.00941
  19       10D+1        0.00000   0.00000
  20       10D-1       -0.01471   0.00047
  21       10D+2       -0.00090  -0.01270
  22       10D-2        0.00000   0.00000
  23       11D 0       -0.00546  -0.08559
  24       11D+1        0.00000   0.00000
  25       11D-1        0.12980  -0.01543
  26       11D+2        0.00040   0.01463
  27       11D-2        0.00000   0.00000
  28       12D 0        0.03089   0.42184
  29       12D+1        0.00000   0.00000
  30       12D-1       -0.94031   0.01456
  31       12D+2       -0.02196  -0.37035
  32       12D-2        0.00000   0.00000
  33       13F 0       -0.00079  -0.01188
  34       13F+1        0.00000   0.00000
  35       13F-1        0.00463  -0.00001
  36       13F+2       -0.00032  -0.00511
  37       13F-2        0.00000   0.00000
  38       13F+3        0.00000   0.00000
  39       13F-3        0.00381  -0.00072
  40       14F 0        0.00056   0.02276
  41       14F+1        0.00000   0.00000
  42       14F-1       -0.09797   0.00561
  43       14F+2       -0.00364  -0.04411
  44       14F-2        0.00000   0.00000
  45       14F+3        0.00000   0.00000
  46       14F-3       -0.01339   0.00113
  47 2   S  1S          0.00022   0.00306
  48        2S          0.00329   0.04742
  49        3S          0.00942   0.13390
  50        4S         -0.00078  -0.01494
  51        5S         -0.11485  -1.73908
  52        6S         -0.54186  -8.69302
  53        7PX         0.00000   0.00000
  54        7PY        -0.00564   0.00034
  55        7PZ        -0.00018  -0.00285
  56        8PX         0.00000   0.00000
  57        8PY        -0.04818   0.00307
  58        8PZ        -0.00305  -0.04553
  59        9PX         0.00000   0.00000
  60        9PY         0.02450  -0.00147
  61        9PZ         0.00069   0.01209
  62       10PX         0.00000   0.00000
  63       10PY         1.29135  -0.04616
  64       10PZ         0.14803   2.29692
  65       11PX         0.00000   0.00000
  66       11PY         0.51475  -0.02715
  67       11PZ         0.14083   2.30377
  68       12D 0       -0.00335  -0.04553
  69       12D+1        0.00000   0.00000
  70       12D-1       -0.08178   0.00202
  71       12D+2        0.00241   0.03370
  72       12D-2        0.00000   0.00000
  73       13D 0        0.00061   0.00732
  74       13D+1        0.00000   0.00000
  75       13D-1        0.00212   0.00012
  76       13D+2       -0.00050  -0.00783
  77       13D-2        0.00000   0.00000
  78       14D 0       -0.03779  -0.63604
  79       14D+1        0.00000   0.00000
  80       14D-1       -0.44269   0.01398
  81       14D+2       -0.00452  -0.07898
  82       14D-2        0.00000   0.00000
  83       15F 0       -0.00085  -0.01542
  84       15F+1        0.00000   0.00000
  85       15F-1       -0.00036   0.00004
  86       15F+2       -0.00054  -0.00606
  87       15F-2        0.00000   0.00000
  88       15F+3        0.00000   0.00000
  89       15F-3       -0.00346   0.00006
  90       16F 0        0.00338   0.06557
  91       16F+1        0.00000   0.00000
  92       16F-1        0.03734  -0.00069
  93       16F+2        0.00086   0.01276
  94       16F-2        0.00000   0.00000
  95       16F+3        0.00000   0.00000
  96       16F-3        0.02118  -0.00082
  97 3   H  1S         -0.01398  -0.01245
  98        2S         -0.03061   0.18413
  99        3S         -8.59558  -4.32707
 100        4S         -8.31749  -1.90590
 101        5PX         0.00000   0.00000
 102        5PY         0.02162   0.00709
 103        5PZ         0.00665   0.01549
 104        6PX         0.00000   0.00000
 105        6PY        -0.26655  -0.07412
 106        6PZ        -0.09354  -0.14778
 107        7PX         0.00000   0.00000
 108        7PY        -2.63892  -1.00259
 109        7PZ        -2.37836  -0.86031
 110        8D 0        0.00783   0.00597
 111        8D+1        0.00000   0.00000
 112        8D-1        0.01268   0.01089
 113        8D+2       -0.02564   0.00052
 114        8D-2        0.00000   0.00000
 115        9D 0       -0.01837  -0.04665
 116        9D+1        0.00000   0.00000
 117        9D-1       -0.20119  -0.18703
 118        9D+2        0.24468   0.05989
 119        9D-2        0.00000   0.00000
 120 4   H  1S          0.01223  -0.01286
 121        2S          0.05590   0.14451
 122        3S          7.97940  -5.47379
 123        4S          8.01565  -2.97191
 124        5PX         0.00000   0.00000
 125        5PY         0.02028  -0.00970
 126        5PZ        -0.00434   0.01595
 127        6PX         0.00000   0.00000
 128        6PY        -0.25203   0.11811
 129        6PZ         0.06891  -0.16222
 130        7PX         0.00000   0.00000
 131        7PY        -2.48478   1.34298
 132        7PZ         2.23122  -1.10560
 133        8D 0       -0.00662   0.00643
 134        8D+1        0.00000   0.00000
 135        8D-1        0.01085  -0.01104
 136        8D+2        0.02533  -0.00154
 137        8D-2        0.00000   0.00000
 138        9D 0        0.00878  -0.04059
 139        9D+1        0.00000   0.00000
 140        9D-1       -0.16899   0.20860
 141        9D+2       -0.23299   0.08882
 142        9D-2        0.00000   0.00000
          Condensed to atoms (all electrons):
              1          2          3          4
     1  C    6.189764   0.274747   0.182963   0.183062
     2  S    0.274747  16.030290  -0.118580  -0.120396
     3  H    0.182963  -0.118580   0.651901  -0.161651
     4  H    0.183062  -0.120396  -0.161651   0.647755
 Mulliken atomic charges:
              1
     1  C   -0.830535
     2  S   -0.066061
     3  H    0.445366
     4  H    0.451230
 Sum of Mulliken atomic charges =   0.00000
 Mulliken charges with hydrogens summed into heavy atoms:
              1
     1  C    0.066061
     2  S   -0.066061
 Sum of Mulliken charges with hydrogens summed into heavy atoms =   0.00000
 Electronic spatial extent (au):  <R**2>=            130.2056
 Charge=              0.0000 electrons
 Dipole moment (field-independent basis, Debye):
    X=              0.0000    Y=              0.0025    Z=             -1.7549  Tot=              1.7549
 Quadrupole moment (field-independent basis, Debye-Ang):
   XX=            -19.9731   YY=            -20.5635   ZZ=            -18.9893
   XY=              0.0000   XZ=              0.0000   YZ=              0.0088
 Traceless Quadrupole moment (field-independent basis, Debye-Ang):
   XX=             -0.1311   YY=             -0.7215   ZZ=              0.8526
   XY=              0.0000   XZ=              0.0000   YZ=              0.0088
 Octapole moment (field-independent basis, Debye-Ang**2):
  XXX=              0.0000  YYY=              0.0157  ZZZ=            -27.7113  XYY=              0.0000
  XXY=              0.0053  XXZ=             -8.5785  XZZ=              0.0000  YZZ=             -0.0060
  YYZ=            -13.1543  XYZ=              0.0000
 Hexadecapole moment (field-independent basis, Debye-Ang**3):
 XXXX=            -25.3129 YYYY=            -35.0758 ZZZZ=           -127.3184 XXXY=              0.0000
 XXXZ=              0.0000 YYYX=              0.0000 YYYZ=             -0.0200 ZZZX=              0.0000
 ZZZY=              0.0203 XXYY=            -10.4955 XXZZ=            -25.3095 YYZZ=            -29.5496
 XXYZ=             -0.0113 YYXZ=              0.0000 ZZXY=              0.0000
 N-N= 4.473204625485D+01 E-N=-1.127426713626D+03  KE= 4.368753297034D+02
 1\1\GINC-TRAPISTA\SP\RQCISD-FC\Aug-CC-pVTZ\C1H2S1\BRUNS\17-Nov-2021\0\
 \# qcisd/aug-cc-pvtz nosymm density=current output=wfn\\h2cs-wavefunct
 ion\\0,1\C,0,0.,0.,-0.555291\S,0,0.,0.,1.060374\H,0,0.,-0.92228,-1.128
 992\H,0,0.,0.92228,-1.118992\\Version=EM64L-G09RevB.01\HF=-436.5576323
 \MP2=-436.8984399\MP3=-436.9212679\MP4D=-436.9312723\MP4DQ=-436.919613
 5\MP4SDQ=-436.923088\QCISD=-436.923492\RMSD=6.581e-09\Dipole=0.,0.0009
 861,-0.6904181\Quadrupole=-0.0974647,-0.5364482,0.6339129,0.,0.,0.0065
 238\PG=CS [SG(C1H2S1)]\\@

 Writing a WFN file to GAUSSIAN.wfn.


 QUHEN THE CAUSS IS TAKEN AWAY THE EFFECT WANISHETH.
 -- PROVERBS AND REASONS OF THE YEAR 1585
           AS REPRINTED IN PAISLEY MAGAZINE 1828.
 Job cpu time:  0 days  0 hours 26 minutes 59.3 seconds.
 File lengths (MBytes):  RWF=   5923 Int=      0 D2E=      0 Chk=      2 Scr=      1
 Normal termination of Gaussian 09 at Wed Nov 17 18:21:44 2021.
