 h2cs-wavefunction
GAUSSIAN            142 MOL ORBITALS    240 PRIMITIVES        4 NUCLEI
  C    1    (CENTRE  1)   0.00000000  0.00000000 -1.04934791  CHARGE =  6.0
  S    2    (CENTRE  2)   0.01889726  0.00000000  2.00381646  CHARGE = 16.0
  H    3    (CENTRE  3)   0.00000000 -1.74285662 -2.13348569  CHARGE =  1.0
  H    4    (CENTRE  4)   0.00000000  1.74285662 -2.13348569  CHARGE =  1.0
CENTRE ASSIGNMENTS    1  1  1  1  1  1  1  1  1  1  1  1  1  1  1  1  1  1  1  1
CENTRE ASSIGNMENTS    1  1  1  1  1  1  1  1  1  1  1  1  1  1  1  1  1  1  1  1
CENTRE ASSIGNMENTS    1  1  1  1  1  1  1  1  1  1  1  1  1  1  1  1  1  1  1  1
CENTRE ASSIGNMENTS    1  1  1  1  1  1  1  1  1  1  1  1  2  2  2  2  2  2  2  2
CENTRE ASSIGNMENTS    2  2  2  2  2  2  2  2  2  2  2  2  2  2  2  2  2  2  2  2
CENTRE ASSIGNMENTS    2  2  2  2  2  2  2  2  2  2  2  2  2  2  2  2  2  2  2  2
CENTRE ASSIGNMENTS    2  2  2  2  2  2  2  2  2  2  2  2  2  2  2  2  2  2  2  2
CENTRE ASSIGNMENTS    2  2  2  2  2  2  2  2  2  2  2  2  2  2  2  2  2  2  2  2
CENTRE ASSIGNMENTS    2  2  2  2  2  2  2  2  2  2  2  2  2  2  2  2  2  2  2  2
CENTRE ASSIGNMENTS    2  2  2  2  2  2  3  3  3  3  3  3  3  3  3  3  3  3  3  3
CENTRE ASSIGNMENTS    3  3  3  3  3  3  3  3  3  3  3  3  3  4  4  4  4  4  4  4
CENTRE ASSIGNMENTS    4  4  4  4  4  4  4  4  4  4  4  4  4  4  4  4  4  4  4  4
TYPE ASSIGNMENTS      1  1  1  1  1  1  1  1  1  1  1  1  1  1  1  1  2  2  2  3
TYPE ASSIGNMENTS      3  3  4  4  4  2  3  4  2  3  4  2  3  4  5  6  7  8  9 10
TYPE ASSIGNMENTS      5  6  7  8  9 10  5  6  7  8  9 10 11 12 13 17 14 15 18 19
TYPE ASSIGNMENTS     16 20 11 12 13 17 14 15 18 19 16 20  1  1  1  1  1  1  1  1
TYPE ASSIGNMENTS      1  1  1  1  1  1  1  1  1  1  1  1  1  1  1  1  1  1  1  1
TYPE ASSIGNMENTS      1  1  1  2  2  2  2  2  2  3  3  3  3  3  3  4  4  4  4  4
TYPE ASSIGNMENTS      4  2  2  2  2  2  2  3  3  3  3  3  3  4  4  4  4  4  4  2
TYPE ASSIGNMENTS      3  4  2  3  4  2  3  4  5  6  7  8  9 10  5  6  7  8  9 10
TYPE ASSIGNMENTS      5  6  7  8  9 10 11 12 13 17 14 15 18 19 16 20 11 12 13 17
TYPE ASSIGNMENTS     14 15 18 19 16 20  1  1  1  1  1  1  2  3  4  2  3  4  2  3
TYPE ASSIGNMENTS      4  5  6  7  8  9 10  5  6  7  8  9 10  1  1  1  1  1  1  2
TYPE ASSIGNMENTS      3  4  2  3  4  2  3  4  5  6  7  8  9 10  5  6  7  8  9 10
EXPONENTS  0.8236000D+04 0.1235000D+04 0.2808000D+03 0.7927000D+02 0.2559000D+02
EXPONENTS  0.8997000D+01 0.3319000D+01 0.2808000D+03 0.7927000D+02 0.2559000D+02
EXPONENTS  0.8997000D+01 0.3319000D+01 0.3643000D+00 0.9059000D+00 0.1285000D+00
EXPONENTS  0.4402000D-01 0.1871000D+02 0.4133000D+01 0.1200000D+01 0.1871000D+02
EXPONENTS  0.4133000D+01 0.1200000D+01 0.1871000D+02 0.4133000D+01 0.1200000D+01
EXPONENTS  0.3827000D+00 0.3827000D+00 0.3827000D+00 0.1209000D+00 0.1209000D+00
EXPONENTS  0.1209000D+00 0.3569000D-01 0.3569000D-01 0.3569000D-01 0.1097000D+01
EXPONENTS  0.1097000D+01 0.1097000D+01 0.1097000D+01 0.1097000D+01 0.1097000D+01
EXPONENTS  0.3180000D+00 0.3180000D+00 0.3180000D+00 0.3180000D+00 0.3180000D+00
EXPONENTS  0.3180000D+00 0.1000000D+00 0.1000000D+00 0.1000000D+00 0.1000000D+00
EXPONENTS  0.1000000D+00 0.1000000D+00 0.7610000D+00 0.7610000D+00 0.7610000D+00
EXPONENTS  0.7610000D+00 0.7610000D+00 0.7610000D+00 0.7610000D+00 0.7610000D+00
EXPONENTS  0.7610000D+00 0.7610000D+00 0.2680000D+00 0.2680000D+00 0.2680000D+00
EXPONENTS  0.2680000D+00 0.2680000D+00 0.2680000D+00 0.2680000D+00 0.2680000D+00
EXPONENTS  0.2680000D+00 0.2680000D+00 0.3741000D+06 0.5605000D+05 0.1276000D+05
EXPONENTS  0.3615000D+04 0.1183000D+04 0.4288000D+03 0.1678000D+03 0.6947000D+02
EXPONENTS  0.2984000D+02 0.1272000D+02 0.5244000D+01 0.3615000D+04 0.1183000D+04
EXPONENTS  0.4288000D+03 0.1678000D+03 0.6947000D+02 0.2984000D+02 0.1272000D+02
EXPONENTS  0.5244000D+01 0.2219000D+01 0.1183000D+04 0.1678000D+03 0.6947000D+02
EXPONENTS  0.2984000D+02 0.1272000D+02 0.5244000D+01 0.2219000D+01 0.3490000D+00
EXPONENTS  0.7767000D+00 0.1322000D+00 0.4970000D-01 0.5744000D+03 0.1358000D+03
EXPONENTS  0.4319000D+02 0.1587000D+02 0.6208000D+01 0.2483000D+01 0.5744000D+03
EXPONENTS  0.1358000D+03 0.4319000D+02 0.1587000D+02 0.6208000D+01 0.2483000D+01
EXPONENTS  0.5744000D+03 0.1358000D+03 0.4319000D+02 0.1587000D+02 0.6208000D+01
EXPONENTS  0.2483000D+01 0.1358000D+03 0.4319000D+02 0.1587000D+02 0.6208000D+01
EXPONENTS  0.2483000D+01 0.3229000D+00 0.1358000D+03 0.4319000D+02 0.1587000D+02
EXPONENTS  0.6208000D+01 0.2483000D+01 0.3229000D+00 0.1358000D+03 0.4319000D+02
EXPONENTS  0.1587000D+02 0.6208000D+01 0.2483000D+01 0.3229000D+00 0.8688000D+00
EXPONENTS  0.8688000D+00 0.8688000D+00 0.1098000D+00 0.1098000D+00 0.1098000D+00
EXPONENTS  0.3510000D-01 0.3510000D-01 0.3510000D-01 0.2690000D+00 0.2690000D+00
EXPONENTS  0.2690000D+00 0.2690000D+00 0.2690000D+00 0.2690000D+00 0.8190000D+00
EXPONENTS  0.8190000D+00 0.8190000D+00 0.8190000D+00 0.8190000D+00 0.8190000D+00
EXPONENTS  0.1010000D+00 0.1010000D+00 0.1010000D+00 0.1010000D+00 0.1010000D+00
EXPONENTS  0.1010000D+00 0.5570000D+00 0.5570000D+00 0.5570000D+00 0.5570000D+00
EXPONENTS  0.5570000D+00 0.5570000D+00 0.5570000D+00 0.5570000D+00 0.5570000D+00
EXPONENTS  0.5570000D+00 0.2180000D+00 0.2180000D+00 0.2180000D+00 0.2180000D+00
EXPONENTS  0.2180000D+00 0.2180000D+00 0.2180000D+00 0.2180000D+00 0.2180000D+00
EXPONENTS  0.2180000D+00 0.3387000D+02 0.5095000D+01 0.1159000D+01 0.3258000D+00
EXPONENTS  0.1027000D+00 0.2526000D-01 0.1407000D+01 0.1407000D+01 0.1407000D+01
EXPONENTS  0.3880000D+00 0.3880000D+00 0.3880000D+00 0.1020000D+00 0.1020000D+00
EXPONENTS  0.1020000D+00 0.1057000D+01 0.1057000D+01 0.1057000D+01 0.1057000D+01
EXPONENTS  0.1057000D+01 0.1057000D+01 0.2470000D+00 0.2470000D+00 0.2470000D+00
EXPONENTS  0.2470000D+00 0.2470000D+00 0.2470000D+00 0.3387000D+02 0.5095000D+01
EXPONENTS  0.1159000D+01 0.3258000D+00 0.1027000D+00 0.2526000D-01 0.1407000D+01
EXPONENTS  0.1407000D+01 0.1407000D+01 0.3880000D+00 0.3880000D+00 0.3880000D+00
EXPONENTS  0.1020000D+00 0.1020000D+00 0.1020000D+00 0.1057000D+01 0.1057000D+01
EXPONENTS  0.1057000D+01 0.1057000D+01 0.1057000D+01 0.1057000D+01 0.2470000D+00
EXPONENTS  0.2470000D+00 0.2470000D+00 0.2470000D+00 0.2470000D+00 0.2470000D+00
MO    1     MO 0.0        OCC NO =    2.0000337  ORB. ENERGY =    0.000000
  0.16167366D-10  0.30139228D-10  0.50939402D-10  0.76571421D-10  0.94054277D-10
  0.79378491D-10  0.29848386D-10  0.22018142D-14  0.16457197D-13  0.61504302D-13
  0.17158743D-12  0.22987984D-12 -0.27144523D-12  0.13257227D-11  0.12379698D-13
  0.18625758D-13 -0.11730847D-12 -0.10998415D-12 -0.78315266D-13 -0.14388050D-02
 -0.13489712D-02 -0.96054785D-03 -0.63670449D-13 -0.59695093D-13 -0.42506462D-13
 -0.17892138D-13 -0.59812074D-03 -0.51740362D-13 -0.13080130D-14  0.16109610D-02
 -0.12715587D-13  0.10353115D-15  0.29651609D-04 -0.40214131D-15 -0.65400461D-13
  0.36580399D-13  0.28820062D-13 -0.83497552D-05 -0.22220629D-13 -0.10628787D-02
  0.13326826D-13  0.92945522D-14 -0.22621378D-13  0.23586270D-05  0.18220051D-13
  0.52283461D-04 -0.95010786D-15 -0.20954315D-15  0.11596510D-14 -0.69821769D-07
 -0.33302079D-14 -0.21500719D-03  0.36040804D-14  0.16676337D-03  0.87696466D-14
  0.25176548D-14  0.19448388D-03  0.30470661D-13 -0.13329896D-13 -0.69477398D-03
 -0.56779601D-13 -0.93728955D-05 -0.14482429D-14 -0.81254872D-04 -0.93009749D-14
 -0.48928761D-14 -0.12290031D-03  0.11840050D-14  0.92376047D-14  0.36666493D-03
  0.26718920D-13  0.45690662D-05  0.27814110D-10  0.52001280D-10  0.89873669D-10
  0.14536695D-09  0.21971729D-09  0.30259619D-09  0.35369810D-09  0.30568982D-09
  0.14266703D-09  0.19328252D-10 -0.14136962D-12  0.67900686D-13  0.87285649D-12
  0.31840550D-11  0.10742923D-10  0.23596279D-10  0.30479956D-10 -0.48983883D-11
 -0.41091655D-10 -0.22550570D-10  0.62885861D-15  0.71630905D-14  0.14873158D-13
  0.40897407D-13 -0.53028185D-14 -0.18491945D-12 -0.46121848D-12  0.38178998D-12
 -0.12804098D-11  0.44230731D-13  0.77813218D-14  0.37069313D-09  0.48632830D-09
  0.53339690D-09  0.43886290D-09  0.23134357D-09  0.60191245D-10  0.97724274D+01
  0.12820869D+02  0.14061719D+02  0.11569558D+02  0.60988134D+01  0.15867965D+01
 -0.38669251D-09 -0.50731858D-09 -0.55641868D-09 -0.45780453D-09 -0.24132852D-09
 -0.62789141D-10  0.19783254D-14  0.71013237D-13  0.11266428D-12  0.13378538D-12
  0.20245254D-13 -0.14734116D-12  0.96391793D-04  0.34600442D-02  0.54894469D-02
  0.65185498D-02  0.98642840D-03 -0.71790411D-02 -0.25127280D-14 -0.90195957D-13
 -0.14309815D-12 -0.16992466D-12 -0.25714080D-13  0.18714225D-12  0.28720123D-11
  0.66518487D-01 -0.27826725D-11  0.92556489D-14 -0.57540486D-03  0.25032415D-14
 -0.62496663D-15 -0.27474337D-04  0.20970004D-15  0.89878291D-14 -0.37082343D-14
 -0.52795948D-14  0.52521698D-05  0.21855840D-13  0.77026371D-03 -0.17929780D-13
  0.19376347D-13 -0.14465665D-14 -0.73996757D-05 -0.13968506D-13 -0.10811687D-02
 -0.68525478D-15 -0.81509868D-16  0.76676465D-15 -0.35988462D-06 -0.19137881D-14
 -0.29972050D-04  0.51259794D-14  0.14811182D-05  0.24129966D-14 -0.29810147D-14
  0.13082973D-03 -0.11402478D-13 -0.12396924D-13 -0.13527308D-03  0.41634879D-14
 -0.36912405D-05  0.18290581D-16  0.33705034D-04 -0.19016469D-15  0.12165134D-14
 -0.22228795D-05 -0.56461383D-15 -0.12713851D-14 -0.98892221D-04  0.11351079D-14
 -0.13361154D-05 -0.10704309D-03 -0.19305662D-03 -0.28466187D-03  0.13751293D-03
  0.23683253D-02  0.25549486D-04  0.24957421D-05 -0.18503321D-04  0.26625079D-03
 -0.18811463D-05 -0.14193383D-04 -0.32498518D-03  0.14174804D-07  0.31409061D-03
  0.13272497D-03 -0.49116867D-04 -0.14474996D-03  0.19386683D-03  0.15402676D-05
  0.26645016D-05 -0.85291378D-05  0.25288325D-04 -0.22496732D-04 -0.27915931D-05
 -0.51354019D-06  0.67641683D-06 -0.11635539D-03  0.10704309D-03  0.19305662D-03
  0.28466187D-03 -0.13751293D-03 -0.23683253D-02 -0.25549486D-04 -0.24957421D-05
 -0.18503321D-04 -0.26625079D-03  0.18811463D-05 -0.14193383D-04  0.32498518D-03
 -0.14174811D-07  0.31409061D-03 -0.13272497D-03  0.49116868D-04  0.14474996D-03
 -0.19386683D-03  0.15402676D-05 -0.26645016D-05 -0.85291376D-05 -0.25288325D-04
  0.22496732D-04  0.27915931D-05 -0.51354018D-06 -0.67641682D-06 -0.11635539D-03
MO    2     MO 0.0        OCC NO =    2.0000243  ORB. ENERGY =    0.000000
 -0.53354583D-01 -0.99463692D-01 -0.16810719D+00 -0.25269646D+00 -0.31039234D+00
 -0.26196019D+00 -0.98503871D-01 -0.88983879D-05 -0.66509937D-04 -0.24856282D-03
 -0.69345156D-03 -0.92903391D-03  0.10970158D-02 -0.42233610D-02 -0.54981542D-03
 -0.39482479D-04  0.17169716D-04  0.16097700D-04  0.11462521D-04 -0.12648189D-12
 -0.11858481D-12 -0.84439448D-13  0.24026664D-02  0.22526525D-02  0.16040228D-02
 -0.65703927D-06 -0.46200411D-13  0.49313524D-04 -0.27245231D-05 -0.85061532D-14
 -0.60509055D-03 -0.25227264D-08 -0.15725561D-14 -0.47200895D-06  0.19004625D-03
 -0.14576127D-03 -0.44284979D-04  0.41025262D-15 -0.43211880D-06 -0.76624433D-13
  0.37906929D-04  0.14676142D-03 -0.18466835D-03  0.87284669D-15 -0.25567751D-05
  0.18976311D-13  0.11033586D-04  0.85515482D-04 -0.96549068D-04 -0.52656463D-15
 -0.79003333D-06  0.58276356D-14 -0.70334711D-06  0.11421118D-13  0.98892349D-05
 -0.57445292D-07  0.73581832D-14 -0.17119012D-03  0.21674866D-05 -0.41621537D-13
  0.14152241D-03 -0.15859679D-14  0.17703018D-06 -0.64209253D-14  0.58659020D-04
 -0.15207446D-05 -0.15677867D-14  0.10713235D-04  0.98965410D-06  0.20830563D-13
 -0.18669030D-03  0.38864271D-16 -0.12114634D+00 -0.22649529D+00 -0.39145119D+00
 -0.63315616D+00 -0.95699434D+00 -0.13179793D+01 -0.15405574D+01 -0.13314538D+01
 -0.62139644D+00 -0.84185583D-01  0.61574548D-03 -0.15086722D-02 -0.19393829D-01
 -0.70745901D-01 -0.23869492D+00 -0.52428114D+00 -0.67722823D+00  0.10883634D+00
  0.91300752D+00  0.50104675D+00 -0.12531571D-04 -0.14274239D-03 -0.29638465D-03
 -0.81498251D-03  0.10567184D-03  0.36849798D-02  0.91909248D-02 -0.76081144D-02
  0.27973897D-01  0.11459584D-02  0.42454229D-05  0.35343324D-01  0.46368431D-01
  0.50856134D-01  0.41842895D-01  0.22057195D-01  0.57388673D-02  0.56877626D-09
  0.74620211D-09  0.81842222D-09  0.67337315D-09  0.35496404D-09  0.92354966D-10
  0.66577722D+01  0.87346185D+01  0.95799861D+01  0.78821240D+01  0.41550076D+01
  0.10810548D+01  0.29890446D-06  0.10729364D-04  0.17022405D-04  0.20213584D-04
  0.30588481D-05 -0.22261723D-04  0.55209654D-14  0.19817854D-12  0.31441522D-12
  0.37335843D-12  0.56498971D-13 -0.41118892D-12  0.55919412D-04  0.20072626D-02
  0.31845724D-02  0.37815821D-02  0.57225304D-03 -0.41647504D-02  0.26037760D-03
  0.38408080D-11  0.48625941D-01 -0.47670367D-05 -0.49639633D-13 -0.64490524D-03
  0.70024198D-08 -0.18192391D-14 -0.13871917D-05 -0.25509186D-03 -0.10217539D-03
  0.35726726D-03  0.23418840D-15  0.76201297D-05  0.38782873D-13  0.35815329D-03
 -0.38149508D-03  0.23341795D-04  0.20047077D-15 -0.36209200D-05 -0.48526732D-13
 -0.53334905D-05 -0.23225851D-04  0.28559341D-04  0.21340557D-15  0.67195340D-06
  0.17373853D-14  0.11155711D-05  0.10952673D-14 -0.69435685D-04 -0.11207013D-06
  0.70877604D-14  0.20746477D-03 -0.32346431D-05 -0.10373562D-13  0.84228446D-06
  0.15807121D-15  0.19504729D-06  0.18073432D-14 -0.19634898D-04  0.27436096D-06
 -0.38558613D-15  0.25710343D-04 -0.85950284D-06 -0.50364436D-14  0.33194351D-04
 -0.45120950D-15 -0.22711795D-04 -0.40961658D-04 -0.60397941D-04 -0.39456266D-03
 -0.44565997D-03  0.30137120D-05 -0.24988452D-06  0.20836419D-04  0.90679835D-04
  0.22750378D-05  0.34035407D-04  0.24948338D-04 -0.67000864D-07  0.35910631D-04
 -0.12462932D-03 -0.10028817D-03  0.20189489D-04  0.80098680D-04  0.87427644D-06
  0.22652283D-05  0.13059485D-03 -0.31331566D-04  0.21823779D-04  0.95077866D-05
 -0.61564845D-06  0.99440455D-06 -0.64588235D-04 -0.22711795D-04 -0.40961658D-04
 -0.60397940D-04 -0.39456266D-03 -0.44565997D-03  0.30137120D-05 -0.24988452D-06
 -0.20836419D-04  0.90679835D-04  0.22750378D-05 -0.34035407D-04  0.24948338D-04
 -0.67000863D-07 -0.35910631D-04 -0.12462932D-03 -0.10028817D-03  0.20189489D-04
  0.80098680D-04 -0.87427644D-06  0.22652283D-05 -0.13059485D-03 -0.31331566D-04
  0.21823779D-04  0.95077866D-05  0.61564845D-06  0.99440455D-06  0.64588235D-04
MO    3     MO 0.0        OCC NO =    2.0000101  ORB. ENERGY =    0.000000
 -0.15143520D+00 -0.28230573D+00 -0.47713514D+00 -0.71722311D+00 -0.88098013D+00
 -0.74351615D+00 -0.27958149D+00 -0.23222842D-04 -0.17357636D-03 -0.64869447D-03
 -0.18097566D-02 -0.24245749D-02  0.28629708D-02 -0.12249220D-01 -0.11526863D-03
 -0.10722041D-03  0.31974849D-04  0.29978453D-04  0.21346445D-04 -0.10182325D-13
 -0.95465772D-14 -0.67977317D-14  0.37161818D-02  0.34841566D-02  0.24809271D-02
  0.15041007D-05 -0.34945251D-13  0.55395538D-03 -0.49224077D-06 -0.28409089D-13
 -0.15671644D-03 -0.32321858D-07 -0.94787309D-15 -0.38057001D-05  0.45329827D-03
 -0.44603529D-03 -0.72629848D-05 -0.32862917D-14  0.74646965D-07 -0.70218851D-14
 -0.11583251D-03 -0.31886990D-05  0.11902121D-03  0.66880612D-14  0.24273741D-05
  0.55347643D-14  0.12951257D-04  0.59411624D-04 -0.72362880D-04 -0.58697642D-15
 -0.55386083D-06 -0.97330452D-14 -0.17851573D-05  0.49258672D-14  0.71448790D-04
 -0.14524261D-05  0.13037474D-14 -0.44941715D-03  0.68078980D-05 -0.16081349D-13
  0.23507077D-03  0.92042565D-15  0.13034769D-06  0.29840085D-14  0.11878332D-03
 -0.27059585D-05  0.37117688D-14 -0.22276617D-04  0.23149154D-05 -0.12663794D-13
 -0.33407335D-03 -0.45824395D-14  0.11206731D+00  0.20952112D+00  0.36211477D+00
  0.58570572D+00  0.88527459D+00  0.12192064D+01  0.14251038D+01  0.12316711D+01
  0.57482731D+00  0.77876487D-01 -0.56959984D-03  0.14083030D-02  0.18103594D-01
  0.66039308D-01  0.22281499D+00  0.48940170D+00  0.63217350D+00 -0.10159566D+00
 -0.85226683D+00 -0.46771305D+00  0.63415783D-05  0.72234520D-04  0.14998490D-03
  0.41242039D-03 -0.53475040D-04 -0.18647772D-02 -0.46510504D-02  0.38500722D-02
 -0.27762148D-01  0.11070245D-02  0.29051956D-04  0.19184270D-01  0.25168671D-01
  0.27604585D-01  0.22712221D-01  0.11972592D-01  0.31150431D-02  0.23636363D-09
  0.31009565D-09  0.34010781D-09  0.27983046D-09  0.14751071D-09  0.38379512D-10
  0.56959602D+01  0.74727758D+01  0.81960178D+01  0.67434366D+01  0.35547563D+01
  0.92488073D+00  0.13044482D-06  0.46823993D-05  0.74287439D-05  0.88214055D-05
  0.13349112D-05 -0.97152333D-05  0.19624063D-14  0.70441811D-13  0.11175770D-12
  0.13270884D-12  0.20082345D-13 -0.14615555D-12  0.36610879D-04  0.13141706D-02
  0.20849646D-02  0.24758315D-02  0.37465857D-03 -0.27266949D-02  0.15085865D-03
  0.15828076D-11  0.43852590D-01 -0.17749842D-05  0.59157274D-14 -0.11640570D-03
  0.27991332D-07 -0.50643745D-15  0.49739356D-06 -0.15127417D-03 -0.13810521D-03
  0.28937938D-03  0.10132179D-14  0.50604433D-05 -0.10290916D-13 -0.11408420D-03
  0.47186731D-03 -0.35778311D-03 -0.10148142D-14 -0.50621506D-05 -0.13385419D-13
  0.62454856D-05  0.20931958D-05 -0.83386814D-05  0.19321415D-15  0.12338837D-06
 -0.52078584D-14  0.83904624D-06 -0.11076155D-14 -0.43864649D-04 -0.40152370D-06
  0.51558125D-15  0.20880301D-03 -0.21156150D-05  0.28072652D-14 -0.77209064D-04
 -0.52211079D-15  0.17288313D-06 -0.53889141D-15 -0.12961515D-04  0.13549708D-06
 -0.10171209D-14  0.19684512D-04 -0.65414646D-06  0.26337951D-14  0.19200033D-04
 -0.85464589D-15  0.39092364D-04  0.70504688D-04  0.10395912D-03 -0.35965675D-03
  0.52874846D-05  0.70021076D-05 -0.45154080D-06  0.17304110D-03  0.20437633D-03
  0.43323890D-05  0.12733971D-03  0.17033211D-03  0.58947652D-07  0.74326337D-04
 -0.57695500D-04 -0.23417616D-03  0.11048430D-03  0.12369186D-03  0.18524246D-05
  0.42242802D-05  0.44853481D-03 -0.63981385D-04  0.95196013D-05  0.54461784D-04
 -0.62048065D-06  0.20028593D-05 -0.58264619D-04  0.39092364D-04  0.70504688D-04
  0.10395912D-03 -0.35965675D-03  0.52874846D-05  0.70021076D-05 -0.45154079D-06
 -0.17304110D-03  0.20437633D-03  0.43323890D-05 -0.12733971D-03  0.17033211D-03
  0.58947653D-07 -0.74326337D-04 -0.57695500D-04 -0.23417616D-03  0.11048430D-03
  0.12369186D-03 -0.18524246D-05  0.42242802D-05 -0.44853481D-03 -0.63981385D-04
  0.95196013D-05  0.54461784D-04  0.62048066D-06  0.20028593D-05  0.58264619D-04
MO    4     MO 0.0        OCC NO =    2.0000048  ORB. ENERGY =    0.000000
  0.28557164D+00  0.53236306D+00  0.89976610D+00  0.13525163D+01  0.16613240D+01
  0.14020988D+01  0.52722577D+00  0.30292750D-04  0.22641954D-03  0.84618152D-03
  0.23607147D-02  0.31627068D-02 -0.37345670D-02  0.23601624D-01 -0.50957319D-03
 -0.43118275D-05  0.70297629D-04  0.65908496D-04  0.46930775D-04  0.81700018D-13
  0.76598960D-13  0.54543023D-13  0.42394425D-02  0.39747468D-02  0.28302565D-02
  0.11150002D-04 -0.49646027D-13 -0.37409012D-03 -0.83115521D-06 -0.20128593D-12
 -0.30670432D-03 -0.21300066D-07 -0.49938213D-14 -0.39153745D-05 -0.11863669D-02
  0.61340188D-03  0.57296505D-03 -0.14019322D-14  0.26267604D-04  0.57309947D-13
  0.18488522D-03  0.11332005D-03 -0.29820527D-03  0.20319992D-14 -0.17269417D-04
  0.58953163D-13  0.88260508D-05  0.37105184D-04 -0.45931235D-04 -0.35198844D-15
  0.34856246D-06  0.27640762D-13 -0.28542697D-05 -0.60282829D-14  0.41352303D-03
 -0.26802195D-05  0.52165398D-14  0.19143730D-03  0.11243029D-04  0.12868309D-13
 -0.14320064D-02  0.20987525D-14  0.53177188D-06  0.52318698D-14 -0.67360671D-04
  0.31143017D-05  0.13562968D-13 -0.22552606D-04 -0.47096173D-05 -0.29258577D-13
  0.22463462D-03 -0.17381502D-14  0.36846327D-01  0.68887919D-01  0.11905880D+00
  0.19257270D+00  0.29106719D+00  0.40085979D+00  0.46855628D+00  0.40495802D+00
  0.18899602D+00  0.25604813D-01 -0.18727729D-03  0.46213887D-03  0.59407487D-02
  0.21670997D-01  0.73117407D-01  0.16059863D+00  0.20744963D+00 -0.33338921D-01
 -0.27967392D+00 -0.15348144D+00  0.18368685D-05  0.20923074D-04  0.43443845D-04
  0.11945954D-03 -0.15489301D-04 -0.54014164D-03 -0.13471990D-02  0.11151918D-02
 -0.95143281D-02  0.13101314D-02  0.10620354D-03 -0.15584113D+00 -0.20445470D+00
 -0.22424255D+00 -0.18450002D+00 -0.97257920D-01 -0.25304681D-01 -0.31506611D-09
 -0.41334882D-09 -0.45335420D-09 -0.37300618D-09 -0.19662765D-09 -0.51158816D-10
  0.42429540D+01  0.55665144D+01  0.61052615D+01  0.50232253D+01  0.26479588D+01
  0.68894906D+00 -0.77188964D-06 -0.27707466D-04 -0.43958589D-04 -0.52199476D-04
 -0.78991566D-05  0.57488582D-04 -0.36400381D-14 -0.13066146D-12 -0.20729769D-12
 -0.24615965D-12 -0.37250443D-13  0.27110174D-12  0.31445086D-04  0.11287412D-02
  0.17907762D-02  0.21264918D-02  0.32179426D-03 -0.23419583D-02 -0.12003804D-02
 -0.21632298D-11  0.33091694D-01 -0.48576820D-05  0.11906897D-13 -0.34772936D-03
  0.28344253D-06  0.83431660D-15 -0.46938664D-05 -0.13526409D-03 -0.23125848D-03
  0.36652257D-03  0.51678147D-16 -0.44861728D-05 -0.47133071D-13  0.98554577D-04
  0.33892675D-03 -0.43748133D-03 -0.24347420D-15  0.28354639D-06  0.50874673D-13
 -0.10358224D-04 -0.12207458D-04  0.22565682D-04  0.18660357D-15  0.89184595D-06
  0.24265354D-14 -0.23724384D-05 -0.71989487D-16  0.53862353D-04  0.62687581D-06
 -0.68018841D-14 -0.27782195D-04  0.64904393D-05  0.70178525D-14 -0.13380486D-03
  0.43089352D-15  0.40416156D-07 -0.19338816D-14 -0.36896717D-04 -0.59334651D-07
 -0.35531451D-15  0.28902069D-04 -0.61913817D-07  0.61569593D-14  0.81788083D-04
 -0.39543151D-15 -0.30791974D-03 -0.55534594D-03 -0.81885726D-03 -0.53880342D-03
 -0.47503533D-03 -0.71217566D-05  0.36540646D-05 -0.82633013D-03 -0.37185000D-03
 -0.47832068D-05 -0.40929436D-03 -0.27034068D-03  0.78584157D-06 -0.35212598D-04
 -0.10052202D-03  0.27163385D-03 -0.43500460D-03  0.16337075D-03 -0.34538005D-05
  0.21908491D-05 -0.94982696D-03  0.49498419D-04 -0.24641717D-04 -0.24856702D-04
 -0.21508318D-07 -0.20818265D-05 -0.78927855D-04 -0.30791974D-03 -0.55534594D-03
 -0.81885726D-03 -0.53880342D-03 -0.47503533D-03 -0.71217566D-05  0.36540646D-05
  0.82633013D-03 -0.37185000D-03 -0.47832068D-05  0.40929436D-03 -0.27034068D-03
  0.78584157D-06  0.35212598D-04 -0.10052202D-03  0.27163385D-03 -0.43500460D-03
  0.16337075D-03  0.34538005D-05  0.21908491D-05  0.94982696D-03  0.49498419D-04
 -0.24641717D-04 -0.24856702D-04  0.21508319D-07 -0.20818265D-05  0.78927855D-04
MO    5     MO 0.0        OCC NO =    2.0000043  ORB. ENERGY =    0.000000
  0.50707567D-02  0.94529119D-02  0.15976709D-01  0.24015974D-01  0.29499322D-01
  0.24896387D-01  0.93616917D-02  0.54061034D-06  0.40407274D-05  0.15101121D-04
  0.42129775D-04  0.56442284D-04 -0.66647813D-04  0.41990042D-03 -0.14722181D-04
  0.77836762D-07 -0.29432790D-02 -0.27595112D-02 -0.19649363D-02  0.49423395D-13
  0.46337574D-13  0.32995113D-13  0.97781074D-04  0.91675972D-04  0.65278754D-04
 -0.49210335D-03  0.23745373D-13 -0.53197994D-05 -0.49272906D-04 -0.77145467D-13
 -0.10218532D-04 -0.19298045D-06 -0.22859825D-14 -0.21675641D-06 -0.25413623D-04
  0.11774054D-04  0.13639568D-04 -0.21758894D-14 -0.66393360D-03  0.35988660D-13
  0.73822041D-05  0.14052722D-05 -0.87874763D-05  0.65833941D-14  0.61482438D-03
 -0.84945142D-15  0.47800868D-07  0.60231363D-06 -0.65011450D-06 -0.46583126D-15
 -0.53821146D-04  0.15991083D-13  0.83813761D-04 -0.69174268D-14  0.94602484D-05
  0.44201451D-04 -0.61970668D-14 -0.78751584D-06 -0.29564274D-03  0.26949347D-13
 -0.27593229D-04 -0.17367959D-14 -0.33396821D-04  0.16290018D-14 -0.27415120D-05
 -0.14146351D-03  0.46720558D-14  0.30454766D-05  0.24165397D-03 -0.95590611D-14
  0.51790593D-05 -0.32849437D-14  0.80267498D-03  0.15006817D-02  0.25936241D-02
  0.41950800D-02  0.63407230D-02  0.87324884D-02  0.10207216D-01  0.88217659D-02
  0.41171641D-02  0.55778539D-03 -0.40797227D-05  0.10080909D-04  0.12958908D-03
  0.47272232D-03  0.15949534D-02  0.35032333D-02  0.45252219D-02 -0.72724166D-03
 -0.61006932D-02 -0.33479817D-02  0.35806051D-07  0.40785318D-06  0.84685023D-06
  0.23286230D-05 -0.30193272D-06 -0.10528973D-04 -0.26260931D-04  0.21738418D-04
 -0.20817958D-03  0.32767883D-04  0.30614057D-05  0.97142314D+01  0.12744519D+02
  0.13977979D+02  0.11500660D+02  0.60624942D+01  0.15773470D+01 -0.38046769D-09
 -0.49915198D-09 -0.54746169D-09 -0.45043499D-09 -0.23744371D-09 -0.61778388D-10
  0.32744986D-01  0.42959560D-01  0.47117340D-01  0.38766728D-01  0.20435615D-01
  0.53169625D-02  0.51722974D-04  0.18566288D-02  0.29455881D-02  0.34977956D-02
  0.52930866D-03 -0.38522093D-02 -0.37021347D-14 -0.13289046D-12 -0.21083405D-12
 -0.25035897D-12 -0.37885911D-13  0.27572656D-12  0.36783049D-06  0.13203507D-04
  0.20947696D-04  0.24874746D-04  0.37642047D-05 -0.27395176D-04  0.75257123D-01
 -0.25935834D-11  0.26525919D-03  0.17203564D-03  0.12293952D-13 -0.97644512D-05
 -0.15199116D-04  0.11017974D-14  0.10083959D-07  0.88917037D-06 -0.49335224D-05
  0.40443521D-05  0.32744642D-15  0.62525576D-03 -0.25690716D-13 -0.59953008D-06
  0.77082957D-05 -0.71087656D-05  0.11536066D-14 -0.40086053D-03  0.41868346D-13
 -0.50731425D-06 -0.23121924D-06  0.73853350D-06  0.23622597D-15 -0.34017713D-04
  0.31932660D-14  0.12996877D-03  0.42302615D-15  0.26204917D-05 -0.73670425D-04
 -0.47594262D-14 -0.61450593D-05 -0.31623590D-03  0.34903478D-14 -0.17164158D-05
  0.49377663D-15  0.67232303D-05 -0.11634126D-14 -0.34216687D-06  0.35149767D-04
  0.26185460D-15 -0.22654640D-06 -0.55319458D-04  0.32283833D-14  0.12530470D-05
 -0.51174662D-15 -0.60619407D-05 -0.10932960D-04 -0.16120643D-04 -0.88584129D-05
 -0.10940137D-04 -0.22856120D-06 -0.12768813D-03 -0.14955994D-04 -0.81306211D-05
  0.16794745D-03 -0.82524726D-05 -0.30198835D-05 -0.57085508D-04 -0.11670755D-05
 -0.12874406D-05  0.46165279D-05 -0.81908696D-05  0.35743417D-05  0.14040872D-03
 -0.57313623D-04 -0.18568705D-04  0.13979968D-05 -0.55514796D-06 -0.84284882D-06
 -0.38195314D-04  0.11111567D-03 -0.75865791D-06 -0.60619407D-05 -0.10932960D-04
 -0.16120643D-04 -0.88584129D-05 -0.10940137D-04 -0.22856119D-06 -0.12768813D-03
  0.14955994D-04 -0.81306211D-05  0.16794745D-03  0.82524726D-05 -0.30198835D-05
 -0.57085508D-04  0.11670755D-05 -0.12874406D-05  0.46165279D-05 -0.81908696D-05
  0.35743417D-05 -0.14040872D-03 -0.57313623D-04  0.18568705D-04  0.13979968D-05
 -0.55514796D-06 -0.84284882D-06  0.38195314D-04  0.11111567D-03  0.75865791D-06
MO    6     MO 0.0        OCC NO =    2.0000000  ORB. ENERGY =    0.000000
 -0.81010261D-04 -0.15101945D-03 -0.25524344D-03 -0.38367849D-03 -0.47128031D-03
 -0.39774396D-03 -0.14956211D-03  0.49245885D-07  0.36808248D-06  0.13756083D-05
  0.38377329D-05  0.51415040D-05 -0.60711575D-05  0.16641411D-05 -0.30769418D-04
 -0.72437319D-05  0.97763738D-07  0.91659719D-07  0.65267180D-07 -0.91969311D-15
 -0.86227075D-15 -0.61398814D-15  0.14566229D-04  0.13656765D-04  0.97244306D-05
 -0.23742633D-06  0.22578917D-12 -0.38210927D-04 -0.29694226D-07 -0.13463174D-13
  0.41044451D-05 -0.30335272D-08 -0.72298379D-16 -0.38995555D-06  0.14533875D-05
  0.89091777D-05 -0.10362565D-04 -0.75658589D-15 -0.17118725D-06 -0.14561885D-13
  0.63090417D-05  0.43048108D-05 -0.10613853D-04 -0.29479929D-14 -0.20601555D-06
 -0.11987435D-12  0.63674660D-06 -0.91542848D-06  0.27868187D-06 -0.15104584D-15
 -0.17823971D-07 -0.17519412D-13 -0.12155640D-07  0.20855875D-14  0.21218476D-05
 -0.14103731D-07 -0.51482482D-13  0.39244335D-06  0.50570650D-07  0.45225719D-13
 -0.67579860D-05  0.58994104D-14  0.11976148D-07  0.11340389D-13 -0.38246929D-06
 -0.15567237D-07  0.26293977D-14  0.61645806D-06 -0.20361209D-07 -0.36650565D-13
  0.53094980D-06  0.37241692D-15  0.58266941D+00  0.10893592D+01  0.18827364D+01
  0.30452485D+01  0.46027913D+01  0.63389965D+01  0.74095150D+01  0.64038039D+01
  0.29886886D+01  0.40490173D+00 -0.29615096D-02 -0.29343319D-04 -0.37720541D-03
 -0.13759911D-02 -0.46425599D-02 -0.10197145D-01 -0.13171930D-01  0.21168412D-02
  0.17757781D-01  0.97452413D-02  0.19754033D-06  0.22501071D-05  0.46720335D-05
  0.12846906D-04 -0.16657489D-05 -0.58087857D-04 -0.14488034D-03  0.11992985D-03
  0.13975537D-04 -0.17647771D-04  0.32770254D-05  0.72163604D-04  0.94674544D-04
  0.10383749D-03  0.85434355D-04  0.45036134D-04  0.11717555D-04 -0.37320083D-09
 -0.48961827D-09 -0.53700527D-09 -0.44183176D-09 -0.23290858D-09 -0.60598432D-10
  0.11194454D-01  0.14686488D-01  0.16107898D-01  0.13253094D-01  0.69862774D-02
  0.18176980D-02  0.43874720D-08  0.15749108D-06  0.24986354D-06  0.29670529D-06
  0.44899331D-07 -0.32676892D-06 -0.40171037D-14 -0.14419647D-12 -0.22877132D-12
 -0.27165892D-12 -0.41109155D-13  0.29918473D-12  0.70486742D-06  0.25301661D-04
  0.40141719D-04  0.47667060D-04  0.72132826D-05 -0.52496919D-04  0.10595701D-05
 -0.25589000D-11  0.16288533D-03  0.63475900D-07  0.60145208D-13  0.52674351D-05
 -0.76438608D-10  0.15211320D-14 -0.34020646D-07 -0.58150357D-05 -0.37582490D-05
  0.95732847D-05 -0.43917903D-15  0.16999543D-06 -0.65425979D-13  0.91720821D-05
 -0.15974594D-04  0.68025119D-05 -0.20682881D-16  0.43543667D-07  0.44383239D-13
  0.59370886D-06  0.49058954D-06 -0.10842984D-05 -0.83916682D-16 -0.27309606D-07
 -0.72887481D-14  0.73308029D-07 -0.26158152D-14 -0.69847301D-05  0.62589653D-07
 -0.82159473D-14  0.12188378D-04 -0.28251374D-06  0.16063393D-13  0.87658126D-05
 -0.59510435D-15 -0.71153663D-09 -0.31440991D-14 -0.58989279D-07 -0.37930218D-09
 -0.86953071D-15 -0.80734566D-08  0.25139121D-08  0.10301828D-13  0.18504129D-06
  0.36143490D-15 -0.12364794D-05 -0.22300415D-05 -0.32881949D-05  0.30183442D-05
  0.17403083D-04  0.23761468D-06 -0.13460500D-08 -0.58374194D-05 -0.14809731D-05
  0.21149379D-07  0.10018175D-05 -0.14145211D-05 -0.36396929D-08  0.75794863D-06
  0.25179716D-05 -0.24401004D-05 -0.16078937D-05  0.40479941D-05  0.16349287D-07
  0.88772934D-07 -0.20745485D-05 -0.38649538D-07 -0.43390401D-06  0.47255355D-06
 -0.16156179D-07  0.20292670D-07 -0.18460614D-05 -0.12364794D-05 -0.22300415D-05
 -0.32881949D-05  0.30183439D-05  0.17403083D-04  0.23761467D-06 -0.13460514D-08
  0.58374194D-05 -0.14809731D-05  0.21149384D-07 -0.10018174D-05 -0.14145213D-05
 -0.36396921D-08 -0.75794861D-06  0.25179716D-05 -0.24401004D-05 -0.16078937D-05
  0.40479941D-05 -0.16349295D-07  0.88772939D-07  0.20745487D-05 -0.38649533D-07