 Entering Gaussian System, Link 0=/home/bruns/programas/chemistry/gaussian/g09/g09
 Input=GAUSSIAN.com
 Output=GAUSSIAN.log
 Initial command:
 /home/bruns/programas/chemistry/gaussian/g09/l1.exe /home/bruns/programas/chemistry/gaussian/work/Gau-22446.inp -scrdir=/home/bruns/programas/chemistry/gaussian/work/
 Entering Link 1 = /home/bruns/programas/chemistry/gaussian/g09/l1.exe PID=     22448.
  
 Copyright (c) 1988,1990,1992,1993,1995,1998,2003,2009,2010,
            Gaussian, Inc.  All Rights Reserved.
  
 This is part of the Gaussian(R) 09 program.  It is based on
 the Gaussian(R) 03 system (copyright 2003, Gaussian, Inc.),
 the Gaussian(R) 98 system (copyright 1998, Gaussian, Inc.),
 the Gaussian(R) 94 system (copyright 1995, Gaussian, Inc.),
 the Gaussian 92(TM) system (copyright 1992, Gaussian, Inc.),
 the Gaussian 90(TM) system (copyright 1990, Gaussian, Inc.),
 the Gaussian 88(TM) system (copyright 1988, Gaussian, Inc.),
 the Gaussian 86(TM) system (copyright 1986, Carnegie Mellon
 University), and the Gaussian 82(TM) system (copyright 1983,
 Carnegie Mellon University). Gaussian is a federally registered
 trademark of Gaussian, Inc.
  
 This software contains proprietary and confidential information,
 including trade secrets, belonging to Gaussian, Inc.
  
 This software is provided under written license and may be
 used, copied, transmitted, or stored only in accord with that
 written license.
  
 The following legend is applicable only to US Government
 contracts under FAR:
  
                    RESTRICTED RIGHTS LEGEND
  
 Use, reproduction and disclosure by the US Government is
 subject to restrictions as set forth in subparagraphs (a)
 and (c) of the Commercial Computer Software - Restricted
 Rights clause in FAR 52.227-19.
  
 Gaussian, Inc.
 340 Quinnipiac St., Bldg. 40, Wallingford CT 06492
  
  
 ---------------------------------------------------------------
 Warning -- This program may not be used in any manner that
 competes with the business of Gaussian, Inc. or will provide
 assistance to any competitor of Gaussian, Inc.  The licensee
 of this program is prohibited from giving any competitor of
 Gaussian, Inc. access to this program.  By using this program,
 the user acknowledges that Gaussian, Inc. is engaged in the
 business of creating and licensing software in the field of
 computational chemistry and represents and warrants to the
 licensee that it is not a competitor of Gaussian, Inc. and that
 it will not use this program in any manner prohibited above.
 ---------------------------------------------------------------
  

 Cite this work as:
 Gaussian 09, Revision B.01,
 M. J. Frisch, G. W. Trucks, H. B. Schlegel, G. E. Scuseria, 
 M. A. Robb, J. R. Cheeseman, G. Scalmani, V. Barone, B. Mennucci, 
 G. A. Petersson, H. Nakatsuji, M. Caricato, X. Li, H. P. Hratchian, 
 A. F. Izmaylov, J. Bloino, G. Zheng, J. L. Sonnenberg, M. Hada, 
 M. Ehara, K. Toyota, R. Fukuda, J. Hasegawa, M. Ishida, T. Nakajima, 
 Y. Honda, O. Kitao, H. Nakai, T. Vreven, J. A. Montgomery, Jr., 
 J. E. Peralta, F. Ogliaro, M. Bearpark, J. J. Heyd, E. Brothers, 
 K. N. Kudin, V. N. Staroverov, T. Keith, R. Kobayashi, J. Normand, 
 K. Raghavachari, A. Rendell, J. C. Burant, S. S. Iyengar, J. Tomasi, 
 M. Cossi, N. Rega, J. M. Millam, M. Klene, J. E. Knox, J. B. Cross, 
 V. Bakken, C. Adamo, J. Jaramillo, R. Gomperts, R. E. Stratmann, 
 O. Yazyev, A. J. Austin, R. Cammi, C. Pomelli, J. W. Ochterski, 
 R. L. Martin, K. Morokuma, V. G. Zakrzewski, G. A. Voth, 
 P. Salvador, J. J. Dannenberg, S. Dapprich, A. D. Daniels, 
 O. Farkas, J. B. Foresman, J. V. Ortiz, J. Cioslowski, 
 and D. J. Fox, Gaussian, Inc., Wallingford CT, 2010.
 
 ******************************************
 Gaussian 09:  EM64L-G09RevB.01 12-Aug-2010
                17-Nov-2021 
 ******************************************
 %nproc=8
 Will use up to    8 processors via shared memory.
 %mem=8GB
 -----------------------------------------------------
 # qcisd/aug-cc-pvtz nosymm density=current output=wfn
 -----------------------------------------------------
 1/30=1,38=1/1;
 2/12=2,15=1,17=6,18=5,40=1/2;
 3/5=16,6=1,7=10,11=9,16=1,25=1,30=1,71=1/1,2,3;
 4//1;
 5/5=2,38=5/2;
 8/6=4,9=120000,10=1/1,4;
 9/5=8,15=1/13;
 11/28=-7,31=1,32=3,42=3/11;
 10/5=6,13=10,31=1/2;
 6/7=2,8=2,9=2,10=2,22=-1,31=1/1;
 99/5=1,6=1100,9=1/99;
 -----------------
 h2cs-wavefunction
 -----------------
 Symbolic Z-matrix:
 Charge =  0 Multiplicity = 1
 C                     0.01      0.       -0.55529 
 S                     0.        0.        1.06037 
 H                     0.       -0.92228  -1.12899 
 H                     0.        0.92228  -1.12899 
 
                          Input orientation:                          
 ---------------------------------------------------------------------
 Center     Atomic      Atomic             Coordinates (Angstroms)
 Number     Number       Type             X           Y           Z
 ---------------------------------------------------------------------
      1          6           0        0.010000    0.000000   -0.555291
      2         16           0        0.000000    0.000000    1.060374
      3          1           0        0.000000   -0.922280   -1.128992
      4          1           0        0.000000    0.922280   -1.128992
 ---------------------------------------------------------------------
                    Distance matrix (angstroms):
                    1          2          3          4
     1  C    0.000000
     2  S    1.615696   0.000000
     3  H    1.086201   2.375694   0.000000
     4  H    1.086201   2.375694   1.844560   0.000000
 Symmetry turned off by external request.
 Stoichiometry    CH2S
 Framework group  CS[SG(CS),X(H2)]
 Deg. of freedom     4
 Full point group                 CS      NOp   2
 Rotational constants (GHZ):    294.7170501     17.6281762     16.6335830
 Standard basis: Aug-CC-pVTZ (5D, 7F)
 Integral buffers will be    131072 words long.
 Raffenetti 1 integral format.
 Two-electron integral symmetry is turned off.
   142 basis functions,   240 primitive gaussians,   164 cartesian basis functions
    12 alpha electrons       12 beta electrons
       nuclear repulsion energy        44.7031320124 Hartrees.
 NAtoms=    4 NActive=    4 NUniq=    4 SFac= 1.00D+00 NAtFMM=   50 NAOKFM=F Big=F
 One-electron integrals computed using PRISM.
 NBasis=   142 RedAO= T  NBF=   142
 NBsUse=   142 1.00D-06 NBFU=   142
 Harris functional with IExCor=  205 diagonalized for initial guess.
 ExpMin= 2.53D-02 ExpMax= 3.74D+05 ExpMxC= 1.18D+03 IAcc=3 IRadAn=         0 AccDes= 0.00D+00
 HarFok:  IExCor=  205 AccDes= 0.00D+00 IRadAn=         0 IDoV= 1
 ScaDFX=  1.000000  1.000000  1.000000  1.000000
 FoFCou: FMM=F IPFlag=           0 FMFlag=      100000 FMFlg1=           0
         NFxFlg=           0 DoJE=T BraDBF=F KetDBF=T FulRan=T
         Omega=  0.000000  0.000000  1.000000  0.000000  0.000000 ICntrl=     500 IOpCl=  0
         NMat0=    1 NMatS0=    1 NMatT0=    0 NMatD0=    1 NMtDS0=    0 NMtDT0=    0
         I1Cent=           4 NGrid=           0.
 Symmetry not used in FoFCou.
 Requested convergence on RMS density matrix=1.00D-08 within 128 cycles.
 Requested convergence on MAX density matrix=1.00D-06.
 Requested convergence on             energy=1.00D-06.
 No special actions if energy rises.
 Keep R1 ints in memory in canonical form, NReq=93884347.
 SCF Done:  E(RHF) =  -436.557562745     A.U. after   11 cycles
             Convg  =    0.6349D-08             -V/T =  2.0003
 ExpMin= 2.53D-02 ExpMax= 3.74D+05 ExpMxC= 1.18D+03 IAcc=3 IRadAn=         5 AccDes= 0.00D+00
 HarFok:  IExCor=  205 AccDes= 0.00D+00 IRadAn=         5 IDoV=-2
 ScaDFX=  1.000000  1.000000  1.000000  1.000000
 Range of M.O.s used for correlation:     7   142
 NBasis=   142 NAE=    12 NBE=    12 NFC=     6 NFV=     0
 NROrb=    136 NOA=     6 NOB=     6 NVA=   130 NVB=   130

 **** Warning!!: The largest alpha MO coefficient is  0.44079876D+02

 Semi-Direct transformation.
 ModeAB=           2 MOrb=             6 LenV=    1073081967
 LASXX=      7286295 LTotXX=     7286295 LenRXX=     7286295
 LTotAB=     7445736 MaxLAS=    11040480 LenRXY=    11040480
 NonZer=    14572590 LenScr=    22628352 LnRSAI=           0
 LnScr1=           0 LExtra=           0 Total=     40955127
 MaxDsk=          -1 SrtSym=           F ITran=            4
 JobTyp=0 Pass  1:  I=   1 to   6.
 (rs|ai) integrals will be sorted in core.
 Spin components of T(2) and E(2):
     alpha-alpha T2 =       0.1684067962D-01 E2=     -0.3867757741D-01
     alpha-beta  T2 =       0.1052230216D+00 E2=     -0.2635215277D+00
     beta-beta   T2 =       0.1684067962D-01 E2=     -0.3867757741D-01
 ANorm=    0.1067194631D+01
 E2 =    -0.3408766825D+00 EUMP2 =    -0.43689843942777D+03
 R2 and R3 integrals will be kept in memory, NReq=   185320410.
 Iterations=  50 Convergence= 0.100D-07
 Iteration Nr.   1
 **********************
 DD1Dir will call FoFMem   1 times, MxPair=        42
 NAB=    21 NAA=     0 NBB=     0.
 MP4(R+Q)=  0.11664034D-01
 E3=       -0.22811367D-01        EUMP3=      -0.43692125080D+03
 E4(DQ)=    0.16433835D-02        UMP4(DQ)=   -0.43691960741D+03
 E4(SDQ)=  -0.18396738D-02        UMP4(SDQ)=  -0.43692309047D+03
 DE(Corr)= -0.35202402     E(Corr)=     -436.90958676    
 NORM(A)=   0.10738401D+01
 Iteration Nr.   2
 **********************
 DD1Dir will call FoFMem   1 times, MxPair=        42
 NAB=    21 NAA=     0 NBB=     0.
 DE(Corr)= -0.36344635     E(CORR)=     -436.92100909     Delta=-1.14D-02
 NORM(A)=   0.10812087D+01
 Iteration Nr.   3
 **********************
 DD1Dir will call FoFMem   1 times, MxPair=        42
 NAB=    21 NAA=     0 NBB=     0.
 DE(Corr)= -0.36437337     E(CORR)=     -436.92193611     Delta=-9.27D-04
 NORM(A)=   0.10836354D+01
 Iteration Nr.   4
 **********************
 DD1Dir will call FoFMem   1 times, MxPair=        42
 NAB=    21 NAA=     0 NBB=     0.
 DE(Corr)= -0.36570158     E(CORR)=     -436.92326433     Delta=-1.33D-03
 NORM(A)=   0.10846265D+01
 Iteration Nr.   5
 **********************
 DD1Dir will call FoFMem   1 times, MxPair=        42
 NAB=    21 NAA=     0 NBB=     0.
 DE(Corr)= -0.36589914     E(CORR)=     -436.92346189     Delta=-1.98D-04
 NORM(A)=   0.10849881D+01
 Iteration Nr.   6
 **********************
 DD1Dir will call FoFMem   1 times, MxPair=        42
 NAB=    21 NAA=     0 NBB=     0.
 DE(Corr)= -0.36593117     E(CORR)=     -436.92349391     Delta=-3.20D-05
 NORM(A)=   0.10850028D+01
 Iteration Nr.   7
 **********************
 DD1Dir will call FoFMem   1 times, MxPair=        42
 NAB=    21 NAA=     0 NBB=     0.
 DE(Corr)= -0.36593257     E(CORR)=     -436.92349531     Delta=-1.40D-06
 NORM(A)=   0.10850144D+01
 Iteration Nr.   8
 **********************
 DD1Dir will call FoFMem   1 times, MxPair=        42
 NAB=    21 NAA=     0 NBB=     0.
 DE(Corr)= -0.36592961     E(CORR)=     -436.92349235     Delta= 2.96D-06
 NORM(A)=   0.10850135D+01
 Iteration Nr.   9
 **********************
 DD1Dir will call FoFMem   1 times, MxPair=        42
 NAB=    21 NAA=     0 NBB=     0.
 DE(Corr)= -0.36593206     E(CORR)=     -436.92349480     Delta=-2.45D-06
 NORM(A)=   0.10850148D+01
 Iteration Nr.  10
 **********************
 DD1Dir will call FoFMem   1 times, MxPair=        42
 NAB=    21 NAA=     0 NBB=     0.
 DE(Corr)= -0.36593174     E(CORR)=     -436.92349448     Delta= 3.21D-07
 NORM(A)=   0.10850156D+01
 Iteration Nr.  11
 **********************
 DD1Dir will call FoFMem   1 times, MxPair=        42
 NAB=    21 NAA=     0 NBB=     0.
 DE(Corr)= -0.36593226     E(CORR)=     -436.92349501     Delta=-5.25D-07
 NORM(A)=   0.10850161D+01
 Iteration Nr.  12
 **********************
 DD1Dir will call FoFMem   1 times, MxPair=        42
 NAB=    21 NAA=     0 NBB=     0.
 DE(Corr)= -0.36593237     E(CORR)=     -436.92349512     Delta=-1.08D-07
 NORM(A)=   0.10850165D+01
 Iteration Nr.  13
 **********************
 DD1Dir will call FoFMem   1 times, MxPair=        42
 NAB=    21 NAA=     0 NBB=     0.
 DE(Corr)= -0.36593246     E(CORR)=     -436.92349521     Delta=-9.04D-08
 NORM(A)=   0.10850167D+01
 Iteration Nr.  14
 **********************
 DD1Dir will call FoFMem   1 times, MxPair=        42
 NAB=    21 NAA=     0 NBB=     0.
 DE(Corr)= -0.36593249     E(CORR)=     -436.92349524     Delta=-2.91D-08
 NORM(A)=   0.10850167D+01
 Iteration Nr.  15
 **********************
 DD1Dir will call FoFMem   1 times, MxPair=        42
 NAB=    21 NAA=     0 NBB=     0.
 DE(Corr)= -0.36593250     E(CORR)=     -436.92349524     Delta=-8.85D-09
 NORM(A)=   0.10850168D+01
 Iteration Nr.  16
 **********************
 DD1Dir will call FoFMem   1 times, MxPair=        42
 NAB=    21 NAA=     0 NBB=     0.
 DE(Corr)= -0.36593250     E(CORR)=     -436.92349525     Delta=-1.42D-09
 NORM(A)=   0.10850168D+01
 Dominant configurations:
 ***********************
 Spin Case        I    J    A    B          Value
   ABAB          11   11   14   14      -0.114483D+00
 Largest amplitude= 1.14D-01

 Z-AMPLITUDE ITERATIONS

 Iteration Nr.   1
 **********************
 DD1Dir will call FoFMem   1 times, MxPair=        42
 NAB=    21 NAA=     0 NBB=     0.
 DE(Z)  -0.34991429D+00          E(Z)=    -0.43690747704D+03
 NORM(A)=   0.10850140D+01
 Iteration Nr.   2
 **********************
 DD1Dir will call FoFMem   1 times, MxPair=        42
 NAB=    21 NAA=     0 NBB=     0.
 DE(Z)  -0.34991417D+00          E(Z)=    -0.43690747691D+03
 NORM(A)=   0.10850184D+01
 Iteration Nr.   3
 **********************
 DD1Dir will call FoFMem   1 times, MxPair=        42
 NAB=    21 NAA=     0 NBB=     0.
 DE(Z)  -0.34991437D+00          E(Z)=    -0.43690747711D+03
 NORM(A)=   0.10850146D+01
 Iteration Nr.   4
 **********************
 DD1Dir will call FoFMem   1 times, MxPair=        42
 NAB=    21 NAA=     0 NBB=     0.
 DE(Z)  -0.34991419D+00          E(Z)=    -0.43690747693D+03
 NORM(A)=   0.10850147D+01
 Iteration Nr.   5
 **********************
 DD1Dir will call FoFMem   1 times, MxPair=        42
 NAB=    21 NAA=     0 NBB=     0.
 DE(Z)  -0.34991420D+00          E(Z)=    -0.43690747694D+03
 NORM(A)=   0.10769221D+01
 Iteration Nr.   6
 **********************
 DD1Dir will call FoFMem   1 times, MxPair=        42
 NAB=    21 NAA=     0 NBB=     0.
 DE(Z)  -0.34953661D+00          E(Z)=    -0.43690709935D+03
 NORM(A)=   0.10768328D+01
 Iteration Nr.   7
 **********************
 DD1Dir will call FoFMem   1 times, MxPair=        42
 NAB=    21 NAA=     0 NBB=     0.
 DE(Z)  -0.34951764D+00          E(Z)=    -0.43690708039D+03
 NORM(A)=   0.10768014D+01
 Iteration Nr.   8
 **********************
 DD1Dir will call FoFMem   1 times, MxPair=        42
 NAB=    21 NAA=     0 NBB=     0.
 DE(Z)  -0.34951439D+00          E(Z)=    -0.43690707714D+03
 NORM(A)=   0.10767939D+01
 Iteration Nr.   9
 **********************
 DD1Dir will call FoFMem   1 times, MxPair=        42
 NAB=    21 NAA=     0 NBB=     0.
 DE(Z)  -0.34951277D+00          E(Z)=    -0.43690707552D+03
 NORM(A)=   0.10767936D+01
 Iteration Nr.  10
 **********************
 DD1Dir will call FoFMem   1 times, MxPair=        42
 NAB=    21 NAA=     0 NBB=     0.
 DE(Z)  -0.34951308D+00          E(Z)=    -0.43690707583D+03
 NORM(A)=   0.10767938D+01
 Iteration Nr.  11
 **********************
 DD1Dir will call FoFMem   1 times, MxPair=        42
 NAB=    21 NAA=     0 NBB=     0.
 DE(Z)  -0.34951301D+00          E(Z)=    -0.43690707576D+03
 NORM(A)=   0.10767937D+01
 Iteration Nr.  12
 **********************
 DD1Dir will call FoFMem   1 times, MxPair=        42
 NAB=    21 NAA=     0 NBB=     0.
 DE(Z)  -0.34951302D+00          E(Z)=    -0.43690707576D+03
 NORM(A)=   0.10767938D+01
 Iteration Nr.  13
 **********************
 DD1Dir will call FoFMem   1 times, MxPair=        42
 NAB=    21 NAA=     0 NBB=     0.
 DE(Z)  -0.34951302D+00          E(Z)=    -0.43690707577D+03
 NORM(A)=   0.10767938D+01
 Iteration Nr.  14
 **********************
 DD1Dir will call FoFMem   1 times, MxPair=        42
 NAB=    21 NAA=     0 NBB=     0.
 DE(Z)  -0.34951302D+00          E(Z)=    -0.43690707576D+03
 NORM(A)=   0.10767938D+01
 Discarding MO integrals.
          Differentiating once with respect to electric field.
                with respect to dipole field.
          Electric field/nuclear overlap derivatives assumed to be zero.
          Keep R1 ints in memory in canonical form, NReq=93478140.
          There are     1 degrees of freedom in the 1st order CPHF.  IDoFFX=0.
 LinEq1:  Iter=  0 NonCon=     1 RMS=2.95D-03 Max=4.33D-02
 AX will form     1 AO Fock derivatives at one time.
 LinEq1:  Iter=  1 NonCon=     1 RMS=9.86D-04 Max=1.21D-02
 LinEq1:  Iter=  2 NonCon=     1 RMS=4.76D-04 Max=1.32D-02
 LinEq1:  Iter=  3 NonCon=     1 RMS=1.60D-04 Max=2.47D-03
 LinEq1:  Iter=  4 NonCon=     1 RMS=3.99D-05 Max=5.26D-04
 LinEq1:  Iter=  5 NonCon=     1 RMS=8.74D-06 Max=9.95D-05
 LinEq1:  Iter=  6 NonCon=     1 RMS=1.55D-06 Max=2.20D-05
 LinEq1:  Iter=  7 NonCon=     1 RMS=2.02D-07 Max=2.70D-06
 LinEq1:  Iter=  8 NonCon=     1 RMS=2.34D-08 Max=2.27D-07
 LinEq1:  Iter=  9 NonCon=     1 RMS=3.92D-09 Max=3.97D-08
 LinEq1:  Iter= 10 NonCon=     1 RMS=7.23D-10 Max=1.17D-08
 LinEq1:  Iter= 11 NonCon=     1 RMS=1.93D-10 Max=4.57D-09
 LinEq1:  Iter= 12 NonCon=     0 RMS=5.57D-11 Max=6.05D-10
 Linear equations converged to 1.000D-10 1.000D-09 after    12 iterations.
 End of Minotr Frequency-dependent properties file   721 does not exist.
 End of Minotr Frequency-dependent properties file   722 does not exist.

 **********************************************************************

            Population analysis using the QCI/CC density.

 **********************************************************************

     Natural Orbital Coefficients:
                           1         2         3         4         5
     Eigenvalues --     2.00003   2.00002   2.00001   2.00000   2.00000
   1 1   C  1S          0.00000  -0.15977  -0.45338   0.85339  -0.05741
   2        2S          0.00000   0.00306   0.00798  -0.01039   0.00070
   3        3S          0.00000  -0.00638  -0.01850   0.03559  -0.00240
   4        4S          0.00000  -0.00361  -0.00077  -0.00331   0.00036
   5        5S          0.00000  -0.00058  -0.00157  -0.00006   0.00000
   6        6PX         0.00000  -0.00001  -0.00003  -0.00009  -0.00134
   7        6PY        -0.00066   0.00000   0.00000   0.00000   0.00000
   8        6PZ         0.00000   0.00110   0.00170   0.00193  -0.00015
   9        7PX         0.00000   0.00001   0.00001  -0.00011  -0.00114
  10        7PY        -0.00139   0.00000   0.00000   0.00000   0.00000
  11        7PZ         0.00000   0.00012   0.00129  -0.00087   0.00007
  12        8PX         0.00000   0.00000  -0.00001  -0.00002  -0.00048
  13        8PY         0.01585   0.00000   0.00000   0.00000   0.00000
  14        8PZ         0.00000  -0.00595  -0.00154  -0.00300   0.00039
  15        9PX         0.00000   0.00000   0.00000   0.00000  -0.00001
  16        9PY         0.00134   0.00000   0.00000   0.00000   0.00000
  17        9PZ         0.00000  -0.00002  -0.00017  -0.00018   0.00004
  18       10D 0        0.00000  -0.00002   0.00000   0.00030  -0.00002
  19       10D+1        0.00000   0.00000   0.00000  -0.00001  -0.00020
  20       10D-1       -0.00032   0.00000   0.00000   0.00000   0.00000
  21       10D+2        0.00000   0.00010   0.00027  -0.00054   0.00004
  22       10D-2        0.00000   0.00000   0.00000   0.00000   0.00000
  23       11D 0        0.00000  -0.00083   0.00054  -0.00134   0.00010
  24       11D+1        0.00000   0.00001   0.00000   0.00013   0.00160
  25       11D-1        0.00014   0.00000   0.00000   0.00000   0.00000
  26       11D+2        0.00000  -0.00028  -0.00029   0.00019  -0.00003
  27       11D-2       -0.00002   0.00000   0.00000   0.00000   0.00000
  28       12D 0        0.00000  -0.00329  -0.00247  -0.00156   0.00012
  29       12D+1        0.00000  -0.00001  -0.00002  -0.00006  -0.00106
  30       12D-1       -0.00424   0.00000   0.00000   0.00000   0.00000
  31       12D+2        0.00000  -0.00146  -0.00091  -0.00056   0.00002
  32       12D-2       -0.00007   0.00000   0.00000   0.00000   0.00000
  33       13F 0        0.00000   0.00001   0.00009   0.00052  -0.00004
  34       13F+1        0.00000   0.00000   0.00000  -0.00001  -0.00015
  35       13F-1       -0.00036   0.00000   0.00000   0.00000   0.00000
  36       13F+2        0.00000  -0.00010  -0.00022   0.00053  -0.00004
  37       13F-2        0.00000   0.00000   0.00000   0.00000   0.00000
  38       13F+3        0.00000   0.00000   0.00000   0.00001   0.00001
  39       13F-3        0.00001   0.00000   0.00000   0.00000   0.00000
  40       14F 0        0.00000   0.00077   0.00156  -0.00088   0.00008
  41       14F+1        0.00000  -0.00001  -0.00001   0.00008   0.00129
  42       14F-1        0.00197   0.00000   0.00000   0.00000   0.00000
  43       14F+2        0.00000   0.00067   0.00106  -0.00084   0.00005
  44       14F-2        0.00000   0.00000   0.00000   0.00000   0.00000
  45       14F+3        0.00000  -0.00001  -0.00002   0.00002   0.00045
  46       14F-3       -0.00017   0.00000   0.00000   0.00000   0.00000
  47 2   S  1S          0.00000  -0.20713   0.19162   0.06279  -0.00519
  48        2S          0.00000   0.70746  -0.66044  -0.21599   0.01789
  49        3S          0.00000  -0.02027   0.01026   0.00296  -0.00022
  50        4S          0.00000   0.04744  -0.04708  -0.01608   0.00134
  51        5S          0.00000   0.00733   0.00708   0.00835  -0.00079
  52        6S          0.00000   0.00006   0.00039   0.00141  -0.00015
  53        7PX         0.00000  -0.00188   0.00260   0.06624   0.96922
  54        7PY         0.97717   0.00000   0.00000   0.00000   0.00000
  55        7PZ         0.00000   0.66575   0.56959   0.42319  -0.02915
  56        8PX         0.00000   0.00004  -0.00003  -0.00074  -0.01101
  57        8PY        -0.02057   0.00000   0.00000   0.00000   0.00000
  58        8PZ         0.00000  -0.01193  -0.00781  -0.00669   0.00049
  59        9PX         0.00000  -0.00012   0.00016   0.00427   0.06281
  60        9PY         0.05564   0.00000   0.00000   0.00000   0.00000
  61        9PZ         0.00000   0.04067   0.03668   0.02761  -0.00193
  62       10PX         0.00000   0.00008   0.00005   0.00014   0.00190
  63       10PY        -0.00639   0.00000   0.00000   0.00000   0.00000
  64       10PZ         0.00000  -0.00716  -0.00129  -0.00384   0.00038
  65       11PX         0.00000   0.00000   0.00000  -0.00005  -0.00070
  66       11PY        -0.00127   0.00000   0.00000   0.00000   0.00000
  67       11PZ         0.00000  -0.00006   0.00002  -0.00022   0.00001
  68       12D 0        0.00000   0.00216   0.00175   0.00221  -0.00016
  69       12D+1        0.00000  -0.00003  -0.00001   0.00012   0.00218
  70       12D-1        0.00269   0.00000   0.00000   0.00000   0.00000
  71       12D+2        0.00000  -0.00053  -0.00005   0.00033  -0.00004
  72       12D-2       -0.00002   0.00000   0.00000   0.00000   0.00000
  73       13D 0        0.00000   0.00002  -0.00031  -0.00038   0.00003
  74       13D+1        0.00000   0.00000   0.00001  -0.00001  -0.00020
  75       13D-1       -0.00054   0.00000   0.00000   0.00000   0.00000
  76       13D+2        0.00000   0.00037  -0.00029  -0.00012   0.00001
  77       13D-2        0.00000   0.00000   0.00000   0.00000   0.00000
  78       14D 0        0.00000   0.00096  -0.00028   0.00075  -0.00007
  79       14D+1        0.00000  -0.00003  -0.00002  -0.00004  -0.00066
  80       14D-1       -0.00058   0.00000   0.00000   0.00000   0.00000
  81       14D+2        0.00000   0.00035   0.00008   0.00004   0.00001
  82       14D-2        0.00002   0.00000   0.00000   0.00000   0.00000
  83       15F 0        0.00000  -0.00018  -0.00011   0.00014  -0.00001
  84       15F+1        0.00000   0.00000   0.00000  -0.00002  -0.00033
  85       15F-1       -0.00014   0.00000   0.00000   0.00000   0.00000
  86       15F+2        0.00000   0.00014   0.00019   0.00007   0.00000
  87       15F-2        0.00000   0.00000   0.00000   0.00000   0.00000
  88       15F+3        0.00000   0.00000   0.00000   0.00001   0.00016
  89       15F-3        0.00010   0.00000   0.00000   0.00000   0.00000
  90       16F 0        0.00000  -0.00041  -0.00027  -0.00077   0.00005
  91       16F+1        0.00000   0.00001   0.00001  -0.00002  -0.00047
  92       16F-1       -0.00084   0.00000   0.00000   0.00000   0.00000
  93       16F+2        0.00000  -0.00004   0.00000  -0.00028   0.00002
  94       16F-2        0.00001   0.00000   0.00000   0.00000   0.00000
  95       16F+3        0.00000   0.00000   0.00000  -0.00001  -0.00019
  96       16F-3       -0.00024   0.00000   0.00000   0.00000   0.00000
  97 3   H  1S         -0.00042  -0.00009   0.00015  -0.00120   0.00009
  98        2S          0.00045  -0.00128  -0.00116  -0.00175   0.00011
  99        3S          0.01831  -0.00344   0.00005  -0.00366   0.00032
 100        4S          0.00057   0.00007   0.00016  -0.00016   0.00002
 101        5PX         0.00000   0.00000   0.00000  -0.00001  -0.00006
 102        5PY        -0.00001   0.00001   0.00008  -0.00038   0.00003
 103        5PZ         0.00012   0.00004   0.00009  -0.00017   0.00002
 104        6PX         0.00000  -0.00002  -0.00003   0.00003   0.00038
 105        6PY        -0.00003   0.00008   0.00029  -0.00094   0.00007
 106        6PZ        -0.00074   0.00006   0.00039  -0.00062   0.00002
 107        7PX         0.00003  -0.00002  -0.00001  -0.00006  -0.00069
 108        7PY         0.00382   0.00044   0.00090  -0.00043   0.00005
 109        7PZ         0.00162  -0.00151  -0.00070  -0.00122   0.00007
 110        8D 0        0.00011   0.00004   0.00007   0.00009  -0.00001
 111        8D+1        0.00000   0.00000   0.00000   0.00000  -0.00002
 112        8D-1        0.00000   0.00004   0.00014  -0.00030   0.00002
 113        8D+2        0.00003  -0.00004  -0.00011   0.00022  -0.00002
 114        8D-2        0.00000   0.00000   0.00000   0.00000   0.00004
 115        9D 0       -0.00002   0.00007   0.00038  -0.00017   0.00001
 116        9D+1       -0.00001  -0.00001  -0.00001   0.00002   0.00045
 117        9D-1       -0.00047  -0.00026  -0.00024  -0.00032   0.00001
 118        9D+2        0.00019  -0.00021  -0.00030   0.00030  -0.00002
 119        9D-2        0.00000   0.00000   0.00001  -0.00001  -0.00015
 120 4   H  1S          0.00042  -0.00009   0.00015  -0.00120   0.00009
 121        2S         -0.00045  -0.00128  -0.00116  -0.00175   0.00011
 122        3S         -0.01831  -0.00344   0.00005  -0.00366   0.00032
 123        4S         -0.00057   0.00007   0.00016  -0.00016   0.00002
 124        5PX         0.00000   0.00000   0.00000  -0.00001  -0.00006
 125        5PY        -0.00001  -0.00001  -0.00008   0.00038  -0.00003
 126        5PZ        -0.00012   0.00004   0.00009  -0.00017   0.00002
 127        6PX         0.00000  -0.00002  -0.00003   0.00003   0.00038
 128        6PY        -0.00003  -0.00008  -0.00029   0.00094  -0.00007
 129        6PZ         0.00074   0.00006   0.00039  -0.00062   0.00002
 130        7PX        -0.00003  -0.00002  -0.00001  -0.00006  -0.00069
 131        7PY         0.00382  -0.00044  -0.00090   0.00043  -0.00005
 132        7PZ        -0.00162  -0.00151  -0.00070  -0.00122   0.00007
 133        8D 0       -0.00011   0.00004   0.00007   0.00009  -0.00001
 134        8D+1        0.00000   0.00000   0.00000   0.00000  -0.00002
 135        8D-1        0.00000  -0.00004  -0.00014   0.00030  -0.00002
 136        8D+2       -0.00003  -0.00004  -0.00011   0.00022  -0.00002
 137        8D-2        0.00000   0.00000   0.00000   0.00000  -0.00004
 138        9D 0        0.00002   0.00007   0.00038  -0.00017   0.00001
 139        9D+1        0.00001  -0.00001  -0.00001   0.00002   0.00045
 140        9D-1       -0.00047   0.00026   0.00024   0.00032  -0.00001
 141        9D+2       -0.00019  -0.00021  -0.00030   0.00030  -0.00002
 142        9D-2        0.00000   0.00000  -0.00001   0.00001   0.00015
                           6         7         8         9        10
     Eigenvalues --     2.00000   1.97243   1.96168   1.95911   1.94155
   1 1   C  1S         -0.00024  -0.13847   0.07870   0.00000   0.06003
   2        2S         -0.00002   0.37064  -0.22032   0.00000  -0.16612
   3        3S          0.00000   0.08228  -0.05222   0.00000  -0.03860
   4        4S         -0.00020   0.24940  -0.22162   0.00000  -0.08744
   5        5S         -0.00011   0.01884   0.00524   0.00000  -0.00559
   6        6PX         0.00000  -0.00116   0.00101   0.00000   0.00033
   7        6PY         0.00000   0.00000   0.00000   0.24768   0.00000
   8        6PZ         0.00001   0.01413   0.16539   0.00000  -0.18342
   9        7PX         0.00000  -0.00162   0.00142   0.00000   0.00039
  10        7PY         0.00000   0.00000   0.00000   0.33921   0.00000
  11        7PZ        -0.00009   0.00527   0.21404   0.00000  -0.23359
  12        8PX         0.00000  -0.00073   0.00091   0.00000   0.00023
  13        8PY         0.00000   0.00000   0.00000   0.22514   0.00000
  14        8PZ         0.00004  -0.03162   0.10247   0.00000  -0.12992
  15        9PX         0.00000   0.00000   0.00000   0.00000   0.00001
  16        9PY         0.00000   0.00000   0.00000   0.00612   0.00000
  17        9PZ        -0.00002   0.00164   0.00753   0.00000  -0.00629
  18       10D 0       -0.00001   0.00849   0.00889   0.00000  -0.01086
  19       10D+1        0.00000  -0.00003  -0.00016   0.00000   0.00016
  20       10D-1        0.00000   0.00000   0.00000  -0.01422   0.00000
  21       10D+2        0.00000  -0.00706   0.00992   0.00000  -0.00307
  22       10D-2        0.00000   0.00000   0.00000  -0.00031   0.00000
  23       11D 0       -0.00005   0.00972   0.01563   0.00000  -0.01363
  24       11D+1        0.00000   0.00005  -0.00032   0.00000   0.00026
  25       11D-1        0.00000   0.00000   0.00000  -0.03873   0.00000
  26       11D+2        0.00001  -0.01771   0.02556   0.00000  -0.00827
  27       11D-2        0.00000   0.00000   0.00000  -0.00084   0.00000
  28       12D 0        0.00001  -0.01051  -0.00262   0.00000  -0.00175
  29       12D+1        0.00000   0.00004  -0.00020   0.00000   0.00023
  30       12D-1        0.00000   0.00000   0.00000  -0.03718   0.00000
  31       12D+2        0.00003  -0.00420   0.00333   0.00000  -0.00397
  32       12D-2        0.00000   0.00000   0.00000  -0.00029   0.00000
  33       13F 0        0.00000   0.00585   0.00136   0.00000  -0.00510
  34       13F+1        0.00000  -0.00009   0.00001   0.00000   0.00006
  35       13F-1        0.00000   0.00000   0.00000   0.00561   0.00000
  36       13F+2        0.00000   0.00386  -0.00223   0.00000  -0.00028
  37       13F-2        0.00000   0.00000   0.00000   0.00002   0.00000
  38       13F+3        0.00000   0.00007  -0.00005   0.00000  -0.00001
  39       13F-3        0.00000   0.00000   0.00000  -0.00232   0.00000
  40       14F 0       -0.00001   0.00565  -0.00588   0.00000   0.00009
  41       14F+1        0.00000   0.00003  -0.00012   0.00000   0.00007
  42       14F-1        0.00000   0.00000   0.00000   0.00328   0.00000
  43       14F+2        0.00000   0.00736  -0.00721   0.00000   0.00022
  44       14F-2        0.00000   0.00000   0.00000   0.00032   0.00000
  45       14F+3        0.00000   0.00005  -0.00015   0.00000   0.00011
  46       14F-3        0.00000   0.00000   0.00000  -0.00295   0.00000
  47 2   S  1S          0.99624   0.04566   0.04848   0.00000   0.02728
  48        2S          0.01376  -0.17653  -0.18418   0.00000  -0.10593
  49        3S          0.00032   0.36359   0.39959   0.00000   0.23711
  50        4S          0.00002   0.04550   0.05480   0.00000   0.03424
  51        5S         -0.00011   0.19452   0.21233   0.00000   0.31954
  52        6S          0.00004  -0.01530  -0.02871   0.00000   0.05931
  53        7PX        -0.00001   0.00001  -0.00060   0.00000   0.00084
  54        7PY         0.00000   0.00000   0.00000  -0.03900   0.00000
  55        7PZ         0.00112   0.04160   0.02187   0.00000  -0.18228
  56        8PX         0.00000  -0.00043   0.00134   0.00000  -0.00170
  57        8PY         0.00000   0.00000   0.00000   0.08996   0.00000
  58        8PZ        -0.00015  -0.05434  -0.02943   0.00000   0.38706
  59        9PX         0.00000  -0.00010   0.00052   0.00000  -0.00075
  60        9PY         0.00000   0.00000   0.00000   0.03903   0.00000
  61        9PZ         0.00014  -0.02945  -0.01710   0.00000   0.17545
  62       10PX         0.00000  -0.00038   0.00050   0.00000  -0.00022
  63       10PY         0.00000   0.00000   0.00000   0.03093   0.00000
  64       10PZ         0.00006   0.01366   0.00666   0.00000   0.12024
  65       11PX         0.00000  -0.00007  -0.00003   0.00000   0.00008
  66       11PY         0.00000   0.00000   0.00000  -0.00183   0.00000
  67       11PZ         0.00000   0.00600   0.00561   0.00000  -0.00312
  68       12D 0        0.00006   0.01215   0.00108   0.00000  -0.02884
  69       12D+1        0.00000   0.00003  -0.00029   0.00000   0.00038
  70       12D-1        0.00000   0.00000   0.00000  -0.02224   0.00000
  71       12D+2       -0.00001   0.00036   0.00145   0.00000  -0.00053
  72       12D-2        0.00000   0.00000   0.00000   0.00002   0.00000
  73       13D 0        0.00001   0.02226   0.01011   0.00000  -0.04666
  74       13D+1        0.00000  -0.00013  -0.00029   0.00000   0.00054
  75       13D-1        0.00000   0.00000   0.00000  -0.02180   0.00000
  76       13D+2        0.00001   0.00109   0.00141   0.00000  -0.00016
  77       13D-2        0.00000   0.00000   0.00000   0.00011   0.00000
  78       14D 0       -0.00004  -0.00882  -0.00480   0.00000   0.00209
  79       14D+1        0.00000   0.00010   0.00002   0.00000  -0.00005
  80       14D-1        0.00000   0.00000   0.00000  -0.00220   0.00000
  81       14D+2        0.00000  -0.00120  -0.00211   0.00000  -0.00057
  82       14D-2        0.00000   0.00000   0.00000   0.00005   0.00000
  83       15F 0       -0.00002  -0.00776  -0.00498   0.00000   0.01365
  84       15F+1        0.00000   0.00007   0.00015   0.00000  -0.00023
  85       15F-1        0.00000   0.00000   0.00000   0.00859   0.00000
  86       15F+2        0.00000  -0.00041  -0.00042   0.00000   0.00342
  87       15F-2        0.00000   0.00000   0.00000  -0.00005   0.00000
  88       15F+3        0.00000   0.00000   0.00001   0.00000  -0.00002
  89       15F-3        0.00000   0.00000   0.00000   0.00075   0.00000
  90       16F 0        0.00000   0.00348   0.00275   0.00000  -0.00440
  91       16F+1        0.00000  -0.00008  -0.00002   0.00000   0.00006
  92       16F-1        0.00000   0.00000   0.00000   0.00085   0.00000
  93       16F+2        0.00000  -0.00043  -0.00069   0.00000   0.00062
  94       16F-2        0.00000   0.00000   0.00000   0.00004   0.00000
  95       16F+3        0.00000  -0.00001   0.00004   0.00000  -0.00001
  96       16F-3        0.00000   0.00000   0.00000   0.00083   0.00000
  97 3   H  1S          0.00000   0.06787  -0.10076  -0.14033   0.03331
  98        2S          0.00001   0.05030  -0.10033  -0.15697   0.04789
  99        3S          0.00013  -0.03418   0.01620   0.07285   0.01524
 100        4S          0.00001  -0.00032   0.00313   0.00299  -0.00154
 101        5PX         0.00000   0.00004  -0.00008  -0.00012   0.00004
 102        5PY         0.00000   0.00538  -0.00951  -0.00803   0.00362
 103        5PZ         0.00000   0.00333  -0.00321  -0.00842  -0.00106
 104        6PX         0.00000  -0.00017   0.00006  -0.00011   0.00009
 105        6PY         0.00000  -0.00375  -0.00199   0.01278   0.00229
 106        6PZ         0.00000  -0.00355   0.00860  -0.00091  -0.00943
 107        7PX         0.00000  -0.00018   0.00009   0.00038   0.00004
 108        7PY         0.00001  -0.01056   0.01482   0.03072  -0.00164
 109        7PZ         0.00003  -0.01366   0.00498   0.01280   0.00126
 110        8D 0        0.00000   0.00026   0.00136  -0.00134  -0.00161
 111        8D+1        0.00000   0.00000  -0.00001  -0.00004   0.00001
 112        8D-1        0.00000   0.00040  -0.00100  -0.00245   0.00001
 113        8D+2        0.00000  -0.00056   0.00157   0.00009  -0.00078
 114        8D-2        0.00000   0.00000  -0.00003  -0.00001   0.00002
 115        9D 0        0.00000  -0.00004  -0.00033  -0.00185  -0.00046
 116        9D+1        0.00000  -0.00004  -0.00001   0.00003   0.00003
 117        9D-1       -0.00001  -0.00381   0.00342   0.00340  -0.00062
 118        9D+2        0.00000   0.00152  -0.00068  -0.00299  -0.00023
 119        9D-2        0.00000  -0.00006   0.00007   0.00001  -0.00001
 120 4   H  1S          0.00000   0.06787  -0.10076   0.14033   0.03331
 121        2S          0.00001   0.05030  -0.10033   0.15697   0.04789
 122        3S          0.00013  -0.03418   0.01620  -0.07285   0.01524
 123        4S          0.00001  -0.00032   0.00313  -0.00299  -0.00154
 124        5PX         0.00000   0.00004  -0.00008   0.00012   0.00004
 125        5PY         0.00000  -0.00538   0.00951  -0.00803  -0.00362
 126        5PZ         0.00000   0.00333  -0.00321   0.00842  -0.00106
 127        6PX         0.00000  -0.00017   0.00006   0.00011   0.00009
 128        6PY         0.00000   0.00375   0.00199   0.01278  -0.00229
 129        6PZ         0.00000  -0.00355   0.00860   0.00091  -0.00943
 130        7PX         0.00000  -0.00018   0.00009  -0.00038   0.00004
 131        7PY        -0.00001   0.01056  -0.01482   0.03072   0.00164
 132        7PZ         0.00003  -0.01366   0.00498  -0.01280   0.00126
 133        8D 0        0.00000   0.00026   0.00136   0.00134  -0.00161
 134        8D+1        0.00000   0.00000  -0.00001   0.00004   0.00001
 135        8D-1        0.00000  -0.00040   0.00100  -0.00245  -0.00001
 136        8D+2        0.00000  -0.00056   0.00157  -0.00009  -0.00078
 137        8D-2        0.00000   0.00000   0.00003  -0.00001  -0.00002
 138        9D 0        0.00000  -0.00004  -0.00033   0.00185  -0.00046
 139        9D+1        0.00000  -0.00004  -0.00001  -0.00003   0.00003
 140        9D-1        0.00001   0.00381  -0.00342   0.00340   0.00062
 141        9D+2        0.00000   0.00152  -0.00068   0.00299  -0.00023
 142        9D-2        0.00000   0.00006  -0.00007   0.00001   0.00001
                          11        12        13        14        15
     Eigenvalues --     1.94077   1.89917   0.08406   0.03696   0.02642
   1 1   C  1S          0.00000  -0.00133   0.00157  -0.11157   0.00000
   2        2S          0.00000   0.00369  -0.00503   0.38435   0.00000
   3        3S          0.00000   0.00087  -0.00193   0.15495   0.00000
   4        4S          0.00000   0.00350  -0.00247   0.15640   0.00000
   5        5S          0.00000   0.00061   0.00055   0.09701   0.00000
   6        6PX         0.00000   0.19013  -0.30156  -0.00202   0.00000
   7        6PY        -0.04032   0.00000   0.00000   0.00000   0.26242
   8        6PZ         0.00000  -0.00027   0.00046   0.27303   0.00000
   9        7PX         0.00000   0.26563  -0.45881  -0.00322   0.00000
  10        7PY        -0.05314   0.00000   0.00000   0.00000   0.61539
  11        7PZ         0.00000  -0.00022   0.00031   0.52863   0.00000
  12        8PX         0.00000   0.17864  -0.20556  -0.00113   0.00000
  13        8PY        -0.00345   0.00000   0.00000   0.00000   0.17039
  14        8PZ         0.00000  -0.00004   0.00026   0.48067   0.00000
  15        9PX         0.00000   0.01322  -0.00563  -0.00011   0.00000
  16        9PY        -0.00203   0.00000   0.00000   0.00000  -0.00658
  17        9PZ         0.00000  -0.00001   0.00005   0.03817   0.00000
  18       10D 0        0.00000   0.00008   0.00015   0.00385   0.00000
  19       10D+1        0.00000   0.01135  -0.00307  -0.00008   0.00000
  20       10D-1        0.01840   0.00000   0.00000   0.00000   0.06976
  21       10D+2        0.00000  -0.00008  -0.00029   0.00223   0.00000
  22       10D-2        0.00006   0.00000   0.00000   0.00000   0.00029
  23       11D 0        0.00000   0.00033   0.00013   0.09529   0.00000
  24       11D+1        0.00000   0.03283  -0.03723  -0.00192   0.00000
  25       11D-1        0.03583   0.00000   0.00000   0.00000   0.04496
  26       11D+2        0.00000  -0.00017  -0.00032   0.05646   0.00000
  27       11D-2        0.00008   0.00000   0.00000   0.00000  -0.00126
  28       12D 0        0.00000   0.00046   0.00047   0.08159   0.00000
  29       12D+1        0.00000   0.01107  -0.01436   0.00002   0.00000
  30       12D-1       -0.02252   0.00000   0.00000   0.00000  -0.02004
  31       12D+2        0.00000  -0.00019   0.00067   0.03425   0.00000
  32       12D-2        0.00026   0.00000   0.00000   0.00000   0.00064
  33       13F 0        0.00000   0.00010   0.00000   0.01351   0.00000
  34       13F+1        0.00000   0.00634  -0.00593  -0.00016   0.00000
  35       13F-1        0.00449   0.00000   0.00000   0.00000   0.03293
  36       13F+2        0.00000  -0.00004  -0.00002   0.00238   0.00000
  37       13F-2       -0.00006   0.00000   0.00000   0.00000  -0.00026
  38       13F+3        0.00000   0.00032   0.00010   0.00003   0.00000
  39       13F-3        0.00143   0.00000   0.00000   0.00000  -0.00373
  40       14F 0        0.00000   0.00003  -0.00026  -0.00576   0.00000
  41       14F+1        0.00000   0.00119  -0.01607  -0.00092   0.00000
  42       14F-1        0.00094   0.00000   0.00000   0.00000   0.06763
  43       14F+2        0.00000  -0.00005   0.00003  -0.03521   0.00000
  44       14F-2       -0.00001   0.00000   0.00000   0.00000   0.00030
  45       14F+3        0.00000   0.00061  -0.00503  -0.00050   0.00000
  46       14F-3       -0.00052   0.00000   0.00000   0.00000   0.00408
  47 2   S  1S          0.00000  -0.00015   0.00006  -0.02427   0.00000
  48        2S          0.00000   0.00055  -0.00022   0.07023   0.00000
  49        3S          0.00000  -0.00125   0.00045  -0.24969   0.00000
  50        4S          0.00000  -0.00018   0.00000   0.00117   0.00000
  51        5S          0.00000  -0.00132  -0.00106  -0.77617   0.00000
  52        6S          0.00000  -0.00021  -0.00064  -0.26444   0.00000
  53        7PX         0.00000  -0.17463  -0.20034   0.00084   0.00000
  54        7PY        -0.21560   0.00000   0.00000   0.00000   0.08421
  55        7PZ         0.00000  -0.00132  -0.00029  -0.19479   0.00000
  56        8PX         0.00000   0.39377   0.53025  -0.00327   0.00000
  57        8PY         0.52631   0.00000   0.00000   0.00000  -0.24042
  58        8PZ         0.00000   0.00317   0.00123   0.74084   0.00000
  59        9PX         0.00000   0.15981   0.20749  -0.00075   0.00000
  60        9PY         0.22282   0.00000   0.00000   0.00000  -0.12737
  61        9PZ         0.00000   0.00128   0.00042   0.21016   0.00000
  62       10PX         0.00000   0.20850   0.16196  -0.00398   0.00000
  63       10PY         0.40549   0.00000   0.00000   0.00000   0.09247
  64       10PZ         0.00000   0.00210   0.00091   0.49342   0.00000
  65       11PX         0.00000   0.00447   0.00189  -0.00019   0.00000
  66       11PY         0.04148   0.00000   0.00000   0.00000   0.02509
  67       11PZ         0.00000   0.00012   0.00011   0.03313   0.00000
  68       12D 0        0.00000  -0.00034   0.00063   0.09901   0.00000
  69       12D+1        0.00000  -0.03656   0.03879  -0.00042   0.00000
  70       12D-1        0.00256   0.00000   0.00000   0.00000  -0.28243
  71       12D+2        0.00000   0.00022  -0.00056   0.08725   0.00000
  72       12D-2       -0.00002   0.00000   0.00000   0.00000   0.00279
  73       13D 0        0.00000  -0.00035   0.00079   0.16425   0.00000
  74       13D+1        0.00000  -0.03494   0.05164  -0.00116   0.00000
  75       13D-1       -0.00036   0.00000   0.00000   0.00000  -0.24742
  76       13D+2        0.00000   0.00021  -0.00053   0.05468   0.00000
  77       13D-2        0.00003   0.00000   0.00000   0.00000   0.00240
  78       14D 0        0.00000  -0.00006  -0.00022  -0.06708   0.00000
  79       14D+1        0.00000  -0.00379  -0.01884   0.00119   0.00000
  80       14D-1       -0.01334   0.00000   0.00000   0.00000  -0.03105
  81       14D+2        0.00000   0.00008  -0.00007   0.01422   0.00000
  82       14D-2        0.00005   0.00000   0.00000   0.00000   0.00018
  83       15F 0        0.00000   0.00020  -0.00035  -0.01843   0.00000
  84       15F+1        0.00000   0.01080  -0.01556   0.00032   0.00000
  85       15F-1        0.00368   0.00000   0.00000   0.00000   0.03130
  86       15F+2        0.00000  -0.00009   0.00023  -0.00453   0.00000
  87       15F-2       -0.00004   0.00000   0.00000   0.00000  -0.00043
  88       15F+3        0.00000   0.00380   0.00230   0.00009   0.00000
  89       15F-3        0.00444   0.00000   0.00000   0.00000   0.00350
  90       16F 0        0.00000  -0.00002   0.00011   0.01045   0.00000
  91       16F+1        0.00000  -0.00081   0.00501  -0.00017   0.00000
  92       16F-1        0.00198   0.00000   0.00000   0.00000   0.00115
  93       16F+2        0.00000  -0.00002   0.00010  -0.01211   0.00000
  94       16F-2        0.00000   0.00000   0.00000   0.00000   0.00011
  95       16F+3        0.00000   0.00242   0.00281   0.00018   0.00000
  96       16F-3        0.00333   0.00000   0.00000   0.00000   0.00207
  97 3   H  1S          0.05197  -0.00006   0.00147  -0.03266   0.17836
  98        2S          0.08985  -0.00023   0.00191   0.09007   0.56738
  99        3S          0.16336   0.00018   0.00070   0.26410   0.29274
 100        4S          0.01596   0.00001  -0.00005   0.01209   0.01145
 101        5PX         0.00004   0.00425  -0.01016  -0.00019  -0.00001
 102        5PY         0.00265  -0.00002   0.00019  -0.00707   0.00661
 103        5PZ         0.00048  -0.00005   0.00012   0.00547  -0.01288
 104        6PX         0.00007   0.01441  -0.01682   0.00033   0.00133
 105        6PY        -0.00029  -0.00007  -0.00012   0.02260   0.15178
 106        6PZ        -0.00211  -0.00005   0.00013   0.03799   0.02109
 107        7PX         0.00054   0.00259   0.00879   0.00106   0.00142
 108        7PY         0.01933   0.00006  -0.00038   0.04160   0.07224
 109        7PZ        -0.00104   0.00026   0.00031   0.06346   0.00831
 110        8D 0       -0.00094  -0.00002   0.00005   0.00255  -0.01081
 111        8D+1        0.00000   0.00138  -0.00290   0.00002  -0.00018
 112        8D-1        0.00006  -0.00004   0.00007   0.00257  -0.00415
 113        8D+2       -0.00056   0.00001  -0.00008   0.00196  -0.00757
 114        8D-2        0.00002   0.00145  -0.00485  -0.00009   0.00020
 115        9D 0       -0.00087  -0.00003  -0.00004   0.00191  -0.00472
 116        9D+1        0.00003   0.00030  -0.00061  -0.00016  -0.00001
 117        9D-1       -0.00049   0.00007  -0.00005   0.01148   0.02885
 118        9D+2        0.00060   0.00005   0.00015   0.00151  -0.02319
 119        9D-2        0.00000   0.00279   0.00384   0.00022   0.00072
 120 4   H  1S         -0.05197  -0.00006   0.00147  -0.03266  -0.17836
 121        2S         -0.08985  -0.00023   0.00191   0.09007  -0.56738
 122        3S         -0.16336   0.00018   0.00070   0.26410  -0.29274
 123        4S         -0.01596   0.00001  -0.00005   0.01209  -0.01145
 124        5PX        -0.00004   0.00425  -0.01016  -0.00019   0.00001
 125        5PY         0.00265   0.00002  -0.00019   0.00707   0.00661
 126        5PZ        -0.00048  -0.00005   0.00012   0.00547   0.01288
 127        6PX        -0.00007   0.01441  -0.01682   0.00033  -0.00133
 128        6PY        -0.00029   0.00007   0.00012  -0.02260   0.15178
 129        6PZ         0.00211  -0.00005   0.00013   0.03799  -0.02109
 130        7PX        -0.00054   0.00259   0.00879   0.00106  -0.00142
 131        7PY         0.01933  -0.00006   0.00038  -0.04160   0.07224
 132        7PZ         0.00104   0.00026   0.00031   0.06346  -0.00831
 133        8D 0        0.00094  -0.00002   0.00005   0.00255   0.01081
 134        8D+1        0.00000   0.00138  -0.00290   0.00002   0.00018
 135        8D-1        0.00006   0.00004  -0.00007  -0.00257  -0.00415
 136        8D+2        0.00056   0.00001  -0.00008   0.00196   0.00757
 137        8D-2        0.00002  -0.00145   0.00485   0.00009   0.00020
 138        9D 0        0.00087  -0.00003  -0.00004   0.00191   0.00472
 139        9D+1       -0.00003   0.00030  -0.00061  -0.00016   0.00001
 140        9D-1       -0.00049  -0.00007   0.00005  -0.01148   0.02885
 141        9D+2       -0.00060   0.00005   0.00015   0.00151   0.02319
 142        9D-2        0.00000  -0.00279  -0.00384  -0.00022   0.00072
                          16        17        18        19        20
     Eigenvalues --     0.02024   0.01796   0.01698   0.01596   0.01328
   1 1   C  1S         -0.14783   0.00000   0.08750   0.00000   0.00235
   2        2S          0.56835   0.00000  -0.33247   0.00000  -0.00801
   3        3S          0.30499   0.00000  -0.19339   0.00000  -0.00485
   4        4S          0.14502   0.00000  -0.32886   0.00000  -0.03349
   5        5S         -0.03181   0.00000  -0.08509   0.00000  -0.00562
   6        6PX        -0.00286   0.00000   0.00134   0.00000   0.08623
   7        6PY         0.00000   0.00385   0.00000   0.45423   0.00000
   8        6PZ        -0.31099   0.00000   0.02631   0.00000   0.00430
   9        7PX        -0.00522   0.00000   0.00296   0.00000   0.10831
  10        7PY         0.00000   0.00655   0.00000   0.78086   0.00000
  11        7PZ        -0.55046   0.00000  -0.02751   0.00000   0.00582
  12        8PX        -0.00337   0.00000   0.00273   0.00000   0.04453
  13        8PY         0.00000   0.01035   0.00000   0.55533   0.00000
  14        8PZ        -0.27370   0.00000   0.02270   0.00000   0.01172
  15        9PX        -0.00014   0.00000   0.00020   0.00000  -0.01033
  16        9PY         0.00000   0.00150   0.00000   0.03102   0.00000
  17        9PZ        -0.02644   0.00000  -0.00953   0.00000   0.00023
  18       10D 0       -0.00410   0.00000   0.00538   0.00000  -0.00121
  19       10D+1       -0.00129   0.00000   0.00055   0.00000  -0.14650
  20       10D-1        0.00000  -0.00115   0.00000  -0.08616   0.00000
  21       10D+2        0.03235   0.00000   0.03787   0.00000   0.00009
  22       10D-2        0.00000   0.04318   0.00000   0.00010   0.00000
  23       11D 0       -0.05710   0.00000   0.01876   0.00000  -0.00045
  24       11D+1       -0.00196   0.00000   0.00119   0.00000  -0.26552
  25       11D-1        0.00000  -0.00455   0.00000  -0.33393   0.00000
  26       11D+2        0.03848   0.00000   0.10535   0.00000   0.00401
  27       11D-2        0.00000   0.08474   0.00000  -0.00385   0.00000
  28       12D 0       -0.06199   0.00000  -0.02340   0.00000   0.01087
  29       12D+1       -0.00222   0.00000  -0.00015   0.00000  -0.04385
  30       12D-1        0.00000   0.00314   0.00000  -0.06893   0.00000
  31       12D+2       -0.04738   0.00000   0.01838   0.00000   0.00753
  32       12D-2        0.00000   0.00779   0.00000  -0.00175   0.00000
  33       13F 0       -0.01606   0.00000   0.00300   0.00000  -0.00072
  34       13F+1       -0.00045   0.00000   0.00032   0.00000  -0.05007
  35       13F-1        0.00000   0.00020   0.00000  -0.02207   0.00000
  36       13F+2        0.01795   0.00000   0.02232   0.00000   0.00037
  37       13F-2        0.00000   0.02545   0.00000   0.00006   0.00000
  38       13F+3       -0.00043   0.00000  -0.00019   0.00000  -0.01080
  39       13F-3        0.00000  -0.00022   0.00000  -0.01947   0.00000
  40       14F 0       -0.01144   0.00000  -0.02144   0.00000  -0.00297
  41       14F+1       -0.00045   0.00000  -0.00005   0.00000  -0.02975
  42       14F-1        0.00000   0.00276   0.00000   0.00205   0.00000
  43       14F+2        0.02606   0.00000  -0.01072   0.00000  -0.00209
  44       14F-2        0.00000   0.01989   0.00000   0.00294   0.00000
  45       14F+3        0.00038   0.00000  -0.00061   0.00000  -0.00286
  46       14F-3        0.00000  -0.00022   0.00000  -0.04837   0.00000
  47 2   S  1S          0.00173   0.00000   0.00488   0.00000  -0.00001
  48        2S         -0.00460   0.00000  -0.04187   0.00000   0.00075
  49        3S          0.02167   0.00000   0.01205   0.00000   0.00115
  50        4S         -0.01012   0.00000   0.04107   0.00000  -0.00031
  51        5S          0.39717   0.00000   0.13288   0.00000  -0.01474
  52        6S          0.17391   0.00000   0.09519   0.00000  -0.00111
  53        7PX        -0.00051   0.00000  -0.00014   0.00000   0.03382
  54        7PY         0.00000   0.00015   0.00000   0.03592   0.00000
  55        7PZ        -0.01660   0.00000   0.04905   0.00000   0.00091
  56        8PX         0.00357   0.00000   0.00062   0.00000   0.00193
  57        8PY         0.00000  -0.00117   0.00000  -0.03746   0.00000
  58        8PZ        -0.11867   0.00000  -0.15889   0.00000  -0.00001
  59        9PX         0.00038   0.00000   0.00009   0.00000  -0.06225
  60        9PY         0.00000  -0.00010   0.00000  -0.05462   0.00000
  61        9PZ         0.03549   0.00000  -0.06005   0.00000  -0.00179
  62       10PX         0.00671   0.00000  -0.00001   0.00000   0.19855
  63       10PY         0.00000  -0.00447   0.00000   0.04168   0.00000
  64       10PZ        -0.29666   0.00000  -0.07081   0.00000   0.00590
  65       11PX         0.00044   0.00000   0.00002   0.00000   0.02055
  66       11PY         0.00000  -0.00016   0.00000   0.02976   0.00000
  67       11PZ        -0.02614   0.00000  -0.01141   0.00000   0.00023
  68       12D 0        0.04001   0.00000   0.13365   0.00000   0.00616
  69       12D+1        0.00475   0.00000   0.00150   0.00000   0.44559
  70       12D-1        0.00000   0.01030   0.00000   0.40750   0.00000
  71       12D+2        0.15062   0.00000   0.56820   0.00000  -0.00323
  72       12D-2        0.00000   0.59552   0.00000  -0.01031   0.00000
  73       13D 0       -0.03726   0.00000   0.06243   0.00000   0.00550
  74       13D+1        0.00596   0.00000   0.00123   0.00000   0.42925
  75       13D-1        0.00000   0.00673   0.00000   0.29443   0.00000
  76       13D+2        0.10927   0.00000   0.41101   0.00000  -0.00298
  77       13D-2        0.00000   0.44178   0.00000  -0.00716   0.00000
  78       14D 0        0.06318   0.00000   0.03999   0.00000  -0.00048
  79       14D+1       -0.00257   0.00000   0.00027   0.00000  -0.06807
  80       14D-1        0.00000   0.00278   0.00000   0.06080   0.00000
  81       14D+2        0.01564   0.00000   0.04548   0.00000  -0.00014
  82       14D-2        0.00000   0.04838   0.00000  -0.00095   0.00000
  83       15F 0        0.00129   0.00000   0.00352   0.00000  -0.00096
  84       15F+1       -0.00101   0.00000   0.00001   0.00000  -0.05985
  85       15F-1        0.00000  -0.00051   0.00000   0.00413   0.00000
  86       15F+2       -0.01498   0.00000  -0.02077   0.00000   0.00063
  87       15F-2        0.00000  -0.00727   0.00000  -0.00022   0.00000
  88       15F+3       -0.00020   0.00000   0.00020   0.00000  -0.02176
  89       15F-3        0.00000   0.00004   0.00000  -0.00170   0.00000
  90       16F 0       -0.02823   0.00000  -0.01882   0.00000  -0.00006
  91       16F+1        0.00108   0.00000  -0.00019   0.00000   0.02640
  92       16F-1        0.00000  -0.00087   0.00000  -0.02614   0.00000
  93       16F+2       -0.00838   0.00000  -0.02563   0.00000  -0.00025
  94       16F-2        0.00000  -0.01124   0.00000   0.00079   0.00000
  95       16F+3        0.00000   0.00000   0.00030   0.00000  -0.00913
  96       16F-3        0.00000   0.00005   0.00000   0.00122   0.00000
  97 3   H  1S         -0.23744   0.00054   0.06685   0.07862   0.00165
  98        2S         -0.59906   0.00678   0.23487   0.73119   0.01625
  99        3S         -0.29260   0.00599   0.11871   0.75195   0.02246
 100        4S         -0.01183   0.00151   0.00223   0.05173   0.00084
 101        5PX        -0.00005  -0.00915  -0.00028  -0.00060   0.02594
 102        5PY         0.01828  -0.00013  -0.01060  -0.03336  -0.00100
 103        5PZ        -0.00467   0.00007  -0.01184  -0.02007   0.00003
 104        6PX        -0.00089  -0.01385  -0.00011  -0.00012   0.03831
 105        6PY        -0.05570   0.00193   0.00089   0.10473   0.00052
 106        6PZ        -0.03959  -0.00111   0.01163   0.07087   0.00187
 107        7PX        -0.00157  -0.00121  -0.00005   0.00095  -0.00930
 108        7PY        -0.02125   0.00090   0.01954   0.12470  -0.00080
 109        7PZ        -0.04481   0.00170  -0.00684   0.07987   0.00777
 110        8D 0       -0.00767  -0.00009   0.00145   0.00401   0.00031
 111        8D+1       -0.00014  -0.00327  -0.00013  -0.00019   0.00254
 112        8D-1        0.00602  -0.00011  -0.00552  -0.00918  -0.00005
 113        8D+2       -0.00628  -0.00018   0.00585   0.01011   0.00081
 114        8D-2        0.00008  -0.00777  -0.00031  -0.00042   0.01643
 115        9D 0        0.00354  -0.00043   0.00289  -0.00800  -0.00049
 116        9D+1        0.00009   0.00205  -0.00018   0.00042  -0.00185
 117        9D-1        0.00040  -0.00049  -0.00052   0.00494   0.00029
 118        9D+2        0.00962  -0.00017   0.00976  -0.00335   0.00094
 119        9D-2       -0.00035  -0.00022  -0.00003  -0.00030  -0.00498
 120 4   H  1S         -0.23744  -0.00054   0.06685  -0.07862   0.00165
 121        2S         -0.59906  -0.00678   0.23487  -0.73119   0.01625
 122        3S         -0.29260  -0.00599   0.11871  -0.75195   0.02246
 123        4S         -0.01183  -0.00151   0.00223  -0.05173   0.00084
 124        5PX        -0.00005   0.00915  -0.00028   0.00060   0.02594
 125        5PY        -0.01828  -0.00013   0.01060  -0.03336   0.00100
 126        5PZ        -0.00467  -0.00007  -0.01184   0.02007   0.00003
 127        6PX        -0.00089   0.01385  -0.00011   0.00012   0.03831
 128        6PY         0.05570   0.00193  -0.00089   0.10473  -0.00052
 129        6PZ        -0.03959   0.00111   0.01163  -0.07087   0.00187
 130        7PX        -0.00157   0.00121  -0.00005  -0.00095  -0.00930
 131        7PY         0.02125   0.00090  -0.01954   0.12470   0.00080
 132        7PZ        -0.04481  -0.00170  -0.00684  -0.07987   0.00777
 133        8D 0       -0.00767   0.00009   0.00145  -0.00401   0.00031
 134        8D+1       -0.00014   0.00327  -0.00013   0.00019   0.00254
 135        8D-1       -0.00602  -0.00011   0.00552  -0.00918   0.00005
 136        8D+2       -0.00628   0.00018   0.00585  -0.01011   0.00081
 137        8D-2       -0.00008  -0.00777   0.00031  -0.00042  -0.01643
 138        9D 0        0.00354   0.00043   0.00289   0.00800  -0.00049
 139        9D+1        0.00009  -0.00205  -0.00018  -0.00042  -0.00185
 140        9D-1       -0.00040  -0.00049   0.00052   0.00494  -0.00029
 141        9D+2        0.00962   0.00017   0.00976   0.00335   0.00094
 142        9D-2        0.00035  -0.00022   0.00003  -0.00030   0.00498
                          21        22        23        24        25
     Eigenvalues --     0.01199   0.01025   0.00818   0.00669   0.00645
   1 1   C  1S         -0.01093   0.00000  -0.03450  -0.00059   0.00000
   2        2S          0.01014   0.00000   0.12149   0.00199   0.00000
   3        3S         -0.00284   0.00000   0.11725   0.00177   0.00000
   4        4S          0.12457   0.00000  -0.09703  -0.01186   0.00000
   5        5S          0.06615   0.00000  -0.03736  -0.00189   0.00000
   6        6PX         0.00075   0.00000   0.00055   0.39156   0.00000
   7        6PY         0.00000  -0.14479   0.00000   0.00000  -0.00402
   8        6PZ         0.11607   0.00000  -0.12746   0.00463   0.00000
   9        7PX         0.00121   0.00000   0.00037   0.46070   0.00000
  10        7PY         0.00000  -0.42395   0.00000   0.00000   0.00028
  11        7PZ         0.26147   0.00000  -0.11847   0.00667   0.00000
  12        8PX        -0.00248   0.00000   0.00029  -0.18761   0.00000
  13        8PY         0.00000   1.10699   0.00000   0.00000   0.01048
  14        8PZ        -0.28127   0.00000   0.36588   0.00650   0.00000
  15        9PX        -0.00053   0.00000  -0.00040  -0.01091   0.00000
  16        9PY         0.00000   0.10749   0.00000   0.00000  -0.00242
  17        9PZ        -0.01258   0.00000   0.00613  -0.00035   0.00000
  18       10D 0       -0.18681   0.00000  -0.09186   0.00270   0.00000
  19       10D+1        0.00160   0.00000  -0.00022   0.08126   0.00000
  20       10D-1        0.00000   0.02913   0.00000   0.00000   0.00081
  21       10D+2        0.00758   0.00000  -0.15594   0.00368   0.00000
  22       10D-2        0.00000   0.00019   0.00000   0.00000   0.30653
  23       11D 0       -0.28521   0.00000  -0.22369   0.00524   0.00000
  24       11D+1        0.00245   0.00000   0.00141   0.10824   0.00000
  25       11D-1        0.00000   0.28149   0.00000   0.00000  -0.00043
  26       11D+2        0.05842   0.00000  -0.31323   0.00859   0.00000
  27       11D-2        0.00000   0.00058   0.00000   0.00000   0.45783
  28       12D 0       -0.06800   0.00000   0.16300   0.00383   0.00000
  29       12D+1       -0.00106   0.00000   0.00160   0.07139   0.00000
  30       12D-1        0.00000  -0.15773   0.00000   0.00000  -0.00234
  31       12D+2       -0.04177   0.00000   0.09013   0.00316   0.00000
  32       12D-2        0.00000  -0.00610   0.00000   0.00000   0.04102
  33       13F 0       -0.04567   0.00000   0.01263   0.00038   0.00000
  34       13F+1        0.00115   0.00000   0.00016   0.06440   0.00000
  35       13F-1        0.00000  -0.05025   0.00000   0.00000   0.00008
  36       13F+2        0.00185   0.00000   0.01794  -0.00062   0.00000
  37       13F-2        0.00000   0.00003   0.00000   0.00000  -0.02503
  38       13F+3       -0.00001   0.00000   0.00076  -0.02226   0.00000
  39       13F-3        0.00000   0.01048   0.00000   0.00000  -0.00070
  40       14F 0       -0.05594   0.00000   0.01457  -0.00226   0.00000
  41       14F+1        0.00146   0.00000   0.00213  -0.00204   0.00000
  42       14F-1        0.00000   0.15201   0.00000   0.00000   0.00191
  43       14F+2        0.01345   0.00000   0.01343  -0.00140   0.00000
  44       14F-2        0.00000  -0.00148   0.00000   0.00000   0.07923
  45       14F+3        0.00082   0.00000   0.00226  -0.01941   0.00000
  46       14F-3        0.00000   0.01946   0.00000   0.00000   0.00006
  47 2   S  1S         -0.03305   0.00000   0.06197   0.00110   0.00000
  48        2S          0.13334   0.00000  -0.22396  -0.00347   0.00000
  49        3S         -0.34021   0.00000   0.77044   0.01464   0.00000
  50        4S         -0.20184   0.00000   0.53467   0.01000   0.00000
  51        5S          0.69296   0.00000  -1.34350  -0.03208   0.00000
  52        6S          0.17756   0.00000  -0.16342  -0.00368   0.00000
  53        7PX        -0.00010   0.00000   0.00012  -0.20363   0.00000
  54        7PY         0.00000   0.32072   0.00000   0.00000  -0.00055
  55        7PZ        -0.12892   0.00000  -0.08962  -0.00436   0.00000
  56        8PX         0.00038   0.00000  -0.00067   0.34179   0.00000
  57        8PY         0.00000  -0.59978   0.00000   0.00000   0.00045
  58        8PZ         0.12382   0.00000  -0.02645   0.00528   0.00000
  59        9PX         0.00037   0.00000  -0.00016   0.37664   0.00000
  60        9PY         0.00000  -0.60747   0.00000   0.00000   0.00115
  61        9PZ         0.20596   0.00000   0.17324   0.00872   0.00000
  62       10PX         0.00212   0.00000  -0.00456  -0.82240   0.00000
  63       10PY         0.00000   0.86084   0.00000   0.00000  -0.00263
  64       10PZ        -0.39888   0.00000  -0.02865  -0.00318   0.00000
  65       11PX         0.00035   0.00000   0.00016  -0.02662   0.00000
  66       11PY         0.00000   0.09836   0.00000   0.00000   0.00009
  67       11PZ        -0.03711   0.00000  -0.00279   0.00004   0.00000
  68       12D 0       -0.35953   0.00000   0.03620  -0.00123   0.00000
  69       12D+1        0.00508   0.00000   0.00243   0.22436   0.00000
  70       12D-1        0.00000   0.28560   0.00000   0.00000   0.00015
  71       12D+2        0.06167   0.00000   0.13540  -0.00280   0.00000
  72       12D-2        0.00000  -0.00187   0.00000   0.00000  -0.17958
  73       13D 0       -0.35003   0.00000  -0.01776  -0.00148   0.00000
  74       13D+1        0.00459   0.00000   0.00120   0.09837   0.00000
  75       13D-1        0.00000   0.07581   0.00000   0.00000   0.00127
  76       13D+2        0.05621   0.00000   0.04053  -0.00383   0.00000
  77       13D-2        0.00000  -0.00047   0.00000   0.00000  -0.14645
  78       14D 0        0.09306   0.00000  -0.01165   0.00000   0.00000
  79       14D+1       -0.00145   0.00000   0.00119   0.15985   0.00000
  80       14D-1        0.00000  -0.03557   0.00000   0.00000  -0.00080
  81       14D+2       -0.00048   0.00000   0.01364  -0.00112   0.00000
  82       14D-2        0.00000   0.00112   0.00000   0.00000  -0.01988
  83       15F 0        0.06359   0.00000   0.00790   0.00021   0.00000
  84       15F+1       -0.00099   0.00000  -0.00011   0.08139   0.00000
  85       15F-1        0.00000  -0.00487   0.00000   0.00000  -0.00114
  86       15F+2        0.00208   0.00000   0.00976  -0.00193   0.00000
  87       15F-2        0.00000   0.00006   0.00000   0.00000  -0.09735
  88       15F+3       -0.00027   0.00000  -0.00015  -0.06210   0.00000
  89       15F-3        0.00000   0.01440   0.00000   0.00000   0.00051
  90       16F 0        0.00509   0.00000   0.00738  -0.00022   0.00000
  91       16F+1       -0.00007   0.00000  -0.00048  -0.08108   0.00000
  92       16F-1        0.00000  -0.04087   0.00000   0.00000   0.00074
  93       16F+2        0.00032   0.00000   0.00823   0.00137   0.00000
  94       16F-2        0.00000   0.00031   0.00000   0.00000   0.01134
  95       16F+3       -0.00005   0.00000  -0.00044  -0.01436   0.00000
  96       16F-3        0.00000  -0.01745   0.00000   0.00000  -0.00036
  97 3   H  1S          0.00981  -0.01636   0.14382  -0.00225   0.00568
  98        2S          0.05641  -0.26407  -0.10562   0.01098  -0.00090
  99        3S         -0.30582   1.37179   0.12816   0.00957   0.00398
 100        4S         -0.02073   0.12843   0.00442   0.00002  -0.00180
 101        5PX        -0.00050   0.00019   0.00119  -0.00096  -0.09433
 102        5PY        -0.01829   0.01432   0.02361  -0.00056   0.00260
 103        5PZ         0.02942   0.00482   0.06148  -0.00182   0.00196
 104        6PX        -0.00028  -0.00019   0.00176  -0.09273  -0.20770
 105        6PY        -0.00754  -0.08268  -0.01835   0.00231   0.00441
 106        6PZ         0.07159  -0.15656   0.03252   0.00080   0.00012
 107        7PX        -0.00149   0.00092   0.00178  -0.02200  -0.01496
 108        7PY        -0.03045   0.25135  -0.03254  -0.00003   0.00417
 109        7PZ        -0.04958   0.10363   0.11302   0.00337   0.00089
 110        8D 0        0.01278   0.00169   0.01335  -0.00051   0.00042
 111        8D+1        0.00019   0.00003   0.00071   0.00229  -0.03500
 112        8D-1        0.01192   0.00123   0.02082  -0.00078   0.00108
 113        8D+2        0.01350   0.00025  -0.00614  -0.00001  -0.00167
 114        8D-2       -0.00050  -0.00001   0.00059  -0.00448  -0.05042
 115        9D 0       -0.00599  -0.00506   0.00045   0.00016  -0.00055
 116        9D+1        0.00077  -0.00133   0.00088  -0.04041   0.01210
 117        9D-1        0.01899  -0.05192   0.00740   0.00077   0.00055
 118        9D+2       -0.00402   0.02279  -0.01089   0.00005  -0.00170
 119        9D-2       -0.00035  -0.00008  -0.00019  -0.02818  -0.02387
 120 4   H  1S          0.00981   0.01636   0.14382  -0.00225  -0.00568
 121        2S          0.05641   0.26407  -0.10562   0.01098   0.00090
 122        3S         -0.30582  -1.37179   0.12816   0.00957  -0.00398
 123        4S         -0.02073  -0.12843   0.00442   0.00002   0.00180
 124        5PX        -0.00050  -0.00019   0.00119  -0.00096   0.09433
 125        5PY         0.01829   0.01432  -0.02361   0.00056   0.00260
 126        5PZ         0.02942  -0.00482   0.06148  -0.00182  -0.00196
 127        6PX        -0.00028   0.00019   0.00176  -0.09273   0.20770
 128        6PY         0.00754  -0.08268   0.01835  -0.00231   0.00441
 129        6PZ         0.07159   0.15656   0.03252   0.00080  -0.00012
 130        7PX        -0.00149  -0.00092   0.00178  -0.02200   0.01496
 131        7PY         0.03045   0.25135   0.03254   0.00003   0.00417
 132        7PZ        -0.04958  -0.10363   0.11302   0.00337  -0.00089
 133        8D 0        0.01278  -0.00169   0.01335  -0.00051  -0.00042
 134        8D+1        0.00019  -0.00003   0.00071   0.00229   0.03500
 135        8D-1       -0.01192   0.00123  -0.02082   0.00078   0.00108
 136        8D+2        0.01350  -0.00025  -0.00614  -0.00001   0.00167
 137        8D-2        0.00050  -0.00001  -0.00059   0.00448  -0.05042
 138        9D 0       -0.00599   0.00506   0.00045   0.00016   0.00055
 139        9D+1        0.00077   0.00133   0.00088  -0.04041  -0.01210
 140        9D-1       -0.01899  -0.05192  -0.00740  -0.00077   0.00055
 141        9D+2       -0.00402  -0.02279  -0.01089   0.00005   0.00170
 142        9D-2        0.00035  -0.00008   0.00019   0.02818  -0.02387
                          26        27        28        29        30
     Eigenvalues --     0.00601   0.00489   0.00464   0.00354   0.00234
   1 1   C  1S          0.03563   0.00000   0.13061   0.00007  -0.01412
   2        2S         -0.11815   0.00000  -0.52384  -0.00109   0.07848
   3        3S         -0.12199   0.00000  -0.42126   0.00060   0.03941
   4        4S          0.32728   0.00000  -0.79799  -0.02244   0.91920
   5        5S          0.08719   0.00000  -0.38162  -0.00295   0.28423
   6        6PX        -0.00814   0.00000   0.00228   0.12411  -0.00035
   7        6PY         0.00000  -0.05938   0.00000   0.00000   0.00000
   8        6PZ         0.21688   0.00000  -0.39369  -0.00351   0.03867
   9        7PX        -0.00856   0.00000   0.00190   0.11508  -0.00168
  10        7PY         0.00000   0.08559   0.00000   0.00000   0.00000
  11        7PZ         0.27443   0.00000  -0.47120  -0.00477   0.11703
  12        8PX         0.00768   0.00000   0.00068   0.43438  -0.00195
  13        8PY         0.00000   0.29389   0.00000   0.00000   0.00000
  14        8PZ         0.62322   0.00000  -0.23303   0.00767  -0.08582
  15        9PX         0.00035   0.00000   0.00053   0.02183   0.00145
  16        9PY         0.00000   0.00409   0.00000   0.00000   0.00000
  17        9PZ         0.04615   0.00000  -0.09362  -0.00021   0.01217
  18       10D 0        0.01837   0.00000  -0.18666   0.00027   0.06954
  19       10D+1       -0.00028   0.00000   0.00039   0.32605   0.00529
  20       10D-1        0.00000   0.27407   0.00000   0.00000   0.00000
  21       10D+2        0.20092   0.00000   0.05906   0.00161  -0.16246
  22       10D-2        0.00000  -0.00240   0.00000   0.00000   0.00000
  23       11D 0        0.10752   0.00000  -0.36443   0.00104   0.05319
  24       11D+1       -0.00181   0.00000   0.00105   0.60423   0.00922
  25       11D-1        0.00000   0.56627   0.00000   0.00000   0.00000
  26       11D+2        0.44042   0.00000   0.07249   0.00022  -0.36651
  27       11D-2        0.00000  -0.00178   0.00000   0.00000   0.00000
  28       12D 0        0.20081   0.00000   0.19923   0.01003  -0.26832
  29       12D+1       -0.00056   0.00000   0.00067   0.13051  -0.00069
  30       12D-1        0.00000   0.36418   0.00000   0.00000   0.00000
  31       12D+2        0.11211   0.00000   0.10554   0.00446  -0.28980
  32       12D-2        0.00000  -0.00651   0.00000   0.00000   0.00000
  33       13F 0       -0.03000   0.00000  -0.06135   0.00081  -0.10334
  34       13F+1       -0.00146   0.00000   0.00138  -0.01434  -0.00008
  35       13F-1        0.00000  -0.05986   0.00000   0.00000   0.00000
  36       13F+2       -0.01699   0.00000  -0.02851   0.00100  -0.19511
  37       13F-2        0.00000  -0.00114   0.00000   0.00000   0.00000
  38       13F+3       -0.00032   0.00000  -0.00037   0.05899   0.00027
  39       13F-3        0.00000   0.01145   0.00000   0.00000   0.00000
  40       14F 0       -0.10376   0.00000  -0.11707   0.00357  -0.11010
  41       14F+1       -0.00037   0.00000   0.00158   0.04674  -0.00266
  42       14F-1        0.00000  -0.00783   0.00000   0.00000   0.00000
  43       14F+2       -0.05701   0.00000  -0.08767   0.00141  -0.19940
  44       14F-2        0.00000  -0.00519   0.00000   0.00000   0.00000
  45       14F+3       -0.00144   0.00000   0.00191   0.02256   0.00122
  46       14F-3        0.00000   0.05204   0.00000   0.00000   0.00000
  47 2   S  1S          0.05117   0.00000   0.00486  -0.00019   0.00618
  48        2S         -0.16164   0.00000  -0.01712   0.00055  -0.02578
  49        3S          0.69771   0.00000   0.05148  -0.00338   0.11368
  50        4S          0.50810   0.00000  -0.01904  -0.00385   0.16395
  51        5S         -2.01305   0.00000   0.68918   0.00713  -0.31748
  52        6S         -0.36464   0.00000   0.69460   0.00313  -0.23160
  53        7PX         0.00580   0.00000  -0.00157   0.17171   0.00358
  54        7PY         0.00000  -0.06451   0.00000   0.00000   0.00000
  55        7PZ        -0.17343   0.00000  -0.00413   0.00288  -0.07983
  56        8PX        -0.00812   0.00000   0.00447  -0.28734  -0.00151
  57        8PY         0.00000  -0.03196   0.00000   0.00000   0.00000
  58        8PZ         0.23101   0.00000  -0.35494  -0.00370  -0.03311
  59        9PX        -0.01096   0.00000   0.00287  -0.34036  -0.00769
  60        9PY         0.00000   0.16226   0.00000   0.00000   0.00000
  61        9PZ         0.34260   0.00000   0.03259  -0.00587   0.16743
  62       10PX         0.01334   0.00000   0.00098  -0.01904   0.00329
  63       10PY         0.00000  -0.98093   0.00000   0.00000   0.00000
  64       10PZ         0.30866   0.00000  -0.99460  -0.00826   0.35506
  65       11PX         0.00041   0.00000   0.00055  -0.00221  -0.00102
  66       11PY         0.00000  -0.06338   0.00000   0.00000   0.00000
  67       11PZ         0.02081   0.00000  -0.10220  -0.00042   0.04281
  68       12D 0       -0.19013   0.00000   0.66775   0.01109  -0.13582
  69       12D+1       -0.00229   0.00000  -0.00955   0.45830   0.00674
  70       12D-1        0.00000   0.46370   0.00000   0.00000   0.00000
  71       12D+2       -0.04243   0.00000  -0.04501  -0.00566   0.14474
  72       12D-2        0.00000   0.00027   0.00000   0.00000   0.00000
  73       13D 0       -0.14074   0.00000   0.38249   0.00646  -0.03122
  74       13D+1       -0.00021   0.00000  -0.00670   0.30998   0.00499
  75       13D-1        0.00000   0.33234   0.00000   0.00000   0.00000
  76       13D+2       -0.14785   0.00000  -0.08848  -0.00379   0.17942
  77       13D-2        0.00000  -0.00018   0.00000   0.00000   0.00000
  78       14D 0       -0.09695   0.00000   0.28984   0.00442  -0.11353
  79       14D+1       -0.00081   0.00000  -0.00182   0.11076   0.00184
  80       14D-1        0.00000   0.23562   0.00000   0.00000   0.00000
  81       14D+2        0.01856   0.00000  -0.00495  -0.00140   0.03657
  82       14D-2        0.00000  -0.00022   0.00000   0.00000   0.00000
  83       15F 0       -0.01584   0.00000   0.15198   0.00267   0.13529
  84       15F+1       -0.00190   0.00000  -0.00244   0.10530   0.00606
  85       15F-1        0.00000   0.16512   0.00000   0.00000   0.00000
  86       15F+2       -0.05987   0.00000  -0.04214  -0.00263   0.37918
  87       15F-2        0.00000  -0.00028   0.00000   0.00000   0.00000
  88       15F+3        0.00165   0.00000   0.00011   0.01723  -0.00074
  89       15F-3        0.00000  -0.01627   0.00000   0.00000   0.00000
  90       16F 0        0.03779   0.00000  -0.11086  -0.00295   0.07454
  91       16F+1        0.00094   0.00000   0.00126  -0.08155  -0.00208
  92       16F-1        0.00000  -0.07019   0.00000   0.00000   0.00000
  93       16F+2        0.01274   0.00000  -0.03200   0.00067   0.04944
  94       16F-2        0.00000  -0.00052   0.00000   0.00000   0.00000
  95       16F+3        0.00033   0.00000   0.00027  -0.01773   0.00013
  96       16F-3        0.00000  -0.00809   0.00000   0.00000   0.00000
  97 3   H  1S         -0.10164   0.22316  -0.08976   0.00816  -0.29584
  98        2S          0.41284  -0.27250   0.05120  -0.00325  -0.13081
  99        3S          0.46011  -0.72718   0.04673   0.00431  -0.14509
 100        4S          0.01137  -0.01968  -0.01723   0.00019  -0.01163
 101        5PX        -0.00184   0.00238  -0.00092  -0.09391  -0.00105
 102        5PY        -0.03053   0.10261  -0.03053   0.00321  -0.03584
 103        5PZ        -0.05988   0.00387   0.02557   0.00088  -0.01733
 104        6PX         0.00124   0.00425   0.00049  -0.13531   0.00056
 105        6PY         0.06127   0.08169  -0.06341   0.00096  -0.00983
 106        6PZ         0.00973  -0.05532   0.03857  -0.00028  -0.08294
 107        7PX         0.00214  -0.00528   0.00060  -0.00805  -0.00275
 108        7PY         0.02303  -0.05724  -0.09884  -0.00244   0.13341
 109        7PZ         0.12399   0.03575   0.09212   0.00519  -0.13557
 110        8D 0       -0.01493  -0.02186   0.00753  -0.00022   0.00150
 111        8D+1       -0.00084   0.00058   0.00005  -0.01568   0.00013
 112        8D-1       -0.01814   0.01247   0.00719   0.00071  -0.02230
 113        8D+2        0.01106  -0.02984   0.02040  -0.00194   0.00732
 114        8D-2       -0.00088   0.00159  -0.00051  -0.05120  -0.00003
 115        9D 0       -0.00427  -0.01937  -0.01735   0.00039  -0.01302
 116        9D+1        0.00095  -0.00026   0.00099   0.00010  -0.00197
 117        9D-1        0.01655   0.02279   0.01335  -0.00006  -0.00186
 118        9D+2        0.02498  -0.03176   0.03334   0.00014  -0.01160
 119        9D-2        0.00054   0.00116  -0.00116   0.01108   0.00072
 120 4   H  1S         -0.10164  -0.22316  -0.08976   0.00816  -0.29584
 121        2S          0.41284   0.27250   0.05120  -0.00325  -0.13081
 122        3S          0.46011   0.72718   0.04673   0.00431  -0.14509
 123        4S          0.01137   0.01968  -0.01723   0.00019  -0.01163
 124        5PX        -0.00184  -0.00238  -0.00092  -0.09391  -0.00105
 125        5PY         0.03053   0.10261   0.03053  -0.00321   0.03584
 126        5PZ        -0.05988  -0.00387   0.02557   0.00088  -0.01733
 127        6PX         0.00124  -0.00425   0.00049  -0.13531   0.00056
 128        6PY        -0.06127   0.08169   0.06341  -0.00096   0.00983
 129        6PZ         0.00973   0.05532   0.03857  -0.00028  -0.08294
 130        7PX         0.00214   0.00528   0.00060  -0.00805  -0.00275
 131        7PY        -0.02303  -0.05724   0.09884   0.00244  -0.13341
 132        7PZ         0.12399  -0.03575   0.09212   0.00519  -0.13557
 133        8D 0       -0.01493   0.02186   0.00753  -0.00022   0.00150
 134        8D+1       -0.00084  -0.00058   0.00005  -0.01568   0.00013
 135        8D-1        0.01814   0.01247  -0.00719  -0.00071   0.02230
 136        8D+2        0.01106   0.02984   0.02040  -0.00194   0.00732
 137        8D-2        0.00088   0.00159   0.00051   0.05120   0.00003
 138        9D 0       -0.00427   0.01937  -0.01735   0.00039  -0.01302
 139        9D+1        0.00095   0.00026   0.00099   0.00010  -0.00197
 140        9D-1       -0.01655   0.02279  -0.01335   0.00006   0.00186
 141        9D+2        0.02498   0.03176   0.03334   0.00014  -0.01160
 142        9D-2       -0.00054   0.00116   0.00116  -0.01108  -0.00072
                          31        32        33        34        35
[...]
 139        9D+1        0.10850  -0.01151   0.05614   0.02822  -0.00155
 140        9D-1       -0.61335   0.23806   0.00234  -1.21487  -0.36029
 141        9D+2       -0.11291   0.25409  -0.00398   0.45262   1.39165
 142        9D-2       -0.14968  -0.02927   1.10261  -0.00062   0.04825
                         136       137       138       139       140
     Eigenvalues --     0.00000   0.00000   0.00000   0.00000   0.00000
   1 1   C  1S          0.00000   0.41576  -0.03928  -0.07394  -0.07849
   2        2S          0.00000   2.43727  -0.23373  -0.39886  -0.44147
   3        3S          0.00000  -0.10146   0.00932   0.05396   0.02085
   4        4S          0.00000  25.45462  -2.24077 -17.69897  -3.43059
   5        5S          0.00000  16.61513  -1.78512  -2.45712   4.71300
   6        6PX         0.00000  -0.00213  -0.02067  -0.00012  -0.00003
   7        6PY        -0.04144   0.00000   0.00000   0.00000   0.00000
   8        6PZ         0.00000   0.05405  -0.00591   0.01797   0.01114
   9        7PX         0.00000   0.00895   0.35701   0.01422   0.00366
  10        7PY         2.92121   0.00000   0.00000   0.00000   0.00000
  11        7PZ         0.00000  -2.06694   0.21889   0.28813   0.32527
  12        8PX         0.00000  -0.07695   0.01363   0.08363  -0.00850
  13        8PY        16.87274   0.00000   0.00000   0.00000   0.00000
  14        8PZ         0.00000  -8.21377   0.94520   0.43540   9.10639
  15        9PX         0.00000  -0.36594  -2.88058  -0.03935  -0.00863
  16        9PY         6.51484   0.00000   0.00000   0.00000   0.00000
  17        9PZ         0.00000  -0.78588   0.13237  -1.74069   5.75179
  18       10D 0        0.00000   0.00055  -0.00014   0.00298  -0.01206
  19       10D+1        0.00000   0.00199  -0.00065  -0.00006   0.00002
  20       10D-1       -0.08448   0.00000   0.00000   0.00000   0.00000
  21       10D+2        0.00000  -0.14473   0.01733   0.00890   0.01160
  22       10D-2        0.00032   0.00000   0.00000   0.00000   0.00000
  23       11D 0        0.00000   0.10269  -0.02535  -0.29590   0.23289
  24       11D+1        0.00000  -0.01329  -0.28505  -0.00430  -0.00604
  25       11D-1       -1.77641   0.00000   0.00000   0.00000   0.00000
  26       11D+2        0.00000  -1.18897   0.09414   0.52170   0.32886
  27       11D-2       -0.05706   0.00000   0.00000   0.00000   0.00000
  28       12D 0        0.00000   3.83399  -0.65272   0.81835   1.84751
  29       12D+1        0.00000  -0.11676  -2.66088   0.00771  -0.01603
  30       12D-1       -7.07582   0.00000   0.00000   0.00000   0.00000
  31       12D+2        0.00000   0.81524  -0.20607   0.98381   0.97198
  32       12D-2       -0.04015   0.00000   0.00000   0.00000   0.00000
  33       13F 0        0.00000   0.09424  -0.01183   0.01577  -0.00255
  34       13F+1        0.00000   0.00396   0.01489   0.00122   0.00054
  35       13F-1        0.06603   0.00000   0.00000   0.00000   0.00000
  36       13F+2        0.00000   0.13317  -0.01556  -0.02670  -0.01788
  37       13F-2        0.00105   0.00000   0.00000   0.00000   0.00000
  38       13F+3        0.00000   0.00465  -0.00535  -0.00118  -0.00111
  39       13F-3       -0.06964   0.00000   0.00000   0.00000   0.00000
  40       14F 0        0.00000  -0.17547   0.04281  -0.61873  -0.02323
  41       14F+1        0.00000  -0.02433   0.02852  -0.00128  -0.00284
  42       14F-1       -0.35951   0.00000   0.00000   0.00000   0.00000
  43       14F+2        0.00000   0.26078  -0.00811  -0.24215  -0.10999
  44       14F-2        0.02656   0.00000   0.00000   0.00000   0.00000
  45       14F+3        0.00000  -0.01647  -0.01695   0.00298   0.00082
  46       14F-3       -0.16528   0.00000   0.00000   0.00000   0.00000
  47 2   S  1S          0.00000   0.01489  -0.00212   0.01314   0.00273
  48        2S          0.00000   0.19621  -0.02926   0.20426   0.02014
  49        3S          0.00000   0.62078  -0.08963   0.57557   0.10679
  50        4S          0.00000   0.03073  -0.00164  -0.08672   0.10214
  51        5S          0.00000  -2.88970   0.44073   1.97538  -5.67367
  52        6S          0.00000  -9.76896   1.08187  -2.54741 -16.02668
  53        7PX         0.00000   0.00216   0.00357   0.00079   0.00009
  54        7PY        -0.00625   0.00000   0.00000   0.00000   0.00000
  55        7PZ         0.00000  -0.00299   0.00073  -0.04203  -0.00477
  56        8PX         0.00000   0.02732  -0.02656   0.01393   0.00116
  57        8PY        -0.08478   0.00000   0.00000   0.00000   0.00000
  58        8PZ         0.00000  -0.23027   0.03641  -1.03952   0.03988
  59        9PX         0.00000  -0.00752  -0.01824  -0.00227  -0.00031
  60        9PY         0.03200   0.00000   0.00000   0.00000   0.00000
  61        9PZ         0.00000  -0.03321   0.00365   0.08581   0.02905
  62       10PX         0.00000   0.06929   2.17945  -0.01180  -0.04341
  63       10PY         4.10667   0.00000   0.00000   0.00000   0.00000
  64       10PZ         0.00000   3.82787  -0.41027   0.37862   6.64119
  65       11PX         0.00000   0.29187   2.72805   0.03809  -0.02017
  66       11PY        -0.57357   0.00000   0.00000   0.00000   0.00000
  67       11PZ         0.00000   2.84241  -0.33536   2.73157   2.27378
  68       12D 0        0.00000  -0.30917   0.02395   0.67932  -0.29790
  69       12D+1        0.00000   0.00843   0.12318  -0.00645   0.00155
  70       12D-1       -0.30486   0.00000   0.00000   0.00000   0.00000
  71       12D+2        0.00000  -0.05665   0.00492   0.02149  -0.02310
  72       12D-2       -0.00026   0.00000   0.00000   0.00000   0.00000
  73       13D 0        0.00000   0.06337  -0.00605  -0.05062   0.02449
  74       13D+1        0.00000  -0.00726  -0.04578  -0.00097  -0.00018
  75       13D-1       -0.00742   0.00000   0.00000   0.00000   0.00000
  76       13D+2        0.00000   0.01638  -0.00209   0.00130   0.00830
  77       13D-2        0.00010   0.00000   0.00000   0.00000   0.00000
  78       14D 0        0.00000  -1.46956   0.13680  -1.16593  -1.53449
  79       14D+1        0.00000  -0.12930  -1.87131  -0.00061   0.01909
  80       14D-1       -1.90884   0.00000   0.00000   0.00000   0.00000
  81       14D+2        0.00000   0.21022  -0.00958   0.22034  -0.05478
  82       14D-2        0.01381   0.00000   0.00000   0.00000   0.00000
  83       15F 0        0.00000  -0.05800   0.00476  -0.03523  -0.01646
  84       15F+1        0.00000   0.00054  -0.02643   0.00140   0.00042
  85       15F-1        0.00425   0.00000   0.00000   0.00000   0.00000
  86       15F+2        0.00000   0.01143  -0.00054   0.01328  -0.00911
  87       15F-2        0.00005   0.00000   0.00000   0.00000   0.00000
  88       15F+3        0.00000   0.00125   0.00429   0.00029   0.00014
  89       15F-3        0.02814   0.00000   0.00000   0.00000   0.00000
  90       16F 0        0.00000   0.38233  -0.03222  -0.01319   0.13685
  91       16F+1        0.00000   0.01578   0.22944   0.00070  -0.00216
  92       16F-1        0.28701   0.00000   0.00000   0.00000   0.00000
  93       16F+2        0.00000  -0.12559   0.01309  -0.11737   0.03896
  94       16F-2       -0.00120   0.00000   0.00000   0.00000   0.00000
  95       16F+3        0.00000  -0.00202  -0.01512  -0.00103  -0.00052
  96       16F-3       -0.08074   0.00000   0.00000   0.00000   0.00000
  97 3   H  1S         -0.05075   0.10058  -0.01211  -0.01930  -0.01661
  98        2S          3.68866  -3.71816   0.34631   1.49799   0.91985
  99        3S         29.57472 -11.79042   0.98548   9.32955   8.09955
 100        4S          5.26136  -1.30386   0.14354   0.59349   2.12638
 101        5PX         0.00094   0.01194   0.07516  -0.00073  -0.00045
 102        5PY        -0.11370   0.06742  -0.00828  -0.03491  -0.02790
 103        5PZ        -0.07421   0.04139  -0.00185   0.00055  -0.01670
 104        6PX        -0.00426  -0.07952  -0.38969   0.00980   0.00725
 105        6PY         1.75712  -2.05816   0.21909   0.63226   0.41465
 106        6PZ         1.41694  -0.93681   0.07100   0.38804   0.24667
 107        7PX         0.08481  -0.06807  -0.95987   0.02511   0.03916
 108        7PY         5.05103  -5.02554   0.58647   2.03119   1.66107
 109        7PZ         3.44036   2.32680  -0.48362   3.76628   1.09450
 110        8D 0       -0.03315  -0.03470   0.00370  -0.01428   0.00970
 111        8D+1        0.00097   0.00008  -0.00610   0.00047   0.00002
 112        8D-1        0.05142  -0.17097   0.02135  -0.02223   0.01352
 113        8D+2       -0.12459   0.12114  -0.01214   0.01416  -0.01561
 114        8D-2        0.00203   0.00495   0.07375   0.00081  -0.00036
 115        9D 0        0.20984   0.49514  -0.05991  -0.00007  -0.07607
 116        9D+1        0.00031  -0.02420   0.02154   0.00357   0.00301
 117        9D-1        0.86834  -0.00919  -0.02960   0.54436   0.08493
 118        9D+2        0.11475   0.59708  -0.07810  -0.16021  -0.05966
 119        9D-2       -0.00654  -0.05484  -0.50294  -0.00173   0.00527
 120 4   H  1S          0.05075   0.10058  -0.01211  -0.01930  -0.01661
 121        2S         -3.68866  -3.71816   0.34631   1.49799   0.91985
 122        3S        -29.57472 -11.79042   0.98548   9.32955   8.09955
 123        4S         -5.26136  -1.30386   0.14354   0.59349   2.12638
 124        5PX        -0.00094   0.01194   0.07516  -0.00073  -0.00045
 125        5PY        -0.11370  -0.06742   0.00828   0.03491   0.02790
 126        5PZ         0.07421   0.04139  -0.00185   0.00055  -0.01670
 127        6PX         0.00426  -0.07952  -0.38969   0.00980   0.00725
 128        6PY         1.75712   2.05816  -0.21909  -0.63226  -0.41465
 129        6PZ        -1.41694  -0.93681   0.07100   0.38804   0.24667
 130        7PX        -0.08481  -0.06807  -0.95987   0.02511   0.03916
 131        7PY         5.05103   5.02554  -0.58647  -2.03119  -1.66107
 132        7PZ        -3.44036   2.32680  -0.48362   3.76628   1.09450
 133        8D 0        0.03315  -0.03470   0.00370  -0.01428   0.00970
 134        8D+1       -0.00097   0.00008  -0.00610   0.00047   0.00002
 135        8D-1        0.05142   0.17097  -0.02135   0.02223  -0.01352
 136        8D+2        0.12459   0.12114  -0.01214   0.01416  -0.01561
 137        8D-2        0.00203  -0.00495  -0.07375  -0.00081   0.00036
 138        9D 0       -0.20984   0.49514  -0.05991  -0.00007  -0.07607
 139        9D+1       -0.00031  -0.02420   0.02154   0.00357   0.00301
 140        9D-1        0.86834   0.00919   0.02960  -0.54436  -0.08493
 141        9D+2       -0.11475   0.59708  -0.07810  -0.16021  -0.05966
 142        9D-2       -0.00654   0.05484   0.50294   0.00173  -0.00527
                         141       142
     Eigenvalues --     0.00000   0.00000
   1 1   C  1S          0.00000  -0.00353
   2        2S          0.00000  -0.00747
   3        3S          0.00000   0.04601
   4        4S          0.00000   8.09079
   5        5S          0.00000  16.08532
   6        6PX         0.00000  -0.00042
   7        6PY        -0.00790   0.00000
   8        6PZ         0.00000   0.00390
   9        7PX         0.00000  -0.00033
  10        7PY        -0.16347   0.00000
  11        7PZ         0.00000  -0.06833
  12        8PX         0.00000  -0.03638
  13        8PY        -5.08895   0.00000
  14        8PZ         0.00000   1.14703
  15        9PX         0.00000  -0.03361
  16        9PY        -5.27180   0.00000
  17        9PZ         0.00000   1.19739
  18       10D 0        0.00000   0.00940
  19       10D+1        0.00000   0.00001
  20       10D-1       -0.01478   0.00000
  21       10D+2        0.00000  -0.01267
  22       10D-2        0.00033   0.00000
  23       11D 0        0.00000  -0.08458
  24       11D+1        0.00000   0.00054
  25       11D-1        0.12830   0.00000
  26       11D+2        0.00000   0.01953
  27       11D-2       -0.00251   0.00000
  28       12D 0        0.00000   0.42510
  29       12D+1        0.00000   0.00469
  30       12D-1       -0.91940   0.00000
  31       12D+2        0.00000  -0.36803
  32       12D-2        0.02879   0.00000
  33       13F 0        0.00000  -0.01196
  34       13F+1        0.00000  -0.00004
  35       13F-1        0.00467   0.00000
  36       13F+2        0.00000  -0.00521
  37       13F-2        0.00065   0.00000
  38       13F+3        0.00000   0.00061
  39       13F-3        0.00393   0.00000
  40       14F 0        0.00000   0.02203
  41       14F+1        0.00000   0.00014
  42       14F-1       -0.09378   0.00000
  43       14F+2        0.00000  -0.04664
  44       14F-2        0.00113   0.00000
  45       14F+3        0.00000  -0.00260
  46       14F-3       -0.01296   0.00000
  47 2   S  1S          0.00000   0.00305
  48        2S          0.00000   0.04726
  49        3S          0.00000   0.13344
  50        4S          0.00000  -0.01479
  51        5S          0.00000  -1.74584
  52        6S          0.00000  -8.69260
  53        7PX         0.00000   0.00004
  54        7PY        -0.00568   0.00000
  55        7PZ         0.00000  -0.00283
  56        8PX         0.00000   0.00076
  57        8PY        -0.04909   0.00000
  58        8PZ         0.00000  -0.04496
  59        9PX         0.00000  -0.00014
  60        9PY         0.02457   0.00000
  61        9PZ         0.00000   0.01207
  62       10PX         0.00000  -0.02432
  63       10PY         1.28604   0.00000
  64       10PZ         0.00000   2.29583
  65       11PX         0.00000  -0.01356
  66       11PY         0.52613   0.00000
  67       11PZ         0.00000   2.30350
  68       12D 0        0.00000  -0.04480
  69       12D+1        0.00000   0.00142
  70       12D-1       -0.08028   0.00000
  71       12D+2        0.00000   0.03439
  72       12D-2       -0.00192   0.00000
  73       13D 0        0.00000   0.00717
  74       13D+1        0.00000  -0.00028
  75       13D-1        0.00210   0.00000
  76       13D+2        0.00000  -0.00793
  77       13D-2        0.00067   0.00000
  78       14D 0        0.00000  -0.63267
  79       14D+1        0.00000   0.01244
  80       14D-1       -0.44166   0.00000
  81       14D+2        0.00000  -0.07959
  82       14D-2        0.01042   0.00000
  83       15F 0        0.00000  -0.01522
  84       15F+1        0.00000   0.00039
  85       15F-1       -0.00043   0.00000
  86       15F+2        0.00000  -0.00622
  87       15F-2        0.00044   0.00000
  88       15F+3        0.00000  -0.00001
  89       15F-3       -0.00350   0.00000
  90       16F 0        0.00000   0.06418
  91       16F+1        0.00000  -0.00196
  92       16F-1        0.03667   0.00000
  93       16F+2        0.00000   0.01290
  94       16F-2       -0.00216   0.00000
  95       16F+3        0.00000   0.00074
  96       16F-3        0.02137   0.00000
  97 3   H  1S         -0.01337  -0.01306
  98        2S         -0.03878   0.18024
  99        3S         -8.36113  -4.87157
 100        4S         -8.18353  -2.43971
 101        5PX         0.00038   0.00020
 102        5PY         0.02106   0.00820
 103        5PZ         0.00583   0.01561
 104        6PX        -0.00498  -0.00113
 105        6PY        -0.25807  -0.09127
 106        6PZ        -0.08624  -0.15215
 107        7PX        -0.00943  -0.00988
 108        7PY        -2.57770  -1.16570
 109        7PZ        -2.32372  -0.98952
 110        8D 0        0.00738   0.00639
 111        8D+1        0.00024   0.00036
 112        8D-1        0.01218   0.01122
 113        8D+2       -0.02572  -0.00073
 114        8D-2       -0.00050   0.00003
 115        9D 0       -0.01682  -0.04541
 116        9D+1       -0.00297  -0.00330
 117        9D-1       -0.18970  -0.19831
 118        9D+2        0.23869   0.07415
 119        9D-2       -0.00371   0.00016
 120 4   H  1S          0.01337  -0.01306
 121        2S          0.03878   0.18024
 122        3S          8.36113  -4.87157
 123        4S          8.18353  -2.43971
 124        5PX        -0.00038   0.00020
 125        5PY         0.02106  -0.00820
 126        5PZ        -0.00583   0.01561
 127        6PX         0.00498  -0.00113
 128        6PY        -0.25807   0.09127
 129        6PZ         0.08624  -0.15215
 130        7PX         0.00943  -0.00988
 131        7PY        -2.57770   1.16570
 132        7PZ         2.32372  -0.98952
 133        8D 0       -0.00738   0.00639
 134        8D+1       -0.00024   0.00036
 135        8D-1        0.01218  -0.01122
 136        8D+2        0.02572  -0.00073
 137        8D-2       -0.00050  -0.00003
 138        9D 0        0.01682  -0.04541
 139        9D+1        0.00297  -0.00330
 140        9D-1       -0.18970   0.19831
 141        9D+2       -0.23869   0.07415
 142        9D-2       -0.00371  -0.00016
          Condensed to atoms (all electrons):
              1          2          3          4
     1  C    6.184727   0.274328   0.183419   0.183419
     2  S    0.274328  16.028200  -0.118560  -0.118560
     3  H    0.183419  -0.118560   0.649619  -0.160128
     4  H    0.183419  -0.118560  -0.160128   0.649619
 Mulliken atomic charges:
              1
     1  C   -0.825893
     2  S   -0.065408
     3  H    0.445650
     4  H    0.445650
 Sum of Mulliken atomic charges =   0.00000
 Mulliken charges with hydrogens summed into heavy atoms:
              1
     1  C    0.065408
     2  S   -0.065408
 Sum of Mulliken charges with hydrogens summed into heavy atoms =   0.00000
 Electronic spatial extent (au):  <R**2>=            130.2883
 Charge=              0.0000 electrons
 Dipole moment (field-independent basis, Debye):
    X=             -0.0082    Y=              0.0000    Z=             -1.7522  Tot=              1.7522
 Quadrupole moment (field-independent basis, Debye-Ang):
   XX=            -19.9778   YY=            -20.5756   ZZ=            -18.9728
   XY=              0.0000   XZ=             -0.0051   YZ=              0.0000
 Traceless Quadrupole moment (field-independent basis, Debye-Ang):
   XX=             -0.1358   YY=             -0.7335   ZZ=              0.8693
   XY=              0.0000   XZ=             -0.0051   YZ=              0.0000
 Octapole moment (field-independent basis, Debye-Ang**2):
  XXX=             -0.1871  YYY=              0.0000  ZZZ=            -27.6806  XYY=             -0.0675
  XXY=              0.0000  XXZ=             -8.5631  XZZ=             -0.0857  YZZ=              0.0000
  YYZ=            -13.1329  XYZ=              0.0000
 Hexadecapole moment (field-independent basis, Debye-Ang**3):
 XXXX=            -25.3207 YYYY=            -35.1175 ZZZZ=           -127.3631 XXXY=              0.0000
 XXXZ=              0.0691 YYYX=              0.0000 YYYZ=              0.0000 ZZZX=              0.0709
 ZZZY=              0.0000 XXYY=            -10.5023 XXZZ=            -25.3328 YYZZ=            -29.5538
 XXYZ=              0.0000 YYXZ=              0.0407 ZZXY=              0.0000
 N-N= 4.470313201236D+01 E-N=-1.127361644010D+03  KE= 4.368672148748D+02
 1\1\GINC-TRAPISTA\SP\RQCISD-FC\Aug-CC-pVTZ\C1H2S1\BRUNS\17-Nov-2021\0\
 \# qcisd/aug-cc-pvtz nosymm density=current output=wfn\\h2cs-wavefunct
 ion\\0,1\C,0,0.01,0.,-0.555291\S,0,0.,0.,1.060374\H,0,0.,-0.92228,-1.1
 28992\H,0,0.,0.92228,-1.128992\\Version=EM64L-G09RevB.01\HF=-436.55756
 27\MP2=-436.8984394\MP3=-436.9212508\MP4D=-436.9312714\MP4DQ=-436.9196
 074\MP4SDQ=-436.9230905\QCISD=-436.9234952\RMSD=6.349e-09\Dipole=-0.00
 323,0.,-0.6893694\Quadrupole=-0.1009585,-0.545344,0.6463024,0.,-0.0037
 604,0.\PG=CS [SG(C1S1),X(H2)]\\@

 Writing a WFN file to GAUSSIAN.wfn.


 ALL MY ATTEMPTS TO ADAPT THE THEORETICAL FOUNDATIONS OF PHYSICS
 TO THESE NEW NOTIONS FAILED COMPLETELY. IT WAS AS IF THE GROUND HAD
 BEEN PULLED OUT FROM UNDER ONE WITH NO FIRM FOUNDATION TO BE SEEN ANYWHERE,
 UPON WHICH ONE COULD HAVE BUILT.  -- A.EINSTEIN
 Job cpu time:  0 days  0 hours 22 minutes 12.4 seconds.
 File lengths (MBytes):  RWF=   5923 Int=      0 D2E=      0 Chk=      2 Scr=      1
 Normal termination of Gaussian 09 at Wed Nov 17 16:40:48 2021.
