 h2cs-wavefunction
GAUSSIAN            142 MOL ORBITALS    240 PRIMITIVES        4 NUCLEI
  C    1    (CENTRE  1)   0.00000000  0.00000000 -1.04934791  CHARGE =  6.0
  S    2    (CENTRE  2)   0.00000000  0.00000000  2.00381646  CHARGE = 16.0
  H    3    (CENTRE  3)   0.00000000 -1.74285662 -2.15238295  CHARGE =  1.0
  H    4    (CENTRE  4)   0.00000000  1.74285662 -2.13348569  CHARGE =  1.0
CENTRE ASSIGNMENTS    1  1  1  1  1  1  1  1  1  1  1  1  1  1  1  1  1  1  1  1
CENTRE ASSIGNMENTS    1  1  1  1  1  1  1  1  1  1  1  1  1  1  1  1  1  1  1  1
CENTRE ASSIGNMENTS    1  1  1  1  1  1  1  1  1  1  1  1  1  1  1  1  1  1  1  1
CENTRE ASSIGNMENTS    1  1  1  1  1  1  1  1  1  1  1  1  2  2  2  2  2  2  2  2
CENTRE ASSIGNMENTS    2  2  2  2  2  2  2  2  2  2  2  2  2  2  2  2  2  2  2  2
CENTRE ASSIGNMENTS    2  2  2  2  2  2  2  2  2  2  2  2  2  2  2  2  2  2  2  2
CENTRE ASSIGNMENTS    2  2  2  2  2  2  2  2  2  2  2  2  2  2  2  2  2  2  2  2
CENTRE ASSIGNMENTS    2  2  2  2  2  2  2  2  2  2  2  2  2  2  2  2  2  2  2  2
CENTRE ASSIGNMENTS    2  2  2  2  2  2  2  2  2  2  2  2  2  2  2  2  2  2  2  2
CENTRE ASSIGNMENTS    2  2  2  2  2  2  3  3  3  3  3  3  3  3  3  3  3  3  3  3
CENTRE ASSIGNMENTS    3  3  3  3  3  3  3  3  3  3  3  3  3  4  4  4  4  4  4  4
CENTRE ASSIGNMENTS    4  4  4  4  4  4  4  4  4  4  4  4  4  4  4  4  4  4  4  4
TYPE ASSIGNMENTS      1  1  1  1  1  1  1  1  1  1  1  1  1  1  1  1  2  2  2  3
TYPE ASSIGNMENTS      3  3  4  4  4  2  3  4  2  3  4  2  3  4  5  6  7  8  9 10
TYPE ASSIGNMENTS      5  6  7  8  9 10  5  6  7  8  9 10 11 12 13 17 14 15 18 19
TYPE ASSIGNMENTS     16 20 11 12 13 17 14 15 18 19 16 20  1  1  1  1  1  1  1  1
TYPE ASSIGNMENTS      1  1  1  1  1  1  1  1  1  1  1  1  1  1  1  1  1  1  1  1
TYPE ASSIGNMENTS      1  1  1  2  2  2  2  2  2  3  3  3  3  3  3  4  4  4  4  4
TYPE ASSIGNMENTS      4  2  2  2  2  2  2  3  3  3  3  3  3  4  4  4  4  4  4  2
TYPE ASSIGNMENTS      3  4  2  3  4  2  3  4  5  6  7  8  9 10  5  6  7  8  9 10
TYPE ASSIGNMENTS      5  6  7  8  9 10 11 12 13 17 14 15 18 19 16 20 11 12 13 17
TYPE ASSIGNMENTS     14 15 18 19 16 20  1  1  1  1  1  1  2  3  4  2  3  4  2  3
TYPE ASSIGNMENTS      4  5  6  7  8  9 10  5  6  7  8  9 10  1  1  1  1  1  1  2
TYPE ASSIGNMENTS      3  4  2  3  4  2  3  4  5  6  7  8  9 10  5  6  7  8  9 10
EXPONENTS  0.8236000D+04 0.1235000D+04 0.2808000D+03 0.7927000D+02 0.2559000D+02
EXPONENTS  0.8997000D+01 0.3319000D+01 0.2808000D+03 0.7927000D+02 0.2559000D+02
EXPONENTS  0.8997000D+01 0.3319000D+01 0.3643000D+00 0.9059000D+00 0.1285000D+00
EXPONENTS  0.4402000D-01 0.1871000D+02 0.4133000D+01 0.1200000D+01 0.1871000D+02
EXPONENTS  0.4133000D+01 0.1200000D+01 0.1871000D+02 0.4133000D+01 0.1200000D+01
EXPONENTS  0.3827000D+00 0.3827000D+00 0.3827000D+00 0.1209000D+00 0.1209000D+00
EXPONENTS  0.1209000D+00 0.3569000D-01 0.3569000D-01 0.3569000D-01 0.1097000D+01
EXPONENTS  0.1097000D+01 0.1097000D+01 0.1097000D+01 0.1097000D+01 0.1097000D+01
EXPONENTS  0.3180000D+00 0.3180000D+00 0.3180000D+00 0.3180000D+00 0.3180000D+00
EXPONENTS  0.3180000D+00 0.1000000D+00 0.1000000D+00 0.1000000D+00 0.1000000D+00
EXPONENTS  0.1000000D+00 0.1000000D+00 0.7610000D+00 0.7610000D+00 0.7610000D+00
EXPONENTS  0.7610000D+00 0.7610000D+00 0.7610000D+00 0.7610000D+00 0.7610000D+00
EXPONENTS  0.7610000D+00 0.7610000D+00 0.2680000D+00 0.2680000D+00 0.2680000D+00
EXPONENTS  0.2680000D+00 0.2680000D+00 0.2680000D+00 0.2680000D+00 0.2680000D+00
EXPONENTS  0.2680000D+00 0.2680000D+00 0.3741000D+06 0.5605000D+05 0.1276000D+05
EXPONENTS  0.3615000D+04 0.1183000D+04 0.4288000D+03 0.1678000D+03 0.6947000D+02
EXPONENTS  0.2984000D+02 0.1272000D+02 0.5244000D+01 0.3615000D+04 0.1183000D+04
EXPONENTS  0.4288000D+03 0.1678000D+03 0.6947000D+02 0.2984000D+02 0.1272000D+02
EXPONENTS  0.5244000D+01 0.2219000D+01 0.1183000D+04 0.1678000D+03 0.6947000D+02
EXPONENTS  0.2984000D+02 0.1272000D+02 0.5244000D+01 0.2219000D+01 0.3490000D+00
EXPONENTS  0.7767000D+00 0.1322000D+00 0.4970000D-01 0.5744000D+03 0.1358000D+03
EXPONENTS  0.4319000D+02 0.1587000D+02 0.6208000D+01 0.2483000D+01 0.5744000D+03
EXPONENTS  0.1358000D+03 0.4319000D+02 0.1587000D+02 0.6208000D+01 0.2483000D+01
EXPONENTS  0.5744000D+03 0.1358000D+03 0.4319000D+02 0.1587000D+02 0.6208000D+01
EXPONENTS  0.2483000D+01 0.1358000D+03 0.4319000D+02 0.1587000D+02 0.6208000D+01
EXPONENTS  0.2483000D+01 0.3229000D+00 0.1358000D+03 0.4319000D+02 0.1587000D+02
EXPONENTS  0.6208000D+01 0.2483000D+01 0.3229000D+00 0.1358000D+03 0.4319000D+02
EXPONENTS  0.1587000D+02 0.6208000D+01 0.2483000D+01 0.3229000D+00 0.8688000D+00
EXPONENTS  0.8688000D+00 0.8688000D+00 0.1098000D+00 0.1098000D+00 0.1098000D+00
EXPONENTS  0.3510000D-01 0.3510000D-01 0.3510000D-01 0.2690000D+00 0.2690000D+00
EXPONENTS  0.2690000D+00 0.2690000D+00 0.2690000D+00 0.2690000D+00 0.8190000D+00
EXPONENTS  0.8190000D+00 0.8190000D+00 0.8190000D+00 0.8190000D+00 0.8190000D+00
EXPONENTS  0.1010000D+00 0.1010000D+00 0.1010000D+00 0.1010000D+00 0.1010000D+00
EXPONENTS  0.1010000D+00 0.5570000D+00 0.5570000D+00 0.5570000D+00 0.5570000D+00
EXPONENTS  0.5570000D+00 0.5570000D+00 0.5570000D+00 0.5570000D+00 0.5570000D+00
EXPONENTS  0.5570000D+00 0.2180000D+00 0.2180000D+00 0.2180000D+00 0.2180000D+00
EXPONENTS  0.2180000D+00 0.2180000D+00 0.2180000D+00 0.2180000D+00 0.2180000D+00
EXPONENTS  0.2180000D+00 0.3387000D+02 0.5095000D+01 0.1159000D+01 0.3258000D+00
EXPONENTS  0.1027000D+00 0.2526000D-01 0.1407000D+01 0.1407000D+01 0.1407000D+01
EXPONENTS  0.3880000D+00 0.3880000D+00 0.3880000D+00 0.1020000D+00 0.1020000D+00
EXPONENTS  0.1020000D+00 0.1057000D+01 0.1057000D+01 0.1057000D+01 0.1057000D+01
EXPONENTS  0.1057000D+01 0.1057000D+01 0.2470000D+00 0.2470000D+00 0.2470000D+00
EXPONENTS  0.2470000D+00 0.2470000D+00 0.2470000D+00 0.3387000D+02 0.5095000D+01
EXPONENTS  0.1159000D+01 0.3258000D+00 0.1027000D+00 0.2526000D-01 0.1407000D+01
EXPONENTS  0.1407000D+01 0.1407000D+01 0.3880000D+00 0.3880000D+00 0.3880000D+00
EXPONENTS  0.1020000D+00 0.1020000D+00 0.1020000D+00 0.1057000D+01 0.1057000D+01
EXPONENTS  0.1057000D+01 0.1057000D+01 0.1057000D+01 0.1057000D+01 0.2470000D+00
EXPONENTS  0.2470000D+00 0.2470000D+00 0.2470000D+00 0.2470000D+00 0.2470000D+00
MO    1     MO 0.0        OCC NO =    2.0000337  ORB. ENERGY =    0.000000
  0.88552530D-04  0.16507975D-03  0.27900728D-03  0.41939997D-03  0.51515775D-03
  0.43477497D-03  0.16348674D-03  0.28504679D-07  0.21305482D-06  0.79623450D-06
  0.22213703D-05  0.29760237D-05 -0.35141291D-05  0.55184853D-05  0.19673497D-04
 -0.29562088D-06  0.44825157D-13  0.42026434D-13  0.29925325D-13 -0.14506192D-02
 -0.13600477D-02 -0.96843496D-03 -0.23186611D-04 -0.21738921D-04 -0.15479407D-04
  0.34373824D-14 -0.60912161D-03 -0.10015750D-04 -0.44131960D-16  0.16074067D-02
  0.95810897D-05 -0.18030564D-15  0.29530635D-04  0.91687022D-07 -0.42542324D-06
  0.34955234D-05 -0.30701001D-05 -0.43256137D-14  0.64919897D-14 -0.10624202D-02
 -0.19784108D-06  0.63595887D-06 -0.43811779D-06  0.37755349D-14 -0.57766936D-14
  0.55585387D-04  0.31336048D-06 -0.10810629D-06 -0.20525419D-06  0.76723373D-15
  0.55142140D-15 -0.21621844D-03 -0.23297404D-15  0.16480023D-03 -0.66172748D-06
 -0.35828731D-14  0.19885043D-03  0.41145020D-05  0.42817952D-14 -0.69325111D-03
 -0.21293196D-05 -0.41463592D-14  0.56961684D-15 -0.83563077D-04  0.98620377D-07
  0.11790067D-14 -0.12292805D-03 -0.95354406D-06 -0.28878572D-14  0.37361728D-03
  0.65768293D-06 -0.45405118D-15  0.92531703D-04  0.17299734D-03  0.29899082D-03
  0.48360533D-03  0.73095327D-03  0.10066740D-02  0.11766793D-02  0.10169658D-02
  0.47462325D-03  0.64301035D-04 -0.47030703D-06  0.11362972D-05  0.14606986D-04
  0.53284187D-04  0.17977953D-03  0.39487651D-03  0.51007274D-03 -0.81973029D-04
 -0.68765628D-03 -0.37737690D-03  0.12438668D-07  0.14168416D-06  0.29418739D-06
  0.80894060D-06 -0.10488844D-06 -0.36576610D-05 -0.91227874D-05  0.75517113D-05
 -0.20491424D-04 -0.78827700D-05  0.31786722D-08 -0.16966568D-09 -0.22259172D-09
 -0.24413495D-09 -0.20086688D-09 -0.10588560D-09 -0.27549441D-10  0.97723415D+01
  0.12820756D+02  0.14061595D+02  0.11569457D+02  0.60987598D+01  0.15867826D+01
 -0.27459704D-01 -0.36025570D-01 -0.39512254D-01 -0.32509492D-01 -0.17137156D-01
 -0.44587656D-02 -0.81373832D-15 -0.29209650D-13 -0.46341843D-13 -0.55029517D-13
 -0.83274163D-14  0.60605375D-13  0.96448560D-04  0.34620819D-02  0.54926798D-02
  0.65223888D-02  0.98700934D-03 -0.71832690D-02 -0.26918543D-06 -0.96625810D-05
 -0.15329927D-04 -0.18203818D-04 -0.27547175D-05  0.20048318D-04 -0.13147671D-11
  0.66525944D-01 -0.19269027D-03 -0.30818026D-14 -0.57538257D-03  0.37424003D-05
  0.41595669D-15 -0.27405382D-04  0.12515468D-07  0.74259855D-06  0.37193237D-06
 -0.11145309D-05 -0.14166513D-15 -0.78187870D-14  0.77618073D-03 -0.34566826D-06
 -0.10990514D-05  0.14447197D-05 -0.76030202D-15  0.81268846D-14 -0.10770342D-02
 -0.37032564D-09  0.21058143D-06 -0.21021111D-06 -0.17601303D-15  0.32735317D-15
 -0.29648336D-04 -0.17980867D-14  0.22417687D-05 -0.40202746D-06  0.24119130D-14
  0.13113943D-03 -0.69060235D-06  0.29823472D-14 -0.13786474D-03  0.18966847D-05
 -0.11239173D-14 -0.88769203D-16  0.33922692D-04  0.12261591D-06 -0.48818999D-15
 -0.20036493D-05  0.31198164D-07  0.75449760D-15 -0.99764426D-04 -0.39904588D-06
  0.38576952D-15 -0.10811438D-03 -0.19498874D-03 -0.28751078D-03  0.13971847D-03
  0.23565048D-02  0.25310787D-04 -0.19372904D-15 -0.25802568D-04  0.25509255D-03
  0.34685423D-14 -0.68467685D-05 -0.33414008D-03  0.22826587D-14  0.31236749D-03
  0.13491152D-03 -0.46296964D-04 -0.14217753D-03  0.18847450D-03  0.42773114D-14
  0.31718550D-14 -0.20194590D-04  0.26461996D-04 -0.21158275D-04 -0.53037217D-05
  0.18946386D-14  0.31860464D-15 -0.11628808D-03  0.10676565D-03  0.19255625D-03
  0.28392408D-03 -0.13264138D-03 -0.23645264D-02 -0.25351691D-04  0.43809410D-14
 -0.19588335D-04 -0.26778830D-03 -0.28749654D-14 -0.10641305D-04  0.33422069D-03
 -0.42782055D-16  0.31429493D-03 -0.13128942D-03  0.48756059D-04  0.14291651D-03
 -0.19167257D-03  0.66828473D-15  0.20555694D-14 -0.11073340D-04 -0.25493102D-04
  0.21811539D-04  0.36815628D-05 -0.22322281D-15 -0.16979595D-14 -0.11655633D-03
MO    2     MO 0.0        OCC NO =    2.0000243  ORB. ENERGY =    0.000000
 -0.53390383D-01 -0.99530429D-01 -0.16821999D+00 -0.25286601D+00 -0.31060061D+00
 -0.26213595D+00 -0.98569965D-01 -0.88945637D-05 -0.66481353D-04 -0.24845600D-03
 -0.69315354D-03 -0.92863464D-03  0.10965444D-02 -0.42250085D-02 -0.54261288D-03
 -0.39583056D-04 -0.12167484D-12 -0.11407790D-12 -0.81230257D-13 -0.46965502D-05
 -0.44033144D-05 -0.31354221D-05  0.23950941D-02  0.22455530D-02  0.15989675D-02
 -0.20930208D-13 -0.16851302D-05  0.49080242D-04 -0.35022849D-14 -0.15775780D-05
 -0.61055056D-03 -0.15080878D-15 -0.98483355D-07 -0.42461334D-06  0.18994528D-03
 -0.14373209D-03 -0.46213193D-04 -0.16406586D-15 -0.25361584D-13 -0.37613926D-05
  0.37530818D-04  0.14759650D-03 -0.18512732D-03 -0.75818332D-15  0.22555722D-13
  0.39186374D-06  0.11231397D-04  0.86430893D-04 -0.97662290D-04 -0.14735033D-14
 -0.18009185D-14  0.47244037D-06  0.19341836D-14 -0.12300920D-05  0.99157456D-05
  0.50706419D-14  0.10433289D-05 -0.17027312D-03 -0.10873193D-13  0.26469470D-05
  0.14052588D-03  0.36874247D-14 -0.10801504D-14 -0.26329954D-06  0.58665569D-04
 -0.54993018D-14  0.46326146D-06  0.10405172D-04  0.87397531D-14  0.32663715D-06
 -0.18640188D-03 -0.61497263D-15 -0.12122186D+00 -0.22663648D+00 -0.39169520D+00
 -0.63355084D+00 -0.95759089D+00 -0.13188009D+01 -0.15415177D+01 -0.13322838D+01
 -0.62178379D+00 -0.84238060D-01  0.61612931D-03 -0.15096165D-02 -0.19405968D-01
 -0.70790182D-01 -0.23884432D+00 -0.52460930D+00 -0.67765212D+00  0.10890446D+00
  0.91357899D+00  0.50136036D+00 -0.12538275D-04 -0.14281875D-03 -0.29654321D-03
 -0.81541852D-03  0.10572838D-03  0.36869512D-02  0.91958418D-02 -0.76121847D-02
  0.27990863D-01  0.11546892D-02  0.39586979D-05  0.35994766D-09  0.47223087D-09
  0.51793506D-09  0.42614136D-09  0.22463750D-09  0.58446451D-10  0.22874762D-01
  0.30010386D-01  0.32914899D-01  0.27081387D-01  0.14275768D-01  0.37142862D-02
  0.66530426D+01  0.87284135D+01  0.95731806D+01  0.78765246D+01  0.41520559D+01
  0.10802869D+01  0.19524296D-14  0.70083693D-13  0.11118954D-12  0.13203416D-12
  0.19980249D-13 -0.14541251D-12  0.18590732D-06  0.66732606D-05  0.10587295D-04
  0.12572088D-04  0.19024883D-05 -0.13845954D-04  0.55904065D-04  0.20067117D-02
  0.31836984D-02  0.37805442D-02  0.57209598D-03 -0.41636074D-02  0.27793882D-11
  0.16143704D-03  0.48593549D-01  0.53633284D-14 -0.33243886D-06 -0.64525151D-03
 -0.48626857D-15 -0.16812183D-07 -0.13437511D-05 -0.25443427D-03 -0.10205048D-03
  0.35648475D-03 -0.12815568D-16  0.23511974D-13  0.78682098D-06  0.35699750D-03
 -0.38148185D-03  0.24484343D-04  0.83800638D-16 -0.12937696D-13  0.10435465D-05
 -0.52594096D-05 -0.23246236D-04  0.28505646D-04  0.41191511D-15 -0.11730331D-14
 -0.24090724D-06  0.52554549D-14  0.13784367D-06 -0.69304054D-04 -0.37841445D-14
  0.29939554D-06  0.20692072D-03 -0.11982220D-13 -0.71292655D-06  0.99144288D-06
  0.18170599D-14  0.27425718D-15  0.10374927D-07 -0.19516851D-04  0.13242641D-14
 -0.63272776D-07  0.25449002D-04 -0.21470356D-14  0.32147994D-07  0.33101550D-04
 -0.99082008D-15 -0.24191347D-04 -0.43630091D-04 -0.64332544D-04 -0.39858979D-03
 -0.45076841D-03  0.28117394D-05 -0.61661319D-14  0.17109413D-04  0.85680929D-04
  0.49156290D-14  0.36588045D-04  0.18032321D-04 -0.34328884D-14  0.36116036D-04
 -0.12666320D-03 -0.10070111D-03  0.22771652D-04  0.77929458D-04  0.16944232D-14
 -0.46167073D-14  0.12920425D-03 -0.31569437D-04  0.22141617D-04  0.94278197D-05
 -0.16856740D-14  0.33114214D-14 -0.63158205D-04 -0.22396761D-04 -0.40393481D-04
 -0.59560164D-04 -0.39425530D-03 -0.44996232D-03  0.32606556D-05 -0.47132412D-14
 -0.20922231D-04  0.89921012D-04  0.62559622D-14 -0.33289542D-04  0.25145379D-04
  0.63363725D-15 -0.35875159D-04 -0.12649076D-03 -0.10006540D-03  0.19841873D-04
  0.80223524D-04 -0.12089327D-14 -0.46548227D-14 -0.12944959D-03 -0.31498663D-04
  0.21840326D-04  0.96583375D-05  0.43107937D-15  0.54505667D-14  0.64568175D-04
MO    3     MO 0.0        OCC NO =    2.0000101  ORB. ENERGY =    0.000000
 -0.15212750D+00 -0.28359630D+00 -0.47931639D+00 -0.72050193D+00 -0.88500758D+00
 -0.74691517D+00 -0.28085961D+00 -0.23304851D-04 -0.17418932D-03 -0.65098527D-03
 -0.18161475D-02 -0.24331370D-02  0.28730811D-02 -0.12301097D-01 -0.10603350D-03
 -0.10784322D-03  0.10157599D-11  0.95233948D-12  0.67812245D-12  0.79311867D-05
  0.74359917D-05  0.52948690D-05  0.37078042D-02  0.34763021D-02  0.24753342D-02
  0.18119381D-12 -0.16578855D-04  0.55402203D-03  0.29675765D-13 -0.74979765D-05
 -0.16244499D-03  0.45668765D-15 -0.17185729D-06 -0.38316976D-05  0.45351967D-03
 -0.44076464D-03 -0.12755030D-04 -0.10399061D-15  0.23199753D-12  0.29492278D-05
 -0.11705718D-03 -0.65455583D-06  0.11771173D-03  0.15676275D-14 -0.21731164D-12
  0.54122199D-05  0.13175501D-04  0.60193459D-04 -0.73368960D-04  0.10329392D-14
  0.17939400D-13  0.19009305D-05 -0.27840546D-13 -0.46598233D-05  0.71582666D-04
 -0.15133805D-13  0.45582886D-05 -0.44923449D-03  0.98655445D-13  0.94211812D-05
  0.23448649D-03 -0.27752118D-14  0.10439139D-13 -0.76102391D-06  0.11885361D-03
  0.50131335D-13  0.11592140D-05 -0.22758207D-04 -0.81448752D-13  0.11238577D-05
 -0.33380261D-03  0.11511615D-14  0.11191689D+00  0.20923990D+00  0.36162874D+00
  0.58491958D+00  0.88408637D+00  0.12175700D+01  0.14231910D+01  0.12300179D+01
  0.57405577D+00  0.77771961D-01 -0.56883532D-03  0.14064275D-02  0.18079483D-01
  0.65951357D-01  0.22251824D+00  0.48874991D+00  0.63133157D+00 -0.10146035D+00
 -0.85113178D+00 -0.46709014D+00  0.63285644D-05  0.72086283D-04  0.14967711D-03
  0.41157404D-03 -0.53365301D-04 -0.18609504D-02 -0.46415058D-02  0.38421713D-02
 -0.27724620D-01  0.11178882D-02  0.30167507D-04 -0.33650230D-08 -0.44147188D-08
 -0.48419910D-08 -0.39838444D-08 -0.21000562D-08 -0.54639513D-09  0.13743579D-01
  0.18030794D-01  0.19775879D-01  0.16270997D-01  0.85771446D-02  0.22316117D-02
  0.56896087D+01  0.74644430D+01  0.81868785D+01  0.67359170D+01  0.35507924D+01
  0.92384941D+00 -0.17912497D-13 -0.64298040D-12 -0.10201045D-11 -0.12113428D-11
 -0.18330810D-12  0.13340820D-11  0.97906656D-07  0.35144212D-05  0.55757173D-05
  0.66209933D-05  0.10019308D-05 -0.72918646D-05  0.36606903D-04  0.13140279D-02
  0.20847382D-02  0.24755626D-02  0.37461788D-03 -0.27263987D-02 -0.26066264D-10
  0.10159533D-03  0.43806839D-01 -0.61749873D-13 -0.22308138D-05 -0.11849208D-03
  0.51188735D-14 -0.51521683D-07  0.48478550D-06 -0.15110406D-03 -0.13817283D-03
  0.28927689D-03 -0.47126407D-15 -0.21428499D-12  0.22546603D-05 -0.11347666D-03
  0.47096594D-03 -0.35748928D-03  0.11252890D-14  0.13764893D-12 -0.19876622D-05
  0.62348612D-05  0.20699410D-05 -0.83048022D-05 -0.25190712D-15  0.12734254D-13
  0.37641397D-06 -0.45314800D-13  0.30903562D-06 -0.44152403D-04  0.24559883D-13
  0.16012561D-06  0.20827848D-03  0.11138452D-12 -0.10872325D-05 -0.75821267D-04
  0.76533532D-15 -0.20512056D-14  0.85447066D-07 -0.12841277D-04 -0.11936048D-13
  0.52656650D-07  0.19544654D-04  0.18089664D-13 -0.30899785D-06  0.18979177D-04
  0.86958990D-15  0.36854418D-04  0.66468460D-04  0.98007706D-04 -0.37699919D-03
 -0.15673723D-04  0.64868561D-05  0.51037211D-13  0.16442855D-03  0.19745878D-03
 -0.66302219D-13  0.12479721D-03  0.14969019D-03  0.17145613D-13  0.72022801D-04
 -0.60249423D-04 -0.23535555D-03  0.11492656D-03  0.12042899D-03 -0.47152347D-13
  0.15508756D-13  0.44417496D-03 -0.63759933D-04  0.99890017D-05  0.53770931D-04
  0.94207012D-14 -0.38697301D-13 -0.58099824D-04  0.39781658D-04  0.71747859D-04
  0.10579218D-03 -0.34922732D-03  0.13314050D-04  0.74463368D-05  0.54060135D-13
 -0.17477349D-03  0.20563021D-03 -0.68488774D-13 -0.13120048D-03  0.17527901D-03
  0.14202468D-13 -0.75817566D-04 -0.58687959D-04 -0.23594074D-03  0.11040611D-03
  0.12553463D-03  0.46703202D-13  0.20119739D-13 -0.45201665D-03 -0.64433487D-04
  0.97751056D-05  0.54658381D-04 -0.79108682D-14 -0.40634341D-13  0.57479519D-04
MO    4     MO 0.0        OCC NO =    2.0000047  ORB. ENERGY =    0.000000
  0.28524153D+00  0.53174768D+00  0.89872602D+00  0.13509528D+01  0.16594036D+01
  0.14004781D+01  0.52661633D+00  0.30283846D-04  0.22635299D-03  0.84593279D-03
  0.23600208D-02  0.31617772D-02 -0.37334693D-02  0.23561521D-01 -0.49308820D-03
 -0.34470477D-05 -0.15429374D-11 -0.14466019D-11 -0.10300667D-11 -0.45085991D-04
 -0.42270983D-04 -0.30099458D-04  0.42273063D-02  0.39633684D-02  0.28221544D-02
 -0.24846452D-12  0.37034327D-04 -0.37250824D-03 -0.18336810D-13  0.72411323D-05
 -0.31130710D-03  0.13511278D-15 -0.16150203D-06 -0.38472146D-05 -0.11776568D-02
  0.59755725D-03  0.58009958D-03  0.14545105D-14 -0.35134495D-12 -0.20658416D-04
  0.18284565D-03  0.11593288D-03 -0.29877853D-03 -0.15676337D-14  0.32489476D-12
 -0.17038037D-04  0.88433112D-05  0.38909284D-04 -0.47752596D-04  0.12011001D-14
 -0.28768928D-13 -0.10244537D-05  0.44382933D-13  0.46670459D-05  0.41215888D-03
  0.25490983D-13 -0.72952863D-05  0.19024985D-03 -0.15863978D-12 -0.67058514D-05
 -0.14267265D-02  0.13762983D-14 -0.18399108D-13 -0.10466613D-05 -0.66189506D-04
 -0.74266446D-13 -0.10909414D-05 -0.22714103D-04  0.12946377D-12  0.42309251D-05
  0.22128262D-03  0.39523925D-15  0.37063004D-01  0.69293020D-01  0.11975893D+00
  0.19370514D+00  0.29277884D+00  0.40321707D+00  0.47131166D+00  0.40733941D+00
  0.19010742D+00  0.25755384D-01 -0.18837859D-03  0.46489707D-03  0.59762050D-02
  0.21800337D-01  0.73553796D-01  0.16155714D+00  0.20868776D+00 -0.33537899D-01
 -0.28134311D+00 -0.15439747D+00  0.18383951D-05  0.20940463D-04  0.43479949D-04
  0.11955882D-03 -0.15502174D-04 -0.54059052D-03 -0.13483186D-02  0.11161186D-02
 -0.95697257D-02  0.13190604D-02  0.10498935D-03  0.51460926D-08  0.67513808D-08
  0.74048036D-08  0.60924493D-08  0.32115929D-08  0.83559606D-09  0.85590985D-02
  0.11229050D-01  0.12315838D-01  0.10133101D-01  0.53415945D-02  0.13897824D-02
  0.42587815D+01  0.55872791D+01  0.61280360D+01  0.50419634D+01  0.26578364D+01
  0.69151905D+00  0.27323871D-13  0.98080760D-12  0.15560759D-11  0.18477923D-11
  0.27961968D-12 -0.20350197D-11  0.83477214D-07  0.29964673D-05  0.47539705D-05
  0.56451941D-05  0.85426666D-06 -0.62171927D-05  0.31469658D-04  0.11296232D-02
  0.17921756D-02  0.21281535D-02  0.32204572D-03 -0.23437884D-02  0.39874193D-10
  0.67388992D-04  0.33219192D-01  0.90480358D-13  0.20979411D-05 -0.34665943D-03
 -0.81374967D-14  0.11549472D-06 -0.46329968D-05 -0.13478485D-03 -0.23084136D-03
  0.36562621D-03 -0.51625045D-16  0.33227072D-12  0.12215007D-05  0.98564666D-04
  0.34096608D-03 -0.43953074D-03  0.60632305D-16 -0.21660257D-12  0.30515398D-05
 -0.10153456D-04 -0.12208347D-04  0.22361804D-04 -0.33337724D-15 -0.17471126D-13
 -0.53006314D-06  0.68862245D-13  0.23032722D-06  0.54375207D-04 -0.39991012D-13
  0.18032879D-06 -0.28033393D-04 -0.16659572D-12 -0.87131046D-06 -0.13509223D-03
 -0.15570675D-14  0.36974355D-14 -0.68591113D-07 -0.36764408D-04  0.18860732D-13
 -0.29245050D-07  0.28598412D-04 -0.29953038D-13  0.23501839D-06  0.81694810D-04
  0.58082582D-15 -0.30306098D-03 -0.54658295D-03 -0.80593625D-03 -0.50923640D-03
 -0.46427319D-03 -0.71129244D-05 -0.63302908D-13 -0.81067976D-03 -0.37670715D-03
  0.81625728D-13 -0.38049725D-03 -0.26039415D-03 -0.30630519D-13 -0.30171033D-04
 -0.10250172D-03  0.27254877D-03 -0.42307113D-03  0.15052236D-03  0.73685809D-13
 -0.28602734D-13 -0.96118573D-03  0.47281906D-04 -0.21995867D-04 -0.25286039D-04
 -0.22917875D-13  0.58762841D-13 -0.76418087D-04 -0.30794286D-03 -0.55538763D-03
 -0.81891873D-03 -0.57643384D-03 -0.49898178D-03 -0.70618634D-05 -0.63077298D-13
  0.82598021D-03 -0.37546788D-03  0.84484149D-13  0.42760440D-03 -0.27637469D-03
 -0.33822607D-13  0.37143025D-04 -0.10443250D-03  0.27311654D-03 -0.43569245D-03
  0.16257592D-03 -0.76817010D-13 -0.29227927D-13  0.95523308D-03  0.49263403D-04
 -0.25200422D-04 -0.24062981D-04  0.22563781D-13  0.57616986D-13  0.81228204D-04
MO    5     MO 0.0        OCC NO =    2.0000044  ORB. ENERGY =    0.000000
 -0.20177721D-09 -0.37615337D-09 -0.63575044D-09 -0.95565149D-09 -0.11738467D-08
 -0.99068520D-09 -0.37252350D-09 -0.23708830D-13 -0.17720882D-12 -0.66226981D-12
 -0.18476296D-11 -0.24753143D-11  0.29228847D-11 -0.16559526D-10 -0.19820347D-13
 -0.70136292D-13 -0.29467021D-02 -0.27627205D-02 -0.19672216D-02  0.41385938D-14
  0.38801948D-14  0.27629298D-14 -0.10466910D-11 -0.98133938D-12 -0.69877210D-12
 -0.49012531D-03  0.54514089D-13  0.42334818D-12 -0.49788080D-04  0.88247384D-13
  0.17366959D-12 -0.22046861D-06  0.28367249D-14  0.87063877D-15  0.76589025D-12
 -0.46112354D-12 -0.30476671D-12  0.57988361D-06 -0.66479446D-03 -0.34788997D-13
 -0.10987013D-12 -0.99496495D-13  0.20936663D-12 -0.28554287D-05  0.61383606D-03
 -0.41990973D-13  0.17500745D-14 -0.13119243D-13  0.11369169D-13  0.62446792D-06
 -0.54378149D-04 -0.10441043D-13  0.83949486D-04 -0.60617673D-16 -0.19825893D-12
  0.45110123D-04 -0.68795298D-15 -0.25278510D-12 -0.29695858D-03  0.86980600D-15
  0.84756188D-12  0.15851922D-05 -0.33653060D-04 -0.45736298D-15  0.68176249D-13
 -0.14055508D-03 -0.63027711D-14 -0.31068553D-15  0.24151426D-03  0.76748601D-14
 -0.20421806D-12 -0.33343408D-06 -0.13042495D-09 -0.24384258D-09 -0.42143245D-09
 -0.68164963D-09 -0.10302906D-08 -0.14189235D-08 -0.16585487D-08 -0.14334300D-08
 -0.66898923D-09 -0.90633362D-10  0.66290546D-12  0.30451602D-12  0.39145228D-11
  0.14279617D-10  0.48179073D-10  0.10582286D-09  0.13669427D-09 -0.21967933D-10
 -0.18428484D-09 -0.10113315D-09  0.16641910D-14  0.18956170D-13  0.39359843D-13
  0.10822957D-12 -0.14033207D-13 -0.48936484D-12 -0.12205536D-11  0.10103566D-11
 -0.55799471D-11 -0.38465529D-12 -0.30738737D-13  0.97155957D+01  0.12746309D+02
  0.13979942D+02  0.11502276D+02  0.60633457D+01  0.15775685D+01  0.17013810D-09
  0.22321151D-09  0.24481472D-09  0.20142617D-09  0.10618043D-09  0.27626150D-10
 -0.53509231D-09 -0.70201069D-09 -0.76995379D-09 -0.63349479D-09 -0.33394243D-09
 -0.86885539D-10  0.51731391D-04  0.18569309D-02  0.29460675D-02  0.34983648D-02
  0.52939480D-03 -0.38528361D-02  0.17900016D-14  0.64253238D-13  0.10193937D-12
  0.12104988D-12  0.18318037D-13 -0.13331524D-12 -0.60438190D-14 -0.21694670D-12
 -0.34419137D-12 -0.40871670D-12 -0.61849609D-13  0.45012987D-12  0.75260322D-01
  0.11488610D-11 -0.42721458D-11  0.17319932D-03 -0.12007650D-13  0.15781450D-12
 -0.15183060D-04 -0.73138686D-15  0.16583601D-14  0.27372002D-13  0.73891884D-13
 -0.10126389D-12  0.20337345D-06  0.62424252D-03  0.14395467D-13 -0.10550746D-12
  0.18991390D-14  0.10360832D-12 -0.11095646D-05 -0.39984125D-03 -0.27923441D-13
  0.61624658D-14  0.78227551D-14 -0.13985221D-13 -0.18883715D-06 -0.34368019D-04
  0.18536815D-15  0.12998833D-03 -0.13527657D-14 -0.40074035D-13 -0.73632564D-04
  0.30495379D-14  0.73776088D-13 -0.31633243D-03  0.10087591D-14  0.46446018D-13
 -0.12819370D-05  0.66345135D-05  0.84286926D-15  0.14636170D-13  0.35058384D-04
  0.14895610D-15 -0.74953031D-14 -0.54961925D-04 -0.26775639D-14 -0.36413208D-13
  0.36120461D-06  0.16748418D-12  0.30206461D-12  0.44539409D-12  0.36371043D-12
  0.50742146D-12  0.13718328D-13 -0.12389285D-03  0.50428096D-12  0.27625678D-12
  0.16169583D-03  0.31366294D-12  0.23546541D-12 -0.56635377D-04  0.60249877D-13
  0.64245990D-13 -0.23892939D-12  0.27570325D-12 -0.36773856D-13  0.14022594D-03
 -0.52338338D-04  0.70426001D-12 -0.42069101D-13  0.12338947D-13  0.29730154D-13
 -0.39405387D-04  0.11055594D-03  0.23126458D-13  0.18169794D-12  0.32769972D-12
  0.48319304D-12  0.23563112D-12  0.24568803D-12  0.36192205D-14 -0.12743856D-03
 -0.50150921D-12  0.26923005D-12  0.16719971D-03 -0.25586636D-12  0.21574281D-12
 -0.58038557D-04 -0.27177433D-13  0.48956317D-13 -0.21703385D-12  0.26274586D-12
 -0.45712009D-13 -0.14001241D-03 -0.57213907D-04 -0.64521717D-12 -0.43461071D-13
  0.11795834D-13  0.31665237D-13  0.37873921D-04  0.11089526D-03 -0.27606218D-13
MO    6     MO 0.0        OCC NO =    2.0000000  ORB. ENERGY =    0.000000
 -0.80098170D-04 -0.14931912D-03 -0.25236966D-03 -0.37935868D-03 -0.46597419D-03
 -0.39326577D-03 -0.14787820D-03  0.50260853D-07  0.37566874D-06  0.14039599D-05
  0.39168294D-05  0.52474715D-05 -0.61962854D-05  0.17046029D-05 -0.30345284D-04
 -0.72065921D-05 -0.77129785D-12 -0.72314076D-12 -0.51491930D-12  0.26278920D-07
  0.24638158D-07  0.17543836D-07  0.14601291D-04  0.13689638D-04  0.97478381D-05
 -0.13488478D-12 -0.31501440D-07 -0.38259429D-04 -0.18627137D-13 -0.11407706D-06
  0.40674017D-05 -0.39108681D-15 -0.83827519D-08 -0.39134432D-06  0.14967891D-05
  0.88714509D-05 -0.10368240D-04 -0.78695917D-15 -0.17999231D-12 -0.16789046D-06
  0.62641737D-05  0.44614258D-05 -0.10725599D-04  0.18764714D-14  0.16477062D-12
 -0.92653559D-07  0.63352514D-06 -0.88108425D-06  0.24755911D-06  0.16661565D-14
 -0.14940766D-13 -0.17128199D-07  0.22238584D-13 -0.10173233D-06  0.21100873D-05
  0.96704170D-14  0.48363125D-07  0.42017737D-06 -0.76386168D-13  0.25683387D-06
 -0.67504393D-05 -0.70959800D-15 -0.83228083D-14 -0.52600644D-07 -0.36085083D-06
 -0.37538301D-13  0.10681651D-07  0.59571193D-06  0.62506726D-13  0.14712028D-06
  0.48684055D-06  0.47042187D-15  0.58266945D+00  0.10893592D+01  0.18827365D+01
  0.30452487D+01  0.46027915D+01  0.63389969D+01  0.74095155D+01  0.64038043D+01
  0.29886888D+01  0.40490175D+00 -0.29615097D-02 -0.29342529D-04 -0.37719525D-03
 -0.13759541D-02 -0.46424349D-02 -0.10196870D-01 -0.13171575D-01  0.21167842D-02
  0.17757303D-01  0.97449789D-02  0.19732250D-06  0.22476259D-05  0.46668817D-05
  0.12832739D-04 -0.16639120D-05 -0.58023803D-04 -0.14472058D-03  0.11979760D-03
  0.14000795D-04 -0.17392282D-04  0.33162838D-05  0.25686395D-08  0.33699089D-08
  0.36960608D-08  0.30410075D-08  0.16030462D-08  0.41708248D-09  0.64355809D-05
  0.84431162D-05  0.92602712D-05  0.76190722D-05  0.40163416D-05  0.10449765D-05
  0.11215831D-01  0.14714532D-01  0.16138657D-01  0.13278401D-01  0.69996181D-02
  0.18211690D-02  0.13665780D-13  0.49054181D-12  0.77825688D-12  0.92415617D-12
  0.13984919D-12 -0.10177962D-11  0.18069775D-08  0.64862597D-07  0.10290614D-06
  0.12219788D-06  0.18491760D-07 -0.13457957D-06  0.70558899D-06  0.25327562D-04
  0.40182812D-04  0.47715857D-04  0.72206669D-05 -0.52550660D-04  0.19897314D-10
  0.16391819D-06  0.16314989D-03  0.48389874D-13 -0.17648643D-08  0.52058333D-05
 -0.37897176D-14  0.18850715D-09 -0.35702146D-07 -0.58168054D-05 -0.37748081D-05
  0.95916135D-05 -0.53255413D-15  0.16397905D-12  0.65905158D-07  0.91314510D-05
 -0.15968139D-04  0.68366883D-05 -0.42864794D-15 -0.10498686D-12  0.15008834D-06
  0.59199393D-06  0.48997439D-06 -0.10819683D-05 -0.49104732D-15 -0.10022871D-13
  0.38640991D-08  0.34490969D-13  0.19082136D-07 -0.70017986D-05 -0.18872553D-13
 -0.75008215D-08  0.12190502D-04 -0.84600354D-13 -0.49745586D-07  0.88148936D-05
 -0.19449035D-14  0.16374206D-14  0.10726068D-08 -0.58499581D-07  0.91043887D-14
  0.40518827D-08 -0.77395909D-08 -0.14016651D-13 -0.72697032D-08  0.18323833D-06
  0.95584551D-15 -0.12214467D-05 -0.22029294D-05 -0.32482180D-05  0.28491892D-05
  0.16967806D-04  0.21433053D-06 -0.36632677D-13 -0.59014623D-05 -0.16254979D-05
  0.49169922D-13  0.12970675D-05 -0.18513166D-05 -0.11759061D-13  0.76642663D-06
  0.24304508D-05 -0.23728957D-05 -0.12554314D-05  0.36283271D-05  0.38496999D-13
 -0.16645135D-13 -0.24600010D-05 -0.50614617D-07 -0.38120840D-06  0.43182302D-06
 -0.81861609D-14  0.31315049D-13 -0.18567565D-05 -0.12425534D-05 -0.22409963D-05
 -0.33043477D-05  0.27466369D-05  0.17305461D-04  0.25017023D-06 -0.33636945D-13
  0.58584324D-05 -0.15070970D-05  0.47136772D-13 -0.84802392D-06 -0.12944250D-05
 -0.16444401D-13 -0.78193126D-06  0.24936448D-05 -0.24780832D-05 -0.16755418D-05
  0.41536250D-05 -0.39735252D-13 -0.13206226D-13  0.20494823D-05 -0.57884627D-07