 h2cs-wavefunction
GAUSSIAN            142 MOL ORBITALS    240 PRIMITIVES        4 NUCLEI
  C    1    (CENTRE  1)   0.00000000  0.00000000 -1.04934791  CHARGE =  6.0
  S    2    (CENTRE  2)   0.00000000  0.00000000  2.00381646  CHARGE = 16.0
  H    3    (CENTRE  3)   0.00000000 -1.74285662 -2.13348569  CHARGE =  1.0
  H    4    (CENTRE  4)   0.00000000  1.72395936 -2.13348569  CHARGE =  1.0
CENTRE ASSIGNMENTS    1  1  1  1  1  1  1  1  1  1  1  1  1  1  1  1  1  1  1  1
CENTRE ASSIGNMENTS    1  1  1  1  1  1  1  1  1  1  1  1  1  1  1  1  1  1  1  1
CENTRE ASSIGNMENTS    1  1  1  1  1  1  1  1  1  1  1  1  1  1  1  1  1  1  1  1
CENTRE ASSIGNMENTS    1  1  1  1  1  1  1  1  1  1  1  1  2  2  2  2  2  2  2  2
CENTRE ASSIGNMENTS    2  2  2  2  2  2  2  2  2  2  2  2  2  2  2  2  2  2  2  2
CENTRE ASSIGNMENTS    2  2  2  2  2  2  2  2  2  2  2  2  2  2  2  2  2  2  2  2
CENTRE ASSIGNMENTS    2  2  2  2  2  2  2  2  2  2  2  2  2  2  2  2  2  2  2  2
CENTRE ASSIGNMENTS    2  2  2  2  2  2  2  2  2  2  2  2  2  2  2  2  2  2  2  2
CENTRE ASSIGNMENTS    2  2  2  2  2  2  2  2  2  2  2  2  2  2  2  2  2  2  2  2
CENTRE ASSIGNMENTS    2  2  2  2  2  2  3  3  3  3  3  3  3  3  3  3  3  3  3  3
CENTRE ASSIGNMENTS    3  3  3  3  3  3  3  3  3  3  3  3  3  4  4  4  4  4  4  4
CENTRE ASSIGNMENTS    4  4  4  4  4  4  4  4  4  4  4  4  4  4  4  4  4  4  4  4
TYPE ASSIGNMENTS      1  1  1  1  1  1  1  1  1  1  1  1  1  1  1  1  2  2  2  3
TYPE ASSIGNMENTS      3  3  4  4  4  2  3  4  2  3  4  2  3  4  5  6  7  8  9 10
TYPE ASSIGNMENTS      5  6  7  8  9 10  5  6  7  8  9 10 11 12 13 17 14 15 18 19
TYPE ASSIGNMENTS     16 20 11 12 13 17 14 15 18 19 16 20  1  1  1  1  1  1  1  1
TYPE ASSIGNMENTS      1  1  1  1  1  1  1  1  1  1  1  1  1  1  1  1  1  1  1  1
TYPE ASSIGNMENTS      1  1  1  2  2  2  2  2  2  3  3  3  3  3  3  4  4  4  4  4
TYPE ASSIGNMENTS      4  2  2  2  2  2  2  3  3  3  3  3  3  4  4  4  4  4  4  2
TYPE ASSIGNMENTS      3  4  2  3  4  2  3  4  5  6  7  8  9 10  5  6  7  8  9 10
TYPE ASSIGNMENTS      5  6  7  8  9 10 11 12 13 17 14 15 18 19 16 20 11 12 13 17
TYPE ASSIGNMENTS     14 15 18 19 16 20  1  1  1  1  1  1  2  3  4  2  3  4  2  3
TYPE ASSIGNMENTS      4  5  6  7  8  9 10  5  6  7  8  9 10  1  1  1  1  1  1  2
TYPE ASSIGNMENTS      3  4  2  3  4  2  3  4  5  6  7  8  9 10  5  6  7  8  9 10
EXPONENTS  0.8236000D+04 0.1235000D+04 0.2808000D+03 0.7927000D+02 0.2559000D+02
EXPONENTS  0.8997000D+01 0.3319000D+01 0.2808000D+03 0.7927000D+02 0.2559000D+02
EXPONENTS  0.8997000D+01 0.3319000D+01 0.3643000D+00 0.9059000D+00 0.1285000D+00
EXPONENTS  0.4402000D-01 0.1871000D+02 0.4133000D+01 0.1200000D+01 0.1871000D+02
EXPONENTS  0.4133000D+01 0.1200000D+01 0.1871000D+02 0.4133000D+01 0.1200000D+01
EXPONENTS  0.3827000D+00 0.3827000D+00 0.3827000D+00 0.1209000D+00 0.1209000D+00
EXPONENTS  0.1209000D+00 0.3569000D-01 0.3569000D-01 0.3569000D-01 0.1097000D+01
EXPONENTS  0.1097000D+01 0.1097000D+01 0.1097000D+01 0.1097000D+01 0.1097000D+01
EXPONENTS  0.3180000D+00 0.3180000D+00 0.3180000D+00 0.3180000D+00 0.3180000D+00
EXPONENTS  0.3180000D+00 0.1000000D+00 0.1000000D+00 0.1000000D+00 0.1000000D+00
EXPONENTS  0.1000000D+00 0.1000000D+00 0.7610000D+00 0.7610000D+00 0.7610000D+00
EXPONENTS  0.7610000D+00 0.7610000D+00 0.7610000D+00 0.7610000D+00 0.7610000D+00
EXPONENTS  0.7610000D+00 0.7610000D+00 0.2680000D+00 0.2680000D+00 0.2680000D+00
EXPONENTS  0.2680000D+00 0.2680000D+00 0.2680000D+00 0.2680000D+00 0.2680000D+00
EXPONENTS  0.2680000D+00 0.2680000D+00 0.3741000D+06 0.5605000D+05 0.1276000D+05
EXPONENTS  0.3615000D+04 0.1183000D+04 0.4288000D+03 0.1678000D+03 0.6947000D+02
EXPONENTS  0.2984000D+02 0.1272000D+02 0.5244000D+01 0.3615000D+04 0.1183000D+04
EXPONENTS  0.4288000D+03 0.1678000D+03 0.6947000D+02 0.2984000D+02 0.1272000D+02
EXPONENTS  0.5244000D+01 0.2219000D+01 0.1183000D+04 0.1678000D+03 0.6947000D+02
EXPONENTS  0.2984000D+02 0.1272000D+02 0.5244000D+01 0.2219000D+01 0.3490000D+00
EXPONENTS  0.7767000D+00 0.1322000D+00 0.4970000D-01 0.5744000D+03 0.1358000D+03
EXPONENTS  0.4319000D+02 0.1587000D+02 0.6208000D+01 0.2483000D+01 0.5744000D+03
EXPONENTS  0.1358000D+03 0.4319000D+02 0.1587000D+02 0.6208000D+01 0.2483000D+01
EXPONENTS  0.5744000D+03 0.1358000D+03 0.4319000D+02 0.1587000D+02 0.6208000D+01
EXPONENTS  0.2483000D+01 0.1358000D+03 0.4319000D+02 0.1587000D+02 0.6208000D+01
EXPONENTS  0.2483000D+01 0.3229000D+00 0.1358000D+03 0.4319000D+02 0.1587000D+02
EXPONENTS  0.6208000D+01 0.2483000D+01 0.3229000D+00 0.1358000D+03 0.4319000D+02
EXPONENTS  0.1587000D+02 0.6208000D+01 0.2483000D+01 0.3229000D+00 0.8688000D+00
EXPONENTS  0.8688000D+00 0.8688000D+00 0.1098000D+00 0.1098000D+00 0.1098000D+00
EXPONENTS  0.3510000D-01 0.3510000D-01 0.3510000D-01 0.2690000D+00 0.2690000D+00
EXPONENTS  0.2690000D+00 0.2690000D+00 0.2690000D+00 0.2690000D+00 0.8190000D+00
EXPONENTS  0.8190000D+00 0.8190000D+00 0.8190000D+00 0.8190000D+00 0.8190000D+00
EXPONENTS  0.1010000D+00 0.1010000D+00 0.1010000D+00 0.1010000D+00 0.1010000D+00
EXPONENTS  0.1010000D+00 0.5570000D+00 0.5570000D+00 0.5570000D+00 0.5570000D+00
EXPONENTS  0.5570000D+00 0.5570000D+00 0.5570000D+00 0.5570000D+00 0.5570000D+00
EXPONENTS  0.5570000D+00 0.2180000D+00 0.2180000D+00 0.2180000D+00 0.2180000D+00
EXPONENTS  0.2180000D+00 0.2180000D+00 0.2180000D+00 0.2180000D+00 0.2180000D+00
EXPONENTS  0.2180000D+00 0.3387000D+02 0.5095000D+01 0.1159000D+01 0.3258000D+00
EXPONENTS  0.1027000D+00 0.2526000D-01 0.1407000D+01 0.1407000D+01 0.1407000D+01
EXPONENTS  0.3880000D+00 0.3880000D+00 0.3880000D+00 0.1020000D+00 0.1020000D+00
EXPONENTS  0.1020000D+00 0.1057000D+01 0.1057000D+01 0.1057000D+01 0.1057000D+01
EXPONENTS  0.1057000D+01 0.1057000D+01 0.2470000D+00 0.2470000D+00 0.2470000D+00
EXPONENTS  0.2470000D+00 0.2470000D+00 0.2470000D+00 0.3387000D+02 0.5095000D+01
EXPONENTS  0.1159000D+01 0.3258000D+00 0.1027000D+00 0.2526000D-01 0.1407000D+01
EXPONENTS  0.1407000D+01 0.1407000D+01 0.3880000D+00 0.3880000D+00 0.3880000D+00
EXPONENTS  0.1020000D+00 0.1020000D+00 0.1020000D+00 0.1057000D+01 0.1057000D+01
EXPONENTS  0.1057000D+01 0.1057000D+01 0.1057000D+01 0.1057000D+01 0.2470000D+00
EXPONENTS  0.2470000D+00 0.2470000D+00 0.2470000D+00 0.2470000D+00 0.2470000D+00
MO    1     MO 0.0        OCC NO =    2.0000337  ORB. ENERGY =    0.000000
 -0.12877605D-04 -0.24006450D-04 -0.40574171D-04 -0.60990547D-04 -0.74915963D-04
 -0.63226430D-04 -0.23774789D-04  0.97672797D-08  0.73004364D-07  0.27283398D-06
  0.76116432D-06  0.10197503D-05 -0.12041350D-05 -0.45428696D-05  0.42202465D-04
  0.19253659D-05  0.21090885D-13  0.19774045D-13  0.14080298D-13 -0.14315210D-02
 -0.13421419D-02 -0.95568502D-03 -0.44230537D-05 -0.41468940D-05 -0.29528356D-05
  0.27298869D-14 -0.60119861D-03  0.30761627D-06 -0.11477269D-14  0.16232979D-02
 -0.68863938D-05 -0.48753997D-16  0.29998497D-04 -0.63855237D-07  0.55315211D-06
  0.15916964D-05 -0.21448485D-05 -0.44388064D-14  0.29944803D-14 -0.10584639D-02
 -0.21003001D-05 -0.14975839D-06  0.22500585D-05  0.60462048D-14 -0.26684335D-14
  0.51492930D-04  0.23150596D-06 -0.11381319D-05  0.90662598D-06  0.54695549D-15
  0.73096155D-15 -0.21494098D-03 -0.11384354D-14  0.16861212D-03  0.13194131D-05
  0.62532076D-15  0.19382882D-03 -0.91274693D-06  0.27899854D-14 -0.69966518D-03
 -0.30454925D-05 -0.65276076D-14  0.41028506D-15 -0.83013865D-04  0.13551072D-06
  0.33649971D-15 -0.12288844D-03  0.38599443D-06 -0.15673549D-14  0.37193004D-03
 -0.79252658D-06 -0.19096762D-14  0.95854325D-04  0.17920932D-03  0.30972696D-03
  0.50097060D-03  0.75720029D-03  0.10428216D-02  0.12189314D-02  0.10534830D-02
  0.49166599D-03  0.66609953D-04 -0.48719479D-06  0.12035369D-05  0.15471345D-04
  0.56437243D-04  0.19041786D-03  0.41824306D-03  0.54025596D-03 -0.86823729D-04
 -0.72834788D-03 -0.39970792D-03  0.58987593D-08  0.67190535D-07  0.13951177D-06
  0.38362194D-06 -0.49740990D-07 -0.17345637D-05 -0.43262774D-05  0.35812298D-05
 -0.20299572D-04 -0.30092130D-05 -0.27370653D-06 -0.70365003D-10 -0.92314882D-10
 -0.10124945D-09 -0.83304994D-10 -0.43913656D-10 -0.11425507D-10  0.97724471D+01
  0.12820895D+02  0.14061747D+02  0.11569582D+02  0.60988257D+01  0.15867997D+01
 -0.14366946D-02 -0.18848616D-02 -0.20672853D-02 -0.17009001D-02 -0.89661780D-03
 -0.23328308D-03 -0.37593526D-15 -0.13494433D-13 -0.21409257D-13 -0.25422836D-13
 -0.38471451D-14  0.27998801D-13  0.96490937D-04  0.34636031D-02  0.54950931D-02
  0.65252545D-02  0.98744300D-03 -0.71864251D-02 -0.73411109D-07 -0.26351381D-05
 -0.41807127D-05 -0.49644680D-05 -0.75125487D-06  0.54674921D-05 -0.54310989D-12
  0.66516709D-01 -0.11916800D-04 -0.12913617D-14 -0.57792701D-03  0.63251165D-06
  0.10118094D-15 -0.27534493D-04  0.21910911D-07  0.39001752D-06  0.75313994D-06
 -0.11431575D-05  0.21651773D-15 -0.41205813D-14  0.77456648D-03  0.62278591D-06
  0.42741961D-06 -0.10502055D-05  0.46494169D-15  0.41388328D-14 -0.10832536D-02
 -0.63971241D-07  0.14192632D-06 -0.77955074D-07 -0.10931527D-15  0.26050848D-15
 -0.29465219D-04 -0.92962167D-15  0.16559121D-05  0.23592282D-06  0.14475420D-14
  0.13068445D-03 -0.50270438D-06  0.13413230D-14 -0.13565219D-03 -0.20506408D-06
 -0.11347608D-14 -0.18869285D-16  0.33884088D-04  0.13213156D-06 -0.32432708D-15
 -0.21280896D-05  0.49244883D-08  0.38093494D-15 -0.99524173D-04 -0.40131916D-06
  0.54482950D-16 -0.10735125D-03 -0.19361239D-03 -0.28548136D-03  0.13013771D-03
  0.23840645D-02  0.26092053D-04 -0.45963782D-14 -0.20904840D-04  0.26759170D-03
  0.67574414D-14 -0.13580905D-04 -0.33286309D-03  0.22281280D-14  0.31548304D-03
  0.13459995D-03 -0.47739711D-04 -0.14557004D-03  0.19330975D-03  0.44422879D-14
  0.79743003D-15 -0.99420195D-05  0.25275233D-04 -0.22135595D-04 -0.31396387D-05
  0.23148024D-14  0.76417002D-15 -0.11758992D-03  0.10641254D-03  0.19191940D-03
  0.28298505D-03 -0.14654588D-03 -0.24142494D-02 -0.26585478D-04  0.22356810D-14
 -0.20260702D-04 -0.27288779D-03 -0.52445592D-14 -0.15344387D-04  0.33759098D-03
  0.22321871D-15  0.31709884D-03 -0.13514392D-03  0.47455148D-04  0.14781157D-03
 -0.19526672D-03  0.77303644D-14  0.43385357D-15 -0.10202808D-04 -0.25772395D-04
  0.22351967D-04  0.34204282D-05  0.43727133D-15 -0.13768388D-14 -0.11567588D-03
MO    2     MO 0.0        OCC NO =    2.0000243  ORB. ENERGY =    0.000000
 -0.53301234D-01 -0.99364239D-01 -0.16793910D+00 -0.25244379D+00 -0.31008198D+00
 -0.26169825D+00 -0.98405377D-01 -0.88916155D-05 -0.66459317D-04 -0.24837364D-03
 -0.69292379D-03 -0.92832684D-03  0.10961809D-02 -0.42221792D-02 -0.54269476D-03
 -0.40745755D-04  0.18441074D-13  0.17289679D-13  0.12311281D-13  0.34469729D-05
  0.32317562D-05  0.23012029D-05  0.24022127D-02  0.22522271D-02  0.16037198D-02
  0.11211866D-13 -0.47229143D-05  0.52775529D-04 -0.25189638D-14 -0.66616253D-06
 -0.60512815D-03 -0.34682566D-15  0.10127221D-06 -0.44936775D-06  0.19139635D-03
 -0.14759524D-03 -0.43801108D-04  0.40829520D-14  0.76034598D-14  0.52966676D-05
  0.38382114D-04  0.14850184D-03 -0.18688395D-03 -0.44137710D-14 -0.11824040D-13
  0.42275296D-05  0.11282329D-04  0.86397488D-04 -0.97679817D-04 -0.50238097D-15
 -0.61329636D-15  0.49478589D-06 -0.41241427D-14  0.59269463D-06  0.99572758D-05
  0.72935785D-14  0.14626545D-05 -0.17173401D-03  0.50788496D-14 -0.32407384D-05
  0.14186218D-03  0.44499172D-14  0.40536096D-15  0.10899507D-06  0.59084836D-04
  0.16226115D-14  0.38953563D-06  0.10074659D-04 -0.28386944D-14 -0.71652084D-06
 -0.18732917D-03  0.17244538D-14 -0.12114373D+00 -0.22649040D+00 -0.39144272D+00
 -0.63314247D+00 -0.95697366D+00 -0.13179509D+01 -0.15405241D+01 -0.13314251D+01
 -0.62138301D+00 -0.84183763D-01  0.61573217D-03 -0.15086407D-02 -0.19393424D-01
 -0.70744423D-01 -0.23868993D+00 -0.52427019D+00 -0.67721408D+00  0.10883406D+00
  0.91298844D+00  0.50103628D+00 -0.12534499D-04 -0.14277574D-03 -0.29645390D-03
 -0.81517294D-03  0.10569653D-03  0.36858408D-02  0.91930723D-02 -0.76098921D-02
  0.27972188D-01  0.11533110D-02  0.52251891D-05 -0.11602691D-09 -0.15222071D-09
 -0.16695317D-09 -0.13736404D-09 -0.72410511D-10 -0.18839853D-10  0.48500021D-02
  0.63629269D-02  0.69787538D-02  0.57419084D-02  0.30268076D-02  0.78751841D-03
  0.66583919D+01  0.87354316D+01  0.95808779D+01  0.78828577D+01  0.41553944D+01
  0.10811555D+01 -0.56580249D-15 -0.20309837D-13 -0.32222066D-13 -0.38262715D-13
 -0.57901573D-14  0.42139680D-13  0.33218752D-07  0.11924081D-05  0.18917853D-05
  0.22464370D-05  0.33994513D-06 -0.24740569D-05  0.55938038D-04  0.20079312D-02
  0.31856331D-02  0.37828416D-02  0.57244364D-03 -0.41661376D-02 -0.90089727D-12
  0.33243458D-04  0.48630240D-01  0.74577986D-15 -0.70583303D-06 -0.64595010D-03
  0.46025221D-15 -0.58494134D-07 -0.14324584D-05 -0.25504587D-03 -0.10229700D-03
  0.35734287D-03 -0.83368965D-15 -0.73122097D-14  0.58175754D-07  0.35815879D-03
 -0.38131021D-03  0.23151415D-04 -0.49469913D-15  0.48950395D-14 -0.11328939D-05
 -0.53186554D-05 -0.23221130D-04  0.28539785D-04  0.74018306D-16 -0.73087416D-15
  0.70472934D-07 -0.11664803D-14 -0.97790367D-07 -0.69457880D-04  0.15405066D-14
 -0.34556162D-08  0.20734348D-03  0.19589344D-14  0.29682672D-06  0.10301596D-05
 -0.76970259D-15 -0.19559690D-15  0.34675831D-07 -0.19588400D-04 -0.61986332D-15
 -0.16405819D-07  0.25603516D-04  0.12066540D-14 -0.87621673D-07  0.33161683D-04
 -0.24849075D-15 -0.22879077D-04 -0.41263357D-04 -0.60842796D-04 -0.40125643D-03
 -0.45385516D-03  0.31593291D-05  0.40635898D-14  0.20325733D-04  0.90378336D-04
 -0.11336136D-13  0.31459741D-04  0.23187415D-04 -0.42047909D-15  0.35186861D-04
 -0.12616570D-03 -0.10051442D-03  0.20175521D-04  0.80338902D-04 -0.15168158D-13
 -0.97673864D-14  0.12916383D-03 -0.31447629D-04  0.21712225D-04  0.97354041D-05
 -0.23056250D-14 -0.17715458D-14 -0.64790642D-04 -0.22178893D-04 -0.40000547D-04
 -0.58980783D-04 -0.38822989D-03 -0.44567578D-03  0.29940190D-05 -0.66995332D-15
 -0.20928879D-04  0.95740560D-04 -0.11198383D-14 -0.46212902D-04  0.20889120D-04
  0.12769401D-14 -0.39178366D-04 -0.12827031D-03 -0.10110241D-03  0.21138215D-04
  0.79964193D-04  0.51624243D-14 -0.51629548D-14 -0.12702842D-03 -0.31875138D-04
  0.22947704D-04  0.89274340D-05 -0.39054696D-15 -0.81058923D-16  0.65735234D-04
MO    3     MO 0.0        OCC NO =    2.0000101  ORB. ENERGY =    0.000000
 -0.15132640D+00 -0.28210289D+00 -0.47679232D+00 -0.71670779D+00 -0.88034715D+00
 -0.74298193D+00 -0.27938061D+00 -0.23184547D-04 -0.17329013D-03 -0.64762477D-03
 -0.18067723D-02 -0.24205767D-02  0.28582498D-02 -0.12250558D-01 -0.11538306D-03
 -0.10846174D-03  0.47669501D-12  0.44693187D-12  0.31824212D-12  0.22902790D-04
  0.21472821D-04  0.15289928D-04  0.37067397D-02  0.34753041D-02  0.24746236D-02
  0.84361342D-13 -0.16456705D-04  0.56131615D-03  0.96876768D-14 -0.66867931D-05
 -0.15281862D-03  0.17497846D-15  0.52716121D-08 -0.37372824D-05  0.45785254D-03
 -0.45036315D-03 -0.74893984D-05 -0.12680071D-14  0.11111879D-12  0.19138430D-04
 -0.11489357D-03 -0.34968002D-05  0.11839037D-03  0.12386918D-14 -0.10328999D-12
  0.87206862D-05  0.13146473D-04  0.59877427D-04 -0.73023899D-04 -0.10159930D-15
  0.90746206D-14  0.33602444D-06 -0.13829887D-13  0.72755344D-06  0.71321251D-04
 -0.74839462D-14  0.36145932D-05 -0.45116817D-03  0.48973606D-13 -0.57972536D-05
  0.23720442D-03 -0.29508273D-14  0.52083733D-14  0.29573118D-06  0.11954562D-03
  0.24703253D-13  0.11036418D-05 -0.23682352D-04 -0.40328373D-13 -0.19908353D-05
 -0.33495450D-03 -0.33972655D-15  0.11207667D+00  0.20953862D+00  0.36214502D+00
  0.58575464D+00  0.88534853D+00  0.12193082D+01  0.14252228D+01  0.12317740D+01
  0.57487532D+00  0.77882992D-01 -0.56964742D-03  0.14084340D-02  0.18105277D-01
  0.66045448D-01  0.22283571D+00  0.48944720D+00  0.63223228D+00 -0.10160511D+00
 -0.85234607D+00 -0.46775653D+00  0.63361851D-05  0.72173088D-04  0.14985735D-03
  0.41206964D-03 -0.53429562D-04 -0.18631913D-02 -0.46470949D-02  0.38467979D-02
 -0.27764922D-01  0.11066146D-02  0.28712659D-04 -0.15514602D-08 -0.20354275D-08
 -0.22324235D-08 -0.18367708D-08 -0.96824111D-09 -0.25191813D-09 -0.29863428D-02
 -0.39179120D-02 -0.42971015D-02 -0.35355257D-02 -0.18637281D-02 -0.48490700D-03
  0.56978372D+01  0.74752384D+01  0.81987187D+01  0.67456588D+01  0.35559278D+01
  0.92518552D+00 -0.83404827D-14 -0.29938689D-12 -0.47498481D-12 -0.56402989D-12
 -0.85352589D-13  0.62118015D-12 -0.42477672D-07 -0.15247629D-05 -0.24190745D-05
 -0.28725768D-05 -0.43469658D-06  0.31636402D-05  0.36579837D-04  0.13130563D-02
  0.20831968D-02  0.24737323D-02  0.37434090D-03 -0.27243829D-02 -0.12017993D-10
 -0.23162087D-04  0.43868407D-01 -0.27829284D-13  0.50537835D-06 -0.11524081D-03
  0.23181043D-14 -0.36663613D-07  0.50661388D-06 -0.15079282D-03 -0.13796746D-03
  0.28876029D-03  0.28484393D-15 -0.10291462D-12 -0.17595687D-05 -0.11351906D-03
  0.47315367D-03 -0.35963460D-03  0.14363191D-15  0.64099713D-13 -0.12471895D-05
  0.63022496D-05  0.21786162D-05 -0.84808658D-05  0.54163391D-16  0.57892015D-14
 -0.11957195D-06 -0.20922150D-13 -0.35828499D-06 -0.43559643D-04  0.10948190D-13
 -0.28770682D-06  0.20805198D-03  0.51818261D-13  0.13625618D-05 -0.77373047D-04
  0.95813817D-15 -0.11125686D-14 -0.13622315D-08 -0.12872528D-04 -0.57936807D-14
 -0.99456720D-07  0.19528392D-04  0.91313864D-14  0.10354341D-06  0.19089191D-04
 -0.12909049D-17  0.38254712D-04  0.68993948D-04  0.10173154D-03 -0.37358557D-03
 -0.72480663D-05  0.69931252D-05  0.24160305D-13  0.17179949D-03  0.20312990D-03
 -0.30880671D-13  0.12014327D-03  0.16759317D-03  0.87292587D-14  0.72347974D-04
 -0.59260881D-04 -0.23391383D-03  0.10922886D-03  0.12468497D-03 -0.22798575D-13
  0.10633166D-13  0.44450467D-03 -0.63889593D-04  0.89449118D-05  0.54944682D-04
  0.59759339D-14 -0.19458335D-13 -0.58522152D-04  0.41801976D-04  0.75391586D-04
  0.11116485D-03 -0.33431147D-03  0.21367463D-04  0.72849896D-05  0.24007216D-13
 -0.17921820D-03  0.21532520D-03 -0.33336223D-13 -0.15160483D-03  0.17198683D-03
  0.90970709D-14 -0.78720895D-04 -0.58590559D-04 -0.23629662D-03  0.11151468D-03
  0.12478194D-03  0.26193869D-13  0.64859574D-14 -0.44458835D-03 -0.65355071D-04
  0.10842671D-04  0.54512400D-04 -0.55855799D-14 -0.20330321D-13  0.59083850D-04
MO    4     MO 0.0        OCC NO =    2.0000048  ORB. ENERGY =    0.000000
  0.28568436D+00  0.53257319D+00  0.90012125D+00  0.13530501D+01  0.16619797D+01
  0.14026523D+01  0.52743388D+00  0.30241025D-04  0.22603292D-03  0.84473664D-03
  0.23566837D-02  0.31573064D-02 -0.37281902D-02  0.23632421D-01 -0.51575237D-03
 -0.69336351D-05  0.63915071D-11  0.59924441D-11  0.42669772D-11 -0.55846377D-04
 -0.52359529D-04 -0.37283104D-04  0.42657252D-02  0.39993885D-02  0.28478029D-02
  0.10811738D-11  0.44051569D-04 -0.38973595D-03  0.10352489D-12  0.46096565D-06
 -0.31041572D-03  0.48570176D-15 -0.20140913D-06 -0.39659000D-05 -0.11969582D-02
  0.62089914D-03  0.57605905D-03  0.22864540D-14  0.14415952D-11 -0.41324369D-04
  0.18711821D-03  0.11736419D-03 -0.30448240D-03  0.84202172D-14 -0.13406415D-11
 -0.17176444D-04  0.91239540D-05  0.37771199D-04 -0.46895153D-04 -0.67409971D-15
  0.11899096D-12 -0.12547661D-05 -0.18554418D-12 -0.38881727D-06  0.41358282D-03
 -0.95720383D-13 -0.92157464D-05  0.19645838D-03  0.65235292D-12  0.10382198D-04
 -0.14372069D-02 -0.11047728D-13  0.72978885D-13  0.17411431D-05 -0.67714892D-04
  0.31164783D-12 -0.37400140D-06 -0.22479698D-04 -0.53058448D-12 -0.48494280D-05
  0.22562438D-03 -0.87333140D-15  0.36831298D-01  0.68859821D-01  0.11901024D+00
  0.19249416D+00  0.29094847D+00  0.40069629D+00  0.46836517D+00  0.40479285D+00
  0.18891893D+00  0.25594370D-01 -0.18720091D-03  0.46195395D-03  0.59383715D-02
  0.21662326D-01  0.73088150D-01  0.16053437D+00  0.20736662D+00 -0.33325580D-01
 -0.27956201D+00 -0.15342002D+00  0.18412565D-05  0.20973056D-04  0.43547625D-04
  0.11974491D-03 -0.15526303D-04 -0.54143195D-03 -0.13504173D-02  0.11178559D-02
 -0.95144769D-02  0.13294784D-02  0.11010566D-03 -0.21060662D-07 -0.27630391D-07
 -0.30304559D-07 -0.24933678D-07 -0.13143618D-07 -0.34197221D-08 -0.25797611D-03
 -0.33844998D-03 -0.37120638D-03 -0.30541743D-03 -0.16099870D-03 -0.41888834D-04
  0.42395911D+01  0.55621024D+01  0.61004226D+01  0.50192439D+01  0.26458600D+01
  0.68840301D+00 -0.11234008D-12 -0.40325182D-11 -0.63976912D-11 -0.75970620D-11
 -0.11496357D-11  0.83668334D-11 -0.90121765D-07 -0.32349776D-05 -0.51323731D-05
 -0.60945356D-05 -0.92226388D-06  0.67120637D-05  0.31621555D-04  0.11350757D-02
  0.18008260D-02  0.21384257D-02  0.32360017D-03 -0.23551014D-02 -0.16315879D-09
 -0.51601321D-05  0.33071108D-01 -0.37452966D-12  0.36619847D-05 -0.35410500D-03
  0.32800752D-13  0.11469700D-06 -0.48635684D-05 -0.13693802D-03 -0.23341247D-03
  0.37035049D-03  0.25446333D-15 -0.13628515D-11 -0.52606837D-05  0.96943349D-04
  0.33794880D-03 -0.43489215D-03 -0.17259092D-14  0.86863445D-12  0.26638213D-05
 -0.10579861D-04 -0.12416964D-04  0.22996825D-04  0.17227337D-15  0.74425540D-13
 -0.80827737D-06 -0.28273297D-12  0.92398397D-07  0.52634237D-04  0.15890583D-12
 -0.19602634D-06 -0.26025015D-04  0.68929307D-12 -0.81168849D-07 -0.13187770D-03
  0.82895879D-15 -0.14691460D-13 -0.29634997D-06 -0.37205514D-04 -0.76594622D-13
 -0.66448846D-08  0.29260061D-04  0.12066900D-12  0.89569479D-06  0.82356481D-04
 -0.44419973D-15 -0.30658893D-03 -0.55294576D-03 -0.81531820D-03 -0.50690425D-03
 -0.46852346D-03 -0.71357012D-05  0.27836168D-12 -0.82352371D-03 -0.37026474D-03
 -0.36588922D-12 -0.39290981D-03 -0.25594353D-03  0.12469519D-12 -0.33101096D-04
 -0.10162643D-03  0.26735471D-03 -0.42994188D-03  0.16258717D-03 -0.30726430D-12
  0.12193639D-12 -0.94041361D-03  0.48772842D-04 -0.23594146D-04 -0.25178696D-04
  0.84583602D-13 -0.24467424D-12 -0.76969210D-04 -0.31803661D-03 -0.57359213D-03
 -0.84576126D-03 -0.58500693D-03 -0.49172614D-03 -0.71198653D-05  0.28130673D-12
  0.84294390D-03 -0.38588221D-03 -0.37693171D-12  0.43863100D-03 -0.30064751D-03
  0.12766332D-12  0.37125991D-04 -0.10499145D-03  0.26634467D-03 -0.42325217D-03
  0.15690751D-03  0.31687670D-12  0.12149106D-12  0.95705125D-03  0.51720411D-04
 -0.25853189D-04 -0.25867223D-04 -0.86023766D-13 -0.24906780D-12  0.84949930D-04
MO    5     MO 0.0        OCC NO =    2.0000043  ORB. ENERGY =    0.000000
  0.59449817D-09  0.11082644D-08  0.18731177D-08  0.28156453D-08  0.34585160D-08
  0.29188655D-08  0.10975696D-08  0.61666087D-13  0.46091579D-12  0.17225476D-11
  0.48056395D-11  0.64382320D-11 -0.76023515D-11  0.49241535D-10 -0.12501852D-11
 -0.47505430D-13 -0.29426141D-02 -0.27588878D-02 -0.19644925D-02 -0.14434108D-12
 -0.13532894D-12 -0.96362267D-13  0.98864581D-11  0.92691828D-11  0.66002104D-11
 -0.49576831D-03  0.12789332D-12 -0.76492764D-12 -0.48127802D-04  0.10526036D-12
 -0.74736280D-12 -0.22620230D-06  0.29571036D-14 -0.99371066D-14 -0.25334075D-11
  0.12688366D-11  0.12645709D-11 -0.14491801D-06 -0.66331624D-03 -0.97117435D-13
  0.40329632D-12  0.26930436D-12 -0.67260067D-12 -0.42808738D-05  0.61727442D-03
 -0.69595157D-13  0.23252482D-13  0.10001582D-12 -0.12326830D-12  0.43416793D-06
 -0.55003448D-04 -0.92608144D-14  0.84851194D-04 -0.12414600D-14  0.90291039D-12
  0.45244979D-04 -0.18201450D-13  0.35773620D-12 -0.29979856D-03  0.21925830D-13
 -0.30664674D-11  0.49774293D-05 -0.33629731D-04 -0.95009924D-15 -0.13009946D-12
 -0.14347181D-03 -0.85407513D-14 -0.51256298D-13  0.24436100D-03  0.11391049D-13
  0.44155467D-12  0.61425195D-06 -0.28571939D-10 -0.53418118D-10 -0.92322385D-10
 -0.14932765D-09 -0.22570375D-09 -0.31084079D-09 -0.36333504D-09 -0.31401871D-09
 -0.14655417D-09 -0.19854874D-10  0.14522141D-12  0.12145547D-11  0.15612978D-10
  0.56953899D-10  0.19216105D-09  0.42207188D-09  0.54520174D-09 -0.87618559D-10
 -0.73501557D-09 -0.40336706D-09  0.48114817D-14  0.54805768D-13  0.11379653D-12
  0.31291156D-12 -0.40572577D-13 -0.14148436D-11 -0.35288446D-11  0.29211264D-11
 -0.24738717D-10  0.32191917D-11  0.27052181D-12  0.97155569D+01  0.12746258D+02
  0.13979887D+02  0.11502230D+02  0.60633214D+01  0.15775622D+01  0.69540647D-10
  0.91233374D-10  0.10006327D-09  0.82329041D-10  0.43399189D-10  0.11291653D-10
  0.10177181D-07  0.13351883D-07  0.14644126D-07  0.12048746D-07  0.63514137D-08
  0.16525184D-08  0.51787262D-04  0.18589364D-02  0.29492493D-02  0.35021430D-02
  0.52996655D-03 -0.38569972D-02  0.60580073D-15  0.21745599D-13  0.34499939D-13
  0.40967619D-13  0.61994805D-14 -0.45118658D-13  0.75808229D-13  0.27211842D-11
  0.43172270D-11  0.51265746D-11  0.77578586D-12 -0.56460241D-11  0.75270240D-01
  0.51110289D-12  0.79265517D-10  0.17361980D-03 -0.15673399D-14 -0.83760932D-12
 -0.15126137D-04 -0.13953535D-15 -0.11575571D-13 -0.32815072D-12 -0.53785086D-12
  0.86600158D-12 -0.50245514D-07  0.62778462D-03  0.14951250D-13  0.18449112D-12
  0.80456799D-12 -0.98905911D-12  0.41691875D-06 -0.40191374D-03 -0.88915853D-14
 -0.23305480D-13 -0.28302507D-13  0.51607986D-13 -0.13506564D-06 -0.34491104D-04
  0.12882658D-15  0.13030902D-03  0.10817546D-15  0.10209159D-12 -0.73448888D-04
  0.28396836D-14 -0.15330292D-13 -0.31747816D-03 -0.31642100D-14 -0.29094447D-12
 -0.75820318D-06  0.67345333D-05  0.52629139D-15 -0.83484027D-13  0.35279944D-04
  0.56492142D-15  0.66975540D-13 -0.55483544D-04 -0.21437956D-14  0.18347654D-12
  0.26862380D-06 -0.65853856D-12 -0.11877014D-11 -0.17512650D-11 -0.10730810D-11
 -0.89984411D-12 -0.78429767D-14 -0.12786084D-03 -0.17566738D-11 -0.75710972D-12
  0.16768013D-03 -0.78624052D-12 -0.54840088D-12 -0.57366805D-04 -0.34231126D-13
 -0.23528006D-12  0.53563210D-12 -0.90239404D-12  0.36676194D-12  0.13984210D-03
 -0.58202899D-04 -0.19619348D-11  0.96367448D-13 -0.45671402D-13 -0.50696047D-13
 -0.39160740D-04  0.11265226D-03 -0.18490549D-12 -0.68106616D-12 -0.12283309D-11
 -0.18111731D-11 -0.13827970D-11 -0.12455132D-11 -0.21112266D-13 -0.12951351D-03
  0.18049240D-11 -0.80340622D-12  0.17358844D-03  0.95133844D-12 -0.62429572D-12
 -0.58967891D-04  0.80466978D-13 -0.26375372D-12  0.54514876D-12 -0.90514491D-12
  0.35999615D-12 -0.14441716D-03 -0.56817692D-04  0.20144391D-11  0.10132206D-12
 -0.51979515D-13 -0.49342544D-13  0.39598351D-04  0.11470231D-03  0.19433064D-12
MO    6     MO 0.0        OCC NO =    2.0000000  ORB. ENERGY =    0.000000
 -0.80692274D-04 -0.15042665D-03 -0.25424154D-03 -0.38217245D-03 -0.46943041D-03
 -0.39618270D-03 -0.14897504D-03  0.48587494D-07  0.36316141D-06  0.13572171D-05
  0.37864244D-05  0.50727648D-05 -0.59899894D-05  0.17449165D-05 -0.31476758D-04
 -0.72933329D-05 -0.63130484D-12 -0.59188841D-12 -0.42145981D-12  0.29124405D-07
  0.27305981D-07  0.19443485D-07  0.14549557D-04  0.13641135D-04  0.97133005D-05
 -0.10697890D-12  0.19172268D-06 -0.38272231D-04 -0.15409242D-13 -0.28024178D-06
  0.42238684D-05 -0.20889250D-15 -0.58454487D-08 -0.38836837D-06  0.13964115D-05
  0.89229661D-05 -0.10319378D-04 -0.22160708D-14 -0.12972137D-12 -0.18271731D-06
  0.63674363D-05  0.43654784D-05 -0.10732915D-04 -0.15859410D-14  0.12377660D-12
  0.15776846D-07  0.63676584D-06 -0.93228815D-06  0.29552232D-06  0.89026099D-15
 -0.12801717D-13 -0.25654492D-07  0.17700615D-13  0.21418237D-07  0.21240359D-05
  0.99338038D-14 -0.50405159D-07  0.42078061D-06 -0.63035647D-13 -0.13849553D-07
 -0.67928882D-05  0.24412950D-14 -0.68310755D-14  0.45272461D-07 -0.37419302D-06
 -0.29952963D-13  0.20110483D-07  0.59091740D-06  0.50446189D-13 -0.15592787D-06
  0.53166165D-06  0.10369587D-14  0.58266965D+00  0.10893596D+01  0.18827372D+01
  0.30452498D+01  0.46027931D+01  0.63389991D+01  0.74095180D+01  0.64038065D+01
  0.29886898D+01  0.40490189D+00 -0.29615108D-02 -0.29340472D-04 -0.37716881D-03
 -0.13758576D-02 -0.46421095D-02 -0.10196155D-01 -0.13170652D-01  0.21166358D-02
  0.17756058D-01  0.97442957D-02  0.19758673D-06  0.22506357D-05  0.46731311D-05
  0.12849924D-04 -0.16661402D-05 -0.58101503D-04 -0.14491438D-03  0.11995802D-03
  0.13868650D-04 -0.17672757D-04  0.32960822D-05  0.20819934D-08  0.27314570D-08
  0.29958172D-08  0.24648681D-08  0.12993383D-08  0.33806339D-09 -0.20204593D-05
 -0.26507276D-05 -0.29072745D-05 -0.23920179D-05 -0.12609358D-05 -0.32807179D-06
  0.11203350D-01  0.14698158D-01  0.16120698D-01  0.13263625D-01  0.69918288D-02
  0.18191423D-02  0.11072561D-13  0.39745655D-12  0.63057478D-12  0.74878820D-12
  0.11331139D-12 -0.82465907D-12 -0.24126438D-08 -0.86603370D-07 -0.13739842D-06
 -0.16315641D-06 -0.24689865D-07  0.17968821D-06  0.70663187D-06  0.25364997D-04
  0.40242203D-04  0.47786382D-04  0.72313391D-05 -0.52628331D-04  0.16126215D-10
 -0.15641679D-06  0.16307656D-03  0.41137812D-13  0.96018002D-07  0.52311371D-05
 -0.31420686D-14  0.18431704D-08 -0.35543486D-07 -0.58366055D-05 -0.37888482D-05
  0.96254537D-05 -0.53758717D-15  0.12930002D-12 -0.14535823D-06  0.91741585D-05
 -0.15974580D-04  0.68004216D-05 -0.86821682D-15 -0.84058484D-13  0.97443452D-08
  0.58970330D-06  0.48904479D-06 -0.10787481D-05 -0.30508516D-15 -0.85591195D-14
 -0.22221374D-07  0.27637855D-13 -0.10792011D-07 -0.69950835D-05 -0.15764026D-13
 -0.72561178D-08  0.12192701D-04 -0.67149540D-13  0.39632151D-07  0.87925499D-05
 -0.27422724D-14  0.10781182D-14 -0.53026558D-08 -0.63995314D-07  0.72092618D-14
 -0.36638997D-08 -0.73276071D-09 -0.10443616D-13  0.19571867D-07  0.19271870D-06
  0.44929026D-15 -0.12488427D-05 -0.22523393D-05 -0.33210729D-05  0.31026102D-05
  0.17374294D-04  0.23251440D-06 -0.25273043D-13 -0.58207322D-05 -0.15106835D-05
  0.32502380D-13  0.10072827D-05 -0.12434179D-05 -0.11097266D-13  0.73531216D-06
  0.25177945D-05 -0.25100840D-05 -0.15784455D-05  0.40885296D-05  0.23587098D-13
 -0.16149909D-13 -0.20626734D-05 -0.39259065D-07 -0.43667302D-06  0.47593208D-06
 -0.88741195D-14  0.24240483D-13 -0.18232465D-05 -0.12712920D-05 -0.22928275D-05
 -0.33807727D-05  0.32038392D-05  0.17956261D-04  0.25024729D-06 -0.25664107D-13
  0.58338617D-05 -0.14014011D-05  0.36030596D-13 -0.11101193D-05 -0.18294980D-05
 -0.13521801D-13 -0.76797579D-06  0.25960080D-05 -0.25303809D-05 -0.14249016D-05
  0.39552825D-05 -0.32544687D-13 -0.10365108D-13  0.23358828D-05 -0.28875943D-07