 Entering Gaussian System, Link 0=/home/bruns/programas/chemistry/gaussian/g09/g09
 Input=GAUSSIAN.com
 Output=GAUSSIAN.log
 Initial command:
 /home/bruns/programas/chemistry/gaussian/g09/l1.exe /home/bruns/programas/chemistry/gaussian/work/Gau-28545.inp -scrdir=/home/bruns/programas/chemistry/gaussian/work/
 Entering Link 1 = /home/bruns/programas/chemistry/gaussian/g09/l1.exe PID=     28547.
  
 Copyright (c) 1988,1990,1992,1993,1995,1998,2003,2009,2010,
            Gaussian, Inc.  All Rights Reserved.
  
 This is part of the Gaussian(R) 09 program.  It is based on
 the Gaussian(R) 03 system (copyright 2003, Gaussian, Inc.),
 the Gaussian(R) 98 system (copyright 1998, Gaussian, Inc.),
 the Gaussian(R) 94 system (copyright 1995, Gaussian, Inc.),
 the Gaussian 92(TM) system (copyright 1992, Gaussian, Inc.),
 the Gaussian 90(TM) system (copyright 1990, Gaussian, Inc.),
 the Gaussian 88(TM) system (copyright 1988, Gaussian, Inc.),
 the Gaussian 86(TM) system (copyright 1986, Carnegie Mellon
 University), and the Gaussian 82(TM) system (copyright 1983,
 Carnegie Mellon University). Gaussian is a federally registered
 trademark of Gaussian, Inc.
  
 This software contains proprietary and confidential information,
 including trade secrets, belonging to Gaussian, Inc.
  
 This software is provided under written license and may be
 used, copied, transmitted, or stored only in accord with that
 written license.
  
 The following legend is applicable only to US Government
 contracts under FAR:
  
                    RESTRICTED RIGHTS LEGEND
  
 Use, reproduction and disclosure by the US Government is
 subject to restrictions as set forth in subparagraphs (a)
 and (c) of the Commercial Computer Software - Restricted
 Rights clause in FAR 52.227-19.
  
 Gaussian, Inc.
 340 Quinnipiac St., Bldg. 40, Wallingford CT 06492
  
  
 ---------------------------------------------------------------
 Warning -- This program may not be used in any manner that
 competes with the business of Gaussian, Inc. or will provide
 assistance to any competitor of Gaussian, Inc.  The licensee
 of this program is prohibited from giving any competitor of
 Gaussian, Inc. access to this program.  By using this program,
 the user acknowledges that Gaussian, Inc. is engaged in the
 business of creating and licensing software in the field of
 computational chemistry and represents and warrants to the
 licensee that it is not a competitor of Gaussian, Inc. and that
 it will not use this program in any manner prohibited above.
 ---------------------------------------------------------------
  

 Cite this work as:
 Gaussian 09, Revision B.01,
 M. J. Frisch, G. W. Trucks, H. B. Schlegel, G. E. Scuseria, 
 M. A. Robb, J. R. Cheeseman, G. Scalmani, V. Barone, B. Mennucci, 
 G. A. Petersson, H. Nakatsuji, M. Caricato, X. Li, H. P. Hratchian, 
 A. F. Izmaylov, J. Bloino, G. Zheng, J. L. Sonnenberg, M. Hada, 
 M. Ehara, K. Toyota, R. Fukuda, J. Hasegawa, M. Ishida, T. Nakajima, 
 Y. Honda, O. Kitao, H. Nakai, T. Vreven, J. A. Montgomery, Jr., 
 J. E. Peralta, F. Ogliaro, M. Bearpark, J. J. Heyd, E. Brothers, 
 K. N. Kudin, V. N. Staroverov, T. Keith, R. Kobayashi, J. Normand, 
 K. Raghavachari, A. Rendell, J. C. Burant, S. S. Iyengar, J. Tomasi, 
 M. Cossi, N. Rega, J. M. Millam, M. Klene, J. E. Knox, J. B. Cross, 
 V. Bakken, C. Adamo, J. Jaramillo, R. Gomperts, R. E. Stratmann, 
 O. Yazyev, A. J. Austin, R. Cammi, C. Pomelli, J. W. Ochterski, 
 R. L. Martin, K. Morokuma, V. G. Zakrzewski, G. A. Voth, 
 P. Salvador, J. J. Dannenberg, S. Dapprich, A. D. Daniels, 
 O. Farkas, J. B. Foresman, J. V. Ortiz, J. Cioslowski, 
 and D. J. Fox, Gaussian, Inc., Wallingford CT, 2010.
 
 ******************************************
 Gaussian 09:  EM64L-G09RevB.01 12-Aug-2010
                17-Nov-2021 
 ******************************************
 %nproc=8
 Will use up to    8 processors via shared memory.
 %mem=8GB
 -----------------------------------------------------
 # qcisd/aug-cc-pvtz nosymm density=current output=wfn
 -----------------------------------------------------
 1/30=1,38=1/1;
 2/12=2,15=1,17=6,18=5,40=1/2;
 3/5=16,6=1,7=10,11=9,16=1,25=1,30=1,71=1/1,2,3;
 4//1;
 5/5=2,38=5/2;
 8/6=4,9=120000,10=1/1,4;
 9/5=8,15=1/13;
 11/28=-7,31=1,32=3,42=3/11;
 10/5=6,13=10,31=1/2;
 6/7=2,8=2,9=2,10=2,22=-1,31=1/1;
 99/5=1,6=1100,9=1/99;
 -----------------
 h2cs-wavefunction
 -----------------
 Symbolic Z-matrix:
 Charge =  0 Multiplicity = 1
 C                     0.        0.       -0.55529 
 S                     0.        0.        1.06037 
 H                     0.       -0.92228  -1.13899 
 H                     0.        0.92228  -1.12899 
 
                          Input orientation:                          
 ---------------------------------------------------------------------
 Center     Atomic      Atomic             Coordinates (Angstroms)
 Number     Number       Type             X           Y           Z
 ---------------------------------------------------------------------
      1          6           0        0.000000    0.000000   -0.555291
      2         16           0        0.000000    0.000000    1.060374
      3          1           0        0.000000   -0.922280   -1.138992
      4          1           0        0.000000    0.922280   -1.128992
 ---------------------------------------------------------------------
                    Distance matrix (angstroms):
                    1          2          3          4
     1  C    0.000000
     2  S    1.615665   0.000000
     3  H    1.091470   2.384913   0.000000
     4  H    1.086155   2.375694   1.844587   0.000000
 Symmetry turned off by external request.
 Stoichiometry    CH2S
 Framework group  CS[SG(CH2S)]
 Deg. of freedom     5
 Full point group                 CS      NOp   2
 Rotational constants (GHZ):    294.7659310     17.6079616     16.6154321
 Standard basis: Aug-CC-pVTZ (5D, 7F)
 Integral buffers will be    131072 words long.
 Raffenetti 1 integral format.
 Two-electron integral symmetry is turned off.
   142 basis functions,   240 primitive gaussians,   164 cartesian basis functions
    12 alpha electrons       12 beta electrons
       nuclear repulsion energy        44.6759667084 Hartrees.
 NAtoms=    4 NActive=    4 NUniq=    4 SFac= 1.00D+00 NAtFMM=   50 NAOKFM=F Big=F
 One-electron integrals computed using PRISM.
 NBasis=   142 RedAO= T  NBF=   142
 NBsUse=   142 1.00D-06 NBFU=   142
 Harris functional with IExCor=  205 diagonalized for initial guess.
 ExpMin= 2.53D-02 ExpMax= 3.74D+05 ExpMxC= 1.18D+03 IAcc=3 IRadAn=         0 AccDes= 0.00D+00
 HarFok:  IExCor=  205 AccDes= 0.00D+00 IRadAn=         0 IDoV= 1
 ScaDFX=  1.000000  1.000000  1.000000  1.000000
 FoFCou: FMM=F IPFlag=           0 FMFlag=      100000 FMFlg1=           0
         NFxFlg=           0 DoJE=T BraDBF=F KetDBF=T FulRan=T
         Omega=  0.000000  0.000000  1.000000  0.000000  0.000000 ICntrl=     500 IOpCl=  0
         NMat0=    1 NMatS0=    1 NMatT0=    0 NMatD0=    1 NMtDS0=    0 NMtDT0=    0
         I1Cent=           4 NGrid=           0.
 Symmetry not used in FoFCou.
 Requested convergence on RMS density matrix=1.00D-08 within 128 cycles.
 Requested convergence on MAX density matrix=1.00D-06.
 Requested convergence on             energy=1.00D-06.
 No special actions if energy rises.
 Keep R1 ints in memory in canonical form, NReq=93884347.
 SCF Done:  E(RHF) =  -436.557495818     A.U. after   11 cycles
             Convg  =    0.6151D-08             -V/T =  2.0003
 ExpMin= 2.53D-02 ExpMax= 3.74D+05 ExpMxC= 1.18D+03 IAcc=3 IRadAn=         5 AccDes= 0.00D+00
 HarFok:  IExCor=  205 AccDes= 0.00D+00 IRadAn=         5 IDoV=-2
 ScaDFX=  1.000000  1.000000  1.000000  1.000000
 Range of M.O.s used for correlation:     7   142
 NBasis=   142 NAE=    12 NBE=    12 NFC=     6 NFV=     0
 NROrb=    136 NOA=     6 NOB=     6 NVA=   130 NVB=   130

 **** Warning!!: The largest alpha MO coefficient is  0.44446833D+02

 Semi-Direct transformation.
 ModeAB=           2 MOrb=             6 LenV=    1073081981
 LASXX=      7286295 LTotXX=     7286295 LenRXX=     7286295
 LTotAB=     7445736 MaxLAS=    11040480 LenRXY=    11040480
 NonZer=    14572590 LenScr=    22628352 LnRSAI=           0
 LnScr1=           0 LExtra=           0 Total=     40955127
 MaxDsk=          -1 SrtSym=           F ITran=            4
 JobTyp=0 Pass  1:  I=   1 to   6.
 (rs|ai) integrals will be sorted in core.
 Spin components of T(2) and E(2):
     alpha-alpha T2 =       0.1685218165D-01 E2=     -0.3868259568D-01
     alpha-beta  T2 =       0.1053052672D+00 E2=     -0.2635695251D+00
     beta-beta   T2 =       0.1685218165D-01 E2=     -0.3868259568D-01
 ANorm=    0.1067243941D+01
 E2 =    -0.3409347164D+00 EUMP2 =    -0.43689843053417D+03
 R2 and R3 integrals will be kept in memory, NReq=   185320410.
 Iterations=  50 Convergence= 0.100D-07
 Iteration Nr.   1
 **********************
 DD1Dir will call FoFMem   1 times, MxPair=        42
 NAB=    21 NAA=     0 NBB=     0.
 MP4(R+Q)=  0.11667713D-01
 E3=       -0.22795958D-01        EUMP3=      -0.43692122649D+03
 E4(DQ)=    0.16322305D-02        UMP4(DQ)=   -0.43691959426D+03
 E4(SDQ)=  -0.18586538D-02        UMP4(SDQ)=  -0.43692308515D+03
 DE(Corr)= -0.35206296     E(Corr)=     -436.90955878    
 NORM(A)=   0.10738916D+01
 Iteration Nr.   2
 **********************
 DD1Dir will call FoFMem   1 times, MxPair=        42
 NAB=    21 NAA=     0 NBB=     0.
 DE(Corr)= -0.36350540     E(CORR)=     -436.92100122     Delta=-1.14D-02
 NORM(A)=   0.10812717D+01
 Iteration Nr.   3
 **********************
 DD1Dir will call FoFMem   1 times, MxPair=        42
 NAB=    21 NAA=     0 NBB=     0.
 DE(Corr)= -0.36443114     E(CORR)=     -436.92192696     Delta=-9.26D-04
 NORM(A)=   0.10837035D+01
 Iteration Nr.   4
 **********************
 DD1Dir will call FoFMem   1 times, MxPair=        42
 NAB=    21 NAA=     0 NBB=     0.
 DE(Corr)= -0.36576307     E(CORR)=     -436.92325889     Delta=-1.33D-03
 NORM(A)=   0.10846966D+01
 Iteration Nr.   5
 **********************
 DD1Dir will call FoFMem   1 times, MxPair=        42
 NAB=    21 NAA=     0 NBB=     0.
 DE(Corr)= -0.36596123     E(CORR)=     -436.92345705     Delta=-1.98D-04
 NORM(A)=   0.10850597D+01
 Iteration Nr.   6
 **********************
 DD1Dir will call FoFMem   1 times, MxPair=        42
 NAB=    21 NAA=     0 NBB=     0.
 DE(Corr)= -0.36599343     E(CORR)=     -436.92348925     Delta=-3.22D-05
 NORM(A)=   0.10850746D+01
 Iteration Nr.   7
 **********************
 DD1Dir will call FoFMem   1 times, MxPair=        42
 NAB=    21 NAA=     0 NBB=     0.
 DE(Corr)= -0.36599483     E(CORR)=     -436.92349065     Delta=-1.40D-06
 NORM(A)=   0.10850862D+01
 Iteration Nr.   8
 **********************
 DD1Dir will call FoFMem   1 times, MxPair=        42
 NAB=    21 NAA=     0 NBB=     0.
 DE(Corr)= -0.36599186     E(CORR)=     -436.92348768     Delta= 2.97D-06
 NORM(A)=   0.10850853D+01
 Iteration Nr.   9
 **********************
 DD1Dir will call FoFMem   1 times, MxPair=        42
 NAB=    21 NAA=     0 NBB=     0.
 DE(Corr)= -0.36599431     E(CORR)=     -436.92349013     Delta=-2.45D-06
 NORM(A)=   0.10850866D+01
 Iteration Nr.  10
 **********************
 DD1Dir will call FoFMem   1 times, MxPair=        42
 NAB=    21 NAA=     0 NBB=     0.
 DE(Corr)= -0.36599399     E(CORR)=     -436.92348981     Delta= 3.22D-07
 NORM(A)=   0.10850874D+01
 Iteration Nr.  11
 **********************
 DD1Dir will call FoFMem   1 times, MxPair=        42
 NAB=    21 NAA=     0 NBB=     0.
 DE(Corr)= -0.36599452     E(CORR)=     -436.92349034     Delta=-5.27D-07
 NORM(A)=   0.10850879D+01
 Iteration Nr.  12
 **********************
 DD1Dir will call FoFMem   1 times, MxPair=        42
 NAB=    21 NAA=     0 NBB=     0.
 DE(Corr)= -0.36599463     E(CORR)=     -436.92349044     Delta=-1.09D-07
 NORM(A)=   0.10850883D+01
 Iteration Nr.  13
 **********************
 DD1Dir will call FoFMem   1 times, MxPair=        42
 NAB=    21 NAA=     0 NBB=     0.
 DE(Corr)= -0.36599472     E(CORR)=     -436.92349053     Delta=-9.10D-08
 NORM(A)=   0.10850885D+01
 Iteration Nr.  14
 **********************
 DD1Dir will call FoFMem   1 times, MxPair=        42
 NAB=    21 NAA=     0 NBB=     0.
 DE(Corr)= -0.36599475     E(CORR)=     -436.92349056     Delta=-2.92D-08
 NORM(A)=   0.10850885D+01
 Iteration Nr.  15
 **********************
 DD1Dir will call FoFMem   1 times, MxPair=        42
 NAB=    21 NAA=     0 NBB=     0.
 DE(Corr)= -0.36599476     E(CORR)=     -436.92349057     Delta=-9.16D-09
 NORM(A)=   0.10850886D+01
 Iteration Nr.  16
 **********************
 DD1Dir will call FoFMem   1 times, MxPair=        42
 NAB=    21 NAA=     0 NBB=     0.
 DE(Corr)= -0.36599476     E(CORR)=     -436.92349057     Delta=-1.51D-09
 NORM(A)=   0.10850886D+01
 Dominant configurations:
 ***********************
 Spin Case        I    J    A    B          Value
   ABAB          11   11   14   14      -0.114449D+00
 Largest amplitude= 1.14D-01

 Z-AMPLITUDE ITERATIONS

 Iteration Nr.   1
 **********************
 DD1Dir will call FoFMem   1 times, MxPair=        42
 NAB=    21 NAA=     0 NBB=     0.
 DE(Z)  -0.34996672D+00          E(Z)=    -0.43690746254D+03
 NORM(A)=   0.10850737D+01
 Iteration Nr.   2
 **********************
 DD1Dir will call FoFMem   1 times, MxPair=        42
 NAB=    21 NAA=     0 NBB=     0.
 DE(Z)  -0.34996605D+00          E(Z)=    -0.43690746187D+03
 NORM(A)=   0.10851111D+01
 Iteration Nr.   3
 **********************
 DD1Dir will call FoFMem   1 times, MxPair=        42
 NAB=    21 NAA=     0 NBB=     0.
 DE(Z)  -0.34996777D+00          E(Z)=    -0.43690746359D+03
 NORM(A)=   0.10850202D+01
 Iteration Nr.   4
 **********************
 DD1Dir will call FoFMem   1 times, MxPair=        42
 NAB=    21 NAA=     0 NBB=     0.
 DE(Z)  -0.34996354D+00          E(Z)=    -0.43690745936D+03
 NORM(A)=   0.10846635D+01
 Iteration Nr.   5
 **********************
 DD1Dir will call FoFMem   1 times, MxPair=        42
 NAB=    21 NAA=     0 NBB=     0.
 DE(Z)  -0.34994652D+00          E(Z)=    -0.43690744234D+03
 NORM(A)=   0.10768647D+01
 Iteration Nr.   6
 **********************
 DD1Dir will call FoFMem   1 times, MxPair=        42
 NAB=    21 NAA=     0 NBB=     0.
 DE(Z)  -0.34956595D+00          E(Z)=    -0.43690706177D+03
 NORM(A)=   0.10768595D+01
 Iteration Nr.   7
 **********************
 DD1Dir will call FoFMem   1 times, MxPair=        42
 NAB=    21 NAA=     0 NBB=     0.
 DE(Z)  -0.34956466D+00          E(Z)=    -0.43690706048D+03
 NORM(A)=   0.10768584D+01
 Iteration Nr.   8
 **********************
 DD1Dir will call FoFMem   1 times, MxPair=        42
 NAB=    21 NAA=     0 NBB=     0.
 DE(Z)  -0.34956483D+00          E(Z)=    -0.43690706065D+03
 NORM(A)=   0.10768584D+01
 Iteration Nr.   9
 **********************
 DD1Dir will call FoFMem   1 times, MxPair=        42
 NAB=    21 NAA=     0 NBB=     0.
 DE(Z)  -0.34956475D+00          E(Z)=    -0.43690706057D+03
 NORM(A)=   0.10768584D+01
 Iteration Nr.  10
 **********************
 DD1Dir will call FoFMem   1 times, MxPair=        42
 NAB=    21 NAA=     0 NBB=     0.
 DE(Z)  -0.34956477D+00          E(Z)=    -0.43690706059D+03
 NORM(A)=   0.10768584D+01
 Iteration Nr.  11
 **********************
 DD1Dir will call FoFMem   1 times, MxPair=        42
 NAB=    21 NAA=     0 NBB=     0.
 DE(Z)  -0.34956477D+00          E(Z)=    -0.43690706059D+03
 NORM(A)=   0.10768584D+01
 Iteration Nr.  12
 **********************
 DD1Dir will call FoFMem   1 times, MxPair=        42
 NAB=    21 NAA=     0 NBB=     0.
 DE(Z)  -0.34956477D+00          E(Z)=    -0.43690706059D+03
 NORM(A)=   0.10768584D+01
 Discarding MO integrals.
          Differentiating once with respect to electric field.
                with respect to dipole field.
          Electric field/nuclear overlap derivatives assumed to be zero.
          Keep R1 ints in memory in canonical form, NReq=93478140.
          There are     1 degrees of freedom in the 1st order CPHF.  IDoFFX=0.
 LinEq1:  Iter=  0 NonCon=     1 RMS=2.95D-03 Max=4.36D-02
 AX will form     1 AO Fock derivatives at one time.
 LinEq1:  Iter=  1 NonCon=     1 RMS=9.89D-04 Max=1.20D-02
 LinEq1:  Iter=  2 NonCon=     1 RMS=4.77D-04 Max=1.32D-02
 LinEq1:  Iter=  3 NonCon=     1 RMS=1.60D-04 Max=2.47D-03
 LinEq1:  Iter=  4 NonCon=     1 RMS=4.01D-05 Max=5.29D-04
 LinEq1:  Iter=  5 NonCon=     1 RMS=8.77D-06 Max=1.00D-04
 LinEq1:  Iter=  6 NonCon=     1 RMS=1.56D-06 Max=2.23D-05
 LinEq1:  Iter=  7 NonCon=     1 RMS=2.02D-07 Max=2.71D-06
 LinEq1:  Iter=  8 NonCon=     1 RMS=2.32D-08 Max=2.28D-07
 LinEq1:  Iter=  9 NonCon=     1 RMS=3.70D-09 Max=3.76D-08
 LinEq1:  Iter= 10 NonCon=     1 RMS=5.24D-10 Max=5.88D-09
 LinEq1:  Iter= 11 NonCon=     0 RMS=6.84D-11 Max=6.65D-10
 Linear equations converged to 1.000D-10 1.000D-09 after    11 iterations.
 End of Minotr Frequency-dependent properties file   721 does not exist.
 End of Minotr Frequency-dependent properties file   722 does not exist.

 **********************************************************************

            Population analysis using the QCI/CC density.

 **********************************************************************

     Natural Orbital Coefficients:
                           1         2         3         4         5
     Eigenvalues --     2.00003   2.00002   2.00001   2.00000   2.00000
   1 1   C  1S          0.00027  -0.15988  -0.45554   0.85415   0.00000
   2        2S         -0.00001   0.00306   0.00801  -0.01041   0.00000
   3        3S          0.00001  -0.00638  -0.01859   0.03560   0.00000
   4        4S          0.00013  -0.00355  -0.00069  -0.00322   0.00000
   5        5S          0.00000  -0.00058  -0.00157  -0.00005   0.00000
   6        6PX         0.00000   0.00000   0.00000   0.00000  -0.00135
   7        6PY        -0.00066   0.00000   0.00000  -0.00002   0.00000
   8        6PZ        -0.00001   0.00110   0.00170   0.00193   0.00000
   9        7PX         0.00000   0.00000   0.00000   0.00000  -0.00114
  10        7PY        -0.00142   0.00000  -0.00004   0.00009   0.00000
  11        7PZ        -0.00002   0.00011   0.00129  -0.00087   0.00000
  12        8PX         0.00000   0.00000   0.00000   0.00000  -0.00049
  13        8PY         0.01582  -0.00002  -0.00007   0.00007   0.00000
  14        8PZ         0.00009  -0.00601  -0.00160  -0.00306   0.00000
  15        9PX         0.00000   0.00000   0.00000   0.00000  -0.00001
  16        9PY         0.00134   0.00000  -0.00001  -0.00001   0.00000
  17        9PZ         0.00000  -0.00002  -0.00017  -0.00017   0.00000
  18       10D 0        0.00000  -0.00002  -0.00001   0.00030   0.00000
  19       10D+1        0.00000   0.00000   0.00000   0.00000  -0.00020
  20       10D-1       -0.00032   0.00000   0.00000  -0.00001   0.00000
  21       10D+2        0.00000   0.00010   0.00027  -0.00053   0.00000
  22       10D-2        0.00000   0.00000   0.00000   0.00000   0.00000
  23       11D 0        0.00000  -0.00084   0.00053  -0.00135   0.00000
  24       11D+1        0.00000   0.00000   0.00000   0.00000   0.00160
  25       11D-1        0.00014   0.00000   0.00001  -0.00004   0.00000
  26       11D+2        0.00000  -0.00029  -0.00030   0.00017   0.00000
  27       11D-2        0.00000   0.00000   0.00000   0.00000  -0.00001
  28       12D 0       -0.00001  -0.00334  -0.00251  -0.00163   0.00000
  29       12D+1        0.00000   0.00000   0.00000   0.00000  -0.00107
  30       12D-1       -0.00427   0.00001   0.00004  -0.00002   0.00000
  31       12D+2        0.00001  -0.00148  -0.00093  -0.00059   0.00000
  32       12D-2        0.00000   0.00000   0.00000   0.00000   0.00001
  33       13F 0        0.00000   0.00001   0.00009   0.00052   0.00000
  34       13F+1        0.00000   0.00000   0.00000   0.00000  -0.00015
  35       13F-1       -0.00036   0.00000   0.00000   0.00000   0.00000
  36       13F+2        0.00000  -0.00010  -0.00022   0.00052   0.00000
  37       13F-2        0.00000   0.00000   0.00000   0.00000   0.00000
  38       13F+3        0.00000   0.00000   0.00000   0.00000   0.00002
  39       13F-3        0.00001   0.00000   0.00000   0.00000   0.00000
  40       14F 0        0.00000   0.00077   0.00156  -0.00087   0.00000
  41       14F+1        0.00000   0.00000   0.00000   0.00000   0.00130
  42       14F-1        0.00200   0.00000   0.00001   0.00002   0.00000
  43       14F+2       -0.00001   0.00067   0.00106  -0.00083   0.00000
  44       14F-2        0.00000   0.00000   0.00000   0.00000   0.00000
  45       14F+3        0.00000   0.00000   0.00000   0.00000   0.00044
  46       14F-3       -0.00016   0.00000   0.00001   0.00000   0.00000
  47 2   S  1S          0.00016  -0.20726   0.19135   0.06337   0.00000
  48        2S         -0.00053   0.70792  -0.65953  -0.21801   0.00000
  49        3S          0.00002  -0.02028   0.01023   0.00297   0.00000
  50        4S         -0.00003   0.04747  -0.04702  -0.01623   0.00000
  51        5S         -0.00005   0.00739   0.00715   0.00844   0.00000
  52        6S          0.00000   0.00005   0.00040   0.00140   0.00000
  53        7PX         0.00000   0.00000   0.00000   0.00000   0.97149
  54        7PY         0.97716   0.00229   0.00137   0.00086   0.00000
  55        7PZ        -0.00275   0.66526   0.56892   0.42585   0.00000
  56        8PX         0.00000   0.00000   0.00000   0.00000  -0.01104
  57        8PY        -0.02058  -0.00004  -0.00002  -0.00002   0.00000
  58        8PZ         0.00006  -0.01193  -0.00781  -0.00672   0.00000
  59        9PX         0.00000   0.00000   0.00000   0.00000   0.06295
  60        9PY         0.05564   0.00014   0.00008   0.00006   0.00000
  61        9PZ        -0.00016   0.04064   0.03664   0.02778   0.00000
  62       10PX         0.00000   0.00000   0.00000   0.00000   0.00192
  63       10PY        -0.00639   0.00000  -0.00002   0.00002   0.00000
  64       10PZ         0.00004  -0.00716  -0.00132  -0.00385   0.00000
  65       11PX         0.00000   0.00000   0.00000   0.00000  -0.00070
  66       11PY        -0.00127   0.00000   0.00000   0.00001   0.00000
  67       11PZ         0.00000  -0.00006   0.00002  -0.00021   0.00000
  68       12D 0       -0.00001   0.00216   0.00175   0.00221   0.00000
  69       12D+1        0.00000   0.00000   0.00000   0.00000   0.00218
  70       12D-1        0.00271   0.00000   0.00001   0.00000   0.00000
  71       12D+2        0.00000  -0.00053  -0.00005   0.00034   0.00000
  72       12D-2        0.00000   0.00000   0.00000   0.00000   0.00000
  73       13D 0        0.00000   0.00002  -0.00031  -0.00038   0.00000
  74       13D+1        0.00000   0.00000   0.00000   0.00000  -0.00020
  75       13D-1       -0.00054   0.00000   0.00000   0.00000   0.00000
  76       13D+2        0.00000   0.00037  -0.00029  -0.00012   0.00000
  77       13D-2        0.00000   0.00000   0.00000   0.00000   0.00000
  78       14D 0       -0.00001   0.00096  -0.00028   0.00075   0.00000
  79       14D+1        0.00000   0.00000   0.00000   0.00000  -0.00067
  80       14D-1       -0.00057   0.00000   0.00001  -0.00001   0.00000
  81       14D+2        0.00000   0.00035   0.00008   0.00004   0.00000
  82       14D-2        0.00000   0.00000   0.00000   0.00000   0.00000
  83       15F 0        0.00000  -0.00018  -0.00011   0.00014   0.00000
  84       15F+1        0.00000   0.00000   0.00000   0.00000  -0.00033
  85       15F-1       -0.00014   0.00000   0.00000   0.00000   0.00000
  86       15F+2        0.00000   0.00013   0.00019   0.00007   0.00000
  87       15F-2        0.00000   0.00000   0.00000   0.00000   0.00000
  88       15F+3        0.00000   0.00000   0.00000   0.00000   0.00016
  89       15F-3        0.00010   0.00000   0.00000   0.00000   0.00000
  90       16F 0        0.00000  -0.00041  -0.00027  -0.00077   0.00000
  91       16F+1        0.00000   0.00000   0.00000   0.00000  -0.00047
  92       16F-1       -0.00085   0.00000   0.00000   0.00000   0.00000
  93       16F+2        0.00000  -0.00004   0.00000  -0.00029   0.00000
  94       16F-2        0.00000   0.00000   0.00000   0.00000   0.00000
  95       16F+3        0.00000   0.00000   0.00000   0.00000  -0.00019
  96       16F-3       -0.00024   0.00000   0.00000   0.00000   0.00000
  97 3   H  1S         -0.00042  -0.00009   0.00014  -0.00119   0.00000
  98        2S          0.00045  -0.00130  -0.00123  -0.00166   0.00000
  99        3S          0.01823  -0.00349  -0.00012  -0.00359   0.00000
 100        4S          0.00056   0.00006   0.00014  -0.00016   0.00000
 101        5PX         0.00000   0.00000   0.00000   0.00000  -0.00006
 102        5PY        -0.00001   0.00001   0.00008  -0.00037   0.00000
 103        5PZ         0.00012   0.00004   0.00009  -0.00017   0.00000
 104        6PX         0.00000   0.00000   0.00000   0.00000   0.00037
 105        6PY        -0.00002   0.00008   0.00029  -0.00087   0.00000
 106        6PZ        -0.00077   0.00004   0.00034  -0.00060   0.00000
 107        7PX         0.00000   0.00000   0.00000   0.00000  -0.00069
 108        7PY         0.00380   0.00044   0.00088  -0.00037   0.00000
 109        7PZ         0.00164  -0.00154  -0.00073  -0.00125   0.00000
 110        8D 0        0.00010   0.00004   0.00007   0.00008   0.00000
 111        8D+1        0.00000   0.00000   0.00000   0.00000  -0.00002
 112        8D-1       -0.00001   0.00004   0.00014  -0.00031   0.00000
 113        8D+2        0.00003  -0.00004  -0.00011   0.00022   0.00000
 114        8D-2        0.00000   0.00000   0.00000   0.00000   0.00004
 115        9D 0       -0.00004   0.00007   0.00038  -0.00018   0.00000
 116        9D+1        0.00000   0.00000   0.00000   0.00000   0.00045
 117        9D-1       -0.00047  -0.00026  -0.00024  -0.00031   0.00000
 118        9D+2        0.00019  -0.00022  -0.00030   0.00028   0.00000
 119        9D-2        0.00000   0.00000   0.00000   0.00000  -0.00016
 120 4   H  1S          0.00042  -0.00009   0.00016  -0.00121   0.00000
 121        2S         -0.00043  -0.00128  -0.00114  -0.00188   0.00000
 122        3S         -0.01829  -0.00348   0.00010  -0.00386   0.00000
 123        4S         -0.00056   0.00007   0.00016  -0.00016   0.00000
 124        5PX         0.00000   0.00000   0.00000   0.00000  -0.00006
 125        5PY        -0.00001  -0.00001  -0.00008   0.00038   0.00000
 126        5PZ        -0.00012   0.00004   0.00009  -0.00017   0.00000
 127        6PX         0.00000   0.00000   0.00000   0.00000   0.00038
 128        6PY        -0.00002  -0.00008  -0.00030   0.00098   0.00000
 129        6PZ         0.00077   0.00006   0.00040  -0.00063   0.00000
 130        7PX         0.00000   0.00000   0.00000   0.00000  -0.00071
 131        7PY         0.00383  -0.00044  -0.00092   0.00045   0.00000
 132        7PZ        -0.00160  -0.00154  -0.00071  -0.00127   0.00000
 133        8D 0       -0.00011   0.00004   0.00007   0.00009   0.00000
 134        8D+1        0.00000   0.00000   0.00000   0.00000  -0.00002
 135        8D-1        0.00000  -0.00004  -0.00014   0.00030   0.00000
 136        8D+2       -0.00003  -0.00004  -0.00011   0.00023   0.00000
 137        8D-2        0.00000   0.00000   0.00000   0.00000  -0.00004
 138        9D 0        0.00003   0.00007   0.00038  -0.00017   0.00000
 139        9D+1        0.00000   0.00000   0.00000   0.00000   0.00045
 140        9D-1       -0.00047   0.00026   0.00023   0.00033   0.00000
 141        9D+2       -0.00019  -0.00022  -0.00030   0.00030   0.00000
 142        9D-2        0.00000   0.00000   0.00000   0.00000   0.00015
                           6         7         8         9        10
     Eigenvalues --     2.00000   1.97239   1.96164   1.95896   1.94155
   1 1   C  1S         -0.00024  -0.13812   0.07906   0.00306   0.06022
   2        2S         -0.00002   0.36967  -0.22125  -0.00843  -0.16667
   3        3S          0.00000   0.08203  -0.05240  -0.00186  -0.03875
   4        4S         -0.00020   0.24849  -0.22082  -0.00714  -0.08886
   5        5S         -0.00011   0.01892   0.00541   0.00002  -0.00596
   6        6PX         0.00000   0.00000   0.00000   0.00000   0.00000
   7        6PY         0.00000   0.00146  -0.00797   0.24721   0.00072
   8        6PZ         0.00001   0.01476   0.16526   0.00506  -0.18328
   9        7PX         0.00000   0.00000   0.00000   0.00000   0.00000
  10        7PY         0.00000   0.00216  -0.01097   0.33859   0.00099
  11        7PZ        -0.00009   0.00599   0.21404   0.00673  -0.23341
  12        8PX         0.00000   0.00000   0.00000   0.00000   0.00000
  13        8PY         0.00000   0.00113  -0.00711   0.22508   0.00059
  14        8PZ         0.00004  -0.03142   0.10208   0.00351  -0.12948
  15        9PX         0.00000   0.00000   0.00000   0.00000   0.00000
  16        9PY         0.00000  -0.00003  -0.00020   0.00619   0.00011
  17        9PZ        -0.00002   0.00172   0.00748   0.00019  -0.00626
  18       10D 0       -0.00001   0.00858   0.00878   0.00009  -0.01084
  19       10D+1        0.00000   0.00000   0.00000   0.00000   0.00000
  20       10D-1        0.00000  -0.00008   0.00042  -0.01421  -0.00013
  21       10D+2        0.00000  -0.00697   0.00989   0.00022  -0.00306
  22       10D-2        0.00000   0.00000   0.00000   0.00000   0.00000
  23       11D 0       -0.00005   0.00996   0.01533   0.00007  -0.01354
  24       11D+1        0.00000   0.00000   0.00000   0.00000   0.00000
  25       11D-1        0.00000  -0.00023   0.00112  -0.03873  -0.00024
  26       11D+2        0.00000  -0.01751   0.02537   0.00056  -0.00814
  27       11D-2        0.00000   0.00000   0.00000   0.00000   0.00000
  28       12D 0        0.00001  -0.01064  -0.00300  -0.00039  -0.00164
  29       12D+1        0.00000   0.00000   0.00000   0.00000   0.00000
  30       12D-1        0.00000  -0.00014   0.00130  -0.03744  -0.00027
  31       12D+2        0.00003  -0.00426   0.00309  -0.00005  -0.00383
  32       12D-2        0.00000   0.00000   0.00000   0.00000   0.00000
  33       13F 0        0.00000   0.00587   0.00135  -0.00001  -0.00512
  34       13F+1        0.00000   0.00000   0.00000   0.00000   0.00000
  35       13F-1        0.00000   0.00000  -0.00012   0.00566  -0.00005
  36       13F+2        0.00000   0.00388  -0.00227  -0.00013  -0.00029
  37       13F-2        0.00000   0.00000   0.00000   0.00000   0.00000
  38       13F+3        0.00000   0.00000   0.00000   0.00000   0.00000
  39       13F-3        0.00000  -0.00002   0.00008  -0.00232  -0.00002
  40       14F 0        0.00000   0.00563  -0.00585  -0.00015   0.00006
  41       14F+1        0.00000   0.00000   0.00000   0.00000   0.00000
  42       14F-1        0.00000  -0.00002   0.00009   0.00342  -0.00018
  43       14F+2        0.00000   0.00733  -0.00719  -0.00022   0.00020
  44       14F-2        0.00000   0.00000   0.00000   0.00000   0.00000
  45       14F+3        0.00000   0.00000   0.00000   0.00000   0.00000
  46       14F-3        0.00000  -0.00004   0.00015  -0.00288  -0.00004
  47 2   S  1S          0.99624   0.04587   0.04826   0.00120   0.02730
  48        2S          0.01376  -0.17731  -0.18332  -0.00454  -0.10601
  49        3S          0.00032   0.36527   0.39784   0.00997   0.23729
  50        4S          0.00002   0.04573   0.05459   0.00139   0.03426
  51        5S         -0.00011   0.19549   0.21174   0.00554   0.31971
  52        6S          0.00004  -0.01557  -0.02872  -0.00073   0.05955
  53        7PX         0.00000   0.00000   0.00000   0.00000   0.00000
  54        7PY         0.00000  -0.00013   0.00109  -0.03939   0.00171
  55        7PZ         0.00112   0.04170   0.02168   0.00035  -0.18222
  56        8PX         0.00000   0.00000   0.00000   0.00000   0.00000
  57        8PY         0.00000   0.00034  -0.00255   0.09086  -0.00414
  58        8PZ        -0.00015  -0.05442  -0.02913  -0.00042   0.38683
  59        9PX         0.00000   0.00000   0.00000   0.00000   0.00000
  60        9PY         0.00000   0.00016  -0.00108   0.03943  -0.00180
  61        9PZ         0.00014  -0.02951  -0.01696  -0.00029   0.17538
  62       10PX         0.00000   0.00000   0.00000   0.00000   0.00000
  63       10PY         0.00000   0.00015  -0.00081   0.03169  -0.00309
  64       10PZ         0.00006   0.01374   0.00674   0.00029   0.11982
  65       11PX         0.00000   0.00000   0.00000   0.00000   0.00000
  66       11PY         0.00000   0.00001   0.00008  -0.00180  -0.00038
  67       11PZ         0.00000   0.00603   0.00563   0.00016  -0.00321
  68       12D 0        0.00006   0.01212   0.00098  -0.00005  -0.02878
  69       12D+1        0.00000   0.00000   0.00000   0.00000   0.00000
  70       12D-1        0.00000  -0.00011   0.00071  -0.02226  -0.00014
  71       12D+2       -0.00001   0.00037   0.00146   0.00003  -0.00053
  72       12D-2        0.00000   0.00000   0.00000   0.00000   0.00000
  73       13D 0        0.00001   0.02230   0.01004   0.00019  -0.04667
  74       13D+1        0.00000   0.00000   0.00000   0.00000   0.00000
  75       13D-1        0.00000  -0.00010   0.00069  -0.02180  -0.00006
  76       13D+2        0.00001   0.00110   0.00139   0.00002  -0.00015
  77       13D-2        0.00000   0.00000   0.00000   0.00000   0.00000
  78       14D 0       -0.00004  -0.00885  -0.00483  -0.00016   0.00218
  79       14D+1        0.00000   0.00000   0.00000   0.00000   0.00000
  80       14D-1        0.00000  -0.00004   0.00004  -0.00228   0.00004
  81       14D+2        0.00000  -0.00119  -0.00206  -0.00005  -0.00060
  82       14D-2        0.00000   0.00000   0.00000   0.00000   0.00000
  83       15F 0       -0.00002  -0.00778  -0.00495  -0.00011   0.01365
  84       15F+1        0.00000   0.00000   0.00000   0.00000   0.00000
  85       15F-1        0.00000   0.00004  -0.00027   0.00860   0.00001
  86       15F+2        0.00000  -0.00041  -0.00042  -0.00001   0.00342
  87       15F-2        0.00000   0.00000   0.00000   0.00000   0.00000
  88       15F+3        0.00000   0.00000   0.00000   0.00000   0.00000
  89       15F-3        0.00000   0.00000  -0.00002   0.00076  -0.00003
  90       16F 0        0.00000   0.00350   0.00276   0.00008  -0.00441
  91       16F+1        0.00000   0.00000   0.00000   0.00000   0.00000
  92       16F-1        0.00000   0.00001  -0.00001   0.00086  -0.00001
  93       16F+2        0.00000  -0.00044  -0.00071  -0.00002   0.00064
  94       16F-2        0.00000   0.00000   0.00000   0.00000   0.00000
  95       16F+3        0.00000   0.00000   0.00000   0.00000   0.00000
  96       16F-3        0.00000   0.00001  -0.00003   0.00083  -0.00002
  97 3   H  1S          0.00000   0.06637  -0.09647  -0.14289   0.03305
  98        2S          0.00001   0.04965  -0.09687  -0.16123   0.04798
  99        3S          0.00013  -0.03316   0.01257   0.07194   0.01502
 100        4S          0.00000  -0.00030   0.00301   0.00311  -0.00160
 101        5PX         0.00000   0.00000   0.00000   0.00000   0.00000
 102        5PY         0.00000   0.00522  -0.00920  -0.00816   0.00360
 103        5PZ         0.00000   0.00326  -0.00306  -0.00850  -0.00096
 104        6PX         0.00000   0.00000   0.00000   0.00000   0.00000
 105        6PY         0.00000  -0.00345  -0.00258   0.01247   0.00234
 106        6PZ         0.00000  -0.00349   0.00834  -0.00079  -0.00913
 107        7PX         0.00000   0.00000   0.00000   0.00000   0.00000
 108        7PY         0.00001  -0.01010   0.01375   0.03103  -0.00168
 109        7PZ         0.00003  -0.01365   0.00456   0.01320   0.00104
 110        8D 0        0.00000   0.00023   0.00135  -0.00134  -0.00155
 111        8D+1        0.00000   0.00000   0.00000   0.00000   0.00000
 112        8D-1        0.00000   0.00036  -0.00099  -0.00246   0.00009
 113        8D+2        0.00000  -0.00054   0.00156   0.00013  -0.00077
 114        8D-2        0.00000   0.00000   0.00000   0.00000   0.00000
 115        9D 0        0.00000  -0.00009  -0.00020  -0.00182  -0.00051
 116        9D+1        0.00000   0.00000   0.00000   0.00000   0.00000
 117        9D-1       -0.00001  -0.00372   0.00332   0.00354  -0.00066
 118        9D+2        0.00000   0.00144  -0.00060  -0.00297  -0.00019
 119        9D-2        0.00000   0.00000   0.00000   0.00000   0.00000
 120 4   H  1S          0.00000   0.06819  -0.10523   0.13684   0.03371
 121        2S          0.00001   0.05047  -0.10533   0.15358   0.04873
 122        3S          0.00013  -0.03478   0.01823  -0.07243   0.01620
 123        4S          0.00001  -0.00028   0.00320  -0.00296  -0.00144
 124        5PX         0.00000   0.00000   0.00000   0.00000   0.00000
 125        5PY         0.00000  -0.00538   0.00978  -0.00770  -0.00364
 126        5PZ         0.00000   0.00335  -0.00348   0.00831  -0.00105
 127        6PX         0.00000   0.00000   0.00000   0.00000   0.00000
 128        6PY         0.00000   0.00393   0.00159   0.01284  -0.00234
 129        6PZ         0.00000  -0.00356   0.00865   0.00124  -0.00950
 130        7PX         0.00000   0.00000   0.00000   0.00000   0.00000
 131        7PY        -0.00001   0.01070  -0.01588   0.03020   0.00157
 132        7PZ         0.00003  -0.01382   0.00516  -0.01266   0.00135
 133        8D 0        0.00000   0.00027   0.00132   0.00138  -0.00162
 134        8D+1        0.00000   0.00000   0.00000   0.00000   0.00000
 135        8D-1        0.00000  -0.00040   0.00107  -0.00242  -0.00001
 136        8D+2        0.00000  -0.00055   0.00158  -0.00004  -0.00078
 137        8D-2        0.00000   0.00000   0.00000   0.00000   0.00000
 138        9D 0        0.00000  -0.00002  -0.00039   0.00185  -0.00047
 139        9D+1        0.00000   0.00000   0.00000   0.00000   0.00000
 140        9D-1        0.00001   0.00383  -0.00355   0.00328   0.00065
 141        9D+2        0.00000   0.00157  -0.00082   0.00292  -0.00021
 142        9D-2        0.00000   0.00000   0.00000   0.00000   0.00000
                          11        12        13        14        15
     Eigenvalues --     1.94074   1.89916   0.08405   0.03697   0.02658
   1 1   C  1S          0.00058   0.00000   0.00000  -0.11218   0.00259
   2        2S         -0.00161   0.00000   0.00000   0.38662  -0.00904
   3        3S         -0.00040   0.00000   0.00000   0.15614  -0.00410
   4        4S         -0.00040   0.00000   0.00000   0.16038  -0.01073
   5        5S         -0.00013   0.00000   0.00000   0.09729  -0.00086
   6        6PX         0.00000   0.19010  -0.30166   0.00000   0.00000
   7        6PY        -0.04039   0.00000   0.00000  -0.00215   0.26517
   8        6PZ        -0.00144   0.00000   0.00000   0.27187   0.00770
   9        7PX         0.00000   0.26560  -0.45891   0.00000   0.00000
  10        7PY        -0.05319   0.00000   0.00000  -0.00525   0.61935
  11        7PZ        -0.00193   0.00000   0.00000   0.52678   0.01417
  12        8PX         0.00000   0.17838  -0.20538   0.00000   0.00000
  13        8PY        -0.00388   0.00000   0.00000  -0.00272   0.17499
  14        8PZ        -0.00085   0.00000   0.00000   0.47941   0.01051
  15        9PX         0.00000   0.01319  -0.00559   0.00000   0.00000
  16        9PY        -0.00213   0.00000   0.00000   0.00005  -0.00613
  17        9PZ        -0.00002   0.00000   0.00000   0.03789   0.00077
  18       10D 0       -0.00002   0.00000   0.00000   0.00379   0.00049
  19       10D+1        0.00000   0.01136  -0.00311   0.00000   0.00000
  20       10D-1        0.01845   0.00000   0.00000  -0.00018   0.06878
  21       10D+2        0.00002   0.00000   0.00000   0.00230  -0.00005
  22       10D-2        0.00000   0.00001  -0.00003   0.00000   0.00000
  23       11D 0        0.00000   0.00000   0.00000   0.09455   0.00105
  24       11D+1        0.00000   0.03283  -0.03731   0.00000   0.00000
  25       11D-1        0.03595   0.00000   0.00000   0.00059   0.04150
  26       11D+2        0.00000   0.00000   0.00000   0.05602   0.00071
  27       11D-2        0.00000   0.00000  -0.00003   0.00000   0.00000
  28       12D 0       -0.00010   0.00000   0.00000   0.08089   0.00223
  29       12D+1        0.00000   0.01105  -0.01424   0.00000   0.00000
  30       12D-1       -0.02234   0.00000   0.00000   0.00022  -0.02165
  31       12D+2        0.00003   0.00000   0.00000   0.03361   0.00183
  32       12D-2        0.00000   0.00016  -0.00017   0.00000   0.00000
  33       13F 0       -0.00004   0.00000   0.00000   0.01350   0.00026
  34       13F+1        0.00000   0.00635  -0.00597   0.00000   0.00000
  35       13F-1        0.00446   0.00000   0.00000  -0.00011   0.03265
  36       13F+2        0.00001   0.00000   0.00000   0.00240  -0.00041
  37       13F-2        0.00000   0.00001  -0.00001   0.00000   0.00000
  38       13F+3        0.00000   0.00032   0.00009   0.00000   0.00000
  39       13F-3        0.00142   0.00000   0.00000   0.00003  -0.00398
  40       14F 0        0.00001   0.00000   0.00000  -0.00566   0.00001
  41       14F+1        0.00000   0.00115  -0.01618   0.00000   0.00000
  42       14F-1        0.00098   0.00000   0.00000  -0.00019   0.06737
  43       14F+2       -0.00002   0.00000   0.00000  -0.03503  -0.00093
  44       14F-2        0.00000   0.00001  -0.00002   0.00000   0.00000
  45       14F+3        0.00000   0.00061  -0.00508   0.00000   0.00000
  46       14F-3       -0.00051   0.00000   0.00000   0.00002   0.00385
  47 2   S  1S          0.00023   0.00000   0.00000  -0.02427  -0.00009
  48        2S         -0.00089   0.00000   0.00000   0.07025   0.00019
  49        3S          0.00198   0.00000   0.00000  -0.24975  -0.00115
  50        4S          0.00028   0.00000   0.00000   0.00113   0.00033
  51        5S          0.00273   0.00000   0.00000  -0.77433  -0.01107
  52        6S          0.00049   0.00000   0.00000  -0.26333  -0.00389
  53        7PX         0.00000  -0.17471  -0.20030   0.00000   0.00000
  54        7PY        -0.21551   0.00000   0.00000  -0.00053   0.08454
  55        7PZ        -0.00131   0.00000   0.00000  -0.19495  -0.00022
  56        8PX         0.00000   0.39399   0.53019   0.00000   0.00000
  57        8PY         0.52605   0.00000   0.00000   0.00146  -0.24071
  58        8PZ         0.00268   0.00000   0.00000   0.74076   0.00425
  59        9PX         0.00000   0.15989   0.20749   0.00000   0.00000
  60        9PY         0.22272   0.00000   0.00000   0.00067  -0.12764
  61        9PZ         0.00123   0.00000   0.00000   0.21031   0.00002
  62       10PX         0.00000   0.20864   0.16172   0.00000   0.00000
  63       10PY         0.40507   0.00000   0.00000  -0.00032   0.09255
  64       10PZ         0.00064   0.00000   0.00000   0.49238   0.00685
  65       11PX         0.00000   0.00447   0.00187   0.00000   0.00000
  66       11PY         0.04144   0.00000   0.00000  -0.00015   0.02518
  67       11PZ        -0.00006   0.00000   0.00000   0.03301   0.00051
  68       12D 0       -0.00026   0.00000   0.00000   0.09896   0.00127
  69       12D+1        0.00000  -0.03656   0.03887   0.00000   0.00000
  70       12D-1        0.00261   0.00000   0.00000   0.00099  -0.27939
  71       12D+2       -0.00001   0.00000   0.00000   0.08713   0.00020
  72       12D-2        0.00000   0.00002   0.00005   0.00000   0.00000
  73       13D 0       -0.00039   0.00000   0.00000   0.16406   0.00229
  74       13D+1        0.00000  -0.03494   0.05171   0.00000   0.00000
  75       13D-1       -0.00037   0.00000   0.00000   0.00082  -0.24484
  76       13D+2        0.00000   0.00000   0.00000   0.05462   0.00006
  77       13D-2        0.00000   0.00001   0.00002   0.00000   0.00000
  78       14D 0       -0.00003   0.00000   0.00000  -0.06699  -0.00105
  79       14D+1        0.00000  -0.00379  -0.01876   0.00000   0.00000
  80       14D-1       -0.01326   0.00000   0.00000   0.00015  -0.03091
  81       14D+2       -0.00003   0.00000   0.00000   0.01424  -0.00006
  82       14D-2        0.00000  -0.00001   0.00002   0.00000   0.00000
  83       15F 0        0.00010   0.00000   0.00000  -0.01845  -0.00028
  84       15F+1        0.00000   0.01081  -0.01558   0.00000   0.00000
  85       15F-1        0.00368   0.00000   0.00000  -0.00019   0.03130
  86       15F+2        0.00002   0.00000   0.00000  -0.00455   0.00007
  87       15F-2        0.00000   0.00000  -0.00002   0.00000   0.00000
  88       15F+3        0.00000   0.00379   0.00232   0.00000   0.00000
  89       15F-3        0.00444   0.00000   0.00000  -0.00002   0.00346
  90       16F 0       -0.00004   0.00000   0.00000   0.01037   0.00033
  91       16F+1        0.00000  -0.00081   0.00500   0.00000   0.00000
  92       16F-1        0.00196   0.00000   0.00000  -0.00007   0.00110
  93       16F+2        0.00000   0.00000   0.00000  -0.01212   0.00000
  94       16F-2        0.00000   0.00000  -0.00003   0.00000   0.00000
  95       16F+3        0.00000   0.00243   0.00282   0.00000   0.00000
  96       16F-3        0.00333   0.00000   0.00000  -0.00001   0.00208
  97 3   H  1S          0.05256   0.00000   0.00000  -0.03443   0.18309
  98        2S          0.09116   0.00000   0.00000   0.08258   0.58422
  99        3S          0.16342   0.00000   0.00000   0.25741   0.30933
 100        4S          0.01593   0.00000   0.00000   0.01190   0.01253
 101        5PX         0.00000   0.00418  -0.01003   0.00000   0.00000
 102        5PY         0.00267   0.00000   0.00000  -0.00706   0.00636
 103        5PZ         0.00054   0.00000   0.00000   0.00531  -0.01226
 104        6PX         0.00000   0.01433  -0.01688   0.00000   0.00000
 105        6PY        -0.00023   0.00000   0.00000   0.02086   0.15304
 106        6PZ        -0.00206   0.00000   0.00000   0.03808   0.02388
 107        7PX         0.00000   0.00278   0.00851   0.00000   0.00000
 108        7PY         0.01905   0.00000   0.00000   0.04043   0.07400
 109        7PZ        -0.00079   0.00000   0.00000   0.06339   0.01125
 110        8D 0       -0.00094   0.00000   0.00000   0.00263  -0.01073
 111        8D+1        0.00000   0.00137  -0.00294   0.00000   0.00000
 112        8D-1        0.00010   0.00000   0.00000   0.00248  -0.00370
 113        8D+2       -0.00057   0.00000   0.00000   0.00197  -0.00753
 114        8D-2        0.00000   0.00142  -0.00477   0.00000   0.00000
 115        9D 0       -0.00084   0.00000   0.00000   0.00228  -0.00501
 116        9D+1        0.00000   0.00033  -0.00073   0.00000   0.00000
 117        9D-1       -0.00052   0.00000   0.00000   0.01136   0.02936
 118        9D+2        0.00061   0.00000   0.00000   0.00163  -0.02302
 119        9D-2        0.00000   0.00283   0.00377   0.00000   0.00000
 120 4   H  1S         -0.05192   0.00000   0.00000  -0.03254  -0.17448
 121        2S         -0.08977   0.00000   0.00000   0.09178  -0.55816
 122        3S         -0.16301   0.00000   0.00000   0.26543  -0.28836
 123        4S         -0.01592   0.00000   0.00000   0.01200  -0.01152
 124        5PX         0.00000   0.00425  -0.01017   0.00000   0.00000
 125        5PY         0.00263   0.00000   0.00000   0.00703   0.00672
 126        5PZ        -0.00050   0.00000   0.00000   0.00540   0.01298
 127        6PX         0.00000   0.01441  -0.01684   0.00000   0.00000
 128        6PY        -0.00027   0.00000   0.00000  -0.02365   0.15062
 129        6PZ         0.00202   0.00000   0.00000   0.03809  -0.02069
 130        7PX         0.00000   0.00249   0.00891   0.00000   0.00000
 131        7PY         0.01928   0.00000   0.00000  -0.04246   0.07213
 132        7PZ         0.00102   0.00000   0.00000   0.06333  -0.00689
 133        8D 0        0.00092   0.00000   0.00000   0.00248   0.01086
 134        8D+1        0.00000   0.00138  -0.00291   0.00000   0.00000
 135        8D-1        0.00006   0.00000   0.00000  -0.00258  -0.00405
 136        8D+2        0.00055   0.00000   0.00000   0.00189   0.00758
 137        8D-2        0.00000  -0.00145   0.00485   0.00000   0.00000
 138        9D 0        0.00088   0.00000   0.00000   0.00182   0.00473
 139        9D+1        0.00000   0.00028  -0.00064   0.00000   0.00000
 140        9D-1       -0.00046   0.00000   0.00000  -0.01165   0.02885
 141        9D+2       -0.00059   0.00000   0.00000   0.00126   0.02299
 142        9D-2        0.00000  -0.00280  -0.00387   0.00000   0.00000
                          16        17        18        19        20
     Eigenvalues --     0.02032   0.01796   0.01700   0.01599   0.01328
   1 1   C  1S         -0.14831   0.00000   0.08515  -0.00457   0.00000
   2        2S          0.57044   0.00000  -0.32342   0.01765   0.00000
   3        3S          0.30544   0.00000  -0.18818   0.01084   0.00000
   4        4S          0.15455   0.00000  -0.32522   0.01870   0.00000
   5        5S         -0.03005   0.00000  -0.08526   0.00405   0.00000
   6        6PX         0.00000  -0.00017   0.00000   0.00000   0.08590
   7        6PY         0.00092   0.00000   0.01031   0.45126   0.00000
   8        6PZ        -0.31231   0.00000   0.02243  -0.00417   0.00000
   9        7PX         0.00000  -0.00029   0.00000   0.00000   0.10812
  10        7PY         0.00115   0.00000   0.01755   0.77357   0.00000
  11        7PZ        -0.55329   0.00000  -0.03384  -0.00425   0.00000
  12        8PX         0.00000  -0.00010   0.00000   0.00000   0.04441
  13        8PY        -0.00543   0.00000   0.01236   0.55080   0.00000
  14        8PZ        -0.28067   0.00000   0.02060  -0.00023   0.00000
  15        9PX         0.00000   0.00000   0.00000   0.00000  -0.01030
  16        9PY        -0.00036   0.00000   0.00062   0.03072   0.00000
  17        9PZ        -0.02676   0.00000  -0.00970   0.00019   0.00000
  18       10D 0       -0.00502   0.00000   0.00560  -0.00013   0.00000
  19       10D+1        0.00000   0.00015   0.00000   0.00000  -0.14654
  20       10D-1        0.00277   0.00000  -0.00287  -0.08703   0.00000
  21       10D+2        0.03123   0.00000   0.03852  -0.00068   0.00000
  22       10D-2        0.00000   0.04323   0.00000   0.00000   0.00026
  23       11D 0       -0.05833   0.00000   0.01837  -0.00173   0.00000
  24       11D+1        0.00000   0.00006   0.00000   0.00000  -0.26579
  25       11D-1        0.00730   0.00000  -0.00971  -0.33481   0.00000
  26       11D+2        0.03572   0.00000   0.10620  -0.00317   0.00000
  27       11D-2        0.00000   0.08479   0.00000   0.00000   0.00010
  28       12D 0       -0.06073   0.00000  -0.02454  -0.00151   0.00000
  29       12D+1        0.00000   0.00008   0.00000   0.00000  -0.04353
  30       12D-1        0.00479   0.00000  -0.00061  -0.06864   0.00000
  31       12D+2       -0.04714   0.00000   0.01773  -0.00218   0.00000
  32       12D-2        0.00000   0.00821   0.00000   0.00000   0.00025
  33       13F 0       -0.01618   0.00000   0.00277  -0.00029   0.00000
  34       13F+1        0.00000   0.00004   0.00000   0.00000  -0.05000
  35       13F-1        0.00100   0.00000  -0.00070  -0.02219   0.00000
  36       13F+2        0.01777   0.00000   0.02253  -0.00052   0.00000
  37       13F-2        0.00000   0.02544   0.00000   0.00000   0.00009
  38       13F+3        0.00000   0.00001   0.00000   0.00000  -0.01076
  39       13F-3        0.00036   0.00000  -0.00045  -0.01938   0.00000
  40       14F 0       -0.01133   0.00000  -0.02175   0.00084   0.00000
  41       14F+1        0.00000  -0.00005   0.00000   0.00000  -0.02998
  42       14F-1        0.00188   0.00000   0.00034   0.00290   0.00000
  43       14F+2        0.02666   0.00000  -0.01053   0.00056   0.00000
  44       14F-2        0.00000   0.01997   0.00000   0.00000   0.00001
  45       14F+3        0.00000  -0.00018   0.00000   0.00000  -0.00306
  46       14F-3        0.00081   0.00000  -0.00103  -0.04790   0.00000
  47 2   S  1S          0.00167   0.00000   0.00491  -0.00005   0.00000
  48        2S         -0.00401   0.00000  -0.04184   0.00083   0.00000
  49        3S          0.02169   0.00000   0.01254   0.00066   0.00000
  50        4S         -0.01090   0.00000   0.04101  -0.00060   0.00000
  51        5S          0.39996   0.00000   0.13623  -0.00245   0.00000
  52        6S          0.17452   0.00000   0.09628  -0.00283   0.00000
  53        7PX         0.00000  -0.00003   0.00000   0.00000   0.03394
  54        7PY         0.00085   0.00000   0.00062   0.03546   0.00000
  55        7PZ        -0.01713   0.00000   0.04871  -0.00156   0.00000
  56        8PX         0.00000   0.00008   0.00000   0.00000   0.00193
  57        8PY        -0.00394   0.00000  -0.00023  -0.03653   0.00000
  58        8PZ        -0.11865   0.00000  -0.15957   0.00402   0.00000
  59        9PX         0.00000   0.00005   0.00000   0.00000  -0.06247
  60        9PY        -0.00139   0.00000  -0.00086  -0.05384   0.00000
  61        9PZ         0.03622   0.00000  -0.05947   0.00200   0.00000
  62       10PX         0.00000  -0.00018   0.00000   0.00000   0.19876
  63       10PY        -0.00229   0.00000  -0.00033   0.04063   0.00000
  64       10PZ        -0.29899   0.00000  -0.07328   0.00102   0.00000
  65       11PX         0.00000  -0.00003   0.00000   0.00000   0.02048
  66       11PY        -0.00018   0.00000   0.00063   0.02960   0.00000
  67       11PZ        -0.02622   0.00000  -0.01158   0.00039   0.00000
  68       12D 0        0.03719   0.00000   0.13406  -0.00304   0.00000
  69       12D+1        0.00000  -0.00080   0.00000   0.00000   0.44523
  70       12D-1       -0.00986   0.00000   0.01260   0.40991   0.00000
  71       12D+2        0.14320   0.00000   0.56995  -0.01338   0.00000
  72       12D-2        0.00000   0.59556   0.00000   0.00000   0.00071
  73       13D 0       -0.03960   0.00000   0.06224  -0.00152   0.00000
  74       13D+1        0.00000  -0.00061   0.00000   0.00000   0.42920
  75       13D-1       -0.00885   0.00000   0.00932   0.29659   0.00000
  76       13D+2        0.10409   0.00000   0.41230  -0.00983   0.00000
  77       13D-2        0.00000   0.44189   0.00000   0.00000   0.00048
  78       14D 0        0.06334   0.00000   0.04038  -0.00118   0.00000
  79       14D+1        0.00000   0.00001   0.00000   0.00000  -0.06803
  80       14D-1        0.00018   0.00000   0.00201   0.06088   0.00000
  81       14D+2        0.01493   0.00000   0.04561  -0.00085   0.00000
  82       14D-2        0.00000   0.04823   0.00000   0.00000  -0.00001
  83       15F 0        0.00156   0.00000   0.00339  -0.00034   0.00000
  84       15F+1        0.00000   0.00001   0.00000   0.00000  -0.05985
  85       15F-1        0.00060   0.00000  -0.00014   0.00376   0.00000
  86       15F+2       -0.01457   0.00000  -0.02107   0.00020   0.00000
  87       15F-2        0.00000  -0.00736   0.00000   0.00000  -0.00009
  88       15F+3        0.00000  -0.00002   0.00000   0.00000  -0.02170
  89       15F-3        0.00017   0.00000  -0.00003  -0.00178   0.00000
  90       16F 0       -0.02808   0.00000  -0.01911   0.00024   0.00000
  91       16F+1        0.00000   0.00002   0.00000   0.00000   0.02651
  92       16F-1       -0.00013   0.00000  -0.00073  -0.02611   0.00000
  93       16F+2       -0.00796   0.00000  -0.02573   0.00048   0.00000
  94       16F-2        0.00000  -0.01122   0.00000   0.00000  -0.00004
  95       16F+3        0.00000   0.00002   0.00000   0.00000  -0.00908
  96       16F-3       -0.00004   0.00000   0.00003   0.00120   0.00000
  97 3   H  1S         -0.23460   0.00000   0.06470   0.07269   0.00000
  98        2S         -0.60375   0.00000   0.24217   0.70651   0.00000
  99        3S         -0.30950   0.00000   0.13045   0.73738   0.00000
 100        4S         -0.01273   0.00000   0.00324   0.05112   0.00000
 101        5PX         0.00000  -0.00901   0.00000   0.00000   0.02590
 102        5PY         0.01855   0.00000  -0.01098  -0.03225   0.00000
 103        5PZ        -0.00436   0.00000  -0.01241  -0.01991   0.00000
 104        6PX         0.00000  -0.01415   0.00000   0.00000   0.03845
 105        6PY        -0.05563   0.00000   0.00261   0.10226   0.00000
 106        6PZ        -0.04224   0.00000   0.01283   0.07078   0.00000
 107        7PX         0.00000  -0.00088   0.00000   0.00000  -0.00890
 108        7PY        -0.02514   0.00000   0.02175   0.12271   0.00000
 109        7PZ        -0.04606   0.00000  -0.00516   0.08037   0.00000
 110        8D 0       -0.00773   0.00000   0.00127   0.00377   0.00000
 111        8D+1        0.00000  -0.00342   0.00000   0.00000   0.00281
 112        8D-1        0.00600   0.00000  -0.00574  -0.00879   0.00000
 113        8D+2       -0.00627   0.00000   0.00592   0.00961   0.00000
 114        8D-2        0.00000  -0.00775   0.00000   0.00000   0.01648
 115        9D 0        0.00331   0.00000   0.00267  -0.00745   0.00000
 116        9D+1        0.00000   0.00198   0.00000   0.00000  -0.00230
 117        9D-1        0.00029   0.00000  -0.00050   0.00528   0.00000
 118        9D+2        0.00932   0.00000   0.00977  -0.00336   0.00000
 119        9D-2        0.00000  -0.00027   0.00000   0.00000  -0.00485
 120 4   H  1S         -0.24031   0.00000   0.06226  -0.08191   0.00000
 121        2S         -0.60344   0.00000   0.21025  -0.73993   0.00000
 122        3S         -0.28748   0.00000   0.09964  -0.75405   0.00000
 123        4S         -0.01160   0.00000   0.00105  -0.05164   0.00000
 124        5PX         0.00000   0.00914   0.00000   0.00000   0.02601
 125        5PY        -0.01795   0.00000   0.00941  -0.03402   0.00000
 126        5PZ        -0.00429   0.00000  -0.01153   0.02018   0.00000
 127        6PX         0.00000   0.01379   0.00000   0.00000   0.03828
 128        6PY         0.05700   0.00000   0.00227   0.10395   0.00000
 129        6PZ        -0.03838   0.00000   0.00965  -0.07076   0.00000
 130        7PX         0.00000   0.00098   0.00000   0.00000  -0.00933
 131        7PY         0.02116   0.00000  -0.01687   0.12345   0.00000
 132        7PZ        -0.04401   0.00000  -0.00951  -0.08022   0.00000
 133        8D 0       -0.00730   0.00000   0.00118  -0.00422   0.00000
 134        8D+1        0.00000   0.00327   0.00000   0.00000   0.00258
 135        8D-1       -0.00625   0.00000   0.00523  -0.00940   0.00000
 136        8D+2       -0.00605   0.00000   0.00548  -0.01045   0.00000
 137        8D-2        0.00000  -0.00775   0.00000   0.00000  -0.01646
 138        9D 0        0.00330   0.00000   0.00324   0.00809   0.00000
 139        9D+1        0.00000  -0.00215   0.00000   0.00000  -0.00201
 140        9D-1       -0.00029   0.00000   0.00050   0.00461   0.00000
 141        9D+2        0.00977   0.00000   0.00995   0.00279   0.00000
 142        9D-2        0.00000  -0.00029   0.00000   0.00000   0.00484
                          21        22        23        24        25
     Eigenvalues --     0.01198   0.01024   0.00817   0.00670   0.00645
   1 1   C  1S         -0.01013   0.00016  -0.03385   0.00000   0.00000
   2        2S          0.00740  -0.00044   0.11925   0.00000   0.00000
   3        3S         -0.00451   0.00024   0.11545   0.00000   0.00000
   4        4S          0.11525  -0.00799  -0.11138   0.00000   0.00000
   5        5S          0.06458  -0.00023  -0.03945   0.00000   0.00000
   6        6PX         0.00000   0.00000   0.00000   0.39181  -0.00559
   7        6PY         0.00095   0.14504   0.00015   0.00000   0.00000
   8        6PZ         0.11714   0.00061  -0.12673   0.00000   0.00000
   9        7PX         0.00000   0.00000   0.00000   0.46014  -0.00778
  10        7PY         0.00032   0.42521   0.00098   0.00000   0.00000
  11        7PZ         0.26363   0.00314  -0.11695   0.00000   0.00000
  12        8PX         0.00000   0.00000   0.00000  -0.18736   0.00285
  13        8PY         0.00430  -1.10825   0.00074   0.00000   0.00000
  14        8PZ        -0.28157  -0.00900   0.37335   0.00000   0.00000
  15        9PX         0.00000   0.00000   0.00000  -0.01089   0.00022
  16        9PY         0.00095  -0.10686   0.00015   0.00000   0.00000
  17        9PZ        -0.01259  -0.00076   0.00604   0.00000   0.00000
  18       10D 0       -0.18683  -0.00063  -0.09187   0.00000   0.00000
  19       10D+1        0.00000   0.00000   0.00000   0.08127  -0.00096
  20       10D-1        0.00038  -0.02922   0.00053   0.00000   0.00000
  21       10D+2        0.00749  -0.00005  -0.15567   0.00000   0.00000
  22       10D-2        0.00000   0.00000   0.00000   0.00443   0.30622
  23       11D 0       -0.28559  -0.00224  -0.22384   0.00000   0.00000
  24       11D+1        0.00000   0.00000   0.00000   0.10845  -0.00020
  25       11D-1        0.00039  -0.28348   0.00001   0.00000   0.00000
  26       11D+2        0.05862  -0.00045  -0.31168   0.00000   0.00000
  27       11D-2        0.00000   0.00000   0.00000   0.00724   0.45919
  28       12D 0       -0.06633  -0.00037   0.16665   0.00000   0.00000
  29       12D+1        0.00000   0.00000   0.00000   0.07200  -0.00045
  30       12D-1        0.00005   0.16159  -0.00548   0.00000   0.00000
  31       12D+2       -0.04075  -0.00115   0.09225   0.00000   0.00000
  32       12D-2        0.00000   0.00000   0.00000  -0.00014   0.04136
  33       13F 0       -0.04547  -0.00005   0.01269   0.00000   0.00000
  34       13F+1        0.00000   0.00000   0.00000   0.06440  -0.00128
  35       13F-1       -0.00010   0.05045  -0.00013   0.00000   0.00000
  36       13F+2        0.00179  -0.00022   0.01789   0.00000   0.00000
  37       13F-2        0.00000   0.00000   0.00000  -0.00044  -0.02543
  38       13F+3        0.00000   0.00000   0.00000  -0.02213   0.00021
  39       13F-3       -0.00006  -0.01069  -0.00025   0.00000   0.00000
  40       14F 0       -0.05667  -0.00052   0.01416   0.00000   0.00000
  41       14F+1        0.00000   0.00000   0.00000  -0.00162   0.00032
  42       14F-1        0.00017  -0.15362  -0.00163   0.00000   0.00000
  43       14F+2        0.01285   0.00010   0.01290   0.00000   0.00000
  44       14F-2        0.00000   0.00000   0.00000   0.00108   0.07861
  45       14F+3        0.00000   0.00000   0.00000  -0.01906   0.00016
  46       14F-3       -0.00018  -0.01989  -0.00049   0.00000   0.00000
  47 2   S  1S         -0.03305  -0.00007   0.06206   0.00000   0.00000
  48        2S          0.13354   0.00048  -0.22434   0.00000   0.00000
  49        3S         -0.33995  -0.00037   0.77148   0.00000   0.00000
  50        4S         -0.20194  -0.00042   0.53576   0.00000   0.00000
  51        5S          0.69281   0.00641  -1.35130   0.00000   0.00000
  52        6S          0.17790   0.00116  -0.16233   0.00000   0.00000
  53        7PX         0.00000   0.00000   0.00000  -0.20361   0.00315
  54        7PY         0.00099  -0.32062   0.00024   0.00000   0.00000
  55        7PZ        -0.12866  -0.00006  -0.08987   0.00000   0.00000
  56        8PX         0.00000   0.00000   0.00000   0.34134  -0.00568
  57        8PY        -0.00167   0.60074   0.00043   0.00000   0.00000
  58        8PZ         0.12319  -0.00079  -0.02624   0.00000   0.00000
  59        9PX         0.00000   0.00000   0.00000   0.37668  -0.00580
  60        9PY        -0.00186   0.60733  -0.00050   0.00000   0.00000
  61        9PZ         0.20543  -0.00012   0.17380   0.00000   0.00000
  62       10PX         0.00000   0.00000   0.00000  -0.82334   0.01191
  63       10PY         0.00244  -0.86085   0.00477   0.00000   0.00000
  64       10PZ        -0.39890  -0.00208  -0.02846   0.00000   0.00000
  65       11PX         0.00000   0.00000   0.00000  -0.02666   0.00036
  66       11PY         0.00030  -0.09832   0.00026   0.00000   0.00000
  67       11PZ        -0.03716   0.00001  -0.00308   0.00000   0.00000
  68       12D 0       -0.35885  -0.00052   0.03685   0.00000   0.00000
  69       12D+1        0.00000   0.00000   0.00000   0.22532  -0.00259
  70       12D-1        0.00083  -0.28656  -0.00131   0.00000   0.00000
  71       12D+2        0.06174   0.00026   0.13528   0.00000   0.00000
  72       12D-2        0.00000   0.00000   0.00000  -0.00248  -0.17945
  73       13D 0       -0.34965  -0.00069  -0.01772   0.00000   0.00000
  74       13D+1        0.00000   0.00000   0.00000   0.09891  -0.00127
  75       13D-1        0.00023  -0.07566  -0.00080   0.00000   0.00000
  76       13D+2        0.05620   0.00015   0.04042   0.00000   0.00000
  77       13D-2        0.00000   0.00000   0.00000  -0.00189  -0.14647
  78       14D 0        0.09345   0.00076  -0.01127   0.00000   0.00000
  79       14D+1        0.00000   0.00000   0.00000   0.16015  -0.00217
  80       14D-1        0.00003   0.03531  -0.00100   0.00000   0.00000
  81       14D+2       -0.00041   0.00053   0.01327   0.00000   0.00000
  82       14D-2        0.00000   0.00000   0.00000  -0.00008  -0.01999
  83       15F 0        0.06362   0.00029   0.00800   0.00000   0.00000
  84       15F+1        0.00000   0.00000   0.00000   0.08123  -0.00116
  85       15F-1        0.00022   0.00506   0.00009   0.00000   0.00000
  86       15F+2        0.00214   0.00012   0.00982   0.00000   0.00000
  87       15F-2        0.00000   0.00000   0.00000  -0.00138  -0.09736
  88       15F+3        0.00000   0.00000   0.00000  -0.06205   0.00094
  89       15F-3        0.00008  -0.01438   0.00003   0.00000   0.00000
  90       16F 0        0.00491  -0.00008   0.00724   0.00000   0.00000
  91       16F+1        0.00000   0.00000   0.00000  -0.08132   0.00105
  92       16F-1       -0.00015   0.04144   0.00013   0.00000   0.00000
  93       16F+2        0.00026  -0.00027   0.00841   0.00000   0.00000
  94       16F-2        0.00000   0.00000   0.00000   0.00002   0.01143
  95       16F+3        0.00000   0.00000   0.00000  -0.01434   0.00014
  96       16F-3       -0.00004   0.01741   0.00009   0.00000   0.00000
  97 3   H  1S          0.01000   0.01674   0.14154   0.00000   0.00000
  98        2S          0.06202   0.26262  -0.09565   0.00000   0.00000
  99        3S         -0.29445  -1.37124   0.14322   0.00000   0.00000
 100        4S         -0.01948  -0.12787   0.00484   0.00000   0.00000
 101        5PX         0.00000   0.00000   0.00000  -0.00259  -0.09330
 102        5PY        -0.01879  -0.01394   0.02263   0.00000   0.00000
 103        5PZ         0.02890  -0.00462   0.06154   0.00000   0.00000
 104        6PX         0.00000   0.00000   0.00000  -0.09465  -0.20641
 105        6PY        -0.00833   0.08184  -0.01791   0.00000   0.00000
 106        6PZ         0.07217   0.15886   0.03463   0.00000   0.00000
 107        7PX         0.00000   0.00000   0.00000  -0.02222  -0.01448
 108        7PY        -0.02958  -0.25060  -0.03090   0.00000   0.00000
 109        7PZ        -0.04819  -0.10467   0.11485   0.00000   0.00000
 110        8D 0        0.01320  -0.00158   0.01387   0.00000   0.00000
 111        8D+1        0.00000   0.00000   0.00000   0.00162  -0.03552
 112        8D-1        0.01163  -0.00083   0.02083   0.00000   0.00000
 113        8D+2        0.01373  -0.00038  -0.00583   0.00000   0.00000
 114        8D-2        0.00000   0.00000   0.00000  -0.00542  -0.04991
 115        9D 0       -0.00605   0.00656   0.00007   0.00000   0.00000
 116        9D+1        0.00000   0.00000   0.00000  -0.03997   0.01216
 117        9D-1        0.01898   0.05246   0.00749   0.00000   0.00000
 118        9D+2       -0.00357  -0.02286  -0.01052   0.00000   0.00000
 119        9D-2        0.00000   0.00000   0.00000  -0.02789  -0.02318
 120 4   H  1S          0.01036  -0.01584   0.14435   0.00000   0.00000
 121        2S          0.05934  -0.26486  -0.10207   0.00000   0.00000
 122        3S         -0.30762   1.37309   0.12938   0.00000   0.00000
 123        4S         -0.02155   0.12782   0.00432   0.00000   0.00000
 124        5PX         0.00000   0.00000   0.00000   0.00041   0.09451
 125        5PY         0.01840  -0.01432  -0.02344   0.00000   0.00000
 126        5PZ         0.02950   0.00502   0.06159   0.00000   0.00000
 127        6PX         0.00000   0.00000   0.00000  -0.08984   0.20883
 128        6PY         0.00704   0.08231   0.01772   0.00000   0.00000
 129        6PZ         0.07218  -0.15749   0.03207   0.00000   0.00000
 130        7PX         0.00000   0.00000   0.00000  -0.02112   0.01531
 131        7PY         0.03121  -0.25261   0.03325   0.00000   0.00000
 132        7PZ        -0.04904   0.10196   0.11642   0.00000   0.00000
 133        8D 0        0.01285   0.00170   0.01338   0.00000   0.00000
 134        8D+1        0.00000   0.00000   0.00000   0.00281   0.03502
 135        8D-1       -0.01195  -0.00127  -0.02080   0.00000   0.00000
 136        8D+2        0.01352   0.00024  -0.00611   0.00000   0.00000
 137        8D-2        0.00000   0.00000   0.00000   0.00376  -0.05048
 138        9D 0       -0.00624  -0.00557   0.00036   0.00000   0.00000
 139        9D+1        0.00000   0.00000   0.00000  -0.04046  -0.01158
 140        9D-1       -0.01928   0.05183  -0.00728   0.00000   0.00000
 141        9D+2       -0.00404   0.02256  -0.01071   0.00000   0.00000
 142        9D-2        0.00000   0.00000   0.00000   0.02801  -0.02417
                          26        27        28        29        30
     Eigenvalues --     0.00601   0.00490   0.00465   0.00355   0.00234
   1 1   C  1S          0.03483  -0.00082   0.13117   0.00000  -0.01406
   2        2S         -0.11499   0.00340  -0.52545   0.00000   0.07723
   3        3S         -0.11930   0.00254  -0.42301   0.00000   0.03862
   4        4S          0.34125  -0.00310  -0.80221   0.00000   0.93379
   5        5S          0.09165   0.00217  -0.38039   0.00000   0.28328
   6        6PX         0.00000   0.00000   0.00000   0.12448   0.00000
   7        6PY        -0.00054  -0.05908   0.00103   0.00000  -0.00041
   8        6PZ         0.21776   0.00264  -0.39212   0.00000   0.03963
   9        7PX         0.00000   0.00000   0.00000   0.11435   0.00000
  10        7PY        -0.00310   0.08784   0.00101   0.00000   0.00497
  11        7PZ         0.27490   0.00379  -0.47004   0.00000   0.11800
  12        8PX         0.00000   0.00000   0.00000   0.43314   0.00000
  13        8PY        -0.00308   0.29654   0.00511   0.00000  -0.00687
  14        8PZ         0.62372   0.00721  -0.22595   0.00000  -0.10103
  15        9PX         0.00000   0.00000   0.00000   0.02176   0.00000
  16        9PY        -0.00013   0.00393   0.00074   0.00000  -0.00022
  17        9PZ         0.04617   0.00077  -0.09362   0.00000   0.01166
  18       10D 0        0.01876   0.00144  -0.18626   0.00000   0.06826
  19       10D+1        0.00000   0.00000   0.00000   0.32523   0.00000
  20       10D-1       -0.00081   0.27286   0.00285   0.00000   0.00199
  21       10D+2        0.20104   0.00012   0.05957   0.00000  -0.16276
  22       10D-2        0.00000   0.00000   0.00000  -0.00099   0.00000
  23       11D 0        0.10848   0.00466  -0.36202   0.00000   0.05266
  24       11D+1        0.00000   0.00000   0.00000   0.60338   0.00000
  25       11D-1       -0.00072   0.56470   0.00635   0.00000   0.00190
  26       11D+2        0.44026   0.00195   0.07541   0.00000  -0.36643
  27       11D-2        0.00000   0.00000   0.00000  -0.00080   0.00000
  28       12D 0        0.20042   0.00189   0.20556   0.00000  -0.27663
  29       12D+1        0.00000   0.00000   0.00000   0.12991   0.00000
  30       12D-1        0.00209   0.35590   0.00341   0.00000   0.00686
  31       12D+2        0.11088   0.00111   0.10827   0.00000  -0.29335
  32       12D-2        0.00000   0.00000   0.00000   0.00083   0.00000
  33       13F 0       -0.03002  -0.00038  -0.06095   0.00000  -0.10232
  34       13F+1        0.00000   0.00000   0.00000  -0.01489   0.00000
  35       13F-1        0.00027  -0.06064  -0.00008   0.00000   0.00204
  36       13F+2       -0.01698  -0.00020  -0.02852   0.00000  -0.19502
  37       13F-2        0.00000   0.00000   0.00000  -0.00053   0.00000
  38       13F+3        0.00000   0.00000   0.00000   0.05897   0.00000
  39       13F-3        0.00031   0.01128   0.00022   0.00000  -0.00040
  40       14F 0       -0.10341   0.00109  -0.11764   0.00000  -0.10985
  41       14F+1        0.00000   0.00000   0.00000   0.04631   0.00000
  42       14F-1        0.00188  -0.01414   0.00041   0.00000   0.00084
  43       14F+2       -0.05658   0.00111  -0.08800   0.00000  -0.19857
  44       14F-2        0.00000   0.00000   0.00000  -0.00042   0.00000
  45       14F+3        0.00000   0.00000   0.00000   0.02257   0.00000
  46       14F-3        0.00040   0.05050  -0.00018   0.00000  -0.00050
  47 2   S  1S          0.05106   0.00000   0.00502   0.00000   0.00633
  48        2S         -0.16122  -0.00023  -0.01761   0.00000  -0.02657
  49        3S          0.69642  -0.00017   0.05365   0.00000   0.11531
  50        4S          0.50736   0.00080  -0.01730   0.00000   0.16584
  51        5S         -2.01519  -0.01276   0.67256   0.00000  -0.30622
  52        6S         -0.36696  -0.00621   0.69191   0.00000  -0.23025
  53        7PX         0.00000   0.00000   0.00000   0.17198   0.00000
  54        7PY        -0.00033  -0.06444  -0.00020   0.00000   0.00023
  55        7PZ        -0.17335  -0.00051  -0.00417   0.00000  -0.07870
  56        8PX         0.00000   0.00000   0.00000  -0.28736   0.00000
  57        8PY        -0.00023  -0.02844  -0.00113   0.00000  -0.00089
  58        8PZ         0.23255   0.00383  -0.35330   0.00000  -0.03433
  59        9PX         0.00000   0.00000   0.00000  -0.34090   0.00000
  60        9PY         0.00066   0.16192   0.00065   0.00000  -0.00050
  61        9PZ         0.34230   0.00094   0.03267   0.00000   0.16479
  62       10PX         0.00000   0.00000   0.00000  -0.01662   0.00000
  63       10PY        -0.00303  -0.97209  -0.00869   0.00000  -0.00361
  64       10PZ         0.31225   0.00821  -0.98900   0.00000   0.35663
  65       11PX         0.00000   0.00000   0.00000  -0.00215   0.00000
  66       11PY        -0.00028  -0.06306  -0.00055   0.00000   0.00005
  67       11PZ         0.02122   0.00091  -0.10193   0.00000   0.04290
  68       12D 0       -0.19235  -0.00501   0.66712   0.00000  -0.13694
  69       12D+1        0.00000   0.00000   0.00000   0.45773   0.00000
  70       12D-1        0.00039   0.45986   0.00494   0.00000   0.00185
  71       12D+2       -0.04270   0.00004  -0.04531   0.00000   0.14475
  72       12D-2        0.00000   0.00000   0.00000   0.00058   0.00000
  73       13D 0       -0.14205  -0.00293   0.38223   0.00000  -0.03156
  74       13D+1        0.00000   0.00000   0.00000   0.30992   0.00000
  75       13D-1       -0.00032   0.33193   0.00243   0.00000  -0.00023
  76       13D+2       -0.14778   0.00062  -0.08893   0.00000   0.17929
  77       13D-2        0.00000   0.00000   0.00000   0.00053   0.00000
  78       14D 0       -0.09805  -0.00205   0.28899   0.00000  -0.11486
  79       14D+1        0.00000   0.00000   0.00000   0.11009   0.00000
  80       14D-1        0.00088   0.23206   0.00294   0.00000   0.00223
  81       14D+2        0.01857  -0.00016  -0.00502   0.00000   0.03733
  82       14D-2        0.00000   0.00000   0.00000  -0.00017   0.00000
  83       15F 0       -0.01627  -0.00100   0.15149   0.00000   0.13418
  84       15F+1        0.00000   0.00000   0.00000   0.10470   0.00000
  85       15F-1       -0.00025   0.16456   0.00130   0.00000   0.00338
  86       15F+2       -0.05993   0.00037  -0.04235   0.00000   0.37884
  87       15F-2        0.00000   0.00000   0.00000   0.00052   0.00000
  88       15F+3        0.00000   0.00000   0.00000   0.01711   0.00000
  89       15F-3        0.00004  -0.01623  -0.00015   0.00000  -0.00016
  90       16F 0        0.03795   0.00082  -0.11089   0.00000   0.07518
  91       16F+1        0.00000   0.00000   0.00000  -0.08144   0.00000
  92       16F-1       -0.00002  -0.06917  -0.00125   0.00000   0.00016
  93       16F+2        0.01271   0.00054  -0.03186   0.00000   0.04899
  94       16F-2        0.00000   0.00000   0.00000   0.00003   0.00000
  95       16F+3        0.00000   0.00000   0.00000  -0.01767   0.00000
  96       16F-3        0.00003  -0.00800  -0.00012   0.00000  -0.00025
  97 3   H  1S         -0.10013   0.22430  -0.08972   0.00000  -0.29838
  98        2S          0.40268  -0.26457   0.05228   0.00000  -0.13231
  99        3S          0.44782  -0.71201   0.05248   0.00000  -0.16269
 100        4S          0.01075  -0.01948  -0.01679   0.00000  -0.01178
 101        5PX         0.00000   0.00000   0.00000  -0.09350   0.00000
 102        5PY        -0.02972   0.10268  -0.03029   0.00000  -0.03580
 103        5PZ        -0.06011   0.00569   0.02471   0.00000  -0.01852
 104        6PX         0.00000   0.00000   0.00000  -0.13668   0.00000
 105        6PY         0.05977   0.08264  -0.06446   0.00000  -0.00865
 106        6PZ         0.00888  -0.04999   0.04066   0.00000  -0.08147
 107        7PX         0.00000   0.00000   0.00000  -0.00764   0.00000
 108        7PY         0.02118  -0.05367  -0.09979   0.00000   0.13151
 109        7PZ         0.12411   0.03495   0.09708   0.00000  -0.14043
 110        8D 0       -0.01529  -0.02115   0.00808   0.00000   0.00119
 111        8D+1        0.00000   0.00000   0.00000  -0.01651   0.00000
 112        8D-1       -0.01823   0.01370   0.00698   0.00000  -0.02225
 113        8D+2        0.01083  -0.02990   0.02050   0.00000   0.00705
 114        8D-2        0.00000   0.00000   0.00000  -0.05104   0.00000
 115        9D 0       -0.00377  -0.01808  -0.01725   0.00000  -0.01316
 116        9D+1        0.00000   0.00000   0.00000   0.00014   0.00000
 117        9D-1        0.01604   0.02324   0.01294   0.00000  -0.00145
 118        9D+2        0.02498  -0.03191   0.03385   0.00000  -0.01227
 119        9D-2        0.00000   0.00000   0.00000   0.01080   0.00000
 120 4   H  1S         -0.10186  -0.22320  -0.09197   0.00000  -0.29497
 121        2S          0.41175   0.27217   0.05751   0.00000  -0.13305
 122        3S          0.46302   0.72110   0.05920   0.00000  -0.14554
 123        4S          0.01131   0.01997  -0.01758   0.00000  -0.01161
 124        5PX         0.00000   0.00000   0.00000  -0.09393   0.00000
 125        5PY         0.03029   0.10234   0.03148   0.00000   0.03614
 126        5PZ        -0.06020  -0.00403   0.02511   0.00000  -0.01729
 127        6PX         0.00000   0.00000   0.00000  -0.13523   0.00000
 128        6PY        -0.06157   0.08000   0.06291   0.00000   0.01043
 129        6PZ         0.01048   0.05205   0.03943   0.00000  -0.08311
 130        7PX         0.00000   0.00000   0.00000  -0.00879   0.00000
 131        7PY        -0.02468  -0.05537   0.09843   0.00000  -0.13566
 132        7PZ         0.12375  -0.03425   0.09522   0.00000  -0.14026
 133        8D 0       -0.01503   0.02150   0.00765   0.00000   0.00183
 134        8D+1        0.00000   0.00000   0.00000  -0.01578   0.00000
 135        8D-1        0.01813   0.01268  -0.00700   0.00000   0.02222
 136        8D+2        0.01099   0.02966   0.02068   0.00000   0.00751
 137        8D-2        0.00000   0.00000   0.00000   0.05116   0.00000
 138        9D 0       -0.00422   0.01937  -0.01747   0.00000  -0.01301
 139        9D+1        0.00000   0.00000   0.00000   0.00001   0.00000
 140        9D-1       -0.01686   0.02335  -0.01356   0.00000   0.00223
 141        9D+2        0.02466   0.03180   0.03386   0.00000  -0.01168
 142        9D-2        0.00000   0.00000   0.00000  -0.01110   0.00000
                          31        32        33        34        35
     Eigenvalues --     0.00208   0.00195   0.00195   0.00185   0.00154
   1 1   C  1S         -0.00107   0.00000   0.04404  -0.00027   0.00000
   2        2S          0.00487   0.00000  -0.19137   0.00149   0.00000
   3        3S          0.00456   0.00000  -0.18265   0.00076   0.00000
   4        4S         -0.00025   0.00000   0.05255   0.00777   0.00000
   5        5S          0.00091   0.00000   0.00387  -0.00142   0.00000
   6        6PX         0.00000  -0.00211   0.00000   0.00000  -0.34389
[...]
 138        9D 0        1.09517   0.39981   0.00000   0.28693   1.37030
 139        9D+1        0.00000   0.00000  -0.03721   0.00000   0.00000
 140        9D-1       -0.60081   0.31070   0.00000  -1.20685  -0.36639
 141        9D+2       -0.06959   0.28138   0.00000   0.44220   1.38893
 142        9D-2        0.00000   0.00000  -1.13144   0.00000   0.00000
                         136       137       138       139       140
     Eigenvalues --     0.00000   0.00000   0.00000   0.00000   0.00000
   1 1   C  1S         -0.00858   0.41232   0.00000  -0.07668  -0.07873
   2        2S         -0.04997   2.41544   0.00000  -0.41534  -0.44265
   3        3S          0.00324  -0.10675   0.00000   0.05442   0.02118
   4        4S         -0.29224  25.38820   0.00000 -17.75669  -3.26725
   5        5S         -0.33292  16.77366   0.00000  -2.55887   4.75976
   6        6PX         0.00000   0.00000  -0.02076   0.00000   0.00000
   7        6PY        -0.04141  -0.00105   0.00000   0.00050  -0.00007
   8        6PZ        -0.00201   0.05575   0.00000   0.01766   0.01087
   9        7PX         0.00000   0.00000   0.35416   0.00000   0.00000
  10        7PY         2.87387   0.13546   0.00000  -0.02464  -0.00852
  11        7PZ         0.05326  -2.07112   0.00000   0.30440   0.32664
  12        8PX         0.00000   0.00000   0.00194   0.00000   0.00000
  13        8PY        16.78824   0.59097   0.00000  -0.06653  -0.07399
  14        8PZ         0.27364  -8.22219   0.00000   0.51151   9.13085
  15        9PX         0.00000   0.00000  -2.90641   0.00000   0.00000
  16        9PY         6.48449   0.20048   0.00000  -0.04377  -0.01426
  17        9PZ         0.07044  -0.80971   0.00000  -1.73777   5.76681
  18       10D 0       -0.00064   0.00265   0.00000   0.00329  -0.01230
  19       10D+1        0.00000   0.00000  -0.00030   0.00000   0.00000
  20       10D-1       -0.08224  -0.00454   0.00000   0.00063   0.00014
  21       10D+2        0.00400  -0.14337   0.00000   0.01053   0.01179
  22       10D-2        0.00000   0.00000  -0.00041   0.00000   0.00000
  23       11D 0       -0.02485   0.09534   0.00000  -0.30859   0.23154
  24       11D+1        0.00000   0.00000  -0.28534   0.00000   0.00000
  25       11D-1       -1.77854  -0.05312   0.00000   0.00680  -0.00099
  26       11D+2       -0.00395  -1.18977   0.00000   0.51756   0.32253
  27       11D-2        0.00000   0.00000   0.00735   0.00000   0.00000
  28       12D 0       -0.18439   3.85720   0.00000   0.75003   1.81378
  29       12D+1        0.00000   0.00000  -2.66244   0.00000   0.00000
  30       12D-1       -7.08203  -0.19390   0.00000   0.02043  -0.01031
  31       12D+2       -0.06988   0.80283   0.00000   0.94821   0.95163
  32       12D-2        0.00000   0.00000   0.01174   0.00000   0.00000
  33       13F 0       -0.00282   0.09399   0.00000   0.01476  -0.00291
  34       13F+1        0.00000   0.00000   0.01475   0.00000   0.00000
  35       13F-1        0.06583  -0.00025   0.00000  -0.00123  -0.00038
  36       13F+2       -0.00359   0.13330   0.00000  -0.02799  -0.01808
  37       13F-2        0.00000   0.00000  -0.00007   0.00000   0.00000
  38       13F+3        0.00000   0.00000  -0.00464   0.00000   0.00000
  39       13F-3       -0.06860  -0.00307   0.00000   0.00043  -0.00003
  40       14F 0        0.01596  -0.17701   0.00000  -0.60923  -0.01632
  41       14F+1        0.00000   0.00000   0.03022   0.00000   0.00000
  42       14F-1       -0.34051  -0.01424   0.00000   0.01679   0.00470
  43       14F+2        0.00502   0.26544   0.00000  -0.23583  -0.10639
  44       14F-2        0.00000   0.00000  -0.00250   0.00000   0.00000
  45       14F+3        0.00000   0.00000  -0.01879   0.00000   0.00000
  46       14F-3       -0.16054  -0.01143   0.00000   0.00249   0.00177
  47 2   S  1S         -0.00049   0.01500   0.00000   0.01291   0.00264
  48        2S         -0.00683   0.19781   0.00000   0.20109   0.01869
  49        3S         -0.02064   0.62531   0.00000   0.56590   0.10278
  50        4S         -0.00019   0.02888   0.00000  -0.08740   0.10276
  51        5S          0.11580  -2.88100   0.00000   2.03607  -5.67146
  52        6S          0.12278  -9.86693   0.00000  -2.46210 -16.06059
  53        7PX         0.00000   0.00000   0.00360   0.00000   0.00000
  54        7PY        -0.00649  -0.00027   0.00000  -0.00023   0.00005
  55        7PZ        -0.00019  -0.00361   0.00000  -0.04211  -0.00460
  56        8PX         0.00000   0.00000  -0.02643   0.00000   0.00000
  57        8PY        -0.09006  -0.00298   0.00000  -0.00545   0.00040
  58        8PZ         0.00274  -0.24558   0.00000  -1.03937   0.04500
  59        9PX         0.00000   0.00000  -0.01835   0.00000   0.00000
  60        9PY         0.03247   0.00150   0.00000   0.00051  -0.00031
  61        9PZ         0.00199  -0.03144   0.00000   0.08665   0.02891
  62       10PX         0.00000   0.00000   2.17707   0.00000   0.00000
  63       10PY         4.09113   0.08350   0.00000  -0.04265   0.00343
  64       10PZ        -0.04197   3.84874   0.00000   0.34453   6.66308
  65       11PX         0.00000   0.00000   2.74421   0.00000   0.00000
  66       11PY        -0.57624  -0.02553   0.00000  -0.00021  -0.00071
  67       11PZ        -0.04248   2.88852   0.00000   2.71090   2.27902
  68       12D 0        0.00597  -0.29992   0.00000   0.68255  -0.30188
  69       12D+1        0.00000   0.00000   0.12505   0.00000   0.00000
  70       12D-1       -0.29796  -0.00463   0.00000   0.00997  -0.00035
  71       12D+2       -0.00021  -0.05737   0.00000   0.02044  -0.02335
  72       12D-2        0.00000   0.00000  -0.00002   0.00000   0.00000
  73       13D 0       -0.00127   0.06337   0.00000  -0.05091   0.02450
  74       13D+1        0.00000   0.00000  -0.04619   0.00000   0.00000
  75       13D-1       -0.00774  -0.00027   0.00000  -0.00009   0.00016
  76       13D+2       -0.00020   0.01611   0.00000   0.00124   0.00826
  77       13D-2        0.00000   0.00000   0.00008   0.00000   0.00000
  78       14D 0        0.00435  -1.49177   0.00000  -1.16299  -1.54437
  79       14D+1        0.00000   0.00000  -1.87593   0.00000   0.00000
  80       14D-1       -1.89924  -0.03497   0.00000   0.02292   0.00172
  81       14D+2       -0.00174   0.20782   0.00000   0.21998  -0.05401
  82       14D-2        0.00000   0.00000  -0.00068   0.00000   0.00000
  83       15F 0        0.00042  -0.05997   0.00000  -0.03563  -0.01664
  84       15F+1        0.00000   0.00000  -0.02635   0.00000   0.00000
  85       15F-1        0.00473  -0.00032   0.00000  -0.00016   0.00016
  86       15F+2       -0.00006   0.01195   0.00000   0.01368  -0.00898
  87       15F-2        0.00000   0.00000  -0.00004   0.00000   0.00000
  88       15F+3        0.00000   0.00000   0.00436   0.00000   0.00000
  89       15F-3        0.02820   0.00077   0.00000  -0.00021  -0.00018
  90       16F 0       -0.00459   0.38629   0.00000  -0.01341   0.13932
  91       16F+1        0.00000   0.00000   0.22958   0.00000   0.00000
  92       16F-1        0.28275   0.00494   0.00000  -0.00631  -0.00069
  93       16F+2        0.00329  -0.12508   0.00000  -0.11637   0.03902
  94       16F-2        0.00000   0.00000   0.00008   0.00000   0.00000
  95       16F+3        0.00000   0.00000  -0.01510   0.00000   0.00000
  96       16F-3       -0.08084  -0.00158   0.00000   0.00053   0.00057
  97 3   H  1S         -0.05307   0.09921   0.00000  -0.02034  -0.01670
  98        2S          3.65133  -3.55528   0.00000   1.46623   0.89151
  99        3S         29.64427 -10.87238   0.00000   9.19001   7.94249
 100        4S          5.25161  -1.15208   0.00000   0.54930   2.11830
 101        5PX         0.00000   0.00000   0.07644   0.00000   0.00000
 102        5PY        -0.11847   0.06752   0.00000  -0.03620  -0.02837
 103        5PZ        -0.07629   0.04393   0.00000   0.00031  -0.01728
 104        6PX         0.00000   0.00000  -0.39220   0.00000   0.00000
 105        6PY         1.78771  -1.98830   0.00000   0.63860   0.41144
 106        6PZ         1.42137  -0.90866   0.00000   0.38413   0.24397
 107        7PX         0.00000   0.00000  -0.94234   0.00000   0.00000
 108        7PY         5.17754  -4.84047   0.00000   2.05700   1.64814
 109        7PZ         3.38995   2.42100   0.00000   3.69612   1.05818
 110        8D 0       -0.03016  -0.03841   0.00000  -0.01361   0.01051
 111        8D+1        0.00000   0.00000  -0.00563   0.00000   0.00000
 112        8D-1        0.05423  -0.16834   0.00000  -0.02076   0.01411
 113        8D+2       -0.12443   0.11515   0.00000   0.01460  -0.01513
 114        8D-2        0.00000   0.00000   0.07490   0.00000   0.00000
 115        9D 0        0.19351   0.50229   0.00000  -0.00460  -0.07829
 116        9D+1        0.00000   0.00000   0.02054   0.00000   0.00000
 117        9D-1        0.86734   0.00280   0.00000   0.53601   0.08091
 118        9D+2        0.08712   0.59475   0.00000  -0.17312  -0.06386
 119        9D-2        0.00000   0.00000  -0.50255   0.00000   0.00000
 120 4   H  1S          0.04793   0.10237   0.00000  -0.02009  -0.01660
 121        2S         -3.63358  -3.86682   0.00000   1.51188   0.90915
 122        3S        -29.27177 -12.71602   0.00000   9.49081   8.12177
 123        4S         -5.17853  -1.47505   0.00000   0.64972   2.12991
 124        5PX         0.00000   0.00000   0.07676   0.00000   0.00000
 125        5PY        -0.11231  -0.07021   0.00000   0.03554   0.02785
 126        5PZ         0.07308   0.04557   0.00000  -0.00015  -0.01695
 127        6PX         0.00000   0.00000  -0.40172   0.00000   0.00000
 128        6PY         1.70439   2.11830   0.00000  -0.65156  -0.41404
 129        6PZ        -1.38926  -1.00200   0.00000   0.40426   0.24952
 130        7PX         0.00000   0.00000  -0.97218   0.00000   0.00000
 131        7PY         4.88913   5.16515   0.00000  -2.09748  -1.67427
 132        7PZ        -3.52372   2.22664   0.00000   3.75496   1.09653
 133        8D 0        0.03376  -0.03422   0.00000  -0.01478   0.00915
 134        8D+1        0.00000   0.00000  -0.00587   0.00000   0.00000
 135        8D-1        0.04588   0.17384   0.00000   0.02060  -0.01349
 136        8D+2        0.12071   0.12560   0.00000   0.01212  -0.01598
 137        8D-2        0.00000   0.00000  -0.07391   0.00000   0.00000
 138        9D 0       -0.21879   0.47968   0.00000   0.00137  -0.07025
 139        9D+1        0.00000   0.00000   0.01823   0.00000   0.00000
 140        9D-1        0.86631   0.04148   0.00000  -0.54969  -0.08633
 141        9D+2       -0.13804   0.59139   0.00000  -0.16664  -0.06021
 142        9D-2        0.00000   0.00000   0.51018   0.00000   0.00000
                         141       142
     Eigenvalues --     0.00000   0.00000
   1 1   C  1S          0.00005  -0.00438
   2        2S          0.00124  -0.01229
   3        3S          0.00268   0.04623
   4        4S          0.43432   8.01062
   5        5S          0.84579  16.02932
   6        6PX         0.00000   0.00000
   7        6PY        -0.00813   0.00017
   8        6PZ         0.00007   0.00377
   9        7PX         0.00000   0.00000
  10        7PY        -0.16114   0.01759
  11        7PZ        -0.00487  -0.06582
  12        8PX         0.00000   0.00000
  13        8PY        -5.11334   0.27764
  14        8PZ         0.03854   1.15532
  15        9PX         0.00000   0.00000
  16        9PY        -5.27666   0.28896
  17        9PZ         0.03931   1.18863
  18       10D 0        0.00049   0.00936
  19       10D+1        0.00000   0.00000
  20       10D-1       -0.01489   0.00036
  21       10D+2       -0.00079  -0.01260
  22       10D-2        0.00000   0.00000
  23       11D 0       -0.00454  -0.08374
  24       11D+1        0.00000   0.00000
  25       11D-1        0.12584  -0.01410
  26       11D+2        0.00076   0.02335
  27       11D-2        0.00000   0.00000
  28       12D 0        0.02774   0.42322
  29       12D+1        0.00000   0.00000
  30       12D-1       -0.90706   0.00464
  31       12D+2       -0.01821  -0.36681
  32       12D-2        0.00000   0.00000
  33       13F 0       -0.00068  -0.01201
  34       13F+1        0.00000   0.00000
  35       13F-1        0.00480   0.00004
  36       13F+2       -0.00028  -0.00527
  37       13F-2        0.00000   0.00000
  38       13F+3        0.00000   0.00000
  39       13F-3        0.00388  -0.00068
  40       14F 0        0.00034   0.02191
  41       14F+1        0.00000   0.00000
  42       14F-1       -0.09178   0.00452
  43       14F+2       -0.00348  -0.04856
  44       14F-2        0.00000   0.00000
  45       14F+3        0.00000   0.00000
  46       14F-3       -0.01272   0.00103
  47 2   S  1S          0.00019   0.00302
  48        2S          0.00286   0.04678
  49        3S          0.00821   0.13205
  50        4S         -0.00063  -0.01460
  51        5S         -0.10040  -1.74459
  52        6S         -0.46157  -8.66158
  53        7PX         0.00000   0.00000
  54        7PY        -0.00567   0.00029
  55        7PZ        -0.00015  -0.00278
  56        8PX         0.00000   0.00000
  57        8PY        -0.04898   0.00265
  58        8PZ        -0.00250  -0.04381
  59        9PX         0.00000   0.00000
  60        9PY         0.02448  -0.00125
  61        9PZ         0.00057   0.01197
  62       10PX         0.00000   0.00000
  63       10PY         1.28766  -0.03391
  64       10PZ         0.12733   2.28623
  65       11PX         0.00000   0.00000
  66       11PY         0.53642  -0.02336
  67       11PZ         0.11952   2.29512
  68       12D 0       -0.00290  -0.04406
  69       12D+1        0.00000   0.00000
  70       12D-1       -0.08043   0.00115
  71       12D+2        0.00217   0.03496
  72       12D-2        0.00000   0.00000
  73       13D 0        0.00053   0.00699
  74       13D+1        0.00000   0.00000
  75       13D-1        0.00216   0.00015
  76       13D+2       -0.00044  -0.00801
  77       13D-2        0.00000   0.00000
  78       14D 0       -0.03174  -0.62739
  79       14D+1        0.00000   0.00000
  80       14D-1       -0.44403   0.00981
  81       14D+2       -0.00380  -0.07975
  82       14D-2        0.00000   0.00000
  83       15F 0       -0.00069  -0.01499
  84       15F+1        0.00000   0.00000
  85       15F-1       -0.00047   0.00004
  86       15F+2       -0.00050  -0.00633
  87       15F-2        0.00000   0.00000
  88       15F+3        0.00000   0.00000
  89       15F-3       -0.00355   0.00004
  90       16F 0        0.00264   0.06269
  91       16F+1        0.00000   0.00000
  92       16F-1        0.03695  -0.00027
  93       16F+2        0.00073   0.01293
  94       16F-2        0.00000   0.00000
  95       16F+3        0.00000   0.00000
  96       16F-3        0.02155  -0.00065
  97 3   H  1S         -0.01450  -0.01328
  98        2S         -0.01970   0.21122
  99        3S         -8.65241  -4.33359
 100        4S         -8.29677  -1.97590
 101        5PX         0.00000   0.00000
 102        5PY         0.02173   0.00681
 103        5PZ         0.00704   0.01523
 104        6PX         0.00000   0.00000
 105        6PY        -0.26207  -0.06708
 106        6PZ        -0.09957  -0.14225
 107        7PX         0.00000   0.00000
 108        7PY        -2.64955  -1.00726
 109        7PZ        -2.40223  -0.89112
 110        8D 0        0.00814   0.00639
 111        8D+1        0.00000   0.00000
 112        8D-1        0.01347   0.01140
 113        8D+2       -0.02616  -0.00008
 114        8D-2        0.00000   0.00000
 115        9D 0       -0.02445  -0.04985
 116        9D+1        0.00000   0.00000
 117        9D-1       -0.20739  -0.18857
 118        9D+2        0.24370   0.06114
 119        9D-2        0.00000   0.00000
 120 4   H  1S          0.01291  -0.01349
 121        2S          0.04527   0.17429
 122        3S          8.13619  -5.33346
 123        4S          8.04097  -2.88984
 124        5PX         0.00000   0.00000
 125        5PY         0.02061  -0.00907
 126        5PZ        -0.00504   0.01567
 127        6PX         0.00000   0.00000
 128        6PY        -0.25040   0.10581
 129        6PZ         0.07852  -0.15599
 130        7PX         0.00000   0.00000
 131        7PY        -2.51945   1.30194
 132        7PZ         2.27267  -1.09782
 133        8D 0       -0.00699   0.00672
 134        8D+1        0.00000   0.00000
 135        8D-1        0.01179  -0.01143
 136        8D+2        0.02583  -0.00175
 137        8D-2        0.00000   0.00000
 138        9D 0        0.01523  -0.04408
 139        9D+1        0.00000   0.00000
 140        9D-1       -0.17883   0.20761
 141        9D+2       -0.23346   0.08571
 142        9D-2        0.00000   0.00000
          Condensed to atoms (all electrons):
              1          2          3          4
     1  C    6.180251   0.274044   0.183581   0.183621
     2  S    0.274044  16.026339  -0.116849  -0.118626
     3  H    0.183581  -0.116849   0.652092  -0.159014
     4  H    0.183621  -0.118626  -0.159014   0.647806
 Mulliken atomic charges:
              1
     1  C   -0.821497
     2  S   -0.064907
     3  H    0.440190
     4  H    0.446213
 Sum of Mulliken atomic charges =   0.00000
 Mulliken charges with hydrogens summed into heavy atoms:
              1
     1  C    0.064907
     2  S   -0.064907
 Sum of Mulliken charges with hydrogens summed into heavy atoms =   0.00000
 Electronic spatial extent (au):  <R**2>=            130.3667
 Charge=              0.0000 electrons
 Dipole moment (field-independent basis, Debye):
    X=              0.0000    Y=              0.0027    Z=             -1.7498  Tot=              1.7498
 Quadrupole moment (field-independent basis, Debye-Ang):
   XX=            -19.9829   YY=            -20.5872   ZZ=            -18.9555
   XY=              0.0000   XZ=              0.0000   YZ=              0.0084
 Traceless Quadrupole moment (field-independent basis, Debye-Ang):
   XX=             -0.1410   YY=             -0.7453   ZZ=              0.8864
   XY=              0.0000   XZ=              0.0000   YZ=              0.0084
 Octapole moment (field-independent basis, Debye-Ang**2):
  XXX=              0.0000  YYY=              0.0162  ZZZ=            -27.6507  XYY=              0.0000
  XXY=              0.0054  XXZ=             -8.5479  XZZ=              0.0000  YZZ=             -0.0058
  YYZ=            -13.1118  XYZ=              0.0000
 Hexadecapole moment (field-independent basis, Debye-Ang**3):
 XXXX=            -25.3221 YYYY=            -35.1581 ZZZZ=           -127.4040 XXXY=              0.0000
 XXXZ=              0.0000 YYYX=              0.0000 YYYZ=             -0.0211 ZZZX=              0.0000
 ZZZY=              0.0197 XXYY=            -10.5079 XXZZ=            -25.3554 YYZZ=            -29.5573
 XXYZ=             -0.0115 YYXZ=              0.0000 ZZXY=              0.0000
 N-N= 4.467596670838D+01 E-N=-1.127300395059D+03  KE= 4.368594896563D+02
 1\1\GINC-TRAPISTA\SP\RQCISD-FC\Aug-CC-pVTZ\C1H2S1\BRUNS\17-Nov-2021\0\
 \# qcisd/aug-cc-pvtz nosymm density=current output=wfn\\h2cs-wavefunct
 ion\\0,1\C,0,0.,0.,-0.555291\S,0,0.,0.,1.060374\H,0,0.,-0.92228,-1.138
 992\H,0,0.,0.92228,-1.128992\\Version=EM64L-G09RevB.01\HF=-436.5574958
 \MP2=-436.8984305\MP3=-436.9212265\MP4D=-436.931262\MP4DQ=-436.9195943
 \MP4SDQ=-436.9230851\QCISD=-436.9234906\RMSD=6.151e-09\Dipole=0.,0.001
 0481,-0.6884429\Quadrupole=-0.1048506,-0.5541425,0.6589931,0.,0.,0.006
 2812\PG=CS [SG(C1H2S1)]\\@

 Writing a WFN file to GAUSSIAN.wfn.


 CHINESE FORTUNE COOKIE OF JAN 1 1967 SAY....
 ALL THINGS ARE DIFFICULT BEFORE THEY ARE EASY.
 WE LEARN SO LITTLE AND FORGET SO MUCH.
 YOU WILL OVERCOME OBSTACLES TO ACHIEVE SUCCESS.
 AH SO.
 Job cpu time:  0 days  0 hours 21 minutes 36.4 seconds.
 File lengths (MBytes):  RWF=   5923 Int=      0 D2E=      0 Chk=      2 Scr=      1
 Normal termination of Gaussian 09 at Wed Nov 17 17:57:05 2021.
