 Entering Gaussian System, Link 0=/home/bruns/programas/chemistry/gaussian/g09/g09
 Input=GAUSSIAN.com
 Output=GAUSSIAN.log
 Initial command:
 /home/bruns/programas/chemistry/gaussian/g09/l1.exe /home/bruns/programas/chemistry/gaussian/work/Gau-23119.inp -scrdir=/home/bruns/programas/chemistry/gaussian/work/
 Entering Link 1 = /home/bruns/programas/chemistry/gaussian/g09/l1.exe PID=     23121.
  
 Copyright (c) 1988,1990,1992,1993,1995,1998,2003,2009,2010,
            Gaussian, Inc.  All Rights Reserved.
  
 This is part of the Gaussian(R) 09 program.  It is based on
 the Gaussian(R) 03 system (copyright 2003, Gaussian, Inc.),
 the Gaussian(R) 98 system (copyright 1998, Gaussian, Inc.),
 the Gaussian(R) 94 system (copyright 1995, Gaussian, Inc.),
 the Gaussian 92(TM) system (copyright 1992, Gaussian, Inc.),
 the Gaussian 90(TM) system (copyright 1990, Gaussian, Inc.),
 the Gaussian 88(TM) system (copyright 1988, Gaussian, Inc.),
 the Gaussian 86(TM) system (copyright 1986, Carnegie Mellon
 University), and the Gaussian 82(TM) system (copyright 1983,
 Carnegie Mellon University). Gaussian is a federally registered
 trademark of Gaussian, Inc.
  
 This software contains proprietary and confidential information,
 including trade secrets, belonging to Gaussian, Inc.
  
 This software is provided under written license and may be
 used, copied, transmitted, or stored only in accord with that
 written license.
  
 The following legend is applicable only to US Government
 contracts under FAR:
  
                    RESTRICTED RIGHTS LEGEND
  
 Use, reproduction and disclosure by the US Government is
 subject to restrictions as set forth in subparagraphs (a)
 and (c) of the Commercial Computer Software - Restricted
 Rights clause in FAR 52.227-19.
  
 Gaussian, Inc.
 340 Quinnipiac St., Bldg. 40, Wallingford CT 06492
  
  
 ---------------------------------------------------------------
 Warning -- This program may not be used in any manner that
 competes with the business of Gaussian, Inc. or will provide
 assistance to any competitor of Gaussian, Inc.  The licensee
 of this program is prohibited from giving any competitor of
 Gaussian, Inc. access to this program.  By using this program,
 the user acknowledges that Gaussian, Inc. is engaged in the
 business of creating and licensing software in the field of
 computational chemistry and represents and warrants to the
 licensee that it is not a competitor of Gaussian, Inc. and that
 it will not use this program in any manner prohibited above.
 ---------------------------------------------------------------
  

 Cite this work as:
 Gaussian 09, Revision B.01,
 M. J. Frisch, G. W. Trucks, H. B. Schlegel, G. E. Scuseria, 
 M. A. Robb, J. R. Cheeseman, G. Scalmani, V. Barone, B. Mennucci, 
 G. A. Petersson, H. Nakatsuji, M. Caricato, X. Li, H. P. Hratchian, 
 A. F. Izmaylov, J. Bloino, G. Zheng, J. L. Sonnenberg, M. Hada, 
 M. Ehara, K. Toyota, R. Fukuda, J. Hasegawa, M. Ishida, T. Nakajima, 
 Y. Honda, O. Kitao, H. Nakai, T. Vreven, J. A. Montgomery, Jr., 
 J. E. Peralta, F. Ogliaro, M. Bearpark, J. J. Heyd, E. Brothers, 
 K. N. Kudin, V. N. Staroverov, T. Keith, R. Kobayashi, J. Normand, 
 K. Raghavachari, A. Rendell, J. C. Burant, S. S. Iyengar, J. Tomasi, 
 M. Cossi, N. Rega, J. M. Millam, M. Klene, J. E. Knox, J. B. Cross, 
 V. Bakken, C. Adamo, J. Jaramillo, R. Gomperts, R. E. Stratmann, 
 O. Yazyev, A. J. Austin, R. Cammi, C. Pomelli, J. W. Ochterski, 
 R. L. Martin, K. Morokuma, V. G. Zakrzewski, G. A. Voth, 
 P. Salvador, J. J. Dannenberg, S. Dapprich, A. D. Daniels, 
 O. Farkas, J. B. Foresman, J. V. Ortiz, J. Cioslowski, 
 and D. J. Fox, Gaussian, Inc., Wallingford CT, 2010.
 
 ******************************************
 Gaussian 09:  EM64L-G09RevB.01 12-Aug-2010
                17-Nov-2021 
 ******************************************
 %nproc=8
 Will use up to    8 processors via shared memory.
 %mem=8GB
 -----------------------------------------------------
 # qcisd/aug-cc-pvtz nosymm density=current output=wfn
 -----------------------------------------------------
 1/30=1,38=1/1;
 2/12=2,15=1,17=6,18=5,40=1/2;
 3/5=16,6=1,7=10,11=9,16=1,25=1,30=1,71=1/1,2,3;
 4//1;
 5/5=2,38=5/2;
 8/6=4,9=120000,10=1/1,4;
 9/5=8,15=1/13;
 11/28=-7,31=1,32=3,42=3/11;
 10/5=6,13=10,31=1/2;
 6/7=2,8=2,9=2,10=2,22=-1,31=1/1;
 99/5=1,6=1100,9=1/99;
 -----------------
 h2cs-wavefunction
 -----------------
 Symbolic Z-matrix:
 Charge =  0 Multiplicity = 1
 C                     0.        0.01     -0.55529 
 S                     0.        0.        1.06037 
 H                     0.       -0.92228  -1.12899 
 H                     0.        0.92228  -1.12899 
 
                          Input orientation:                          
 ---------------------------------------------------------------------
 Center     Atomic      Atomic             Coordinates (Angstroms)
 Number     Number       Type             X           Y           Z
 ---------------------------------------------------------------------
      1          6           0        0.000000    0.010000   -0.555291
      2         16           0        0.000000    0.000000    1.060374
      3          1           0        0.000000   -0.922280   -1.128992
      4          1           0        0.000000    0.922280   -1.128992
 ---------------------------------------------------------------------
                    Distance matrix (angstroms):
                    1          2          3          4
     1  C    0.000000
     2  S    1.615696   0.000000
     3  H    1.094659   2.375694   0.000000
     4  H    1.077677   2.375694   1.844560   0.000000
 Symmetry turned off by external request.
 Stoichiometry    CH2S
 Framework group  CS[SG(CH2S)]
 Deg. of freedom     5
 Full point group                 CS      NOp   2
 Rotational constants (GHZ):    294.7236721     17.6283254     16.6334290
 Standard basis: Aug-CC-pVTZ (5D, 7F)
 Integral buffers will be    131072 words long.
 Raffenetti 1 integral format.
 Two-electron integral symmetry is turned off.
   142 basis functions,   240 primitive gaussians,   164 cartesian basis functions
    12 alpha electrons       12 beta electrons
       nuclear repulsion energy        44.7036679633 Hartrees.
 NAtoms=    4 NActive=    4 NUniq=    4 SFac= 1.00D+00 NAtFMM=   50 NAOKFM=F Big=F
 One-electron integrals computed using PRISM.
 NBasis=   142 RedAO= T  NBF=   142
 NBsUse=   142 1.00D-06 NBFU=   142
 Harris functional with IExCor=  205 diagonalized for initial guess.
 ExpMin= 2.53D-02 ExpMax= 3.74D+05 ExpMxC= 1.18D+03 IAcc=3 IRadAn=         0 AccDes= 0.00D+00
 HarFok:  IExCor=  205 AccDes= 0.00D+00 IRadAn=         0 IDoV= 1
 ScaDFX=  1.000000  1.000000  1.000000  1.000000
 FoFCou: FMM=F IPFlag=           0 FMFlag=      100000 FMFlg1=           0
         NFxFlg=           0 DoJE=T BraDBF=F KetDBF=T FulRan=T
         Omega=  0.000000  0.000000  1.000000  0.000000  0.000000 ICntrl=     500 IOpCl=  0
         NMat0=    1 NMatS0=    1 NMatT0=    0 NMatD0=    1 NMtDS0=    0 NMtDT0=    0
         I1Cent=           4 NGrid=           0.
 Symmetry not used in FoFCou.
 Requested convergence on RMS density matrix=1.00D-08 within 128 cycles.
 Requested convergence on MAX density matrix=1.00D-06.
 Requested convergence on             energy=1.00D-06.
 No special actions if energy rises.
 Keep R1 ints in memory in canonical form, NReq=93884347.
 SCF Done:  E(RHF) =  -436.557480619     A.U. after   11 cycles
             Convg  =    0.6253D-08             -V/T =  2.0003
 ExpMin= 2.53D-02 ExpMax= 3.74D+05 ExpMxC= 1.18D+03 IAcc=3 IRadAn=         5 AccDes= 0.00D+00
 HarFok:  IExCor=  205 AccDes= 0.00D+00 IRadAn=         5 IDoV=-2
 ScaDFX=  1.000000  1.000000  1.000000  1.000000
 Range of M.O.s used for correlation:     7   142
 NBasis=   142 NAE=    12 NBE=    12 NFC=     6 NFV=     0
 NROrb=    136 NOA=     6 NOB=     6 NVA=   130 NVB=   130

 **** Warning!!: The largest alpha MO coefficient is  0.44467442D+02

 Semi-Direct transformation.
 ModeAB=           2 MOrb=             6 LenV=    1073081967
 LASXX=      7286295 LTotXX=     7286295 LenRXX=     7286295
 LTotAB=     7445736 MaxLAS=    11040480 LenRXY=    11040480
 NonZer=    14572590 LenScr=    22628352 LnRSAI=           0
 LnScr1=           0 LExtra=           0 Total=     40955127
 MaxDsk=          -1 SrtSym=           F ITran=            4
 JobTyp=0 Pass  1:  I=   1 to   6.
 (rs|ai) integrals will be sorted in core.
 Spin components of T(2) and E(2):
     alpha-alpha T2 =       0.1684051203D-01 E2=     -0.3867721757D-01
     alpha-beta  T2 =       0.1052215361D+00 E2=     -0.2635201485D+00
     beta-beta   T2 =       0.1684051203D-01 E2=     -0.3867721757D-01
 ANorm=    0.1067193778D+01
 E2 =    -0.3408745837D+00 EUMP2 =    -0.43689835520244D+03
 R2 and R3 integrals will be kept in memory, NReq=   185320410.
 Iterations=  50 Convergence= 0.100D-07
 Iteration Nr.   1
 **********************
 DD1Dir will call FoFMem   1 times, MxPair=        42
 NAB=    21 NAA=     0 NBB=     0.
 MP4(R+Q)=  0.11663826D-01
 E3=       -0.22811980D-01        EUMP3=      -0.43692116718D+03
 E4(DQ)=    0.16432653D-02        UMP4(DQ)=   -0.43691952392D+03
 E4(SDQ)=  -0.18399665D-02        UMP4(SDQ)=  -0.43692300715D+03
 DE(Corr)= -0.35202274     E(Corr)=     -436.90950336    
 NORM(A)=   0.10738397D+01
 Iteration Nr.   2
 **********************
 DD1Dir will call FoFMem   1 times, MxPair=        42
 NAB=    21 NAA=     0 NBB=     0.
 DE(Corr)= -0.36344523     E(CORR)=     -436.92092585     Delta=-1.14D-02
 NORM(A)=   0.10812081D+01
 Iteration Nr.   3
 **********************
 DD1Dir will call FoFMem   1 times, MxPair=        42
 NAB=    21 NAA=     0 NBB=     0.
 DE(Corr)= -0.36437229     E(CORR)=     -436.92185291     Delta=-9.27D-04
 NORM(A)=   0.10836349D+01
 Iteration Nr.   4
 **********************
 DD1Dir will call FoFMem   1 times, MxPair=        42
 NAB=    21 NAA=     0 NBB=     0.
 DE(Corr)= -0.36570057     E(CORR)=     -436.92318119     Delta=-1.33D-03
 NORM(A)=   0.10846260D+01
 Iteration Nr.   5
 **********************
 DD1Dir will call FoFMem   1 times, MxPair=        42
 NAB=    21 NAA=     0 NBB=     0.
 DE(Corr)= -0.36589814     E(CORR)=     -436.92337876     Delta=-1.98D-04
 NORM(A)=   0.10849876D+01
 Iteration Nr.   6
 **********************
 DD1Dir will call FoFMem   1 times, MxPair=        42
 NAB=    21 NAA=     0 NBB=     0.
 DE(Corr)= -0.36593017     E(CORR)=     -436.92341079     Delta=-3.20D-05
 NORM(A)=   0.10850023D+01
 Iteration Nr.   7
 **********************
 DD1Dir will call FoFMem   1 times, MxPair=        42
 NAB=    21 NAA=     0 NBB=     0.
 DE(Corr)= -0.36593157     E(CORR)=     -436.92341219     Delta=-1.40D-06
 NORM(A)=   0.10850139D+01
 Iteration Nr.   8
 **********************
 DD1Dir will call FoFMem   1 times, MxPair=        42
 NAB=    21 NAA=     0 NBB=     0.
 DE(Corr)= -0.36592861     E(CORR)=     -436.92340923     Delta= 2.96D-06
 NORM(A)=   0.10850130D+01
 Iteration Nr.   9
 **********************
 DD1Dir will call FoFMem   1 times, MxPair=        42
 NAB=    21 NAA=     0 NBB=     0.
 DE(Corr)= -0.36593106     E(CORR)=     -436.92341168     Delta=-2.45D-06
 NORM(A)=   0.10850142D+01
 Iteration Nr.  10
 **********************
 DD1Dir will call FoFMem   1 times, MxPair=        42
 NAB=    21 NAA=     0 NBB=     0.
 DE(Corr)= -0.36593074     E(CORR)=     -436.92341136     Delta= 3.20D-07
 NORM(A)=   0.10850151D+01
 Iteration Nr.  11
 **********************
 DD1Dir will call FoFMem   1 times, MxPair=        42
 NAB=    21 NAA=     0 NBB=     0.
 DE(Corr)= -0.36593126     E(CORR)=     -436.92341188     Delta=-5.24D-07
 NORM(A)=   0.10850156D+01
 Iteration Nr.  12
 **********************
 DD1Dir will call FoFMem   1 times, MxPair=        42
 NAB=    21 NAA=     0 NBB=     0.
 DE(Corr)= -0.36593137     E(CORR)=     -436.92341199     Delta=-1.08D-07
 NORM(A)=   0.10850160D+01
 Iteration Nr.  13
 **********************
 DD1Dir will call FoFMem   1 times, MxPair=        42
 NAB=    21 NAA=     0 NBB=     0.
 DE(Corr)= -0.36593146     E(CORR)=     -436.92341208     Delta=-9.02D-08
 NORM(A)=   0.10850161D+01
 Iteration Nr.  14
 **********************
 DD1Dir will call FoFMem   1 times, MxPair=        42
 NAB=    21 NAA=     0 NBB=     0.
 DE(Corr)= -0.36593149     E(CORR)=     -436.92341211     Delta=-2.92D-08
 NORM(A)=   0.10850162D+01
 Iteration Nr.  15
 **********************
 DD1Dir will call FoFMem   1 times, MxPair=        42
 NAB=    21 NAA=     0 NBB=     0.
 DE(Corr)= -0.36593150     E(CORR)=     -436.92341212     Delta=-8.99D-09
 NORM(A)=   0.10850162D+01
 Iteration Nr.  16
 **********************
 DD1Dir will call FoFMem   1 times, MxPair=        42
 NAB=    21 NAA=     0 NBB=     0.
 DE(Corr)= -0.36593150     E(CORR)=     -436.92341212     Delta=-1.61D-09
 NORM(A)=   0.10850162D+01
 Dominant configurations:
 ***********************
 Spin Case        I    J    A    B          Value
   ABAB          11   11   14   14      -0.114485D+00
 Largest amplitude= 1.14D-01

 Z-AMPLITUDE ITERATIONS

 Iteration Nr.   1
 **********************
 DD1Dir will call FoFMem   1 times, MxPair=        42
 NAB=    21 NAA=     0 NBB=     0.
 DE(Z)  -0.34991367D+00          E(Z)=    -0.43690739429D+03
 NORM(A)=   0.10850055D+01
 Iteration Nr.   2
 **********************
 DD1Dir will call FoFMem   1 times, MxPair=        42
 NAB=    21 NAA=     0 NBB=     0.
 DE(Z)  -0.34991319D+00          E(Z)=    -0.43690739381D+03
 NORM(A)=   0.10850646D+01
 Iteration Nr.   3
 **********************
 DD1Dir will call FoFMem   1 times, MxPair=        42
 NAB=    21 NAA=     0 NBB=     0.
 DE(Z)  -0.34991592D+00          E(Z)=    -0.43690739654D+03
 NORM(A)=   0.10849995D+01
 Iteration Nr.   4
 **********************
 DD1Dir will call FoFMem   1 times, MxPair=        42
 NAB=    21 NAA=     0 NBB=     0.
 DE(Z)  -0.34991289D+00          E(Z)=    -0.43690739351D+03
 NORM(A)=   0.10850334D+01
 Iteration Nr.   5
 **********************
 DD1Dir will call FoFMem   1 times, MxPair=        42
 NAB=    21 NAA=     0 NBB=     0.
 DE(Z)  -0.34991448D+00          E(Z)=    -0.43690739510D+03
 NORM(A)=   0.10767993D+01
 Iteration Nr.   6
 **********************
 DD1Dir will call FoFMem   1 times, MxPair=        42
 NAB=    21 NAA=     0 NBB=     0.
 DE(Z)  -0.34951359D+00          E(Z)=    -0.43690699421D+03
 NORM(A)=   0.10767945D+01
 Iteration Nr.   7
 **********************
 DD1Dir will call FoFMem   1 times, MxPair=        42
 NAB=    21 NAA=     0 NBB=     0.
 DE(Z)  -0.34951216D+00          E(Z)=    -0.43690699278D+03
 NORM(A)=   0.10767937D+01
 Iteration Nr.   8
 **********************
 DD1Dir will call FoFMem   1 times, MxPair=        42
 NAB=    21 NAA=     0 NBB=     0.
 DE(Z)  -0.34951248D+00          E(Z)=    -0.43690699309D+03
 NORM(A)=   0.10767935D+01
 Iteration Nr.   9
 **********************
 DD1Dir will call FoFMem   1 times, MxPair=        42
 NAB=    21 NAA=     0 NBB=     0.
 DE(Z)  -0.34951229D+00          E(Z)=    -0.43690699291D+03
 NORM(A)=   0.10767936D+01
 Iteration Nr.  10
 **********************
 DD1Dir will call FoFMem   1 times, MxPair=        42
 NAB=    21 NAA=     0 NBB=     0.
 DE(Z)  -0.34951232D+00          E(Z)=    -0.43690699294D+03
 NORM(A)=   0.10767936D+01
 Iteration Nr.  11
 **********************
 DD1Dir will call FoFMem   1 times, MxPair=        42
 NAB=    21 NAA=     0 NBB=     0.
 DE(Z)  -0.34951232D+00          E(Z)=    -0.43690699294D+03
 NORM(A)=   0.10767936D+01
 Iteration Nr.  12
 **********************
 DD1Dir will call FoFMem   1 times, MxPair=        42
 NAB=    21 NAA=     0 NBB=     0.
 DE(Z)  -0.34951232D+00          E(Z)=    -0.43690699294D+03
 NORM(A)=   0.10767936D+01
 Discarding MO integrals.
          Differentiating once with respect to electric field.
                with respect to dipole field.
          Electric field/nuclear overlap derivatives assumed to be zero.
          Keep R1 ints in memory in canonical form, NReq=93478140.
          There are     1 degrees of freedom in the 1st order CPHF.  IDoFFX=0.
 LinEq1:  Iter=  0 NonCon=     1 RMS=2.95D-03 Max=4.36D-02
 AX will form     1 AO Fock derivatives at one time.
 LinEq1:  Iter=  1 NonCon=     1 RMS=9.86D-04 Max=1.21D-02
 LinEq1:  Iter=  2 NonCon=     1 RMS=4.76D-04 Max=1.32D-02
 LinEq1:  Iter=  3 NonCon=     1 RMS=1.60D-04 Max=2.44D-03
 LinEq1:  Iter=  4 NonCon=     1 RMS=3.99D-05 Max=5.26D-04
 LinEq1:  Iter=  5 NonCon=     1 RMS=8.74D-06 Max=9.99D-05
 LinEq1:  Iter=  6 NonCon=     1 RMS=1.55D-06 Max=2.20D-05
 LinEq1:  Iter=  7 NonCon=     1 RMS=2.01D-07 Max=2.70D-06
 LinEq1:  Iter=  8 NonCon=     1 RMS=2.32D-08 Max=2.27D-07
 LinEq1:  Iter=  9 NonCon=     1 RMS=3.71D-09 Max=3.77D-08
 LinEq1:  Iter= 10 NonCon=     1 RMS=5.22D-10 Max=5.83D-09
 LinEq1:  Iter= 11 NonCon=     0 RMS=6.73D-11 Max=6.57D-10
 Linear equations converged to 1.000D-10 1.000D-09 after    11 iterations.
 End of Minotr Frequency-dependent properties file   721 does not exist.
 End of Minotr Frequency-dependent properties file   722 does not exist.

 **********************************************************************

            Population analysis using the QCI/CC density.

 **********************************************************************

     Natural Orbital Coefficients:
                           1         2         3         4         5
     Eigenvalues --     2.00003   2.00002   2.00001   2.00000   2.00000
   1 1   C  1S         -0.00040  -0.15977  -0.45362   0.85519   0.00000
   2        2S          0.00000   0.00306   0.00799  -0.01042   0.00000
   3        3S         -0.00003  -0.00638  -0.01852   0.03567   0.00000
   4        4S          0.00060  -0.00360  -0.00076  -0.00334   0.00000
   5        5S          0.00008  -0.00058  -0.00157  -0.00007   0.00000
   6        6PX         0.00000   0.00000   0.00000   0.00000  -0.00135
   7        6PY        -0.00066   0.00000   0.00001  -0.00006   0.00000
   8        6PZ         0.00000   0.00110   0.00170   0.00194   0.00000
   9        7PX         0.00000   0.00000   0.00000   0.00000  -0.00115
  10        7PY        -0.00139  -0.00003  -0.00007   0.00019   0.00000
  11        7PZ         0.00002   0.00012   0.00129  -0.00087   0.00000
  12        8PX         0.00000   0.00000   0.00000   0.00000  -0.00048
  13        8PY         0.01585   0.00004  -0.00008  -0.00005   0.00000
  14        8PZ        -0.00019  -0.00595  -0.00154  -0.00302   0.00000
  15        9PX         0.00000   0.00000   0.00000   0.00000  -0.00001
  16        9PY         0.00134   0.00002   0.00001  -0.00001   0.00000
  17        9PZ         0.00000  -0.00002  -0.00017  -0.00018   0.00000
  18       10D 0        0.00000  -0.00002   0.00000   0.00030   0.00000
  19       10D+1        0.00000   0.00000   0.00000   0.00000  -0.00020
  20       10D-1       -0.00032   0.00001   0.00001  -0.00003   0.00000
  21       10D+2        0.00000   0.00010   0.00027  -0.00054   0.00000
  22       10D-2        0.00000   0.00000   0.00000   0.00000   0.00000
  23       11D 0        0.00003  -0.00083   0.00053  -0.00135   0.00000
  24       11D+1        0.00000   0.00000   0.00000   0.00000   0.00160
  25       11D-1        0.00014   0.00004   0.00004  -0.00006   0.00000
  26       11D+2       -0.00001  -0.00028  -0.00029   0.00019   0.00000
  27       11D-2        0.00000   0.00000   0.00000   0.00000  -0.00003
  28       12D 0        0.00005  -0.00330  -0.00247  -0.00157   0.00000
  29       12D+1        0.00000   0.00000   0.00000   0.00000  -0.00106
  30       12D-1       -0.00424   0.00006   0.00001  -0.00002   0.00000
  31       12D+2        0.00004  -0.00147  -0.00092  -0.00056   0.00000
  32       12D-2        0.00000   0.00000   0.00000   0.00000   0.00002
  33       13F 0        0.00000   0.00001   0.00009   0.00052   0.00000
  34       13F+1        0.00000   0.00000   0.00000   0.00000  -0.00015
  35       13F-1       -0.00036  -0.00001  -0.00001   0.00001   0.00000
  36       13F+2        0.00000  -0.00010  -0.00022   0.00053   0.00000
  37       13F-2        0.00000   0.00000   0.00000   0.00000   0.00001
  38       13F+3        0.00000   0.00000   0.00000   0.00000   0.00002
  39       13F-3        0.00001   0.00000   0.00000  -0.00001   0.00000
  40       14F 0        0.00003   0.00077   0.00156  -0.00089   0.00000
  41       14F+1        0.00000   0.00000   0.00000   0.00000   0.00130
  42       14F-1        0.00197  -0.00003  -0.00007  -0.00007   0.00000
  43       14F+2        0.00004   0.00067   0.00106  -0.00084   0.00000
  44       14F-2        0.00000   0.00000   0.00000   0.00000  -0.00001
  45       14F+3        0.00000   0.00000   0.00000   0.00000   0.00045
  46       14F-3       -0.00017  -0.00001  -0.00001  -0.00002   0.00000
  47 2   S  1S          0.00027  -0.20714   0.19159   0.06304   0.00000
  48        2S         -0.00095   0.70751  -0.66035  -0.21686   0.00000
  49        3S          0.00000  -0.02027   0.01025   0.00297   0.00000
  50        4S         -0.00006   0.04744  -0.04708  -0.01615   0.00000
  51        5S          0.00000   0.00734   0.00708   0.00839   0.00000
  52        6S         -0.00001   0.00006   0.00039   0.00142   0.00000
  53        7PX         0.00000   0.00000   0.00000   0.00000   0.97149
  54        7PY         0.97713  -0.00535  -0.00589  -0.00365   0.00000
  55        7PZ         0.00873   0.66569   0.56948   0.42435   0.00000
  56        8PX         0.00000   0.00000   0.00000   0.00000  -0.01104
  57        8PY        -0.02057   0.00010   0.00010   0.00011   0.00000
  58        8PZ        -0.00015  -0.01193  -0.00781  -0.00671   0.00000
  59        9PX         0.00000   0.00000   0.00000   0.00000   0.06295
  60        9PY         0.05563  -0.00033  -0.00038  -0.00025   0.00000
  61        9PZ         0.00050   0.04067   0.03667   0.02768   0.00000
  62       10PX         0.00000   0.00000   0.00000   0.00000   0.00191
  63       10PY        -0.00639   0.00003   0.00005   0.00011   0.00000
  64       10PZ        -0.00007  -0.00716  -0.00129  -0.00386   0.00000
  65       11PX         0.00000   0.00000   0.00000   0.00000  -0.00070
  66       11PY        -0.00127  -0.00001   0.00000   0.00001   0.00000
  67       11PZ        -0.00001  -0.00006   0.00002  -0.00022   0.00000
  68       12D 0        0.00002   0.00216   0.00175   0.00222   0.00000
  69       12D+1        0.00000   0.00000   0.00000   0.00000   0.00218
  70       12D-1        0.00269  -0.00002  -0.00004  -0.00008   0.00000
  71       12D+2        0.00001  -0.00053  -0.00005   0.00033   0.00000
  72       12D-2        0.00000   0.00000   0.00000   0.00000  -0.00001
  73       13D 0       -0.00001   0.00002  -0.00031  -0.00038   0.00000
  74       13D+1        0.00000   0.00000   0.00000   0.00000  -0.00020
  75       13D-1       -0.00054   0.00000   0.00000   0.00001   0.00000
  76       13D+2        0.00000   0.00037  -0.00029  -0.00012   0.00000
  77       13D-2        0.00000   0.00000   0.00000   0.00000   0.00000
  78       14D 0       -0.00001   0.00096  -0.00028   0.00076   0.00000
  79       14D+1        0.00000   0.00000   0.00000   0.00000  -0.00066
  80       14D-1       -0.00058   0.00000  -0.00001  -0.00004   0.00000
  81       14D+2       -0.00001   0.00035   0.00008   0.00004   0.00000
  82       14D-2        0.00000   0.00000   0.00000   0.00000   0.00000
  83       15F 0        0.00000  -0.00018  -0.00011   0.00014   0.00000
  84       15F+1        0.00000   0.00000   0.00000   0.00000  -0.00033
  85       15F-1       -0.00014   0.00000   0.00000   0.00000   0.00000
  86       15F+2        0.00000   0.00014   0.00019   0.00007   0.00000
  87       15F-2        0.00000   0.00000   0.00000   0.00000   0.00000
  88       15F+3        0.00000   0.00000   0.00000   0.00000   0.00016
  89       15F-3        0.00010   0.00000   0.00000   0.00000   0.00000
  90       16F 0       -0.00001  -0.00041  -0.00027  -0.00077   0.00000
  91       16F+1        0.00000   0.00000   0.00000   0.00000  -0.00047
  92       16F-1       -0.00084   0.00000   0.00001   0.00003   0.00000
  93       16F+2       -0.00001  -0.00004   0.00000  -0.00029   0.00000
  94       16F-2        0.00000   0.00000   0.00000   0.00000   0.00001
  95       16F+3        0.00000   0.00000   0.00000   0.00000  -0.00019
  96       16F-3       -0.00024   0.00000   0.00000   0.00001   0.00000
  97 3   H  1S         -0.00042  -0.00009   0.00014  -0.00116   0.00000
  98        2S          0.00036  -0.00133  -0.00129  -0.00153   0.00000
  99        3S          0.01803  -0.00352  -0.00012  -0.00358   0.00000
 100        4S          0.00055   0.00008   0.00016  -0.00016   0.00000
 101        5PX         0.00000   0.00000   0.00000   0.00000  -0.00006
 102        5PY        -0.00001   0.00001   0.00008  -0.00037   0.00000
 103        5PZ         0.00012   0.00004   0.00009  -0.00016   0.00000
 104        6PX         0.00000   0.00000   0.00000   0.00000   0.00037
 105        6PY        -0.00003   0.00003   0.00020  -0.00085   0.00000
 106        6PZ        -0.00073   0.00007   0.00041  -0.00051   0.00000
 107        7PX         0.00000   0.00000   0.00000   0.00000  -0.00068
 108        7PY         0.00380   0.00038   0.00083  -0.00040   0.00000
 109        7PZ         0.00161  -0.00148  -0.00070  -0.00118   0.00000
 110        8D 0        0.00011   0.00005   0.00007   0.00009   0.00000
 111        8D+1        0.00000   0.00000   0.00000   0.00000  -0.00002
 112        8D-1        0.00000   0.00004   0.00014  -0.00030   0.00000
 113        8D+2        0.00003  -0.00004  -0.00011   0.00023   0.00000
 114        8D-2        0.00000   0.00000   0.00000   0.00000   0.00004
 115        9D 0       -0.00002   0.00007   0.00039  -0.00017   0.00000
 116        9D+1        0.00000   0.00000   0.00000   0.00000   0.00044
 117        9D-1       -0.00048  -0.00026  -0.00023  -0.00029   0.00000
 118        9D+2        0.00019  -0.00021  -0.00028   0.00028   0.00000
 119        9D-2        0.00000   0.00000   0.00000   0.00000  -0.00015
 120 4   H  1S          0.00042  -0.00009   0.00017  -0.00126   0.00000
 121        2S         -0.00053  -0.00123  -0.00105  -0.00197   0.00000
 122        3S         -0.01859  -0.00337   0.00021  -0.00376   0.00000
 123        4S         -0.00058   0.00006   0.00015  -0.00016   0.00000
 124        5PX         0.00000   0.00000   0.00000   0.00000  -0.00006
 125        5PY        -0.00001  -0.00001  -0.00008   0.00039   0.00000
 126        5PZ        -0.00012   0.00004   0.00010  -0.00018   0.00000
 127        6PX         0.00000   0.00000   0.00000   0.00000   0.00040
 128        6PY        -0.00004  -0.00013  -0.00038   0.00102   0.00000
 129        6PZ         0.00076   0.00004   0.00037  -0.00073   0.00000
 130        7PX         0.00000   0.00000   0.00000   0.00000  -0.00071
 131        7PY         0.00385  -0.00049  -0.00098   0.00045   0.00000
 132        7PZ        -0.00163  -0.00156  -0.00071  -0.00126   0.00000
 133        8D 0       -0.00011   0.00004   0.00007   0.00009   0.00000
 134        8D+1        0.00000   0.00000   0.00000   0.00000  -0.00002
 135        8D-1        0.00000  -0.00004  -0.00014   0.00031   0.00000
 136        8D+2       -0.00003  -0.00004  -0.00011   0.00022   0.00000
 137        8D-2        0.00000   0.00000   0.00000   0.00000  -0.00005
 138        9D 0        0.00002   0.00006   0.00038  -0.00018   0.00000
 139        9D+1        0.00000   0.00000   0.00000   0.00000   0.00046
 140        9D-1       -0.00046   0.00026   0.00024   0.00035   0.00000
 141        9D+2       -0.00020  -0.00022  -0.00031   0.00032   0.00000
 142        9D-2        0.00000   0.00000   0.00000   0.00000   0.00016
                           6         7         8         9        10
     Eigenvalues --     2.00000   1.97243   1.96172   1.95907   1.94155
   1 1   C  1S         -0.00024  -0.13850   0.07797   0.01052   0.05996
   2        2S         -0.00002   0.37072  -0.21832  -0.02893  -0.16590
   3        3S          0.00000   0.08232  -0.05180  -0.00648  -0.03854
   4        4S         -0.00020   0.24955  -0.22017  -0.02472  -0.08741
   5        5S         -0.00011   0.01886   0.00512   0.00134  -0.00568
   6        6PX         0.00000   0.00000   0.00000   0.00000   0.00000
   7        6PY         0.00000   0.00321  -0.02933   0.24592   0.00132
   8        6PZ         0.00001   0.01404   0.16450   0.01732  -0.18313
   9        7PX         0.00000   0.00000   0.00000   0.00000   0.00000
  10        7PY         0.00000   0.00473  -0.04012   0.33677   0.00178
  11        7PZ        -0.00009   0.00516   0.21289   0.02229  -0.23319
  12        8PX         0.00000   0.00000   0.00000   0.00000   0.00000
  13        8PY        -0.00001   0.00317  -0.02627   0.22356  -0.00064
  14        8PZ         0.00004  -0.03167   0.10178   0.01168  -0.12968
  15        9PX         0.00000   0.00000   0.00000   0.00000   0.00000
  16        9PY         0.00000   0.00001  -0.00063   0.00609  -0.00011
  17        9PZ        -0.00002   0.00165   0.00746   0.00098  -0.00627
  18       10D 0       -0.00001   0.00848   0.00884   0.00099  -0.01085
  19       10D+1        0.00000   0.00000   0.00000   0.00000   0.00000
  20       10D-1        0.00000  -0.00045   0.00184  -0.01410  -0.00092
  21       10D+2        0.00000  -0.00706   0.00984   0.00120  -0.00307
  22       10D-2        0.00000   0.00000   0.00000   0.00000   0.00000
  23       11D 0       -0.00005   0.00971   0.01545   0.00231  -0.01360
  24       11D+1        0.00000   0.00000   0.00000   0.00000   0.00000
  25       11D-1        0.00000  -0.00109   0.00526  -0.03835  -0.00215
  26       11D+2        0.00001  -0.01772   0.02536   0.00311  -0.00824
  27       11D-2        0.00000   0.00000   0.00000   0.00000   0.00000
  28       12D 0        0.00001  -0.01053  -0.00268   0.00027  -0.00183
  29       12D+1        0.00000   0.00000   0.00000   0.00000   0.00000
  30       12D-1        0.00000  -0.00042   0.00436  -0.03692   0.00201
  31       12D+2        0.00003  -0.00421   0.00329   0.00046  -0.00399
  32       12D-2        0.00000   0.00000   0.00000   0.00000   0.00000
  33       13F 0        0.00000   0.00585   0.00137   0.00004  -0.00510
  34       13F+1        0.00000   0.00000   0.00000   0.00000   0.00000
  35       13F-1        0.00000   0.00000  -0.00068   0.00557  -0.00019
  36       13F+2        0.00000   0.00385  -0.00221  -0.00029  -0.00029
  37       13F-2        0.00000   0.00000   0.00000   0.00000   0.00000
  38       13F+3        0.00000   0.00000   0.00000   0.00000   0.00000
  39       13F-3        0.00000   0.00000   0.00022  -0.00231  -0.00006
  40       14F 0       -0.00001   0.00565  -0.00583  -0.00069   0.00008
  41       14F+1        0.00000   0.00000   0.00000   0.00000   0.00000
  42       14F-1        0.00000  -0.00012  -0.00074   0.00322   0.00053
  43       14F+2        0.00000   0.00736  -0.00716  -0.00078   0.00021
  44       14F-2        0.00000   0.00000   0.00000   0.00000   0.00000
  45       14F+3        0.00000   0.00000   0.00000   0.00000   0.00000
  46       14F-3        0.00000  -0.00015   0.00034  -0.00293   0.00014
  47 2   S  1S          0.99624   0.04564   0.04822   0.00522   0.02725
  48        2S          0.01376  -0.17646  -0.18318  -0.01981  -0.10580
  49        3S          0.00032   0.36343   0.39739   0.04324   0.23683
  50        4S          0.00002   0.04548   0.05448   0.00600   0.03420
  51        5S         -0.00011   0.19448   0.21114   0.02346   0.31919
  52        6S          0.00004  -0.01529  -0.02850  -0.00342   0.05923
  53        7PX         0.00000   0.00000   0.00000   0.00000   0.00000
  54        7PY        -0.00001  -0.00049   0.00337  -0.03890   0.01340
  55        7PZ         0.00112   0.04157   0.02195   0.00060  -0.18190
  56        8PX         0.00000   0.00000   0.00000   0.00000   0.00000
  57        8PY         0.00000   0.00091  -0.00768   0.08972  -0.03254
  58        8PZ        -0.00015  -0.05429  -0.02966   0.00043   0.38621
  59        9PX         0.00000   0.00000   0.00000   0.00000   0.00000
  60        9PY         0.00000   0.00039  -0.00342   0.03892  -0.01371
  61        9PZ         0.00014  -0.02942  -0.01718  -0.00024   0.17507
  62       10PX         0.00000   0.00000   0.00000   0.00000   0.00000
  63       10PY         0.00000   0.00016  -0.00233   0.03092  -0.02375
  64       10PZ         0.00006   0.01366   0.00652   0.00165   0.11987
  65       11PX         0.00000   0.00000   0.00000   0.00000   0.00000
  66       11PY         0.00000  -0.00001   0.00017  -0.00182  -0.00212
  67       11PZ         0.00000   0.00599   0.00558   0.00057  -0.00314
  68       12D 0        0.00006   0.01214   0.00115  -0.00053  -0.02880
  69       12D+1        0.00000   0.00000   0.00000   0.00000   0.00000
  70       12D-1        0.00000  -0.00045   0.00227  -0.02211   0.00070
  71       12D+2       -0.00001   0.00036   0.00145   0.00003  -0.00052
  72       12D-2        0.00000   0.00000   0.00000   0.00000   0.00000
  73       13D 0        0.00001   0.02224   0.01016   0.00028  -0.04659
  74       13D+1        0.00000   0.00000   0.00000   0.00000   0.00000
  75       13D-1        0.00000  -0.00045   0.00219  -0.02168   0.00083
  76       13D+2        0.00001   0.00109   0.00141   0.00005  -0.00015
  77       13D-2        0.00000   0.00000   0.00000   0.00000   0.00000
  78       14D 0       -0.00004  -0.00882  -0.00477  -0.00049   0.00208
  79       14D+1        0.00000   0.00000   0.00000   0.00000   0.00000
  80       14D-1        0.00000   0.00001   0.00034  -0.00217   0.00097
  81       14D+2        0.00000  -0.00120  -0.00210  -0.00027  -0.00056
  82       14D-2        0.00000   0.00000   0.00000   0.00000   0.00000
  83       15F 0       -0.00002  -0.00776  -0.00499  -0.00026   0.01362
  84       15F+1        0.00000   0.00000   0.00000   0.00000   0.00000
  85       15F-1        0.00000   0.00022  -0.00082   0.00854  -0.00057
  86       15F+2        0.00000  -0.00041  -0.00043   0.00006   0.00341
  87       15F-2        0.00000   0.00000   0.00000   0.00000   0.00000
  88       15F+3        0.00000   0.00000   0.00000   0.00000   0.00000
  89       15F-3        0.00000   0.00001  -0.00006   0.00075  -0.00028
  90       16F 0        0.00000   0.00348   0.00274   0.00023  -0.00439
  91       16F+1        0.00000   0.00000   0.00000   0.00000   0.00000
  92       16F-1        0.00000   0.00002  -0.00015   0.00083  -0.00011
  93       16F+2        0.00000  -0.00043  -0.00069  -0.00003   0.00061
  94       16F-2        0.00000   0.00000   0.00000   0.00000   0.00000
  95       16F+3        0.00000   0.00000   0.00000   0.00000   0.00000
  96       16F-3        0.00000   0.00002  -0.00007   0.00083  -0.00020
  97 3   H  1S          0.00000   0.06547  -0.08268  -0.15106   0.03079
  98        2S          0.00001   0.04933  -0.08227  -0.17077   0.04443
  99        3S          0.00013  -0.03174   0.00557   0.07162   0.00644
 100        4S          0.00001  -0.00027   0.00275   0.00325  -0.00244
 101        5PX         0.00000   0.00000   0.00000   0.00000   0.00000
 102        5PY         0.00000   0.00520  -0.00835  -0.00911   0.00343
 103        5PZ         0.00000   0.00316  -0.00214  -0.00860  -0.00103
 104        6PX         0.00000   0.00000   0.00000   0.00000   0.00000
 105        6PY         0.00000  -0.00339  -0.00384   0.01173   0.00268
 106        6PZ         0.00000  -0.00310   0.00851  -0.00009  -0.00948
 107        7PX         0.00000   0.00000   0.00000   0.00000   0.00000
 108        7PY         0.00001  -0.00995   0.01062   0.03229  -0.00269
 109        7PZ         0.00003  -0.01311   0.00330   0.01347   0.00125
 110        8D 0        0.00000   0.00027   0.00150  -0.00112  -0.00156
 111        8D+1        0.00000   0.00000   0.00000   0.00000   0.00000
 112        8D-1        0.00000   0.00039  -0.00070  -0.00258   0.00002
 113        8D+2        0.00000  -0.00053   0.00156   0.00036  -0.00078
 114        8D-2        0.00000   0.00000   0.00000   0.00000   0.00000
 115        9D 0        0.00000   0.00000  -0.00006  -0.00185  -0.00051
 116        9D+1        0.00000   0.00000   0.00000   0.00000   0.00000
 117        9D-1       -0.00001  -0.00365   0.00297   0.00386  -0.00068
 118        9D+2        0.00000   0.00145  -0.00024  -0.00306  -0.00034
 119        9D-2        0.00000   0.00000   0.00000   0.00000   0.00000
 120 4   H  1S          0.00000   0.07036  -0.11742   0.12740   0.03567
 121        2S          0.00001   0.05124  -0.11623   0.14128   0.05109
 122        3S          0.00014  -0.03676   0.02714  -0.07253   0.02385
 123        4S          0.00001  -0.00037   0.00349  -0.00271  -0.00063
 124        5PX         0.00000   0.00000   0.00000   0.00000   0.00000
 125        5PY         0.00000  -0.00556   0.01053  -0.00680  -0.00380
 126        5PZ         0.00000   0.00350  -0.00427   0.00811  -0.00108
 127        6PX         0.00000   0.00000   0.00000   0.00000   0.00000
 128        6PY         0.00000   0.00411  -0.00005   0.01353  -0.00187
 129        6PZ        -0.00001  -0.00403   0.00859   0.00178  -0.00932
 130        7PX         0.00000   0.00000   0.00000   0.00000   0.00000
 131        7PY        -0.00001   0.01116  -0.01879   0.02859   0.00058
 132        7PZ         0.00003  -0.01424   0.00652  -0.01191   0.00118
 133        8D 0        0.00000   0.00025   0.00119   0.00155  -0.00165
 134        8D+1        0.00000   0.00000   0.00000   0.00000   0.00000
 135        8D-1        0.00000  -0.00042   0.00127  -0.00229   0.00000
 136        8D+2        0.00000  -0.00059   0.00155   0.00018  -0.00077
 137        8D-2        0.00000   0.00000   0.00000   0.00000   0.00000
 138        9D 0        0.00000  -0.00009  -0.00061   0.00181  -0.00041
 139        9D+1        0.00000   0.00000   0.00000   0.00000   0.00000
 140        9D-1        0.00001   0.00397  -0.00380   0.00288   0.00056
 141        9D+2        0.00000   0.00159  -0.00110   0.00285  -0.00012
 142        9D-2        0.00000   0.00000   0.00000   0.00000   0.00000
                          11        12        13        14        15
     Eigenvalues --     1.94076   1.89917   0.08405   0.03696   0.02644
   1 1   C  1S          0.00307   0.00000   0.00000  -0.11159   0.00848
   2        2S         -0.00848   0.00000   0.00000   0.38436  -0.03052
   3        3S         -0.00212   0.00000   0.00000   0.15493  -0.01408
   4        4S         -0.00253   0.00000   0.00000   0.15622  -0.00829
   5        5S          0.00131   0.00000   0.00000   0.09693   0.00226
   6        6PX         0.00000   0.19013  -0.30158   0.00000   0.00000
   7        6PY        -0.04035   0.00000   0.00000  -0.00076   0.26264
   8        6PZ        -0.01055   0.00000   0.00000   0.27302   0.01607
   9        7PX         0.00000   0.26564  -0.45884   0.00000   0.00000
  10        7PY        -0.05318   0.00000   0.00000  -0.00562   0.61564
  11        7PZ        -0.01383   0.00000   0.00000   0.52863   0.02551
  12        8PX         0.00000   0.17865  -0.20559   0.00000   0.00000
  13        8PY        -0.00354   0.00000   0.00000  -0.00988   0.17121
  14        8PZ        -0.00817   0.00000   0.00000   0.48079   0.00912
  15        9PX         0.00000   0.01321  -0.00563   0.00000   0.00000
  16        9PY        -0.00204   0.00000   0.00000  -0.00097  -0.00649
  17        9PZ        -0.00057   0.00000   0.00000   0.03818   0.00101
  18       10D 0       -0.00058   0.00000   0.00000   0.00385   0.00012
  19       10D+1        0.00000   0.01135  -0.00308   0.00000   0.00000
  20       10D-1        0.01838   0.00000   0.00000   0.00048   0.06946
  21       10D+2       -0.00017   0.00000   0.00000   0.00223  -0.00052
  22       10D-2        0.00000  -0.00004  -0.00009   0.00000   0.00000
  23       11D 0       -0.00060   0.00000   0.00000   0.09527   0.00697
  24       11D+1        0.00000   0.03283  -0.03725   0.00000   0.00000
  25       11D-1        0.03577   0.00000   0.00000   0.00161   0.04414
  26       11D+2       -0.00054   0.00000   0.00000   0.05645   0.00279
  27       11D-2        0.00000  -0.00012   0.00018   0.00000   0.00000
  28       12D 0        0.00090   0.00000   0.00000   0.08157   0.00079
  29       12D+1        0.00000   0.01106  -0.01436   0.00000   0.00000
  30       12D-1       -0.02242   0.00000   0.00000   0.00185  -0.02010
  31       12D+2        0.00014   0.00000   0.00000   0.03423   0.00045
  32       12D-2        0.00000   0.00029   0.00005   0.00000   0.00000
  33       13F 0       -0.00023   0.00000   0.00000   0.01352   0.00036
  34       13F+1        0.00000   0.00634  -0.00594   0.00000   0.00000
  35       13F-1        0.00449   0.00000   0.00000  -0.00021   0.03285
  36       13F+2        0.00006   0.00000   0.00000   0.00238  -0.00089
  37       13F-2        0.00000  -0.00009   0.00008   0.00000   0.00000
  38       13F+3        0.00000   0.00031   0.00010   0.00000   0.00000
  39       13F-3        0.00143   0.00000   0.00000   0.00010  -0.00376
  40       14F 0        0.00006   0.00000   0.00000  -0.00576   0.00026
  41       14F+1        0.00000   0.00119  -0.01609   0.00000   0.00000
  42       14F-1        0.00097   0.00000   0.00000   0.00015   0.06749
  43       14F+2        0.00005   0.00000   0.00000  -0.03521  -0.00065
  44       14F-2        0.00000   0.00003   0.00035   0.00000   0.00000
  45       14F+3        0.00000   0.00060  -0.00504   0.00000   0.00000
  46       14F-3       -0.00052   0.00000   0.00000   0.00046   0.00398
  47 2   S  1S          0.00130   0.00000   0.00000  -0.02427  -0.00009
  48        2S         -0.00509   0.00000   0.00000   0.07024   0.00016
  49        3S          0.01133   0.00000   0.00000  -0.24967  -0.00118
  50        4S          0.00162   0.00000   0.00000   0.00117   0.00050
  51        5S          0.01526   0.00000   0.00000  -0.77622  -0.01383
  52        6S          0.00307   0.00000   0.00000  -0.26444  -0.00724
  53        7PX         0.00000  -0.17464  -0.20034   0.00000   0.00000
  54        7PY        -0.21517   0.00000   0.00000   0.00145   0.08408
  55        7PZ        -0.01173   0.00000   0.00000  -0.19480   0.00127
  56        8PX         0.00000   0.39380   0.53026   0.00000   0.00000
  57        8PY         0.52527   0.00000   0.00000  -0.00533  -0.24003
  58        8PZ         0.02552   0.00000   0.00000   0.74084   0.00281
  59        9PX         0.00000   0.15982   0.20750   0.00000   0.00000
  60        9PY         0.22238   0.00000   0.00000  -0.00154  -0.12714
  61        9PZ         0.01143   0.00000   0.00000   0.21015  -0.00216
  62       10PX         0.00000   0.20852   0.16197   0.00000   0.00000
  63       10PY         0.40475   0.00000   0.00000  -0.00510   0.09209
  64       10PZ         0.00988   0.00000   0.00000   0.49346   0.01207
  65       11PX         0.00000   0.00447   0.00189   0.00000   0.00000
  66       11PY         0.04143   0.00000   0.00000  -0.00032   0.02506
  67       11PZ         0.00021   0.00000   0.00000   0.03313   0.00119
  68       12D 0       -0.00149   0.00000   0.00000   0.09898  -0.00627
  69       12D+1        0.00000  -0.03657   0.03880   0.00000   0.00000
  70       12D-1        0.00261   0.00000   0.00000  -0.00204  -0.28139
  71       12D+2       -0.00005   0.00000   0.00000   0.08723  -0.00525
  72       12D-2        0.00000   0.00019  -0.00040   0.00000   0.00000
  73       13D 0       -0.00260   0.00000   0.00000   0.16423  -0.00246
  74       13D+1        0.00000  -0.03494   0.05166   0.00000   0.00000
  75       13D-1       -0.00031   0.00000   0.00000  -0.00267  -0.24657
  76       13D+2       -0.00005   0.00000   0.00000   0.05466  -0.00399
  77       13D-2        0.00000   0.00021  -0.00037   0.00000   0.00000
  78       14D 0        0.00011   0.00000   0.00000  -0.06709  -0.00280
  79       14D+1        0.00000  -0.00379  -0.01885   0.00000   0.00000
  80       14D-1       -0.01329   0.00000   0.00000   0.00126  -0.03088
  81       14D+2       -0.00016   0.00000   0.00000   0.01423  -0.00022
  82       14D-2        0.00000  -0.00009   0.00008   0.00000   0.00000
  83       15F 0        0.00083   0.00000   0.00000  -0.01843   0.00067
  84       15F+1        0.00000   0.01081  -0.01556   0.00000   0.00000
  85       15F-1        0.00365   0.00000   0.00000   0.00046   0.03122
  86       15F+2        0.00028   0.00000   0.00000  -0.00452   0.00109
  87       15F-2        0.00000  -0.00014   0.00017   0.00000   0.00000
  88       15F+3        0.00000   0.00380   0.00231   0.00000   0.00000
  89       15F-3        0.00443   0.00000   0.00000   0.00006   0.00348
  90       16F 0       -0.00024   0.00000   0.00000   0.01045   0.00133
  91       16F+1        0.00000  -0.00081   0.00502   0.00000   0.00000
  92       16F-1        0.00197   0.00000   0.00000  -0.00015   0.00111
  93       16F+2        0.00012   0.00000   0.00000  -0.01211   0.00031
  94       16F-2        0.00000   0.00003   0.00003   0.00000   0.00000
  95       16F+3        0.00000   0.00242   0.00281   0.00000   0.00000
  96       16F-3        0.00332   0.00000   0.00000   0.00008   0.00207
  97 3   H  1S          0.05435   0.00000   0.00000  -0.03170   0.19047
  98        2S          0.09381   0.00000   0.00000   0.08487   0.59936
  99        3S          0.16497   0.00000   0.00000   0.25027   0.30693
 100        4S          0.01582   0.00000   0.00000   0.01109   0.01210
 101        5PX         0.00000   0.00418  -0.00993   0.00000   0.00000
 102        5PY         0.00287   0.00000   0.00000  -0.00686   0.00570
 103        5PZ         0.00039   0.00000   0.00000   0.00543  -0.01249
 104        6PX         0.00000   0.01430  -0.01704   0.00000   0.00000
 105        6PY        -0.00002   0.00000   0.00000   0.02206   0.15481
 106        6PZ        -0.00270   0.00000   0.00000   0.03626   0.02476
 107        7PX         0.00000   0.00290   0.00841   0.00000   0.00000
 108        7PY         0.01912   0.00000   0.00000   0.03934   0.07509
 109        7PZ        -0.00048   0.00000   0.00000   0.06156   0.00982
 110        8D 0       -0.00103   0.00000   0.00000   0.00241  -0.01019
 111        8D+1        0.00000   0.00135  -0.00281   0.00000   0.00000
 112        8D-1        0.00007   0.00000   0.00000   0.00256  -0.00407
 113        8D+2       -0.00063   0.00000   0.00000   0.00196  -0.00739
 114        8D-2        0.00000   0.00146  -0.00483   0.00000   0.00000
 115        9D 0       -0.00089   0.00000   0.00000   0.00182  -0.00467
 116        9D+1        0.00000   0.00037  -0.00063   0.00000   0.00000
 117        9D-1       -0.00051   0.00000   0.00000   0.01116   0.02926
 118        9D+2        0.00062   0.00000   0.00000   0.00156  -0.02402
 119        9D-2        0.00000   0.00281   0.00360   0.00000   0.00000
 120 4   H  1S         -0.04952   0.00000   0.00000  -0.03366  -0.16584
 121        2S         -0.08585   0.00000   0.00000   0.09537  -0.53575
 122        3S         -0.16121   0.00000   0.00000   0.27823  -0.28001
 123        4S         -0.01606   0.00000   0.00000   0.01312  -0.01095
 124        5PX         0.00000   0.00432  -0.01041   0.00000   0.00000
 125        5PY         0.00242   0.00000   0.00000   0.00729   0.00746
 126        5PZ        -0.00057   0.00000   0.00000   0.00550   0.01327
 127        6PX         0.00000   0.01451  -0.01660   0.00000   0.00000
 128        6PY        -0.00051   0.00000   0.00000  -0.02313   0.14874
 129        6PZ         0.00154   0.00000   0.00000   0.03973  -0.01755
 130        7PX         0.00000   0.00226   0.00915   0.00000   0.00000
 131        7PY         0.01946   0.00000   0.00000  -0.04385   0.06963
 132        7PZ         0.00161   0.00000   0.00000   0.06537  -0.00708
 133        8D 0        0.00084   0.00000   0.00000   0.00269   0.01141
 134        8D+1        0.00000   0.00141  -0.00299   0.00000   0.00000
 135        8D-1        0.00004   0.00000   0.00000  -0.00256  -0.00418
 136        8D+2        0.00049   0.00000   0.00000   0.00196   0.00772
 137        8D-2        0.00000  -0.00144   0.00487   0.00000   0.00000
 138        9D 0        0.00086   0.00000   0.00000   0.00200   0.00482
 139        9D+1        0.00000   0.00021  -0.00061   0.00000   0.00000
 140        9D-1       -0.00048   0.00000   0.00000  -0.01177   0.02839
 141        9D+2       -0.00057   0.00000   0.00000   0.00146   0.02233
 142        9D-2        0.00000  -0.00278  -0.00410   0.00000   0.00000
                          16        17        18        19        20
     Eigenvalues --     0.02024   0.01796   0.01698   0.01595   0.01328
   1 1   C  1S         -0.14729   0.00000   0.08673  -0.01535   0.00000
   2        2S          0.56619   0.00000  -0.32944   0.05877   0.00000
   3        3S          0.30376   0.00000  -0.19152   0.03666   0.00000
   4        4S          0.14417   0.00000  -0.32739   0.03597   0.00000
   5        5S         -0.03160   0.00000  -0.08502   0.00379   0.00000
   6        6PX         0.00000   0.00034   0.00000   0.00000   0.08621
   7        6PY        -0.01104   0.00000   0.02365   0.45331   0.00000
   8        6PZ        -0.30999   0.00000   0.02508  -0.02056   0.00000
   9        7PX         0.00000  -0.00092   0.00000   0.00000   0.10815
  10        7PY        -0.01929   0.00000   0.04538   0.77832   0.00000
  11        7PZ        -0.54871   0.00000  -0.02951  -0.02971   0.00000
  12        8PX         0.00000  -0.00048   0.00000   0.00000   0.04419
  13        8PY        -0.02228   0.00000   0.03146   0.55393   0.00000
  14        8PZ        -0.27292   0.00000   0.02126  -0.02657   0.00000
  15        9PX         0.00000   0.00006   0.00000   0.00000  -0.01035
  16        9PY        -0.00138   0.00000   0.00095   0.03108   0.00000
  17        9PZ        -0.02637   0.00000  -0.00964  -0.00174   0.00000
  18       10D 0       -0.00404   0.00000   0.00526  -0.00284   0.00000
  19       10D+1        0.00000   0.00022   0.00000   0.00000  -0.14651
  20       10D-1        0.01047   0.00000  -0.00644  -0.08552   0.00000
  21       10D+2        0.03233   0.00000   0.03791  -0.00018   0.00000
  22       10D-2        0.00000   0.04317   0.00000   0.00000   0.00091
  23       11D 0       -0.05664   0.00000   0.01837  -0.00703   0.00000
  24       11D+1        0.00000   0.00138   0.00000   0.00000  -0.26545
  25       11D-1        0.02919   0.00000  -0.02358  -0.33179   0.00000
  26       11D+2        0.03856   0.00000   0.10536  -0.00225   0.00000
  27       11D-2        0.00000   0.08473   0.00000   0.00000  -0.00070
  28       12D 0       -0.06196   0.00000  -0.02360  -0.00338   0.00000
  29       12D+1        0.00000   0.00058   0.00000   0.00000  -0.04402
  30       12D-1        0.00286   0.00000  -0.00649  -0.06834   0.00000
  31       12D+2       -0.04737   0.00000   0.01818  -0.00402   0.00000
  32       12D-2        0.00000   0.00788   0.00000   0.00000  -0.00068
  33       13F 0       -0.01599   0.00000   0.00289  -0.00206   0.00000
  34       13F+1        0.00000   0.00008   0.00000   0.00000  -0.05008
  35       13F-1        0.00302   0.00000  -0.00146  -0.02194   0.00000
  36       13F+2        0.01792   0.00000   0.02231  -0.00077   0.00000
  37       13F-2        0.00000   0.02546   0.00000   0.00000   0.00069
  38       13F+3        0.00000   0.00045   0.00000   0.00000  -0.01078
  39       13F-3        0.00123   0.00000  -0.00153  -0.01936   0.00000
  40       14F 0       -0.01134   0.00000  -0.02154  -0.00092   0.00000
  41       14F+1        0.00000   0.00002   0.00000   0.00000  -0.02975
  42       14F-1        0.00598   0.00000  -0.00202   0.00253   0.00000
  43       14F+2        0.02607   0.00000  -0.01063   0.00207   0.00000
  44       14F-2        0.00000   0.01988   0.00000   0.00000   0.00119
  45       14F+3        0.00000   0.00033   0.00000   0.00000  -0.00283
  46       14F-3        0.00341   0.00000  -0.00352  -0.04812   0.00000
  47 2   S  1S          0.00172   0.00000   0.00488  -0.00035   0.00000
  48        2S         -0.00455   0.00000  -0.04181   0.00273   0.00000
  49        3S          0.02159   0.00000   0.01207  -0.00129   0.00000
  50        4S         -0.01011   0.00000   0.04094  -0.00378   0.00000
  51        5S          0.39614   0.00000   0.13446   0.02570   0.00000
  52        6S          0.17330   0.00000   0.09584   0.00910   0.00000
  53        7PX         0.00000   0.00010   0.00000   0.00000   0.03382
  54        7PY         0.00379   0.00000   0.00033   0.03615   0.00000
  55        7PZ        -0.01653   0.00000   0.04886  -0.00492   0.00000
  56        8PX         0.00000  -0.00010   0.00000   0.00000   0.00189
  57        8PY        -0.01408   0.00000   0.00324  -0.03837   0.00000
  58        8PZ        -0.11843   0.00000  -0.15903   0.00251   0.00000
  59        9PX         0.00000  -0.00023   0.00000   0.00000  -0.06226
  60        9PY        -0.00636   0.00000  -0.00038  -0.05503   0.00000
  61        9PZ         0.03535   0.00000  -0.05973   0.00755   0.00000
  62       10PX         0.00000  -0.00005   0.00000   0.00000   0.19889
  63       10PY         0.00812   0.00000   0.00300   0.04189   0.00000
  64       10PZ        -0.29568   0.00000  -0.07210  -0.02100   0.00000
  65       11PX         0.00000  -0.00003   0.00000   0.00000   0.02057
  66       11PY         0.00017   0.00000   0.00165   0.02972   0.00000
  67       11PZ        -0.02603   0.00000  -0.01151  -0.00146   0.00000
  68       12D 0        0.03924   0.00000   0.13376  -0.00360   0.00000
  69       12D+1        0.00000   0.00465   0.00000   0.00000   0.44565
  70       12D-1       -0.03749   0.00000   0.01846   0.40623   0.00000
  71       12D+2        0.15001   0.00000   0.56797  -0.02023   0.00000
  72       12D-2        0.00000   0.59560   0.00000   0.00000  -0.00356
  73       13D 0       -0.03768   0.00000   0.06230  -0.00559   0.00000
  74       13D+1        0.00000   0.00344   0.00000   0.00000   0.42932
  75       13D-1       -0.03064   0.00000   0.01512   0.29321   0.00000
  76       13D+2        0.10881   0.00000   0.41086  -0.01450   0.00000
  77       13D-2        0.00000   0.44183   0.00000   0.00000  -0.00306
  78       14D 0        0.06291   0.00000   0.04026   0.00379   0.00000
  79       14D+1        0.00000   0.00049   0.00000   0.00000  -0.06820
  80       14D-1       -0.00543   0.00000   0.00190   0.06069   0.00000
  81       14D+2        0.01557   0.00000   0.04547  -0.00119   0.00000
  82       14D-2        0.00000   0.04839   0.00000   0.00000   0.00052
  83       15F 0        0.00136   0.00000   0.00353   0.00051   0.00000
  84       15F+1        0.00000   0.00001   0.00000   0.00000  -0.05987
  85       15F-1        0.00193   0.00000   0.00001   0.00419   0.00000
  86       15F+2       -0.01491   0.00000  -0.02079   0.00032   0.00000
  87       15F-2        0.00000  -0.00728   0.00000   0.00000   0.00098
  88       15F+3        0.00000  -0.00001   0.00000   0.00000  -0.02176
  89       15F-3        0.00038   0.00000  -0.00010  -0.00168   0.00000
  90       16F 0       -0.02813   0.00000  -0.01890  -0.00080   0.00000
  91       16F+1        0.00000  -0.00022   0.00000   0.00000   0.02642
  92       16F-1        0.00099   0.00000  -0.00029  -0.02619   0.00000
  93       16F+2       -0.00834   0.00000  -0.02561   0.00086   0.00000
  94       16F-2        0.00000  -0.01125   0.00000   0.00000   0.00006
  95       16F+3        0.00000  -0.00017   0.00000   0.00000  -0.00913
  96       16F-3        0.00004   0.00000   0.00042   0.00120   0.00000
  97 3   H  1S         -0.23065   0.00000   0.06894   0.06166   0.00000
  98        2S         -0.61155   0.00000   0.27353   0.67358   0.00000
  99        3S         -0.31768   0.00000   0.16113   0.71609   0.00000
 100        4S         -0.01371   0.00000   0.00433   0.05049   0.00000
 101        5PX         0.00000  -0.00898   0.00000   0.00000   0.02531
 102        5PY         0.01961   0.00000  -0.01226  -0.03111   0.00000
 103        5PZ        -0.00467   0.00000  -0.01251  -0.01852   0.00000
 104        6PX         0.00000  -0.01330   0.00000   0.00000   0.03715
 105        6PY        -0.05661   0.00000   0.00792   0.10176   0.00000
 106        6PZ        -0.04527   0.00000   0.01698   0.06755   0.00000
 107        7PX         0.00000  -0.00071   0.00000   0.00000  -0.00996
 108        7PY        -0.02617   0.00000   0.02749   0.12220   0.00000
 109        7PZ        -0.04936   0.00000  -0.00254   0.07542   0.00000
 110        8D 0       -0.00844   0.00000   0.00186   0.00359   0.00000
 111        8D+1        0.00000  -0.00314   0.00000   0.00000   0.00245
 112        8D-1        0.00540   0.00000  -0.00567  -0.00783   0.00000
 113        8D+2       -0.00688   0.00000   0.00640   0.00925   0.00000
 114        8D-2        0.00000  -0.00764   0.00000   0.00000   0.01599
 115        9D 0        0.00403   0.00000   0.00231  -0.00858   0.00000
 116        9D+1        0.00000   0.00208   0.00000   0.00000  -0.00203
 117        9D-1        0.00062   0.00000   0.00014   0.00567   0.00000
 118        9D+2        0.00924   0.00000   0.00933  -0.00396   0.00000
 119        9D-2        0.00000   0.00005   0.00000   0.00000  -0.00530
 120 4   H  1S         -0.24287   0.00000   0.06289  -0.09586   0.00000
 121        2S         -0.58192   0.00000   0.19014  -0.78462   0.00000
 122        3S         -0.26536   0.00000   0.07289  -0.78351   0.00000
 123        4S         -0.00988   0.00000   0.00002  -0.05290   0.00000
 124        5PX         0.00000   0.00932   0.00000   0.00000   0.02662
 125        5PY        -0.01683   0.00000   0.00872  -0.03550   0.00000
 126        5PZ        -0.00471   0.00000  -0.01105   0.02168   0.00000
 127        6PX         0.00000   0.01450   0.00000   0.00000   0.03948
 128        6PY         0.05448   0.00000   0.00645   0.10662   0.00000
 129        6PZ        -0.03333   0.00000   0.00587  -0.07299   0.00000
 130        7PX         0.00000   0.00164   0.00000   0.00000  -0.00885
 131        7PY         0.01610   0.00000  -0.01146   0.12611   0.00000
 132        7PZ        -0.03993   0.00000  -0.01159  -0.08387   0.00000
 133        8D 0       -0.00683   0.00000   0.00098  -0.00433   0.00000
 134        8D+1        0.00000   0.00342   0.00000   0.00000   0.00265
 135        8D-1       -0.00658   0.00000   0.00523  -0.01067   0.00000
 136        8D+2       -0.00563   0.00000   0.00523  -0.01093   0.00000
 137        8D-2        0.00000  -0.00791   0.00000   0.00000  -0.01692
 138        9D 0        0.00316   0.00000   0.00339   0.00732   0.00000
 139        9D+1        0.00000  -0.00203   0.00000   0.00000  -0.00167
 140        9D-1       -0.00015   0.00000   0.00109   0.00399   0.00000
 141        9D+2        0.00998   0.00000   0.01014   0.00264   0.00000
 142        9D-2        0.00000  -0.00054   0.00000   0.00000   0.00463
                          21        22        23        24        25
     Eigenvalues --     0.01199   0.01025   0.00818   0.00670   0.00645
   1 1   C  1S         -0.01080  -0.00170  -0.03447   0.00000   0.00000
   2        2S          0.00967   0.00899   0.12137   0.00000   0.00000
   3        3S         -0.00320   0.00774   0.11716   0.00000   0.00000
   4        4S          0.12439  -0.04938  -0.09621   0.00000   0.00000
   5        5S          0.06614  -0.01037  -0.03723   0.00000   0.00000
   6        6PX         0.00000   0.00000   0.00000   0.39034  -0.03185
   7        6PY        -0.00687   0.14486  -0.00385   0.00000   0.00000
   8        6PZ         0.11629  -0.00439  -0.12740   0.00000   0.00000
   9        7PX         0.00000   0.00000   0.00000   0.45883  -0.04374
  10        7PY        -0.01102   0.42368  -0.00728   0.00000   0.00000
  11        7PZ         0.26167  -0.00831  -0.11836   0.00000   0.00000
  12        8PX         0.00000   0.00000   0.00000  -0.18738   0.01166
  13        8PY         0.00929  -1.10701   0.02630   0.00000   0.00000
  14        8PZ        -0.28122   0.01650   0.36579   0.00000   0.00000
  15        9PX         0.00000   0.00000   0.00000  -0.01081   0.00126
  16        9PY         0.00044  -0.10736   0.00140   0.00000   0.00000
  17        9PZ        -0.01259   0.00099   0.00613   0.00000   0.00000
  18       10D 0       -0.18680  -0.00004  -0.09188   0.00000   0.00000
  19       10D+1        0.00000   0.00000   0.00000   0.08095  -0.00685
  20       10D-1        0.00180  -0.02911   0.00029   0.00000   0.00000
  21       10D+2        0.00757  -0.00157  -0.15593   0.00000   0.00000
  22       10D-2        0.00000   0.00000   0.00000   0.02532   0.30549
  23       11D 0       -0.28496  -0.00315  -0.22346   0.00000   0.00000
  24       11D+1        0.00000   0.00000   0.00000   0.10825  -0.00398
  25       11D-1        0.00145  -0.28126   0.00205   0.00000   0.00000
  26       11D+2        0.05858  -0.00245  -0.31303   0.00000   0.00000
  27       11D-2        0.00000   0.00000   0.00000   0.04038   0.45595
  28       12D 0       -0.06791  -0.00251   0.16336   0.00000   0.00000
  29       12D+1        0.00000   0.00000   0.00000   0.07123  -0.00558
  30       12D-1        0.00330   0.15772  -0.00578   0.00000   0.00000
  31       12D+2       -0.04164  -0.00337   0.09039   0.00000   0.00000
  32       12D-2        0.00000   0.00000   0.00000   0.00197   0.04113
  33       13F 0       -0.04568   0.00016   0.01261   0.00000   0.00000
  34       13F+1        0.00000   0.00000   0.00000   0.06422  -0.00539
  35       13F-1        0.00118   0.05025  -0.00015   0.00000   0.00000
  36       13F+2        0.00185   0.00038   0.01793   0.00000   0.00000
  37       13F-2        0.00000   0.00000   0.00000  -0.00343  -0.02480
  38       13F+3        0.00000   0.00000   0.00000  -0.02206   0.00328
  39       13F-3        0.00043  -0.01047   0.00061   0.00000   0.00000
  40       14F 0       -0.05603  -0.00192   0.01457   0.00000   0.00000
  41       14F+1        0.00000   0.00000   0.00000  -0.00204   0.00004
  42       14F-1        0.00505  -0.15200   0.00784   0.00000   0.00000
  43       14F+2        0.01337  -0.00221   0.01343   0.00000   0.00000
  44       14F-2        0.00000   0.00000   0.00000   0.00510   0.07921
  45       14F+3        0.00000   0.00000   0.00000  -0.01916   0.00356
  46       14F-3        0.00101  -0.01945   0.00200   0.00000   0.00000
  47 2   S  1S         -0.03305   0.00066   0.06197   0.00000   0.00000
  48        2S          0.13336  -0.00225  -0.22394   0.00000   0.00000
  49        3S         -0.34020   0.00803   0.77041   0.00000   0.00000
  50        4S         -0.20184   0.00416   0.53469   0.00000   0.00000
  51        5S          0.69284  -0.00854  -1.34410   0.00000   0.00000
  52        6S          0.17744   0.00062  -0.16355   0.00000   0.00000
  53        7PX         0.00000   0.00000   0.00000  -0.20294   0.01785
  54        7PY        -0.00106  -0.32066   0.00448   0.00000   0.00000
  55        7PZ        -0.12889  -0.00283  -0.08961   0.00000   0.00000
  56        8PX         0.00000   0.00000   0.00000   0.34067  -0.02902
  57        8PY        -0.00013   0.59971  -0.00918   0.00000   0.00000
  58        8PZ         0.12383   0.00124  -0.02634   0.00000   0.00000
  59        9PX         0.00000   0.00000   0.00000   0.37534  -0.03338
  60        9PY         0.00226   0.60735  -0.00894   0.00000   0.00000
  61        9PZ         0.20589   0.00584   0.17319   0.00000   0.00000
  62       10PX         0.00000   0.00000   0.00000  -0.81940   0.07349
  63       10PY        -0.00659  -0.86072   0.01111   0.00000   0.00000
  64       10PZ        -0.39867  -0.00885  -0.02832   0.00000   0.00000
  65       11PX         0.00000   0.00000   0.00000  -0.02657   0.00218
  66       11PY        -0.00099  -0.09839   0.00124   0.00000   0.00000
  67       11PZ        -0.03708  -0.00151  -0.00276   0.00000   0.00000
  68       12D 0       -0.35955   0.00018   0.03609   0.00000   0.00000
  69       12D+1        0.00000   0.00000   0.00000   0.22340  -0.02102
  70       12D-1        0.00309  -0.28558   0.00190   0.00000   0.00000
  71       12D+2        0.06175  -0.00077   0.13543   0.00000   0.00000
  72       12D-2        0.00000   0.00000   0.00000  -0.01634  -0.17888
  73       13D 0       -0.34999  -0.00011  -0.01782   0.00000   0.00000
  74       13D+1        0.00000   0.00000   0.00000   0.09788  -0.00988
  75       13D-1        0.00240  -0.07582  -0.00017   0.00000   0.00000
  76       13D+2        0.05625  -0.00052   0.04053   0.00000   0.00000
  77       13D-2        0.00000   0.00000   0.00000  -0.01303  -0.14589
  78       14D 0        0.09301   0.00106  -0.01172   0.00000   0.00000
  79       14D+1        0.00000   0.00000   0.00000   0.15924  -0.01450
  80       14D-1        0.00046   0.03558  -0.00162   0.00000   0.00000
  81       14D+2       -0.00049   0.00095   0.01362   0.00000   0.00000
  82       14D-2        0.00000   0.00000   0.00000  -0.00212  -0.01982
  83       15F 0        0.06358  -0.00050   0.00789   0.00000   0.00000
  84       15F+1        0.00000   0.00000   0.00000   0.08096  -0.00866
  85       15F-1       -0.00186   0.00487  -0.00135   0.00000   0.00000
  86       15F+2        0.00206  -0.00009   0.00974   0.00000   0.00000
  87       15F-2        0.00000   0.00000   0.00000  -0.00796  -0.09705
  88       15F+3        0.00000   0.00000   0.00000  -0.06194   0.00476
  89       15F-3       -0.00015  -0.01440   0.00019   0.00000   0.00000
  90       16F 0        0.00511  -0.00026   0.00740   0.00000   0.00000
  91       16F+1        0.00000   0.00000   0.00000  -0.08081   0.00678
  92       16F-1       -0.00024   0.04086  -0.00037   0.00000   0.00000
  93       16F+2        0.00031   0.00043   0.00821   0.00000   0.00000
  94       16F-2        0.00000   0.00000   0.00000   0.00157   0.01129
  95       16F+3        0.00000   0.00000   0.00000  -0.01429   0.00139
  96       16F-3       -0.00002   0.01746  -0.00052   0.00000   0.00000
  97 3   H  1S          0.00948   0.01741   0.14354   0.00000   0.00000
  98        2S          0.04890   0.26087  -0.10206   0.00000   0.00000
  99        3S         -0.30414  -1.35360   0.15934   0.00000   0.00000
 100        4S         -0.02081  -0.12732   0.00597   0.00000   0.00000
 101        5PX         0.00000   0.00000   0.00000  -0.00900  -0.09297
 102        5PY        -0.01685  -0.01366   0.02474   0.00000   0.00000
 103        5PZ         0.02959  -0.00371   0.06114   0.00000   0.00000
 104        6PX         0.00000   0.00000   0.00000  -0.10752  -0.19891
 105        6PY        -0.00620   0.08249  -0.01579   0.00000   0.00000
 106        6PZ         0.06815   0.15624   0.02906   0.00000   0.00000
 107        7PX         0.00000   0.00000   0.00000  -0.02364  -0.01259
 108        7PY        -0.02964  -0.24859  -0.02312   0.00000   0.00000
 109        7PZ        -0.04785  -0.10102   0.11384   0.00000   0.00000
 110        8D 0        0.01231  -0.00146   0.01288   0.00000   0.00000
 111        8D+1        0.00000   0.00000   0.00000  -0.00069  -0.03453
 112        8D-1        0.01214  -0.00058   0.02122   0.00000   0.00000
 113        8D+2        0.01285  -0.00047  -0.00653   0.00000   0.00000
 114        8D-2        0.00000   0.00000   0.00000  -0.00850  -0.05017
 115        9D 0       -0.00648   0.00485  -0.00038   0.00000   0.00000
 116        9D+1        0.00000   0.00000   0.00000  -0.03849   0.01539
 117        9D-1        0.01821   0.05331   0.00635   0.00000   0.00000
 118        9D+2       -0.00444  -0.02270  -0.01114   0.00000   0.00000
 119        9D-2        0.00000   0.00000   0.00000  -0.02928  -0.02128
 120 4   H  1S          0.01031  -0.01536   0.14409   0.00000   0.00000
 121        2S          0.06526  -0.26699  -0.10879   0.00000   0.00000
 122        3S         -0.30714   1.39092   0.09688   0.00000   0.00000
 123        4S         -0.02064   0.12944   0.00285   0.00000   0.00000
 124        5PX         0.00000   0.00000   0.00000   0.00734   0.09509
 125        5PY         0.01981  -0.01498  -0.02248   0.00000   0.00000
 126        5PZ         0.02921   0.00599   0.06181   0.00000   0.00000
 127        6PX         0.00000   0.00000   0.00000  -0.07734   0.21586
 128        6PY         0.00892   0.08263   0.02090   0.00000   0.00000
 129        6PZ         0.07539  -0.15675   0.03628   0.00000   0.00000
 130        7PX         0.00000   0.00000   0.00000  -0.02020   0.01711
 131        7PY         0.03136  -0.25446   0.04225   0.00000   0.00000
 132        7PZ        -0.05115   0.10640   0.11255   0.00000   0.00000
 133        8D 0        0.01329   0.00193   0.01384   0.00000   0.00000
 134        8D+1        0.00000   0.00000   0.00000   0.00539   0.03527
 135        8D-1       -0.01169  -0.00192  -0.02043   0.00000   0.00000
 136        8D+2        0.01419   0.00001  -0.00578   0.00000   0.00000
 137        8D-2        0.00000   0.00000   0.00000   0.00045  -0.05044
 138        9D 0       -0.00545  -0.00531   0.00138   0.00000   0.00000
 139        9D+1        0.00000   0.00000   0.00000  -0.04215  -0.00860
 140        9D-1       -0.01979   0.05039  -0.00840   0.00000   0.00000
 141        9D+2       -0.00354   0.02283  -0.01062   0.00000   0.00000
 142        9D-2        0.00000   0.00000   0.00000   0.02685  -0.02658
                          26        27        28        29        30
     Eigenvalues --     0.00601   0.00489   0.00464   0.00354   0.00234
   1 1   C  1S          0.03563   0.00263   0.13059   0.00000  -0.01409
   2        2S         -0.11813  -0.00779  -0.52379   0.00000   0.07858
   3        3S         -0.12200  -0.00730  -0.42119   0.00000   0.03943
   4        4S          0.32468  -0.06073  -0.79821   0.00000   0.91999
   5        5S          0.08662  -0.02296  -0.38133   0.00000   0.28450
   6        6PX         0.00000   0.00000   0.00000   0.12409   0.00000
   7        6PY        -0.00114  -0.05930   0.00288   0.00000  -0.00068
   8        6PZ         0.21692  -0.00870  -0.39360   0.00000   0.03875
   9        7PX         0.00000   0.00000   0.00000   0.11520   0.00000
  10        7PY        -0.00263   0.08591   0.00238   0.00000   0.00878
  11        7PZ         0.27451  -0.01020  -0.47130   0.00000   0.11665
  12        8PX         0.00000   0.00000   0.00000   0.43432   0.00000
  13        8PY        -0.02284   0.29393  -0.00010   0.00000  -0.07527
  14        8PZ         0.62364  -0.00847  -0.23242   0.00000  -0.08557
  15        9PX         0.00000   0.00000   0.00000   0.02185   0.00000
  16        9PY        -0.00149   0.00386  -0.00066   0.00000  -0.00222
  17        9PZ         0.04614  -0.00176  -0.09362   0.00000   0.01220
  18       10D 0        0.01843  -0.00264  -0.18663   0.00000   0.06954
  19       10D+1        0.00000   0.00000   0.00000   0.32612   0.00000
  20       10D-1        0.00419   0.27402  -0.00279   0.00000   0.00669
  21       10D+2        0.20089  -0.00404   0.05914   0.00000  -0.16244
  22       10D-2        0.00000   0.00000   0.00000  -0.00244   0.00000
  23       11D 0        0.10752  -0.00376  -0.36404   0.00000   0.05316
  24       11D+1        0.00000   0.00000   0.00000   0.60419   0.00000
  25       11D-1        0.01055   0.56582  -0.01139   0.00000   0.00446
  26       11D+2        0.44046  -0.00370   0.07280   0.00000  -0.36665
  27       11D-2        0.00000   0.00000   0.00000   0.00113   0.00000
  28       12D 0        0.20108  -0.00187   0.20023   0.00000  -0.26922
  29       12D+1        0.00000   0.00000   0.00000   0.13047   0.00000
  30       12D-1        0.00656   0.36355  -0.01438   0.00000   0.02519
  31       12D+2        0.11232   0.00238   0.10604   0.00000  -0.29040
  32       12D-2        0.00000   0.00000   0.00000   0.00086   0.00000
  33       13F 0       -0.02996  -0.00009  -0.06139   0.00000  -0.10328
  34       13F+1        0.00000   0.00000   0.00000  -0.01433   0.00000
  35       13F-1       -0.00123  -0.05982   0.00275   0.00000   0.00585
  36       13F+2       -0.01700  -0.00084  -0.02850   0.00000  -0.19499
  37       13F-2        0.00000   0.00000   0.00000   0.00058   0.00000
  38       13F+3        0.00000   0.00000   0.00000   0.05898   0.00000
  39       13F-3       -0.00032   0.01146   0.00053   0.00000  -0.00058
  40       14F 0       -0.10388  -0.00098  -0.11718   0.00000  -0.11006
  41       14F+1        0.00000   0.00000   0.00000   0.04665   0.00000
  42       14F-1       -0.00502  -0.00786   0.00625   0.00000  -0.00010
  43       14F+2       -0.05711  -0.00244  -0.08773   0.00000  -0.19926
  44       14F-2        0.00000   0.00000   0.00000  -0.00158   0.00000
  45       14F+3        0.00000   0.00000   0.00000   0.02251   0.00000
  46       14F-3       -0.00095   0.05204   0.00046   0.00000   0.00180
  47 2   S  1S          0.05118  -0.00049   0.00487   0.00000   0.00619
  48        2S         -0.16165   0.00177  -0.01712   0.00000  -0.02581
  49        3S          0.69787  -0.00694   0.05165   0.00000   0.11376
  50        4S          0.50813  -0.00746  -0.01893   0.00000   0.16401
  51        5S         -2.01318   0.05603   0.68702   0.00000  -0.31713
  52        6S         -0.36441   0.02259   0.69411   0.00000  -0.23192
  53        7PX         0.00000   0.00000   0.00000   0.17174   0.00000
  54        7PY        -0.00096  -0.06451   0.00081   0.00000   0.00124
  55        7PZ        -0.17344   0.00388  -0.00416   0.00000  -0.07983
  56        8PX         0.00000   0.00000   0.00000  -0.28728   0.00000
  57        8PY         0.00249  -0.03172   0.00186   0.00000   0.00495
  58        8PZ         0.23093  -0.01422  -0.35468   0.00000  -0.03313
  59        9PX         0.00000   0.00000   0.00000  -0.34042   0.00000
  60        9PY         0.00250   0.16223  -0.00228   0.00000  -0.00324
  61        9PZ         0.34263  -0.00721   0.03265   0.00000   0.16744
  62       10PX         0.00000   0.00000   0.00000  -0.01898   0.00000
  63       10PY        -0.01927  -0.97988   0.02516   0.00000  -0.00269
  64       10PZ         0.30835  -0.02899  -0.99384   0.00000   0.35538
  65       11PX         0.00000   0.00000   0.00000  -0.00223   0.00000
  66       11PY        -0.00130  -0.06327   0.00207   0.00000  -0.00087
  67       11PZ         0.02075  -0.00346  -0.10212   0.00000   0.04288
  68       12D 0       -0.18995   0.01946   0.66757   0.00000  -0.13589
  69       12D+1        0.00000   0.00000   0.00000   0.45837   0.00000
  70       12D-1        0.00834   0.46314  -0.01437   0.00000  -0.00261
  71       12D+2       -0.04240   0.00418  -0.04513   0.00000   0.14473
  72       12D-2        0.00000   0.00000   0.00000  -0.00368   0.00000
  73       13D 0       -0.14065   0.01180   0.38239   0.00000  -0.03131
  74       13D+1        0.00000   0.00000   0.00000   0.31008   0.00000
  75       13D-1        0.00864   0.33209  -0.00873   0.00000  -0.00421
  76       13D+2       -0.14780   0.00388  -0.08859   0.00000   0.17941
  77       13D-2        0.00000   0.00000   0.00000  -0.00310   0.00000
  78       14D 0       -0.09685   0.00866   0.28969   0.00000  -0.11361
  79       14D+1        0.00000   0.00000   0.00000   0.11078   0.00000
  80       14D-1        0.00441   0.23526  -0.00831   0.00000   0.00672
  81       14D+2        0.01855   0.00090  -0.00503   0.00000   0.03670
  82       14D-2        0.00000   0.00000   0.00000  -0.00096   0.00000
  83       15F 0       -0.01579   0.00493   0.15191   0.00000   0.13523
  84       15F+1        0.00000   0.00000   0.00000   0.10539   0.00000
  85       15F-1        0.00357   0.16500  -0.00452   0.00000   0.00228
  86       15F+2       -0.05985   0.00266  -0.04221   0.00000   0.37919
  87       15F-2        0.00000   0.00000   0.00000  -0.00225   0.00000
  88       15F+3        0.00000   0.00000   0.00000   0.01720   0.00000
  89       15F-3        0.00000  -0.01628   0.00056   0.00000  -0.00263
  90       16F 0        0.03772  -0.00341  -0.11083   0.00000   0.07453
  91       16F+1        0.00000   0.00000   0.00000  -0.08159   0.00000
  92       16F-1       -0.00177  -0.07003   0.00370   0.00000  -0.00167
  93       16F+2        0.01274  -0.00188  -0.03194   0.00000   0.04940
  94       16F-2        0.00000   0.00000   0.00000   0.00083   0.00000
  95       16F+3        0.00000   0.00000   0.00000  -0.01771   0.00000
  96       16F-3       -0.00002  -0.00808   0.00052   0.00000   0.00007
  97 3   H  1S         -0.09805   0.21861  -0.09070   0.00000  -0.30565
  98        2S          0.39783  -0.25986   0.05902   0.00000  -0.14361
  99        3S          0.42446  -0.72207   0.07359   0.00000  -0.22370
 100        4S          0.00944  -0.01913  -0.01762   0.00000  -0.01350
 101        5PX         0.00000   0.00000   0.00000  -0.09163   0.00000
 102        5PY        -0.02973   0.10243  -0.03143   0.00000  -0.03779
 103        5PZ        -0.05940   0.00455   0.02573   0.00000  -0.01737
 104        6PX         0.00000   0.00000   0.00000  -0.13398   0.00000
 105        6PY         0.05986   0.08285  -0.05952   0.00000  -0.00937
 106        6PZ         0.00794  -0.05366   0.03666   0.00000  -0.07984
 107        7PX         0.00000   0.00000   0.00000  -0.00741   0.00000
 108        7PY         0.01773  -0.05837  -0.09171   0.00000   0.11098
 109        7PZ         0.11972   0.03438   0.08827   0.00000  -0.13719
 110        8D 0       -0.01486  -0.02179   0.00737   0.00000   0.00091
 111        8D+1        0.00000   0.00000   0.00000  -0.01517   0.00000
 112        8D-1       -0.01841   0.01245   0.00690   0.00000  -0.02232
 113        8D+2        0.01083  -0.03022   0.02032   0.00000   0.00708
 114        8D-2        0.00000   0.00000   0.00000  -0.05059   0.00000
 115        9D 0       -0.00409  -0.01967  -0.01772   0.00000  -0.01137
 116        9D+1        0.00000   0.00000   0.00000   0.00043   0.00000
 117        9D-1        0.01682   0.02273   0.01246   0.00000  -0.00165
 118        9D+2        0.02479  -0.03122   0.03333   0.00000  -0.01192
 119        9D-2        0.00000   0.00000   0.00000   0.01114   0.00000
 120 4   H  1S         -0.10548  -0.22784  -0.08878   0.00000  -0.28579
 121        2S          0.42905   0.28439   0.04366   0.00000  -0.11941
 122        3S          0.49791   0.73034   0.02185   0.00000  -0.06689
 123        4S          0.01338   0.02055  -0.01683   0.00000  -0.00974
 124        5PX         0.00000   0.00000   0.00000  -0.09635   0.00000
 125        5PY         0.03138   0.10279   0.02964   0.00000   0.03403
 126        5PZ        -0.06043  -0.00324   0.02540   0.00000  -0.01720
 127        6PX         0.00000   0.00000   0.00000  -0.13678   0.00000
 128        6PY        -0.06273   0.08107   0.06751   0.00000   0.01085
 129        6PZ         0.01152   0.05671   0.04088   0.00000  -0.08611
 130        7PX         0.00000   0.00000   0.00000  -0.00883   0.00000
 131        7PY        -0.02830  -0.05533   0.10629   0.00000  -0.15612
 132        7PZ         0.12880  -0.03701   0.09740   0.00000  -0.13487
 133        8D 0       -0.01503   0.02191   0.00772   0.00000   0.00218
 134        8D+1        0.00000   0.00000   0.00000  -0.01623   0.00000
 135        8D-1        0.01793   0.01255  -0.00750   0.00000   0.02227
 136        8D+2        0.01135   0.02952   0.02053   0.00000   0.00763
 137        8D-2        0.00000   0.00000   0.00000   0.05188   0.00000
 138        9D 0       -0.00452   0.01911  -0.01690   0.00000  -0.01471
 139        9D+1        0.00000   0.00000   0.00000  -0.00035   0.00000
 140        9D-1       -0.01636   0.02294  -0.01431   0.00000   0.00201
 141        9D+2        0.02523   0.03240   0.03342   0.00000  -0.01136
 142        9D-2        0.00000   0.00000   0.00000  -0.01104   0.00000
                          31        32        33        34        35
     Eigenvalues --     0.00208   0.00195   0.00194   0.00185   0.00154
   1 1   C  1S          0.00417   0.00000   0.04354  -0.00424   0.00000
   2        2S         -0.01589   0.00000  -0.19023   0.01897   0.00000
   3        3S         -0.01635   0.00000  -0.18166   0.01822   0.00000
   4        4S          0.00478   0.00000   0.08988  -0.04112   0.00000
   5        5S          0.00213   0.00000   0.00634  -0.00415   0.00000
   6        6PX         0.00000  -0.00428   0.00000   0.00000  -0.34135
[...]
 137        8D-2        0.00000   0.00000   0.17565   0.00000   0.00000
 138        9D 0        0.45719   1.04396   0.00000   0.36837   1.34938
 139        9D+1        0.00000   0.00000  -0.01929   0.00000   0.00000
 140        9D-1       -0.62474  -0.21810   0.00000  -1.21424  -0.29496
 141        9D+2       -0.25821   0.11977   0.00000   0.50007   1.33193
 142        9D-2        0.00000   0.00000  -1.16046   0.00000   0.00000
                         136       137       138       139       140
     Eigenvalues --     0.00000   0.00000   0.00000   0.00000   0.00000
   1 1   C  1S         -0.00796   0.41852   0.00000  -0.07345  -0.07858
   2        2S         -0.04468   2.45412   0.00000  -0.39592  -0.44211
   3        3S          0.00822  -0.09989   0.00000   0.05386   0.02072
   4        4S         -0.27743  25.62237   0.00000 -17.68969  -3.44902
   5        5S         -0.44882  16.70874   0.00000  -2.43336   4.70416
   6        6PX         0.00000   0.00000  -0.02077   0.00000   0.00000
   7        6PY        -0.04129  -0.00129   0.00000   0.00071   0.00016
   8        6PZ        -0.00341   0.05406   0.00000   0.01804   0.01115
   9        7PX         0.00000   0.00000   0.35592   0.00000   0.00000
  10        7PY         2.90550   0.38233   0.00000  -0.02673  -0.02446
  11        7PZ         0.02228  -2.08234   0.00000   0.28560   0.32613
  12        8PX         0.00000   0.00000   0.00500   0.00000   0.00000
  13        8PY        16.80687   1.42609   0.00000  -0.14787  -0.11750
  14        8PZ         0.55832  -8.25082   0.00000   0.41908   9.11128
  15        9PX         0.00000   0.00000  -2.90420   0.00000   0.00000
  16        9PY         6.50868   0.33082   0.00000  -0.05897  -0.02813
  17        9PZ         0.05953  -0.78730   0.00000  -1.74353   5.75181
  18       10D 0        0.00017   0.00069   0.00000   0.00306  -0.01205
  19       10D+1        0.00000   0.00000  -0.00038   0.00000   0.00000
  20       10D-1       -0.08402  -0.01438   0.00000   0.00003   0.00084
  21       10D+2        0.00465  -0.14566   0.00000   0.00856   0.01163
  22       10D-2        0.00000   0.00000   0.00129   0.00000   0.00000
  23       11D 0       -0.02623   0.10391   0.00000  -0.29557   0.23238
  24       11D+1        0.00000   0.00000  -0.28512   0.00000   0.00000
  25       11D-1       -1.76434  -0.23343   0.00000   0.01027   0.01625
  26       11D+2       -0.01590  -1.19500   0.00000   0.52189   0.32925
  27       11D-2        0.00000   0.00000  -0.00894   0.00000   0.00000
  28       12D 0       -0.33026   3.85498   0.00000   0.82947   1.84884
  29       12D+1        0.00000   0.00000  -2.65829   0.00000   0.00000
  30       12D-1       -7.06321  -0.41680   0.00000  -0.06294  -0.01318
  31       12D+2       -0.17648   0.81643   0.00000   0.98765   0.97316
  32       12D-2        0.00000   0.00000   0.01275   0.00000   0.00000
  33       13F 0       -0.00889   0.09449   0.00000   0.01601  -0.00254
  34       13F+1        0.00000   0.00000   0.01526   0.00000   0.00000
  35       13F-1        0.06624   0.00215   0.00000  -0.00020   0.00041
  36       13F+2       -0.00215   0.13391   0.00000  -0.02650  -0.01788
  37       13F-2        0.00000   0.00000  -0.00001   0.00000   0.00000
  38       13F+3        0.00000   0.00000  -0.00483   0.00000   0.00000
  39       13F-3       -0.06909  -0.00894   0.00000  -0.00098   0.00007
  40       14F 0        0.06630  -0.17550   0.00000  -0.62079  -0.02333
  41       14F+1        0.00000   0.00000   0.02548   0.00000   0.00000
  42       14F-1       -0.36391   0.02057   0.00000   0.01329  -0.01120
  43       14F+2        0.00770   0.26143   0.00000  -0.24278  -0.11022
  44       14F-2        0.00000   0.00000   0.00296   0.00000   0.00000
  45       14F+3        0.00000   0.00000  -0.01835   0.00000   0.00000
  46       14F-3       -0.16576  -0.00949   0.00000   0.00797   0.00133
  47 2   S  1S         -0.00110   0.01502   0.00000   0.01320   0.00273
  48        2S         -0.01443   0.19817   0.00000   0.20514   0.02022
  49        3S         -0.04666   0.62641   0.00000   0.57815   0.10699
  50        4S         -0.00755   0.03018   0.00000  -0.08679   0.10206
  51        5S         -0.00428  -2.91845   0.00000   1.96914  -5.67540
  52        6S          0.26995  -9.82686   0.00000  -2.55736 -16.02393
  53        7PX         0.00000   0.00000   0.00380   0.00000   0.00000
  54        7PY        -0.00621  -0.00031   0.00000  -0.00006   0.00007
  55        7PZ         0.00098  -0.00300   0.00000  -0.04207  -0.00478
  56        8PX         0.00000   0.00000  -0.02313   0.00000   0.00000
  57        8PY        -0.08419  -0.00578   0.00000   0.00224   0.00153
  58        8PZ         0.03874  -0.23129   0.00000  -1.04097   0.03967
  59        9PX         0.00000   0.00000  -0.01899   0.00000   0.00000
  60        9PY         0.03185   0.00160   0.00000   0.00056  -0.00016
  61        9PZ         0.00405  -0.03327   0.00000   0.08570   0.02906
  62       10PX         0.00000   0.00000   2.17477   0.00000   0.00000
  63       10PY         4.10692   0.14373   0.00000   0.05792  -0.02315
  64       10PZ        -0.00452   3.85807   0.00000   0.38199   6.64082
  65       11PX         0.00000   0.00000   2.74497   0.00000   0.00000
  66       11PY        -0.57351  -0.02647   0.00000   0.00954  -0.01789
  67       11PZ        -0.09290   2.85647   0.00000   2.73478   2.27320
  68       12D 0        0.00480  -0.31145   0.00000   0.67920  -0.29755
  69       12D+1        0.00000   0.00000   0.12311   0.00000   0.00000
  70       12D-1       -0.30567  -0.00606   0.00000  -0.00820  -0.00166
  71       12D+2        0.00204  -0.05679   0.00000   0.02149  -0.02313
  72       12D-2        0.00000   0.00000  -0.00183   0.00000   0.00000
  73       13D 0       -0.00305   0.06387   0.00000  -0.05045   0.02447
  74       13D+1        0.00000   0.00000  -0.04633   0.00000   0.00000
  75       13D-1       -0.00723  -0.00299   0.00000   0.00073   0.00015
  76       13D+2       -0.00166   0.01640   0.00000   0.00133   0.00830
  77       13D-2        0.00000   0.00000   0.00056   0.00000   0.00000
  78       14D 0        0.00649  -1.47905   0.00000  -1.16693  -1.53429
  79       14D+1        0.00000   0.00000  -1.87564   0.00000   0.00000
  80       14D-1       -1.90976  -0.06012   0.00000  -0.01518   0.00611
  81       14D+2       -0.00954   0.21111   0.00000   0.22035  -0.05477
  82       14D-2        0.00000   0.00000   0.01316   0.00000   0.00000
  83       15F 0        0.00027  -0.05843   0.00000  -0.03531  -0.01645
  84       15F+1        0.00000   0.00000  -0.02622   0.00000   0.00000
  85       15F-1        0.00393   0.00468   0.00000   0.00026  -0.00023
  86       15F+2        0.00018   0.01161   0.00000   0.01328  -0.00912
  87       15F-2        0.00000   0.00000   0.00041   0.00000   0.00000
  88       15F+3        0.00000   0.00000   0.00444   0.00000   0.00000
  89       15F-3        0.02825   0.00023   0.00000  -0.00056   0.00024
  90       16F 0       -0.01216   0.38439   0.00000  -0.01277   0.13671
  91       16F+1        0.00000   0.00000   0.23017   0.00000   0.00000
  92       16F-1        0.28803   0.00106   0.00000   0.00186   0.00149
  93       16F+2        0.00565  -0.12650   0.00000  -0.11759   0.03900
  94       16F-2        0.00000   0.00000  -0.00247   0.00000   0.00000
  95       16F+3        0.00000   0.00000  -0.01540   0.00000   0.00000
  96       16F-3       -0.08099  -0.00044   0.00000   0.00149  -0.00107
  97 3   H  1S         -0.05357   0.09727   0.00000  -0.01996  -0.01582
  98        2S          3.58168  -3.24414   0.00000   1.45599   0.87110
  99        3S         29.69838  -9.11468   0.00000   9.14397   7.96256
 100        4S          5.28319  -0.99808   0.00000   0.54236   2.09239
 101        5PX         0.00000   0.00000   0.07534   0.00000   0.00000
 102        5PY        -0.12317   0.06068   0.00000  -0.03622  -0.02862
 103        5PZ        -0.07453   0.04168   0.00000   0.00207  -0.01739
 104        6PX         0.00000   0.00000  -0.39439   0.00000   0.00000
 105        6PY         1.82377  -1.82665   0.00000   0.63532   0.40436
 106        6PZ         1.38193  -0.81548   0.00000   0.36106   0.24421
 107        7PX         0.00000   0.00000  -0.94869   0.00000   0.00000
 108        7PY         5.44485  -4.35464   0.00000   2.02719   1.64816
 109        7PZ         3.15559   2.60193   0.00000   3.66374   1.08453
 110        8D 0       -0.02967  -0.03312   0.00000  -0.01333   0.00932
 111        8D+1        0.00000   0.00000  -0.00581   0.00000   0.00000
 112        8D-1        0.05453  -0.15846   0.00000  -0.02224   0.01205
 113        8D+2       -0.12358   0.11532   0.00000   0.01490  -0.01520
 114        8D-2        0.00000   0.00000   0.07536   0.00000   0.00000
 115        9D 0        0.16691   0.47205   0.00000  -0.01605  -0.07253
 116        9D+1        0.00000   0.00000   0.01636   0.00000   0.00000
 117        9D-1        0.85504   0.05287   0.00000   0.53523   0.09041
 118        9D+2        0.04278   0.54623   0.00000  -0.16689  -0.05851
 119        9D-2        0.00000   0.00000  -0.51022   0.00000   0.00000
 120 4   H  1S          0.04745   0.10490   0.00000  -0.01827  -0.01744
 121        2S         -3.75034  -4.25924   0.00000   1.53761   0.97338
 122        3S        -29.17853 -14.59672   0.00000   9.49903   8.25782
 123        4S         -5.22796  -1.62474   0.00000   0.63895   2.16256
 124        5PX         0.00000   0.00000   0.07654   0.00000   0.00000
 125        5PY        -0.10270  -0.07377   0.00000   0.03332   0.02726
 126        5PZ         0.07419   0.04098   0.00000  -0.00102  -0.01601
 127        6PX         0.00000   0.00000  -0.39593   0.00000   0.00000
 128        6PY         1.65932   2.30922   0.00000  -0.62334  -0.42636
 129        6PZ        -1.44630  -1.07230   0.00000   0.41513   0.24969
 130        7PX         0.00000   0.00000  -0.97255   0.00000   0.00000
 131        7PY         4.56155   5.72573   0.00000  -2.01867  -1.67682
 132        7PZ        -3.70866   2.07230   0.00000   3.88925   1.10848
 133        8D 0        0.03706  -0.03681   0.00000  -0.01536   0.01012
 134        8D+1        0.00000   0.00000  -0.00660   0.00000   0.00000
 135        8D-1        0.04691   0.18569   0.00000   0.02287  -0.01500
 136        8D+2        0.12560   0.12817   0.00000   0.01385  -0.01604
 137        8D-2        0.00000   0.00000  -0.07249   0.00000   0.00000
 138        9D 0       -0.26068   0.52020   0.00000   0.01796  -0.07985
 139        9D+1        0.00000   0.00000   0.02340   0.00000   0.00000
 140        9D-1        0.87706   0.06928   0.00000  -0.55494  -0.07966
 141        9D+2       -0.19821   0.64944   0.00000  -0.15108  -0.06112
 142        9D-2        0.00000   0.00000   0.50221   0.00000   0.00000
                         141       142
     Eigenvalues --     0.00000   0.00000
   1 1   C  1S         -0.00218  -0.00301
   2        2S         -0.00854  -0.00498
   3        3S          0.01023   0.04487
   4        4S          1.65980   7.93167
   5        5S          3.59829  15.68352
   6        6PX         0.00000   0.00000
   7        6PY        -0.00779   0.00131
   8        6PZ         0.00081   0.00380
   9        7PX         0.00000   0.00000
  10        7PY        -0.15653   0.04652
  11        7PZ        -0.01615  -0.06738
  12        8PX         0.00000   0.00000
  13        8PY        -4.98724   1.02219
  14        8PZ         0.29532   1.10778
  15        9PX         0.00000   0.00000
  16        9PY        -5.15184   1.11232
  17        9PZ         0.30495   1.15987
  18       10D 0        0.00228   0.00912
  19       10D+1        0.00000   0.00000
  20       10D-1       -0.01467   0.00223
  21       10D+2       -0.00316  -0.01232
  22       10D-2        0.00000   0.00000
  23       11D 0       -0.02091  -0.08192
  24       11D+1        0.00000   0.00000
  25       11D-1        0.12360  -0.03570
  26       11D+2        0.00403   0.01836
  27       11D-2        0.00000   0.00000
  28       12D 0        0.14616   0.40257
  29       12D+1        0.00000   0.00000
  30       12D-1       -0.90893   0.15769
  31       12D+2       -0.08323  -0.35997
  32       12D-2        0.00000   0.00000
  33       13F 0       -0.00283  -0.01163
  34       13F+1        0.00000   0.00000
  35       13F-1        0.00455  -0.00109
  36       13F+2       -0.00175  -0.00492
  37       13F-2        0.00000   0.00000
  38       13F+3        0.00000   0.00000
  39       13F-3        0.00369  -0.00127
  40       14F 0        0.00491   0.02187
  41       14F+1        0.00000   0.00000
  42       14F-1       -0.09205   0.02275
  43       14F+2       -0.01029  -0.04520
  44       14F-2        0.00000   0.00000
  45       14F+3        0.00000   0.00000
  46       14F-3       -0.01253   0.00358
  47 2   S  1S          0.00068   0.00297
  48        2S          0.01034   0.04601
  49        3S          0.02954   0.12984
  50        4S         -0.00285  -0.01447
  51        5S         -0.47352  -1.68452
  52        6S         -2.02172  -8.45809
  53        7PX         0.00000   0.00000
  54        7PY        -0.00550   0.00135
  55        7PZ        -0.00051  -0.00277
  56        8PX         0.00000   0.00000
  57        8PY        -0.04713   0.01248
  58        8PZ        -0.00716  -0.04406
  59        9PX         0.00000   0.00000
  60        9PY         0.02384  -0.00577
  61        9PZ         0.00247   0.01178
  62       10PX         0.00000   0.00000
  63       10PY         1.25886  -0.27149
  64       10PZ         0.54741   2.23153
  65       11PX         0.00000   0.00000
  66       11PY         0.51038  -0.12650
  67       11PZ         0.51173   2.24587
  68       12D 0       -0.01139  -0.04369
  69       12D+1        0.00000   0.00000
  70       12D-1       -0.07933   0.01590
  71       12D+2        0.00757   0.03351
  72       12D-2        0.00000   0.00000
  73       13D 0        0.00199   0.00693
  74       13D+1        0.00000   0.00000
  75       13D-1        0.00208  -0.00039
  76       13D+2       -0.00195  -0.00769
  77       13D-2        0.00000   0.00000
  78       14D 0       -0.14259  -0.61665
  79       14D+1        0.00000   0.00000
  80       14D-1       -0.43155   0.09809
  81       14D+2       -0.02641  -0.07563
  82       14D-2        0.00000   0.00000
  83       15F 0       -0.00377  -0.01478
  84       15F+1        0.00000   0.00000
  85       15F-1       -0.00035   0.00033
  86       15F+2       -0.00141  -0.00605
  87       15F-2        0.00000   0.00000
  88       15F+3        0.00000   0.00000
  89       15F-3       -0.00343   0.00067
  90       16F 0        0.01446   0.06266
  91       16F+1        0.00000   0.00000
  92       16F-1        0.03595  -0.00879
  93       16F+2        0.00473   0.01216
  94       16F-2        0.00000   0.00000
  95       16F+3        0.00000   0.00000
  96       16F-3        0.02100  -0.00382
  97 3   H  1S         -0.01635  -0.01083
  98        2S          0.01532   0.19951
  99        3S         -9.16297  -2.99827
 100        4S         -8.50457  -0.59708
 101        5PX         0.00000   0.00000
 102        5PY         0.02272   0.00342
 103        5PZ         0.00956   0.01416
 104        6PX         0.00000   0.00000
 105        6PY        -0.27156  -0.02665
 106        6PZ        -0.11728  -0.12937
 107        7PX         0.00000   0.00000
 108        7PY        -2.79058  -0.60122
 109        7PZ        -2.44476  -0.51170
 110        8D 0        0.00890   0.00503
 111        8D+1        0.00000   0.00000
 112        8D-1        0.01466   0.00992
 113        8D+2       -0.02578   0.00395
 114        8D-2        0.00000   0.00000
 115        9D 0       -0.02593  -0.04564
 116        9D+1        0.00000   0.00000
 117        9D-1       -0.22979  -0.15695
 118        9D+2        0.25397   0.02168
 119        9D-2        0.00000   0.00000
 120 4   H  1S          0.01030  -0.01452
 121        2S          0.08244   0.14297
 122        3S          7.17452  -6.55207
 123        4S          7.46565  -4.17094
 124        5PX         0.00000   0.00000
 125        5PY         0.01842  -0.01241
 126        5PZ        -0.00184   0.01611
 127        6PX         0.00000   0.00000
 128        6PY        -0.22945   0.15251
 129        6PZ         0.04913  -0.16837
 130        7PX         0.00000   0.00000
 131        7PY        -2.25375   1.66923
 132        7PZ         2.10954  -1.44323
 133        8D 0       -0.00575   0.00734
 134        8D+1        0.00000   0.00000
 135        8D-1        0.00988  -0.01193
 136        8D+2        0.02495  -0.00520
 137        8D-2        0.00000   0.00000
 138        9D 0        0.00847  -0.04332
 139        9D+1        0.00000   0.00000
 140        9D-1       -0.14170   0.23028
 141        9D+2       -0.21352   0.12130
 142        9D-2        0.00000   0.00000
          Condensed to atoms (all electrons):
              1          2          3          4
     1  C    6.184898   0.274368   0.189017   0.177647
     2  S    0.274368  16.028283  -0.118517  -0.118659
     3  H    0.189017  -0.118517   0.654898  -0.160188
     4  H    0.177647  -0.118659  -0.160188   0.644585
 Mulliken atomic charges:
              1
     1  C   -0.825930
     2  S   -0.065475
     3  H    0.434790
     4  H    0.456615
 Sum of Mulliken atomic charges =   0.00000
 Mulliken charges with hydrogens summed into heavy atoms:
              1
     1  C    0.065475
     2  S   -0.065475
 Sum of Mulliken charges with hydrogens summed into heavy atoms =   0.00000
 Electronic spatial extent (au):  <R**2>=            130.2881
 Charge=              0.0000 electrons
 Dipole moment (field-independent basis, Debye):
    X=              0.0000    Y=              0.0079    Z=             -1.7521  Tot=              1.7521
 Quadrupole moment (field-independent basis, Debye-Ang):
   XX=            -19.9780   YY=            -20.5751   ZZ=            -18.9728
   XY=              0.0000   XZ=              0.0000   YZ=             -0.0478
 Traceless Quadrupole moment (field-independent basis, Debye-Ang):
   XX=             -0.1360   YY=             -0.7331   ZZ=              0.8691
   XY=              0.0000   XZ=              0.0000   YZ=             -0.0478
 Octapole moment (field-independent basis, Debye-Ang**2):
  XXX=              0.0000  YYY=             -0.1365  ZZZ=            -27.6803  XYY=              0.0000
  XXY=             -0.0424  XXZ=             -8.5632  XZZ=              0.0000  YZZ=             -0.0614
  YYZ=            -13.1329  XYZ=              0.0000
 Hexadecapole moment (field-independent basis, Debye-Ang**3):
 XXXX=            -25.3177 YYYY=            -35.1193 ZZZZ=           -127.3641 XXXY=              0.0000
 XXXZ=              0.0000 YYYX=              0.0000 YYYZ=             -0.0030 ZZZX=              0.0000
 ZZZY=             -0.1566 XXYY=            -10.5021 XXZZ=            -25.3326 YYZZ=            -29.5537
 XXYZ=             -0.0122 YYXZ=              0.0000 ZZXY=              0.0000
 N-N= 4.470366796334D+01 E-N=-1.127362719989D+03  KE= 4.368675641586D+02
 1\1\GINC-TRAPISTA\SP\RQCISD-FC\Aug-CC-pVTZ\C1H2S1\BRUNS\17-Nov-2021\0\
 \# qcisd/aug-cc-pvtz nosymm density=current output=wfn\\h2cs-wavefunct
 ion\\0,1\C,0,0.,0.01,-0.555291\S,0,0.,0.,1.060374\H,0,0.,-0.92228,-1.1
 28992\H,0,0.,0.92228,-1.128992\\Version=EM64L-G09RevB.01\HF=-436.55748
 06\MP2=-436.8983552\MP3=-436.9211672\MP4D=-436.9311877\MP4DQ=-436.9195
 239\MP4SDQ=-436.9230071\QCISD=-436.9234121\RMSD=6.253e-09\Dipole=0.,0.
 0031155,-0.689341\Quadrupole=-0.1011282,-0.5450566,0.6461847,0.,0.,-0.
 0355328\PG=CS [SG(C1H2S1)]\\@

 Writing a WFN file to GAUSSIAN.wfn.


 THE SECRET OF SUCCESS IN LIFE IS TO EAT WHAT YOU LIKE, AND LET THE FOOD
 FIGHT IT OUT INSIDE YOU. -- FROM A FORTUNE COOKIE
 Job cpu time:  0 days  0 hours 23 minutes 48.5 seconds.
 File lengths (MBytes):  RWF=   5923 Int=      0 D2E=      0 Chk=      2 Scr=      1
 Normal termination of Gaussian 09 at Wed Nov 17 16:49:46 2021.
