 Entering Gaussian System, Link 0=/home/bruns/programas/chemistry/gaussian/g09/g09
 Input=GAUSSIAN.com
 Output=GAUSSIAN.log
 Initial command:
 /home/bruns/programas/chemistry/gaussian/g09/l1.exe /home/bruns/programas/chemistry/gaussian/work/Gau-25003.inp -scrdir=/home/bruns/programas/chemistry/gaussian/work/
 Entering Link 1 = /home/bruns/programas/chemistry/gaussian/g09/l1.exe PID=     25005.
  
 Copyright (c) 1988,1990,1992,1993,1995,1998,2003,2009,2010,
            Gaussian, Inc.  All Rights Reserved.
  
 This is part of the Gaussian(R) 09 program.  It is based on
 the Gaussian(R) 03 system (copyright 2003, Gaussian, Inc.),
 the Gaussian(R) 98 system (copyright 1998, Gaussian, Inc.),
 the Gaussian(R) 94 system (copyright 1995, Gaussian, Inc.),
 the Gaussian 92(TM) system (copyright 1992, Gaussian, Inc.),
 the Gaussian 90(TM) system (copyright 1990, Gaussian, Inc.),
 the Gaussian 88(TM) system (copyright 1988, Gaussian, Inc.),
 the Gaussian 86(TM) system (copyright 1986, Carnegie Mellon
 University), and the Gaussian 82(TM) system (copyright 1983,
 Carnegie Mellon University). Gaussian is a federally registered
 trademark of Gaussian, Inc.
  
 This software contains proprietary and confidential information,
 including trade secrets, belonging to Gaussian, Inc.
  
 This software is provided under written license and may be
 used, copied, transmitted, or stored only in accord with that
 written license.
  
 The following legend is applicable only to US Government
 contracts under FAR:
  
                    RESTRICTED RIGHTS LEGEND
  
 Use, reproduction and disclosure by the US Government is
 subject to restrictions as set forth in subparagraphs (a)
 and (c) of the Commercial Computer Software - Restricted
 Rights clause in FAR 52.227-19.
  
 Gaussian, Inc.
 340 Quinnipiac St., Bldg. 40, Wallingford CT 06492
  
  
 ---------------------------------------------------------------
 Warning -- This program may not be used in any manner that
 competes with the business of Gaussian, Inc. or will provide
 assistance to any competitor of Gaussian, Inc.  The licensee
 of this program is prohibited from giving any competitor of
 Gaussian, Inc. access to this program.  By using this program,
 the user acknowledges that Gaussian, Inc. is engaged in the
 business of creating and licensing software in the field of
 computational chemistry and represents and warrants to the
 licensee that it is not a competitor of Gaussian, Inc. and that
 it will not use this program in any manner prohibited above.
 ---------------------------------------------------------------
  

 Cite this work as:
 Gaussian 09, Revision B.01,
 M. J. Frisch, G. W. Trucks, H. B. Schlegel, G. E. Scuseria, 
 M. A. Robb, J. R. Cheeseman, G. Scalmani, V. Barone, B. Mennucci, 
 G. A. Petersson, H. Nakatsuji, M. Caricato, X. Li, H. P. Hratchian, 
 A. F. Izmaylov, J. Bloino, G. Zheng, J. L. Sonnenberg, M. Hada, 
 M. Ehara, K. Toyota, R. Fukuda, J. Hasegawa, M. Ishida, T. Nakajima, 
 Y. Honda, O. Kitao, H. Nakai, T. Vreven, J. A. Montgomery, Jr., 
 J. E. Peralta, F. Ogliaro, M. Bearpark, J. J. Heyd, E. Brothers, 
 K. N. Kudin, V. N. Staroverov, T. Keith, R. Kobayashi, J. Normand, 
 K. Raghavachari, A. Rendell, J. C. Burant, S. S. Iyengar, J. Tomasi, 
 M. Cossi, N. Rega, J. M. Millam, M. Klene, J. E. Knox, J. B. Cross, 
 V. Bakken, C. Adamo, J. Jaramillo, R. Gomperts, R. E. Stratmann, 
 O. Yazyev, A. J. Austin, R. Cammi, C. Pomelli, J. W. Ochterski, 
 R. L. Martin, K. Morokuma, V. G. Zakrzewski, G. A. Voth, 
 P. Salvador, J. J. Dannenberg, S. Dapprich, A. D. Daniels, 
 O. Farkas, J. B. Foresman, J. V. Ortiz, J. Cioslowski, 
 and D. J. Fox, Gaussian, Inc., Wallingford CT, 2010.
 
 ******************************************
 Gaussian 09:  EM64L-G09RevB.01 12-Aug-2010
                17-Nov-2021 
 ******************************************
 %nproc=8
 Will use up to    8 processors via shared memory.
 %mem=8GB
 -----------------------------------------------------
 # qcisd/aug-cc-pvtz nosymm density=current output=wfn
 -----------------------------------------------------
 1/30=1,38=1/1;
 2/12=2,15=1,17=6,18=5,40=1/2;
 3/5=16,6=1,7=10,11=9,16=1,25=1,30=1,71=1/1,2,3;
 4//1;
 5/5=2,38=5/2;
 8/6=4,9=120000,10=1/1,4;
 9/5=8,15=1/13;
 11/28=-7,31=1,32=3,42=3/11;
 10/5=6,13=10,31=1/2;
 6/7=2,8=2,9=2,10=2,22=-1,31=1/1;
 99/5=1,6=1100,9=1/99;
 -----------------
 h2cs-wavefunction
 -----------------
 Symbolic Z-matrix:
 Charge =  0 Multiplicity = 1
 C                     0.        0.       -0.55529 
 S                    -0.01      0.        1.06037 
 H                     0.       -0.92228  -1.12899 
 H                     0.        0.92228  -1.12899 
 
                          Input orientation:                          
 ---------------------------------------------------------------------
 Center     Atomic      Atomic             Coordinates (Angstroms)
 Number     Number       Type             X           Y           Z
 ---------------------------------------------------------------------
      1          6           0        0.000000    0.000000   -0.555291
      2         16           0       -0.010000    0.000000    1.060374
      3          1           0        0.000000   -0.922280   -1.128992
      4          1           0        0.000000    0.922280   -1.128992
 ---------------------------------------------------------------------
                    Distance matrix (angstroms):
                    1          2          3          4
     1  C    0.000000
     2  S    1.615696   0.000000
     3  H    1.086155   2.375715   0.000000
     4  H    1.086155   2.375715   1.844560   0.000000
 Symmetry turned off by external request.
 Stoichiometry    CH2S
 Framework group  CS[SG(CS),X(H2)]
 Deg. of freedom     4
 Full point group                 CS      NOp   2
 Rotational constants (GHZ):    294.7620615     17.6281223     16.6333917
 Standard basis: Aug-CC-pVTZ (5D, 7F)
 Integral buffers will be    131072 words long.
 Raffenetti 1 integral format.
 Two-electron integral symmetry is turned off.
   142 basis functions,   240 primitive gaussians,   164 cartesian basis functions
    12 alpha electrons       12 beta electrons
       nuclear repulsion energy        44.7033166369 Hartrees.
 NAtoms=    4 NActive=    4 NUniq=    4 SFac= 1.00D+00 NAtFMM=   50 NAOKFM=F Big=F
 One-electron integrals computed using PRISM.
 NBasis=   142 RedAO= T  NBF=   142
 NBsUse=   142 1.00D-06 NBFU=   142
 Harris functional with IExCor=  205 diagonalized for initial guess.
 ExpMin= 2.53D-02 ExpMax= 3.74D+05 ExpMxC= 1.18D+03 IAcc=3 IRadAn=         0 AccDes= 0.00D+00
 HarFok:  IExCor=  205 AccDes= 0.00D+00 IRadAn=         0 IDoV= 1
 ScaDFX=  1.000000  1.000000  1.000000  1.000000
 FoFCou: FMM=F IPFlag=           0 FMFlag=      100000 FMFlg1=           0
         NFxFlg=           0 DoJE=T BraDBF=F KetDBF=T FulRan=T
         Omega=  0.000000  0.000000  1.000000  0.000000  0.000000 ICntrl=     500 IOpCl=  0
         NMat0=    1 NMatS0=    1 NMatT0=    0 NMatD0=    1 NMtDS0=    0 NMtDT0=    0
         I1Cent=           4 NGrid=           0.
 Symmetry not used in FoFCou.
 Requested convergence on RMS density matrix=1.00D-08 within 128 cycles.
 Requested convergence on MAX density matrix=1.00D-06.
 Requested convergence on             energy=1.00D-06.
 No special actions if energy rises.
 Keep R1 ints in memory in canonical form, NReq=93884347.
 SCF Done:  E(RHF) =  -436.557586630     A.U. after   11 cycles
             Convg  =    0.6209D-08             -V/T =  2.0003
 ExpMin= 2.53D-02 ExpMax= 3.74D+05 ExpMxC= 1.18D+03 IAcc=3 IRadAn=         5 AccDes= 0.00D+00
 HarFok:  IExCor=  205 AccDes= 0.00D+00 IRadAn=         5 IDoV=-2
 ScaDFX=  1.000000  1.000000  1.000000  1.000000
 DSYEVD returned Info=          93 IAlg= 4 N=    46 NDim=    46 NE2=    21473424 trying DSYEV.
 Range of M.O.s used for correlation:     7   142
 NBasis=   142 NAE=    12 NBE=    12 NFC=     6 NFV=     0
 NROrb=    136 NOA=     6 NOB=     6 NVA=   130 NVB=   130

 **** Warning!!: The largest alpha MO coefficient is  0.44111444D+02

 Semi-Direct transformation.
 ModeAB=           2 MOrb=             6 LenV=    1073081967
 LASXX=      7286295 LTotXX=     7286295 LenRXX=     7286295
 LTotAB=     7445736 MaxLAS=    11040480 LenRXY=    11040480
 NonZer=    14572590 LenScr=    22628352 LnRSAI=           0
 LnScr1=           0 LExtra=           0 Total=     40955127
 MaxDsk=          -1 SrtSym=           F ITran=            4
 JobTyp=0 Pass  1:  I=   1 to   6.
 (rs|ai) integrals will be sorted in core.
 Spin components of T(2) and E(2):
     alpha-alpha T2 =       0.1684019269D-01 E2=     -0.3867688390D-01
     alpha-beta  T2 =       0.1052182995D+00 E2=     -0.2635170722D+00
     beta-beta   T2 =       0.1684019269D-01 E2=     -0.3867688390D-01
 ANorm=    0.1067191963D+01
 E2 =    -0.3408708400D+00 EUMP2 =    -0.43689845747040D+03
 R2 and R3 integrals will be kept in memory, NReq=   185320410.
 Iterations=  50 Convergence= 0.100D-07
 Iteration Nr.   1
 **********************
 DD1Dir will call FoFMem   1 times, MxPair=        42
 NAB=    21 NAA=     0 NBB=     0.
 MP4(R+Q)=  0.11663419D-01
 E3=       -0.22811986D-01        EUMP3=      -0.43692126946D+03
 E4(DQ)=    0.16434933D-02        UMP4(DQ)=   -0.43691962596D+03
 E4(SDQ)=  -0.18393883D-02        UMP4(SDQ)=  -0.43692310885D+03
 DE(Corr)= -0.35201941     E(Corr)=     -436.90960604    
 NORM(A)=   0.10738376D+01
 Iteration Nr.   2
 **********************
 DD1Dir will call FoFMem   1 times, MxPair=        42
 NAB=    21 NAA=     0 NBB=     0.
 DE(Corr)= -0.36344102     E(CORR)=     -436.92102765     Delta=-1.14D-02
 NORM(A)=   0.10812053D+01
 Iteration Nr.   3
 **********************
 DD1Dir will call FoFMem   1 times, MxPair=        42
 NAB=    21 NAA=     0 NBB=     0.
 DE(Corr)= -0.36436799     E(CORR)=     -436.92195462     Delta=-9.27D-04
 NORM(A)=   0.10836317D+01
 Iteration Nr.   4
 **********************
 DD1Dir will call FoFMem   1 times, MxPair=        42
 NAB=    21 NAA=     0 NBB=     0.
 DE(Corr)= -0.36569608     E(CORR)=     -436.92328271     Delta=-1.33D-03
 NORM(A)=   0.10846229D+01
 Iteration Nr.   5
 **********************
 DD1Dir will call FoFMem   1 times, MxPair=        42
 NAB=    21 NAA=     0 NBB=     0.
 DE(Corr)= -0.36589363     E(CORR)=     -436.92348026     Delta=-1.98D-04
 NORM(A)=   0.10849844D+01
 Iteration Nr.   6
 **********************
 DD1Dir will call FoFMem   1 times, MxPair=        42
 NAB=    21 NAA=     0 NBB=     0.
 DE(Corr)= -0.36592566     E(CORR)=     -436.92351229     Delta=-3.20D-05
 NORM(A)=   0.10849991D+01
 Iteration Nr.   7
 **********************
 DD1Dir will call FoFMem   1 times, MxPair=        42
 NAB=    21 NAA=     0 NBB=     0.
 DE(Corr)= -0.36592705     E(CORR)=     -436.92351368     Delta=-1.40D-06
 NORM(A)=   0.10850107D+01
 Iteration Nr.   8
 **********************
 DD1Dir will call FoFMem   1 times, MxPair=        42
 NAB=    21 NAA=     0 NBB=     0.
 DE(Corr)= -0.36592409     E(CORR)=     -436.92351072     Delta= 2.96D-06
 NORM(A)=   0.10850098D+01
 Iteration Nr.   9
 **********************
 DD1Dir will call FoFMem   1 times, MxPair=        42
 NAB=    21 NAA=     0 NBB=     0.
 DE(Corr)= -0.36592654     E(CORR)=     -436.92351317     Delta=-2.45D-06
 NORM(A)=   0.10850110D+01
 Iteration Nr.  10
 **********************
 DD1Dir will call FoFMem   1 times, MxPair=        42
 NAB=    21 NAA=     0 NBB=     0.
 DE(Corr)= -0.36592622     E(CORR)=     -436.92351285     Delta= 3.20D-07
 NORM(A)=   0.10850118D+01
 Iteration Nr.  11
 **********************
 DD1Dir will call FoFMem   1 times, MxPair=        42
 NAB=    21 NAA=     0 NBB=     0.
 DE(Corr)= -0.36592675     E(CORR)=     -436.92351338     Delta=-5.24D-07
 NORM(A)=   0.10850123D+01
 Iteration Nr.  12
 **********************
 DD1Dir will call FoFMem   1 times, MxPair=        42
 NAB=    21 NAA=     0 NBB=     0.
 DE(Corr)= -0.36592686     E(CORR)=     -436.92351349     Delta=-1.08D-07
 NORM(A)=   0.10850128D+01
 Iteration Nr.  13
 **********************
 DD1Dir will call FoFMem   1 times, MxPair=        42
 NAB=    21 NAA=     0 NBB=     0.
 DE(Corr)= -0.36592695     E(CORR)=     -436.92351358     Delta=-9.01D-08
 NORM(A)=   0.10850129D+01
 Iteration Nr.  14
 **********************
 DD1Dir will call FoFMem   1 times, MxPair=        42
 NAB=    21 NAA=     0 NBB=     0.
 DE(Corr)= -0.36592698     E(CORR)=     -436.92351361     Delta=-2.92D-08
 NORM(A)=   0.10850130D+01
 Iteration Nr.  15
 **********************
 DD1Dir will call FoFMem   1 times, MxPair=        42
 NAB=    21 NAA=     0 NBB=     0.
 DE(Corr)= -0.36592698     E(CORR)=     -436.92351362     Delta=-9.09D-09
 NORM(A)=   0.10850130D+01
 Iteration Nr.  16
 **********************
 DD1Dir will call FoFMem   1 times, MxPair=        42
 NAB=    21 NAA=     0 NBB=     0.
 DE(Corr)= -0.36592699     E(CORR)=     -436.92351362     Delta=-1.44D-09
 NORM(A)=   0.10850130D+01
 Dominant configurations:
 ***********************
 Spin Case        I    J    A    B          Value
   ABAB          11   11   14   14      -0.114481D+00
 Largest amplitude= 1.14D-01

 Z-AMPLITUDE ITERATIONS

 Iteration Nr.   1
 **********************
 DD1Dir will call FoFMem   1 times, MxPair=        42
 NAB=    21 NAA=     0 NBB=     0.
 DE(Z)  -0.34990993D+00          E(Z)=    -0.43690749656D+03
 NORM(A)=   0.10850020D+01
 Iteration Nr.   2
 **********************
 DD1Dir will call FoFMem   1 times, MxPair=        42
 NAB=    21 NAA=     0 NBB=     0.
 DE(Z)  -0.34990943D+00          E(Z)=    -0.43690749606D+03
 NORM(A)=   0.10850878D+01
 Iteration Nr.   3
 **********************
 DD1Dir will call FoFMem   1 times, MxPair=        42
 NAB=    21 NAA=     0 NBB=     0.
 DE(Z)  -0.34991340D+00          E(Z)=    -0.43690750003D+03
 NORM(A)=   0.10849931D+01
 Iteration Nr.   4
 **********************
 DD1Dir will call FoFMem   1 times, MxPair=        42
 NAB=    21 NAA=     0 NBB=     0.
 DE(Z)  -0.34990900D+00          E(Z)=    -0.43690749563D+03
 NORM(A)=   0.10850811D+01
 Iteration Nr.   5
 **********************
 DD1Dir will call FoFMem   1 times, MxPair=        42
 NAB=    21 NAA=     0 NBB=     0.
 DE(Z)  -0.34991315D+00          E(Z)=    -0.43690749978D+03
 NORM(A)=   0.10767970D+01
 Iteration Nr.   6
 **********************
 DD1Dir will call FoFMem   1 times, MxPair=        42
 NAB=    21 NAA=     0 NBB=     0.
 DE(Z)  -0.34950980D+00          E(Z)=    -0.43690709643D+03
 NORM(A)=   0.10767919D+01
 Iteration Nr.   7
 **********************
 DD1Dir will call FoFMem   1 times, MxPair=        42
 NAB=    21 NAA=     0 NBB=     0.
 DE(Z)  -0.34950829D+00          E(Z)=    -0.43690709492D+03
 NORM(A)=   0.10767909D+01
 Iteration Nr.   8
 **********************
 DD1Dir will call FoFMem   1 times, MxPair=        42
 NAB=    21 NAA=     0 NBB=     0.
 DE(Z)  -0.34950870D+00          E(Z)=    -0.43690709533D+03
 NORM(A)=   0.10767908D+01
 Iteration Nr.   9
 **********************
 DD1Dir will call FoFMem   1 times, MxPair=        42
 NAB=    21 NAA=     0 NBB=     0.
 DE(Z)  -0.34950858D+00          E(Z)=    -0.43690709521D+03
 NORM(A)=   0.10767909D+01
 Iteration Nr.  10
 **********************
 DD1Dir will call FoFMem   1 times, MxPair=        42
 NAB=    21 NAA=     0 NBB=     0.
 DE(Z)  -0.34950860D+00          E(Z)=    -0.43690709523D+03
 NORM(A)=   0.10767908D+01
 Iteration Nr.  11
 **********************
 DD1Dir will call FoFMem   1 times, MxPair=        42
 NAB=    21 NAA=     0 NBB=     0.
 DE(Z)  -0.34950859D+00          E(Z)=    -0.43690709522D+03
 NORM(A)=   0.10767908D+01
 Iteration Nr.  12
 **********************
 DD1Dir will call FoFMem   1 times, MxPair=        42
 NAB=    21 NAA=     0 NBB=     0.
 DE(Z)  -0.34950859D+00          E(Z)=    -0.43690709522D+03
 NORM(A)=   0.10767908D+01
 Discarding MO integrals.
          Differentiating once with respect to electric field.
                with respect to dipole field.
          Electric field/nuclear overlap derivatives assumed to be zero.
          Keep R1 ints in memory in canonical form, NReq=93478140.
          There are     1 degrees of freedom in the 1st order CPHF.  IDoFFX=0.
 LinEq1:  Iter=  0 NonCon=     1 RMS=2.95D-03 Max=4.36D-02
 AX will form     1 AO Fock derivatives at one time.
 LinEq1:  Iter=  1 NonCon=     1 RMS=9.86D-04 Max=1.21D-02
 LinEq1:  Iter=  2 NonCon=     1 RMS=4.76D-04 Max=1.32D-02
 LinEq1:  Iter=  3 NonCon=     1 RMS=1.60D-04 Max=2.47D-03
 LinEq1:  Iter=  4 NonCon=     1 RMS=3.99D-05 Max=5.26D-04
 LinEq1:  Iter=  5 NonCon=     1 RMS=8.74D-06 Max=9.98D-05
 LinEq1:  Iter=  6 NonCon=     1 RMS=1.55D-06 Max=2.20D-05
 LinEq1:  Iter=  7 NonCon=     1 RMS=2.01D-07 Max=2.70D-06
 LinEq1:  Iter=  8 NonCon=     1 RMS=2.32D-08 Max=2.27D-07
 LinEq1:  Iter=  9 NonCon=     1 RMS=3.72D-09 Max=3.76D-08
 LinEq1:  Iter= 10 NonCon=     1 RMS=5.35D-10 Max=5.78D-09
 LinEq1:  Iter= 11 NonCon=     1 RMS=8.49D-11 Max=1.74D-09
 LinEq1:  Iter= 12 NonCon=     0 RMS=2.12D-11 Max=2.80D-10
 Linear equations converged to 1.000D-10 1.000D-09 after    12 iterations.
 End of Minotr Frequency-dependent properties file   721 does not exist.
 End of Minotr Frequency-dependent properties file   722 does not exist.

 **********************************************************************

            Population analysis using the QCI/CC density.

 **********************************************************************

     Natural Orbital Coefficients:
                           1         2         3         4         5
     Eigenvalues --     2.00003   2.00002   2.00001   2.00000   2.00000
   1 1   C  1S          0.00000  -0.15977  -0.45347   0.85514  -0.01518
   2        2S          0.00000   0.00306   0.00798  -0.01042   0.00019
   3        3S          0.00000  -0.00638  -0.01851   0.03566  -0.00063
   4        4S          0.00000  -0.00359  -0.00075  -0.00333   0.00010
   5        5S          0.00000  -0.00058  -0.00157  -0.00006   0.00000
   6        6PX         0.00000  -0.00001  -0.00001  -0.00003  -0.00135
   7        6PY        -0.00066   0.00000   0.00000   0.00000   0.00000
   8        6PZ         0.00000   0.00110   0.00170   0.00194  -0.00004
   9        7PX         0.00000   0.00000   0.00000  -0.00003  -0.00115
  10        7PY        -0.00139   0.00000   0.00000   0.00000   0.00000
  11        7PZ         0.00000   0.00011   0.00129  -0.00087   0.00001
  12        8PX         0.00000   0.00003   0.00000   0.00001  -0.00048
  13        8PY         0.01585   0.00000   0.00000   0.00000   0.00000
  14        8PZ         0.00000  -0.00595  -0.00154  -0.00302   0.00010
  15        9PX         0.00000   0.00000   0.00000   0.00000  -0.00001
  16        9PY         0.00134   0.00000   0.00000   0.00000   0.00000
  17        9PZ         0.00000  -0.00002  -0.00017  -0.00018   0.00001
  18       10D 0        0.00000  -0.00002   0.00000   0.00030  -0.00001
  19       10D+1        0.00000   0.00000   0.00000  -0.00001  -0.00020
  20       10D-1       -0.00032   0.00000   0.00000   0.00000   0.00000
  21       10D+2        0.00000   0.00010   0.00027  -0.00054   0.00001
  22       10D-2        0.00000   0.00000   0.00000   0.00000   0.00000
  23       11D 0        0.00000  -0.00083   0.00054  -0.00135   0.00004
  24       11D+1        0.00000   0.00001  -0.00001   0.00004   0.00160
  25       11D-1        0.00014   0.00000   0.00000   0.00000   0.00000
  26       11D+2        0.00000  -0.00028  -0.00029   0.00019  -0.00002
  27       11D-2       -0.00001   0.00000   0.00000   0.00000   0.00000
  28       12D 0        0.00000  -0.00330  -0.00247  -0.00157   0.00002
  29       12D+1        0.00000   0.00002   0.00001  -0.00001  -0.00106
  30       12D-1       -0.00424   0.00000   0.00000   0.00000   0.00000
  31       12D+2        0.00000  -0.00147  -0.00092  -0.00056   0.00001
  32       12D-2        0.00000   0.00000   0.00000   0.00000   0.00000
  33       13F 0        0.00000   0.00001   0.00009   0.00052  -0.00001
  34       13F+1        0.00000   0.00000   0.00000  -0.00001  -0.00015
  35       13F-1       -0.00036   0.00000   0.00000   0.00000   0.00000
  36       13F+2        0.00000  -0.00010  -0.00022   0.00053  -0.00001
  37       13F-2        0.00000   0.00000   0.00000   0.00000   0.00000
  38       13F+3        0.00000   0.00000   0.00000   0.00000   0.00002
  39       13F-3        0.00001   0.00000   0.00000   0.00000   0.00000
  40       14F 0        0.00000   0.00077   0.00156  -0.00089   0.00004
  41       14F+1        0.00000  -0.00001  -0.00001   0.00003   0.00130
  42       14F-1        0.00197   0.00000   0.00000   0.00000   0.00000
  43       14F+2        0.00000   0.00067   0.00106  -0.00084   0.00001
  44       14F-2       -0.00002   0.00000   0.00000   0.00000   0.00000
  45       14F+3        0.00000  -0.00001  -0.00001   0.00001   0.00045
  46       14F-3       -0.00017   0.00000   0.00000   0.00000   0.00000
  47 2   S  1S          0.00000  -0.20713   0.19161   0.06300  -0.00137
  48        2S          0.00000   0.70748  -0.66041  -0.21672   0.00473
  49        3S          0.00000  -0.02027   0.01026   0.00297  -0.00006
  50        4S          0.00000   0.04744  -0.04708  -0.01614   0.00035
  51        5S          0.00000   0.00733   0.00708   0.00838  -0.00021
  52        6S          0.00000   0.00006   0.00039   0.00142  -0.00004
  53        7PX         0.00000  -0.00353  -0.00192   0.01558   0.97135
  54        7PY         0.97717   0.00000   0.00000   0.00000   0.00000
  55        7PZ         0.00000   0.66573   0.56956   0.42427  -0.00327
  56        8PX         0.00000   0.00006   0.00003  -0.00016  -0.01104
  57        8PY        -0.02057   0.00000   0.00000   0.00000   0.00000
  58        8PZ         0.00000  -0.01193  -0.00781  -0.00671   0.00008
  59        9PX         0.00000  -0.00022  -0.00013   0.00100   0.06294
  60        9PY         0.05564   0.00000   0.00000   0.00000   0.00000
  61        9PZ         0.00000   0.04067   0.03668   0.02768  -0.00022
  62       10PX         0.00000   0.00005   0.00002   0.00005   0.00191
  63       10PY        -0.00639   0.00000   0.00000   0.00000   0.00000
  64       10PZ         0.00000  -0.00716  -0.00129  -0.00386   0.00011
  65       11PX         0.00000   0.00000   0.00000  -0.00001  -0.00070
  66       11PY        -0.00127   0.00000   0.00000   0.00000   0.00000
  67       11PZ         0.00000  -0.00006   0.00002  -0.00022   0.00000
  68       12D 0        0.00000   0.00216   0.00175   0.00222  -0.00002
  69       12D+1        0.00000  -0.00003  -0.00002   0.00002   0.00218
  70       12D-1        0.00269   0.00000   0.00000   0.00000   0.00000
  71       12D+2        0.00000  -0.00053  -0.00005   0.00034  -0.00002
  72       12D-2       -0.00002   0.00000   0.00000   0.00000   0.00000
  73       13D 0        0.00000   0.00002  -0.00031  -0.00038   0.00001
  74       13D+1        0.00000   0.00000   0.00000   0.00000  -0.00020
  75       13D-1       -0.00054   0.00000   0.00000   0.00000   0.00000
  76       13D+2        0.00000   0.00037  -0.00029  -0.00012   0.00000
  77       13D-2        0.00000   0.00000   0.00000   0.00000   0.00000
  78       14D 0        0.00000   0.00096  -0.00028   0.00076  -0.00002
  79       14D+1        0.00000  -0.00001   0.00000  -0.00002  -0.00066
  80       14D-1       -0.00058   0.00000   0.00000   0.00000   0.00000
  81       14D+2        0.00000   0.00035   0.00008   0.00004   0.00001
  82       14D-2        0.00001   0.00000   0.00000   0.00000   0.00000
  83       15F 0        0.00000  -0.00018  -0.00011   0.00014  -0.00001
  84       15F+1        0.00000   0.00000   0.00000  -0.00001  -0.00033
  85       15F-1       -0.00014   0.00000   0.00000   0.00000   0.00000
  86       15F+2        0.00000   0.00014   0.00019   0.00007   0.00000
  87       15F-2        0.00000   0.00000   0.00000   0.00000   0.00000
  88       15F+3        0.00000   0.00000   0.00000   0.00000   0.00016
  89       15F-3        0.00010   0.00000   0.00000   0.00000   0.00000
  90       16F 0        0.00000  -0.00041  -0.00027  -0.00077   0.00001
  91       16F+1        0.00000   0.00001   0.00001   0.00000  -0.00047
  92       16F-1       -0.00084   0.00000   0.00000   0.00000   0.00000
  93       16F+2        0.00000  -0.00004   0.00000  -0.00029   0.00001
  94       16F-2        0.00001   0.00000   0.00000   0.00000   0.00000
  95       16F+3        0.00000   0.00000   0.00000   0.00000  -0.00019
  96       16F-3       -0.00024   0.00000   0.00000   0.00000   0.00000
  97 3   H  1S         -0.00042  -0.00009   0.00015  -0.00121   0.00002
  98        2S          0.00045  -0.00128  -0.00117  -0.00175   0.00003
  99        3S          0.01832  -0.00345   0.00004  -0.00367   0.00008
 100        4S          0.00057   0.00007   0.00016  -0.00016   0.00001
 101        5PX         0.00000   0.00000   0.00000   0.00000  -0.00006
 102        5PY        -0.00001   0.00001   0.00008  -0.00038   0.00001
 103        5PZ         0.00012   0.00004   0.00009  -0.00017   0.00000
 104        6PX         0.00000  -0.00001  -0.00001   0.00001   0.00038
 105        6PY        -0.00003   0.00008   0.00029  -0.00094   0.00002
 106        6PZ        -0.00074   0.00006   0.00039  -0.00062   0.00001
 107        7PX         0.00000   0.00000   0.00000  -0.00001  -0.00069
 108        7PY         0.00382   0.00044   0.00090  -0.00043   0.00001
 109        7PZ         0.00162  -0.00152  -0.00070  -0.00122   0.00002
 110        8D 0        0.00011   0.00004   0.00007   0.00009   0.00000
 111        8D+1        0.00000   0.00000   0.00000   0.00000  -0.00002
 112        8D-1        0.00000   0.00004   0.00014  -0.00030   0.00001
 113        8D+2        0.00003  -0.00004  -0.00011   0.00022   0.00000
 114        8D-2        0.00000   0.00000   0.00000   0.00000   0.00004
 115        9D 0       -0.00002   0.00007   0.00038  -0.00017   0.00001
 116        9D+1        0.00000   0.00000  -0.00001   0.00001   0.00045
 117        9D-1       -0.00047  -0.00026  -0.00024  -0.00032   0.00000
 118        9D+2        0.00019  -0.00022  -0.00030   0.00030  -0.00001
 119        9D-2        0.00000   0.00000   0.00000   0.00000  -0.00015
 120 4   H  1S          0.00042  -0.00009   0.00015  -0.00121   0.00002
 121        2S         -0.00045  -0.00128  -0.00117  -0.00175   0.00003
 122        3S         -0.01832  -0.00345   0.00004  -0.00367   0.00008
 123        4S         -0.00057   0.00007   0.00016  -0.00016   0.00001
 124        5PX         0.00000   0.00000   0.00000   0.00000  -0.00006
 125        5PY        -0.00001  -0.00001  -0.00008   0.00038  -0.00001
 126        5PZ        -0.00012   0.00004   0.00009  -0.00017   0.00000
 127        6PX         0.00000  -0.00001  -0.00001   0.00001   0.00038
 128        6PY        -0.00003  -0.00008  -0.00029   0.00094  -0.00002
 129        6PZ         0.00074   0.00006   0.00039  -0.00062   0.00001
 130        7PX         0.00000   0.00000   0.00000  -0.00001  -0.00069
 131        7PY         0.00382  -0.00044  -0.00090   0.00043  -0.00001
 132        7PZ        -0.00162  -0.00152  -0.00070  -0.00122   0.00002
 133        8D 0       -0.00011   0.00004   0.00007   0.00009   0.00000
 134        8D+1        0.00000   0.00000   0.00000   0.00000  -0.00002
 135        8D-1        0.00000  -0.00004  -0.00014   0.00030  -0.00001
 136        8D+2       -0.00003  -0.00004  -0.00011   0.00022   0.00000
 137        8D-2        0.00000   0.00000   0.00000   0.00000  -0.00004
 138        9D 0        0.00002   0.00007   0.00038  -0.00017   0.00001
 139        9D+1        0.00000   0.00000  -0.00001   0.00001   0.00045
 140        9D-1       -0.00047   0.00026   0.00024   0.00032   0.00000
 141        9D+2       -0.00019  -0.00022  -0.00030   0.00030  -0.00001
 142        9D-2        0.00000   0.00000   0.00000   0.00000   0.00015
                           6         7         8         9        10
     Eigenvalues --     2.00000   1.97243   1.96168   1.95912   1.94155
   1 1   C  1S         -0.00024  -0.13848   0.07870   0.00000   0.06004
   2        2S         -0.00002   0.37066  -0.22030   0.00000  -0.16614
   3        3S          0.00000   0.08229  -0.05222   0.00000  -0.03860
   4        4S         -0.00020   0.24951  -0.22164   0.00000  -0.08748
   5        5S         -0.00011   0.01886   0.00524   0.00000  -0.00560
   6        6PX         0.00000  -0.00037  -0.00049   0.00000   0.00092
   7        6PY         0.00000   0.00000   0.00000   0.24769   0.00000
   8        6PZ         0.00001   0.01412   0.16540   0.00000  -0.18342
   9        7PX         0.00000  -0.00045  -0.00061   0.00000   0.00117
  10        7PY         0.00000   0.00000   0.00000   0.33922   0.00000
  11        7PZ        -0.00009   0.00525   0.21406   0.00000  -0.23358
  12        8PX         0.00000  -0.00005  -0.00023   0.00000   0.00065
  13        8PY         0.00000   0.00000   0.00000   0.22515   0.00000
  14        8PZ         0.00004  -0.03165   0.10248   0.00000  -0.12992
  15        9PX         0.00000  -0.00001  -0.00004   0.00000   0.00003
  16        9PY         0.00000   0.00000   0.00000   0.00612   0.00000
  17        9PZ        -0.00002   0.00164   0.00753   0.00000  -0.00629
  18       10D 0       -0.00001   0.00849   0.00889   0.00000  -0.01086
  19       10D+1        0.00000  -0.00011  -0.00007   0.00000   0.00011
  20       10D-1        0.00000   0.00000   0.00000  -0.01423   0.00000
  21       10D+2        0.00000  -0.00706   0.00992   0.00000  -0.00307
  22       10D-2        0.00000   0.00000   0.00000  -0.00002   0.00000
  23       11D 0       -0.00005   0.00971   0.01563   0.00000  -0.01363
  24       11D+1        0.00000  -0.00014  -0.00009   0.00000   0.00014
  25       11D-1        0.00000   0.00000   0.00000  -0.03874   0.00000
  26       11D+2        0.00001  -0.01772   0.02557   0.00000  -0.00827
  27       11D-2        0.00000   0.00000   0.00000  -0.00004   0.00000
  28       12D 0        0.00001  -0.01053  -0.00262   0.00000  -0.00175
  29       12D+1        0.00000   0.00007  -0.00002   0.00000   0.00005
  30       12D-1        0.00000   0.00000   0.00000  -0.03719   0.00000
  31       12D+2        0.00003  -0.00421   0.00333   0.00000  -0.00397
  32       12D-2        0.00000   0.00000   0.00000   0.00009   0.00000
  33       13F 0        0.00000   0.00585   0.00136   0.00000  -0.00510
  34       13F+1        0.00000  -0.00006  -0.00003   0.00000   0.00007
  35       13F-1        0.00000   0.00000   0.00000   0.00561   0.00000
  36       13F+2        0.00000   0.00386  -0.00223   0.00000  -0.00028
  37       13F-2        0.00000   0.00000   0.00000  -0.00005   0.00000
  38       13F+3        0.00000   0.00000   0.00000   0.00000   0.00000
  39       13F-3        0.00000   0.00000   0.00000  -0.00232   0.00000
  40       14F 0       -0.00001   0.00565  -0.00588   0.00000   0.00009
  41       14F+1        0.00000   0.00000  -0.00002   0.00000   0.00002
  42       14F-1        0.00000   0.00000   0.00000   0.00328   0.00000
  43       14F+2        0.00000   0.00736  -0.00721   0.00000   0.00022
  44       14F-2        0.00000   0.00000   0.00000   0.00004   0.00000
  45       14F+3        0.00000  -0.00003   0.00000   0.00000   0.00003
  46       14F-3        0.00000   0.00000   0.00000  -0.00296   0.00000
  47 2   S  1S          0.99624   0.04566   0.04849   0.00000   0.02728
  48        2S          0.01376  -0.17652  -0.18418   0.00000  -0.10594
  49        3S          0.00032   0.36357   0.39960   0.00000   0.23712
  50        4S          0.00002   0.04550   0.05480   0.00000   0.03424
  51        5S         -0.00011   0.19454   0.21233   0.00000   0.31956
  52        6S          0.00004  -0.01530  -0.02871   0.00000   0.05932
  53        7PX        -0.00001  -0.00019  -0.00026   0.00000   0.00105
  54        7PY         0.00000   0.00000   0.00000  -0.03899   0.00000
  55        7PZ         0.00112   0.04159   0.02189   0.00000  -0.18228
  56        8PX         0.00000   0.00014   0.00048   0.00000  -0.00221
  57        8PY         0.00000   0.00000   0.00000   0.08992   0.00000
  58        8PZ        -0.00015  -0.05432  -0.02945   0.00000   0.38705
  59        9PX         0.00000   0.00011   0.00022   0.00000  -0.00100
  60        9PY         0.00000   0.00000   0.00000   0.03902   0.00000
  61        9PZ         0.00014  -0.02944  -0.01711   0.00000   0.17544
  62       10PX         0.00000  -0.00016   0.00010   0.00000  -0.00061
  63       10PY         0.00000   0.00000   0.00000   0.03091   0.00000
  64       10PZ         0.00006   0.01367   0.00666   0.00000   0.12023
  65       11PX         0.00000  -0.00005  -0.00003   0.00000   0.00004
  66       11PY         0.00000   0.00000   0.00000  -0.00183   0.00000
  67       11PZ         0.00000   0.00600   0.00561   0.00000  -0.00313
  68       12D 0        0.00006   0.01214   0.00108   0.00000  -0.02884
  69       12D+1        0.00000  -0.00009  -0.00008   0.00000   0.00033
  70       12D-1        0.00000   0.00000   0.00000  -0.02224   0.00000
  71       12D+2       -0.00001   0.00036   0.00145   0.00000  -0.00053
  72       12D-2        0.00000   0.00000   0.00000   0.00011   0.00000
  73       13D 0        0.00001   0.02226   0.01012   0.00000  -0.04666
  74       13D+1        0.00000  -0.00020  -0.00015   0.00000   0.00051
  75       13D-1        0.00000   0.00000   0.00000  -0.02179   0.00000
  76       13D+2        0.00001   0.00109   0.00141   0.00000  -0.00016
  77       13D-2        0.00000   0.00000   0.00000   0.00013   0.00000
  78       14D 0       -0.00004  -0.00882  -0.00480   0.00000   0.00209
  79       14D+1        0.00000   0.00009   0.00003   0.00000  -0.00003
  80       14D-1        0.00000   0.00000   0.00000  -0.00220   0.00000
  81       14D+2        0.00000  -0.00120  -0.00211   0.00000  -0.00057
  82       14D-2        0.00000   0.00000   0.00000   0.00002   0.00000
  83       15F 0       -0.00002  -0.00776  -0.00498   0.00000   0.01365
  84       15F+1        0.00000   0.00010   0.00009   0.00000  -0.00019
  85       15F-1        0.00000   0.00000   0.00000   0.00859   0.00000
  86       15F+2        0.00000  -0.00041  -0.00042   0.00000   0.00342
  87       15F-2        0.00000   0.00000   0.00000  -0.00007   0.00000
  88       15F+3        0.00000   0.00000   0.00000   0.00000  -0.00002
  89       15F-3        0.00000   0.00000   0.00000   0.00075   0.00000
  90       16F 0        0.00000   0.00348   0.00275   0.00000  -0.00440
  91       16F+1        0.00000  -0.00006  -0.00004   0.00000   0.00007
  92       16F-1        0.00000   0.00000   0.00000   0.00084   0.00000
  93       16F+2        0.00000  -0.00043  -0.00069   0.00000   0.00062
  94       16F-2        0.00000   0.00000   0.00000   0.00001   0.00000
  95       16F+3        0.00000   0.00000   0.00001   0.00000  -0.00001
  96       16F-3        0.00000   0.00000   0.00000   0.00083   0.00000
  97 3   H  1S          0.00000   0.06788  -0.10076  -0.14034   0.03330
  98        2S          0.00001   0.05028  -0.10031  -0.15696   0.04790
  99        3S          0.00013  -0.03423   0.01621   0.07287   0.01524
 100        4S          0.00001  -0.00032   0.00313   0.00300  -0.00154
 101        5PX         0.00000   0.00000  -0.00001   0.00001   0.00002
 102        5PY         0.00000   0.00538  -0.00951  -0.00803   0.00362
 103        5PZ         0.00000   0.00333  -0.00321  -0.00842  -0.00106
 104        6PX         0.00000  -0.00003  -0.00002  -0.00002   0.00007
 105        6PY         0.00000  -0.00375  -0.00198   0.01278   0.00229
 106        6PZ         0.00000  -0.00356   0.00860  -0.00092  -0.00942
 107        7PX         0.00000   0.00002   0.00000   0.00004   0.00000
 108        7PY         0.00001  -0.01056   0.01483   0.03073  -0.00164
 109        7PZ         0.00003  -0.01368   0.00497   0.01280   0.00126
 110        8D 0        0.00000   0.00026   0.00136  -0.00134  -0.00161
 111        8D+1        0.00000  -0.00001  -0.00001   0.00000   0.00001
 112        8D-1        0.00000   0.00040  -0.00100  -0.00245   0.00001
 113        8D+2        0.00000  -0.00056   0.00157   0.00009  -0.00078
 114        8D-2        0.00000   0.00000   0.00000   0.00001   0.00000
 115        9D 0        0.00000  -0.00004  -0.00033  -0.00185  -0.00046
 116        9D+1        0.00000   0.00000   0.00000   0.00001   0.00001
 117        9D-1       -0.00001  -0.00381   0.00342   0.00340  -0.00062
 118        9D+2        0.00000   0.00152  -0.00068  -0.00299  -0.00022
 119        9D-2        0.00000   0.00000   0.00000  -0.00001   0.00000
 120 4   H  1S          0.00000   0.06788  -0.10076   0.14034   0.03330
 121        2S          0.00001   0.05028  -0.10031   0.15696   0.04790
 122        3S          0.00013  -0.03423   0.01621  -0.07287   0.01524
 123        4S          0.00001  -0.00032   0.00313  -0.00300  -0.00154
 124        5PX         0.00000   0.00000  -0.00001  -0.00001   0.00002
 125        5PY         0.00000  -0.00538   0.00951  -0.00803  -0.00362
 126        5PZ         0.00000   0.00333  -0.00321   0.00842  -0.00106
 127        6PX         0.00000  -0.00003  -0.00002   0.00002   0.00007
 128        6PY         0.00000   0.00375   0.00198   0.01278  -0.00229
 129        6PZ         0.00000  -0.00356   0.00860   0.00092  -0.00942
 130        7PX         0.00000   0.00002   0.00000  -0.00004   0.00000
 131        7PY        -0.00001   0.01056  -0.01483   0.03073   0.00164
 132        7PZ         0.00003  -0.01368   0.00497  -0.01280   0.00126
 133        8D 0        0.00000   0.00026   0.00136   0.00134  -0.00161
 134        8D+1        0.00000  -0.00001  -0.00001   0.00000   0.00001
 135        8D-1        0.00000  -0.00040   0.00100  -0.00245  -0.00001
 136        8D+2        0.00000  -0.00056   0.00157  -0.00009  -0.00078
 137        8D-2        0.00000   0.00000   0.00000   0.00001   0.00000
 138        9D 0        0.00000  -0.00004  -0.00033   0.00185  -0.00046
 139        9D+1        0.00000   0.00000   0.00000  -0.00001   0.00001
 140        9D-1        0.00001   0.00381  -0.00342   0.00340   0.00062
 141        9D+2        0.00000   0.00152  -0.00068   0.00299  -0.00022
 142        9D-2        0.00000   0.00000   0.00000  -0.00001   0.00000
                          11        12        13        14        15
     Eigenvalues --     1.94077   1.89917   0.08405   0.03696   0.02642
   1 1   C  1S          0.00000  -0.00035   0.00041  -0.11158   0.00000
   2        2S          0.00000   0.00097  -0.00132   0.38438   0.00000
   3        3S          0.00000   0.00023  -0.00050   0.15497   0.00000
   4        4S          0.00000   0.00092  -0.00065   0.15617   0.00000
   5        5S          0.00000   0.00016   0.00015   0.09693   0.00000
   6        6PX         0.00000   0.19013  -0.30157  -0.00178   0.00000
   7        6PY        -0.04031   0.00000   0.00000   0.00000   0.26236
   8        6PZ         0.00000   0.00080  -0.00126   0.27301   0.00000
   9        7PX         0.00000   0.26563  -0.45883  -0.00326   0.00000
  10        7PY        -0.05312   0.00000   0.00000   0.00000   0.61530
  11        7PZ         0.00000   0.00116  -0.00202   0.52861   0.00000
  12        8PX         0.00000   0.17864  -0.20558  -0.00249   0.00000
  13        8PY        -0.00340   0.00000   0.00000   0.00000   0.17055
  14        8PZ         0.00000   0.00080  -0.00087   0.48076   0.00000
  15        9PX         0.00000   0.01321  -0.00563  -0.00020   0.00000
  16        9PY        -0.00202   0.00000   0.00000   0.00000  -0.00657
  17        9PZ         0.00000   0.00006  -0.00001   0.03817   0.00000
  18       10D 0        0.00000   0.00011   0.00001   0.00385   0.00000
  19       10D+1        0.00000   0.01135  -0.00308  -0.00004   0.00000
  20       10D-1        0.01840   0.00000   0.00000   0.00000   0.06977
  21       10D+2        0.00000  -0.00007  -0.00006   0.00223   0.00000
  22       10D-2       -0.00007   0.00000   0.00000   0.00000  -0.00024
  23       11D 0        0.00000   0.00035  -0.00026   0.09528   0.00000
  24       11D+1        0.00000   0.03283  -0.03725  -0.00100   0.00000
  25       11D-1        0.03582   0.00000   0.00000   0.00000   0.04497
  26       11D+2        0.00000  -0.00020   0.00009   0.05649   0.00000
  27       11D-2       -0.00014   0.00000   0.00000   0.00000  -0.00054
  28       12D 0        0.00000   0.00021   0.00001   0.08164   0.00000
  29       12D+1        0.00000   0.01107  -0.01436  -0.00048   0.00000
  30       12D-1       -0.02254   0.00000   0.00000   0.00000  -0.02003
  31       12D+2        0.00000  -0.00010   0.00024   0.03428   0.00000
  32       12D-2        0.00017   0.00000   0.00000   0.00000   0.00026
  33       13F 0        0.00000   0.00010  -0.00007   0.01352   0.00000
  34       13F+1        0.00000   0.00634  -0.00593  -0.00018   0.00000
  35       13F-1        0.00449   0.00000   0.00000   0.00000   0.03294
  36       13F+2        0.00000  -0.00005   0.00004   0.00238   0.00000
  37       13F-2       -0.00004   0.00000   0.00000   0.00000  -0.00033
  38       13F+3        0.00000   0.00032   0.00010  -0.00001   0.00000
  39       13F-3        0.00143   0.00000   0.00000   0.00000  -0.00372
  40       14F 0        0.00000   0.00002  -0.00025  -0.00578   0.00000
  41       14F+1        0.00000   0.00119  -0.01608  -0.00043   0.00000
  42       14F-1        0.00094   0.00000   0.00000   0.00000   0.06774
  43       14F+2        0.00000  -0.00002   0.00010  -0.03522   0.00000
  44       14F-2       -0.00001   0.00000   0.00000   0.00000  -0.00039
  45       14F+3        0.00000   0.00060  -0.00504   0.00007   0.00000
  46       14F-3       -0.00052   0.00000   0.00000   0.00000   0.00410
  47 2   S  1S          0.00000  -0.00004   0.00002  -0.02427   0.00000
  48        2S          0.00000   0.00015  -0.00006   0.07023   0.00000
  49        3S          0.00000  -0.00033   0.00012  -0.24967   0.00000
  50        4S          0.00000  -0.00005   0.00000   0.00117   0.00000
  51        5S          0.00000  -0.00034  -0.00028  -0.77624   0.00000
  52        6S          0.00000  -0.00006  -0.00017  -0.26441   0.00000
  53        7PX         0.00000  -0.17464  -0.20034   0.00111   0.00000
  54        7PY        -0.21560   0.00000   0.00000   0.00000   0.08421
  55        7PZ         0.00000  -0.00114  -0.00099  -0.19480   0.00000
  56        8PX         0.00000   0.39379   0.53025  -0.00424   0.00000
  57        8PY         0.52631   0.00000   0.00000   0.00000  -0.24049
  58        8PZ         0.00000   0.00263   0.00274   0.74084   0.00000
  59        9PX         0.00000   0.15981   0.20749  -0.00116   0.00000
  60        9PY         0.22282   0.00000   0.00000   0.00000  -0.12737
  61        9PZ         0.00000   0.00107   0.00106   0.21015   0.00000
  62       10PX         0.00000   0.20851   0.16196  -0.00330   0.00000
  63       10PY         0.40549   0.00000   0.00000   0.00000   0.09242
  64       10PZ         0.00000   0.00150   0.00098   0.49342   0.00000
  65       11PX         0.00000   0.00447   0.00189  -0.00020   0.00000
  66       11PY         0.04148   0.00000   0.00000   0.00000   0.02509
  67       11PZ         0.00000   0.00005   0.00004   0.03312   0.00000
  68       12D 0        0.00000  -0.00038   0.00047   0.09901   0.00000
  69       12D+1        0.00000  -0.03656   0.03881  -0.00049   0.00000
  70       12D-1        0.00255   0.00000   0.00000   0.00000  -0.28244
  71       12D+2        0.00000   0.00022  -0.00032   0.08725   0.00000
  72       12D-2       -0.00002   0.00000   0.00000   0.00000   0.00202
  73       13D 0        0.00000  -0.00037   0.00061   0.16425   0.00000
  74       13D+1        0.00000  -0.03494   0.05166  -0.00135   0.00000
  75       13D-1       -0.00036   0.00000   0.00000   0.00000  -0.24746
  76       13D+2        0.00000   0.00021  -0.00038   0.05468   0.00000
  77       13D-2        0.00001   0.00000   0.00000   0.00000   0.00176
  78       14D 0        0.00000  -0.00004  -0.00021  -0.06707   0.00000
  79       14D+1        0.00000  -0.00379  -0.01885   0.00091   0.00000
  80       14D-1       -0.01334   0.00000   0.00000   0.00000  -0.03104
  81       14D+2        0.00000   0.00004   0.00007   0.01422   0.00000
  82       14D-2        0.00007   0.00000   0.00000   0.00000   0.00019
  83       15F 0        0.00000   0.00017  -0.00027  -0.01843   0.00000
  84       15F+1        0.00000   0.01080  -0.01556   0.00026   0.00000
  85       15F-1        0.00368   0.00000   0.00000   0.00000   0.03130
  86       15F+2        0.00000  -0.00008   0.00018  -0.00453   0.00000
  87       15F-2       -0.00001   0.00000   0.00000   0.00000  -0.00032
  88       15F+3        0.00000   0.00380   0.00230   0.00005   0.00000
  89       15F-3        0.00444   0.00000   0.00000   0.00000   0.00350
  90       16F 0        0.00000  -0.00002   0.00008   0.01044   0.00000
  91       16F+1        0.00000  -0.00081   0.00501  -0.00025   0.00000
  92       16F-1        0.00198   0.00000   0.00000   0.00000   0.00114
  93       16F+2        0.00000   0.00001   0.00001  -0.01211   0.00000
  94       16F-2        0.00001   0.00000   0.00000   0.00000   0.00003
  95       16F+3        0.00000   0.00242   0.00281   0.00012   0.00000
  96       16F-3        0.00333   0.00000   0.00000   0.00000   0.00207
  97 3   H  1S          0.05197  -0.00001   0.00038  -0.03267   0.17835
  98        2S          0.08985  -0.00006   0.00050   0.09011   0.56737
  99        3S          0.16340   0.00005   0.00018   0.26424   0.29284
 100        4S          0.01597   0.00000  -0.00001   0.01210   0.01145
 101        5PX         0.00001   0.00425  -0.01017  -0.00007   0.00006
 102        5PY         0.00265  -0.00001   0.00005  -0.00708   0.00661
 103        5PZ         0.00048   0.00001  -0.00002   0.00547  -0.01288
 104        6PX         0.00003   0.01440  -0.01683  -0.00009   0.00025
 105        6PY        -0.00028  -0.00002  -0.00003   0.02261   0.15182
 106        6PZ        -0.00211   0.00005  -0.00004   0.03799   0.02101
 107        7PX         0.00015   0.00259   0.00878  -0.00001   0.00034
 108        7PY         0.01934   0.00001  -0.00010   0.04161   0.07227
 109        7PZ        -0.00104   0.00008   0.00012   0.06349   0.00830
 110        8D 0       -0.00094   0.00001  -0.00001   0.00255  -0.01082
 111        8D+1        0.00000   0.00138  -0.00290  -0.00001   0.00000
 112        8D-1        0.00006   0.00000   0.00000   0.00256  -0.00415
 113        8D+2       -0.00056   0.00000  -0.00001   0.00196  -0.00757
 114        8D-2        0.00000   0.00145  -0.00485  -0.00003   0.00007
 115        9D 0       -0.00087  -0.00001  -0.00001   0.00191  -0.00473
 116        9D+1        0.00002   0.00030  -0.00062  -0.00005  -0.00007
 117        9D-1       -0.00049   0.00003   0.00000   0.01148   0.02883
 118        9D+2        0.00060   0.00001   0.00004   0.00151  -0.02320
 119        9D-2        0.00000   0.00279   0.00385   0.00001   0.00006
 120 4   H  1S         -0.05197  -0.00001   0.00038  -0.03267  -0.17835
 121        2S         -0.08985  -0.00006   0.00050   0.09011  -0.56737
 122        3S         -0.16340   0.00005   0.00018   0.26424  -0.29284
 123        4S         -0.01597   0.00000  -0.00001   0.01210  -0.01145
 124        5PX        -0.00001   0.00425  -0.01017  -0.00007  -0.00006
 125        5PY         0.00265   0.00001  -0.00005   0.00708   0.00661
 126        5PZ        -0.00048   0.00001  -0.00002   0.00547   0.01288
 127        6PX        -0.00003   0.01440  -0.01683  -0.00009  -0.00025
 128        6PY        -0.00028   0.00002   0.00003  -0.02261   0.15182
 129        6PZ         0.00211   0.00005  -0.00004   0.03799  -0.02101
 130        7PX        -0.00015   0.00259   0.00878  -0.00001  -0.00034
 131        7PY         0.01934  -0.00001   0.00010  -0.04161   0.07227
 132        7PZ         0.00104   0.00008   0.00012   0.06349  -0.00830
 133        8D 0        0.00094   0.00001  -0.00001   0.00255   0.01082
 134        8D+1        0.00000   0.00138  -0.00290  -0.00001   0.00000
 135        8D-1        0.00006   0.00000   0.00000  -0.00256  -0.00415
 136        8D+2        0.00056   0.00000  -0.00001   0.00196   0.00757
 137        8D-2        0.00000  -0.00145   0.00485   0.00003   0.00007
 138        9D 0        0.00087  -0.00001  -0.00001   0.00191   0.00473
 139        9D+1       -0.00002   0.00030  -0.00062  -0.00005   0.00007
 140        9D-1       -0.00049  -0.00003   0.00000  -0.01148   0.02883
 141        9D+2       -0.00060   0.00001   0.00004   0.00151   0.02320
 142        9D-2        0.00000  -0.00279  -0.00385  -0.00001   0.00006
                          16        17        18        19        20
     Eigenvalues --     0.02024   0.01796   0.01698   0.01596   0.01328
   1 1   C  1S         -0.14783   0.00000   0.08754   0.00000   0.00062
   2        2S          0.56833   0.00000  -0.33262   0.00000  -0.00210
   3        3S          0.30499   0.00000  -0.19348   0.00000  -0.00127
   4        4S          0.14486   0.00000  -0.32894   0.00000  -0.00879
   5        5S         -0.03179   0.00000  -0.08507   0.00000  -0.00148
   6        6PX         0.00067   0.00000   0.00023   0.00000   0.08619
   7        6PY         0.00000   0.00101   0.00000   0.45431   0.00000
   8        6PZ        -0.31101   0.00000   0.02640   0.00000   0.00152
   9        7PX         0.00115   0.00000   0.00090   0.00000   0.10822
  10        7PY         0.00000   0.00172   0.00000   0.78096   0.00000
  11        7PZ        -0.55048   0.00000  -0.02738   0.00000   0.00202
  12        8PX         0.00037   0.00000   0.00061   0.00000   0.04426
  13        8PY         0.00000   0.00271   0.00000   0.55541   0.00000
  14        8PZ        -0.27385   0.00000   0.02279   0.00000   0.00328
  15        9PX         0.00008   0.00000   0.00010   0.00000  -0.01035
  16        9PY         0.00000   0.00039   0.00000   0.03105   0.00000
  17        9PZ        -0.02646   0.00000  -0.00953   0.00000   0.00001
  18       10D 0       -0.00410   0.00000   0.00538   0.00000  -0.00147
  19       10D+1       -0.00016   0.00000   0.00027   0.00000  -0.14651
  20       10D-1        0.00000  -0.00010   0.00000  -0.08615   0.00000
  21       10D+2        0.03237   0.00000   0.03786   0.00000   0.00069
  22       10D-2        0.00000   0.04318   0.00000   0.00042   0.00000
  23       11D 0       -0.05711   0.00000   0.01878   0.00000  -0.00222
  24       11D+1        0.00012   0.00000   0.00065   0.00000  -0.26549
  25       11D-1        0.00000  -0.00080   0.00000  -0.33388   0.00000
  26       11D+2        0.03852   0.00000   0.10534   0.00000   0.00227
  27       11D-2        0.00000   0.08474   0.00000   0.00052   0.00000
  28       12D 0       -0.06210   0.00000  -0.02338   0.00000   0.00250
  29       12D+1       -0.00031   0.00000   0.00023   0.00000  -0.04404
  30       12D-1        0.00000   0.00086   0.00000  -0.06884   0.00000
  31       12D+2       -0.04744   0.00000   0.01840   0.00000   0.00218
  32       12D-2        0.00000   0.00788   0.00000  -0.00014   0.00000
  33       13F 0       -0.01606   0.00000   0.00301   0.00000  -0.00075
  34       13F+1        0.00019   0.00000   0.00021   0.00000  -0.05007
  35       13F-1        0.00000   0.00024   0.00000  -0.02207   0.00000
  36       13F+2        0.01795   0.00000   0.02232   0.00000   0.00040
  37       13F-2        0.00000   0.02545   0.00000   0.00007   0.00000
  38       13F+3       -0.00021   0.00000  -0.00017   0.00000  -0.01080
  39       13F-3        0.00000  -0.00020   0.00000  -0.01947   0.00000
  40       14F 0       -0.01145   0.00000  -0.02145   0.00000  -0.00111
  41       14F+1        0.00020   0.00000   0.00015   0.00000  -0.02974
  42       14F-1        0.00000   0.00087   0.00000   0.00205   0.00000
  43       14F+2        0.02606   0.00000  -0.01073   0.00000  -0.00035
  44       14F-2        0.00000   0.01988   0.00000   0.00048   0.00000
  45       14F+3       -0.00005   0.00000  -0.00010   0.00000  -0.00283
  46       14F-3        0.00000  -0.00017   0.00000  -0.04840   0.00000
  47 2   S  1S          0.00173   0.00000   0.00488   0.00000   0.00000
  48        2S         -0.00459   0.00000  -0.04187   0.00000   0.00020
  49        3S          0.02165   0.00000   0.01207   0.00000   0.00030
  50        4S         -0.01013   0.00000   0.04108   0.00000  -0.00008
  51        5S          0.39752   0.00000   0.13273   0.00000  -0.00387
  52        6S          0.17398   0.00000   0.09513   0.00000  -0.00029
  53        7PX        -0.00006   0.00000  -0.00026   0.00000   0.03383
  54        7PY         0.00000   0.00004   0.00000   0.03594   0.00000
  55        7PZ        -0.01660   0.00000   0.04905   0.00000   0.00039
  56        8PX         0.00148   0.00000   0.00089   0.00000   0.00188
  57        8PY         0.00000  -0.00031   0.00000  -0.03753   0.00000
  58        8PZ        -0.11875   0.00000  -0.15886   0.00000   0.00000
  59        9PX        -0.00006   0.00000   0.00030   0.00000  -0.06226
  60        9PY         0.00000  -0.00003   0.00000  -0.05466   0.00000
  61        9PZ         0.03550   0.00000  -0.06006   0.00000  -0.00075
  62       10PX         0.00312   0.00000   0.00032   0.00000   0.19889
  63       10PY         0.00000  -0.00117   0.00000   0.04166   0.00000
  64       10PZ        -0.29682   0.00000  -0.07071   0.00000   0.00246
  65       11PX         0.00024   0.00000   0.00006   0.00000   0.02056
  66       11PY         0.00000  -0.00004   0.00000   0.02977   0.00000
  67       11PZ        -0.02614   0.00000  -0.01140   0.00000   0.00015
  68       12D 0        0.03997   0.00000   0.13366   0.00000   0.00514
  69       12D+1        0.00162   0.00000   0.00193   0.00000   0.44562
  70       12D-1        0.00000   0.00542   0.00000   0.40755   0.00000
  71       12D+2        0.15079   0.00000   0.56816   0.00000  -0.00288
  72       12D-2        0.00000   0.59560   0.00000  -0.00456   0.00000
  73       13D 0       -0.03733   0.00000   0.06246   0.00000   0.00484
  74       13D+1        0.00236   0.00000   0.00170   0.00000   0.42929
  75       13D-1        0.00000   0.00378   0.00000   0.29444   0.00000
  76       13D+2        0.10939   0.00000   0.41098   0.00000  -0.00274
  77       13D-2        0.00000   0.44182   0.00000  -0.00322   0.00000
  78       14D 0        0.06322   0.00000   0.03997   0.00000  -0.00067
  79       14D+1       -0.00110   0.00000  -0.00004   0.00000  -0.06820
  80       14D-1        0.00000   0.00095   0.00000   0.06082   0.00000
  81       14D+2        0.01565   0.00000   0.04547   0.00000   0.00027
  82       14D-2        0.00000   0.04839   0.00000  -0.00053   0.00000
  83       15F 0        0.00131   0.00000   0.00351   0.00000  -0.00092
  84       15F+1       -0.00039   0.00000  -0.00019   0.00000  -0.05987
  85       15F-1        0.00000  -0.00019   0.00000   0.00413   0.00000
  86       15F+2       -0.01499   0.00000  -0.02077   0.00000   0.00048
  87       15F-2        0.00000  -0.00728   0.00000  -0.00010   0.00000
  88       15F+3        0.00003   0.00000   0.00017   0.00000  -0.02177
  89       15F-3        0.00000   0.00005   0.00000  -0.00169   0.00000
  90       16F 0       -0.02824   0.00000  -0.01882   0.00000   0.00028
  91       16F+1        0.00054   0.00000  -0.00002   0.00000   0.02643
  92       16F-1        0.00000  -0.00031   0.00000  -0.02615   0.00000
  93       16F+2       -0.00838   0.00000  -0.02563   0.00000  -0.00031
  94       16F-2        0.00000  -0.01125   0.00000   0.00040   0.00000
  95       16F+3        0.00005   0.00000   0.00022   0.00000  -0.00913
  96       16F-3        0.00000   0.00008   0.00000   0.00123   0.00000
  97 3   H  1S         -0.23745   0.00014   0.06691   0.07864   0.00043
  98        2S         -0.59904   0.00177   0.23503   0.73126   0.00426
  99        3S         -0.29271   0.00157   0.11881   0.75196   0.00589
 100        4S         -0.01184   0.00040   0.00224   0.05175   0.00022
 101        5PX         0.00001  -0.00915  -0.00002  -0.00007   0.02596
 102        5PY         0.01829  -0.00004  -0.01061  -0.03337  -0.00026
 103        5PZ        -0.00468  -0.00002  -0.01184  -0.02008   0.00013
 104        6PX        -0.00005  -0.01388  -0.00008  -0.00035   0.03827
 105        6PY        -0.05570   0.00051   0.00090   0.10470   0.00014
 106        6PZ        -0.03958  -0.00036   0.01163   0.07089   0.00067
 107        7PX        -0.00021  -0.00117   0.00002  -0.00012  -0.00943
 108        7PY        -0.02122   0.00024   0.01955   0.12469  -0.00021
 109        7PZ        -0.04485   0.00044  -0.00682   0.07991   0.00200
 110        8D 0       -0.00767  -0.00005   0.00145   0.00401   0.00010
 111        8D+1        0.00000  -0.00327  -0.00002  -0.00004   0.00254
 112        8D-1        0.00602  -0.00006  -0.00552  -0.00919   0.00006
 113        8D+2       -0.00628  -0.00003   0.00586   0.01012   0.00020
 114        8D-2       -0.00001  -0.00777  -0.00006  -0.00007   0.01645
 115        9D 0        0.00355  -0.00010   0.00289  -0.00798  -0.00014
 116        9D+1        0.00004   0.00206  -0.00002   0.00016  -0.00185
 117        9D-1        0.00041  -0.00013  -0.00052   0.00493   0.00005
 118        9D+2        0.00962  -0.00005   0.00976  -0.00335   0.00025
 119        9D-2       -0.00009  -0.00023   0.00000  -0.00010  -0.00498
 120 4   H  1S         -0.23745  -0.00014   0.06691  -0.07864   0.00043
 121        2S         -0.59904  -0.00177   0.23503  -0.73126   0.00426
 122        3S         -0.29271  -0.00157   0.11881  -0.75196   0.00589
 123        4S         -0.01184  -0.00040   0.00224  -0.05175   0.00022
 124        5PX         0.00001   0.00915  -0.00002   0.00007   0.02596
 125        5PY        -0.01829  -0.00004   0.01061  -0.03337   0.00026
 126        5PZ        -0.00468   0.00002  -0.01184   0.02008   0.00013
 127        6PX        -0.00005   0.01388  -0.00008   0.00035   0.03827
 128        6PY         0.05570   0.00051  -0.00090   0.10470  -0.00014
 129        6PZ        -0.03958   0.00036   0.01163  -0.07089   0.00067
 130        7PX        -0.00021   0.00117   0.00002   0.00012  -0.00943
 131        7PY         0.02122   0.00024  -0.01955   0.12469   0.00021
 132        7PZ        -0.04485  -0.00044  -0.00682  -0.07991   0.00200
 133        8D 0       -0.00767   0.00005   0.00145  -0.00401   0.00010
 134        8D+1        0.00000   0.00327  -0.00002   0.00004   0.00254
 135        8D-1       -0.00602  -0.00006   0.00552  -0.00919  -0.00006
 136        8D+2       -0.00628   0.00003   0.00586  -0.01012   0.00020
 137        8D-2        0.00001  -0.00777   0.00006  -0.00007  -0.01645
 138        9D 0        0.00355   0.00010   0.00289   0.00798  -0.00014
 139        9D+1        0.00004  -0.00206  -0.00002  -0.00016  -0.00185
 140        9D-1       -0.00041  -0.00013   0.00052   0.00493  -0.00005
 141        9D+2        0.00962   0.00005   0.00976   0.00335   0.00025
 142        9D-2        0.00009  -0.00023   0.00000  -0.00010   0.00498
                          21        22        23        24        25
     Eigenvalues --     0.01199   0.01025   0.00818   0.00669   0.00645
   1 1   C  1S         -0.01091   0.00000  -0.03451  -0.00015   0.00000
   2        2S          0.01007   0.00000   0.12153   0.00052   0.00000
   3        3S         -0.00289   0.00000   0.11729   0.00046   0.00000
   4        4S          0.12419   0.00000  -0.09688  -0.00312   0.00000
   5        5S          0.06620   0.00000  -0.03739  -0.00050   0.00000
   6        6PX        -0.00033   0.00000   0.00073   0.39163   0.00000
   7        6PY         0.00000   0.14482   0.00000   0.00000  -0.00105
   8        6PZ         0.11611   0.00000  -0.12747   0.00300   0.00000
   9        7PX        -0.00088   0.00000   0.00064   0.46079   0.00000
  10        7PY         0.00000   0.42405   0.00000   0.00000   0.00007
  11        7PZ         0.26153   0.00000  -0.11848   0.00385   0.00000
  12        8PX         0.00063   0.00000  -0.00159  -0.18771   0.00000
  13        8PY         0.00000  -1.10738   0.00000   0.00000   0.00275
  14        8PZ        -0.28125   0.00000   0.36598   0.00085   0.00000
  15        9PX        -0.00008   0.00000  -0.00013  -0.01089   0.00000
  16        9PY         0.00000  -0.10746   0.00000   0.00000  -0.00064
  17        9PZ        -0.01260   0.00000   0.00613  -0.00014   0.00000
  18       10D 0       -0.18682   0.00000  -0.09187   0.00135   0.00000
  19       10D+1        0.00193   0.00000  -0.00004   0.08125   0.00000
  20       10D-1        0.00000  -0.02913   0.00000   0.00000   0.00161
  21       10D+2        0.00756   0.00000  -0.15595   0.00059   0.00000
  22       10D-2        0.00000   0.00008   0.00000   0.00000   0.30656
  23       11D 0       -0.28512   0.00000  -0.22360   0.00223   0.00000
  24       11D+1        0.00316   0.00000   0.00071   0.10825   0.00000
  25       11D-1        0.00000  -0.28150   0.00000   0.00000   0.00198
  26       11D+2        0.05850   0.00000  -0.31321   0.00176   0.00000
  27       11D-2        0.00000   0.00113   0.00000   0.00000   0.45774
  28       12D 0       -0.06788   0.00000   0.16325   0.00157   0.00000
  29       12D+1        0.00007   0.00000  -0.00046   0.07138   0.00000
  30       12D-1        0.00000   0.15789   0.00000   0.00000  -0.00043
  31       12D+2       -0.04170   0.00000   0.09028   0.00050   0.00000
  32       12D-2        0.00000   0.00088   0.00000   0.00000   0.04116
  33       13F 0       -0.04567   0.00000   0.01263   0.00082   0.00000
  34       13F+1        0.00083   0.00000   0.00003   0.06443   0.00000
  35       13F-1        0.00000   0.05026   0.00000   0.00000  -0.00016
  36       13F+2        0.00185   0.00000   0.01795  -0.00075   0.00000
  37       13F-2        0.00000  -0.00043   0.00000   0.00000  -0.02502
  38       13F+3       -0.00001   0.00000   0.00010  -0.02225   0.00000
  39       13F-3        0.00000  -0.01049   0.00000   0.00000  -0.00004
  40       14F 0       -0.05598   0.00000   0.01460  -0.00061   0.00000
  41       14F+1        0.00110   0.00000   0.00049  -0.00204   0.00000
  42       14F-1        0.00000  -0.15208   0.00000   0.00000   0.00107
  43       14F+2        0.01340   0.00000   0.01345  -0.00046   0.00000
  44       14F-2        0.00000   0.00138   0.00000   0.00000   0.07937
  45       14F+3        0.00014   0.00000   0.00052  -0.01939   0.00000
  46       14F-3        0.00000  -0.01948   0.00000   0.00000  -0.00043
  47 2   S  1S         -0.03305   0.00000   0.06197   0.00029   0.00000
  48        2S          0.13334   0.00000  -0.22397  -0.00091   0.00000
  49        3S         -0.34023   0.00000   0.77038   0.00384   0.00000
  50        4S         -0.20185   0.00000   0.53466   0.00262   0.00000
  51        5S          0.69289   0.00000  -1.34388  -0.00841   0.00000
  52        6S          0.17752   0.00000  -0.16346  -0.00097   0.00000
  53        7PX         0.00056   0.00000   0.00044  -0.20371   0.00000
  54        7PY         0.00000  -0.32071   0.00000   0.00000  -0.00014
  55        7PZ        -0.12891   0.00000  -0.08962  -0.00207   0.00000
  56        8PX        -0.00047   0.00000  -0.00005   0.34188   0.00000
  57        8PY         0.00000   0.59983   0.00000   0.00000   0.00012
  58        8PZ         0.12383   0.00000  -0.02636   0.00294   0.00000
  59        9PX        -0.00084   0.00000  -0.00083   0.37678   0.00000
  60        9PY         0.00000   0.60745   0.00000   0.00000   0.00030
  61        9PZ         0.20594   0.00000   0.17323   0.00401   0.00000
  62       10PX         0.00238   0.00000  -0.00107  -0.82258   0.00000
  63       10PY         0.00000  -0.86091   0.00000   0.00000  -0.00068
  64       10PZ        -0.39883   0.00000  -0.02852  -0.00459   0.00000
  65       11PX         0.00026   0.00000   0.00005  -0.02664   0.00000
  66       11PY         0.00000  -0.09838   0.00000   0.00000   0.00002
  67       11PZ        -0.03709   0.00000  -0.00279  -0.00011   0.00000
  68       12D 0       -0.35954   0.00000   0.03615   0.00145   0.00000
  69       12D+1        0.00446   0.00000   0.00097   0.22438   0.00000
  70       12D-1        0.00000  -0.28563   0.00000   0.00000  -0.00078
  71       12D+2        0.06169   0.00000   0.13539  -0.00176   0.00000
  72       12D-2        0.00000   0.00179   0.00000   0.00000  -0.17963
  73       13D 0       -0.35003   0.00000  -0.01779   0.00039   0.00000
  74       13D+1        0.00423   0.00000   0.00064   0.09837   0.00000
  75       13D-1        0.00000  -0.07581   0.00000   0.00000  -0.00034
  76       13D+2        0.05622   0.00000   0.04054  -0.00145   0.00000
  77       13D-2        0.00000   0.00047   0.00000   0.00000  -0.14646
  78       14D 0        0.09306   0.00000  -0.01167   0.00127   0.00000
  79       14D+1       -0.00112   0.00000   0.00047   0.15986   0.00000
  80       14D-1        0.00000   0.03561   0.00000   0.00000  -0.00030
  81       14D+2       -0.00049   0.00000   0.01363  -0.00102   0.00000
  82       14D-2        0.00000  -0.00046   0.00000   0.00000  -0.01994
  83       15F 0        0.06360   0.00000   0.00790   0.00097   0.00000
  84       15F+1       -0.00096   0.00000  -0.00005   0.08140   0.00000
  85       15F-1        0.00000   0.00487   0.00000   0.00000  -0.00100
  86       15F+2        0.00208   0.00000   0.00976  -0.00144   0.00000
  87       15F-2        0.00000  -0.00013   0.00000   0.00000  -0.09737
  88       15F+3       -0.00008   0.00000  -0.00009  -0.06211   0.00000
  89       15F-3        0.00000  -0.01440   0.00000   0.00000   0.00068
  90       16F 0        0.00509   0.00000   0.00739  -0.00096   0.00000
  91       16F+1       -0.00007   0.00000  -0.00015  -0.08108   0.00000
  92       16F-1        0.00000   0.04088   0.00000   0.00000   0.00028
  93       16F+2        0.00032   0.00000   0.00823   0.00086   0.00000
  94       16F-2        0.00000  -0.00028   0.00000   0.00000   0.01139
  95       16F+3       -0.00002   0.00000  -0.00016  -0.01436   0.00000
  96       16F-3        0.00000   0.01746   0.00000   0.00000  -0.00016
  97 3   H  1S          0.00983   0.01637   0.14384  -0.00059   0.00149
  98        2S          0.05662   0.26411  -0.10566   0.00288  -0.00023
  99        3S         -0.30565  -1.37237   0.12832   0.00251   0.00105
 100        4S         -0.02073  -0.12842   0.00442   0.00001  -0.00047
 101        5PX        -0.00026  -0.00003   0.00003  -0.00091  -0.09439
 102        5PY        -0.01830  -0.01432   0.02363  -0.00015   0.00068
 103        5PZ         0.02941  -0.00483   0.06149  -0.00048   0.00008
 104        6PX        -0.00040  -0.00066   0.00031  -0.09276  -0.20789
 105        6PY        -0.00755   0.08268  -0.01837   0.00060   0.00116
 106        6PZ         0.07165   0.15662   0.03256  -0.00021  -0.00092
 107        7PX        -0.00016   0.00023  -0.00005  -0.02206  -0.01491
 108        7PY        -0.03047  -0.25152  -0.03264  -0.00001   0.00110
 109        7PZ        -0.04948  -0.10365   0.11316   0.00079   0.00016
 110        8D 0        0.01279  -0.00169   0.01336  -0.00011  -0.00017
 111        8D+1        0.00001   0.00001   0.00005   0.00231  -0.03503
 112        8D-1        0.01193  -0.00124   0.02083  -0.00023   0.00005
 113        8D+2        0.01351  -0.00025  -0.00615  -0.00001  -0.00028
 114        8D-2       -0.00019   0.00001   0.00006  -0.00446  -0.05047
 115        9D 0       -0.00598   0.00507   0.00048  -0.00028  -0.00005
 116        9D+1        0.00023   0.00020   0.00018  -0.04045   0.01212
 117        9D-1        0.01901   0.05193   0.00740   0.00007   0.00003
 118        9D+2       -0.00400  -0.02279  -0.01089   0.00020  -0.00050
 119        9D-2       -0.00018  -0.00022  -0.00008  -0.02819  -0.02394
 120 4   H  1S          0.00983  -0.01637   0.14384  -0.00059  -0.00149
 121        2S          0.05662  -0.26411  -0.10566   0.00288   0.00023
 122        3S         -0.30565   1.37237   0.12832   0.00251  -0.00105
 123        4S         -0.02073   0.12842   0.00442   0.00001   0.00047
 124        5PX        -0.00026   0.00003   0.00003  -0.00091   0.09439
 125        5PY         0.01830  -0.01432  -0.02363   0.00015   0.00068
 126        5PZ         0.02941   0.00483   0.06149  -0.00048  -0.00008
 127        6PX        -0.00040   0.00066   0.00031  -0.09276   0.20789
 128        6PY         0.00755   0.08268   0.01837  -0.00060   0.00116
 129        6PZ         0.07165  -0.15662   0.03256  -0.00021   0.00092
 130        7PX        -0.00016  -0.00023  -0.00005  -0.02206   0.01491
 131        7PY         0.03047  -0.25152   0.03264   0.00001   0.00110
 132        7PZ        -0.04948   0.10365   0.11316   0.00079  -0.00016
 133        8D 0        0.01279   0.00169   0.01336  -0.00011   0.00017
 134        8D+1        0.00001  -0.00001   0.00005   0.00231   0.03503
 135        8D-1       -0.01193  -0.00124  -0.02083   0.00023   0.00005
 136        8D+2        0.01351   0.00025  -0.00615  -0.00001   0.00028
 137        8D-2        0.00019   0.00001  -0.00006   0.00446  -0.05047
 138        9D 0       -0.00598  -0.00507   0.00048  -0.00028   0.00005
 139        9D+1        0.00023  -0.00020   0.00018  -0.04045  -0.01212
 140        9D-1       -0.01901   0.05193  -0.00740  -0.00007   0.00003
 141        9D+2       -0.00400   0.02279  -0.01089   0.00020   0.00050
 142        9D-2        0.00018  -0.00022   0.00008   0.02819  -0.02394
                          26        27        28        29        30
     Eigenvalues --     0.00601   0.00489   0.00464   0.00354   0.00234
   1 1   C  1S          0.03562   0.00000   0.13062   0.00002  -0.01415
   2        2S         -0.11810   0.00000  -0.52382  -0.00029   0.07864
   3        3S         -0.12194   0.00000  -0.42123   0.00016   0.03954
   4        4S          0.32554   0.00000  -0.80015  -0.00588   0.91922
   5        5S          0.08683   0.00000  -0.38202  -0.00077   0.28433
   6        6PX        -0.00312   0.00000   0.00240   0.12411  -0.00027
   7        6PY         0.00000  -0.05942   0.00000   0.00000   0.00000
   8        6PZ         0.21692   0.00000  -0.39370  -0.00035   0.03866
   9        7PX        -0.00350   0.00000   0.00265   0.11511  -0.00098
  10        7PY         0.00000   0.08575   0.00000   0.00000   0.00000
  11        7PZ         0.27453   0.00000  -0.47117  -0.00073   0.11714
  12        8PX        -0.00083   0.00000   0.00124   0.43429  -0.00012
  13        8PY         0.00000   0.29368   0.00000   0.00000   0.00000
  14        8PZ         0.62358   0.00000  -0.23236   0.00400  -0.08640
  15        9PX        -0.00012   0.00000   0.00057   0.02185   0.00032
  16        9PY         0.00000   0.00385   0.00000   0.00000   0.00000
  17        9PZ         0.04613   0.00000  -0.09363   0.00004   0.01216
  18       10D 0        0.01842   0.00000  -0.18667   0.00265   0.06947
  19       10D+1        0.00070   0.00000   0.00185   0.32609   0.00010
  20       10D-1        0.00000   0.27407   0.00000   0.00000   0.00000
  21       10D+2        0.20094   0.00000   0.05903  -0.00107  -0.16247
  22       10D-2        0.00000  -0.00188   0.00000   0.00000   0.00000
  23       11D 0        0.10757   0.00000  -0.36430   0.00505   0.05294
  24       11D+1        0.00069   0.00000   0.00349   0.60423   0.00032
  25       11D-1        0.00000   0.56607   0.00000   0.00000   0.00000
  26       11D+2        0.44061   0.00000   0.07268  -0.00270  -0.36654
  27       11D-2        0.00000  -0.00305   0.00000   0.00000   0.00000
  28       12D 0        0.20112   0.00000   0.20004   0.00367  -0.26907
  29       12D+1       -0.00122   0.00000  -0.00092   0.13049   0.00062
  30       12D-1        0.00000   0.36378   0.00000   0.00000   0.00000
  31       12D+2        0.11236   0.00000   0.10609   0.00058  -0.29016
  32       12D-2        0.00000  -0.00337   0.00000   0.00000   0.00000
  33       13F 0       -0.02999   0.00000  -0.06135   0.00005  -0.10331
  34       13F+1       -0.00017   0.00000   0.00084  -0.01433  -0.00027
  35       13F-1        0.00000  -0.05986   0.00000   0.00000   0.00000
  36       13F+2       -0.01700   0.00000  -0.02851   0.00070  -0.19516
  37       13F-2        0.00000   0.00020   0.00000   0.00000   0.00000
  38       13F+3        0.00001   0.00000   0.00006   0.05899   0.00116
  39       13F-3        0.00000   0.01145   0.00000   0.00000   0.00000
  40       14F 0       -0.10391   0.00000  -0.11720   0.00146  -0.11014
  41       14F+1        0.00065   0.00000   0.00109   0.04665  -0.00090
  42       14F-1        0.00000  -0.00792   0.00000   0.00000   0.00000
  43       14F+2       -0.05714   0.00000  -0.08782   0.00016  -0.19940
  44       14F-2        0.00000  -0.00101   0.00000   0.00000   0.00000
  45       14F+3       -0.00006   0.00000   0.00099   0.02251   0.00144
  46       14F-3        0.00000   0.05206   0.00000   0.00000   0.00000
  47 2   S  1S          0.05119   0.00000   0.00486  -0.00005   0.00620
  48        2S         -0.16165   0.00000  -0.01710   0.00015  -0.02582
  49        3S          0.69797   0.00000   0.05156  -0.00089   0.11390
  50        4S          0.50822   0.00000  -0.01902  -0.00101   0.16412
  51        5S         -2.01362   0.00000   0.68823   0.00186  -0.31671
  52        6S         -0.36453   0.00000   0.69460   0.00082  -0.23169
  53        7PX         0.00231   0.00000  -0.00039   0.17175   0.00130
  54        7PY         0.00000  -0.06452   0.00000   0.00000   0.00000
  55        7PZ        -0.17349   0.00000  -0.00411   0.00154  -0.07975
  56        8PX        -0.00318   0.00000   0.00279  -0.28730  -0.00024
  57        8PY         0.00000  -0.03185   0.00000   0.00000   0.00000
  58        8PZ         0.23101   0.00000  -0.35494  -0.00228  -0.03329
  59        9PX        -0.00444   0.00000   0.00060  -0.34044  -0.00278
  60        9PY         0.00000   0.16226   0.00000   0.00000   0.00000
  61        9PZ         0.34270   0.00000   0.03255  -0.00309   0.16723
  62       10PX         0.00209   0.00000   0.00479  -0.01897  -0.00076
  63       10PY         0.00000  -0.98047   0.00000   0.00000   0.00000
  64       10PZ         0.30854   0.00000  -0.99444  -0.00225   0.35536
  65       11PX         0.00001   0.00000   0.00061  -0.00223  -0.00046
  66       11PY         0.00000  -0.06331   0.00000   0.00000   0.00000
  67       11PZ         0.02078   0.00000  -0.10221  -0.00012   0.04284
  68       12D 0       -0.19010   0.00000   0.66781   0.00653  -0.13596
  69       12D+1        0.00071   0.00000  -0.00799   0.45834   0.00350
  70       12D-1        0.00000   0.46355   0.00000   0.00000   0.00000
  71       12D+2       -0.04243   0.00000  -0.04499  -0.00358   0.14479
  72       12D-2        0.00000  -0.00204   0.00000   0.00000   0.00000
  73       13D 0       -0.14076   0.00000   0.38251   0.00415  -0.03129
  74       13D+1        0.00038   0.00000  -0.00519   0.31004   0.00238
  75       13D-1        0.00000   0.33233   0.00000   0.00000   0.00000
  76       13D+2       -0.14787   0.00000  -0.08848  -0.00241   0.17947
  77       13D-2        0.00000  -0.00156   0.00000   0.00000   0.00000
  78       14D 0       -0.09691   0.00000   0.28987   0.00204  -0.11368
  79       14D+1        0.00064   0.00000  -0.00279   0.11079   0.00155
  80       14D-1        0.00000   0.23544   0.00000   0.00000   0.00000
  81       14D+2        0.01853   0.00000  -0.00499  -0.00087   0.03662
  82       14D-2        0.00000  -0.00113   0.00000   0.00000   0.00000
  83       15F 0       -0.01584   0.00000   0.15198   0.00188   0.13512
  84       15F+1       -0.00075   0.00000  -0.00264   0.10537   0.00282
  85       15F-1        0.00000   0.16511   0.00000   0.00000   0.00000
  86       15F+2       -0.05989   0.00000  -0.04214  -0.00136   0.37924
  87       15F-2        0.00000  -0.00136   0.00000   0.00000   0.00000
  88       15F+3        0.00077   0.00000   0.00027   0.01722  -0.00231
  89       15F-3        0.00000  -0.01626   0.00000   0.00000   0.00000
  90       16F 0        0.03776   0.00000  -0.11089  -0.00169   0.07460
  91       16F+1       -0.00008   0.00000   0.00134  -0.08158  -0.00102
  92       16F-1        0.00000  -0.07013   0.00000   0.00000   0.00000
  93       16F+2        0.01275   0.00000  -0.03200   0.00067   0.04942
  94       16F-2        0.00000   0.00032   0.00000   0.00000   0.00000
  95       16F+3        0.00002   0.00000   0.00025  -0.01771  -0.00024
  96       16F-3        0.00000  -0.00810   0.00000   0.00000   0.00000
  97 3   H  1S         -0.10171   0.22324  -0.08976   0.00214  -0.29596
  98        2S          0.41337  -0.27239   0.05178  -0.00085  -0.13075
  99        3S          0.46092  -0.72679   0.04803   0.00113  -0.14548
 100        4S          0.01140  -0.01982  -0.01719   0.00005  -0.01163
 101        5PX        -0.00021   0.00061  -0.00036  -0.09397  -0.00020
 102        5PY        -0.03056   0.10264  -0.03053   0.00084  -0.03591
 103        5PZ        -0.05992   0.00389   0.02558  -0.00020  -0.01731
 104        6PX         0.00028   0.00137  -0.00005  -0.13536   0.00053
 105        6PY         0.06133   0.08179  -0.06341   0.00025  -0.00982
 106        6PZ         0.00978  -0.05524   0.03869  -0.00069  -0.08295
 107        7PX        -0.00001  -0.00155  -0.00026  -0.00809  -0.00010
 108        7PY         0.02304  -0.05704  -0.09898  -0.00064   0.13366
 109        7PZ         0.12426   0.03570   0.09269   0.00133  -0.13593
 110        8D 0       -0.01495  -0.02185   0.00753  -0.00018   0.00152
 111        8D+1       -0.00005   0.00019   0.00005  -0.01569   0.00006
 112        8D-1       -0.01816   0.01248   0.00719  -0.00005  -0.02230
 113        8D+2        0.01109  -0.02987   0.02042  -0.00044   0.00734
 114        8D-2       -0.00015   0.00036  -0.00017  -0.05124   0.00009
 115        9D 0       -0.00429  -0.01939  -0.01734   0.00010  -0.01304
 116        9D+1        0.00040  -0.00006   0.00055   0.00005  -0.00047
 117        9D-1        0.01658   0.02284   0.01339   0.00003  -0.00189
 118        9D+2        0.02501  -0.03179   0.03340   0.00004  -0.01164
 119        9D-2        0.00007   0.00020  -0.00037   0.01110   0.00020
 120 4   H  1S         -0.10171  -0.22324  -0.08976   0.00214  -0.29596
 121        2S          0.41337   0.27239   0.05178  -0.00085  -0.13075
 122        3S          0.46092   0.72679   0.04803   0.00113  -0.14548
 123        4S          0.01140   0.01982  -0.01719   0.00005  -0.01163
 124        5PX        -0.00021  -0.00061  -0.00036  -0.09397  -0.00020
 125        5PY         0.03056   0.10264   0.03053  -0.00084   0.03591
 126        5PZ        -0.05992  -0.00389   0.02558  -0.00020  -0.01731
 127        6PX         0.00028  -0.00137  -0.00005  -0.13536   0.00053
 128        6PY        -0.06133   0.08179   0.06341  -0.00025   0.00982
 129        6PZ         0.00978   0.05524   0.03869  -0.00069  -0.08295
 130        7PX        -0.00001   0.00155  -0.00026  -0.00809  -0.00010
 131        7PY        -0.02304  -0.05704   0.09898   0.00064  -0.13366
 132        7PZ         0.12426  -0.03570   0.09269   0.00133  -0.13593
 133        8D 0       -0.01495   0.02185   0.00753  -0.00018   0.00152
 134        8D+1       -0.00005  -0.00019   0.00005  -0.01569   0.00006
 135        8D-1        0.01816   0.01248  -0.00719   0.00005   0.02230
 136        8D+2        0.01109   0.02987   0.02042  -0.00044   0.00734
 137        8D-2        0.00015   0.00036   0.00017   0.05124  -0.00009
 138        9D 0       -0.00429   0.01939  -0.01734   0.00010  -0.01304
 139        9D+1        0.00040   0.00006   0.00055   0.00005  -0.00047
 140        9D-1       -0.01658   0.02284  -0.01339  -0.00003   0.00189
 141        9D+2        0.02501   0.03179   0.03340   0.00004  -0.01164
 142        9D-2       -0.00007   0.00020   0.00037  -0.01110  -0.00020
                          31        32        33        34        35
     Eigenvalues --     0.00208   0.00195   0.00194   0.00185   0.00154
   1 1   C  1S          0.00000   0.00000   0.04391   0.00000   0.00022
   2        2S          0.00000   0.00000  -0.19180   0.00000  -0.00085
   3        3S          0.00000   0.00000  -0.18326   0.00000  -0.00124
[...]
 137        8D-2        0.00479   0.00111  -0.16884  -0.00091  -0.00082
 138        9D 0        1.03181   0.50805   0.00559   0.29785   1.36465
 139        9D+1        0.02012  -0.00588   0.05713   0.00712  -0.00484
 140        9D-1       -0.61737   0.23815   0.00565  -1.21492  -0.36067
 141        9D+2       -0.11710   0.25402  -0.00130   0.45276   1.39229
 142        9D-2       -0.03698  -0.00878   1.10306   0.00538   0.01431
                         136       137       138       139       140
     Eigenvalues --     0.00000   0.00000   0.00000   0.00000   0.00000
   1 1   C  1S          0.00000   0.41782  -0.01049  -0.07394  -0.07856
   2        2S          0.00000   2.44974  -0.06242  -0.39876  -0.44188
   3        3S          0.00000  -0.10168   0.00248   0.05434   0.02095
   4        4S          0.00000  25.54567  -0.59877 -17.73309  -3.44279
   5        5S          0.00000  16.70487  -0.47566  -2.46074   4.70803
   6        6PX         0.00000  -0.00082  -0.02077  -0.00011  -0.00006
   7        6PY        -0.04141   0.00000   0.00000   0.00000   0.00000
   8        6PZ         0.00000   0.05438  -0.00167   0.01796   0.01112
   9        7PX         0.00000   0.01197   0.35597   0.00240  -0.00053
  10        7PY         2.92136   0.00000   0.00000   0.00000   0.00000
  11        7PZ         0.00000  -2.07856   0.05999   0.28892   0.32600
  12        8PX         0.00000   0.01754   0.00612   0.01994  -0.04383
  13        8PY        16.86807   0.00000   0.00000   0.00000   0.00000
  14        8PZ         0.00000  -8.26652   0.25175   0.43309   9.10791
  15        9PX         0.00000  -0.09373  -2.90234  -0.00231  -0.02853
  16        9PY         6.51883   0.00000   0.00000   0.00000   0.00000
  17        9PZ         0.00000  -0.79404   0.02181  -1.74216   5.75177
  18       10D 0        0.00000   0.00068  -0.00004   0.00306  -0.01205
  19       10D+1        0.00000  -0.00015  -0.00038   0.00000   0.00015
  20       10D-1       -0.08458   0.00000   0.00000   0.00000   0.00000
  21       10D+2        0.00000  -0.14585   0.00462   0.00876   0.01163
  22       10D-2        0.00047   0.00000   0.00000   0.00000   0.00000
  23       11D 0        0.00000   0.10272  -0.00893  -0.29579   0.23282
  24       11D+1        0.00000  -0.00986  -0.28494   0.00361  -0.00192
  25       11D-1       -1.77539   0.00000   0.00000   0.00000   0.00000
  26       11D+2        0.00000  -1.19294   0.02651   0.52445   0.32968
  27       11D-2       -0.00686   0.00000   0.00000   0.00000   0.00000
  28       12D 0        0.00000   3.87443  -0.19423   0.82446   1.84710
  29       12D+1        0.00000  -0.05845  -2.65678   0.00008  -0.01438
  30       12D-1       -7.07390   0.00000   0.00000   0.00000   0.00000
  31       12D+2        0.00000   0.82878  -0.04239   0.98803   0.97235
  32       12D-2        0.02178   0.00000   0.00000   0.00000   0.00000
  33       13F 0        0.00000   0.09507  -0.00298   0.01588  -0.00255
  34       13F+1        0.00000   0.00095   0.01522  -0.00005   0.00004
  35       13F-1        0.06605   0.00000   0.00000   0.00000   0.00000
  36       13F+2        0.00000   0.13407  -0.00428  -0.02675  -0.01793
  37       13F-2       -0.00059   0.00000   0.00000   0.00000   0.00000
  38       13F+3        0.00000   0.00047  -0.00483  -0.00016  -0.00019
  39       13F-3       -0.06971   0.00000   0.00000   0.00000   0.00000
  40       14F 0        0.00000  -0.18007   0.01165  -0.62118  -0.02364
  41       14F+1        0.00000  -0.00252   0.02566   0.00485  -0.00128
  42       14F-1       -0.36051   0.00000   0.00000   0.00000   0.00000
  43       14F+2        0.00000   0.26024  -0.00251  -0.24362  -0.11031
  44       14F-2        0.00864   0.00000   0.00000   0.00000   0.00000
  45       14F+3        0.00000  -0.00580  -0.01827   0.00215   0.00083
  46       14F-3       -0.16557   0.00000   0.00000   0.00000   0.00000
  47 2   S  1S          0.00000   0.01507  -0.00056   0.01318   0.00273
  48        2S          0.00000   0.19881  -0.00779   0.20495   0.02021
  49        3S          0.00000   0.62850  -0.02388   0.57752   0.10696
  50        4S          0.00000   0.03051  -0.00044  -0.08686   0.10212
  51        5S          0.00000  -2.91477   0.11712   1.97494  -5.67208
  52        6S          0.00000  -9.82560   0.28813  -2.54305 -16.02411
  53        7PX         0.00000   0.00059   0.00378   0.00040   0.00005
  54        7PY        -0.00623   0.00000   0.00000   0.00000   0.00000
  55        7PZ         0.00000  -0.00310   0.00021  -0.04209  -0.00479
  56        8PX         0.00000   0.00828  -0.02344   0.00842   0.00012
  57        8PY        -0.08442   0.00000   0.00000   0.00000   0.00000
  58        8PZ         0.00000  -0.23463   0.00960  -1.04119   0.03952
  59        9PX         0.00000  -0.00184  -0.01894  -0.00099  -0.00021
  60        9PY         0.03195   0.00000   0.00000   0.00000   0.00000
  61        9PZ         0.00000  -0.03343   0.00089   0.08578   0.02907
  62       10PX         0.00000   0.00133   2.17460  -0.00486  -0.04169
  63       10PY         4.10643   0.00000   0.00000   0.00000   0.00000
  64       10PZ         0.00000   3.84944  -0.09943   0.37548   6.63971
  65       11PX         0.00000   0.06474   2.74391  -0.00254  -0.01567
  66       11PY        -0.57471   0.00000   0.00000   0.00000   0.00000
  67       11PZ         0.00000   2.86080  -0.07666   2.73076   2.27329
  68       12D 0        0.00000  -0.30943   0.00738   0.67992  -0.29766
  69       12D+1        0.00000   0.00444   0.12317  -0.00698   0.00265
  70       12D-1       -0.30524   0.00000   0.00000   0.00000   0.00000
  71       12D+2        0.00000  -0.05694   0.00076   0.02163  -0.02308
  72       12D-2        0.00133   0.00000   0.00000   0.00000   0.00000
  73       13D 0        0.00000   0.06380  -0.00199  -0.05053   0.02448
  74       13D+1        0.00000  -0.00236  -0.04628   0.00015  -0.00020
  75       13D-1       -0.00740   0.00000   0.00000   0.00000   0.00000
  76       13D+2        0.00000   0.01653  -0.00034   0.00130   0.00829
  77       13D-2        0.00006   0.00000   0.00000   0.00000   0.00000
  78       14D 0        0.00000  -1.47704   0.02169  -1.16443  -1.53412
  79       14D+1        0.00000  -0.02201  -1.87498   0.01009   0.01688
  80       14D-1       -1.90898   0.00000   0.00000   0.00000   0.00000
  81       14D+2        0.00000   0.21138   0.00595   0.22022  -0.05481
  82       14D-2        0.01234   0.00000   0.00000   0.00000   0.00000
  83       15F 0        0.00000  -0.05835   0.00098  -0.03522  -0.01645
  84       15F+1        0.00000   0.00087  -0.02623   0.00086   0.00023
  85       15F-1        0.00419   0.00000   0.00000   0.00000   0.00000
  86       15F+2        0.00000   0.01151   0.00007   0.01327  -0.00911
  87       15F-2        0.00014   0.00000   0.00000   0.00000   0.00000
  88       15F+3        0.00000   0.00027   0.00444   0.00000   0.00009
  89       15F-3        0.02821   0.00000   0.00000   0.00000   0.00000
  90       16F 0        0.00000   0.38387  -0.00605  -0.01346   0.13677
  91       16F+1        0.00000  -0.00098   0.23008  -0.00052  -0.00181
  92       16F-1        0.28733   0.00000   0.00000   0.00000   0.00000
  93       16F+2        0.00000  -0.12660   0.00175  -0.11748   0.03897
  94       16F-2       -0.00284   0.00000   0.00000   0.00000   0.00000
  95       16F+3        0.00000   0.00017  -0.01542   0.00039  -0.00035
  96       16F-3       -0.08088   0.00000   0.00000   0.00000   0.00000
  97 3   H  1S         -0.05078   0.10132  -0.00322  -0.01929  -0.01665
  98        2S          3.68726  -3.73462   0.09247   1.50446   0.92217
  99        3S         29.56398 -11.82872   0.26355   9.34127   8.10437
 100        4S          5.26493  -1.31109   0.03824   0.59310   2.12680
 101        5PX         0.00059   0.00298   0.07590  -0.00020  -0.00004
 102        5PY        -0.11360   0.06777  -0.00220  -0.03485  -0.02792
 103        5PZ        -0.07424   0.04146  -0.00015   0.00047  -0.01672
 104        6PX        -0.00761  -0.01677  -0.39501   0.00081   0.00078
 105        6PY         1.75591  -2.06929   0.05840   0.63291   0.41535
 106        6PZ         1.41756  -0.94036   0.01724   0.38962   0.24718
 107        7PX         0.00648  -0.02900  -0.96035  -0.01061   0.00527
 108        7PY         5.04542  -5.05600   0.15617   2.03061   1.66226
 109        7PZ         3.44102   2.36002  -0.13250   3.77300   1.09479
 110        8D 0       -0.03317  -0.03492   0.00094  -0.01430   0.00970
 111        8D+1       -0.00005   0.00085  -0.00620   0.00030  -0.00014
 112        8D-1        0.05143  -0.17231   0.00602  -0.02227   0.01356
 113        8D+2       -0.12472   0.12179  -0.00321   0.01415  -0.01565
 114        8D-2        0.00030   0.00212   0.07391   0.00031  -0.00016
 115        9D 0        0.21072   0.49780  -0.01577   0.00004  -0.07612
 116        9D+1       -0.00106  -0.00755   0.01990   0.00021   0.00112
 117        9D-1        0.86860  -0.00649  -0.01010   0.54532   0.08502
 118        9D+2        0.11593   0.60176  -0.02087  -0.15953  -0.05972
 119        9D-2       -0.00569  -0.01459  -0.50612  -0.00293   0.00099
 120 4   H  1S          0.05078   0.10132  -0.00322  -0.01929  -0.01665
 121        2S         -3.68726  -3.73462   0.09247   1.50446   0.92217
 122        3S        -29.56398 -11.82872   0.26355   9.34127   8.10437
 123        4S         -5.26493  -1.31109   0.03824   0.59310   2.12680
 124        5PX        -0.00059   0.00298   0.07590  -0.00020  -0.00004
 125        5PY        -0.11360  -0.06777   0.00220   0.03485   0.02792
 126        5PZ         0.07424   0.04146  -0.00015   0.00047  -0.01672
 127        6PX         0.00761  -0.01677  -0.39501   0.00081   0.00078
 128        6PY         1.75591   2.06929  -0.05840  -0.63291  -0.41535
 129        6PZ        -1.41756  -0.94036   0.01724   0.38962   0.24718
 130        7PX        -0.00648  -0.02900  -0.96035  -0.01061   0.00527
 131        7PY         5.04542   5.05600  -0.15617  -2.03061  -1.66226
 132        7PZ        -3.44102   2.36002  -0.13250   3.77300   1.09479
 133        8D 0        0.03317  -0.03492   0.00094  -0.01430   0.00970
 134        8D+1        0.00005   0.00085  -0.00620   0.00030  -0.00014
 135        8D-1        0.05143   0.17231  -0.00602   0.02227  -0.01356
 136        8D+2        0.12472   0.12179  -0.00321   0.01415  -0.01565
 137        8D-2        0.00030  -0.00212  -0.07391  -0.00031   0.00016
 138        9D 0       -0.21072   0.49780  -0.01577   0.00004  -0.07612
 139        9D+1        0.00106  -0.00755   0.01990   0.00021   0.00112
 140        9D-1        0.86860   0.00649   0.01010  -0.54532  -0.08502
 141        9D+2       -0.11593   0.60176  -0.02087  -0.15953  -0.05972
 142        9D-2       -0.00569   0.01459   0.50612   0.00293  -0.00099
                         141       142
     Eigenvalues --     0.00000   0.00000
   1 1   C  1S          0.00000  -0.00351
   2        2S          0.00000  -0.00735
   3        3S          0.00000   0.04599
   4        4S          0.00000   8.09551
   5        5S          0.00000  16.08514
   6        6PX         0.00000  -0.00013
   7        6PY        -0.00790   0.00000
   8        6PZ         0.00000   0.00390
   9        7PX         0.00000   0.00023
  10        7PY        -0.16326   0.00000
  11        7PZ         0.00000  -0.06850
  12        8PX         0.00000  -0.01477
  13        8PY        -5.08988   0.00000
  14        8PZ         0.00000   1.14716
  15        9PX         0.00000  -0.01427
  16        9PY        -5.27099   0.00000
  17        9PZ         0.00000   1.19760
  18       10D 0        0.00000   0.00940
  19       10D+1        0.00000  -0.00013
  20       10D-1       -0.01480   0.00000
  21       10D+2        0.00000  -0.01267
  22       10D-2        0.00015   0.00000
  23       11D 0        0.00000  -0.08471
  24       11D+1        0.00000   0.00090
  25       11D-1        0.12846   0.00000
  26       11D+2        0.00000   0.01916
  27       11D-2       -0.00125   0.00000
  28       12D 0        0.00000   0.42423
  29       12D+1        0.00000  -0.00381
  30       12D-1       -0.92223   0.00000
  31       12D+2        0.00000  -0.36869
  32       12D-2        0.01176   0.00000
  33       13F 0        0.00000  -0.01197
  34       13F+1        0.00000   0.00009
  35       13F-1        0.00470   0.00000
  36       13F+2        0.00000  -0.00520
  37       13F-2        0.00016   0.00000
  38       13F+3        0.00000   0.00019
  39       13F-3        0.00389   0.00000
  40       14F 0        0.00000   0.02229
  41       14F+1        0.00000  -0.00055
  42       14F-1       -0.09487   0.00000
  43       14F+2        0.00000  -0.04649
  44       14F-2        0.00091   0.00000
  45       14F+3        0.00000  -0.00042
  46       14F-3       -0.01307   0.00000
  47 2   S  1S          0.00000   0.00305
  48        2S          0.00000   0.04720
  49        3S          0.00000   0.13325
  50        4S          0.00000  -0.01479
  51        5S          0.00000  -1.74574
  52        6S          0.00000  -8.69160
  53        7PX         0.00000   0.00002
  54        7PY        -0.00567   0.00000
  55        7PZ         0.00000  -0.00282
  56        8PX         0.00000   0.00040
  57        8PY        -0.04872   0.00000
  58        8PZ         0.00000  -0.04475
  59        9PX         0.00000  -0.00009
  60        9PY         0.02453   0.00000
  61        9PZ         0.00000   0.01205
  62       10PX         0.00000  -0.01686
  63       10PY         1.28917   0.00000
  64       10PZ         0.00000   2.29561
  65       11PX         0.00000  -0.01407
  66       11PY         0.52614   0.00000
  67       11PZ         0.00000   2.30302
  68       12D 0        0.00000  -0.04485
  69       12D+1        0.00000   0.00088
  70       12D-1       -0.08096   0.00000
  71       12D+2        0.00000   0.03439
  72       12D-2       -0.00013   0.00000
  73       13D 0        0.00000   0.00717
  74       13D+1        0.00000  -0.00017
  75       13D-1        0.00212   0.00000
  76       13D+2        0.00000  -0.00793
  77       13D-2        0.00017   0.00000
  78       14D 0        0.00000  -0.63256
  79       14D+1        0.00000   0.00790
  80       14D-1       -0.44306   0.00000
  81       14D+2        0.00000  -0.07958
  82       14D-2        0.00476   0.00000
  83       15F 0        0.00000  -0.01523
  84       15F+1        0.00000   0.00023
  85       15F-1       -0.00041   0.00000
  86       15F+2        0.00000  -0.00622
  87       15F-2        0.00010   0.00000
  88       15F+3        0.00000   0.00003
  89       15F-3       -0.00350   0.00000
  90       16F 0        0.00000   0.06418
  91       16F+1        0.00000  -0.00114
  92       16F-1        0.03704   0.00000
  93       16F+2        0.00000   0.01291
  94       16F-2       -0.00071   0.00000
  95       16F+3        0.00000   0.00012
  96       16F-3        0.02137   0.00000
  97 3   H  1S         -0.01339  -0.01305
  98        2S         -0.03904   0.17939
  99        3S         -8.35874  -4.87375
 100        4S         -8.18307  -2.43979
 101        5PX         0.00007  -0.00002
 102        5PY         0.02109   0.00819
 103        5PZ         0.00578   0.01563
 104        6PX        -0.00092   0.00040
 105        6PY        -0.25851  -0.09140
 106        6PZ        -0.08554  -0.15246
 107        7PX         0.00815   0.00193
 108        7PY        -2.57808  -1.16577
 109        7PZ        -2.32376  -0.99082
 110        8D 0        0.00739   0.00640
 111        8D+1       -0.00011   0.00004
 112        8D-1        0.01217   0.01122
 113        8D+2       -0.02574  -0.00072
 114        8D-2       -0.00019  -0.00004
 115        9D 0       -0.01652  -0.04549
 116        9D+1        0.00045  -0.00017
 117        9D-1       -0.18941  -0.19850
 118        9D+2        0.23903   0.07410
 119        9D-2       -0.00011   0.00095
 120 4   H  1S          0.01339  -0.01305
 121        2S          0.03904   0.17939
 122        3S          8.35874  -4.87375
 123        4S          8.18307  -2.43979
 124        5PX        -0.00007  -0.00002
 125        5PY         0.02109  -0.00819
 126        5PZ        -0.00578   0.01563
 127        6PX         0.00092   0.00040
 128        6PY        -0.25851   0.09140
 129        6PZ         0.08554  -0.15246
 130        7PX        -0.00815   0.00193
 131        7PY        -2.57808   1.16577
 132        7PZ         2.32376  -0.99082
 133        8D 0       -0.00739   0.00640
 134        8D+1        0.00011   0.00004
 135        8D-1        0.01217  -0.01122
 136        8D+2        0.02574  -0.00072
 137        8D-2       -0.00019   0.00004
 138        9D 0        0.01652  -0.04549
 139        9D+1       -0.00045  -0.00017
 140        9D-1       -0.18941   0.19850
 141        9D+2       -0.23903   0.07410
 142        9D-2       -0.00011  -0.00095
          Condensed to atoms (all electrons):
              1          2          3          4
     1  C    6.185044   0.274403   0.183320   0.183320
     2  S    0.274403  16.028269  -0.118599  -0.118599
     3  H    0.183320  -0.118599   0.649803  -0.160304
     4  H    0.183320  -0.118599  -0.160304   0.649803
 Mulliken atomic charges:
              1
     1  C   -0.826087
     2  S   -0.065474
     3  H    0.445780
     4  H    0.445780
 Sum of Mulliken atomic charges =   0.00000
 Mulliken charges with hydrogens summed into heavy atoms:
              1
     1  C    0.065474
     2  S   -0.065474
 Sum of Mulliken charges with hydrogens summed into heavy atoms =   0.00000
 Electronic spatial extent (au):  <R**2>=            130.2916
 Charge=              0.0000 electrons
 Dipole moment (field-independent basis, Debye):
    X=              0.0059    Y=              0.0000    Z=             -1.7524  Tot=              1.7524
 Quadrupole moment (field-independent basis, Debye-Ang):
   XX=            -19.9781   YY=            -20.5754   ZZ=            -18.9724
   XY=              0.0000   XZ=              0.0031   YZ=              0.0000
 Traceless Quadrupole moment (field-independent basis, Debye-Ang):
   XX=             -0.1361   YY=             -0.7334   ZZ=              0.8695
   XY=              0.0000   XZ=              0.0031   YZ=              0.0000
 Octapole moment (field-independent basis, Debye-Ang**2):
  XXX=              0.3774  YYY=              0.0000  ZZZ=            -27.6811  XYY=              0.1484
  XXY=              0.0000  XXZ=             -8.5634  XZZ=              0.1236  YZZ=              0.0000
  YYZ=            -13.1333  XYZ=              0.0000
 Hexadecapole moment (field-independent basis, Debye-Ang**3):
 XXXX=            -25.3250 YYYY=            -35.1168 ZZZZ=           -127.3605 XXXY=              0.0000
 XXXZ=              0.3821 YYYX=              0.0000 YYYZ=              0.0000 ZZZX=              0.3959
 ZZZY=              0.0000 XXYY=            -10.5032 XXZZ=            -25.3335 YYZZ=            -29.5531
 XXYZ=              0.0000 YYXZ=              0.1654 ZZXY=              0.0000
 N-N= 4.470331663687D+01 E-N=-1.127362134346D+03  KE= 4.368673154234D+02
 1\1\GINC-TRAPISTA\SP\RQCISD-FC\Aug-CC-pVTZ\C1H2S1\BRUNS\17-Nov-2021\0\
 \# qcisd/aug-cc-pvtz nosymm density=current output=wfn\\h2cs-wavefunct
 ion\\0,1\C,0,0.,0.,-0.555291\S,0,-0.01,0.,1.060374\H,0,0.,-0.92228,-1.
 128992\H,0,0.,0.92228,-1.128992\\Version=EM64L-G09RevB.01\HF=-436.5575
 866\MP2=-436.8984575\MP3=-436.9212695\MP4D=-436.9312894\MP4DQ=-436.919
 626\MP4SDQ=-436.9231088\QCISD=-436.9235136\RMSD=6.209e-09\Dipole=0.002
 3028,0.,-0.6894603\Quadrupole=-0.1012052,-0.5452834,0.6464887,0.,0.002
 3174,0.\PG=CS [SG(C1S1),X(H2)]\\@

 Writing a WFN file to GAUSSIAN.wfn.


 A MAN BEGINS CUTTING HIS WISDOM TEETH THE 1ST
 TIME HE BITES OFF MORE THAN HE CAN CHEW.
 Job cpu time:  0 days  0 hours 22 minutes 16.8 seconds.
 File lengths (MBytes):  RWF=   5923 Int=      0 D2E=      0 Chk=      2 Scr=      1
 Normal termination of Gaussian 09 at Wed Nov 17 17:12:06 2021.
