 h2cs-wavefunction
GAUSSIAN            142 MOL ORBITALS    240 PRIMITIVES        4 NUCLEI
  C    1    (CENTRE  1)   0.00000000  0.00000000 -1.04934791  CHARGE =  6.0
  S    2    (CENTRE  2)   0.00000000  0.00000000  2.00381646  CHARGE = 16.0
  H    3    (CENTRE  3)   0.00000000 -1.74285662 -2.13348569  CHARGE =  1.0
  H    4    (CENTRE  4)  -0.01889726  1.74285662 -2.13348569  CHARGE =  1.0
CENTRE ASSIGNMENTS    1  1  1  1  1  1  1  1  1  1  1  1  1  1  1  1  1  1  1  1
CENTRE ASSIGNMENTS    1  1  1  1  1  1  1  1  1  1  1  1  1  1  1  1  1  1  1  1
CENTRE ASSIGNMENTS    1  1  1  1  1  1  1  1  1  1  1  1  1  1  1  1  1  1  1  1
CENTRE ASSIGNMENTS    1  1  1  1  1  1  1  1  1  1  1  1  2  2  2  2  2  2  2  2
CENTRE ASSIGNMENTS    2  2  2  2  2  2  2  2  2  2  2  2  2  2  2  2  2  2  2  2
CENTRE ASSIGNMENTS    2  2  2  2  2  2  2  2  2  2  2  2  2  2  2  2  2  2  2  2
CENTRE ASSIGNMENTS    2  2  2  2  2  2  2  2  2  2  2  2  2  2  2  2  2  2  2  2
CENTRE ASSIGNMENTS    2  2  2  2  2  2  2  2  2  2  2  2  2  2  2  2  2  2  2  2
CENTRE ASSIGNMENTS    2  2  2  2  2  2  2  2  2  2  2  2  2  2  2  2  2  2  2  2
CENTRE ASSIGNMENTS    2  2  2  2  2  2  3  3  3  3  3  3  3  3  3  3  3  3  3  3
CENTRE ASSIGNMENTS    3  3  3  3  3  3  3  3  3  3  3  3  3  4  4  4  4  4  4  4
CENTRE ASSIGNMENTS    4  4  4  4  4  4  4  4  4  4  4  4  4  4  4  4  4  4  4  4
TYPE ASSIGNMENTS      1  1  1  1  1  1  1  1  1  1  1  1  1  1  1  1  2  2  2  3
TYPE ASSIGNMENTS      3  3  4  4  4  2  3  4  2  3  4  2  3  4  5  6  7  8  9 10
TYPE ASSIGNMENTS      5  6  7  8  9 10  5  6  7  8  9 10 11 12 13 17 14 15 18 19
TYPE ASSIGNMENTS     16 20 11 12 13 17 14 15 18 19 16 20  1  1  1  1  1  1  1  1
TYPE ASSIGNMENTS      1  1  1  1  1  1  1  1  1  1  1  1  1  1  1  1  1  1  1  1
TYPE ASSIGNMENTS      1  1  1  2  2  2  2  2  2  3  3  3  3  3  3  4  4  4  4  4
TYPE ASSIGNMENTS      4  2  2  2  2  2  2  3  3  3  3  3  3  4  4  4  4  4  4  2
TYPE ASSIGNMENTS      3  4  2  3  4  2  3  4  5  6  7  8  9 10  5  6  7  8  9 10
TYPE ASSIGNMENTS      5  6  7  8  9 10 11 12 13 17 14 15 18 19 16 20 11 12 13 17
TYPE ASSIGNMENTS     14 15 18 19 16 20  1  1  1  1  1  1  2  3  4  2  3  4  2  3
TYPE ASSIGNMENTS      4  5  6  7  8  9 10  5  6  7  8  9 10  1  1  1  1  1  1  2
TYPE ASSIGNMENTS      3  4  2  3  4  2  3  4  5  6  7  8  9 10  5  6  7  8  9 10
EXPONENTS  0.8236000D+04 0.1235000D+04 0.2808000D+03 0.7927000D+02 0.2559000D+02
EXPONENTS  0.8997000D+01 0.3319000D+01 0.2808000D+03 0.7927000D+02 0.2559000D+02
EXPONENTS  0.8997000D+01 0.3319000D+01 0.3643000D+00 0.9059000D+00 0.1285000D+00
EXPONENTS  0.4402000D-01 0.1871000D+02 0.4133000D+01 0.1200000D+01 0.1871000D+02
EXPONENTS  0.4133000D+01 0.1200000D+01 0.1871000D+02 0.4133000D+01 0.1200000D+01
EXPONENTS  0.3827000D+00 0.3827000D+00 0.3827000D+00 0.1209000D+00 0.1209000D+00
EXPONENTS  0.1209000D+00 0.3569000D-01 0.3569000D-01 0.3569000D-01 0.1097000D+01
EXPONENTS  0.1097000D+01 0.1097000D+01 0.1097000D+01 0.1097000D+01 0.1097000D+01
EXPONENTS  0.3180000D+00 0.3180000D+00 0.3180000D+00 0.3180000D+00 0.3180000D+00
EXPONENTS  0.3180000D+00 0.1000000D+00 0.1000000D+00 0.1000000D+00 0.1000000D+00
EXPONENTS  0.1000000D+00 0.1000000D+00 0.7610000D+00 0.7610000D+00 0.7610000D+00
EXPONENTS  0.7610000D+00 0.7610000D+00 0.7610000D+00 0.7610000D+00 0.7610000D+00
EXPONENTS  0.7610000D+00 0.7610000D+00 0.2680000D+00 0.2680000D+00 0.2680000D+00
EXPONENTS  0.2680000D+00 0.2680000D+00 0.2680000D+00 0.2680000D+00 0.2680000D+00
EXPONENTS  0.2680000D+00 0.2680000D+00 0.3741000D+06 0.5605000D+05 0.1276000D+05
EXPONENTS  0.3615000D+04 0.1183000D+04 0.4288000D+03 0.1678000D+03 0.6947000D+02
EXPONENTS  0.2984000D+02 0.1272000D+02 0.5244000D+01 0.3615000D+04 0.1183000D+04
EXPONENTS  0.4288000D+03 0.1678000D+03 0.6947000D+02 0.2984000D+02 0.1272000D+02
EXPONENTS  0.5244000D+01 0.2219000D+01 0.1183000D+04 0.1678000D+03 0.6947000D+02
EXPONENTS  0.2984000D+02 0.1272000D+02 0.5244000D+01 0.2219000D+01 0.3490000D+00
EXPONENTS  0.7767000D+00 0.1322000D+00 0.4970000D-01 0.5744000D+03 0.1358000D+03
EXPONENTS  0.4319000D+02 0.1587000D+02 0.6208000D+01 0.2483000D+01 0.5744000D+03
EXPONENTS  0.1358000D+03 0.4319000D+02 0.1587000D+02 0.6208000D+01 0.2483000D+01
EXPONENTS  0.5744000D+03 0.1358000D+03 0.4319000D+02 0.1587000D+02 0.6208000D+01
EXPONENTS  0.2483000D+01 0.1358000D+03 0.4319000D+02 0.1587000D+02 0.6208000D+01
EXPONENTS  0.2483000D+01 0.3229000D+00 0.1358000D+03 0.4319000D+02 0.1587000D+02
EXPONENTS  0.6208000D+01 0.2483000D+01 0.3229000D+00 0.1358000D+03 0.4319000D+02
EXPONENTS  0.1587000D+02 0.6208000D+01 0.2483000D+01 0.3229000D+00 0.8688000D+00
EXPONENTS  0.8688000D+00 0.8688000D+00 0.1098000D+00 0.1098000D+00 0.1098000D+00
EXPONENTS  0.3510000D-01 0.3510000D-01 0.3510000D-01 0.2690000D+00 0.2690000D+00
EXPONENTS  0.2690000D+00 0.2690000D+00 0.2690000D+00 0.2690000D+00 0.8190000D+00
EXPONENTS  0.8190000D+00 0.8190000D+00 0.8190000D+00 0.8190000D+00 0.8190000D+00
EXPONENTS  0.1010000D+00 0.1010000D+00 0.1010000D+00 0.1010000D+00 0.1010000D+00
EXPONENTS  0.1010000D+00 0.5570000D+00 0.5570000D+00 0.5570000D+00 0.5570000D+00
EXPONENTS  0.5570000D+00 0.5570000D+00 0.5570000D+00 0.5570000D+00 0.5570000D+00
EXPONENTS  0.5570000D+00 0.2180000D+00 0.2180000D+00 0.2180000D+00 0.2180000D+00
EXPONENTS  0.2180000D+00 0.2180000D+00 0.2180000D+00 0.2180000D+00 0.2180000D+00
EXPONENTS  0.2180000D+00 0.3387000D+02 0.5095000D+01 0.1159000D+01 0.3258000D+00
EXPONENTS  0.1027000D+00 0.2526000D-01 0.1407000D+01 0.1407000D+01 0.1407000D+01
EXPONENTS  0.3880000D+00 0.3880000D+00 0.3880000D+00 0.1020000D+00 0.1020000D+00
EXPONENTS  0.1020000D+00 0.1057000D+01 0.1057000D+01 0.1057000D+01 0.1057000D+01
EXPONENTS  0.1057000D+01 0.1057000D+01 0.2470000D+00 0.2470000D+00 0.2470000D+00
EXPONENTS  0.2470000D+00 0.2470000D+00 0.2470000D+00 0.3387000D+02 0.5095000D+01
EXPONENTS  0.1159000D+01 0.3258000D+00 0.1027000D+00 0.2526000D-01 0.1407000D+01
EXPONENTS  0.1407000D+01 0.1407000D+01 0.3880000D+00 0.3880000D+00 0.3880000D+00
EXPONENTS  0.1020000D+00 0.1020000D+00 0.1020000D+00 0.1057000D+01 0.1057000D+01
EXPONENTS  0.1057000D+01 0.1057000D+01 0.1057000D+01 0.1057000D+01 0.2470000D+00
EXPONENTS  0.2470000D+00 0.2470000D+00 0.2470000D+00 0.2470000D+00 0.2470000D+00
MO    1     MO 0.0        OCC NO =    2.0000337  ORB. ENERGY =    0.000000
  0.69048187D-07  0.12871973D-06  0.21755388D-06  0.32702406D-06  0.40169049D-06
  0.33901260D-06  0.12747759D-06 -0.54224806D-10 -0.40529683D-09 -0.15146868D-08
 -0.42257403D-08 -0.56613270D-08  0.66849716D-08  0.24392597D-07 -0.22825749D-06
 -0.10494130D-07  0.78010276D-05  0.73139592D-05  0.52079747D-05 -0.14389655D-02
 -0.13491216D-02 -0.96065495D-03  0.25011113D-07  0.23449508D-07  0.16697446D-07
  0.32433398D-05 -0.59821251D-03 -0.13839351D-08 -0.87327939D-05  0.16108891D-02
  0.37435362D-07 -0.16074814D-06  0.29652595D-04  0.34962242D-09 -0.16834680D-07
  0.55153032D-08  0.11319377D-07  0.24939033D-05  0.57628078D-05 -0.10629810D-02
  0.27125410D-07 -0.15153115D-07 -0.11972295D-07 -0.28645223D-05 -0.28427073D-06
  0.52396986D-04  0.84135311D-08 -0.35438898D-08 -0.48696414D-08 -0.17754746D-05
  0.11654668D-05 -0.21499558D-03 -0.10547257D-05  0.16675709D-03 -0.70174432D-08
 -0.60250504D-06  0.19453020D-03  0.17452092D-07  0.37666821D-05 -0.69480147D-03
  0.36002380D-08 -0.23033075D-05  0.66629306D-06 -0.81254779D-04 -0.77773497D-09
 -0.11071562D-07 -0.12289793D-03 -0.13547393D-07 -0.19878076D-05  0.36666226D-03
  0.15880598D-07  0.20995389D-05 -0.52506161D-06 -0.98165557D-06 -0.16965926D-05
 -0.27441686D-05 -0.41477190D-05 -0.57122678D-05 -0.66769455D-05 -0.57706678D-05
 -0.26932007D-05 -0.36486960D-06  0.26687088D-08 -0.65918420D-08 -0.84737465D-07
 -0.30911009D-06 -0.10429298D-05 -0.22907418D-05 -0.29590136D-05  0.47553866D-06
  0.39892041D-05  0.21892238D-05 -0.32629921D-10 -0.37167509D-09 -0.77173147D-09
 -0.21220655D-08  0.27515017D-09  0.95950140D-08  0.23931489D-07 -0.19810140D-07
  0.11130502D-06  0.16084199D-07  0.14861095D-08 -0.52978129D-01 -0.69504292D-01
 -0.76231166D-01 -0.62720707D-01 -0.33062791D-01 -0.86023162D-02  0.97722834D+01
  0.12820680D+02  0.14061511D+02  0.11569388D+02  0.60987235D+01  0.15867731D+01
  0.87371924D-05  0.11462700D-04  0.12572101D-04  0.10343946D-04  0.54527400D-05
  0.14187004D-05 -0.52256321D-06 -0.18757736D-04 -0.29759619D-04 -0.35338634D-04
 -0.53476668D-05  0.38919317D-04  0.96391267D-04  0.34600253D-02  0.54894169D-02
  0.65185142D-02  0.98642302D-03 -0.71790019D-02  0.40538988D-09  0.14551726D-07
  0.23086677D-07  0.27414721D-07  0.41485699D-08 -0.30192515D-07 -0.36060974D-03
  0.66517643D-01  0.71199422D-07  0.31195189D-05 -0.57540448D-03 -0.34773165D-08
  0.14894476D-06 -0.27474543D-04 -0.12081242D-09  0.15913361D-08 -0.78306126D-08
  0.62392764D-08 -0.68241671D-06 -0.41760861D-05  0.77029719D-03 -0.87399670D-08
  0.31981104D-08  0.55418566D-08  0.99652486D-06  0.58613125D-05 -0.10811636D-02
 -0.99462819D-09  0.57052900D-09  0.42409919D-09  0.24554377D-06  0.16246386D-06
 -0.29970945D-04 -0.70931653D-06  0.14840912D-05 -0.12635857D-08  0.13945134D-05
  0.13082810D-03 -0.33302404D-09  0.73343617D-06 -0.13528037D-03  0.41237811D-08
  0.55914682D-06  0.12014790D-07  0.33704328D-04 -0.72335604D-09 -0.57221539D-06
 -0.22144818D-05 -0.10878390D-08  0.53617103D-06 -0.98898504D-04  0.32579071D-08
  0.19623091D-06 -0.10704264D-03 -0.19305580D-03 -0.28466067D-03  0.13746044D-03
  0.23682571D-02  0.25550900D-04 -0.10935022D-05 -0.18510957D-04  0.26626370D-03
 -0.10638804D-06 -0.14236948D-04 -0.32499885D-03 -0.56607058D-06  0.31407952D-03
  0.13272021D-03 -0.49111236D-04 -0.14476642D-03  0.19387765D-03 -0.12062835D-05
  0.52977253D-06 -0.85357423D-05  0.25286540D-04 -0.22498026D-04 -0.27885138D-05
  0.22712000D-06 -0.81103373D-06 -0.11635983D-03  0.10704772D-03  0.19306496D-03
  0.28467417D-03 -0.13737010D-03 -0.23680938D-02 -0.25548221D-04  0.12940780D-05
 -0.18501683D-04 -0.26623500D-03  0.26068977D-06 -0.14225872D-04  0.32497386D-03
 -0.28393763D-05  0.31405837D-03 -0.13271733D-03  0.49136951D-04  0.14473000D-03
 -0.19386696D-03 -0.32798635D-05 -0.43724484D-06 -0.85397489D-05 -0.25280680D-04
  0.22493675D-04  0.27870050D-05 -0.80893127D-06  0.20725187D-05 -0.11635415D-03
MO    2     MO 0.0        OCC NO =    2.0000243  ORB. ENERGY =    0.000000
 -0.53358628D-01 -0.99471232D-01 -0.16811993D+00 -0.25271562D+00 -0.31041587D+00
 -0.26198004D+00 -0.98511338D-01 -0.88995783D-05 -0.66518834D-04 -0.24859607D-03
 -0.69354433D-03 -0.92915819D-03  0.10971626D-02 -0.42236568D-02 -0.55006841D-03
 -0.39513856D-04 -0.32368476D-05 -0.30347503D-05 -0.21609230D-05 -0.35572430D-07
 -0.33351414D-07 -0.23748193D-07  0.24031522D-02  0.22531079D-02  0.16043471D-02
  0.13544856D-05  0.33389248D-07  0.49307402D-04 -0.14370165D-05 -0.45147223D-08
 -0.60511530D-03 -0.55553652D-09 -0.55324414D-09 -0.47299641D-06  0.19000487D-03
 -0.14573608D-03 -0.44268792D-04  0.36400732D-05 -0.34754728D-05 -0.47637908D-07
  0.37919291D-04  0.14672506D-03 -0.18464435D-03 -0.11799820D-05 -0.27930328D-06
 -0.24288506D-07  0.11038085D-04  0.85501961D-04 -0.96540046D-04 -0.80740642D-06
 -0.76260324D-06 -0.67130084D-08 -0.50148801D-06  0.40929569D-08  0.98941775D-05
  0.13139889D-05 -0.30493410D-07 -0.17119581D-03  0.19047515D-06  0.18214539D-07
  0.14151328D-03 -0.33903163D-05 -0.15590548D-06  0.22145416D-08  0.58665641D-04
  0.51429344D-06 -0.10222692D-07  0.10696881D-04 -0.46577008D-07  0.35790672D-08
 -0.18669380D-03  0.21403713D-05 -0.12113978D+00 -0.22648301D+00 -0.39142996D+00
 -0.63312183D+00 -0.95694246D+00 -0.13179079D+01 -0.15404738D+01 -0.13313817D+01
 -0.62136276D+00 -0.84181019D-01  0.61571210D-03 -0.15085900D-02 -0.19392772D-01
 -0.70742046D-01 -0.23868191D+00 -0.52425257D+00 -0.67719133D+00  0.10883041D+00
  0.91295777D+00  0.50101945D+00 -0.12531203D-04 -0.14273819D-03 -0.29637595D-03
 -0.81495858D-03  0.10566874D-03  0.36848716D-02  0.91906549D-02 -0.76078910D-02
  0.27972330D-01  0.11460765D-02  0.42672819D-05  0.82576881D-02  0.10833617D-01
  0.11882133D-01  0.97762615D-02  0.51534892D-02  0.13408409D-02  0.17604247D-04
  0.23095771D-04  0.25331063D-04  0.20841635D-04  0.10986525D-04  0.28584872D-05
  0.66582274D+01  0.87352156D+01  0.95806411D+01  0.78826629D+01  0.41552917D+01
  0.10811287D+01  0.66466380D-07  0.23858527D-05  0.37852151D-05  0.44948268D-05
  0.68018577D-06 -0.49502646D-05  0.17216925D-09  0.61801239D-08  0.98049216D-08
  0.11643044D-07  0.17618994D-08 -0.12822774D-07  0.55924354D-04  0.20074400D-02
  0.31848538D-02  0.37819162D-02  0.57230361D-03 -0.41651184D-02  0.57152949D-04
  0.12341944D-06  0.48629297D-01  0.10916054D-05  0.96679482D-08 -0.64497329D-03
 -0.21954070D-07  0.19498269D-09 -0.13878466D-05 -0.25513292D-03 -0.10219899D-03
  0.35733191D-03 -0.16582643D-05 -0.55662066D-07 -0.66752640D-09  0.35812658D-03
 -0.38146096D-03  0.23334376D-04  0.80192676D-05 -0.73740841D-06  0.20487469D-08
 -0.53389457D-05 -0.23226465D-04  0.28565410D-04  0.19395508D-06 -0.35527727D-06
 -0.22812072D-08  0.23740874D-06  0.14214984D-08 -0.69448865D-04  0.16505295D-06
  0.20655368D-08  0.20749587D-03 -0.87727918D-06 -0.63300319D-08  0.85072948D-06
  0.22406630D-05 -0.50524395D-07 -0.71487330D-09 -0.19640869D-04 -0.96997846D-07
  0.32653481D-09  0.25723883D-04  0.24857103D-06  0.18180851D-08  0.33198724D-04
 -0.81044208D-07 -0.22712470D-04 -0.40962875D-04 -0.60399735D-04 -0.39449469D-03
 -0.44558087D-03  0.30142616D-05  0.10290836D-05  0.20856151D-04  0.90701211D-04
 -0.31702793D-05  0.34027324D-04  0.24977939D-04 -0.11862692D-05  0.35902360D-04
 -0.12461374D-03 -0.10029285D-03  0.20171461D-04  0.80121389D-04 -0.13990011D-05
 -0.75326602D-06  0.13060827D-03 -0.31335495D-04  0.21821023D-04  0.95144714D-05
 -0.27230296D-06 -0.33814595D-06 -0.64598202D-04 -0.22716120D-04 -0.40969459D-04
 -0.60409443D-04 -0.39456415D-03 -0.44562291D-03  0.30151686D-05  0.12551199D-05
 -0.20839871D-04  0.90671866D-04 -0.28017101D-05 -0.33980339D-04  0.24989918D-04
 -0.79706310D-06 -0.35891979D-04 -0.12460249D-03 -0.10029016D-03  0.20166889D-04
  0.80123268D-04 -0.12131193D-05  0.66314520D-06 -0.13061909D-03 -0.31329838D-04
  0.21810991D-04  0.95188472D-05 -0.88007936D-06 -0.10384144D-05  0.64585572D-04
MO    3     MO 0.0        OCC NO =    2.0000101  ORB. ENERGY =    0.000000
 -0.15141805D+00 -0.28227375D+00 -0.47708109D+00 -0.71714186D+00 -0.88088033D+00
 -0.74343192D+00 -0.27954982D+00 -0.23221686D-04 -0.17356772D-03 -0.64866218D-03
 -0.18096665D-02 -0.24244542D-02  0.28628283D-02 -0.12247764D-01 -0.11541125D-03
 -0.10723618D-03 -0.12633561D-04 -0.11844767D-04 -0.84341794D-05 -0.19181097D-06
 -0.17983497D-06 -0.12805321D-06  0.37168287D-02  0.34847631D-02  0.24813589D-02
  0.27083917D-05  0.10450437D-06  0.55396869D-03 -0.67268317D-06  0.32170689D-07
 -0.15667267D-03  0.12343076D-07  0.33090987D-10 -0.38060770D-05  0.45311920D-03
 -0.44591862D-03 -0.72005828D-05  0.97472042D-05 -0.81304356D-05 -0.14792835D-06
 -0.11583147D-03 -0.32372018D-05  0.11906867D-03 -0.12214295D-05  0.67638776D-06
 -0.43454394D-07  0.12953711D-04  0.59390723D-04 -0.72344434D-04 -0.50352472D-06
 -0.70693494D-06 -0.55787075D-08 -0.14026921D-05  0.18711742D-07  0.71472399D-04
  0.40921084D-05 -0.87212070D-07 -0.44938505D-03  0.11596788D-06  0.31076845D-07
  0.23496785D-03 -0.74194831D-05 -0.37764669D-06  0.33286108D-08  0.11878161D-03
  0.89850594D-06 -0.21888709D-07 -0.22303527D-04  0.23443412D-06  0.11902876D-07
 -0.33404130D-03  0.33803420D-05  0.11207546D+00  0.20953637D+00  0.36214113D+00
  0.58574835D+00  0.88533902D+00  0.12192951D+01  0.14252075D+01  0.12317607D+01
  0.57486915D+00  0.77882155D-01 -0.56964130D-03  0.14084060D-02  0.18104917D-01
  0.66044134D-01  0.22283127D+00  0.48943746D+00  0.63221970D+00 -0.10160308D+00
 -0.85232911D+00 -0.46774722D+00  0.63423660D-05  0.72243492D-04  0.15000353D-03
  0.41247162D-03 -0.53481682D-04 -0.18650088D-02 -0.46516282D-02  0.38505504D-02
 -0.27764169D-01  0.11069715D-02  0.29061780D-04  0.22626302D-01  0.29684421D-01
  0.32557385D-01  0.26787236D-01  0.14120708D-01  0.36739425D-02  0.13849629D-03
  0.18169926D-03  0.19928476D-03  0.16396550D-03  0.86433287D-04  0.22488316D-04
  0.56958112D+01  0.74725804D+01  0.81958035D+01  0.67432602D+01  0.35546634D+01
  0.92485655D+00  0.13538340D-06  0.48596725D-05  0.77099923D-05  0.91553794D-05
  0.13854502D-05 -0.10083047D-04  0.95949061D-09  0.34441521D-07  0.54642336D-07
  0.64886098D-07  0.98189769D-08 -0.71460674D-07  0.36611061D-04  0.13141771D-02
  0.20849750D-02  0.24758438D-02  0.37466043D-03 -0.27267084D-02  0.16974685D-03
  0.10430494D-05  0.43851473D-01  0.14843866D-05  0.52570293D-08 -0.11641346D-03
 -0.35077802D-07  0.57185761D-11  0.49724885D-06 -0.15129169D-03 -0.13811862D-03
  0.28941031D-03 -0.14288239D-06  0.55554064D-06  0.12431084D-07 -0.11408566D-03
  0.47185739D-03 -0.35777174D-03 -0.63532556D-05  0.28796647D-05  0.22230516D-07
  0.62418204D-05  0.20936456D-05 -0.83354659D-05  0.44978268D-07 -0.42781961D-06
 -0.16583882D-08  0.63830072D-06  0.13328702D-08 -0.43863885D-04 -0.10754685D-06
  0.13087656D-07  0.20879119D-03 -0.18073553D-05 -0.17086266D-07 -0.77199534D-04
  0.31010136D-05 -0.71832504D-07 -0.12159009D-09 -0.12966794D-04 -0.23424968D-07
 -0.37083678D-09  0.19695738D-04  0.23892248D-06  0.73560706D-09  0.19204643D-04
  0.53452135D-08  0.39080760D-04  0.70483760D-04  0.10392826D-03 -0.35951615D-03
  0.54296344D-05  0.70032197D-05  0.14785886D-05  0.17303231D-03  0.20438244D-03
 -0.53052143D-05  0.12732277D-03  0.17036574D-03 -0.98841649D-06  0.74318666D-04
 -0.57665602D-04 -0.23416195D-03  0.11044039D-03  0.12372156D-03 -0.24357184D-05
 -0.21414094D-05  0.44850292D-03 -0.63984009D-04  0.95144964D-05  0.54469512D-04
 -0.43094653D-06 -0.43962120D-06 -0.58270929D-04  0.39062044D-04  0.70450006D-04
  0.10387849D-03 -0.35972678D-03  0.52777139D-05  0.70016804D-05  0.33540782D-05
 -0.17296461D-03  0.20431575D-03 -0.39256892D-05 -0.12720291D-03  0.17034130D-03
 -0.18285841D-06 -0.74290926D-04 -0.57669196D-04 -0.23413366D-03  0.11041293D-03
  0.12372074D-03 -0.50361096D-05  0.27218089D-05 -0.44849594D-03 -0.63972059D-04
  0.95001494D-05  0.54471910D-04 -0.11623570D-05 -0.10713074D-05  0.58259652D-04
MO    4     MO 0.0        OCC NO =    2.0000048  ORB. ENERGY =    0.000000
  0.28553560D+00  0.53229589D+00  0.89965257D+00  0.13523456D+01  0.16611144D+01
  0.14019219D+01  0.52715925D+00  0.30289139D-04  0.22639255D-03  0.84608065D-03
  0.23604333D-02  0.31623298D-02 -0.37341218D-02  0.23598545D-01 -0.50926203D-03
 -0.42865813D-05 -0.62086619D-04 -0.58210152D-04 -0.41449096D-04 -0.34274036D-07
 -0.32134088D-07 -0.22881385D-07  0.42387473D-02  0.39740951D-02  0.28297924D-02
 -0.18963893D-04 -0.34279177D-06 -0.37381286D-03 -0.15029149D-05 -0.11560933D-07
 -0.30649533D-03 -0.41172053D-08  0.10494862D-08 -0.39104319D-05 -0.11862118D-02
  0.61313765D-03  0.57307414D-03 -0.19508195D-04 -0.63335846D-05  0.19074505D-06
  0.18491450D-03  0.11327489D-03 -0.29818939D-03  0.77847435D-06  0.15903380D-04
  0.18005411D-06  0.88139618D-05  0.37091099D-04 -0.45905061D-04 -0.30673272D-06
 -0.14457494D-05 -0.10915889D-08  0.56863688D-05 -0.45548039D-07  0.41351588D-03
 -0.87015190D-05  0.23801612D-06  0.19113512D-03 -0.83575875D-05 -0.10137200D-06
 -0.14316828D-02  0.17593599D-04 -0.94559424D-06 -0.22577942D-07 -0.67374351D-04
 -0.24289747D-05  0.13062496D-07 -0.22486601D-04  0.52657575D-05  0.54671329D-07
  0.22460966D-03 -0.26795390D-05  0.36834055D-01  0.68864976D-01  0.11901915D+00
  0.19250857D+00  0.29097025D+00  0.40072628D+00  0.46840023D+00  0.40482315D+00
  0.18893307D+00  0.25596286D-01 -0.18721492D-03  0.46198471D-03  0.59387669D-02
  0.21663768D-01  0.73093017D-01  0.16054506D+00  0.20738043D+00 -0.33327799D-01
 -0.27958062D+00 -0.15343024D+00  0.18363126D-05  0.20916742D-04  0.43430698D-04
  0.11942339D-03 -0.15484614D-04 -0.53997817D-03 -0.13467913D-02  0.11148544D-02
 -0.95111103D-02  0.13095247D-02  0.10612679D-03  0.25654267D+00  0.33656939D+00
  0.36914378D+00  0.30372038D+00  0.16010412D+00  0.41656080D-01  0.13918607D-02
  0.18260421D-02  0.20027730D-02  0.16478213D-02  0.86863769D-03  0.22600319D-03
  0.42405539D+01  0.55633655D+01  0.61018079D+01  0.50203838D+01  0.26464609D+01
  0.68855934D+00  0.13616398D-05  0.48876922D-04  0.77544461D-04  0.92081669D-04
  0.13934384D-04 -0.10141183D-03  0.78665607D-08  0.28237516D-06  0.44799527D-06
  0.53198064D-06  0.80502693D-07 -0.58588351D-06  0.31428270D-04  0.11281376D-02
  0.17898186D-02  0.21253546D-02  0.32162218D-03 -0.23407059D-02  0.19796258D-02
  0.10757464D-04  0.33072914D-01  0.38115646D-05  0.10026287D-08 -0.34758390D-03
 -0.44022213D-06 -0.30050867D-08 -0.46898535D-05 -0.13515505D-03 -0.23117788D-03
  0.36633292D-03  0.10411888D-05  0.15071687D-04  0.11007300D-06  0.98549919D-04
  0.33884686D-03 -0.43739678D-03 -0.26055845D-05 -0.97464784D-05 -0.67073228D-07
 -0.10357163D-04 -0.12203722D-04  0.22560885D-04  0.20058337D-07 -0.68225788D-06
  0.64546061D-09  0.30996315D-05 -0.11610525D-07  0.53932471D-04 -0.20492824D-05
  0.73651368D-07 -0.27970365D-04 -0.72496121D-05 -0.38819794D-07 -0.13382705D-03
  0.11479251D-05  0.19509078D-06  0.59215628D-08 -0.36884609D-04  0.79677176D-06
 -0.54266736D-08  0.28885733D-04 -0.13820441D-05 -0.12338015D-07  0.81768093D-04
 -0.57345631D-06 -0.30786456D-03 -0.55524642D-03 -0.81871052D-03 -0.53888894D-03
 -0.47494621D-03 -0.71187578D-05 -0.39079847D-05 -0.82622556D-03 -0.37175235D-03
  0.65998834D-05 -0.40929591D-03 -0.27046257D-03 -0.17924811D-05 -0.35223453D-04
 -0.10049441D-03  0.27160499D-03 -0.43493074D-03  0.16332575D-03  0.42488396D-05
  0.17615797D-06 -0.94977586D-03  0.49511890D-04 -0.24645022D-04 -0.24866868D-04
  0.14597246D-06  0.20644383D-05 -0.78921193D-04 -0.30780349D-03 -0.55513627D-03
 -0.81854810D-03 -0.53846627D-03 -0.47481896D-03 -0.71187539D-05 -0.12863909D-04
  0.82602492D-03 -0.37166639D-03  0.21629461D-05  0.40909413D-03 -0.27022188D-03
 -0.21736627D-05  0.35179681D-04 -0.10047614D-03  0.27157105D-03 -0.43492667D-03
  0.16335562D-03  0.11073213D-04 -0.10120614D-04  0.94962463D-03  0.49488754D-04
 -0.24625413D-04 -0.24863341D-04  0.14616120D-05  0.12089662D-05  0.78895754D-04
MO    5     MO 0.0        OCC NO =    2.0000043  ORB. ENERGY =    0.000000
 -0.71443915D-02 -0.13318585D-01 -0.22510223D-01 -0.33837064D-01 -0.41562773D-01
 -0.35077514D-01 -0.13190061D-01 -0.76169266D-06 -0.56931807D-05 -0.21276716D-04
 -0.59358725D-04 -0.79524327D-04  0.93903402D-04 -0.59161108D-03  0.20730967D-04
 -0.11030911D-06 -0.29436563D-02 -0.27598649D-02 -0.19651882D-02 -0.15966069D-04
 -0.14969205D-04 -0.10658965D-04 -0.11208246D-03 -0.10508443D-03 -0.74826377D-04
 -0.49187397D-03 -0.26605318D-05  0.11780889D-04 -0.49186348D-04 -0.26652149D-06
  0.14819924D-04 -0.19074907D-06 -0.10490327D-08  0.30687149D-06  0.30011569D-04
 -0.16583207D-04 -0.13428362D-04  0.50579797D-06 -0.66443622D-03 -0.36080642D-05
 -0.50376712D-05 -0.19797618D-05  0.70174330D-05 -0.10384509D-07  0.61489714D-03
  0.33314394D-05 -0.53628441D-06 -0.84867724D-06  0.13849616D-05  0.10688791D-08
 -0.53793965D-04 -0.29150693D-06  0.83738734D-04  0.24118355D-06 -0.10749801D-04
  0.44490913D-04  0.87820345D-06 -0.62364980D-05 -0.29570711D-03 -0.16017541D-05
  0.38485902D-04 -0.51148542D-06 -0.33402653D-04 -0.76665499D-06  0.17548569D-05
 -0.14146042D-03  0.99048750D-06  0.79793410D-06  0.24166837D-03  0.13094775D-05
 -0.60625047D-05  0.71185660D-07 -0.11306275D-02 -0.21138220D-02 -0.36533127D-02
 -0.59090827D-02 -0.89313807D-02 -0.12300360D-01 -0.14377623D-01 -0.12426114D-01
 -0.57993323D-02 -0.78568227D-03  0.57465933D-05 -0.14199709D-04 -0.18253583D-03
 -0.66586447D-03 -0.22466102D-02 -0.49345641D-02 -0.63741109D-02  0.10243739D-02
  0.85932791D-02  0.47158807D-02 -0.50437993D-07 -0.57452010D-06 -0.11929108D-05
 -0.32802018D-05  0.42531584D-06  0.14831579D-04  0.36992313D-04 -0.30621701D-04
  0.29323496D-03 -0.46152607D-04 -0.43111935D-05  0.97120041D+01  0.12741597D+02
  0.13974774D+02  0.11498023D+02  0.60611042D+01  0.15769853D+01  0.52651297D-01
  0.69075507D-01  0.75760882D-01  0.62333772D-01  0.32858820D-01  0.85492469D-02
 -0.13081249D+00 -0.17161855D+00 -0.18822841D+00 -0.15486867D+00 -0.81637955D-01
 -0.21240660D-01  0.51711117D-04  0.18562032D-02  0.29449129D-02  0.34969937D-02
  0.52918732D-03 -0.38513262D-02  0.28032654D-06  0.10062498D-04  0.15964405D-04
  0.18957242D-04  0.28687303D-05 -0.20878082D-04 -0.96900390D-06 -0.34783007D-04
 -0.55184112D-04 -0.65529440D-04 -0.99163315D-05  0.72169203D-04  0.75239986D-01
  0.40789504D-03 -0.10297232D-02  0.17205778D-03  0.93281669D-06  0.12252574D-04
 -0.15196141D-04 -0.82373570D-07  0.11830071D-06  0.41978018D-05  0.69490905D-05
 -0.11146892D-04 -0.29589671D-07  0.62509200D-03  0.33882246D-05 -0.26511199D-05
 -0.10858326D-04  0.13509446D-04  0.86787213D-07 -0.40062732D-03 -0.21717077D-05
  0.41787901D-06  0.32572781D-06 -0.74360682D-06  0.17222974D-08 -0.34023662D-04
 -0.18446515D-06  0.12996196D-03 -0.39918720D-06 -0.93531590D-06 -0.73623968D-04
  0.29121419D-05 -0.25616014D-06 -0.31626190D-03 -0.17145803D-05  0.30621078D-05
 -0.31885287D-07  0.67222777D-05  0.19044959D-06  0.96430392D-06  0.35134480D-04
 -0.27163663D-06 -0.82119013D-06 -0.55301313D-04 -0.29971213D-06 -0.20717216D-05
  0.12129282D-07  0.85401374D-05  0.15402489D-04  0.22710962D-04  0.12486215D-04
  0.15412364D-04  0.32195158D-06 -0.12765673D-03  0.20379305D-04  0.12566751D-04
  0.16785364D-03  0.12538551D-04  0.27957956D-05 -0.57071171D-04  0.13345298D-05
  0.23121344D-05 -0.77662680D-05  0.12300949D-04 -0.45346811D-05  0.14037961D-03
 -0.57379616D-04  0.24627517D-04 -0.79390575D-06  0.57511183D-06  0.21879392D-06
 -0.38197993D-04  0.11111007D-03  0.20049801D-05  0.85385625D-05  0.15399649D-04
  0.22706774D-04  0.12475851D-04  0.15410601D-04  0.32190817D-06 -0.12741926D-03
 -0.21759230D-04  0.12564544D-04  0.16794830D-03 -0.10711959D-04  0.27895968D-05
 -0.57044866D-04 -0.19528546D-05  0.23114289D-05 -0.62422983D-05  0.10777839D-04
 -0.45355403D-05 -0.14075755D-03 -0.57116302D-04 -0.25245408D-04 -0.12074126D-05
  0.98879678D-06  0.21861578D-06  0.38157096D-04  0.11111437D-03 -0.79918763D-06
MO    6     MO 0.0        OCC NO =    2.0000000  ORB. ENERGY =    0.000000
 -0.81022978D-04 -0.15104315D-03 -0.25528351D-03 -0.38373873D-03 -0.47135430D-03
 -0.39780640D-03 -0.14958559D-03  0.49261559D-07  0.36819964D-06  0.13760461D-05
  0.38389544D-05  0.51431405D-05 -0.60730899D-05  0.16607620D-05 -0.30761443D-04
 -0.72430414D-05 -0.10704045D-07 -0.10035722D-07 -0.71460323D-08 -0.20312905D-09
 -0.19044639D-09 -0.13560918D-09  0.14564131D-04  0.13654798D-04  0.97230299D-05
  0.12962345D-08 -0.10269288D-08 -0.38213978D-04  0.77569034D-07  0.19170611D-08
  0.41046350D-05  0.87262795D-09  0.35866021D-10 -0.38995850D-06  0.14548283D-05
  0.89094344D-05 -0.10364263D-04 -0.80821316D-07  0.35071570D-07  0.11886147D-08
  0.63082201D-05  0.43045314D-05 -0.10612752D-04  0.21726363D-07 -0.48841815D-08
 -0.98859461D-10  0.63676175D-06 -0.91538713D-06  0.27862538D-06  0.16828801D-07
  0.18853258D-07  0.24196629D-09  0.20533259D-07 -0.32083774D-09  0.21236321D-05
 -0.39029344D-07  0.10367758D-08  0.38974645D-06 -0.22570435D-07 -0.74262550D-10
 -0.67606427D-05  0.77526917D-07 -0.11486974D-07 -0.99362768D-10 -0.38227043D-06
  0.26544656D-07 -0.58350391D-09  0.61674837D-06  0.79162665D-08  0.88159221D-09
  0.53006293D-06  0.94437922D-09  0.58266944D+00  0.10893592D+01  0.18827365D+01
  0.30452487D+01  0.46027915D+01  0.63389968D+01  0.74095154D+01  0.64038042D+01
  0.29886888D+01  0.40490175D+00 -0.29615097D-02 -0.29342983D-04 -0.37720109D-03
 -0.13759754D-02 -0.46425067D-02 -0.10197028D-01 -0.13171779D-01  0.21168169D-02
  0.17757578D-01  0.97451297D-02  0.19754241D-06  0.22501309D-05  0.46720829D-05
  0.12847041D-04 -0.16657664D-05 -0.58088470D-04 -0.14488187D-03  0.11993111D-03
  0.13966865D-04 -0.17650523D-04  0.32764133D-05 -0.40573097D-05 -0.53229595D-05
 -0.58381346D-05 -0.48034413D-05 -0.25321011D-05 -0.65880508D-06 -0.11464962D-07
 -0.15041378D-07 -0.16497136D-07 -0.13573346D-07 -0.71550965D-08 -0.18616215D-08
  0.11195319D-01  0.14687622D-01  0.16109142D-01  0.13254117D-01  0.69868169D-02
  0.18178383D-02 -0.34914727D-10 -0.12532862D-08 -0.19883699D-08 -0.23611283D-08
 -0.35730094D-09  0.26003693D-08  0.12791979D-10  0.45917616D-09  0.72849449D-09
  0.86506487D-09  0.13090712D-09 -0.95271746D-09  0.70486857D-06  0.25301702D-04
  0.40141784D-04  0.47667138D-04  0.72132943D-05 -0.52497004D-04 -0.72438500D-07
  0.44694841D-09  0.16289350D-03 -0.43467513D-07 -0.75496448D-09  0.52686519D-05
 -0.18870135D-09 -0.10934714D-10 -0.33982400D-07 -0.58154795D-05 -0.37581570D-05
  0.95736366D-05 -0.22308960D-07  0.28860976D-07  0.94130484D-09  0.91715629D-05
 -0.15973269D-04  0.68017059D-05  0.27264320D-06 -0.10260281D-06 -0.61509853D-09
  0.59383863D-06  0.49062808D-06 -0.10844667D-05  0.11190923D-08  0.92025717D-08
  0.17008532D-09  0.30129642D-08 -0.59972310D-11 -0.69854269D-05 -0.11734599D-07
  0.21513969D-09  0.12190626D-04  0.26957069D-08 -0.19714800D-09  0.87656548D-05
  0.37138429D-07  0.93107306D-09  0.40379525D-10 -0.58991978D-07  0.21463562D-08
  0.11798519D-10 -0.80475050D-08 -0.49395754D-08 -0.13293709D-09  0.18502344D-06
 -0.20924924D-08 -0.12365380D-05 -0.22301471D-05 -0.32883506D-05  0.30157077D-05
  0.17403236D-04  0.23763816D-06  0.20633439D-07 -0.58380773D-05 -0.14813850D-05
 -0.47542712D-07  0.10007654D-05 -0.14154154D-05  0.22958828D-07  0.75806279D-06
  0.25180836D-05 -0.24401760D-05 -0.16083054D-05  0.40484814D-05 -0.50122011D-07
 -0.66881311D-09 -0.20755153D-05 -0.38896141D-07 -0.43386652D-06  0.47276266D-06
  0.10943269D-07 -0.96528768D-08 -0.18463297D-05 -0.12364146D-05 -0.22299247D-05
 -0.32880227D-05  0.30151922D-05  0.17400170D-04  0.23754484D-06 -0.42660560D-07
  0.58378574D-05 -0.14819763D-05 -0.36688645D-07 -0.10006876D-05 -0.14122850D-05
  0.31174226D-07 -0.75759792D-06  0.25176705D-05 -0.24405067D-05 -0.16086640D-05
  0.40491708D-05  0.32093933D-07 -0.23141965D-07  0.20739013D-05 -0.38879337D-07