 h2cs-wavefunction
GAUSSIAN            142 MOL ORBITALS    240 PRIMITIVES        4 NUCLEI
  C    1    (CENTRE  1)   0.00000000  0.00000000 -1.04934791  CHARGE =  6.0
  S    2    (CENTRE  2)   0.00000000  0.00000000  1.98491920  CHARGE = 16.0
  H    3    (CENTRE  3)   0.00000000 -1.74285662 -2.13348569  CHARGE =  1.0
  H    4    (CENTRE  4)   0.00000000  1.74285662 -2.13348569  CHARGE =  1.0
CENTRE ASSIGNMENTS    1  1  1  1  1  1  1  1  1  1  1  1  1  1  1  1  1  1  1  1
CENTRE ASSIGNMENTS    1  1  1  1  1  1  1  1  1  1  1  1  1  1  1  1  1  1  1  1
CENTRE ASSIGNMENTS    1  1  1  1  1  1  1  1  1  1  1  1  1  1  1  1  1  1  1  1
CENTRE ASSIGNMENTS    1  1  1  1  1  1  1  1  1  1  1  1  2  2  2  2  2  2  2  2
CENTRE ASSIGNMENTS    2  2  2  2  2  2  2  2  2  2  2  2  2  2  2  2  2  2  2  2
CENTRE ASSIGNMENTS    2  2  2  2  2  2  2  2  2  2  2  2  2  2  2  2  2  2  2  2
CENTRE ASSIGNMENTS    2  2  2  2  2  2  2  2  2  2  2  2  2  2  2  2  2  2  2  2
CENTRE ASSIGNMENTS    2  2  2  2  2  2  2  2  2  2  2  2  2  2  2  2  2  2  2  2
CENTRE ASSIGNMENTS    2  2  2  2  2  2  2  2  2  2  2  2  2  2  2  2  2  2  2  2
CENTRE ASSIGNMENTS    2  2  2  2  2  2  3  3  3  3  3  3  3  3  3  3  3  3  3  3
CENTRE ASSIGNMENTS    3  3  3  3  3  3  3  3  3  3  3  3  3  4  4  4  4  4  4  4
CENTRE ASSIGNMENTS    4  4  4  4  4  4  4  4  4  4  4  4  4  4  4  4  4  4  4  4
TYPE ASSIGNMENTS      1  1  1  1  1  1  1  1  1  1  1  1  1  1  1  1  2  2  2  3
TYPE ASSIGNMENTS      3  3  4  4  4  2  3  4  2  3  4  2  3  4  5  6  7  8  9 10
TYPE ASSIGNMENTS      5  6  7  8  9 10  5  6  7  8  9 10 11 12 13 17 14 15 18 19
TYPE ASSIGNMENTS     16 20 11 12 13 17 14 15 18 19 16 20  1  1  1  1  1  1  1  1
TYPE ASSIGNMENTS      1  1  1  1  1  1  1  1  1  1  1  1  1  1  1  1  1  1  1  1
TYPE ASSIGNMENTS      1  1  1  2  2  2  2  2  2  3  3  3  3  3  3  4  4  4  4  4
TYPE ASSIGNMENTS      4  2  2  2  2  2  2  3  3  3  3  3  3  4  4  4  4  4  4  2
TYPE ASSIGNMENTS      3  4  2  3  4  2  3  4  5  6  7  8  9 10  5  6  7  8  9 10
TYPE ASSIGNMENTS      5  6  7  8  9 10 11 12 13 17 14 15 18 19 16 20 11 12 13 17
TYPE ASSIGNMENTS     14 15 18 19 16 20  1  1  1  1  1  1  2  3  4  2  3  4  2  3
TYPE ASSIGNMENTS      4  5  6  7  8  9 10  5  6  7  8  9 10  1  1  1  1  1  1  2
TYPE ASSIGNMENTS      3  4  2  3  4  2  3  4  5  6  7  8  9 10  5  6  7  8  9 10
EXPONENTS  0.8236000D+04 0.1235000D+04 0.2808000D+03 0.7927000D+02 0.2559000D+02
EXPONENTS  0.8997000D+01 0.3319000D+01 0.2808000D+03 0.7927000D+02 0.2559000D+02
EXPONENTS  0.8997000D+01 0.3319000D+01 0.3643000D+00 0.9059000D+00 0.1285000D+00
EXPONENTS  0.4402000D-01 0.1871000D+02 0.4133000D+01 0.1200000D+01 0.1871000D+02
EXPONENTS  0.4133000D+01 0.1200000D+01 0.1871000D+02 0.4133000D+01 0.1200000D+01
EXPONENTS  0.3827000D+00 0.3827000D+00 0.3827000D+00 0.1209000D+00 0.1209000D+00
EXPONENTS  0.1209000D+00 0.3569000D-01 0.3569000D-01 0.3569000D-01 0.1097000D+01
EXPONENTS  0.1097000D+01 0.1097000D+01 0.1097000D+01 0.1097000D+01 0.1097000D+01
EXPONENTS  0.3180000D+00 0.3180000D+00 0.3180000D+00 0.3180000D+00 0.3180000D+00
EXPONENTS  0.3180000D+00 0.1000000D+00 0.1000000D+00 0.1000000D+00 0.1000000D+00
EXPONENTS  0.1000000D+00 0.1000000D+00 0.7610000D+00 0.7610000D+00 0.7610000D+00
EXPONENTS  0.7610000D+00 0.7610000D+00 0.7610000D+00 0.7610000D+00 0.7610000D+00
EXPONENTS  0.7610000D+00 0.7610000D+00 0.2680000D+00 0.2680000D+00 0.2680000D+00
EXPONENTS  0.2680000D+00 0.2680000D+00 0.2680000D+00 0.2680000D+00 0.2680000D+00
EXPONENTS  0.2680000D+00 0.2680000D+00 0.3741000D+06 0.5605000D+05 0.1276000D+05
EXPONENTS  0.3615000D+04 0.1183000D+04 0.4288000D+03 0.1678000D+03 0.6947000D+02
EXPONENTS  0.2984000D+02 0.1272000D+02 0.5244000D+01 0.3615000D+04 0.1183000D+04
EXPONENTS  0.4288000D+03 0.1678000D+03 0.6947000D+02 0.2984000D+02 0.1272000D+02
EXPONENTS  0.5244000D+01 0.2219000D+01 0.1183000D+04 0.1678000D+03 0.6947000D+02
EXPONENTS  0.2984000D+02 0.1272000D+02 0.5244000D+01 0.2219000D+01 0.3490000D+00
EXPONENTS  0.7767000D+00 0.1322000D+00 0.4970000D-01 0.5744000D+03 0.1358000D+03
EXPONENTS  0.4319000D+02 0.1587000D+02 0.6208000D+01 0.2483000D+01 0.5744000D+03
EXPONENTS  0.1358000D+03 0.4319000D+02 0.1587000D+02 0.6208000D+01 0.2483000D+01
EXPONENTS  0.5744000D+03 0.1358000D+03 0.4319000D+02 0.1587000D+02 0.6208000D+01
EXPONENTS  0.2483000D+01 0.1358000D+03 0.4319000D+02 0.1587000D+02 0.6208000D+01
EXPONENTS  0.2483000D+01 0.3229000D+00 0.1358000D+03 0.4319000D+02 0.1587000D+02
EXPONENTS  0.6208000D+01 0.2483000D+01 0.3229000D+00 0.1358000D+03 0.4319000D+02
EXPONENTS  0.1587000D+02 0.6208000D+01 0.2483000D+01 0.3229000D+00 0.8688000D+00
EXPONENTS  0.8688000D+00 0.8688000D+00 0.1098000D+00 0.1098000D+00 0.1098000D+00
EXPONENTS  0.3510000D-01 0.3510000D-01 0.3510000D-01 0.2690000D+00 0.2690000D+00
EXPONENTS  0.2690000D+00 0.2690000D+00 0.2690000D+00 0.2690000D+00 0.8190000D+00
EXPONENTS  0.8190000D+00 0.8190000D+00 0.8190000D+00 0.8190000D+00 0.8190000D+00
EXPONENTS  0.1010000D+00 0.1010000D+00 0.1010000D+00 0.1010000D+00 0.1010000D+00
EXPONENTS  0.1010000D+00 0.5570000D+00 0.5570000D+00 0.5570000D+00 0.5570000D+00
EXPONENTS  0.5570000D+00 0.5570000D+00 0.5570000D+00 0.5570000D+00 0.5570000D+00
EXPONENTS  0.5570000D+00 0.2180000D+00 0.2180000D+00 0.2180000D+00 0.2180000D+00
EXPONENTS  0.2180000D+00 0.2180000D+00 0.2180000D+00 0.2180000D+00 0.2180000D+00
EXPONENTS  0.2180000D+00 0.3387000D+02 0.5095000D+01 0.1159000D+01 0.3258000D+00
EXPONENTS  0.1027000D+00 0.2526000D-01 0.1407000D+01 0.1407000D+01 0.1407000D+01
EXPONENTS  0.3880000D+00 0.3880000D+00 0.3880000D+00 0.1020000D+00 0.1020000D+00
EXPONENTS  0.1020000D+00 0.1057000D+01 0.1057000D+01 0.1057000D+01 0.1057000D+01
EXPONENTS  0.1057000D+01 0.1057000D+01 0.2470000D+00 0.2470000D+00 0.2470000D+00
EXPONENTS  0.2470000D+00 0.2470000D+00 0.2470000D+00 0.3387000D+02 0.5095000D+01
EXPONENTS  0.1159000D+01 0.3258000D+00 0.1027000D+00 0.2526000D-01 0.1407000D+01
EXPONENTS  0.1407000D+01 0.1407000D+01 0.3880000D+00 0.3880000D+00 0.3880000D+00
EXPONENTS  0.1020000D+00 0.1020000D+00 0.1020000D+00 0.1057000D+01 0.1057000D+01
EXPONENTS  0.1057000D+01 0.1057000D+01 0.1057000D+01 0.1057000D+01 0.2470000D+00
EXPONENTS  0.2470000D+00 0.2470000D+00 0.2470000D+00 0.2470000D+00 0.2470000D+00
MO    1     MO 0.0        OCC NO =    2.0000338  ORB. ENERGY =    0.000000
 -0.38970110D-11 -0.72648136D-11 -0.12278525D-10 -0.18456913D-10 -0.22671011D-10
 -0.19133534D-10 -0.71947084D-11 -0.73136379D-15 -0.54664912D-14 -0.20429526D-13
 -0.56995196D-13 -0.76357849D-13  0.90164382D-13 -0.34163783D-12  0.35875718D-12
  0.47934412D-13 -0.17838999D-12 -0.16725195D-12 -0.11909335D-12 -0.14787213D-02
 -0.13863952D-02 -0.98719599D-03  0.15100925D-12  0.14158077D-12  0.10081394D-12
 -0.32791883D-13 -0.62300955D-03  0.39273759D-15 -0.10041629D-13  0.16239832D-02
  0.18884109D-13 -0.17607060D-15  0.30350716D-04  0.94751384D-15  0.23145633D-13
 -0.17544788D-13 -0.56008450D-14  0.34811564D-14 -0.32577851D-13 -0.10848708D-02
 -0.45919658D-13  0.18113528D-13  0.27806129D-13 -0.25999400D-15  0.32875203D-13
  0.77235876D-04 -0.27470432D-14  0.92524641D-15  0.18217968D-14  0.11809151D-14
 -0.41889871D-14 -0.21721276D-03  0.43424879D-14  0.16914451D-03  0.13265397D-13
  0.37876294D-14  0.19899549D-03 -0.14206766D-13 -0.16815093D-13 -0.70642903D-03
 -0.25589425D-13  0.41702573D-14 -0.14290470D-14 -0.81025556D-04  0.10316396D-13
 -0.86087487D-14 -0.12282617D-03 -0.21871465D-15  0.12895890D-13  0.36590284D-03
 -0.30730474D-13  0.95169872D-15  0.11281806D-10  0.21092472D-10  0.36454062D-10
  0.58962942D-10  0.89120514D-10  0.12273740D-09  0.14346507D-09  0.12399222D-09
  0.57867814D-10  0.78398190D-11 -0.57341565D-13  0.16060966D-12  0.20646211D-11
  0.75314408D-11  0.25410895D-10  0.55813727D-10  0.72096111D-10 -0.11586458D-10
 -0.97196615D-10 -0.53340249D-10  0.98389010D-15  0.11207120D-13  0.23270021D-13
  0.63986648D-13 -0.82966037D-14 -0.28931848D-12 -0.72160624D-12  0.59733520D-12
 -0.30827321D-11 -0.71208158D-13 -0.38889743D-13  0.58458255D-09  0.76693906D-09
  0.84116616D-09  0.69208618D-09  0.36482848D-09  0.94921509D-10  0.97723424D+01
  0.12820757D+02  0.14061596D+02  0.11569458D+02  0.60987603D+01  0.15867827D+01
  0.50362709D-10  0.66073010D-10  0.72467792D-10  0.59624316D-10  0.31430549D-10
  0.81776377D-11  0.31172147D-14  0.11189439D-12  0.17752325D-12  0.21080342D-12
  0.31900114D-13 -0.23216305D-12  0.96796397D-04  0.34745678D-02  0.55124889D-02
  0.65459114D-02  0.99056894D-03 -0.72091751D-02 -0.93152575D-15 -0.33437705D-13
 -0.53049757D-13 -0.62994959D-13 -0.95327977D-14  0.69377915D-13  0.45294829D-11
  0.66560114D-01  0.50468592D-12  0.14687249D-13 -0.57518359D-03  0.62166813D-13
 -0.81222568D-15 -0.27618523D-04  0.20601644D-14  0.68466356D-14  0.34506004D-14
 -0.10297236D-13 -0.15685512D-15  0.33768871D-13  0.77934443D-03 -0.20024286D-13
  0.47911306D-13 -0.27887021D-13 -0.96551941D-15 -0.21663843D-13 -0.10812188D-02
  0.24162082D-14  0.25447979D-14 -0.49610061D-14 -0.37392602D-15 -0.32941228D-14
 -0.30139482D-04  0.79933261D-14  0.59030961D-06  0.24035799D-14 -0.39529069D-14
  0.13079743D-03  0.20633285D-14 -0.20027072D-13 -0.13256836D-03 -0.92740680D-14
 -0.21123093D-15  0.59693789D-16  0.33976965D-04  0.95496877D-15  0.17269948D-14
 -0.21966159D-05 -0.10781088D-14 -0.19060762D-14 -0.99734279D-04 -0.17867975D-14
  0.86871596D-15 -0.10764248D-03 -0.19413764D-03 -0.28625584D-03  0.11444278D-03
  0.23861413D-02  0.26372819D-04 -0.94436308D-14 -0.17757622D-04  0.27122785D-03
  0.11651461D-13 -0.30831424D-04 -0.32830033D-03 -0.12498642D-14  0.31595535D-03
  0.13358976D-03 -0.48004497D-04 -0.14963396D-03  0.19763846D-03  0.61804244D-14
 -0.58214516D-14 -0.11812085D-04  0.26124061D-04 -0.23467983D-04 -0.26560786D-05
 -0.15857232D-14  0.77911914D-14 -0.11782249D-03  0.10764248D-03  0.19413764D-03
  0.28625584D-03 -0.11444278D-03 -0.23861413D-02 -0.26372819D-04 -0.11286704D-13
 -0.17757622D-04 -0.27122785D-03  0.13004995D-13 -0.30831424D-04  0.32830033D-03
 -0.41380313D-14  0.31595535D-03 -0.13358976D-03  0.48004497D-04  0.14963396D-03
 -0.19763846D-03 -0.92851904D-14 -0.27176534D-14 -0.11812085D-04 -0.26124061D-04
  0.23467983D-04  0.26560786D-05  0.14882494D-14  0.63527571D-14 -0.11782249D-03
MO    2     MO 0.0        OCC NO =    2.0000245  ORB. ENERGY =    0.000000
 -0.54623389D-01 -0.10182900D+00 -0.17210488D+00 -0.25870574D+00 -0.31777367D+00
 -0.26818976D+00 -0.10084635D+00 -0.92655014D-05 -0.69253883D-04 -0.25881757D-03
 -0.72206073D-03 -0.96736230D-03  0.11422745D-02 -0.43265553D-02 -0.57656621D-03
 -0.45340960D-04 -0.14325752D-12 -0.13431303D-12 -0.95638878D-13 -0.90414296D-13
 -0.84769149D-13 -0.60360684D-13  0.25501959D-02  0.23909708D-02  0.17025136D-02
 -0.23088646D-13  0.18379154D-13  0.50145015D-04 -0.14573728D-14 -0.10277364D-14
 -0.62146434D-03 -0.85412899D-16  0.25337040D-15 -0.79951084D-06  0.18987836D-03
 -0.15083547D-03 -0.39042881D-04  0.59552045D-14 -0.35235706D-13 -0.74070279D-13
  0.33995172D-04  0.14783202D-03 -0.18182720D-03 -0.72470873D-14  0.31147339D-13
 -0.56999070D-14  0.11379872D-04  0.86418178D-04 -0.97798050D-04 -0.17266438D-15
 -0.23295069D-14 -0.84705399D-15  0.39306092D-14  0.13659057D-13  0.92851226D-05
  0.35568758D-14 -0.58317223D-14 -0.17386786D-03 -0.15348703D-13 -0.35145449D-13
  0.14601249D-03 -0.23382086D-14 -0.17519312D-14  0.55681629D-15  0.62070315D-04
 -0.67183755D-14 -0.13022521D-14  0.90173612D-05  0.11974169D-13 -0.36819681D-15
 -0.19522831D-03  0.37186733D-14 -0.11893649D+00 -0.22236375D+00 -0.38431065D+00
 -0.62160664D+00 -0.93953763D+00 -0.12939378D+01 -0.15124558D+01 -0.13071665D+01
 -0.61006143D+00 -0.82649938D-01  0.60451355D-03 -0.14810028D-02 -0.19038142D-01
 -0.69448407D-01 -0.23431720D+00 -0.51466572D+00 -0.66480773D+00  0.10684026D+00
  0.89626278D+00  0.49185745D+00 -0.12420997D-04 -0.14148287D-03 -0.29376945D-03
 -0.80779137D-03  0.10473943D-03  0.36524647D-02  0.91098270D-02 -0.75409829D-02
  0.27446035D-01  0.12155738D-02  0.12441725D-04  0.48116009D-09  0.63125467D-09
  0.69234976D-09  0.56964452D-09  0.30028420D-09  0.78128301D-10  0.46365060D-09
  0.60828321D-09  0.66715504D-09  0.54891507D-09  0.28935681D-09  0.75285200D-10
  0.67793582D+01  0.88941324D+01  0.97549384D+01  0.80260695D+01  0.42308875D+01
  0.11007973D+01  0.25515639D-14  0.91589997D-13  0.14530983D-12  0.17255096D-12
  0.26111509D-13 -0.19003467D-12  0.40989275D-14  0.14713359D-12  0.23343113D-12
  0.27719230D-12  0.41946501D-13 -0.30527878D-12  0.57348074D-04  0.20585453D-02
  0.32659337D-02  0.38781961D-02  0.58687329D-03 -0.42711539D-02  0.37305094D-11
  0.31361427D-11  0.49524874D-01  0.77857989D-14 -0.27890072D-13 -0.66554207D-03
 -0.70190071D-15 -0.16507383D-14 -0.16630749D-05 -0.26253582D-03 -0.10807220D-03
  0.37060802D-03 -0.11090682D-14  0.31265789D-13  0.13495085D-13  0.35204547D-03
 -0.37781090D-03  0.25765434D-04  0.57147416D-15 -0.20359200D-13 -0.43169030D-13
 -0.58436298D-05 -0.23713123D-04  0.29556753D-04 -0.66102185D-16 -0.14402158D-14
 -0.94380460D-15  0.62249248D-14 -0.12805285D-14 -0.71513570D-04 -0.38202635D-14
  0.51248261D-14  0.21299904D-03 -0.14854511D-13 -0.12832404D-14  0.15416687D-05
 -0.38535197D-15  0.38128732D-15  0.74542288D-15 -0.20367488D-04  0.17287056D-14
 -0.91871257D-15  0.27025922D-04 -0.28725676D-14 -0.13175561D-14  0.34076542D-04
  0.62948766D-15 -0.23233069D-04 -0.41901797D-04 -0.61784175D-04 -0.41521086D-03
 -0.45711869D-03  0.30107664D-05 -0.27958446D-15  0.22966416D-04  0.98634625D-04
 -0.72132205D-16  0.26735085D-04  0.21904592D-04 -0.32488085D-14  0.34672277D-04
 -0.12741995D-03 -0.10076895D-03  0.17271791D-04  0.83497159D-04  0.40272913D-14
 -0.52723159D-14  0.13256898D-03 -0.31679358D-04  0.21651626D-04  0.10027732D-04
 -0.37522088D-14  0.46591078D-14 -0.68070927D-04 -0.23233069D-04 -0.41901797D-04
 -0.61784175D-04 -0.41521086D-03 -0.45711869D-03  0.30107664D-05 -0.13567363D-13
 -0.22966416D-04  0.98634625D-04  0.15611015D-13 -0.26735085D-04  0.21904592D-04
 -0.19196340D-14 -0.34672277D-04 -0.12741995D-03 -0.10076895D-03  0.17271791D-04
  0.83497159D-04 -0.57243700D-14 -0.26396704D-14 -0.13256898D-03 -0.31679358D-04
  0.21651626D-04  0.10027732D-04 -0.40031630D-15  0.58545605D-14  0.68070927D-04
MO    3     MO 0.0        OCC NO =    2.0000104  ORB. ENERGY =    0.000000
 -0.14590999D+00 -0.27200561D+00 -0.45972655D+00 -0.69105474D+00 -0.84883698D+00
 -0.71638846D+00 -0.26938077D+00 -0.22784657D-04 -0.17030120D-03 -0.63645446D-03
 -0.17756088D-02 -0.23788263D-02  0.28089503D-02 -0.11804500D-01 -0.96736658D-04
 -0.10686610D-03 -0.17013913D-12 -0.15951625D-12 -0.11358507D-12  0.12405414D-12
  0.11630864D-12  0.82818684D-13  0.38709085D-02  0.36292227D-02  0.25842228D-02
 -0.23911121D-13 -0.12643775D-12  0.56324580D-03  0.42417377D-14 -0.14823148D-12
 -0.14903127D-03  0.26051185D-15 -0.45083725D-14 -0.37560307D-05  0.42886520D-03
 -0.43801433D-03  0.91491335D-05 -0.33622003D-14 -0.38578255D-13  0.12432249D-12
 -0.11958008D-03 -0.65974179D-05  0.12617749D-03  0.26436951D-14  0.36822807D-13
  0.74078571D-13  0.12816099D-04  0.57860626D-04 -0.70676725D-04 -0.57411879D-15
 -0.23594962D-14  0.11486238D-13  0.56814292D-14 -0.19598130D-13  0.71359076D-04
  0.44595151D-14  0.16276689D-13 -0.43721424D-03 -0.21503803D-13  0.42517701D-13
  0.22313702D-03 -0.23517771D-14 -0.24832444D-14  0.33376817D-14  0.11936444D-03
 -0.84487040D-14  0.12038290D-13 -0.24627296D-04  0.15898437D-13 -0.22051335D-13
 -0.33346604D-03 -0.78911102D-15  0.11474945D+00  0.21453566D+00  0.37078139D+00
  0.59972362D+00  0.90646218D+00  0.12483861D+01  0.14592113D+01  0.12611491D+01
  0.58858485D+00  0.79740333D-01 -0.58323228D-03  0.14421859D-02  0.18539155D-01
  0.67628171D-01  0.22817577D+00  0.50117638D+00  0.64738319D+00 -0.10403999D+00
 -0.87277182D+00 -0.47896592D+00  0.65817509D-05  0.74970235D-04  0.15566523D-03
  0.42803986D-03 -0.55500283D-04 -0.19354013D-02 -0.48271982D-02  0.39958848D-02
 -0.28429494D-01  0.11086812D-02  0.30643150D-04  0.54822781D-09  0.71924372D-09
  0.78885470D-09  0.64904588D-09  0.34214008D-09  0.89018414D-10 -0.58774266D-09
 -0.77108494D-09 -0.84571330D-09 -0.69582743D-09 -0.36680066D-09 -0.95434631D-10
  0.56434949D+01  0.74039444D+01  0.81205246D+01  0.66813230D+01  0.35220136D+01
  0.91636169D+00  0.29717634D-14  0.10667332D-12  0.16923990D-12  0.20096719D-12
  0.30411633D-13 -0.22133017D-12 -0.57790047D-14 -0.20744102D-12 -0.32911038D-12
 -0.39080848D-12 -0.59139624D-13  0.43040710D-12  0.36556011D-04  0.13122011D-02
  0.20818399D-02  0.24721211D-02  0.37409708D-03 -0.27226084D-02  0.42528888D-11
 -0.39776530D-11  0.43460443D-01  0.63555206D-14  0.44554483D-13 -0.11525132D-03
 -0.10414520D-14  0.21121506D-14  0.45001092D-06 -0.15185056D-03 -0.14068320D-03
  0.29253376D-03 -0.24515342D-16  0.38539005D-13 -0.41746080D-13 -0.12787037D-03
  0.47489055D-03 -0.34702018D-03  0.98287131D-15 -0.22489260D-13  0.72083333D-13
  0.59379660D-05  0.21585021D-05 -0.80964681D-05  0.21682943D-15 -0.71718154D-15
 -0.59082316D-15  0.74364268D-14  0.14119723D-14 -0.42586964D-04 -0.51317980D-14
 -0.79715652D-14  0.20607598D-03 -0.17177482D-13  0.37356483D-14 -0.78315084D-04
  0.19490528D-14  0.65427034D-15 -0.19599544D-14 -0.13526742D-04  0.23307501D-14
  0.21631907D-15  0.20496650D-04 -0.42935611D-14  0.56635441D-14  0.20083574D-04
 -0.42834748D-15  0.33913488D-04  0.61164373D-04  0.90186832D-04 -0.38037359D-03
 -0.10792932D-07  0.68685955D-05 -0.61614260D-14  0.16416743D-03  0.20616036D-03
  0.97914862D-14  0.11097468D-03  0.16217566D-03 -0.50070002D-14  0.71188507D-04
 -0.57810809D-04 -0.22498430D-03  0.99776056D-04  0.12520825D-03  0.95991018D-14
 -0.18789746D-14  0.43353067D-03 -0.62488098D-04  0.81863570D-05  0.54301741D-04
 -0.32837025D-14  0.64027961D-14 -0.60617454D-04  0.33913488D-04  0.61164372D-04
  0.90186832D-04 -0.38037359D-03 -0.10792504D-07  0.68685955D-05 -0.58379932D-14
 -0.16416743D-03  0.20616036D-03  0.49914914D-14 -0.11097468D-03  0.16217566D-03
 -0.37426644D-14 -0.71188508D-04 -0.57810809D-04 -0.22498430D-03  0.99776056D-04
  0.12520825D-03 -0.35291840D-14 -0.57499048D-14 -0.43353067D-03 -0.62488098D-04
  0.81863570D-05  0.54301741D-04  0.39846440D-14  0.61821511D-14  0.60617454D-04
MO    4     MO 0.0        OCC NO =    2.0000047  ORB. ENERGY =    0.000000
  0.28823537D+00  0.53732879D+00  0.90815887D+00  0.13651322D+01  0.16768204D+01
  0.14151772D+01  0.53214359D+00  0.30562954D-04  0.22843915D-03  0.85372924D-03
  0.23817717D-02  0.31909174D-02 -0.37678784D-02  0.23831772D-01 -0.49573586D-03
  0.32363186D-06 -0.22695489D-11 -0.21278463D-11 -0.15151533D-11 -0.35966828D-14
 -0.33721188D-14 -0.24011494D-14  0.41929994D-02  0.39312035D-02  0.27992511D-02
 -0.37193493D-12  0.15999399D-13 -0.35595772D-03 -0.29743320D-13 -0.10870091D-13
 -0.28709796D-03  0.69126099D-16  0.97148356D-16 -0.34708136D-05 -0.12115685D-02
  0.60772480D-03  0.60384369D-03 -0.34092700D-14 -0.51466649D-12  0.14683278D-13
  0.18140980D-03  0.10555444D-03 -0.28696424D-03  0.91254103D-15  0.47577734D-12
 -0.25784056D-13  0.82423902D-05  0.35025089D-04 -0.43267479D-04 -0.17758998D-15
 -0.39389192D-13 -0.12612175D-13  0.64900573D-13  0.38593809D-15  0.41863419D-03
  0.34266228D-13 -0.79533681D-14  0.19197779D-03 -0.22896795D-12  0.67955538D-14
 -0.14478804D-02  0.40265746D-15 -0.25952675D-13  0.11980567D-14 -0.68783553D-04
 -0.10686628D-12  0.23621092D-14 -0.24856384D-04  0.18472430D-12 -0.59562791D-14
  0.23120704D-03 -0.33615886D-15  0.35619293D-01  0.66593856D-01  0.11509398D+00
  0.18615976D+00  0.28137425D+00  0.38751060D+00  0.45295270D+00  0.39147235D+00
  0.18270219D+00  0.24752137D-01 -0.18104070D-03  0.44674122D-03  0.57428135D-02
  0.20948958D-01  0.70681265D-01  0.15524777D+00  0.20053778D+00 -0.32228127D-01
 -0.27035568D+00 -0.14836771D+00  0.17842104D-05  0.20323266D-04  0.42198426D-04
  0.11603495D-03 -0.15045264D-04 -0.52465722D-03 -0.13085784D-02  0.10832223D-02
 -0.91910396D-02  0.12638520D-02  0.10039609D-03  0.73011353D-08  0.95786743D-08
  0.10505733D-07  0.86438004D-08  0.45565201D-08  0.11855208D-08 -0.77411377D-10
 -0.10155932D-09 -0.11138860D-09 -0.91647184D-10 -0.48311185D-10 -0.12569662D-10
  0.41204436D+01  0.54057877D+01  0.59289792D+01  0.48781855D+01  0.25715020D+01
  0.66905646D+00  0.39314137D-13  0.14112058D-11  0.22389133D-11  0.26586409D-11
  0.40232244D-12 -0.29280273D-11 -0.83824960D-15 -0.30089499D-13 -0.47737744D-13
 -0.56687106D-13 -0.85782533D-14  0.62430920D-13  0.30422313D-04  0.10920281D-02
  0.17325300D-02  0.20573262D-02  0.31132769D-03 -0.22657846D-02  0.56580347D-10
 -0.52703142D-12  0.32129767D-01  0.12329876D-12  0.26358069D-13 -0.33624657D-03
 -0.11608855D-13  0.31242185D-15 -0.45568449D-05 -0.12742982D-03 -0.22618753D-03
  0.35361734D-03 -0.17457264D-15  0.48158370D-12 -0.18712196D-13  0.10562072D-03
  0.34039760D-03 -0.44601832D-03  0.63435431D-15 -0.28457429D-12  0.14279846D-13
 -0.10270443D-04 -0.12044959D-04  0.22315402D-04  0.10777957D-15 -0.23973179D-13
 -0.38878723D-14  0.98480012D-13 -0.11630524D-14  0.63836180D-04 -0.55358507D-13
 -0.30200738D-14 -0.44826010D-04 -0.24008153D-12  0.65092309D-14 -0.14668253D-03
  0.43380955D-15  0.55284183D-14 -0.88174996D-15 -0.36503702D-04  0.27051563D-13
  0.16888885D-16  0.27891110D-04 -0.43636818D-13  0.26283610D-14  0.81619995D-04
 -0.19658571D-15 -0.30678277D-03 -0.55329536D-03 -0.81583369D-03 -0.52730683D-03
 -0.46764093D-03 -0.71384469D-05 -0.98301016D-13 -0.82747703D-03 -0.37186673D-03
  0.12636888D-12 -0.41368703D-03 -0.27323544D-03 -0.44194291D-13 -0.36385676D-04
 -0.98145193D-04  0.27871886D-03 -0.43900730D-03  0.16028843D-03  0.10430573D-12
 -0.45723281D-13 -0.96035745D-03  0.50883238D-04 -0.25478579D-04 -0.25404659D-04
 -0.28843087D-13  0.83619972D-13 -0.77933425D-04 -0.30678277D-03 -0.55329536D-03
 -0.81583369D-03 -0.52730683D-03 -0.46764093D-03 -0.71384469D-05 -0.96243945D-13
  0.82747703D-03 -0.37186673D-03  0.12438597D-12  0.41368703D-03 -0.27323544D-03
 -0.44024213D-13  0.36385676D-04 -0.98145193D-04  0.27871886D-03 -0.43900730D-03
  0.16028843D-03 -0.10719329D-12 -0.46367936D-13  0.96035745D-03  0.50883238D-04
 -0.25478579D-04 -0.25404659D-04  0.29280976D-13  0.83158839D-13  0.77933425D-04
MO    5     MO 0.0        OCC NO =    2.0000045  ORB. ENERGY =    0.000000
 -0.20566709D-09 -0.38340489D-09 -0.64800650D-09 -0.97407463D-09 -0.11964762D-08
 -0.10097837D-08 -0.37970505D-09 -0.21257183D-13 -0.15888428D-12 -0.59378681D-12
 -0.16565728D-11 -0.22193508D-11  0.26206394D-11 -0.17001160D-10  0.19282970D-12
 -0.47779254D-13 -0.30069110D-02 -0.28191702D-02 -0.20074171D-02  0.82723924D-13
  0.77558937D-13  0.55226584D-13 -0.34586252D-11 -0.32426809D-11 -0.23089820D-11
 -0.49486674D-03  0.44116468D-13  0.13966907D-12 -0.48395658D-04 -0.86426845D-13
  0.10383165D-12 -0.18691099D-06 -0.21304946D-14 -0.26459232D-14  0.86410240D-12
 -0.42621736D-12 -0.43788504D-12  0.45621356D-14 -0.68154516D-03  0.70328343D-13
 -0.10923144D-12 -0.55479113D-13  0.16471056D-12 -0.60257216D-14  0.63153369D-03
 -0.15682128D-13 -0.49244378D-14 -0.25000575D-13  0.29925013D-13  0.37347928D-15
 -0.53167270D-04  0.56242554D-14  0.85438097D-04 -0.68725898D-14 -0.32825990D-12
  0.43791626D-04 -0.17748219D-13 -0.96006189D-13 -0.30010592D-03  0.38365989D-13
  0.10807859D-11  0.49819285D-15 -0.33764890D-04  0.55194575D-14  0.38135859D-13
 -0.14202904D-03  0.73574522D-14  0.25252557D-13  0.24332371D-03 -0.23915825D-13
 -0.13966013D-12  0.36958910D-14 -0.20092813D-10 -0.37565537D-10 -0.64924414D-10
 -0.10501256D-09 -0.15872298D-09 -0.21859440D-09 -0.25551024D-09 -0.22082922D-09
 -0.10306215D-09 -0.13962660D-10  0.10212490D-12 -0.34404113D-12 -0.44226140D-11
 -0.16133060D-10 -0.54432546D-10 -0.11955829D-09 -0.15443671D-09  0.24819293D-10
  0.20820436D-09  0.11425987D-09 -0.11405513D-14 -0.12991588D-13 -0.26975220D-13
 -0.74175005D-13  0.96176413D-14  0.33538559D-12  0.83650493D-12 -0.69244667D-12
  0.71339188D-11 -0.73736702D-12  0.26860691D-13  0.97155918D+01  0.12746304D+02
  0.13979937D+02  0.11502271D+02  0.60633432D+01  0.15775678D+01 -0.58798861D-09
 -0.77140762D-09 -0.84606721D-09 -0.69611862D-09 -0.36695415D-09 -0.95474569D-10
 -0.37507273D-08 -0.49207410D-08 -0.53969879D-08 -0.44404790D-08 -0.23407681D-08
 -0.60902382D-09  0.52217067D-04  0.18743646D-02  0.29737264D-02  0.35312089D-02
  0.53436498D-03 -0.38890082D-02 -0.58298393D-14 -0.20926576D-12 -0.33200537D-12
 -0.39424620D-12 -0.59659841D-13  0.43419314D-12 -0.26151456D-13 -0.93872300D-12
 -0.14893076D-11 -0.17685071D-11 -0.26762173D-12  0.19477008D-11  0.75296111D-01
 -0.40046770D-11 -0.28976048D-10  0.16892571D-03  0.44491309D-13  0.16753160D-12
 -0.15231317D-04  0.19932919D-14 -0.68052153D-15  0.99299939D-13  0.16346870D-12
 -0.26276864D-12 -0.34295433D-15  0.63699487D-03 -0.51037509D-13 -0.96823154D-13
 -0.26676931D-12  0.36359247D-12 -0.34749090D-14 -0.38048096D-03  0.63511028D-13
  0.33284371D-14  0.58046538D-14 -0.91330908D-14 -0.33093306D-15 -0.33425649D-04
 -0.43121595D-15  0.13073053D-03 -0.68726877D-15 -0.54560592D-13 -0.72288268D-04
 -0.91923814D-14  0.31032494D-13 -0.31990332D-03  0.11254188D-13  0.13264928D-12
 -0.11401812D-14  0.70360623D-05 -0.22502803D-14  0.26988648D-13  0.35596788D-04
  0.10700747D-15 -0.20310806D-13 -0.56704975D-04  0.66438335D-14 -0.60655137D-13
  0.94316151D-15  0.23750950D-12  0.42835816D-12  0.63161385D-12  0.43695762D-12
  0.18949778D-12  0.11213749D-14 -0.13097601D-03  0.61451763D-12  0.23923048D-12
  0.17067322D-03  0.30231785D-12  0.21114073D-12 -0.56986824D-04  0.32921942D-14
  0.58050035D-13 -0.18860943D-12  0.32982666D-12 -0.14121722D-12  0.14142578D-03
 -0.60617356D-04  0.67926460D-12 -0.32990339D-13  0.20682159D-13  0.12308180D-13
 -0.36753502D-04  0.11140581D-03  0.68963233D-13  0.22445021D-12  0.40480519D-12
  0.59688501D-12  0.42283337D-12  0.40251451D-12  0.50320830D-14 -0.13097601D-03
 -0.60696276D-12  0.26621048D-12  0.17067322D-03 -0.29337317D-12  0.16260866D-12
 -0.56986824D-04 -0.31033970D-13  0.75860173D-13 -0.19384641D-12  0.31462765D-12
 -0.12078124D-12 -0.14142578D-03 -0.60617356D-04 -0.67584702D-12 -0.31010944D-13
  0.18104698D-13  0.12906247D-13  0.36753502D-04  0.11140581D-03 -0.53029686D-13
MO    6     MO 0.0        OCC NO =    2.0000000  ORB. ENERGY =    0.000000
 -0.84967521D-04 -0.15839658D-03 -0.26771179D-03 -0.40242076D-03 -0.49430182D-03
 -0.41717330D-03 -0.15686806D-03  0.52994048D-07  0.39609768D-06  0.14803075D-05
  0.41298273D-05  0.55328300D-05 -0.65332406D-05  0.60415861D-06 -0.28879128D-04
 -0.71374648D-05  0.34884955D-13  0.32706862D-13  0.23289234D-13 -0.35021645D-13
 -0.32835018D-13 -0.23380489D-13  0.13778541D-04  0.12918258D-04  0.91985690D-05
  0.17402816D-13  0.16540660D-12 -0.39026931D-04  0.20014916D-13  0.18484606D-12
  0.44080723D-05  0.82909233D-15  0.68440242D-14 -0.38201307D-06  0.15608450D-05
  0.90593724D-05 -0.10620217D-04  0.12800533D-14  0.21828084D-15 -0.36434159D-13
  0.59237312D-05  0.42464510D-05 -0.10170182D-04 -0.17722067D-15 -0.18107671D-14
 -0.10766749D-12  0.62099687D-06 -0.93633932D-06  0.31534245D-06 -0.88886325D-15
  0.33141347D-14 -0.16429982D-13  0.70618074D-15  0.49168088D-14  0.26800568D-05
 -0.58386087D-15 -0.18620590D-13 -0.22658426D-06 -0.15346813D-14  0.38701633D-14
 -0.78135863D-05  0.29246634D-14 -0.11979175D-14 -0.17525368D-14 -0.28927210D-06
  0.28395329D-14 -0.13625122D-13  0.59570799D-06  0.75421976D-15  0.18882732D-13
  0.27210831D-06 -0.15879366D-14  0.58267910D+00  0.10893773D+01  0.18827677D+01
  0.30452992D+01  0.46028678D+01  0.63391019D+01  0.74096382D+01  0.64039104D+01
  0.29887383D+01  0.40490846D+00 -0.29615588D-02 -0.29223699D-04 -0.37566770D-03
 -0.13703818D-02 -0.46236342D-02 -0.10155575D-01 -0.13118233D-01  0.21082117D-02
  0.17685390D-01  0.97055141D-02  0.19840230D-06  0.22599255D-05  0.46924200D-05
  0.12902963D-04 -0.16730174D-05 -0.58341324D-04 -0.14551253D-03  0.12045316D-03
  0.10837020D-04 -0.18703805D-04  0.31095925D-05 -0.12106890D-09 -0.15883552D-09
 -0.17420819D-09 -0.14333325D-09 -0.75557138D-10 -0.19658546D-10  0.25883093D-10
  0.33957146D-10  0.37243640D-10  0.30642945D-10  0.16153218D-10  0.42027636D-11
  0.11404544D-01  0.14962113D-01  0.16410200D-01  0.13501818D-01  0.71173909D-02
  0.18518112D-02 -0.63627429D-15 -0.22839467D-13 -0.36235387D-13 -0.43028411D-13
 -0.65113326D-14  0.47388259D-13  0.67841894D-15  0.24352276D-13  0.38635497D-13
  0.45878467D-13  0.69426213D-14 -0.50527097D-13  0.70212772D-06  0.25203318D-04
  0.39985695D-04  0.47481786D-04  0.71852458D-05 -0.52292872D-04 -0.93421318D-12
  0.19322197D-12  0.16452909D-03 -0.12973427D-13 -0.62652076D-14  0.55518713D-05
 -0.35633496D-15 -0.72137252D-15 -0.25831051D-07 -0.58588662D-05 -0.37322853D-05
  0.95911515D-05  0.73026315D-15 -0.15393815D-15  0.20894822D-13  0.93771394D-05
 -0.15771317D-04  0.63941778D-05 -0.65770946D-15 -0.15987876D-15 -0.25790320D-13
  0.60184115D-06  0.49744477D-06 -0.10992859D-05  0.20874806D-15  0.40643837D-14
  0.14236886D-14 -0.19143387D-14 -0.16120454D-14 -0.69266886D-05 -0.20472408D-15
  0.28331509D-14  0.12191515D-04  0.59477400D-14  0.20029852D-14  0.85885509D-05
  0.46085075D-15  0.71274004D-15  0.10039352D-14 -0.73514321D-07  0.46403795D-15
  0.39711224D-15  0.21154602D-07 -0.26022581D-14 -0.34089177D-14  0.19938836D-06
 -0.76895728D-15 -0.12776496D-05 -0.23042937D-05 -0.33976797D-05  0.21451850D-05
  0.17324648D-04  0.23947458D-06  0.89282990D-14 -0.60851521D-05 -0.15749282D-05
 -0.98494712D-14  0.68421468D-06 -0.14173420D-05 -0.30319773D-14  0.72261006D-06
  0.25366473D-05 -0.25148375D-05 -0.17402507D-05  0.42550882D-05 -0.41453684D-15
  0.42302266D-14 -0.22200170D-05 -0.55163251D-07 -0.45059769D-06  0.50576094D-06
 -0.21989771D-14 -0.42586110D-14 -0.18400940D-05 -0.12776496D-05 -0.23042937D-05
 -0.33976797D-05  0.21451846D-05  0.17324647D-04  0.23947455D-06  0.10436864D-13
  0.60851521D-05 -0.15749282D-05 -0.11090256D-13 -0.68421450D-06 -0.14173421D-05
 -0.71569939D-15 -0.72260999D-06  0.25366472D-05 -0.25148374D-05 -0.17402508D-05
  0.42550882D-05  0.21344254D-14  0.79247989D-15  0.22200171D-05 -0.55163251D-07