 h2cs-wavefunction
GAUSSIAN            142 MOL ORBITALS    240 PRIMITIVES        4 NUCLEI
  C    1    (CENTRE  1)   0.00000000  0.00000000 -1.04934791  CHARGE =  6.0
  S    2    (CENTRE  2)   0.00000000  0.00000000  2.00381646  CHARGE = 16.0
  H    3    (CENTRE  3)   0.00000000 -1.74285662 -2.11458842  CHARGE =  1.0
  H    4    (CENTRE  4)   0.00000000  1.74285662 -2.13348569  CHARGE =  1.0
CENTRE ASSIGNMENTS    1  1  1  1  1  1  1  1  1  1  1  1  1  1  1  1  1  1  1  1
CENTRE ASSIGNMENTS    1  1  1  1  1  1  1  1  1  1  1  1  1  1  1  1  1  1  1  1
CENTRE ASSIGNMENTS    1  1  1  1  1  1  1  1  1  1  1  1  1  1  1  1  1  1  1  1
CENTRE ASSIGNMENTS    1  1  1  1  1  1  1  1  1  1  1  1  2  2  2  2  2  2  2  2
CENTRE ASSIGNMENTS    2  2  2  2  2  2  2  2  2  2  2  2  2  2  2  2  2  2  2  2
CENTRE ASSIGNMENTS    2  2  2  2  2  2  2  2  2  2  2  2  2  2  2  2  2  2  2  2
CENTRE ASSIGNMENTS    2  2  2  2  2  2  2  2  2  2  2  2  2  2  2  2  2  2  2  2
CENTRE ASSIGNMENTS    2  2  2  2  2  2  2  2  2  2  2  2  2  2  2  2  2  2  2  2
CENTRE ASSIGNMENTS    2  2  2  2  2  2  2  2  2  2  2  2  2  2  2  2  2  2  2  2
CENTRE ASSIGNMENTS    2  2  2  2  2  2  3  3  3  3  3  3  3  3  3  3  3  3  3  3
CENTRE ASSIGNMENTS    3  3  3  3  3  3  3  3  3  3  3  3  3  4  4  4  4  4  4  4
CENTRE ASSIGNMENTS    4  4  4  4  4  4  4  4  4  4  4  4  4  4  4  4  4  4  4  4
TYPE ASSIGNMENTS      1  1  1  1  1  1  1  1  1  1  1  1  1  1  1  1  2  2  2  3
TYPE ASSIGNMENTS      3  3  4  4  4  2  3  4  2  3  4  2  3  4  5  6  7  8  9 10
TYPE ASSIGNMENTS      5  6  7  8  9 10  5  6  7  8  9 10 11 12 13 17 14 15 18 19
TYPE ASSIGNMENTS     16 20 11 12 13 17 14 15 18 19 16 20  1  1  1  1  1  1  1  1
TYPE ASSIGNMENTS      1  1  1  1  1  1  1  1  1  1  1  1  1  1  1  1  1  1  1  1
TYPE ASSIGNMENTS      1  1  1  2  2  2  2  2  2  3  3  3  3  3  3  4  4  4  4  4
TYPE ASSIGNMENTS      4  2  2  2  2  2  2  3  3  3  3  3  3  4  4  4  4  4  4  2
TYPE ASSIGNMENTS      3  4  2  3  4  2  3  4  5  6  7  8  9 10  5  6  7  8  9 10
TYPE ASSIGNMENTS      5  6  7  8  9 10 11 12 13 17 14 15 18 19 16 20 11 12 13 17
TYPE ASSIGNMENTS     14 15 18 19 16 20  1  1  1  1  1  1  2  3  4  2  3  4  2  3
TYPE ASSIGNMENTS      4  5  6  7  8  9 10  5  6  7  8  9 10  1  1  1  1  1  1  2
TYPE ASSIGNMENTS      3  4  2  3  4  2  3  4  5  6  7  8  9 10  5  6  7  8  9 10
EXPONENTS  0.8236000D+04 0.1235000D+04 0.2808000D+03 0.7927000D+02 0.2559000D+02
EXPONENTS  0.8997000D+01 0.3319000D+01 0.2808000D+03 0.7927000D+02 0.2559000D+02
EXPONENTS  0.8997000D+01 0.3319000D+01 0.3643000D+00 0.9059000D+00 0.1285000D+00
EXPONENTS  0.4402000D-01 0.1871000D+02 0.4133000D+01 0.1200000D+01 0.1871000D+02
EXPONENTS  0.4133000D+01 0.1200000D+01 0.1871000D+02 0.4133000D+01 0.1200000D+01
EXPONENTS  0.3827000D+00 0.3827000D+00 0.3827000D+00 0.1209000D+00 0.1209000D+00
EXPONENTS  0.1209000D+00 0.3569000D-01 0.3569000D-01 0.3569000D-01 0.1097000D+01
EXPONENTS  0.1097000D+01 0.1097000D+01 0.1097000D+01 0.1097000D+01 0.1097000D+01
EXPONENTS  0.3180000D+00 0.3180000D+00 0.3180000D+00 0.3180000D+00 0.3180000D+00
EXPONENTS  0.3180000D+00 0.1000000D+00 0.1000000D+00 0.1000000D+00 0.1000000D+00
EXPONENTS  0.1000000D+00 0.1000000D+00 0.7610000D+00 0.7610000D+00 0.7610000D+00
EXPONENTS  0.7610000D+00 0.7610000D+00 0.7610000D+00 0.7610000D+00 0.7610000D+00
EXPONENTS  0.7610000D+00 0.7610000D+00 0.2680000D+00 0.2680000D+00 0.2680000D+00
EXPONENTS  0.2680000D+00 0.2680000D+00 0.2680000D+00 0.2680000D+00 0.2680000D+00
EXPONENTS  0.2680000D+00 0.2680000D+00 0.3741000D+06 0.5605000D+05 0.1276000D+05
EXPONENTS  0.3615000D+04 0.1183000D+04 0.4288000D+03 0.1678000D+03 0.6947000D+02
EXPONENTS  0.2984000D+02 0.1272000D+02 0.5244000D+01 0.3615000D+04 0.1183000D+04
EXPONENTS  0.4288000D+03 0.1678000D+03 0.6947000D+02 0.2984000D+02 0.1272000D+02
EXPONENTS  0.5244000D+01 0.2219000D+01 0.1183000D+04 0.1678000D+03 0.6947000D+02
EXPONENTS  0.2984000D+02 0.1272000D+02 0.5244000D+01 0.2219000D+01 0.3490000D+00
EXPONENTS  0.7767000D+00 0.1322000D+00 0.4970000D-01 0.5744000D+03 0.1358000D+03
EXPONENTS  0.4319000D+02 0.1587000D+02 0.6208000D+01 0.2483000D+01 0.5744000D+03
EXPONENTS  0.1358000D+03 0.4319000D+02 0.1587000D+02 0.6208000D+01 0.2483000D+01
EXPONENTS  0.5744000D+03 0.1358000D+03 0.4319000D+02 0.1587000D+02 0.6208000D+01
EXPONENTS  0.2483000D+01 0.1358000D+03 0.4319000D+02 0.1587000D+02 0.6208000D+01
EXPONENTS  0.2483000D+01 0.3229000D+00 0.1358000D+03 0.4319000D+02 0.1587000D+02
EXPONENTS  0.6208000D+01 0.2483000D+01 0.3229000D+00 0.1358000D+03 0.4319000D+02
EXPONENTS  0.1587000D+02 0.6208000D+01 0.2483000D+01 0.3229000D+00 0.8688000D+00
EXPONENTS  0.8688000D+00 0.8688000D+00 0.1098000D+00 0.1098000D+00 0.1098000D+00
EXPONENTS  0.3510000D-01 0.3510000D-01 0.3510000D-01 0.2690000D+00 0.2690000D+00
EXPONENTS  0.2690000D+00 0.2690000D+00 0.2690000D+00 0.2690000D+00 0.8190000D+00
EXPONENTS  0.8190000D+00 0.8190000D+00 0.8190000D+00 0.8190000D+00 0.8190000D+00
EXPONENTS  0.1010000D+00 0.1010000D+00 0.1010000D+00 0.1010000D+00 0.1010000D+00
EXPONENTS  0.1010000D+00 0.5570000D+00 0.5570000D+00 0.5570000D+00 0.5570000D+00
EXPONENTS  0.5570000D+00 0.5570000D+00 0.5570000D+00 0.5570000D+00 0.5570000D+00
EXPONENTS  0.5570000D+00 0.2180000D+00 0.2180000D+00 0.2180000D+00 0.2180000D+00
EXPONENTS  0.2180000D+00 0.2180000D+00 0.2180000D+00 0.2180000D+00 0.2180000D+00
EXPONENTS  0.2180000D+00 0.3387000D+02 0.5095000D+01 0.1159000D+01 0.3258000D+00
EXPONENTS  0.1027000D+00 0.2526000D-01 0.1407000D+01 0.1407000D+01 0.1407000D+01
EXPONENTS  0.3880000D+00 0.3880000D+00 0.3880000D+00 0.1020000D+00 0.1020000D+00
EXPONENTS  0.1020000D+00 0.1057000D+01 0.1057000D+01 0.1057000D+01 0.1057000D+01
EXPONENTS  0.1057000D+01 0.1057000D+01 0.2470000D+00 0.2470000D+00 0.2470000D+00
EXPONENTS  0.2470000D+00 0.2470000D+00 0.2470000D+00 0.3387000D+02 0.5095000D+01
EXPONENTS  0.1159000D+01 0.3258000D+00 0.1027000D+00 0.2526000D-01 0.1407000D+01
EXPONENTS  0.1407000D+01 0.1407000D+01 0.3880000D+00 0.3880000D+00 0.3880000D+00
EXPONENTS  0.1020000D+00 0.1020000D+00 0.1020000D+00 0.1057000D+01 0.1057000D+01
EXPONENTS  0.1057000D+01 0.1057000D+01 0.1057000D+01 0.1057000D+01 0.2470000D+00
EXPONENTS  0.2470000D+00 0.2470000D+00 0.2470000D+00 0.2470000D+00 0.2470000D+00
MO    1     MO 0.0        OCC NO =    2.0000338  ORB. ENERGY =    0.000000
 -0.86457131D-04 -0.16117351D-03 -0.27240519D-03 -0.40947581D-03 -0.50296769D-03
 -0.42448699D-03 -0.15961819D-03 -0.27631029D-07 -0.20652483D-06 -0.77183043D-06
 -0.21532867D-05 -0.28848105D-05  0.34064233D-05 -0.54696833D-05 -0.18785877D-04
  0.42657859D-06  0.76616386D-13  0.71832732D-13  0.51149185D-13 -0.14273602D-02
 -0.13382410D-02 -0.95290728D-03  0.22952042D-04  0.21518998D-04  0.15322808D-04
  0.96144107D-14 -0.58729495D-03  0.97337756D-05 -0.12869188D-14  0.16147307D-02
 -0.95748912D-05 -0.10660747D-15  0.29772979D-04 -0.90359692D-07  0.49053791D-06
 -0.35680420D-05  0.30775041D-05  0.50156490D-16  0.16724623D-13 -0.10633887D-02
  0.78932486D-07 -0.59110921D-06  0.51217673D-06  0.45525185D-15 -0.14479593D-13
  0.49393703D-04 -0.32668030D-06  0.11750476D-06  0.20917554D-06 -0.15602393D-14
  0.92914373D-15 -0.21394817D-03 -0.20043586D-14  0.16881925D-03  0.71999144D-06
 -0.80508400D-15  0.19015179D-03 -0.40780773D-05  0.68181598D-14 -0.69660953D-03
  0.19181030D-05  0.23725796D-14  0.11417137D-14 -0.78922694D-04 -0.39956582D-07
  0.25632809D-14 -0.12292158D-03  0.95227596D-06 -0.59884220D-14  0.35968966D-03
 -0.83240622D-06 -0.17265689D-14 -0.88056727D-04 -0.16463092D-03 -0.28453116D-03
 -0.46021743D-03 -0.69560324D-03 -0.95798969D-03 -0.11197733D-02 -0.96778379D-03
 -0.45166974D-03 -0.61191338D-04  0.44756226D-06 -0.10803460D-05 -0.13887739D-04
 -0.50660474D-04 -0.17092718D-03 -0.37543279D-03 -0.48495676D-03  0.77936678D-04
  0.65379609D-03  0.35879486D-03 -0.12170605D-07 -0.13863075D-06 -0.28784742D-06
 -0.79150730D-06  0.10262801D-06  0.35788356D-05  0.89261843D-05 -0.73889661D-05
  0.19435092D-04  0.75593394D-05 -0.87114643D-07 -0.25009546D-09 -0.32811103D-09
 -0.35986679D-09 -0.29608755D-09 -0.15608052D-09 -0.40609216D-10  0.97724316D+01
  0.12820875D+02  0.14061725D+02  0.11569563D+02  0.60988160D+01  0.15867972D+01
  0.27228708D-01  0.35722516D-01  0.39179869D-01  0.32236016D-01  0.16992995D-01
  0.44212576D-02 -0.13105655D-14 -0.47043574D-13 -0.74635810D-13 -0.88627735D-13
 -0.13411712D-13  0.97607929D-13  0.96336671D-04  0.34580656D-02  0.54863078D-02
  0.65148222D-02  0.98586432D-03 -0.71749357D-02  0.26429481D-06  0.94870289D-05
  0.15051409D-04  0.17873087D-04  0.27046691D-05 -0.19684075D-04 -0.19380920D-11
  0.66510955D-01  0.19106277D-03 -0.30611637D-14 -0.57518573D-03 -0.36394316D-05
  0.47513926D-15 -0.27539429D-04 -0.97992588D-08 -0.73862725D-06 -0.34225139D-06
  0.10808786D-05  0.16098994D-15 -0.16078691D-13  0.76440312D-03  0.37895793D-06
  0.11718979D-05 -0.15508559D-05 -0.97051674D-15  0.11314348D-13 -0.10852585D-02
  0.28610845D-08 -0.21063602D-06  0.20777494D-06  0.47942161D-15  0.35970350D-15
 -0.30346269D-04 -0.34410386D-14  0.72320137D-06  0.42037611D-06  0.16252793D-14
  0.13055420D-03  0.70121521D-06  0.86978366D-14 -0.13272381D-03 -0.19623435D-05
  0.26493448D-14 -0.28323414D-15  0.33486583D-04 -0.12597202D-06 -0.86934352D-15
 -0.24327727D-05 -0.22191967D-07  0.17190459D-14 -0.98026978D-04  0.40010804D-06
 -0.11177335D-14 -0.10584445D-03 -0.19089483D-03 -0.28147431D-03  0.13496167D-03
  0.23806234D-02  0.25784460D-04  0.29058717D-16 -0.10939730D-04  0.27758732D-03
  0.46390015D-15 -0.21877877D-04 -0.31557726D-03 -0.35158366D-15  0.31589501D-03
  0.13049981D-03 -0.51662089D-04 -0.14717597D-03  0.19883806D-03  0.16798597D-16
  0.46692363D-14  0.28810657D-05  0.24122758D-04 -0.23831436D-04 -0.29132172D-06
  0.11901858D-14 -0.31568450D-14 -0.11638204D-03  0.10730901D-03  0.19353622D-03
  0.28536905D-03 -0.14270660D-03 -0.23729753D-02 -0.25756751D-04 -0.44986192D-16
 -0.17310686D-04 -0.26479416D-03 -0.19276948D-14 -0.17927534D-04  0.31562618D-03
  0.37840111D-14  0.31396580D-03 -0.13414896D-03  0.49471395D-04  0.14670339D-03
 -0.19617478D-03  0.27820364D-14  0.25438514D-14 -0.58983863D-05 -0.25105517D-04
  0.23203687D-04  0.19018304D-05 -0.14306556D-14 -0.10831164D-14 -0.11615314D-03
MO    2     MO 0.0        OCC NO =    2.0000243  ORB. ENERGY =    0.000000
 -0.53326564D-01 -0.99411458D-01 -0.16801891D+00 -0.25256376D+00 -0.31022934D+00
 -0.26182262D+00 -0.98452141D-01 -0.89054272D-05 -0.66562551D-04 -0.24875945D-03
 -0.69400014D-03 -0.92976885D-03  0.10978836D-02 -0.42222683D-02 -0.55770903D-03
 -0.39463793D-04  0.18346654D-12  0.17201154D-12  0.12248247D-12  0.45540969D-05
  0.42697554D-05  0.30403202D-05  0.24109263D-02  0.22603966D-02  0.16095371D-02
  0.23108330D-13  0.13393011D-05  0.49438513D-04 -0.54855422D-14  0.17237423D-05
 -0.59991222D-03 -0.38473444D-15  0.10364987D-06 -0.52160788D-06  0.19008328D-03
 -0.14779281D-03 -0.42290474D-04  0.29206897D-14  0.44176909D-13  0.40939011D-05
  0.38303220D-04  0.14596722D-03 -0.18427044D-03 -0.31546588D-15 -0.39106500D-13
 -0.29968192D-06  0.10845129D-04  0.84582049D-04 -0.95427177D-04 -0.44159829D-15
  0.24744324D-14 -0.40947873D-06 -0.60170165D-14  0.12405322D-05  0.99298891D-05
 -0.35605502D-15 -0.10241037D-05 -0.17216172D-03  0.18407104D-13 -0.26974930D-05
  0.14237205D-03 -0.24991450D-15  0.27662350D-14  0.24463972D-06  0.58643846D-04
  0.77103504D-14 -0.45354758D-06  0.11041631D-04 -0.16009055D-13 -0.28037158D-06
 -0.18697317D-03 -0.16929947D-15 -0.12105962D+00 -0.22633316D+00 -0.39117098D+00
 -0.63270293D+00 -0.95630930D+00 -0.13170359D+01 -0.15394546D+01 -0.13305008D+01
 -0.62095163D+00 -0.84125321D-01  0.61530471D-03 -0.15075880D-02 -0.19379892D-01
 -0.70695062D-01 -0.23852339D+00 -0.52390438D+00 -0.67674156D+00  0.10875813D+00
  0.91235141D+00  0.50068669D+00 -0.12524129D-04 -0.14265761D-03 -0.29620863D-03
 -0.81449851D-03  0.10560909D-03  0.36827913D-02  0.91854665D-02 -0.76035961D-02
  0.27954272D-01  0.11378512D-02  0.46111357D-05 -0.55863435D-09 -0.73289650D-09
 -0.80382884D-09 -0.66136616D-09 -0.34863463D-09 -0.90708174D-10 -0.22547431D-01
 -0.29580947D-01 -0.32443897D-01 -0.26693861D-01 -0.14071486D-01 -0.36611359D-02
  0.66632213D+01  0.87417675D+01  0.95878270D+01  0.78885752D+01  0.41584083D+01
  0.10819396D+01 -0.30675826D-14 -0.11011281D-12 -0.17469674D-12 -0.20744702D-12
 -0.31392202D-13  0.22846656D-12 -0.18260988D-06 -0.65548968D-05 -0.10399508D-04
 -0.12349097D-04 -0.18687438D-05  0.13600367D-04  0.55945858D-04  0.20082119D-02
  0.31860785D-02  0.37833705D-02  0.57252367D-03 -0.41667200D-02 -0.43292414D-11
 -0.15913324D-03  0.48663803D-01 -0.58684522D-14  0.20352201D-06 -0.64478711D-03
  0.11507938D-14  0.14541718D-07 -0.14332581D-05 -0.25585183D-03 -0.10234967D-03
  0.35820151D-03 -0.25043328D-15 -0.40923855D-13 -0.69116379D-06  0.35927823D-03
 -0.38149926D-03  0.22221030D-04 -0.38729698D-15  0.24655103D-13 -0.11249072D-05
 -0.54203524D-05 -0.23211154D-04  0.28631506D-04  0.89976371D-16  0.65738958D-15
  0.26348093D-06 -0.76491446D-14 -0.14074120D-06 -0.69595490D-04  0.38963903D-14
 -0.28379050D-06  0.20808449D-03  0.19051044D-13  0.70601409D-06  0.70198200D-06
  0.82916937D-15 -0.74469377D-15 -0.40238454D-08 -0.19765598D-04 -0.25102832D-14
  0.60172246D-07  0.25999354D-04  0.47443645D-14 -0.48100709D-07  0.33297441D-04
 -0.49964446D-15 -0.21170437D-04 -0.38181755D-04 -0.56298976D-04 -0.39065163D-03
 -0.44054805D-03  0.32240812D-05  0.54655823D-14  0.24550344D-04  0.95769128D-04
 -0.65119975D-14  0.31265584D-04  0.31634017D-04  0.45967728D-14  0.35666073D-04
 -0.12255438D-03 -0.99648094D-04  0.17592505D-04  0.82055589D-04 -0.82922066D-14
  0.16036509D-14  0.13174806D-03 -0.31041980D-04  0.21509798D-04  0.95321815D-05
  0.39489482D-14 -0.56303939D-14 -0.66031020D-04 -0.23036523D-04 -0.41547318D-04
 -0.61261497D-04 -0.39475366D-03 -0.44130911D-03  0.27623820D-05  0.15948691D-14
 -0.20763949D-04  0.91416213D-04 -0.53390544D-14 -0.34803331D-04  0.24875245D-04
  0.56450688D-14 -0.35918160D-04 -0.12277129D-03 -0.10054766D-03  0.20550846D-04
  0.79996809D-04  0.10173996D-13  0.12007457D-14 -0.13178780D-03 -0.31161174D-04
  0.21807535D-04  0.93536391D-05 -0.41208417D-14 -0.52148731D-14  0.64591957D-04
MO    3     MO 0.0        OCC NO =    2.0000101  ORB. ENERGY =    0.000000
 -0.15070868D+00 -0.28095134D+00 -0.47484605D+00 -0.71378217D+00 -0.87675356D+00
 -0.73994907D+00 -0.27824017D+00 -0.23140029D-04 -0.17295738D-03 -0.64638123D-03
 -0.18033030D-02 -0.24159288D-02  0.28527615D-02 -0.12194548D-01 -0.12513796D-03
 -0.10663089D-03  0.21315713D-13  0.19984835D-13  0.14230393D-13 -0.76664768D-05
 -0.71878093D-05 -0.51181484D-05  0.37258906D-02  0.34932592D-02  0.24874087D-02
  0.55688032D-15  0.15894087D-04  0.55345798D-03  0.47118571D-14  0.78575399D-05
 -0.15109195D-03  0.20940277D-15  0.18041683D-06 -0.37789963D-05  0.45272919D-03
 -0.45124231D-03 -0.14868834D-05 -0.94572315D-14 -0.26742744D-14 -0.19859091D-05
 -0.11463625D-03 -0.56393057D-05  0.12027556D-03  0.78784404D-14 -0.45031122D-16
 -0.49938890D-05  0.12725660D-04  0.58586867D-04 -0.71312527D-04 -0.29607881D-15
  0.11299172D-14 -0.18638519D-05  0.82432497D-15  0.47170587D-05  0.71509354D-04
 -0.31818275D-14 -0.44365394D-05 -0.44954273D-03  0.70885261D-15 -0.97146367D-05
  0.23501467D-03 -0.54103445D-14 -0.20187643D-15  0.71945757D-06  0.11871311D-03
  0.10686053D-14 -0.11603940D-05 -0.21789034D-04 -0.46297597D-15 -0.99797870D-06
 -0.33435029D-03 -0.29397925D-14  0.11223196D+00  0.20982896D+00  0.36264681D+00
  0.58656627D+00  0.88657529D+00  0.12209977D+01  0.14271977D+01  0.12334807D+01
  0.57567188D+00  0.77990908D-01 -0.57043673D-03  0.14103588D-02  0.18130020D-01
  0.66135708D-01  0.22314024D+00  0.49011609D+00  0.63309631D+00 -0.10174396D+00
 -0.85351092D+00 -0.46839578D+00  0.63560098D-05  0.72398904D-04  0.15032622D-03
  0.41335893D-03 -0.53596733D-04 -0.18690208D-02 -0.46616348D-02  0.38588338D-02
 -0.27803297D-01  0.10963301D-02  0.27990305D-04 -0.57759308D-10 -0.75776928D-10
 -0.83110890D-10 -0.68381137D-10 -0.36046647D-10 -0.93786596D-11 -0.13764765D-01
 -0.18058589D-01 -0.19806364D-01 -0.16296079D-01 -0.85903665D-02 -0.22350518D-02
  0.57021018D+01  0.74808334D+01  0.82048552D+01  0.67507077D+01  0.35585892D+01
  0.92587799D+00 -0.28484684D-15 -0.10224757D-13 -0.16221833D-13 -0.19262930D-13
 -0.29149890D-14  0.21214743D-13 -0.95328624D-07 -0.34218811D-05 -0.54289002D-05
 -0.64466524D-05 -0.97554843D-06  0.70998587D-05  0.36618479D-04  0.13144434D-02
  0.20853974D-02  0.24763455D-02  0.37473634D-03 -0.27272609D-02 -0.44688241D-12
 -0.10161650D-03  0.43896958D-01 -0.39588340D-14  0.21056763D-05 -0.11445683D-03
 -0.77145449D-16  0.49482284D-07  0.50661717D-06 -0.15152150D-03 -0.13809299D-03
  0.28961448D-03  0.38485477D-15 -0.15151251D-14 -0.20626744D-05 -0.11472149D-03
  0.47277993D-03 -0.35805844D-03 -0.25200965D-14  0.17404816D-14  0.19297145D-05
  0.62426714D-05  0.21106771D-05 -0.83533485D-05  0.29893352D-15  0.12322957D-14
 -0.34569687D-06 -0.10877984D-14 -0.30553061D-06 -0.43581748D-04  0.44022935D-15
 -0.14873418D-06  0.20934222D-03  0.28231657D-14  0.10653260D-05 -0.78596979D-04
  0.87450868D-15  0.19735782D-15 -0.73888589D-07 -0.13099491D-04 -0.34515075D-16
 -0.52157861D-07  0.19858785D-04 -0.55755838D-15  0.27382363D-06  0.19439688D-04
 -0.33102180D-15  0.41405481D-04  0.74676490D-04  0.11011044D-03 -0.34267284D-03
  0.26638705D-04  0.75289903D-05 -0.27068947D-14  0.18133505D-03  0.21138287D-03
  0.70429656D-14  0.12942680D-03  0.19023144D-03 -0.17767581D-16  0.76626018D-04
 -0.55155025D-04 -0.23245412D-03  0.10585597D-03  0.12659815D-03  0.20428726D-14
  0.50053723D-14  0.45214542D-03 -0.64108394D-04  0.90692527D-05  0.55039141D-04
  0.24860763D-14 -0.30460293D-17 -0.58530853D-04  0.38345899D-04  0.69158407D-04
  0.10197403D-03 -0.36998107D-03 -0.28693552D-05  0.65470321D-05  0.56756067D-14
 -0.17118058D-03  0.20299452D-03 -0.90121081D-14 -0.12354264D-03  0.16557117D-03
 -0.11936471D-16 -0.72771782D-04 -0.56677938D-04 -0.23244382D-03  0.11058612D-03
  0.12185770D-03  0.84441902D-15 -0.41767038D-14 -0.44499025D-03 -0.63527790D-04
  0.92698115D-05  0.54257978D-04  0.14515954D-14 -0.14304254D-14  0.59016965D-04
MO    4     MO 0.0        OCC NO =    2.0000048  ORB. ENERGY =    0.000000
  0.28600611D+00  0.53317300D+00  0.90113501D+00  0.13545740D+01  0.16638515D+01
  0.14042320D+01  0.52802790D+00  0.30312983D-04  0.22657076D-03  0.84674668D-03
  0.23622914D-02  0.31648192D-02 -0.37370613D-02  0.23650920D-01 -0.52685294D-03
 -0.52586171D-05 -0.67112821D-11 -0.62922536D-11 -0.44804594D-11  0.44876905D-04
  0.42074951D-04  0.29959872D-04  0.42530376D-02  0.39874931D-02  0.28393326D-02
 -0.11275848D-11 -0.36948066D-04 -0.37498746D-03 -0.10806207D-12 -0.72344836D-05
 -0.30238911D-03 -0.31277139D-15  0.16374310D-06 -0.39884151D-05 -0.11956545D-02
  0.62952524D-03  0.56612926D-03 -0.39581564D-14 -0.15198632D-11  0.19710679D-04
  0.18727309D-03  0.11066152D-03 -0.29793462D-03  0.11456229D-13  0.14079082D-11
  0.16823079D-04  0.88270569D-05  0.35301134D-04 -0.44128191D-04 -0.17449776D-14
 -0.12076386D-12  0.11037024D-05  0.19139506D-12 -0.47870492D-05  0.41505261D-03
  0.99038192D-13  0.70495106D-05  0.19220474D-03 -0.67322337D-12  0.73116369D-05
 -0.14373626D-02 -0.85565541D-14 -0.76012328D-13  0.10413355D-05 -0.68620098D-04
 -0.32459274D-12  0.11143369D-05 -0.22300261D-04  0.55262972D-12 -0.42383433D-05
  0.22816056D-03 -0.10177799D-14  0.36637389D-01  0.68497288D-01  0.11838367D+00
  0.19148071D+00  0.28941669D+00  0.39858670D+00  0.46589932D+00  0.40266169D+00
  0.18792431D+00  0.25459620D-01 -0.18621533D-03  0.45947781D-03  0.59065410D-02
  0.21546213D-01  0.72696387D-01  0.15967389D+00  0.20625511D+00 -0.33146951D-01
 -0.27806352D+00 -0.15259767D+00  0.18356977D-05  0.20909738D-04  0.43416154D-04
  0.11938340D-03 -0.15479428D-04 -0.53979736D-03 -0.13463403D-02  0.11144810D-02
 -0.94609865D-02  0.13021364D-02  0.10747759D-03  0.22159458D-07  0.29071948D-07
  0.31885636D-07  0.26234540D-07  0.13829358D-07  0.35981388D-08 -0.84850870D-02
 -0.11131952D-01 -0.12209342D-01 -0.10045479D-01 -0.52954051D-02 -0.13777648D-02
  0.42262860D+01  0.55446469D+01  0.60812777D+01  0.50034921D+01  0.26375565D+01
  0.68624260D+00  0.11799506D-12  0.42355071D-11  0.67197382D-11  0.79794830D-11
  0.12075061D-11 -0.87880031D-11 -0.83044643D-07 -0.29809399D-05 -0.47293358D-05
 -0.56159412D-05 -0.84983993D-06  0.61849758D-05  0.31421402D-04  0.11278910D-02
  0.17894274D-02  0.21248902D-02  0.32155189D-03 -0.23401944D-02  0.17168738D-09
 -0.66781101D-04  0.32958189D-01  0.38769079D-12 -0.21687109D-05 -0.34904822D-03
 -0.34790349D-13 -0.11394127D-06 -0.47502725D-05 -0.13567634D-03 -0.23174872D-03
  0.36742507D-03 -0.38550643D-15  0.14303250D-11 -0.11993253D-05  0.98580022D-04
  0.33702426D-03 -0.43560428D-03  0.17280397D-14 -0.91734757D-12 -0.31173744D-05
 -0.10576773D-04 -0.12212918D-04  0.22789691D-04  0.57541746D-15 -0.76151106D-13
  0.53399623D-06  0.29650785D-12 -0.21718224D-06  0.53484948D-04 -0.16816128D-12
 -0.14503360D-06 -0.27840262D-04 -0.72136227D-12  0.79658033D-06 -0.13261458D-03
  0.37947828D-14  0.15720895D-13  0.68155659D-07 -0.37030960D-04  0.80422757D-13
  0.22016049D-07  0.29192674D-04 -0.12758544D-12 -0.22648303D-06  0.81900205D-04
 -0.11878157D-14 -0.31290933D-03 -0.56434486D-03 -0.83212617D-03 -0.56807047D-03
 -0.48606469D-03 -0.71195283D-05 -0.30004831D-12 -0.84160817D-03 -0.36618160D-03
  0.40125643D-12 -0.43816518D-03 -0.27988737D-03 -0.13146450D-12 -0.40342593D-04
 -0.98435627D-04  0.27058606D-03 -0.44657689D-03  0.17599083D-03  0.32288149D-12
 -0.14132241D-12 -0.93735743D-03  0.51768849D-04 -0.27338105D-04 -0.24430745D-04
 -0.83121762D-13  0.25467364D-12 -0.81260202D-04 -0.30801196D-03 -0.55551225D-03
 -0.81910249D-03 -0.50095489D-03 -0.45106282D-03 -0.71890603D-05 -0.28949986D-12
  0.82691026D-03 -0.36831342D-03  0.37908079D-12  0.39106054D-03 -0.26431096D-03
 -0.12784132D-12  0.33311614D-04 -0.96651722D-04  0.27023518D-03 -0.43450855D-03
  0.16427337D-03 -0.31611150D-12 -0.13322642D-12  0.94485853D-03  0.49767608D-04
 -0.24100935D-04 -0.25666673D-04  0.88579515D-13  0.25354892D-12  0.76628647D-04
MO    5     MO 0.0        OCC NO =    2.0000043  ORB. ENERGY =    0.000000
 -0.65631475D-09 -0.12235029D-08 -0.20678866D-08 -0.31084193D-08 -0.38181363D-08
 -0.32223724D-08 -0.12116962D-08 -0.69813886D-13 -0.52181554D-12 -0.19501438D-11
 -0.54405976D-11 -0.72889008D-11  0.86068328D-11 -0.54231065D-10  0.86324621D-12
 -0.40461389D-13 -0.29420245D-02 -0.27583350D-02 -0.19640988D-02 -0.11723065D-12
 -0.10991119D-12 -0.78263315D-13 -0.95343441D-11 -0.89390537D-11 -0.63651387D-11
 -0.49438887D-03 -0.10362481D-13  0.85493539D-12 -0.48652493D-04  0.11695495D-14
  0.61994024D-12 -0.16356305D-06 -0.46569712D-15  0.68210758D-14  0.27284227D-11
 -0.14451430D-11 -0.12832797D-11 -0.56485933D-06 -0.66400355D-03 -0.58919799D-13
 -0.38986746D-12 -0.25443100D-12  0.64429846D-12  0.28689081D-05  0.61641558D-03
  0.20863057D-13 -0.16283418D-13 -0.75555216D-13  0.91838634D-13 -0.64402361D-06
 -0.53232135D-04  0.17882354D-13  0.83790421D-04  0.13135923D-13 -0.95257159D-12
  0.43357766D-04  0.58777240D-14 -0.44876237D-12 -0.29472903D-03 -0.45285494D-13
  0.33064771D-11 -0.15121931D-05 -0.33171381D-04 -0.70203474D-14  0.15428810D-12
 -0.14243253D-03 -0.32590631D-14  0.50687927D-13  0.24194668D-03  0.24320105D-13
 -0.51355224D-12  0.33650052D-06  0.49355745D-10  0.92275537D-10  0.15947955D-09
  0.25795161D-09  0.38988522D-09  0.53695267D-09  0.62763229D-09  0.54244226D-09
  0.25316063D-09  0.34297710D-10 -0.25085839D-12 -0.11332927D-11 -0.14568364D-10
 -0.53143296D-10 -0.17930416D-09 -0.39383240D-09 -0.50872404D-09  0.81756281D-10
  0.68583803D-09  0.37637906D-09 -0.48260123D-14 -0.54971280D-13 -0.11414019D-12
 -0.31385654D-12  0.40695105D-13  0.14191164D-11  0.35395016D-11 -0.29299481D-11
  0.23025947D-10 -0.27601821D-11 -0.19347517D-12  0.97155337D+01  0.12746228D+02
  0.13979853D+02  0.11502202D+02  0.60633070D+01  0.15775584D+01  0.26969157D-09
  0.35382000D-09  0.38806396D-09  0.31928734D-09  0.16831013D-09  0.43791130D-10
 -0.92191414D-08 -0.12094989D-07 -0.13265586D-07 -0.10914524D-07 -0.57535166D-08
 -0.14969568D-08  0.51729130D-04  0.18568498D-02  0.29459387D-02  0.34982119D-02
  0.52937166D-03 -0.38526677D-02  0.27542394D-14  0.98865162D-13  0.15685206D-12
  0.18625701D-12  0.28185594D-13 -0.20512947D-12 -0.67226225D-13 -0.24131278D-11
 -0.38284877D-11 -0.45462117D-11 -0.68796166D-12  0.50068560D-11  0.75274292D-01
  0.18275612D-11 -0.72042309D-10  0.17097175D-03 -0.47152377D-13  0.70277324D-12
 -0.15221514D-04 -0.11785961D-14  0.86298955D-14  0.28517154D-12  0.50987236D-12
 -0.79504389D-12 -0.19167806D-06  0.62635055D-03  0.35522793D-13 -0.20562928D-12
 -0.79330128D-12  0.99893056D-12  0.10847880D-05 -0.40165364D-03 -0.22585371D-13
  0.21647696D-13  0.24782792D-13 -0.46430488D-13  0.19178937D-06 -0.33688138D-04
  0.62082154D-14  0.13002650D-03  0.63200903D-15 -0.13347820D-12 -0.73707509D-04
  0.44106255D-14  0.85963894D-13 -0.31637198D-03 -0.63066526D-14  0.31447072D-12
  0.12933239D-05  0.68154082D-05  0.17985179D-14  0.82220272D-13  0.35234786D-04
  0.41442407D-15 -0.64005065D-13 -0.55681010D-04 -0.58099778D-14 -0.18265575D-12
 -0.37036330D-06  0.71050317D-12  0.12814217D-11  0.18894556D-11  0.12835790D-11
  0.10315895D-11  0.15621666D-13 -0.13165551D-03  0.19181679D-11  0.84815981D-12
  0.17436087D-03  0.98974821D-12  0.61977999D-12 -0.57563592D-04  0.85462072D-13
  0.22136635D-12 -0.62041774D-12  0.10110233D-11 -0.39060560D-12  0.14063210D-03
 -0.62411886D-04  0.21340670D-11 -0.11715607D-12  0.61259859D-13  0.55896213D-13
 -0.36945457D-04  0.11166977D-03  0.17161060D-12  0.70359472D-12  0.12689621D-11
  0.18710838D-11  0.12971803D-11  0.11477968D-11  0.19914973D-13 -0.12802642D-03
 -0.19073546D-11  0.84290321D-12  0.16880503D-03 -0.95853214D-12  0.66053656D-12
 -0.56107646D-04 -0.96454235D-13  0.21262648D-12 -0.63410329D-12  0.10110233D-11
 -0.37691996D-12 -0.14090577D-03 -0.57487719D-04 -0.21989428D-11 -0.11375453D-12
  0.56868609D-13  0.56885925D-13  0.38490013D-04  0.11138030D-03 -0.17612889D-12
MO    6     MO 0.0        OCC NO =    2.0000000  ORB. ENERGY =    0.000000
 -0.81966356D-04 -0.15280180D-03 -0.25825586D-03 -0.38820672D-03 -0.47684243D-03
 -0.40243819D-03 -0.15132727D-03  0.48204562D-07  0.36029923D-06  0.13465205D-05
  0.37565825D-05  0.50327849D-05 -0.59427806D-05  0.16177076D-05 -0.31184361D-04
 -0.72811315D-05  0.69857170D-12  0.65495538D-12  0.46636725D-12 -0.31229568D-07
 -0.29279705D-07 -0.20848894D-07  0.14526113D-04  0.13619154D-04  0.96976489D-05
  0.12722843D-12  0.27942277D-07 -0.38181011D-04  0.18768355D-13  0.12078708D-06
  0.41386340D-05  0.37959616D-15  0.84513476D-08 -0.38855809D-06  0.14105299D-05
  0.89462920D-05 -0.10356822D-04  0.33141278D-14  0.16316940D-12  0.18060161D-06
  0.63524768D-05  0.41498784D-05 -0.10502355D-04 -0.61004774D-14 -0.15457544D-12
  0.10383026D-06  0.64009957D-06 -0.94931881D-06  0.30921924D-06 -0.11722004D-14
  0.12722225D-13  0.16409006D-07 -0.20407478D-13  0.10730440D-06  0.21406017D-05
 -0.10985529D-13 -0.53231122D-07  0.36213935D-06  0.72207963D-13 -0.26868207D-06
 -0.67839444D-05  0.16225830D-14  0.71426063D-14  0.52611268D-07 -0.40263116D-06
  0.37055439D-13 -0.10760774D-07  0.63777053D-06 -0.58483258D-13 -0.14707303D-06
  0.57012297D-06  0.12424001D-14  0.58266944D+00  0.10893592D+01  0.18827365D+01
  0.30452487D+01  0.46027915D+01  0.63389968D+01  0.74095154D+01  0.64038042D+01
  0.29886888D+01  0.40490175D+00 -0.29615097D-02 -0.29343372D-04 -0.37720610D-03
 -0.13759936D-02 -0.46425684D-02 -0.10197163D-01 -0.13171954D-01  0.21168450D-02
  0.17757814D-01  0.97452591D-02  0.19775962D-06  0.22526050D-05  0.46772199D-05
  0.12861167D-04 -0.16675980D-05 -0.58152340D-04 -0.14504117D-03  0.12006298D-03
  0.13928463D-04 -0.17900837D-04  0.32372230D-05 -0.23212812D-08 -0.30453889D-08
 -0.33401325D-08 -0.27481604D-08 -0.14486739D-08 -0.37691770D-09 -0.65233620D-05
 -0.85582799D-05 -0.93865809D-05 -0.77229960D-05 -0.40711244D-05 -0.10592300D-05
  0.11174836D-01  0.14660750D-01  0.16079669D-01  0.13229868D-01  0.69740340D-02
  0.18145125D-02 -0.12382970D-13 -0.44449451D-12 -0.70520168D-12 -0.83740536D-12
 -0.12672150D-12  0.92225536D-12 -0.17474835D-08 -0.62727022D-07 -0.99517993D-07
 -0.11817456D-06 -0.17882926D-07  0.13014859D-06  0.70421269D-06  0.25278159D-04
  0.40104433D-04  0.47622784D-04  0.72065824D-05 -0.52448156D-04 -0.17984738D-10
 -0.16083532D-06  0.16264344D-03 -0.42019025D-13  0.33696510D-08  0.53290045D-05
  0.34120852D-14 -0.86411388D-10 -0.32325240D-07 -0.58152854D-05 -0.37419329D-05
  0.95572183D-05 -0.18307613D-15 -0.15100256D-12 -0.63609029D-07  0.92126422D-05
 -0.15978979D-04  0.67663366D-05 -0.43430732D-14  0.95563253D-13 -0.14888216D-06
  0.59565613D-06  0.49100860D-06 -0.10866647D-05  0.24088769D-15  0.86774091D-14
 -0.43265564D-08 -0.31222943D-13 -0.18757409D-07 -0.69689871D-05  0.16006593D-13
  0.82847708D-08  0.12192376D-04  0.77662237D-13  0.47987457D-07  0.87145852D-05
  0.12046186D-14 -0.15763293D-14 -0.97300137D-09 -0.59689782D-07 -0.84866778D-14
 -0.41766075D-08 -0.81867911D-08  0.13215666D-13  0.70956117D-08  0.18725614D-06
 -0.38944159D-15 -0.12492903D-05 -0.22531466D-05 -0.33222633D-05  0.31786198D-05
  0.17848323D-04  0.26128598D-06  0.44502956D-13 -0.57742212D-05 -0.13173000D-05
 -0.57477268D-13  0.69640908D-06 -0.97887347D-06  0.93021800D-14  0.75099658D-06
  0.26040937D-05 -0.24997555D-05 -0.19660968D-05  0.44658523D-05 -0.46236250D-13
  0.11449051D-13 -0.16769364D-05 -0.25440765D-07 -0.48623435D-06  0.51167511D-06
  0.48794138D-14 -0.30689421D-13 -0.18339338D-05 -0.12313007D-05 -0.22207015D-05
 -0.32744231D-05  0.32815339D-05  0.17486543D-04  0.22485455D-06  0.33427909D-13
  0.58210919D-05 -0.14599808D-05 -0.45985421D-13 -0.11577653D-05 -0.15379372D-05
  0.13379156D-13 -0.73261143D-06  0.25406054D-05 -0.24033293D-05 -0.15360510D-05
  0.39393803D-05  0.33890676D-13  0.11516686D-13  0.21069963D-05 -0.19980056D-07