 h2cs-wavefunction
GAUSSIAN            142 MOL ORBITALS    240 PRIMITIVES        4 NUCLEI
  C    1    (CENTRE  1)   0.00000000  0.00000000 -1.04934791  CHARGE =  6.0
  S    2    (CENTRE  2)   0.00000000 -0.01889726  2.00381646  CHARGE = 16.0
  H    3    (CENTRE  3)   0.00000000 -1.74285662 -2.13348569  CHARGE =  1.0
  H    4    (CENTRE  4)   0.00000000  1.74285662 -2.13348569  CHARGE =  1.0
CENTRE ASSIGNMENTS    1  1  1  1  1  1  1  1  1  1  1  1  1  1  1  1  1  1  1  1
CENTRE ASSIGNMENTS    1  1  1  1  1  1  1  1  1  1  1  1  1  1  1  1  1  1  1  1
CENTRE ASSIGNMENTS    1  1  1  1  1  1  1  1  1  1  1  1  1  1  1  1  1  1  1  1
CENTRE ASSIGNMENTS    1  1  1  1  1  1  1  1  1  1  1  1  2  2  2  2  2  2  2  2
CENTRE ASSIGNMENTS    2  2  2  2  2  2  2  2  2  2  2  2  2  2  2  2  2  2  2  2
CENTRE ASSIGNMENTS    2  2  2  2  2  2  2  2  2  2  2  2  2  2  2  2  2  2  2  2
CENTRE ASSIGNMENTS    2  2  2  2  2  2  2  2  2  2  2  2  2  2  2  2  2  2  2  2
CENTRE ASSIGNMENTS    2  2  2  2  2  2  2  2  2  2  2  2  2  2  2  2  2  2  2  2
CENTRE ASSIGNMENTS    2  2  2  2  2  2  2  2  2  2  2  2  2  2  2  2  2  2  2  2
CENTRE ASSIGNMENTS    2  2  2  2  2  2  3  3  3  3  3  3  3  3  3  3  3  3  3  3
CENTRE ASSIGNMENTS    3  3  3  3  3  3  3  3  3  3  3  3  3  4  4  4  4  4  4  4
CENTRE ASSIGNMENTS    4  4  4  4  4  4  4  4  4  4  4  4  4  4  4  4  4  4  4  4
TYPE ASSIGNMENTS      1  1  1  1  1  1  1  1  1  1  1  1  1  1  1  1  2  2  2  3
TYPE ASSIGNMENTS      3  3  4  4  4  2  3  4  2  3  4  2  3  4  5  6  7  8  9 10
TYPE ASSIGNMENTS      5  6  7  8  9 10  5  6  7  8  9 10 11 12 13 17 14 15 18 19
TYPE ASSIGNMENTS     16 20 11 12 13 17 14 15 18 19 16 20  1  1  1  1  1  1  1  1
TYPE ASSIGNMENTS      1  1  1  1  1  1  1  1  1  1  1  1  1  1  1  1  1  1  1  1
TYPE ASSIGNMENTS      1  1  1  2  2  2  2  2  2  3  3  3  3  3  3  4  4  4  4  4
TYPE ASSIGNMENTS      4  2  2  2  2  2  2  3  3  3  3  3  3  4  4  4  4  4  4  2
TYPE ASSIGNMENTS      3  4  2  3  4  2  3  4  5  6  7  8  9 10  5  6  7  8  9 10
TYPE ASSIGNMENTS      5  6  7  8  9 10 11 12 13 17 14 15 18 19 16 20 11 12 13 17
TYPE ASSIGNMENTS     14 15 18 19 16 20  1  1  1  1  1  1  2  3  4  2  3  4  2  3
TYPE ASSIGNMENTS      4  5  6  7  8  9 10  5  6  7  8  9 10  1  1  1  1  1  1  2
TYPE ASSIGNMENTS      3  4  2  3  4  2  3  4  5  6  7  8  9 10  5  6  7  8  9 10
EXPONENTS  0.8236000D+04 0.1235000D+04 0.2808000D+03 0.7927000D+02 0.2559000D+02
EXPONENTS  0.8997000D+01 0.3319000D+01 0.2808000D+03 0.7927000D+02 0.2559000D+02
EXPONENTS  0.8997000D+01 0.3319000D+01 0.3643000D+00 0.9059000D+00 0.1285000D+00
EXPONENTS  0.4402000D-01 0.1871000D+02 0.4133000D+01 0.1200000D+01 0.1871000D+02
EXPONENTS  0.4133000D+01 0.1200000D+01 0.1871000D+02 0.4133000D+01 0.1200000D+01
EXPONENTS  0.3827000D+00 0.3827000D+00 0.3827000D+00 0.1209000D+00 0.1209000D+00
EXPONENTS  0.1209000D+00 0.3569000D-01 0.3569000D-01 0.3569000D-01 0.1097000D+01
EXPONENTS  0.1097000D+01 0.1097000D+01 0.1097000D+01 0.1097000D+01 0.1097000D+01
EXPONENTS  0.3180000D+00 0.3180000D+00 0.3180000D+00 0.3180000D+00 0.3180000D+00
EXPONENTS  0.3180000D+00 0.1000000D+00 0.1000000D+00 0.1000000D+00 0.1000000D+00
EXPONENTS  0.1000000D+00 0.1000000D+00 0.7610000D+00 0.7610000D+00 0.7610000D+00
EXPONENTS  0.7610000D+00 0.7610000D+00 0.7610000D+00 0.7610000D+00 0.7610000D+00
EXPONENTS  0.7610000D+00 0.7610000D+00 0.2680000D+00 0.2680000D+00 0.2680000D+00
EXPONENTS  0.2680000D+00 0.2680000D+00 0.2680000D+00 0.2680000D+00 0.2680000D+00
EXPONENTS  0.2680000D+00 0.2680000D+00 0.3741000D+06 0.5605000D+05 0.1276000D+05
EXPONENTS  0.3615000D+04 0.1183000D+04 0.4288000D+03 0.1678000D+03 0.6947000D+02
EXPONENTS  0.2984000D+02 0.1272000D+02 0.5244000D+01 0.3615000D+04 0.1183000D+04
EXPONENTS  0.4288000D+03 0.1678000D+03 0.6947000D+02 0.2984000D+02 0.1272000D+02
EXPONENTS  0.5244000D+01 0.2219000D+01 0.1183000D+04 0.1678000D+03 0.6947000D+02
EXPONENTS  0.2984000D+02 0.1272000D+02 0.5244000D+01 0.2219000D+01 0.3490000D+00
EXPONENTS  0.7767000D+00 0.1322000D+00 0.4970000D-01 0.5744000D+03 0.1358000D+03
EXPONENTS  0.4319000D+02 0.1587000D+02 0.6208000D+01 0.2483000D+01 0.5744000D+03
EXPONENTS  0.1358000D+03 0.4319000D+02 0.1587000D+02 0.6208000D+01 0.2483000D+01
EXPONENTS  0.5744000D+03 0.1358000D+03 0.4319000D+02 0.1587000D+02 0.6208000D+01
EXPONENTS  0.2483000D+01 0.1358000D+03 0.4319000D+02 0.1587000D+02 0.6208000D+01
EXPONENTS  0.2483000D+01 0.3229000D+00 0.1358000D+03 0.4319000D+02 0.1587000D+02
EXPONENTS  0.6208000D+01 0.2483000D+01 0.3229000D+00 0.1358000D+03 0.4319000D+02
EXPONENTS  0.1587000D+02 0.6208000D+01 0.2483000D+01 0.3229000D+00 0.8688000D+00
EXPONENTS  0.8688000D+00 0.8688000D+00 0.1098000D+00 0.1098000D+00 0.1098000D+00
EXPONENTS  0.3510000D-01 0.3510000D-01 0.3510000D-01 0.2690000D+00 0.2690000D+00
EXPONENTS  0.2690000D+00 0.2690000D+00 0.2690000D+00 0.2690000D+00 0.8190000D+00
EXPONENTS  0.8190000D+00 0.8190000D+00 0.8190000D+00 0.8190000D+00 0.8190000D+00
EXPONENTS  0.1010000D+00 0.1010000D+00 0.1010000D+00 0.1010000D+00 0.1010000D+00
EXPONENTS  0.1010000D+00 0.5570000D+00 0.5570000D+00 0.5570000D+00 0.5570000D+00
EXPONENTS  0.5570000D+00 0.5570000D+00 0.5570000D+00 0.5570000D+00 0.5570000D+00
EXPONENTS  0.5570000D+00 0.2180000D+00 0.2180000D+00 0.2180000D+00 0.2180000D+00
EXPONENTS  0.2180000D+00 0.2180000D+00 0.2180000D+00 0.2180000D+00 0.2180000D+00
EXPONENTS  0.2180000D+00 0.3387000D+02 0.5095000D+01 0.1159000D+01 0.3258000D+00
EXPONENTS  0.1027000D+00 0.2526000D-01 0.1407000D+01 0.1407000D+01 0.1407000D+01
EXPONENTS  0.3880000D+00 0.3880000D+00 0.3880000D+00 0.1020000D+00 0.1020000D+00
EXPONENTS  0.1020000D+00 0.1057000D+01 0.1057000D+01 0.1057000D+01 0.1057000D+01
EXPONENTS  0.1057000D+01 0.1057000D+01 0.2470000D+00 0.2470000D+00 0.2470000D+00
EXPONENTS  0.2470000D+00 0.2470000D+00 0.2470000D+00 0.3387000D+02 0.5095000D+01
EXPONENTS  0.1159000D+01 0.3258000D+00 0.1027000D+00 0.2526000D-01 0.1407000D+01
EXPONENTS  0.1407000D+01 0.1407000D+01 0.3880000D+00 0.3880000D+00 0.3880000D+00
EXPONENTS  0.1020000D+00 0.1020000D+00 0.1020000D+00 0.1057000D+01 0.1057000D+01
EXPONENTS  0.1057000D+01 0.1057000D+01 0.1057000D+01 0.1057000D+01 0.2470000D+00
EXPONENTS  0.2470000D+00 0.2470000D+00 0.2470000D+00 0.2470000D+00 0.2470000D+00
MO    1     MO 0.0        OCC NO =    2.0000337  ORB. ENERGY =    0.000000
 -0.10891204D-03 -0.20303399D-03 -0.34315510D-03 -0.51582612D-03 -0.63360000D-03
 -0.53473605D-03 -0.20107472D-03 -0.24919137D-07 -0.18625511D-06 -0.69607788D-06
 -0.19419489D-05 -0.26016761D-05  0.30720944D-05 -0.94661808D-05  0.79514949D-05
  0.17865296D-05 -0.13205899D-12 -0.12381370D-12 -0.88162728D-13 -0.14388036D-02
 -0.13489699D-02 -0.96054690D-03  0.14152413D-04  0.13268787D-04  0.94481665D-05
 -0.23360948D-13 -0.59838278D-03  0.77539536D-05 -0.10046904D-15  0.16110573D-02
 -0.58682395D-05  0.15075336D-15  0.29652164D-04  0.33800587D-07  0.95777305D-06
  0.35935627D-05 -0.45513358D-05 -0.25699389D-14 -0.32207478D-13 -0.10627675D-02
 -0.13607313D-05 -0.10757644D-05  0.24364957D-05  0.31274924D-15  0.31478661D-13
  0.52327016D-04 -0.20650139D-06  0.66303339D-06 -0.45653200D-06  0.17992444D-16
 -0.14238578D-14 -0.21500314D-03  0.54681320D-14  0.16671287D-03 -0.25929124D-05
 -0.11746581D-14  0.19458345D-03 -0.41229183D-05 -0.15229738D-13 -0.69472206D-03
  0.11901655D-04 -0.14934414D-14 -0.15902396D-14 -0.81251038D-04  0.22921262D-05
 -0.66900630D-14 -0.12292208D-03  0.61060494D-06  0.11460782D-13  0.36667519D-03
 -0.74869834D-05  0.23181920D-16 -0.34283443D-04 -0.64096350D-04 -0.11077754D-03
 -0.17917811D-03 -0.27082172D-03 -0.37297758D-03 -0.43596537D-03 -0.37679075D-03
 -0.17585021D-03 -0.23823845D-04  0.17425103D-06 -0.40159053D-06 -0.51624059D-05
 -0.18831715D-04 -0.63537738D-04 -0.13955738D-03 -0.18027007D-03  0.28970935D-04
  0.24303171D-03  0.13337267D-03 -0.97694833D-08 -0.11128049D-06 -0.23105841D-06
 -0.63535194D-06  0.82380676D-07  0.28727721D-05  0.71651499D-05 -0.59312073D-05
  0.82071564D-05  0.67085422D-05 -0.24633227D-06  0.40995569D-09  0.53783855D-09
  0.58989249D-09  0.48534577D-09  0.25584670D-09  0.66566498D-10  0.97720073D+01
  0.12820318D+02  0.14061114D+02  0.11569061D+02  0.60985512D+01  0.15867283D+01
  0.90553076D-01  0.11880049D+00  0.13029842D+00  0.10720562D+00  0.56512706D-01
  0.14703543D-01  0.22508323D-14  0.80795047D-13  0.12818337D-12  0.15221382D-12
  0.23033963D-13 -0.16763686D-12  0.96389446D-04  0.34599600D-02  0.54893133D-02
  0.65183911D-02  0.98640439D-03 -0.71788663D-02  0.84798429D-06  0.30438931D-04
  0.48292127D-04  0.57345420D-04  0.86778735D-05 -0.63155937D-04  0.31716147D-11
  0.66515588D-01  0.62139942D-03  0.40449353D-14 -0.57538495D-03 -0.73188760D-05
 -0.75553250D-15 -0.27474113D-04 -0.16694072D-06 -0.56885164D-06 -0.46340932D-05
  0.52029448D-05 -0.35995303D-15  0.29952964D-13  0.77027687D-03  0.85078108D-06
  0.82768688D-05 -0.91276499D-05  0.10430008D-14 -0.17952078D-13 -0.10810814D-02
 -0.42165905D-07  0.44728398D-07 -0.25624930D-08 -0.79835040D-19 -0.57443996D-15
 -0.29973814D-04  0.56063495D-14  0.14949428D-05 -0.20238882D-06 -0.29482431D-14
  0.13084558D-03  0.12506460D-05 -0.13870805D-13 -0.13533041D-03 -0.64347951D-06
  0.11527504D-15  0.56066724D-15  0.33701120D-04 -0.65919676D-06  0.17258582D-14
 -0.22188137D-05 -0.41270007D-07 -0.34078600D-14 -0.98884546D-04  0.20188603D-05
  0.94310866D-16 -0.10656000D-03 -0.19218535D-03 -0.28337718D-03  0.12727917D-03
  0.23621699D-02  0.25393943D-04 -0.70545147D-14 -0.16819154D-04  0.27155197D-03
  0.99043714D-14 -0.13886368D-04 -0.32355790D-03 -0.21260888D-14  0.31379662D-03
  0.13241177D-03 -0.50491954D-04 -0.14423595D-03  0.19472790D-03  0.80650510D-14
  0.58684203D-15 -0.76637797D-05  0.24558527D-04 -0.22060691D-04 -0.24978364D-05
 -0.10318145D-14  0.50346764D-14 -0.11741133D-03  0.10750006D-03  0.19388078D-03
  0.28587710D-03 -0.14756878D-03 -0.23746146D-02 -0.25705577D-04 -0.44403549D-14
 -0.20229088D-04 -0.26098528D-03  0.88206162D-14 -0.14680096D-04  0.32663879D-03
 -0.21142623D-14  0.31439384D-03 -0.13305157D-03  0.47653008D-04  0.14523362D-03
 -0.19288663D-03 -0.57763699D-14  0.15050815D-14 -0.96658897D-05 -0.26027232D-04
  0.22926202D-04  0.31010297D-05  0.11910082D-14  0.46961637D-14 -0.11533564D-03
MO    2     MO 0.0        OCC NO =    2.0000243  ORB. ENERGY =    0.000000
 -0.53354318D-01 -0.99463197D-01 -0.16810635D+00 -0.25269520D+00 -0.31039080D+00
 -0.26195888D+00 -0.98503381D-01 -0.88984394D-05 -0.66510322D-04 -0.24856426D-03
 -0.69345558D-03 -0.92903929D-03  0.10970222D-02 -0.42233318D-02 -0.54985514D-03
 -0.39498717D-04 -0.11960586D-12 -0.11213810D-12 -0.79849006D-13 -0.72299998D-05
 -0.67785844D-05 -0.48267559D-05  0.24025768D-02  0.22525684D-02  0.16039629D-02
 -0.18193805D-13 -0.19889949D-05  0.49296460D-04  0.62365064D-15  0.52034810D-05
 -0.60512142D-03  0.25034526D-15  0.19045096D-06 -0.47209087D-06  0.19003725D-03
 -0.14576845D-03 -0.44268791D-04  0.45307821D-14 -0.27844526D-13  0.69995194D-05
  0.37919918D-04  0.14681098D-03 -0.18473089D-03 -0.17694542D-14  0.26589056D-13
  0.66947086D-05  0.11037231D-04  0.85516108D-04 -0.96553339D-04 -0.14218370D-14
 -0.17816878D-14  0.20878370D-05  0.41670234D-14  0.93326363D-06  0.99013258D-05
 -0.36627374D-15  0.93939212D-06 -0.17120799D-03 -0.12134796D-13 -0.37391830D-05
  0.14150402D-03  0.33645392D-14 -0.16282965D-14  0.15204178D-05  0.58647912D-04
 -0.53556501D-14 -0.31370378D-06  0.10709197D-04  0.10240540D-13 -0.42475497D-05
 -0.18665293D-03 -0.22499793D-14 -0.12114779D+00 -0.22649800D+00 -0.39145587D+00
 -0.63316374D+00 -0.95700580D+00 -0.13179951D+01 -0.15405758D+01 -0.13314698D+01
 -0.62140388D+00 -0.84186591D-01  0.61575285D-03 -0.15086905D-02 -0.19394064D-01
 -0.70746758D-01 -0.23869781D+00 -0.52428749D+00 -0.67723644D+00  0.10883766D+00
  0.91301858D+00  0.50105282D+00 -0.12531661D-04 -0.14274341D-03 -0.29638677D-03
 -0.81498834D-03  0.10567260D-03  0.36850061D-02  0.91909905D-02 -0.76081688D-02
  0.27974230D-01  0.11461112D-02  0.42734992D-05  0.42083579D-09  0.55211262D-09
  0.60554806D-09  0.49822670D-09  0.26263679D-09  0.68333152D-10 -0.63571818D-01
 -0.83402610D-01 -0.91474613D-01 -0.75262556D-01 -0.39674140D-01 -0.10322465D-01
  0.66574762D+01  0.87342301D+01  0.95795602D+01  0.78817736D+01  0.41548229D+01
  0.10810068D+01  0.22061255D-14  0.79190268D-13  0.12563735D-12  0.14919049D-12
  0.22576454D-13 -0.16430720D-12 -0.53175740D-06 -0.19087767D-04 -0.30283222D-04
 -0.35960397D-04 -0.54417559D-05  0.39604079D-04  0.55917889D-04  0.20072079D-02
  0.31844857D-02  0.37814791D-02  0.57223745D-03 -0.41646370D-02  0.32662895D-11
 -0.45949399D-03  0.48623901D-01  0.65707219D-14  0.38060844D-05 -0.64494927D-03
 -0.87383251D-15 -0.14669161D-07 -0.13883117D-05 -0.25511983D-03 -0.10215818D-03
  0.35727801D-03  0.67671080D-15  0.26786289D-13 -0.64818978D-05  0.35816293D-03
 -0.38147260D-03  0.23309671D-04 -0.19487015D-14 -0.19670018D-13 -0.70413348D-05
 -0.53377614D-05 -0.23227132D-04  0.28564893D-04  0.33904533D-15 -0.90079732D-15
 -0.30659215D-06  0.54448758D-14 -0.23311555D-06 -0.69433728D-04 -0.40719085D-14
 -0.16161895D-05  0.20748121D-03 -0.12262719D-13  0.23155361D-05  0.81997108D-06
  0.19160277D-15  0.36062406D-15 -0.18885961D-06 -0.19636517D-04  0.15584570D-14
 -0.10129335D-06  0.25718989D-04 -0.26403292D-14  0.66787218D-06  0.33190561D-04
 -0.12367123D-14 -0.21901905D-04 -0.39500988D-04 -0.58244184D-04 -0.39669671D-03
 -0.44801295D-03  0.33329104D-05 -0.27861166D-14  0.22175174D-04  0.91353159D-04
  0.59994477D-14  0.26739181D-04  0.29819454D-04 -0.48416820D-14  0.35155685D-04
 -0.12357931D-03 -0.99591806D-04  0.17365094D-04  0.82226713D-04  0.75218151D-14
  0.14620247D-14  0.13053842D-03 -0.31117730D-04  0.21620209D-04  0.94975212D-05
 -0.22456932D-14  0.22872084D-14 -0.64906514D-04 -0.23513077D-04 -0.42406802D-04
 -0.62528805D-04 -0.39241485D-03 -0.44340659D-03  0.26941133D-05 -0.68050911D-14
 -0.19470103D-04  0.90031421D-04  0.66007012D-14 -0.41346740D-04  0.19908998D-04
 -0.79429815D-15 -0.36662208D-04 -0.12572046D-03 -0.10095164D-03  0.23076145D-04
  0.77875497D-04 -0.66696215D-14 -0.99604494D-15 -0.13054897D-03 -0.31535209D-04
  0.22045455D-04  0.94897545D-05  0.11650235D-14  0.56572738D-14  0.64261496D-04
MO    3     MO 0.0        OCC NO =    2.0000101  ORB. ENERGY =    0.000000
 -0.15143993D+00 -0.28231455D+00 -0.47715004D+00 -0.71724551D+00 -0.88100765D+00
 -0.74353937D+00 -0.27959022D+00 -0.23223628D-04 -0.17358223D-03 -0.64871642D-03
 -0.18098178D-02 -0.24246569D-02  0.28630677D-02 -0.12249591D-01 -0.11548536D-03
 -0.10723511D-03 -0.36024660D-12 -0.33775409D-12 -0.24050103D-12 -0.15750165D-04
 -0.14766780D-04 -0.10514827D-04  0.37161558D-02  0.34841322D-02  0.24809097D-02
 -0.59419064D-13  0.33509312D-05  0.55393249D-03 -0.17979604D-14  0.50458376D-05
 -0.15668890D-03  0.42671793D-16  0.22912157D-06 -0.38052080D-05  0.45329604D-03
 -0.44603561D-03 -0.72604304D-05  0.43399617D-14 -0.89990468D-13  0.53542921D-05
 -0.11582689D-03 -0.30956921D-05  0.11892258D-03 -0.80511370D-15  0.84746258D-13
 -0.12749880D-05  0.12951340D-04  0.59412648D-04 -0.72363988D-04 -0.34666156D-15
 -0.45209973D-14 -0.28995756D-06  0.10785613D-13  0.43574856D-05  0.71457423D-04
  0.46486595D-14  0.27038123D-06 -0.44949564D-03 -0.37005499D-13 -0.13342838D-04
  0.23512338D-03 -0.30641172D-14 -0.44860235D-14  0.31151620D-05  0.11877162D-03
 -0.17677635D-13 -0.40021617D-06 -0.22298649D-04  0.31135706D-13 -0.89452699D-05
 -0.33401620D-03 -0.10468030D-15  0.11206548D+00  0.20951771D+00  0.36210888D+00
  0.58569619D+00  0.88526019D+00  0.12191866D+01  0.14250806D+01  0.12316510D+01
  0.57481796D+00  0.77875220D-01 -0.56959058D-03  0.14082804D-02  0.18103303D-01
  0.66038249D-01  0.22281141D+00  0.48939384D+00  0.63216336D+00 -0.10159403D+00
 -0.85225316D+00 -0.46770554D+00  0.63413334D-05  0.72231730D-04  0.14997911D-03
  0.41240446D-03 -0.53472975D-04 -0.18647052D-02 -0.46508708D-02  0.38499235D-02
 -0.27761750D-01  0.11070988D-02  0.29084258D-04  0.11903343D-08  0.15616509D-08
  0.17127931D-08  0.14092346D-08  0.74286833D-09  0.19328037D-09 -0.53028948D-01
 -0.69570964D-01 -0.76304290D-01 -0.62780871D-01 -0.33094506D-01 -0.86105679D-02
  0.56957531D+01  0.74725042D+01  0.81957199D+01  0.67431914D+01  0.35546271D+01
  0.92484711D+00  0.63527491D-14  0.22803594D-12  0.36178473D-12  0.42960827D-12
  0.65011055D-13 -0.47313828D-12 -0.36642148D-06 -0.13152930D-04 -0.20867453D-04
 -0.24779461D-04 -0.37497856D-05  0.27290237D-04  0.36610124D-04  0.13141435D-02
  0.20849216D-02  0.24757804D-02  0.37465084D-03 -0.27266386D-02  0.92235526D-11
 -0.40349108D-03  0.43851169D-01  0.15236092D-13  0.35621125D-05 -0.11645292D-03
 -0.19206527D-14  0.28928810D-07  0.49569006D-06 -0.15130674D-03 -0.13807985D-03
  0.28938659D-03 -0.58569230D-15  0.82131979D-13 -0.89895294D-05 -0.11403854D-03
  0.47184392D-03 -0.35780538D-03  0.18604470D-14 -0.52529010D-13  0.11639558D-04
  0.62401638D-05  0.20933780D-05 -0.83335418D-05  0.12573238D-15 -0.25722697D-14
 -0.36981771D-06  0.16143421D-13 -0.12384714D-06 -0.43854745D-04 -0.92905235D-14
 -0.16703598D-05  0.20880932D-03 -0.39139740D-13  0.20419012D-05 -0.77245085D-04
  0.22797254D-14  0.12705883D-14 -0.21045475D-06 -0.12963027D-04  0.47294374D-14
 -0.25287095D-06  0.19696189D-04 -0.85412022D-14  0.88423519D-06  0.19192893D-04
  0.19526559D-15  0.39587694D-04  0.71398036D-04  0.10527636D-03 -0.35770046D-03
  0.12062867D-04  0.74554693D-05 -0.15034241D-13  0.17491219D-03  0.20585851D-03
  0.21857559D-13  0.11868448D-03  0.18372889D-03 -0.63827878D-14  0.74642742D-04
 -0.56598019D-04 -0.23339907D-03  0.10425414D-03  0.12914493D-03  0.21806888D-13
 -0.32282819D-14  0.45233455D-03 -0.63811671D-04  0.90932632D-05  0.54718408D-04
 -0.33755930D-14  0.13160718D-13 -0.58308249D-04  0.38622100D-04  0.69656548D-04
  0.10270854D-03 -0.36155761D-03 -0.14341182D-05  0.65486810D-05 -0.16831146D-13
 -0.17117594D-03  0.20299729D-03  0.22264155D-13 -0.13603567D-03  0.15666087D-03
 -0.52740804D-14 -0.74027391D-04 -0.58808815D-04 -0.23491609D-03  0.11684171D-03
  0.11807439D-03 -0.14751051D-13 -0.60481974D-14 -0.44459877D-03 -0.64141208D-04
  0.99684545D-05  0.54172753D-04  0.30467508D-14  0.13371712D-13  0.58232238D-04
MO    4     MO 0.0        OCC NO =    2.0000048  ORB. ENERGY =    0.000000
  0.28561417D+00  0.53244235D+00  0.89990011D+00  0.13527177D+01  0.16615714D+01
  0.14023077D+01  0.52730430D+00  0.30296943D-04  0.22645088D-03  0.84629864D-03
  0.23610414D-02  0.31631446D-02 -0.37350840D-02  0.23605211D-01 -0.50998484D-03
 -0.43448181D-05 -0.12504694D-10 -0.11723946D-10 -0.83481479D-11 -0.14506198D-04
 -0.13600483D-04 -0.96843539D-05  0.42405627D-02  0.39757971D-02  0.28310044D-02
 -0.20858097D-11 -0.84776685D-05 -0.37419579D-03 -0.20560073D-12 -0.59172275D-05
 -0.30682053D-03 -0.71247446D-15  0.69621832D-07 -0.39183074D-05 -0.11866880D-02
  0.61355527D-03  0.57313274D-03  0.15184985D-13 -0.28238782D-11 -0.59418104D-05
  0.18502788D-03  0.11336892D-03 -0.29839680D-03 -0.12980021D-13  0.26124088D-11
  0.12135407D-04  0.88310705D-05  0.37105502D-04 -0.45936572D-04 -0.11110906D-15
 -0.22729739D-12  0.13605434D-05  0.35663466D-12  0.32545416D-05  0.41362355D-03
  0.18644112D-12  0.29870651D-06  0.19134941D-03 -0.12563451D-11 -0.10062331D-04
 -0.14322201D-02  0.23712222D-13 -0.14222448D-12  0.10345546D-05 -0.67410588D-04
 -0.59984171D-12  0.11219554D-05 -0.22499252D-04  0.10265152D-11 -0.42256193D-05
  0.22473102D-03 -0.17755891D-13  0.36855805D-01  0.68905640D-01  0.11908943D+00
  0.19262224D+00  0.29114207D+00  0.40096291D+00  0.46867681D+00  0.40506219D+00
  0.18904464D+00  0.25611400D-01 -0.18732547D-03  0.46225822D-03  0.59422829D-02
  0.21676594D-01  0.73136290D-01  0.16064011D+00  0.20750321D+00 -0.33347531D-01
 -0.27974614D+00 -0.15352108D+00  0.18371799D-05  0.20926622D-04  0.43451210D-04
  0.11947979D-03 -0.15491927D-04 -0.54023321D-03 -0.13474274D-02  0.11153809D-02
 -0.95168584D-02  0.13106329D-02  0.10626664D-03  0.41221811D-07  0.54080671D-07
  0.59314792D-07  0.48802424D-07  0.25725863D-07  0.66933857D-08 -0.36132150D-01
 -0.47403326D-01 -0.51991189D-01 -0.42776784D-01 -0.22549488D-01 -0.58669527D-02
  0.42428613D+01  0.55663928D+01  0.61051282D+01  0.50231156D+01  0.26479009D+01
  0.68893401D+00  0.21952910D-12  0.78801355D-11  0.12502032D-10  0.14845780D-10
  0.22465578D-11 -0.16350027D-10 -0.35323256D-06 -0.12679506D-04 -0.20116353D-04
 -0.23887553D-04 -0.36148163D-05  0.26307956D-04  0.31447330D-04  0.11288218D-02
  0.17909040D-02  0.21266436D-02  0.32181723D-03 -0.23421255D-02  0.31934655D-09
 -0.28474018D-03  0.33091292D-01  0.72657282D-12  0.22909761D-05 -0.34789071D-03
 -0.64586429D-13 -0.20956153D-07 -0.46940575D-05 -0.13527801D-03 -0.23126695D-03
  0.36654497D-03 -0.17309034D-13  0.26562741D-11 -0.12498977D-04  0.98555331D-04
  0.33898588D-03 -0.43754121D-03  0.16035742D-13 -0.17003585D-11  0.79555089D-05
 -0.10368646D-04 -0.12209633D-04  0.22578280D-04  0.13388491D-14 -0.14346852D-12
 -0.39181442D-06  0.55192479D-12  0.63795896D-06  0.53888325D-04 -0.31277059D-12
 -0.14620006D-06 -0.27865046D-04 -0.13430038D-11 -0.17676768D-05 -0.13379993D-03
  0.15652227D-13  0.28763836D-13 -0.63801660D-06 -0.36894878D-04  0.14938186D-12
 -0.15489360D-06  0.28907902D-04 -0.23567337D-12  0.20689434D-05  0.81776733D-04
  0.37500119D-14 -0.30676086D-03 -0.55325584D-03 -0.81577541D-03 -0.54946924D-03
 -0.48667461D-03 -0.70883157D-05 -0.54667179D-12 -0.82553087D-03 -0.37042280D-03
  0.71678809D-12 -0.41826321D-03 -0.26619883D-03 -0.24274094D-12 -0.37143263D-04
 -0.10061640D-03  0.27215233D-03 -0.43838715D-03  0.16623481D-03  0.58953842D-12
 -0.25359982D-12 -0.94724251D-03  0.49608865D-04 -0.25176079D-04 -0.24432786D-04
 -0.16026623D-12  0.46787265D-12 -0.78804824D-04 -0.30918048D-03 -0.55761972D-03
 -0.82220996D-03 -0.52816974D-03 -0.46354208D-03 -0.71579603D-05 -0.53211434D-12
  0.82737945D-03 -0.37338172D-03  0.70278458D-12  0.40048214D-03 -0.27466117D-03
 -0.24144759D-12  0.33309775D-04 -0.10045445D-03  0.27122883D-03 -0.43172779D-03
  0.16049896D-03 -0.59707055D-12 -0.23422802D-12  0.95286769D-03  0.49432415D-04
 -0.24109585D-04 -0.25322830D-04  0.16411525D-12  0.47365645D-12  0.79078026D-04
MO    5     MO 0.0        OCC NO =    2.0000043  ORB. ENERGY =    0.000000
 -0.11909669D-08 -0.22202022D-08 -0.37524443D-08 -0.56406236D-08 -0.69284958D-08
 -0.58474060D-08 -0.21987774D-08 -0.12538021D-12 -0.93713940D-12 -0.35023039D-11
 -0.97708826D-11 -0.13090289D-10  0.15457190D-10 -0.98491062D-10  0.24657307D-11
  0.81868287D-13 -0.29441694D-02 -0.27603459D-02 -0.19655307D-02  0.16797290D-12
  0.15748527D-12  0.11213890D-12 -0.18555374D-10 -0.17396843D-10 -0.12387588D-10
 -0.49224191D-03  0.11938996D-12  0.14826306D-11 -0.49230118D-04  0.34843030D-14
  0.13518075D-11 -0.19276697D-06  0.20123453D-15  0.18613729D-13  0.49805917D-11
 -0.25351268D-11 -0.24454649D-11  0.33760352D-05 -0.66433824D-03  0.41824842D-13
 -0.80262438D-12 -0.47178453D-12  0.12744089D-11 -0.35270754D-05  0.61508960D-03
 -0.75790291D-13 -0.42388091D-13 -0.16594089D-12  0.20832898D-12 -0.86859544D-07
 -0.53817397D-04  0.34582658D-14  0.83872772D-04 -0.21140616D-13 -0.17588289D-11
  0.44233674D-04 -0.13171695D-13 -0.74499454D-12 -0.29585199D-03  0.76593544D-13
  0.60214812D-11  0.59288585D-05 -0.33413376D-04 -0.29089904D-14  0.27452737D-12
 -0.14149418D-03 -0.35445087D-14  0.99249631D-13  0.24173431D-03  0.12271480D-13
 -0.92283173D-12 -0.39411691D-05 -0.50090550D-10 -0.93649329D-10 -0.16185388D-09
 -0.26179197D-09 -0.39568981D-09 -0.54494679D-09 -0.63697644D-09 -0.55051811D-09
 -0.25692967D-09 -0.34808332D-10  0.25459316D-12 -0.20741889D-11 -0.26663490D-10
 -0.97264579D-10 -0.32816828D-09 -0.72080479D-09 -0.93108318D-09  0.14963299D-09
  0.12552429D-08  0.68886113D-09 -0.80171546D-14 -0.91320375D-13 -0.18961402D-12
 -0.52139039D-12  0.67604253D-13  0.23574899D-11  0.58799543D-11 -0.48673410D-11
  0.42581241D-10 -0.58116900D-11 -0.49611770D-12  0.97155646D+01  0.12746268D+02
  0.13979898D+02  0.11502239D+02  0.60633262D+01  0.15775634D+01 -0.24973644D-09
 -0.32764000D-09 -0.35935018D-09 -0.29566250D-09 -0.15585646D-09 -0.40550919D-10
 -0.18989682D-07 -0.24913383D-07 -0.27324589D-07 -0.22481849D-07 -0.11851153D-07
 -0.30834470D-08  0.51729183D-04  0.18568517D-02  0.29459417D-02  0.34982154D-02
  0.52937220D-03 -0.38526717D-02 -0.23039436D-14 -0.82701509D-13 -0.13120802D-12
 -0.15580550D-12 -0.23577478D-13  0.17159247D-12 -0.14080828D-12 -0.50544021D-11
 -0.80189357D-11 -0.95222402D-11 -0.14409659D-11  0.10487080D-10  0.75267238D-01
 -0.15253071D-11 -0.14788326D-09  0.17211058D-03  0.49701156D-14  0.15529665D-11
 -0.15201459D-04  0.96434017D-15  0.22048007D-13  0.60613032D-12  0.10093993D-11
 -0.16155296D-11 -0.41274148D-05  0.62526190D-03  0.32350990D-13 -0.41330525D-12
 -0.14812560D-11  0.18945613D-11  0.40221191D-05 -0.40080509D-03  0.14400871D-14
  0.45336699D-13  0.53524546D-13 -0.98861245D-13  0.33308614D-06 -0.34033419D-04
  0.48888914D-14  0.13000833D-03 -0.25749118D-14 -0.21951174D-12 -0.73687417D-04
 -0.32250386D-14  0.85995160D-13 -0.31633756D-03  0.10949774D-13  0.57254006D-12
  0.39375099D-05  0.67234789D-05  0.18136607D-14  0.15968862D-12  0.35144042D-04
  0.10632743D-14 -0.12702802D-12 -0.55314479D-04 -0.65042565D-14 -0.35203783D-12
  0.88969895D-06  0.12983741D-11  0.23416712D-11  0.34527928D-11  0.23273795D-11
  0.19767828D-11  0.29780069D-13 -0.12919242D-03  0.34765346D-11  0.15256689D-11
  0.16910544D-03  0.17525389D-11  0.11062954D-11 -0.57349955D-04  0.13645736D-12
  0.43494265D-12 -0.11212164D-11  0.18510250D-11 -0.72980865D-12  0.13909719D-03
 -0.59730843D-04  0.39571845D-11 -0.20486338D-12  0.10683804D-12  0.98025339D-13
 -0.37851973D-04  0.11038044D-03  0.34947924D-12  0.13094414D-11  0.23616314D-11
  0.34822241D-11  0.21712085D-11  0.19659674D-11  0.25007649D-13 -0.12628300D-03
 -0.34786921D-11  0.15648356D-11  0.16690206D-03 -0.16222203D-11  0.11072791D-11
 -0.56830416D-04 -0.13096003D-12  0.43345331D-12 -0.11092934D-11  0.17942099D-11
 -0.68491648D-12 -0.14183692D-03 -0.54950658D-04 -0.39571262D-11 -0.20065234D-12
  0.98499107D-13  0.10215324D-12  0.38525665D-04  0.11192214D-03 -0.34084483D-12
MO    6     MO 0.0        OCC NO =    2.0000000  ORB. ENERGY =    0.000000
 -0.81008236D-04 -0.15101567D-03 -0.25523706D-03 -0.38366891D-03 -0.47126853D-03
 -0.39773401D-03 -0.14955838D-03  0.49229092D-07  0.36795696D-06  0.13751392D-05
  0.38364242D-05  0.51397508D-05 -0.60690873D-05  0.16660695D-05 -0.30780724D-04
 -0.72444783D-05  0.57103827D-12  0.53538467D-12  0.38122578D-12 -0.10391531D-06
 -0.97427208D-07 -0.69373976D-07  0.14565630D-04  0.13656204D-04  0.97240311D-05
  0.11423090D-12  0.40615991D-06 -0.38213815D-04  0.23339903D-13 -0.87417484D-07
  0.41070113D-05  0.64102688D-15  0.79446481D-08 -0.38991785D-06  0.14529207D-05
  0.89098205D-05 -0.10362741D-04 -0.17155274D-14  0.13298397D-12  0.30655489D-06
  0.63105672D-05  0.43060880D-05 -0.10616655D-04  0.78160718D-14 -0.12770003D-12
  0.30635194D-06  0.63680716D-06 -0.91566789D-06  0.27886073D-06  0.20003235D-14
  0.10906962D-13 -0.13928120D-07 -0.17585459D-13  0.17551122D-06  0.21217871D-05
 -0.27152416D-14 -0.97037852D-07  0.39160709D-06  0.55471617D-13 -0.42949582D-06
 -0.67569683D-05 -0.92246427D-14  0.53094120D-14  0.88659414D-07 -0.38308925D-06
  0.30538673D-13 -0.17976400D-08  0.61624612D-06 -0.46466909D-13 -0.26418060D-06
  0.53302162D-06  0.90233930D-15  0.58266941D+00  0.10893592D+01  0.18827364D+01
  0.30452486D+01  0.46027913D+01  0.63389965D+01  0.74095150D+01  0.64038039D+01
  0.29886886D+01  0.40490173D+00 -0.29615096D-02 -0.29343297D-04 -0.37720513D-03
 -0.13759901D-02 -0.46425565D-02 -0.10197137D-01 -0.13171920D-01  0.21168396D-02
  0.17757768D-01  0.97452341D-02  0.19753548D-06  0.22500520D-05  0.46719190D-05
  0.12846591D-04 -0.16657080D-05 -0.58086433D-04 -0.14487679D-03  0.11992691D-03
  0.13973220D-04 -0.17647497D-04  0.32778058D-05 -0.19136204D-08 -0.25105612D-08
 -0.27535423D-08 -0.22655316D-08 -0.11942595D-08 -0.31072385D-09 -0.78095076D-04
 -0.10245630D-03 -0.11237239D-03 -0.92456614D-04 -0.48737870D-04 -0.12680677D-04
  0.11194468D-01  0.14686505D-01  0.16107918D-01  0.13253109D-01  0.69862857D-02
  0.18177001D-02 -0.10214212D-13 -0.36664559D-12 -0.58169242D-12 -0.69074190D-12
 -0.10452746D-12  0.76073124D-12 -0.80931997D-08 -0.29051051D-06 -0.46090220D-06
 -0.54730723D-06 -0.82822010D-07  0.60276307D-06  0.70487143D-06  0.25301805D-04
  0.40141948D-04  0.47667331D-04  0.72133236D-05 -0.52497218D-04 -0.14822642D-10
 -0.13037995D-05  0.16288864D-03 -0.37600496D-13  0.38343795D-07  0.52664459D-05
  0.26293566D-14  0.13521771D-08 -0.34077763D-07 -0.58164767D-05 -0.37570471D-05
  0.95735238D-05  0.12610155D-15 -0.12199359D-12 -0.34180614D-06  0.91720435D-05
 -0.15972250D-04  0.68002063D-05 -0.24811186D-15  0.76112910D-13 -0.44489854D-06
  0.59368168D-06  0.49053417D-06 -0.10842159D-05 -0.64201660D-15  0.82513310D-14
 -0.92437996D-09 -0.26037159D-13 -0.83398379D-07 -0.69843851D-05  0.12985922D-13
 -0.71542905D-07  0.12191366D-04  0.65125554D-13  0.32173804D-06  0.87617893D-05
 -0.40798107D-14 -0.10344312D-14 -0.60788682D-08 -0.58982398D-07 -0.66084415D-14
 -0.72605685D-08 -0.78560506D-08  0.97117352D-14  0.25497173D-07  0.18480324D-06
  0.11919197D-14 -0.12391116D-05 -0.22347889D-05 -0.32951949D-05  0.29286285D-05
  0.17405217D-04  0.25216781D-06  0.30607958D-13 -0.57954354D-05 -0.14784335D-05
 -0.41808959D-13  0.71533622D-06 -0.88854475D-06  0.10718376D-13  0.74102977D-06
  0.25319822D-05 -0.24889453D-05 -0.18896178D-05  0.43785631D-05 -0.29605958D-13
  0.68856924D-14 -0.18103729D-05 -0.45537206D-07 -0.45415272D-06  0.49968992D-06
  0.46726335D-14 -0.22797893D-13 -0.18198467D-05 -0.12329149D-05 -0.22236128D-05
 -0.32787158D-05  0.31132755D-05  0.17407753D-04  0.22313586D-06  0.37115671D-13
  0.58781808D-05 -0.14776269D-05 -0.52252314D-13 -0.12874211D-05 -0.19483198D-05
  0.45297640D-14 -0.77532856D-06  0.25043702D-05 -0.23887686D-05 -0.13246047D-05
  0.37133733D-05  0.39211251D-13  0.74508735D-14  0.23447727D-05 -0.30994252D-07