 Entering Gaussian System, Link 0=/home/bruns/programas/chemistry/gaussian/g09/g09
 Input=GAUSSIAN.com
 Output=GAUSSIAN.log
 Initial command:
 /home/bruns/programas/chemistry/gaussian/g09/l1.exe /home/bruns/programas/chemistry/gaussian/work/Gau-30136.inp -scrdir=/home/bruns/programas/chemistry/gaussian/work/
 Entering Link 1 = /home/bruns/programas/chemistry/gaussian/g09/l1.exe PID=     30138.
  
 Copyright (c) 1988,1990,1992,1993,1995,1998,2003,2009,2010,
            Gaussian, Inc.  All Rights Reserved.
  
 This is part of the Gaussian(R) 09 program.  It is based on
 the Gaussian(R) 03 system (copyright 2003, Gaussian, Inc.),
 the Gaussian(R) 98 system (copyright 1998, Gaussian, Inc.),
 the Gaussian(R) 94 system (copyright 1995, Gaussian, Inc.),
 the Gaussian 92(TM) system (copyright 1992, Gaussian, Inc.),
 the Gaussian 90(TM) system (copyright 1990, Gaussian, Inc.),
 the Gaussian 88(TM) system (copyright 1988, Gaussian, Inc.),
 the Gaussian 86(TM) system (copyright 1986, Carnegie Mellon
 University), and the Gaussian 82(TM) system (copyright 1983,
 Carnegie Mellon University). Gaussian is a federally registered
 trademark of Gaussian, Inc.
  
 This software contains proprietary and confidential information,
 including trade secrets, belonging to Gaussian, Inc.
  
 This software is provided under written license and may be
 used, copied, transmitted, or stored only in accord with that
 written license.
  
 The following legend is applicable only to US Government
 contracts under FAR:
  
                    RESTRICTED RIGHTS LEGEND
  
 Use, reproduction and disclosure by the US Government is
 subject to restrictions as set forth in subparagraphs (a)
 and (c) of the Commercial Computer Software - Restricted
 Rights clause in FAR 52.227-19.
  
 Gaussian, Inc.
 340 Quinnipiac St., Bldg. 40, Wallingford CT 06492
  
  
 ---------------------------------------------------------------
 Warning -- This program may not be used in any manner that
 competes with the business of Gaussian, Inc. or will provide
 assistance to any competitor of Gaussian, Inc.  The licensee
 of this program is prohibited from giving any competitor of
 Gaussian, Inc. access to this program.  By using this program,
 the user acknowledges that Gaussian, Inc. is engaged in the
 business of creating and licensing software in the field of
 computational chemistry and represents and warrants to the
 licensee that it is not a competitor of Gaussian, Inc. and that
 it will not use this program in any manner prohibited above.
 ---------------------------------------------------------------
  

 Cite this work as:
 Gaussian 09, Revision B.01,
 M. J. Frisch, G. W. Trucks, H. B. Schlegel, G. E. Scuseria, 
 M. A. Robb, J. R. Cheeseman, G. Scalmani, V. Barone, B. Mennucci, 
 G. A. Petersson, H. Nakatsuji, M. Caricato, X. Li, H. P. Hratchian, 
 A. F. Izmaylov, J. Bloino, G. Zheng, J. L. Sonnenberg, M. Hada, 
 M. Ehara, K. Toyota, R. Fukuda, J. Hasegawa, M. Ishida, T. Nakajima, 
 Y. Honda, O. Kitao, H. Nakai, T. Vreven, J. A. Montgomery, Jr., 
 J. E. Peralta, F. Ogliaro, M. Bearpark, J. J. Heyd, E. Brothers, 
 K. N. Kudin, V. N. Staroverov, T. Keith, R. Kobayashi, J. Normand, 
 K. Raghavachari, A. Rendell, J. C. Burant, S. S. Iyengar, J. Tomasi, 
 M. Cossi, N. Rega, J. M. Millam, M. Klene, J. E. Knox, J. B. Cross, 
 V. Bakken, C. Adamo, J. Jaramillo, R. Gomperts, R. E. Stratmann, 
 O. Yazyev, A. J. Austin, R. Cammi, C. Pomelli, J. W. Ochterski, 
 R. L. Martin, K. Morokuma, V. G. Zakrzewski, G. A. Voth, 
 P. Salvador, J. J. Dannenberg, S. Dapprich, A. D. Daniels, 
 O. Farkas, J. B. Foresman, J. V. Ortiz, J. Cioslowski, 
 and D. J. Fox, Gaussian, Inc., Wallingford CT, 2010.
 
 ******************************************
 Gaussian 09:  EM64L-G09RevB.01 12-Aug-2010
                17-Nov-2021 
 ******************************************
 %nproc=8
 Will use up to    8 processors via shared memory.
 %mem=8GB
 -----------------------------------------------------
 # qcisd/aug-cc-pvtz nosymm density=current output=wfn
 -----------------------------------------------------
 1/30=1,38=1/1;
 2/12=2,15=1,17=6,18=5,40=1/2;
 3/5=16,6=1,7=10,11=9,16=1,25=1,30=1,71=1/1,2,3;
 4//1;
 5/5=2,38=5/2;
 8/6=4,9=120000,10=1/1,4;
 9/5=8,15=1/13;
 11/28=-7,31=1,32=3,42=3/11;
 10/5=6,13=10,31=1/2;
 6/7=2,8=2,9=2,10=2,22=-1,31=1/1;
 99/5=1,6=1100,9=1/99;
 -----------------
 h2cs-wavefunction
 -----------------
 Symbolic Z-matrix:
 Charge =  0 Multiplicity = 1
 C                     0.        0.       -0.55529 
 S                     0.        0.        1.06037 
 H                     0.       -0.92228  -1.12899 
 H                     0.        0.93228  -1.12899 
 
                          Input orientation:                          
 ---------------------------------------------------------------------
 Center     Atomic      Atomic             Coordinates (Angstroms)
 Number     Number       Type             X           Y           Z
 ---------------------------------------------------------------------
      1          6           0        0.000000    0.000000   -0.555291
      2         16           0        0.000000    0.000000    1.060374
      3          1           0        0.000000   -0.922280   -1.128992
      4          1           0        0.000000    0.932280   -1.128992
 ---------------------------------------------------------------------
                    Distance matrix (angstroms):
                    1          2          3          4
     1  C    0.000000
     2  S    1.615665   0.000000
     3  H    1.086155   2.375694   0.000000
     4  H    1.094659   2.379594   1.854560   0.000000
 Symmetry turned off by external request.
 Stoichiometry    CH2S
 Framework group  CS[SG(CH2S)]
 Deg. of freedom     5
 Full point group                 CS      NOp   2
 Rotational constants (GHZ):    291.5888003     17.6287150     16.6236892
 Standard basis: Aug-CC-pVTZ (5D, 7F)
 Integral buffers will be    131072 words long.
 Raffenetti 1 integral format.
 Two-electron integral symmetry is turned off.
   142 basis functions,   240 primitive gaussians,   164 cartesian basis functions
    12 alpha electrons       12 beta electrons
       nuclear repulsion energy        44.6738847565 Hartrees.
 NAtoms=    4 NActive=    4 NUniq=    4 SFac= 1.00D+00 NAtFMM=   50 NAOKFM=F Big=F
 One-electron integrals computed using PRISM.
 NBasis=   142 RedAO= T  NBF=   142
 NBsUse=   142 1.00D-06 NBFU=   142
 Harris functional with IExCor=  205 diagonalized for initial guess.
 ExpMin= 2.53D-02 ExpMax= 3.74D+05 ExpMxC= 1.18D+03 IAcc=3 IRadAn=         0 AccDes= 0.00D+00
 HarFok:  IExCor=  205 AccDes= 0.00D+00 IRadAn=         0 IDoV= 1
 ScaDFX=  1.000000  1.000000  1.000000  1.000000
 FoFCou: FMM=F IPFlag=           0 FMFlag=      100000 FMFlg1=           0
         NFxFlg=           0 DoJE=T BraDBF=F KetDBF=T FulRan=T
         Omega=  0.000000  0.000000  1.000000  0.000000  0.000000 ICntrl=     500 IOpCl=  0
         NMat0=    1 NMatS0=    1 NMatT0=    0 NMatD0=    1 NMtDS0=    0 NMtDT0=    0
         I1Cent=           4 NGrid=           0.
 Symmetry not used in FoFCou.
 Requested convergence on RMS density matrix=1.00D-08 within 128 cycles.
 Requested convergence on MAX density matrix=1.00D-06.
 Requested convergence on             energy=1.00D-06.
 No special actions if energy rises.
 Keep R1 ints in memory in canonical form, NReq=93884347.
 SCF Done:  E(RHF) =  -436.557429789     A.U. after   11 cycles
             Convg  =    0.5873D-08             -V/T =  2.0003
 ExpMin= 2.53D-02 ExpMax= 3.74D+05 ExpMxC= 1.18D+03 IAcc=3 IRadAn=         5 AccDes= 0.00D+00
 HarFok:  IExCor=  205 AccDes= 0.00D+00 IRadAn=         5 IDoV=-2
 ScaDFX=  1.000000  1.000000  1.000000  1.000000
 Range of M.O.s used for correlation:     7   142
 NBasis=   142 NAE=    12 NBE=    12 NFC=     6 NFV=     0
 NROrb=    136 NOA=     6 NOB=     6 NVA=   130 NVB=   130

 **** Warning!!: The largest alpha MO coefficient is  0.44395170D+02

 Semi-Direct transformation.
 ModeAB=           2 MOrb=             6 LenV=    1073081981
 LASXX=      7286295 LTotXX=     7286295 LenRXX=     7286295
 LTotAB=     7445736 MaxLAS=    11040480 LenRXY=    11040480
 NonZer=    14572590 LenScr=    22628352 LnRSAI=           0
 LnScr1=           0 LExtra=           0 Total=     40955127
 MaxDsk=          -1 SrtSym=           F ITran=            4
 JobTyp=0 Pass  1:  I=   1 to   6.
 (rs|ai) integrals will be sorted in core.
 Spin components of T(2) and E(2):
     alpha-alpha T2 =       0.1685965635D-01 E2=     -0.3869159847D-01
     alpha-beta  T2 =       0.1053571231D+00 E2=     -0.2636049566D+00
     beta-beta   T2 =       0.1685965635D-01 E2=     -0.3869159847D-01
 ANorm=    0.1067275239D+01
 E2 =    -0.3409881535D+00 EUMP2 =    -0.43689841794290D+03
 R2 and R3 integrals will be kept in memory, NReq=   185320410.
 Iterations=  50 Convergence= 0.100D-07
 Iteration Nr.   1
 **********************
 DD1Dir will call FoFMem   1 times, MxPair=        42
 NAB=    21 NAA=     0 NBB=     0.
 MP4(R+Q)=  0.11672386D-01
 E3=       -0.22783073D-01        EUMP3=      -0.43692120102D+03
 E4(DQ)=    0.16307782D-02        UMP4(DQ)=   -0.43691957024D+03
 E4(SDQ)=  -0.18600502D-02        UMP4(SDQ)=  -0.43692306107D+03
 DE(Corr)= -0.35209884     E(Corr)=     -436.90952863    
 NORM(A)=   0.10739180D+01
 Iteration Nr.   2
 **********************
 DD1Dir will call FoFMem   1 times, MxPair=        42
 NAB=    21 NAA=     0 NBB=     0.
 DE(Corr)= -0.36354687     E(CORR)=     -436.92097666     Delta=-1.14D-02
 NORM(A)=   0.10813021D+01
 Iteration Nr.   3
 **********************
 DD1Dir will call FoFMem   1 times, MxPair=        42
 NAB=    21 NAA=     0 NBB=     0.
 DE(Corr)= -0.36447369     E(CORR)=     -436.92190347     Delta=-9.27D-04
 NORM(A)=   0.10837312D+01
 Iteration Nr.   4
 **********************
 DD1Dir will call FoFMem   1 times, MxPair=        42
 NAB=    21 NAA=     0 NBB=     0.
 DE(Corr)= -0.36580548     E(CORR)=     -436.92323527     Delta=-1.33D-03
 NORM(A)=   0.10847220D+01
 Iteration Nr.   5
 **********************
 DD1Dir will call FoFMem   1 times, MxPair=        42
 NAB=    21 NAA=     0 NBB=     0.
 DE(Corr)= -0.36600336     E(CORR)=     -436.92343315     Delta=-1.98D-04
 NORM(A)=   0.10850842D+01
 Iteration Nr.   6
 **********************
 DD1Dir will call FoFMem   1 times, MxPair=        42
 NAB=    21 NAA=     0 NBB=     0.
 DE(Corr)= -0.36603550     E(CORR)=     -436.92346529     Delta=-3.21D-05
 NORM(A)=   0.10850991D+01
 Iteration Nr.   7
 **********************
 DD1Dir will call FoFMem   1 times, MxPair=        42
 NAB=    21 NAA=     0 NBB=     0.
 DE(Corr)= -0.36603689     E(CORR)=     -436.92346668     Delta=-1.39D-06
 NORM(A)=   0.10851107D+01
 Iteration Nr.   8
 **********************
 DD1Dir will call FoFMem   1 times, MxPair=        42
 NAB=    21 NAA=     0 NBB=     0.
 DE(Corr)= -0.36603392     E(CORR)=     -436.92346371     Delta= 2.97D-06
 NORM(A)=   0.10851098D+01
 Iteration Nr.   9
 **********************
 DD1Dir will call FoFMem   1 times, MxPair=        42
 NAB=    21 NAA=     0 NBB=     0.
 DE(Corr)= -0.36603637     E(CORR)=     -436.92346616     Delta=-2.45D-06
 NORM(A)=   0.10851110D+01
 Iteration Nr.  10
 **********************
 DD1Dir will call FoFMem   1 times, MxPair=        42
 NAB=    21 NAA=     0 NBB=     0.
 DE(Corr)= -0.36603605     E(CORR)=     -436.92346584     Delta= 3.22D-07
 NORM(A)=   0.10851118D+01
 Iteration Nr.  11
 **********************
 DD1Dir will call FoFMem   1 times, MxPair=        42
 NAB=    21 NAA=     0 NBB=     0.
 DE(Corr)= -0.36603657     E(CORR)=     -436.92346636     Delta=-5.27D-07
 NORM(A)=   0.10851124D+01
 Iteration Nr.  12
 **********************
 DD1Dir will call FoFMem   1 times, MxPair=        42
 NAB=    21 NAA=     0 NBB=     0.
 DE(Corr)= -0.36603668     E(CORR)=     -436.92346647     Delta=-1.08D-07
 NORM(A)=   0.10851128D+01
 Iteration Nr.  13
 **********************
 DD1Dir will call FoFMem   1 times, MxPair=        42
 NAB=    21 NAA=     0 NBB=     0.
 DE(Corr)= -0.36603677     E(CORR)=     -436.92346656     Delta=-9.08D-08
 NORM(A)=   0.10851129D+01
 Iteration Nr.  14
 **********************
 DD1Dir will call FoFMem   1 times, MxPair=        42
 NAB=    21 NAA=     0 NBB=     0.
 DE(Corr)= -0.36603680     E(CORR)=     -436.92346659     Delta=-2.92D-08
 NORM(A)=   0.10851130D+01
 Iteration Nr.  15
 **********************
 DD1Dir will call FoFMem   1 times, MxPair=        42
 NAB=    21 NAA=     0 NBB=     0.
 DE(Corr)= -0.36603681     E(CORR)=     -436.92346660     Delta=-9.04D-09
 NORM(A)=   0.10851130D+01
 Iteration Nr.  16
 **********************
 DD1Dir will call FoFMem   1 times, MxPair=        42
 NAB=    21 NAA=     0 NBB=     0.
 DE(Corr)= -0.36603681     E(CORR)=     -436.92346660     Delta=-1.51D-09
 NORM(A)=   0.10851130D+01
 Dominant configurations:
 ***********************
 Spin Case        I    J    A    B          Value
   ABAB          11   11   14   14      -0.114411D+00
 Largest amplitude= 1.14D-01

 Z-AMPLITUDE ITERATIONS

 Iteration Nr.   1
 **********************
 DD1Dir will call FoFMem   1 times, MxPair=        42
 NAB=    21 NAA=     0 NBB=     0.
 DE(Z)  -0.35000464D+00          E(Z)=    -0.43690743443D+03
 NORM(A)=   0.10851000D+01
 Iteration Nr.   2
 **********************
 DD1Dir will call FoFMem   1 times, MxPair=        42
 NAB=    21 NAA=     0 NBB=     0.
 DE(Z)  -0.35000406D+00          E(Z)=    -0.43690743384D+03
 NORM(A)=   0.10851274D+01
 Iteration Nr.   3
 **********************
 DD1Dir will call FoFMem   1 times, MxPair=        42
 NAB=    21 NAA=     0 NBB=     0.
 DE(Z)  -0.35000530D+00          E(Z)=    -0.43690743509D+03
 NORM(A)=   0.10850956D+01
 Iteration Nr.   4
 **********************
 DD1Dir will call FoFMem   1 times, MxPair=        42
 NAB=    21 NAA=     0 NBB=     0.
 DE(Z)  -0.35000383D+00          E(Z)=    -0.43690743362D+03
 NORM(A)=   0.10855566D+01
 Iteration Nr.   5
 **********************
 DD1Dir will call FoFMem   1 times, MxPair=        42
 NAB=    21 NAA=     0 NBB=     0.
 DE(Z)  -0.35002562D+00          E(Z)=    -0.43690745541D+03
 NORM(A)=   0.10768888D+01
 Iteration Nr.   6
 **********************
 DD1Dir will call FoFMem   1 times, MxPair=        42
 NAB=    21 NAA=     0 NBB=     0.
 DE(Z)  -0.34960452D+00          E(Z)=    -0.43690703431D+03
 NORM(A)=   0.10768840D+01
 Iteration Nr.   7
 **********************
 DD1Dir will call FoFMem   1 times, MxPair=        42
 NAB=    21 NAA=     0 NBB=     0.
 DE(Z)  -0.34960305D+00          E(Z)=    -0.43690703284D+03
 NORM(A)=   0.10768826D+01
 Iteration Nr.   8
 **********************
 DD1Dir will call FoFMem   1 times, MxPair=        42
 NAB=    21 NAA=     0 NBB=     0.
 DE(Z)  -0.34960336D+00          E(Z)=    -0.43690703315D+03
 NORM(A)=   0.10768826D+01
 Iteration Nr.   9
 **********************
 DD1Dir will call FoFMem   1 times, MxPair=        42
 NAB=    21 NAA=     0 NBB=     0.
 DE(Z)  -0.34960329D+00          E(Z)=    -0.43690703308D+03
 NORM(A)=   0.10768826D+01
 Iteration Nr.  10
 **********************
 DD1Dir will call FoFMem   1 times, MxPair=        42
 NAB=    21 NAA=     0 NBB=     0.
 DE(Z)  -0.34960331D+00          E(Z)=    -0.43690703310D+03
 NORM(A)=   0.10768826D+01
 Iteration Nr.  11
 **********************
 DD1Dir will call FoFMem   1 times, MxPair=        42
 NAB=    21 NAA=     0 NBB=     0.
 DE(Z)  -0.34960330D+00          E(Z)=    -0.43690703309D+03
 NORM(A)=   0.10768826D+01
 Iteration Nr.  12
 **********************
 DD1Dir will call FoFMem   1 times, MxPair=        42
 NAB=    21 NAA=     0 NBB=     0.
 DE(Z)  -0.34960330D+00          E(Z)=    -0.43690703309D+03
 NORM(A)=   0.10768826D+01
 Discarding MO integrals.
          Differentiating once with respect to electric field.
                with respect to dipole field.
          Electric field/nuclear overlap derivatives assumed to be zero.
          Keep R1 ints in memory in canonical form, NReq=93478140.
          There are     1 degrees of freedom in the 1st order CPHF.  IDoFFX=0.
 LinEq1:  Iter=  0 NonCon=     1 RMS=2.95D-03 Max=4.36D-02
 AX will form     1 AO Fock derivatives at one time.
 LinEq1:  Iter=  1 NonCon=     1 RMS=9.89D-04 Max=1.22D-02
 LinEq1:  Iter=  2 NonCon=     1 RMS=4.77D-04 Max=1.33D-02
 LinEq1:  Iter=  3 NonCon=     1 RMS=1.60D-04 Max=2.47D-03
 LinEq1:  Iter=  4 NonCon=     1 RMS=4.01D-05 Max=5.29D-04
 LinEq1:  Iter=  5 NonCon=     1 RMS=8.78D-06 Max=9.99D-05
 LinEq1:  Iter=  6 NonCon=     1 RMS=1.56D-06 Max=2.22D-05
 LinEq1:  Iter=  7 NonCon=     1 RMS=2.02D-07 Max=2.71D-06
 LinEq1:  Iter=  8 NonCon=     1 RMS=2.33D-08 Max=2.28D-07
 LinEq1:  Iter=  9 NonCon=     1 RMS=3.72D-09 Max=3.77D-08
 LinEq1:  Iter= 10 NonCon=     1 RMS=5.24D-10 Max=5.89D-09
 LinEq1:  Iter= 11 NonCon=     0 RMS=6.66D-11 Max=6.54D-10
 Linear equations converged to 1.000D-10 1.000D-09 after    11 iterations.
 End of Minotr Frequency-dependent properties file   721 does not exist.
 End of Minotr Frequency-dependent properties file   722 does not exist.

 **********************************************************************

            Population analysis using the QCI/CC density.

 **********************************************************************

     Natural Orbital Coefficients:
                           1         2         3         4         5
     Eigenvalues --     2.00003   2.00002   2.00001   2.00000   2.00000
   1 1   C  1S          0.00004  -0.15995  -0.45376   0.85508   0.00000
   2        2S          0.00000   0.00306   0.00800  -0.01044   0.00000
   3        3S          0.00001  -0.00638  -0.01851   0.03563   0.00000
   4        4S         -0.00027  -0.00364  -0.00075  -0.00330   0.00000
   5        5S         -0.00003  -0.00056  -0.00155  -0.00003   0.00000
   6        6PX         0.00000   0.00000   0.00000   0.00000  -0.00135
   7        6PY        -0.00066   0.00000  -0.00001   0.00003   0.00000
   8        6PZ         0.00000   0.00110   0.00170   0.00193   0.00000
   9        7PX         0.00000   0.00000   0.00000   0.00000  -0.00114
  10        7PY        -0.00139   0.00001   0.00004  -0.00010   0.00000
  11        7PZ         0.00000   0.00011   0.00127  -0.00083   0.00000
  12        8PX         0.00000   0.00000   0.00000   0.00000  -0.00049
  13        8PY         0.01573   0.00001   0.00006  -0.00001   0.00000
  14        8PZ         0.00007  -0.00596  -0.00158  -0.00298   0.00000
  15        9PX         0.00000   0.00000   0.00000   0.00000  -0.00001
  16        9PY         0.00133   0.00000   0.00000   0.00001   0.00000
  17        9PZ         0.00000  -0.00002  -0.00018  -0.00017   0.00000
  18       10D 0        0.00000  -0.00002   0.00000   0.00029   0.00000
  19       10D+1        0.00000   0.00000   0.00000   0.00000  -0.00020
  20       10D-1       -0.00032   0.00000  -0.00001   0.00001   0.00000
  21       10D+2        0.00000   0.00010   0.00027  -0.00053   0.00000
  22       10D-2        0.00000   0.00000   0.00000   0.00000   0.00000
  23       11D 0       -0.00001  -0.00082   0.00054  -0.00132   0.00000
  24       11D+1        0.00000   0.00000   0.00000   0.00000   0.00160
  25       11D-1        0.00014  -0.00001  -0.00002   0.00005   0.00000
  26       11D+2        0.00001  -0.00028  -0.00030   0.00019   0.00000
  27       11D-2        0.00000   0.00000   0.00000   0.00000   0.00001
  28       12D 0       -0.00003  -0.00326  -0.00245  -0.00154   0.00000
  29       12D+1        0.00000   0.00000   0.00000   0.00000  -0.00104
  30       12D-1       -0.00424  -0.00001  -0.00001   0.00002   0.00000
  31       12D+2       -0.00003  -0.00146  -0.00091  -0.00055   0.00000
  32       12D-2        0.00000   0.00000   0.00000   0.00000  -0.00001
  33       13F 0        0.00000   0.00001   0.00009   0.00052   0.00000
  34       13F+1        0.00000   0.00000   0.00000   0.00000  -0.00015
  35       13F-1       -0.00035   0.00000   0.00000  -0.00001   0.00000
  36       13F+2        0.00000  -0.00010  -0.00022   0.00052   0.00000
  37       13F-2        0.00000   0.00000   0.00000   0.00000   0.00000
  38       13F+3        0.00000   0.00000   0.00000   0.00000   0.00002
  39       13F-3        0.00001   0.00000   0.00000   0.00000   0.00000
  40       14F 0        0.00000   0.00077   0.00155  -0.00088   0.00000
  41       14F+1        0.00000   0.00000   0.00000   0.00000   0.00128
  42       14F-1        0.00194   0.00000   0.00001   0.00003   0.00000
  43       14F+2        0.00000   0.00067   0.00106  -0.00084   0.00000
  44       14F-2        0.00000   0.00000   0.00000   0.00000   0.00000
  45       14F+3        0.00000   0.00000   0.00000   0.00000   0.00044
  46       14F-3       -0.00018   0.00000   0.00000   0.00001   0.00000
  47 2   S  1S         -0.00017  -0.20712   0.19161   0.06305   0.00000
  48        2S          0.00058   0.70743  -0.66042  -0.21690   0.00000
  49        3S         -0.00001  -0.02026   0.01027   0.00296   0.00000
  50        4S          0.00004   0.04744  -0.04708  -0.01614   0.00000
  51        5S          0.00002   0.00729   0.00709   0.00827   0.00000
  52        6S          0.00000   0.00004   0.00039   0.00137   0.00000
  53        7PX         0.00000   0.00000   0.00000   0.00000   0.97149
  54        7PY         0.97717  -0.00052   0.00029   0.00001   0.00000
  55        7PZ         0.00018   0.66575   0.56932   0.42457   0.00000
  56        8PX         0.00000   0.00000   0.00000   0.00000  -0.01103
  57        8PY        -0.02055   0.00001  -0.00001  -0.00002   0.00000
  58        8PZ        -0.00002  -0.01193  -0.00782  -0.00667   0.00000
  59        9PX         0.00000   0.00000   0.00000   0.00000   0.06295
  60        9PY         0.05564  -0.00003   0.00002   0.00000   0.00000
  61        9PZ         0.00001   0.04067   0.03666   0.02769   0.00000
  62       10PX         0.00000   0.00000   0.00000   0.00000   0.00189
  63       10PY        -0.00636   0.00001  -0.00001  -0.00004   0.00000
  64       10PZ        -0.00001  -0.00715  -0.00131  -0.00379   0.00000
  65       11PX         0.00000   0.00000   0.00000   0.00000  -0.00071
  66       11PY        -0.00127   0.00000   0.00000  -0.00001   0.00000
  67       11PZ         0.00000  -0.00006   0.00002  -0.00021   0.00000
  68       12D 0        0.00001   0.00216   0.00175   0.00219   0.00000
  69       12D+1        0.00000   0.00000   0.00000   0.00000   0.00217
  70       12D-1        0.00267   0.00000   0.00001   0.00002   0.00000
  71       12D+2        0.00000  -0.00053  -0.00005   0.00033   0.00000
  72       12D-2        0.00000   0.00000   0.00000   0.00000   0.00000
  73       13D 0        0.00000   0.00002  -0.00031  -0.00038   0.00000
  74       13D+1        0.00000   0.00000   0.00000   0.00000  -0.00020
  75       13D-1       -0.00054   0.00000   0.00000   0.00000   0.00000
  76       13D+2        0.00000   0.00037  -0.00029  -0.00012   0.00000
  77       13D-2        0.00000   0.00000   0.00000   0.00000   0.00000
  78       14D 0        0.00000   0.00096  -0.00028   0.00074   0.00000
  79       14D+1        0.00000   0.00000   0.00000   0.00000  -0.00065
  80       14D-1       -0.00059   0.00000   0.00000   0.00002   0.00000
  81       14D+2        0.00000   0.00035   0.00008   0.00004   0.00000
  82       14D-2        0.00000   0.00000   0.00000   0.00000   0.00000
  83       15F 0        0.00000  -0.00018  -0.00011   0.00014   0.00000
  84       15F+1        0.00000   0.00000   0.00000   0.00000  -0.00033
  85       15F-1       -0.00014   0.00000   0.00000   0.00000   0.00000
  86       15F+2        0.00000   0.00014   0.00019   0.00007   0.00000
  87       15F-2        0.00000   0.00000   0.00000   0.00000   0.00000
  88       15F+3        0.00000   0.00000   0.00000   0.00000   0.00016
  89       15F-3        0.00010   0.00000   0.00000   0.00000   0.00000
  90       16F 0        0.00000  -0.00041  -0.00027  -0.00077   0.00000
  91       16F+1        0.00000   0.00000   0.00000   0.00000  -0.00047
  92       16F-1       -0.00084   0.00000   0.00000  -0.00001   0.00000
  93       16F+2        0.00000  -0.00004   0.00000  -0.00028   0.00000
  94       16F-2        0.00000   0.00000   0.00000   0.00000   0.00000
  95       16F+3        0.00000   0.00000   0.00000   0.00000  -0.00019
  96       16F-3       -0.00024   0.00000   0.00000   0.00000   0.00000
  97 3   H  1S         -0.00042  -0.00009   0.00016  -0.00121   0.00000
  98        2S          0.00047  -0.00126  -0.00113  -0.00186   0.00000
  99        3S          0.01820  -0.00339   0.00013  -0.00373   0.00000
 100        4S          0.00055   0.00006   0.00016  -0.00016   0.00000
 101        5PX         0.00000   0.00000   0.00000   0.00000  -0.00006
 102        5PY        -0.00001   0.00001   0.00008  -0.00038   0.00000
 103        5PZ         0.00012   0.00004   0.00009  -0.00017   0.00000
 104        6PX         0.00000   0.00000   0.00000   0.00000   0.00039
 105        6PY        -0.00003   0.00008   0.00031  -0.00097   0.00000
 106        6PZ        -0.00073   0.00006   0.00040  -0.00065   0.00000
 107        7PX         0.00000   0.00000   0.00000   0.00000  -0.00069
 108        7PY         0.00381   0.00045   0.00093  -0.00045   0.00000
 109        7PZ         0.00159  -0.00150  -0.00068  -0.00121   0.00000
 110        8D 0        0.00011   0.00004   0.00007   0.00009   0.00000
 111        8D+1        0.00000   0.00000   0.00000   0.00000  -0.00002
 112        8D-1        0.00000   0.00004   0.00014  -0.00031   0.00000
 113        8D+2        0.00003  -0.00004  -0.00011   0.00023   0.00000
 114        8D-2        0.00000   0.00000   0.00000   0.00000   0.00004
 115        9D 0       -0.00002   0.00007   0.00038  -0.00017   0.00000
 116        9D+1        0.00000   0.00000   0.00000   0.00000   0.00044
 117        9D-1       -0.00047  -0.00026  -0.00024  -0.00033   0.00000
 118        9D+2        0.00020  -0.00022  -0.00030   0.00031   0.00000
 119        9D-2        0.00000   0.00000   0.00000   0.00000  -0.00015
 120 4   H  1S          0.00042  -0.00009   0.00014  -0.00117   0.00000
 121        2S         -0.00042  -0.00130  -0.00125  -0.00160   0.00000
 122        3S         -0.01797  -0.00345  -0.00008  -0.00354   0.00000
 123        4S         -0.00054   0.00007   0.00015  -0.00016   0.00000
 124        5PX         0.00000   0.00000   0.00000   0.00000  -0.00006
 125        5PY        -0.00001  -0.00001  -0.00008   0.00037   0.00000
 126        5PZ        -0.00012   0.00004   0.00009  -0.00016   0.00000
 127        6PX         0.00000   0.00000   0.00000   0.00000   0.00037
 128        6PY        -0.00003  -0.00005  -0.00024   0.00087   0.00000
 129        6PZ         0.00072   0.00007   0.00039  -0.00055   0.00000
 130        7PX         0.00000   0.00000   0.00000   0.00000  -0.00067
 131        7PY         0.00379  -0.00040  -0.00085   0.00040   0.00000
 132        7PZ        -0.00159  -0.00147  -0.00069  -0.00117   0.00000
 133        8D 0       -0.00011   0.00004   0.00007   0.00009   0.00000
 134        8D+1        0.00000   0.00000   0.00000   0.00000  -0.00002
 135        8D-1        0.00000  -0.00004  -0.00014   0.00030   0.00000
 136        8D+2       -0.00003  -0.00004  -0.00011   0.00023   0.00000
 137        8D-2        0.00000   0.00000   0.00000   0.00000  -0.00004
 138        9D 0        0.00002   0.00007   0.00038  -0.00017   0.00000
 139        9D+1        0.00000   0.00000   0.00000   0.00000   0.00044
 140        9D-1       -0.00047   0.00026   0.00023   0.00030   0.00000
 141        9D+2       -0.00019  -0.00021  -0.00029   0.00029   0.00000
 142        9D-2        0.00000   0.00000   0.00000   0.00000   0.00015
                           6         7         8         9        10
     Eigenvalues --     2.00000   1.97238   1.96156   1.95892   1.94153
   1 1   C  1S         -0.00024  -0.13788   0.07963  -0.00527   0.05981
   2        2S         -0.00002   0.36898  -0.22282   0.01451  -0.16552
   3        3S          0.00000   0.08185  -0.05270   0.00324  -0.03852
   4        4S         -0.00020   0.24749  -0.22309   0.01235  -0.08697
   5        5S         -0.00011   0.01895   0.00527  -0.00051  -0.00578
   6        6PX         0.00000   0.00000   0.00000   0.00000   0.00000
   7        6PY         0.00000  -0.00181   0.01394   0.24666  -0.00038
   8        6PZ         0.00001   0.01564   0.16455  -0.00802  -0.18364
   9        7PX         0.00000   0.00000   0.00000   0.00000   0.00000
  10        7PY         0.00000  -0.00265   0.01912   0.33782  -0.00056
  11        7PZ        -0.00009   0.00723   0.21310  -0.01036  -0.23386
  12        8PX         0.00000   0.00000   0.00000   0.00000   0.00000
  13        8PY         0.00000  -0.00157   0.01255   0.22357   0.00028
  14        8PZ         0.00004  -0.03084   0.10247  -0.00535  -0.12995
  15        9PX         0.00000   0.00000   0.00000   0.00000   0.00000
  16        9PY         0.00000   0.00000   0.00030   0.00598   0.00000
  17        9PZ        -0.00002   0.00167   0.00750  -0.00044  -0.00628
  18       10D 0       -0.00001   0.00853   0.00885  -0.00047  -0.01090
  19       10D+1        0.00000   0.00000   0.00000   0.00000   0.00000
  20       10D-1        0.00000   0.00018  -0.00092  -0.01402   0.00045
  21       10D+2        0.00000  -0.00697   0.00994  -0.00058  -0.00310
  22       10D-2        0.00000   0.00000   0.00000   0.00000   0.00000
  23       11D 0       -0.00005   0.00978   0.01569  -0.00105  -0.01378
  24       11D+1        0.00000   0.00000   0.00000   0.00000   0.00000
  25       11D-1        0.00000   0.00050  -0.00253  -0.03819   0.00098
  26       11D+2        0.00001  -0.01754   0.02568  -0.00149  -0.00835
  27       11D-2        0.00000   0.00000   0.00000   0.00000   0.00000
  28       12D 0        0.00001  -0.01049  -0.00214  -0.00011  -0.00201
  29       12D+1        0.00000   0.00000   0.00000   0.00000   0.00000
  30       12D-1        0.00000   0.00026  -0.00215  -0.03678  -0.00062
  31       12D+2        0.00003  -0.00420   0.00358  -0.00025  -0.00406
  32       12D-2        0.00000   0.00000   0.00000   0.00000   0.00000
  33       13F 0        0.00000   0.00590   0.00127   0.00002  -0.00508
  34       13F+1        0.00000   0.00000   0.00000   0.00000   0.00000
  35       13F-1        0.00000  -0.00005   0.00030   0.00556   0.00012
  36       13F+2        0.00000   0.00387  -0.00230   0.00018  -0.00026
  37       13F-2        0.00000   0.00000   0.00000   0.00000   0.00000
  38       13F+3        0.00000   0.00000   0.00000   0.00000   0.00000
  39       13F-3        0.00000   0.00000  -0.00012  -0.00236   0.00003
  40       14F 0       -0.00001   0.00561  -0.00590   0.00034   0.00012
  41       14F+1        0.00000   0.00000   0.00000   0.00000   0.00000
  42       14F-1        0.00000  -0.00001   0.00029   0.00315  -0.00012
  43       14F+2        0.00000   0.00729  -0.00723   0.00039   0.00022
  44       14F-2        0.00000   0.00000   0.00000   0.00000   0.00000
  45       14F+3        0.00000   0.00000   0.00000   0.00000   0.00000
  46       14F-3        0.00000   0.00005  -0.00017  -0.00294  -0.00003
  47 2   S  1S          0.99624   0.04599   0.04815  -0.00245   0.02720
  48        2S          0.01376  -0.17779  -0.18287   0.00929  -0.10564
  49        3S          0.00032   0.36632   0.39696  -0.02032   0.23643
  50        4S          0.00002   0.04588   0.05447  -0.00283   0.03413
  51        5S         -0.00011   0.19569   0.21076  -0.01107   0.31944
  52        6S          0.00004  -0.01559  -0.02867   0.00159   0.05950
  53        7PX         0.00000   0.00000   0.00000   0.00000   0.00000
  54        7PY         0.00000   0.00014  -0.00179  -0.03952  -0.00531
  55        7PZ         0.00112   0.04185   0.02127  -0.00043  -0.18226
  56        8PX         0.00000   0.00000   0.00000   0.00000   0.00000
  57        8PY         0.00000  -0.00035   0.00407   0.09129   0.01302
  58        8PZ        -0.00015  -0.05469  -0.02837   0.00016   0.38695
  59        9PX         0.00000   0.00000   0.00000   0.00000   0.00000
  60        9PY         0.00000  -0.00014   0.00179   0.03955   0.00548
  61        9PZ         0.00014  -0.02966  -0.01661   0.00027   0.17543
  62       10PX         0.00000   0.00000   0.00000   0.00000   0.00000
  63       10PY         0.00000  -0.00015   0.00122   0.03177   0.00991
  64       10PZ         0.00006   0.01379   0.00684  -0.00069   0.12011
  65       11PX         0.00000   0.00000   0.00000   0.00000   0.00000
  66       11PY         0.00000  -0.00001  -0.00011  -0.00177   0.00096
  67       11PZ         0.00000   0.00606   0.00558  -0.00028  -0.00316
  68       12D 0        0.00006   0.01214   0.00091   0.00014  -0.02878
  69       12D+1        0.00000   0.00000   0.00000   0.00000   0.00000
  70       12D-1        0.00000   0.00016  -0.00116  -0.02228  -0.00008
  71       12D+2       -0.00001   0.00037   0.00143  -0.00007  -0.00053
  72       12D-2        0.00000   0.00000   0.00000   0.00000   0.00000
  73       13D 0        0.00001   0.02236   0.00986  -0.00026  -0.04666
  74       13D+1        0.00000   0.00000   0.00000   0.00000   0.00000
  75       13D-1        0.00000   0.00012  -0.00115  -0.02179  -0.00009
  76       13D+2        0.00001   0.00110   0.00140  -0.00008  -0.00016
  77       13D-2        0.00000   0.00000   0.00000   0.00000   0.00000
  78       14D 0       -0.00004  -0.00887  -0.00475   0.00024   0.00212
  79       14D+1        0.00000   0.00000   0.00000   0.00000   0.00000
  80       14D-1        0.00000   0.00005  -0.00012  -0.00219  -0.00039
  81       14D+2        0.00000  -0.00120  -0.00213   0.00012  -0.00057
  82       14D-2        0.00000   0.00000   0.00000   0.00000   0.00000
  83       15F 0       -0.00002  -0.00780  -0.00490   0.00019   0.01365
  84       15F+1        0.00000   0.00000   0.00000   0.00000   0.00000
  85       15F-1        0.00000  -0.00005   0.00045   0.00860   0.00012
  86       15F+2        0.00000  -0.00041  -0.00042   0.00002   0.00342
  87       15F-2        0.00000   0.00000   0.00000   0.00000   0.00000
  88       15F+3        0.00000   0.00000   0.00000   0.00000   0.00000
  89       15F-3        0.00000   0.00000   0.00003   0.00076   0.00011
  90       16F 0        0.00000   0.00352   0.00272  -0.00011  -0.00441
  91       16F+1        0.00000   0.00000   0.00000   0.00000   0.00000
  92       16F-1        0.00000  -0.00003   0.00004   0.00085   0.00007
  93       16F+2        0.00000  -0.00044  -0.00067   0.00002   0.00062
  94       16F-2        0.00000   0.00000   0.00000   0.00000   0.00000
  95       16F+3        0.00000   0.00000   0.00000   0.00000   0.00000
  96       16F-3        0.00000  -0.00001   0.00004   0.00084   0.00008
  97 3   H  1S          0.00000   0.06810  -0.10896  -0.13390   0.03448
  98        2S          0.00001   0.05038  -0.10906  -0.15058   0.04977
  99        3S          0.00013  -0.03486   0.02119   0.07067   0.01897
 100        4S          0.00001  -0.00031   0.00328   0.00272  -0.00115
 101        5PX         0.00000   0.00000   0.00000   0.00000   0.00000
 102        5PY         0.00000   0.00536  -0.00998  -0.00747   0.00368
 103        5PZ         0.00000   0.00336  -0.00369  -0.00820  -0.00107
 104        6PX         0.00000   0.00000   0.00000   0.00000   0.00000
 105        6PY         0.00000  -0.00393  -0.00116   0.01286   0.00222
 106        6PZ         0.00000  -0.00359   0.00861  -0.00146  -0.00949
 107        7PX         0.00000   0.00000   0.00000   0.00000   0.00000
 108        7PY         0.00001  -0.01074   0.01663   0.02960  -0.00117
 109        7PZ         0.00003  -0.01374   0.00602   0.01222   0.00108
 110        8D 0        0.00000   0.00028   0.00129  -0.00141  -0.00164
 111        8D+1        0.00000   0.00000   0.00000   0.00000   0.00000
 112        8D-1        0.00000   0.00039  -0.00112  -0.00240   0.00000
 113        8D+2        0.00000  -0.00054   0.00158  -0.00001  -0.00080
 114        8D-2        0.00000   0.00000   0.00000   0.00000   0.00000
 115        9D 0        0.00000  -0.00005  -0.00043  -0.00185  -0.00047
 116        9D+1        0.00000   0.00000   0.00000   0.00000   0.00000
 117        9D-1       -0.00001  -0.00384   0.00364   0.00314  -0.00064
 118        9D+2        0.00000   0.00155  -0.00085  -0.00297  -0.00021
 119        9D-2        0.00000   0.00000   0.00000   0.00000   0.00000
 120 4   H  1S          0.00000   0.06556  -0.09231   0.14528   0.03238
 121        2S          0.00001   0.04933  -0.09266   0.16487   0.04693
 122        3S          0.00013  -0.03235   0.01098  -0.07015   0.01198
 123        4S          0.00000  -0.00028   0.00294  -0.00299  -0.00189
 124        5PX         0.00000   0.00000   0.00000   0.00000   0.00000
 125        5PY         0.00000  -0.00517   0.00893  -0.00856  -0.00352
 126        5PZ         0.00000   0.00317  -0.00269   0.00843  -0.00103
 127        6PX         0.00000   0.00000   0.00000   0.00000   0.00000
 128        6PY         0.00000   0.00348   0.00296   0.01202  -0.00247
 129        6PZ         0.00000  -0.00321   0.00847   0.00071  -0.00940
 130        7PX         0.00000   0.00000   0.00000   0.00000   0.00000
 131        7PY        -0.00001   0.01010  -0.01272   0.03137   0.00200
 132        7PZ         0.00003  -0.01322   0.00452  -0.01292   0.00099
 133        8D 0        0.00000   0.00026   0.00142   0.00121  -0.00157
 134        8D+1        0.00000   0.00000   0.00000   0.00000   0.00000
 135        8D-1        0.00000  -0.00037   0.00085  -0.00253  -0.00002
 136        8D+2        0.00000  -0.00052   0.00158  -0.00025  -0.00080
 137        8D-2        0.00000   0.00000   0.00000   0.00000   0.00000
 138        9D 0        0.00000  -0.00001  -0.00017   0.00188  -0.00052
 139        9D+1        0.00000   0.00000   0.00000   0.00000   0.00000
 140        9D-1        0.00001   0.00367  -0.00323   0.00359   0.00070
 141        9D+2        0.00000   0.00146  -0.00044   0.00308  -0.00028
 142        9D-2        0.00000   0.00000   0.00000   0.00000   0.00000
                          11        12        13        14        15
     Eigenvalues --     1.94074   1.89917   0.08404   0.03696   0.02653
   1 1   C  1S         -0.00138   0.00000   0.00000  -0.11174  -0.00438
   2        2S          0.00382   0.00000   0.00000   0.38539   0.01568
   3        3S          0.00095   0.00000   0.00000   0.15560   0.00721
   4        4S          0.00108   0.00000   0.00000   0.16206   0.00786
   5        5S         -0.00042   0.00000   0.00000   0.09765  -0.00045
   6        6PX         0.00000   0.19016  -0.30171   0.00000   0.00000
   7        6PY        -0.04063   0.00000   0.00000   0.00058   0.26537
   8        6PZ         0.00447   0.00000   0.00000   0.27276  -0.00890
   9        7PX         0.00000   0.26567  -0.45894   0.00000   0.00000
  10        7PY        -0.05378   0.00000   0.00000   0.00310   0.62030
  11        7PZ         0.00588   0.00000   0.00000   0.52755  -0.01458
  12        8PX         0.00000   0.17846  -0.20518   0.00000   0.00000
  13        8PY        -0.00405   0.00000   0.00000   0.00371   0.17326
  14        8PZ         0.00341   0.00000   0.00000   0.47902  -0.00762
  15        9PX         0.00000   0.01317  -0.00559   0.00000   0.00000
  16        9PY        -0.00215   0.00000   0.00000   0.00025  -0.00639
  17        9PZ         0.00021   0.00000   0.00000   0.03807  -0.00073
  18       10D 0        0.00030   0.00000   0.00000   0.00400   0.00002
  19       10D+1        0.00000   0.01138  -0.00312   0.00000   0.00000
  20       10D-1        0.01841   0.00000   0.00000  -0.00012   0.06860
  21       10D+2        0.00010   0.00000   0.00000   0.00233   0.00039
  22       10D-2        0.00000  -0.00002   0.00005   0.00000   0.00000
  23       11D 0        0.00037   0.00000   0.00000   0.09528  -0.00290
  24       11D+1        0.00000   0.03285  -0.03730   0.00000   0.00000
  25       11D-1        0.03601   0.00000   0.00000  -0.00135   0.04242
  26       11D+2        0.00029   0.00000   0.00000   0.05622  -0.00124
  27       11D-2        0.00000  -0.00003   0.00003   0.00000   0.00000
  28       12D 0       -0.00037   0.00000   0.00000   0.08117  -0.00137
  29       12D+1        0.00000   0.01116  -0.01456   0.00000   0.00000
  30       12D-1       -0.02239   0.00000   0.00000  -0.00116  -0.01913
  31       12D+2       -0.00011   0.00000   0.00000   0.03399  -0.00105
  32       12D-2        0.00000  -0.00020   0.00009   0.00000   0.00000
  33       13F 0        0.00013   0.00000   0.00000   0.01344  -0.00007
  34       13F+1        0.00000   0.00633  -0.00593   0.00000   0.00000
  35       13F-1        0.00446   0.00000   0.00000   0.00004   0.03262
  36       13F+2       -0.00001   0.00000   0.00000   0.00234   0.00062
  37       13F-2        0.00000   0.00000   0.00000   0.00000   0.00000
  38       13F+3        0.00000   0.00030   0.00013   0.00000   0.00000
  39       13F-3        0.00144   0.00000   0.00000  -0.00006  -0.00404
  40       14F 0       -0.00002   0.00000   0.00000  -0.00561   0.00029
  41       14F+1        0.00000   0.00122  -0.01599   0.00000   0.00000
  42       14F-1        0.00088   0.00000   0.00000   0.00018   0.06701
  43       14F+2       -0.00001   0.00000   0.00000  -0.03502   0.00092
  44       14F-2        0.00000  -0.00002  -0.00005   0.00000   0.00000
  45       14F+3        0.00000   0.00062  -0.00499   0.00000   0.00000
  46       14F-3       -0.00054   0.00000   0.00000  -0.00008   0.00356
  47 2   S  1S         -0.00058   0.00000   0.00000  -0.02427   0.00008
  48        2S          0.00227   0.00000   0.00000   0.07021  -0.00014
  49        3S         -0.00505   0.00000   0.00000  -0.24980   0.00095
  50        4S         -0.00072   0.00000   0.00000   0.00107  -0.00034
  51        5S         -0.00687   0.00000   0.00000  -0.77496   0.01010
  52        6S         -0.00136   0.00000   0.00000  -0.26411   0.00443
  53        7PX         0.00000  -0.17466  -0.20032   0.00000   0.00000
  54        7PY        -0.21543   0.00000   0.00000   0.00013   0.08424
  55        7PZ         0.00444   0.00000   0.00000  -0.19480  -0.00020
  56        8PX         0.00000   0.39382   0.53013   0.00000   0.00000
  57        8PY         0.52589   0.00000   0.00000  -0.00035  -0.23994
  58        8PZ        -0.00945   0.00000   0.00000   0.74068  -0.00349
  59        9PX         0.00000   0.15983   0.20748   0.00000   0.00000
  60        9PY         0.22263   0.00000   0.00000  -0.00020  -0.12727
  61        9PZ        -0.00428   0.00000   0.00000   0.21021   0.00053
  62       10PX         0.00000   0.20850   0.16210   0.00000   0.00000
  63       10PY         0.40527   0.00000   0.00000   0.00088   0.09110
  64       10PZ        -0.00302   0.00000   0.00000   0.49290  -0.00738
  65       11PX         0.00000   0.00449   0.00189   0.00000   0.00000
  66       11PY         0.04153   0.00000   0.00000   0.00010   0.02508
  67       11PZ         0.00004   0.00000   0.00000   0.03310  -0.00062
  68       12D 0        0.00068   0.00000   0.00000   0.09914   0.00069
  69       12D+1        0.00000  -0.03655   0.03884   0.00000   0.00000
  70       12D-1        0.00261   0.00000   0.00000  -0.00026  -0.27982
  71       12D+2        0.00003   0.00000   0.00000   0.08717   0.00125
  72       12D-2        0.00000   0.00001   0.00004   0.00000   0.00000
  73       13D 0        0.00114   0.00000   0.00000   0.16427  -0.00107
  74       13D+1        0.00000  -0.03494   0.05168   0.00000   0.00000
  75       13D-1       -0.00031   0.00000   0.00000  -0.00014  -0.24522
  76       13D+2        0.00002   0.00000   0.00000   0.05465   0.00092
  77       13D-2        0.00000   0.00000   0.00001   0.00000   0.00000
  78       14D 0       -0.00008   0.00000   0.00000  -0.06702   0.00140
  79       14D+1        0.00000  -0.00378  -0.01891   0.00000   0.00000
  80       14D-1       -0.01332   0.00000   0.00000  -0.00029  -0.03040
  81       14D+2        0.00004   0.00000   0.00000   0.01424   0.00004
  82       14D-2        0.00000   0.00005   0.00000   0.00000   0.00000
  83       15F 0       -0.00033   0.00000   0.00000  -0.01849   0.00004
  84       15F+1        0.00000   0.01081  -0.01558   0.00000   0.00000
  85       15F-1        0.00366   0.00000   0.00000   0.00003   0.03125
  86       15F+2       -0.00009   0.00000   0.00000  -0.00454  -0.00032
  87       15F-2        0.00000   0.00000  -0.00001   0.00000   0.00000
  88       15F+3        0.00000   0.00380   0.00230   0.00000   0.00000
  89       15F-3        0.00444   0.00000   0.00000   0.00000   0.00348
  90       16F 0        0.00012   0.00000   0.00000   0.01042  -0.00065
  91       16F+1        0.00000  -0.00082   0.00503   0.00000   0.00000
  92       16F-1        0.00196   0.00000   0.00000   0.00007   0.00108
  93       16F+2       -0.00003   0.00000   0.00000  -0.01209  -0.00011
  94       16F-2        0.00000  -0.00002  -0.00002   0.00000   0.00000
  95       16F+3        0.00000   0.00241   0.00280   0.00000   0.00000
  96       16F-3        0.00332   0.00000   0.00000   0.00001   0.00211
  97 3   H  1S          0.05121   0.00000   0.00000  -0.03277   0.17144
  98        2S          0.08861   0.00000   0.00000   0.09155   0.55165
  99        3S          0.16186   0.00000   0.00000   0.26791   0.28554
 100        4S          0.01593   0.00000   0.00000   0.01237   0.01130
 101        5PX         0.00000   0.00425  -0.01017   0.00000   0.00000
 102        5PY         0.00256   0.00000   0.00000  -0.00707   0.00681
 103        5PZ         0.00051   0.00000   0.00000   0.00545  -0.01309
 104        6PX         0.00000   0.01442  -0.01678   0.00000   0.00000
 105        6PY        -0.00045   0.00000   0.00000   0.02341   0.15045
 106        6PZ        -0.00183   0.00000   0.00000   0.03831   0.01972
 107        7PX         0.00000   0.00253   0.00875   0.00000   0.00000
 108        7PY         0.01922   0.00000   0.00000   0.04269   0.07159
 109        7PZ        -0.00130   0.00000   0.00000   0.06357   0.00769
 110        8D 0       -0.00089   0.00000   0.00000   0.00254  -0.01094
 111        8D+1        0.00000   0.00138  -0.00289   0.00000   0.00000
 112        8D-1        0.00006   0.00000   0.00000   0.00263  -0.00411
 113        8D+2       -0.00054   0.00000   0.00000   0.00192  -0.00768
 114        8D-2        0.00000   0.00145  -0.00486   0.00000   0.00000
 115        9D 0       -0.00083   0.00000   0.00000   0.00184  -0.00473
 116        9D+1        0.00000   0.00030  -0.00058   0.00000   0.00000
 117        9D-1       -0.00047   0.00000   0.00000   0.01168   0.02851
 118        9D+2        0.00064   0.00000   0.00000   0.00132  -0.02312
 119        9D-2        0.00000   0.00280   0.00386   0.00000   0.00000
 120 4   H  1S         -0.05329   0.00000   0.00000  -0.03286  -0.18471
 121        2S         -0.09218   0.00000   0.00000   0.08380  -0.58746
 122        3S         -0.16343   0.00000   0.00000   0.25431  -0.30495
 123        4S         -0.01585   0.00000   0.00000   0.01158  -0.01218
 124        5PX         0.00000   0.00417  -0.00994   0.00000   0.00000
 125        5PY         0.00275   0.00000   0.00000   0.00690   0.00593
 126        5PZ        -0.00045   0.00000   0.00000   0.00542   0.01251
 127        6PX         0.00000   0.01431  -0.01696   0.00000   0.00000
 128        6PY        -0.00025   0.00000   0.00000  -0.02198   0.15395
 129        6PZ         0.00229   0.00000   0.00000   0.03694  -0.02312
 130        7PX         0.00000   0.00288   0.00832   0.00000   0.00000
 131        7PY         0.01899   0.00000   0.00000  -0.04046   0.07447
 132        7PZ         0.00088   0.00000   0.00000   0.06202  -0.01028
 133        8D 0        0.00097   0.00000   0.00000   0.00248   0.01040
 134        8D+1        0.00000   0.00135  -0.00282   0.00000   0.00000
 135        8D-1        0.00007   0.00000   0.00000  -0.00261  -0.00403
 136        8D+2        0.00059   0.00000   0.00000   0.00195   0.00751
 137        8D-2        0.00000  -0.00144   0.00482   0.00000   0.00000
 138        9D 0        0.00082   0.00000   0.00000   0.00188   0.00504
 139        9D+1        0.00000   0.00036  -0.00064   0.00000   0.00000
 140        9D-1       -0.00051   0.00000   0.00000  -0.01135   0.02891
 141        9D+2       -0.00066   0.00000   0.00000   0.00146   0.02390
 142        9D-2        0.00000  -0.00282  -0.00363   0.00000   0.00000
                          16        17        18        19        20
     Eigenvalues --     0.02047   0.01796   0.01700   0.01600   0.01328
   1 1   C  1S         -0.14863   0.00000   0.08434   0.00735   0.00000
   2        2S          0.57158   0.00000  -0.32072  -0.02826   0.00000
   3        3S          0.30519   0.00000  -0.18648  -0.01754   0.00000
   4        4S          0.15654   0.00000  -0.32555  -0.02095   0.00000
   5        5S         -0.02841   0.00000  -0.08535  -0.00315   0.00000
   6        6PX         0.00000  -0.00005   0.00000   0.00000   0.08601
   7        6PY         0.00354   0.00000  -0.01281   0.45116   0.00000
   8        6PZ        -0.31069   0.00000   0.02018   0.00994   0.00000
   9        7PX         0.00000   0.00045   0.00000   0.00000   0.10857
  10        7PY         0.00610   0.00000  -0.02350   0.77565   0.00000
  11        7PZ        -0.55049   0.00000  -0.03719   0.01390   0.00000
  12        8PX         0.00000   0.00021   0.00000   0.00000   0.04471
  13        8PY         0.01030   0.00000  -0.01634   0.54923   0.00000
  14        8PZ        -0.27358   0.00000   0.01620   0.01061   0.00000
  15        9PX         0.00000  -0.00002   0.00000   0.00000  -0.01035
  16        9PY         0.00070   0.00000  -0.00055   0.03032   0.00000
  17        9PZ        -0.02601   0.00000  -0.01012   0.00058   0.00000
  18       10D 0       -0.00395   0.00000   0.00505   0.00070   0.00000
  19       10D+1        0.00000  -0.00004   0.00000   0.00000  -0.14642
  20       10D-1       -0.00507   0.00000   0.00341  -0.08703   0.00000
  21       10D+2        0.03117   0.00000   0.03859   0.00020   0.00000
  22       10D-2        0.00000   0.04325   0.00000   0.00000  -0.00012
  23       11D 0       -0.05763   0.00000   0.01709   0.00190   0.00000
  24       11D+1        0.00000  -0.00033   0.00000   0.00000  -0.26596
  25       11D-1       -0.01336   0.00000   0.01220  -0.33407   0.00000
  26       11D+2        0.03440   0.00000   0.10638   0.00153   0.00000
  27       11D-2        0.00000   0.08531   0.00000   0.00000   0.00080
  28       12D 0       -0.06131   0.00000  -0.02447   0.00153   0.00000
  29       12D+1        0.00000  -0.00022   0.00000   0.00000  -0.04387
  30       12D-1       -0.00263   0.00000   0.00261  -0.06793   0.00000
  31       12D+2       -0.04821   0.00000   0.01749   0.00220   0.00000
  32       12D-2        0.00000   0.00778   0.00000   0.00000   0.00024
  33       13F 0       -0.01571   0.00000   0.00264   0.00071   0.00000
  34       13F+1        0.00000   0.00004   0.00000   0.00000  -0.05011
  35       13F-1       -0.00153   0.00000   0.00072  -0.02213   0.00000
  36       13F+2        0.01774   0.00000   0.02262   0.00038   0.00000
  37       13F-2        0.00000   0.02533   0.00000   0.00000  -0.00007
  38       13F+3        0.00000  -0.00010   0.00000   0.00000  -0.01088
  39       13F-3       -0.00063   0.00000   0.00068  -0.01953   0.00000
  40       14F 0       -0.01020   0.00000  -0.02166  -0.00005   0.00000
  41       14F+1        0.00000   0.00008   0.00000   0.00000  -0.02984
  42       14F-1       -0.00315   0.00000   0.00081   0.00004   0.00000
  43       14F+2        0.02649   0.00000  -0.01009  -0.00109   0.00000
  44       14F-2        0.00000   0.01973   0.00000   0.00000  -0.00032
  45       14F+3        0.00000   0.00001   0.00000   0.00000  -0.00302
  46       14F-3       -0.00164   0.00000   0.00174  -0.04877   0.00000
  47 2   S  1S          0.00170   0.00000   0.00489   0.00014   0.00000
  48        2S         -0.00421   0.00000  -0.04182  -0.00132   0.00000
  49        3S          0.02174   0.00000   0.01222   0.00016   0.00000
  50        4S         -0.01071   0.00000   0.04077   0.00159   0.00000
  51        5S          0.39318   0.00000   0.14110  -0.00775   0.00000
  52        6S          0.17103   0.00000   0.09888  -0.00186   0.00000
  53        7PX         0.00000  -0.00003   0.00000   0.00000   0.03393
  54        7PY        -0.00186   0.00000  -0.00048   0.03510   0.00000
  55        7PZ        -0.01686   0.00000   0.04845   0.00248   0.00000
  56        8PX         0.00000   0.00000   0.00000   0.00000   0.00184
  57        8PY         0.00747   0.00000  -0.00077  -0.03464   0.00000
  58        8PZ        -0.11660   0.00000  -0.16063  -0.00277   0.00000
  59        9PX         0.00000   0.00006   0.00000   0.00000  -0.06245
  60        9PY         0.00306   0.00000   0.00061  -0.05325   0.00000
  61        9PZ         0.03564   0.00000  -0.05897  -0.00362   0.00000
  62       10PX         0.00000   0.00009   0.00000   0.00000   0.19896
  63       10PY        -0.00151   0.00000  -0.00078   0.04031   0.00000
  64       10PZ        -0.29392   0.00000  -0.07727   0.00689   0.00000
  65       11PX         0.00000   0.00002   0.00000   0.00000   0.02055
  66       11PY         0.00000   0.00000  -0.00083   0.02953   0.00000
  67       11PZ        -0.02577   0.00000  -0.01200   0.00040   0.00000
  68       12D 0        0.03837   0.00000   0.13379   0.00410   0.00000
  69       12D+1        0.00000  -0.00001   0.00000   0.00000   0.44549
  70       12D-1        0.01744   0.00000  -0.01365   0.40826   0.00000
  71       12D+2        0.13993   0.00000   0.57076   0.01408   0.00000
  72       12D-2        0.00000   0.59561   0.00000   0.00000  -0.00001
  73       13D 0       -0.03779   0.00000   0.06129   0.00368   0.00000
  74       13D+1        0.00000   0.00000   0.00000   0.00000   0.42934
  75       13D-1        0.01496   0.00000  -0.01048   0.29593   0.00000
  76       13D+2        0.10158   0.00000   0.41286   0.01020   0.00000
  77       13D-2        0.00000   0.44179   0.00000   0.00000  -0.00005
  78       14D 0        0.06229   0.00000   0.04133  -0.00056   0.00000
  79       14D+1        0.00000  -0.00007   0.00000   0.00000  -0.06814
  80       14D-1        0.00162   0.00000  -0.00177   0.06071   0.00000
  81       14D+2        0.01475   0.00000   0.04573   0.00094   0.00000
  82       14D-2        0.00000   0.04845   0.00000   0.00000  -0.00003
  83       15F 0        0.00117   0.00000   0.00361   0.00000   0.00000
  84       15F+1        0.00000  -0.00003   0.00000   0.00000  -0.05989
  85       15F-1       -0.00096   0.00000   0.00011   0.00381   0.00000
  86       15F+2       -0.01451   0.00000  -0.02110  -0.00021   0.00000
  87       15F-2        0.00000  -0.00733   0.00000   0.00000  -0.00005
  88       15F+3        0.00000  -0.00001   0.00000   0.00000  -0.02173
  89       15F-3       -0.00017   0.00000   0.00010  -0.00174   0.00000
  90       16F 0       -0.02804   0.00000  -0.01924   0.00003   0.00000
  91       16F+1        0.00000   0.00003   0.00000   0.00000   0.02652
  92       16F-1       -0.00010   0.00000   0.00059  -0.02581   0.00000
  93       16F+2       -0.00792   0.00000  -0.02574  -0.00061   0.00000
  94       16F-2        0.00000  -0.01130   0.00000   0.00000  -0.00008
  95       16F+3        0.00000   0.00002   0.00000   0.00000  -0.00911
  96       16F-3        0.00002   0.00000  -0.00010   0.00128   0.00000
  97 3   H  1S         -0.24188   0.00000   0.06073   0.08550   0.00000
  98        2S         -0.59979   0.00000   0.20136   0.74908   0.00000
  99        3S         -0.28293   0.00000   0.09028   0.75657   0.00000
 100        4S         -0.01113   0.00000   0.00073   0.05135   0.00000
 101        5PX         0.00000  -0.00915   0.00000   0.00000   0.02596
 102        5PY         0.01720   0.00000  -0.00914  -0.03422   0.00000
 103        5PZ        -0.00463   0.00000  -0.01133  -0.02033   0.00000
 104        6PX         0.00000  -0.01373   0.00000   0.00000   0.03854
 105        6PY        -0.05657   0.00000  -0.00321   0.10481   0.00000
 106        6PZ        -0.03811   0.00000   0.00817   0.07225   0.00000
 107        7PX         0.00000  -0.00134   0.00000   0.00000  -0.00923
 108        7PY        -0.01960   0.00000   0.01529   0.12423   0.00000
 109        7PZ        -0.04298   0.00000  -0.01011   0.08073   0.00000
 110        8D 0       -0.00721   0.00000   0.00111   0.00436   0.00000
 111        8D+1        0.00000  -0.00326   0.00000   0.00000   0.00255
 112        8D-1        0.00598   0.00000  -0.00517  -0.00955   0.00000
 113        8D+2       -0.00593   0.00000   0.00540   0.01051   0.00000
 114        8D-2        0.00000  -0.00777   0.00000   0.00000   0.01649
 115        9D 0        0.00327   0.00000   0.00317  -0.00787   0.00000
 116        9D+1        0.00000   0.00211   0.00000   0.00000  -0.00183
 117        9D-1       -0.00011   0.00000  -0.00069   0.00455   0.00000
 118        9D+2        0.00965   0.00000   0.00998  -0.00313   0.00000
 119        9D-2        0.00000  -0.00021   0.00000   0.00000  -0.00485
 120 4   H  1S         -0.23436   0.00000   0.06393  -0.06965   0.00000
 121        2S         -0.60750   0.00000   0.24433  -0.69560   0.00000
 122        3S         -0.30887   0.00000   0.13430  -0.72568   0.00000
 123        4S         -0.01286   0.00000   0.00314  -0.05029   0.00000
 124        5PX         0.00000   0.00898   0.00000   0.00000   0.02543
 125        5PY        -0.01840   0.00000   0.01112  -0.03203   0.00000
 126        5PZ        -0.00481   0.00000  -0.01215   0.01895   0.00000
 127        6PX         0.00000   0.01346   0.00000   0.00000   0.03778
 128        6PY         0.05629   0.00000  -0.00403   0.10266   0.00000
 129        6PZ        -0.04360   0.00000   0.01348  -0.06977   0.00000
 130        7PX         0.00000   0.00097   0.00000   0.00000  -0.00944
 131        7PY         0.02471   0.00000  -0.02301   0.12287   0.00000
 132        7PZ        -0.04696   0.00000  -0.00519  -0.07725   0.00000
 133        8D 0       -0.00805   0.00000   0.00152  -0.00397   0.00000
 134        8D+1        0.00000   0.00319   0.00000   0.00000   0.00250
 135        8D-1       -0.00532   0.00000   0.00549  -0.00824   0.00000
 136        8D+2       -0.00651   0.00000   0.00604  -0.00960   0.00000
 137        8D-2        0.00000  -0.00769   0.00000   0.00000  -0.01617
 138        9D 0        0.00356   0.00000   0.00253   0.00810   0.00000
 139        9D+1        0.00000  -0.00206   0.00000   0.00000  -0.00206
 140        9D-1       -0.00022   0.00000   0.00017   0.00534   0.00000
 141        9D+2        0.00911   0.00000   0.00959   0.00389   0.00000
 142        9D-2        0.00000   0.00002   0.00000   0.00000   0.00511
                          21        22        23        24        25
     Eigenvalues --     0.01199   0.01025   0.00819   0.00670   0.00645
   1 1   C  1S         -0.01154   0.00055  -0.03458   0.00000   0.00000
   2        2S          0.01253  -0.00311   0.12206   0.00000   0.00000
   3        3S         -0.00104  -0.00291   0.11729   0.00000   0.00000
   4        4S          0.11847   0.02138  -0.10031   0.00000   0.00000
   5        5S          0.06497   0.00390  -0.04075   0.00000   0.00000
   6        6PX         0.00000   0.00000   0.00000   0.39166   0.01406
   7        6PY         0.00177   0.14379   0.00163   0.00000   0.00000
   8        6PZ         0.11510   0.00167  -0.12788   0.00000   0.00000
   9        7PX         0.00000   0.00000   0.00000   0.45915   0.01926
  10        7PY         0.00320   0.42058   0.00252   0.00000   0.00000
  11        7PZ         0.26064   0.00269  -0.11865   0.00000   0.00000
  12        8PX         0.00000   0.00000   0.00000  -0.18782  -0.00549
  13        8PY        -0.00470  -1.09908  -0.01084   0.00000   0.00000
  14        8PZ        -0.27943  -0.00484   0.36682   0.00000   0.00000
  15        9PX         0.00000   0.00000   0.00000  -0.01104  -0.00056
  16        9PY        -0.00055  -0.10559  -0.00060   0.00000   0.00000
  17        9PZ        -0.01241  -0.00029   0.00619   0.00000   0.00000
  18       10D 0       -0.18655   0.00017  -0.09154   0.00000   0.00000
  19       10D+1        0.00000   0.00000   0.00000   0.08126   0.00363
  20       10D-1       -0.00011  -0.02903   0.00038   0.00000   0.00000
  21       10D+2        0.00773   0.00054  -0.15531   0.00000   0.00000
  22       10D-2        0.00000   0.00000   0.00000  -0.01133   0.30570
  23       11D 0       -0.28670   0.00099  -0.22411   0.00000   0.00000
  24       11D+1        0.00000   0.00000   0.00000   0.10916   0.00264
  25       11D-1        0.00031  -0.28080   0.00082   0.00000   0.00000
  26       11D+2        0.05801   0.00045  -0.31251   0.00000   0.00000
  27       11D-2        0.00000   0.00000   0.00000  -0.01821   0.45990
  28       12D 0       -0.06841   0.00170   0.16044   0.00000   0.00000
  29       12D+1        0.00000   0.00000   0.00000   0.07015   0.00229
  30       12D-1       -0.00086   0.15833   0.00354   0.00000   0.00000
  31       12D+2       -0.04220   0.00206   0.08986   0.00000   0.00000
  32       12D-2        0.00000   0.00000   0.00000  -0.00083   0.04120
  33       13F 0       -0.04586   0.00024   0.01239   0.00000   0.00000
  34       13F+1        0.00000   0.00000   0.00000   0.06415   0.00242
  35       13F-1       -0.00013   0.05006  -0.00002   0.00000   0.00000
  36       13F+2        0.00181   0.00010   0.01779   0.00000   0.00000
  37       13F-2        0.00000   0.00000   0.00000   0.00128  -0.02532
  38       13F+3        0.00000   0.00000   0.00000  -0.02202  -0.00136
  39       13F-3       -0.00013  -0.01057  -0.00017   0.00000   0.00000
  40       14F 0       -0.05555   0.00007   0.01450   0.00000   0.00000
  41       14F+1        0.00000   0.00000   0.00000  -0.00157   0.00014
  42       14F-1       -0.00169  -0.15060  -0.00234   0.00000   0.00000
  43       14F+2        0.01356   0.00017   0.01346   0.00000   0.00000
  44       14F-2        0.00000   0.00000   0.00000  -0.00223   0.07812
  45       14F+3        0.00000   0.00000   0.00000  -0.01902  -0.00115
  46       14F-3       -0.00033  -0.01903  -0.00056   0.00000   0.00000
  47 2   S  1S         -0.03307  -0.00021   0.06201   0.00000   0.00000
  48        2S          0.13345   0.00063  -0.22406   0.00000   0.00000
  49        3S         -0.34038  -0.00279   0.77092   0.00000   0.00000
  50        4S         -0.20214  -0.00135   0.53481   0.00000   0.00000
  51        5S          0.69440   0.00047  -1.33981   0.00000   0.00000
  52        6S          0.17808  -0.00070  -0.16195   0.00000   0.00000
  53        7PX         0.00000   0.00000   0.00000  -0.20342  -0.00788
  54        7PY         0.00024  -0.32082  -0.00155   0.00000   0.00000
  55        7PZ        -0.12915   0.00034  -0.08983   0.00000   0.00000
  56        8PX         0.00000   0.00000   0.00000   0.34101   0.01303
  57        8PY         0.00052   0.59925   0.00327   0.00000   0.00000
  58        8PZ         0.12342   0.00124  -0.02676   0.00000   0.00000
  59        9PX         0.00000   0.00000   0.00000   0.37624   0.01469
  60        9PY        -0.00048   0.60768   0.00310   0.00000   0.00000
  61        9PZ         0.20639  -0.00072   0.17358   0.00000   0.00000
  62       10PX         0.00000   0.00000   0.00000  -0.82064  -0.03196
  63       10PY         0.00226  -0.86317  -0.00599   0.00000   0.00000
  64       10PZ        -0.40020   0.00216  -0.03054   0.00000   0.00000
  65       11PX         0.00000   0.00000   0.00000  -0.02641  -0.00094
  66       11PY         0.00032  -0.09896  -0.00056   0.00000   0.00000
  67       11PZ        -0.03726   0.00033  -0.00308   0.00000   0.00000
  68       12D 0       -0.35916  -0.00097   0.03651   0.00000   0.00000
  69       12D+1        0.00000   0.00000   0.00000   0.22515   0.00844
  70       12D-1       -0.00027  -0.28469  -0.00062   0.00000   0.00000
  71       12D+2        0.06153  -0.00048   0.13524   0.00000   0.00000
  72       12D-2        0.00000   0.00000   0.00000   0.00654  -0.17952
  73       13D 0       -0.35012   0.00004  -0.01754   0.00000   0.00000
  74       13D+1        0.00000   0.00000   0.00000   0.09872   0.00385
  75       13D-1        0.00024  -0.07580   0.00038   0.00000   0.00000
  76       13D+2        0.05607  -0.00004   0.04038   0.00000   0.00000
  77       13D-2        0.00000   0.00000   0.00000   0.00537  -0.14660
  78       14D 0        0.09340  -0.00057  -0.01157   0.00000   0.00000
  79       14D+1        0.00000   0.00000   0.00000   0.15921   0.00618
  80       14D-1       -0.00056   0.03642   0.00101   0.00000   0.00000
  81       14D+2       -0.00052  -0.00049   0.01359   0.00000   0.00000
  82       14D-2        0.00000   0.00000   0.00000   0.00044  -0.01974
  83       15F 0        0.06357   0.00008   0.00786   0.00000   0.00000
  84       15F+1        0.00000   0.00000   0.00000   0.08123   0.00332
  85       15F-1        0.00022   0.00486   0.00038   0.00000   0.00000
  86       15F+2        0.00201  -0.00004   0.00967   0.00000   0.00000
  87       15F-2        0.00000   0.00000   0.00000   0.00339  -0.09732
  88       15F+3        0.00000   0.00000   0.00000  -0.06203  -0.00241
  89       15F-3        0.00002  -0.01443  -0.00011   0.00000   0.00000
  90       16F 0        0.00494   0.00036   0.00742   0.00000   0.00000
  91       16F+1        0.00000   0.00000   0.00000  -0.08116  -0.00290
  92       16F-1        0.00013   0.04055   0.00002   0.00000   0.00000
  93       16F+2        0.00033   0.00015   0.00827   0.00000   0.00000
  94       16F-2        0.00000   0.00000   0.00000  -0.00024   0.01111
  95       16F+3        0.00000   0.00000   0.00000  -0.01436  -0.00054
  96       16F-3        0.00002   0.01745   0.00013   0.00000   0.00000
  97 3   H  1S          0.00963   0.01584   0.14359   0.00000   0.00000
  98        2S          0.05651   0.26149  -0.10538   0.00000   0.00000
  99        3S         -0.30759  -1.36394   0.11283   0.00000   0.00000
 100        4S         -0.02099  -0.12690   0.00396   0.00000   0.00000
 101        5PX         0.00000   0.00000   0.00000   0.00251  -0.09424
 102        5PY        -0.01831  -0.01454   0.02359   0.00000   0.00000
 103        5PZ         0.02936  -0.00504   0.06120   0.00000   0.00000
 104        6PX         0.00000   0.00000   0.00000  -0.08554  -0.20985
 105        6PY        -0.00754   0.08202  -0.01876   0.00000   0.00000
 106        6PZ         0.07237   0.15481   0.03380   0.00000   0.00000
 107        7PX         0.00000   0.00000   0.00000  -0.02162  -0.01561
 108        7PY        -0.03074  -0.25058  -0.03574   0.00000   0.00000
 109        7PZ        -0.05038  -0.10242   0.11125   0.00000   0.00000
 110        8D 0        0.01283  -0.00172   0.01334   0.00000   0.00000
 111        8D+1        0.00000   0.00000   0.00000   0.00353  -0.03483
 112        8D-1        0.01197  -0.00142   0.02077   0.00000   0.00000
 113        8D+2        0.01346  -0.00012  -0.00615   0.00000   0.00000
 114        8D-2        0.00000   0.00000   0.00000  -0.00265  -0.05056
 115        9D 0       -0.00587   0.00492   0.00091   0.00000   0.00000
 116        9D+1        0.00000   0.00000   0.00000  -0.04063   0.01082
 117        9D-1        0.01923   0.05122   0.00754   0.00000   0.00000
 118        9D+2       -0.00410  -0.02273  -0.01089   0.00000   0.00000
 119        9D-2        0.00000   0.00000   0.00000  -0.02764  -0.02449
 120 4   H  1S          0.00920  -0.01699   0.14220   0.00000   0.00000
 121        2S          0.05190  -0.25838  -0.10017   0.00000   0.00000
 122        3S         -0.30075   1.34953   0.14126   0.00000   0.00000
 123        4S         -0.02015   0.12615   0.00532   0.00000   0.00000
 124        5PX         0.00000   0.00000   0.00000  -0.00470   0.09293
 125        5PY         0.01728  -0.01392  -0.02435   0.00000   0.00000
 126        5PZ         0.02932   0.00399   0.06081   0.00000   0.00000
 127        6PX         0.00000   0.00000   0.00000  -0.09855   0.20268
 128        6PY         0.00675   0.08248   0.01680   0.00000   0.00000
 129        6PZ         0.06974  -0.15483   0.03227   0.00000   0.00000
 130        7PX         0.00000   0.00000   0.00000  -0.02330   0.01358
 131        7PY         0.02963  -0.24804   0.02728   0.00000   0.00000
 132        7PZ        -0.04867   0.10047   0.11120   0.00000   0.00000
 133        8D 0        0.01252   0.00150   0.01302   0.00000   0.00000
 134        8D+1        0.00000   0.00000   0.00000   0.00085   0.03453
 135        8D-1       -0.01215  -0.00076  -0.02114   0.00000   0.00000
 136        8D+2        0.01301   0.00034  -0.00641   0.00000   0.00000
 137        8D-2        0.00000   0.00000   0.00000   0.00631  -0.05037
 138        9D 0       -0.00632  -0.00475   0.00009   0.00000   0.00000
 139        9D+1        0.00000   0.00000   0.00000  -0.03895  -0.01362
 140        9D-1       -0.01844   0.05247  -0.00681   0.00000   0.00000
 141        9D+2       -0.00431   0.02305  -0.01102   0.00000   0.00000
 142        9D-2        0.00000   0.00000   0.00000   0.02861  -0.02209
                          26        27        28        29        30
     Eigenvalues --     0.00601   0.00488   0.00464   0.00354   0.00235
   1 1   C  1S          0.03528  -0.00067   0.13081   0.00000  -0.01368
   2        2S         -0.11659   0.00161  -0.52457   0.00000   0.07527
   3        3S         -0.12034   0.00175  -0.42203   0.00000   0.03718
   4        4S          0.34227   0.02393  -0.79417   0.00000   0.92384
   5        5S          0.08943   0.00763  -0.38325   0.00000   0.28787
   6        6PX         0.00000   0.00000   0.00000   0.12423   0.00000
   7        6PY         0.00015  -0.05883  -0.00061   0.00000   0.00034
   8        6PZ         0.21796   0.00202  -0.39273   0.00000   0.04024
   9        7PX         0.00000   0.00000   0.00000   0.11368   0.00000
  10        7PY         0.00166   0.08828  -0.00022   0.00000  -0.00548
  11        7PZ         0.27512   0.00242  -0.46954   0.00000   0.11908
  12        8PX         0.00000   0.00000   0.00000   0.43389   0.00000
  13        8PY         0.00831   0.30582  -0.00144   0.00000   0.03122
  14        8PZ         0.61927   0.00071  -0.23002   0.00000  -0.08102
  15        9PX         0.00000   0.00000   0.00000   0.02196   0.00000
  16        9PY         0.00050   0.00523   0.00015   0.00000   0.00090
  17        9PZ         0.04615   0.00035  -0.09329   0.00000   0.01257
  18       10D 0        0.01860   0.00148  -0.18625   0.00000   0.06963
  19       10D+1        0.00000   0.00000   0.00000   0.32549   0.00000
  20       10D-1       -0.00170   0.27413   0.00049   0.00000  -0.00320
  21       10D+2        0.20080   0.00202   0.05950   0.00000  -0.16261
  22       10D-2        0.00000   0.00000   0.00000   0.00057   0.00000
  23       11D 0        0.10830   0.00166  -0.36595   0.00000   0.05502
  24       11D+1        0.00000   0.00000   0.00000   0.60515   0.00000
  25       11D-1       -0.00496   0.56545   0.00290   0.00000  -0.00190
  26       11D+2        0.44058   0.00167   0.07290   0.00000  -0.36616
  27       11D-2        0.00000   0.00000   0.00000  -0.00144   0.00000
  28       12D 0        0.19857   0.00119   0.19560   0.00000  -0.26433
  29       12D+1        0.00000   0.00000   0.00000   0.13072   0.00000
  30       12D-1       -0.00430   0.36189   0.00285   0.00000  -0.01051
  31       12D+2        0.11072  -0.00060   0.10419   0.00000  -0.28858
  32       12D-2        0.00000   0.00000   0.00000  -0.00096   0.00000
  33       13F 0       -0.02979  -0.00012  -0.06141   0.00000  -0.10299
  34       13F+1        0.00000   0.00000   0.00000  -0.01415   0.00000
  35       13F-1        0.00056  -0.05953  -0.00054   0.00000  -0.00167
  36       13F+2       -0.01676   0.00022  -0.02839   0.00000  -0.19471
  37       13F-2        0.00000   0.00000   0.00000  -0.00011   0.00000
  38       13F+3        0.00000   0.00000   0.00000   0.05939   0.00000
  39       13F-3        0.00003   0.01133  -0.00020   0.00000   0.00096
  40       14F 0       -0.10333  -0.00008  -0.11688   0.00000  -0.11059
  41       14F+1        0.00000   0.00000   0.00000   0.04707   0.00000
  42       14F-1        0.00185  -0.00479  -0.00149   0.00000   0.00106
  43       14F+2       -0.05676   0.00060  -0.08811   0.00000  -0.19988
  44       14F-2        0.00000   0.00000   0.00000   0.00053   0.00000
  45       14F+3        0.00000   0.00000   0.00000   0.02280   0.00000
  46       14F-3        0.00034   0.05278   0.00017   0.00000   0.00012
  47 2   S  1S          0.05108   0.00017   0.00493   0.00000   0.00621
  48        2S         -0.16145  -0.00053  -0.01739   0.00000  -0.02587
  49        3S          0.69640   0.00254   0.05242   0.00000   0.11419
  50        4S          0.50750   0.00235  -0.01821   0.00000   0.16473
  51        5S         -2.01019  -0.01509   0.68902   0.00000  -0.33014
  52        6S         -0.36499  -0.00583   0.69505   0.00000  -0.23559
  53        7PX         0.00000   0.00000   0.00000   0.17223   0.00000
  54        7PY         0.00088  -0.06444  -0.00022   0.00000  -0.00036
  55        7PZ        -0.17348  -0.00134  -0.00470   0.00000  -0.08029
  56        8PX         0.00000   0.00000   0.00000  -0.28819   0.00000
  57        8PY        -0.00135  -0.03412   0.00058   0.00000  -0.00140
  58        8PZ         0.23198   0.00359  -0.35481   0.00000  -0.03101
  59        9PX         0.00000   0.00000   0.00000  -0.34146   0.00000
  60        9PY        -0.00196   0.16224   0.00053   0.00000   0.00100
  61        9PZ         0.34271   0.00258   0.03379   0.00000   0.16846
  62       10PX         0.00000   0.00000   0.00000  -0.01722   0.00000
  63       10PY         0.00755  -0.98178  -0.00355   0.00000   0.00168
  64       10PZ         0.30926   0.00516  -0.99506   0.00000   0.35944
  65       11PX         0.00000   0.00000   0.00000  -0.00228   0.00000
  66       11PY         0.00054  -0.06344  -0.00031   0.00000   0.00020
  67       11PZ         0.02088   0.00077  -0.10241   0.00000   0.04335
  68       12D 0       -0.19175  -0.00336   0.66761   0.00000  -0.13681
  69       12D+1        0.00000   0.00000   0.00000   0.45837   0.00000
  70       12D-1       -0.00234   0.46516   0.00079   0.00000   0.00043
  71       12D+2       -0.04263  -0.00049  -0.04490   0.00000   0.14517
  72       12D-2        0.00000   0.00000   0.00000   0.00007   0.00000
  73       13D 0       -0.14173  -0.00188   0.38224   0.00000  -0.03158
  74       13D+1        0.00000   0.00000   0.00000   0.30977   0.00000
  75       13D-1       -0.00212   0.33251   0.00097   0.00000   0.00138
  76       13D+2       -0.14790  -0.00089  -0.08885   0.00000   0.17936
  77       13D-2        0.00000   0.00000   0.00000   0.00021   0.00000
  78       14D 0       -0.09738  -0.00146   0.28960   0.00000  -0.11412
  79       14D+1        0.00000   0.00000   0.00000   0.11051   0.00000
  80       14D-1       -0.00163   0.23603   0.00073   0.00000  -0.00304
  81       14D+2        0.01872   0.00028  -0.00491   0.00000   0.03657
  82       14D-2        0.00000   0.00000   0.00000   0.00017   0.00000
  83       15F 0       -0.01608  -0.00051   0.15192   0.00000   0.13529
  84       15F+1        0.00000   0.00000   0.00000   0.10504   0.00000
  85       15F-1       -0.00090   0.16551   0.00046   0.00000  -0.00434
  86       15F+2       -0.05995  -0.00057  -0.04239   0.00000   0.37867
  87       15F-2        0.00000   0.00000   0.00000   0.00018   0.00000
  88       15F+3        0.00000   0.00000   0.00000   0.01741   0.00000
  89       15F-3        0.00015  -0.01629  -0.00003   0.00000  -0.00001
  90       16F 0        0.03799   0.00054  -0.11072   0.00000   0.07458
  91       16F+1        0.00000   0.00000   0.00000  -0.08163   0.00000
  92       16F-1        0.00039  -0.07052  -0.00011   0.00000  -0.00004
  93       16F+2        0.01269   0.00020  -0.03205   0.00000   0.04932
  94       16F-2        0.00000   0.00000   0.00000   0.00003   0.00000
  95       16F+3        0.00000   0.00000   0.00000  -0.01771   0.00000
  96       16F-3       -0.00004  -0.00822  -0.00006   0.00000  -0.00006
  97 3   H  1S         -0.10247   0.22258  -0.08947   0.00000  -0.29009
  98        2S          0.41630  -0.27103   0.04952   0.00000  -0.12692
  99        3S          0.47002  -0.71542   0.03736   0.00000  -0.10781
 100        4S          0.01193  -0.01905  -0.01710   0.00000  -0.01090
 101        5PX         0.00000   0.00000   0.00000  -0.09411   0.00000
 102        5PY        -0.03102   0.10256  -0.03040   0.00000  -0.03514
 103        5PZ        -0.05985   0.00325   0.02532   0.00000  -0.01671
 104        6PX         0.00000   0.00000   0.00000  -0.13600   0.00000
 105        6PY         0.06267   0.08314  -0.06349   0.00000  -0.01060
 106        6PZ         0.00950  -0.05756   0.03806   0.00000  -0.08376
 107        7PX         0.00000   0.00000   0.00000  -0.00864   0.00000
 108        7PY         0.02589  -0.05418  -0.09978   0.00000   0.14134
 109        7PZ         0.12323   0.03634   0.09030   0.00000  -0.13204
 110        8D 0       -0.01493  -0.02221   0.00746   0.00000   0.00178
 111        8D+1        0.00000   0.00000   0.00000  -0.01569   0.00000
 112        8D-1       -0.01818   0.01226   0.00713   0.00000  -0.02194
 113        8D+2        0.01112  -0.02995   0.02034   0.00000   0.00733
 114        8D-2        0.00000   0.00000   0.00000  -0.05141   0.00000
 115        9D 0       -0.00457  -0.02004  -0.01737   0.00000  -0.01329
 116        9D+1        0.00000   0.00000   0.00000   0.00001   0.00000
 117        9D-1        0.01668   0.02293   0.01343   0.00000  -0.00212
 118        9D+2        0.02474  -0.03193   0.03321   0.00000  -0.01110
 119        9D-2        0.00000   0.00000   0.00000   0.01091   0.00000
 120 4   H  1S         -0.09907  -0.21956  -0.08934   0.00000  -0.29892
 121        2S          0.40109   0.25848   0.05301   0.00000  -0.13594
 122        3S          0.43700   0.70827   0.05350   0.00000  -0.17295
 123        4S          0.01027   0.01832  -0.01706   0.00000  -0.01237
 124        5PX         0.00000   0.00000   0.00000  -0.09221   0.00000
 125        5PY         0.03046   0.10256   0.03049   0.00000   0.03650
 126        5PZ        -0.05930  -0.00397   0.02542   0.00000  -0.01717
 127        6PX         0.00000   0.00000   0.00000  -0.13560   0.00000
 128        6PY        -0.06084   0.08472   0.06112   0.00000   0.00982
 129        6PZ         0.00729   0.05583   0.03739   0.00000  -0.08079
 130        7PX         0.00000   0.00000   0.00000  -0.00766   0.00000
 131        7PY        -0.02109  -0.05442   0.09467   0.00000  -0.12226
 132        7PZ         0.12001  -0.03604   0.08821   0.00000  -0.13364
 133        8D 0       -0.01483   0.02212   0.00747   0.00000   0.00124
 134        8D+1        0.00000   0.00000   0.00000  -0.01539   0.00000
 135        8D-1        0.01846   0.01236  -0.00705   0.00000   0.02194
 136        8D+2        0.01096   0.03036   0.02017   0.00000   0.00706
 137        8D-2        0.00000   0.00000   0.00000   0.05096   0.00000
 138        9D 0       -0.00434   0.01990  -0.01767   0.00000  -0.01211
 139        9D+1        0.00000   0.00000   0.00000   0.00030   0.00000
 140        9D-1       -0.01659   0.02252  -0.01249   0.00000   0.00182
 141        9D+2        0.02464   0.03163   0.03312   0.00000  -0.01156
 142        9D-2        0.00000   0.00000   0.00000  -0.01081   0.00000
                          31        32        33        34        35
     Eigenvalues --     0.00208   0.00195   0.00194   0.00186   0.00154
   1 1   C  1S         -0.00105   0.00000   0.04390   0.00194   0.00000
   2        2S          0.00363   0.00000  -0.19104  -0.00875   0.00000
   3        3S          0.00396   0.00000  -0.18331  -0.00813   0.00000
   4        4S         -0.00111   0.00000   0.07040   0.01135   0.00000
   5        5S         -0.00112   0.00000  -0.00237   0.00179   0.00000
   6        6PX         0.00000   0.00247   0.00000   0.00000  -0.34547
[...]
 137        8D-2        0.00000   0.00000   0.16513   0.00000   0.00000
 138        9D 0        0.85565   0.76000   0.00000   0.27198   1.37142
 139        9D+1        0.00000   0.00000  -0.08447   0.00000   0.00000
 140        9D-1       -0.03494  -0.65562   0.00000  -1.22901  -0.39240
 141        9D+2        0.17846  -0.20856   0.00000   0.42301   1.41855
 142        9D-2        0.00000   0.00000  -1.06935   0.00000   0.00000
                         136       137       138       139       140
     Eigenvalues --     0.00000   0.00000   0.00000   0.00000   0.00000
   1 1   C  1S         -0.00626   0.41103   0.00000  -0.07463  -0.07773
   2        2S         -0.03588   2.40694   0.00000  -0.40276  -0.43652
   3        3S          0.00418  -0.10910   0.00000   0.05590   0.02165
   4        4S         -0.19763  25.27124   0.00000 -17.77207  -3.31124
   5        5S         -0.28948  16.58648   0.00000  -2.58414   4.76790
   6        6PX         0.00000   0.00000  -0.02051   0.00000   0.00000
   7        6PY         0.04135   0.00086   0.00000  -0.00052  -0.00006
   8        6PZ        -0.00196   0.05531   0.00000   0.01782   0.01110
   9        7PX         0.00000   0.00000   0.35294   0.00000   0.00000
  10        7PY        -2.84821  -0.19093   0.00000   0.02033   0.01169
  11        7PZ         0.02254  -2.04340   0.00000   0.29327   0.31861
  12        8PX         0.00000   0.00000   0.00002   0.00000   0.00000
  13        8PY       -16.71147  -0.74906   0.00000   0.08469   0.05331
  14        8PZ         0.27896  -8.18892   0.00000   0.45828   9.09275
  15        9PX         0.00000   0.00000  -2.90145   0.00000   0.00000
  16        9PY        -6.49657  -0.19929   0.00000   0.04468   0.00338
  17        9PZ         0.03674  -0.80292   0.00000  -1.74097   5.75257
  18       10D 0        0.00014   0.00008   0.00000   0.00279  -0.01216
  19       10D+1        0.00000   0.00000  -0.00068   0.00000   0.00000
  20       10D-1        0.08236   0.00745   0.00000  -0.00034  -0.00034
  21       10D+2        0.00351  -0.14394   0.00000   0.00915   0.01130
  22       10D-2        0.00000   0.00000  -0.00027   0.00000   0.00000
  23       11D 0       -0.01365   0.09957   0.00000  -0.29046   0.23484
  24       11D+1        0.00000   0.00000  -0.28254   0.00000   0.00000
  25       11D-1        1.73297   0.10990   0.00000  -0.00708  -0.00718
  26       11D+2       -0.00515  -1.18368   0.00000   0.53244   0.32592
  27       11D-2        0.00000   0.00000   0.00057   0.00000   0.00000
  28       12D 0       -0.17311   3.90637   0.00000   0.78816   1.83288
  29       12D+1        0.00000   0.00000  -2.66544   0.00000   0.00000
  30       12D-1        7.02335   0.21144   0.00000   0.00777  -0.00013
  31       12D+2       -0.08059   0.86687   0.00000   0.98589   0.96287
  32       12D-2        0.00000   0.00000  -0.00422   0.00000   0.00000
  33       13F 0       -0.00486   0.09604   0.00000   0.01571  -0.00270
  34       13F+1        0.00000   0.00000   0.01569   0.00000   0.00000
  35       13F-1       -0.06642  -0.00162   0.00000   0.00061   0.00009
  36       13F+2       -0.00227   0.13353   0.00000  -0.02680  -0.01761
  37       13F-2        0.00000   0.00000  -0.00002   0.00000   0.00000
  38       13F+3        0.00000   0.00000  -0.00432   0.00000   0.00000
  39       13F-3        0.06873   0.00426   0.00000   0.00023   0.00003
  40       14F 0        0.03370  -0.18378   0.00000  -0.61963  -0.02102
  41       14F+1        0.00000   0.00000   0.02202   0.00000   0.00000
  42       14F-1        0.37035  -0.00303   0.00000  -0.00774   0.00270
  43       14F+2        0.00727   0.25840   0.00000  -0.24560  -0.10918
  44       14F-2        0.00000   0.00000   0.00002   0.00000   0.00000
  45       14F+3        0.00000   0.00000  -0.01964   0.00000   0.00000
  46       14F-3        0.16611   0.00731   0.00000  -0.00334  -0.00090
  47 2   S  1S         -0.00061   0.01507   0.00000   0.01305   0.00271
  48        2S         -0.00820   0.19879   0.00000   0.20318   0.01976
  49        3S         -0.02588   0.62872   0.00000   0.57210   0.10573
  50        4S         -0.00287   0.03161   0.00000  -0.08671   0.10222
  51        5S          0.04765  -2.94322   0.00000   2.01279  -5.66643
  52        6S          0.14171  -9.80698   0.00000  -2.46744 -16.04841
  53        7PX         0.00000   0.00000   0.00379   0.00000   0.00000
  54        7PY         0.00622   0.00025   0.00000   0.00021  -0.00004
  55        7PZ         0.00029  -0.00306   0.00000  -0.04203  -0.00475
  56        8PX         0.00000   0.00000  -0.02278   0.00000   0.00000
  57        8PY         0.08393   0.00439   0.00000   0.00383  -0.00083
  58        8PZ         0.01543  -0.23446   0.00000  -1.03812   0.04113
  59        9PX         0.00000   0.00000  -0.01887   0.00000   0.00000
  60        9PY        -0.03195  -0.00120   0.00000  -0.00061   0.00012
  61        9PZ         0.00230  -0.03390   0.00000   0.08598   0.02917
  62       10PX         0.00000   0.00000   2.18378   0.00000   0.00000
  63       10PY        -4.09423  -0.09129   0.00000  -0.00325  -0.00806
  64       10PZ        -0.02510   3.85111   0.00000   0.34797   6.64987
  65       11PX         0.00000   0.00000   2.74366   0.00000   0.00000
  66       11PY         0.57528   0.01365   0.00000  -0.00947   0.00174
  67       11PZ        -0.04804   2.86756   0.00000   2.71125   2.28024
  68       12D 0        0.00532  -0.30533   0.00000   0.67974  -0.29953
  69       12D+1        0.00000   0.00000   0.12167   0.00000   0.00000
  70       12D-1        0.30558   0.00457   0.00000  -0.00399   0.00199
  71       12D+2        0.00139  -0.05857   0.00000   0.02190  -0.02285
  72       12D-2        0.00000   0.00000   0.00039   0.00000   0.00000
  73       13D 0       -0.00158   0.06240   0.00000  -0.05092   0.02458
  74       13D+1        0.00000   0.00000  -0.04627   0.00000   0.00000
  75       13D-1        0.00702   0.00094   0.00000  -0.00004  -0.00023
  76       13D+2       -0.00070   0.01690   0.00000   0.00125   0.00823
  77       13D-2        0.00000   0.00000  -0.00014   0.00000   0.00000
  78       14D 0        0.00986  -1.47937   0.00000  -1.15638  -1.53898
  79       14D+1        0.00000   0.00000  -1.87941   0.00000   0.00000
  80       14D-1        1.90828   0.03955   0.00000  -0.00044   0.00319
  81       14D+2        0.00011   0.20949   0.00000   0.22145  -0.05360
  82       14D-2        0.00000   0.00000  -0.00021   0.00000   0.00000
  83       15F 0        0.00015  -0.05745   0.00000  -0.03478  -0.01661
  84       15F+1        0.00000   0.00000  -0.02638   0.00000   0.00000
  85       15F-1       -0.00320  -0.00130   0.00000   0.00013   0.00014
  86       15F+2       -0.00004   0.01126   0.00000   0.01337  -0.00904
  87       15F-2        0.00000   0.00000  -0.00005   0.00000   0.00000
  88       15F+3        0.00000   0.00000   0.00463   0.00000   0.00000
  89       15F-3       -0.02843  -0.00040   0.00000   0.00026   0.00001
  90       16F 0       -0.00760   0.38200   0.00000  -0.01513   0.13787
  91       16F+1        0.00000   0.00000   0.23112   0.00000   0.00000
  92       16F-1       -0.28935  -0.00353   0.00000   0.00254  -0.00116
  93       16F+2        0.00263  -0.12533   0.00000  -0.11790   0.03852
  94       16F-2        0.00000   0.00000   0.00008   0.00000   0.00000
  95       16F+3        0.00000   0.00000  -0.01591   0.00000   0.00000
  96       16F-3        0.08187   0.00109   0.00000  -0.00046   0.00004
  97 3   H  1S          0.04756   0.10306   0.00000  -0.01946  -0.01652
  98        2S         -3.61183  -3.90541   0.00000   1.53432   0.92210
  99        3S        -29.04873 -13.04295   0.00000   9.50247   8.13369
 100        4S         -5.18499  -1.47544   0.00000   0.64078   2.13312
 101        5PX         0.00000   0.00000   0.07547   0.00000   0.00000
 102        5PY         0.11046   0.07395   0.00000  -0.03592  -0.02809
 103        5PZ         0.07459   0.04333   0.00000  -0.00076  -0.01663
 104        6PX         0.00000   0.00000  -0.39384   0.00000   0.00000
 105        6PY        -1.67928  -2.17135   0.00000   0.64754   0.41727
 106        6PZ        -1.40611  -0.99695   0.00000   0.40942   0.24674
 107        7PX         0.00000   0.00000  -0.97628   0.00000   0.00000
 108        7PY        -4.77585  -5.38383   0.00000   2.06024   1.68055
 109        7PZ        -3.55540   2.25587   0.00000   3.80097   1.09219
 110        8D 0        0.03608  -0.03470   0.00000  -0.01467   0.00963
 111        8D+1        0.00000   0.00000  -0.00618   0.00000   0.00000
 112        8D-1       -0.04498  -0.17756   0.00000  -0.02218   0.01361
 113        8D+2        0.12343   0.12471   0.00000   0.01302  -0.01532
 114        8D-2        0.00000   0.00000   0.07478   0.00000   0.00000
 115        9D 0       -0.24088   0.50471   0.00000   0.00750  -0.07579
 116        9D+1        0.00000   0.00000   0.01871   0.00000   0.00000
 117        9D-1       -0.86975  -0.03512   0.00000   0.55698   0.08501
 118        9D+2       -0.16001   0.62770   0.00000  -0.15932  -0.06227
 119        9D-2        0.00000   0.00000  -0.50947   0.00000   0.00000
 120 4   H  1S         -0.05175   0.09883   0.00000  -0.02013  -0.01595
 121        2S          3.54827  -3.40773   0.00000   1.48273   0.87750
 122        3S         29.36969 -10.28612   0.00000   9.23252   7.95094
 123        4S          5.23393  -1.11986   0.00000   0.56178   2.10184
 124        5PX         0.00000   0.00000   0.07485   0.00000   0.00000
 125        5PY         0.12091  -0.06798   0.00000   0.03724   0.02886
 126        5PZ        -0.07531   0.04267   0.00000   0.00075  -0.01715
 127        6PX         0.00000   0.00000  -0.38890   0.00000   0.00000
 128        6PY        -1.77771   1.94234   0.00000  -0.64724  -0.40912
 129        6PZ         1.38505  -0.85824   0.00000   0.37758   0.24077
 130        7PX         0.00000   0.00000  -0.95340   0.00000   0.00000
 131        7PY        -5.23330   4.72843   0.00000  -2.06001  -1.66357
 132        7PZ         3.26669   2.54826   0.00000   3.68344   1.06013
 133        8D 0       -0.03226  -0.03380   0.00000  -0.01325   0.00981
 134        8D+1        0.00000   0.00000  -0.00617   0.00000   0.00000
 135        8D-1       -0.05037   0.16490   0.00000   0.02212  -0.01280
 136        8D+2       -0.12423   0.11654   0.00000   0.01462  -0.01471
 137        8D-2        0.00000   0.00000  -0.07618   0.00000   0.00000
 138        9D 0        0.18897   0.49422   0.00000  -0.01179  -0.07705
 139        9D+1        0.00000   0.00000   0.01970   0.00000   0.00000
 140        9D-1       -0.86214  -0.03327   0.00000  -0.54277  -0.08581
 141        9D+2        0.07718   0.58877   0.00000  -0.17037  -0.06322
 142        9D-2        0.00000   0.00000   0.50864   0.00000   0.00000
                         141       142
     Eigenvalues --     0.00000   0.00000
   1 1   C  1S          0.00089  -0.00425
   2        2S          0.00323  -0.01168
   3        3S         -0.00498   0.04586
   4        4S         -0.80791   8.04067
   5        5S         -1.71066  15.99260
   6        6PX         0.00000   0.00000
   7        6PY        -0.00817  -0.00059
   8        6PZ        -0.00035   0.00379
   9        7PX         0.00000   0.00000
  10        7PY        -0.16055  -0.02449
  11        7PZ         0.00745  -0.06555
  12        8PX         0.00000   0.00000
  13        8PY        -5.06309  -0.50361
  14        8PZ        -0.13692   1.12642
  15        9PX         0.00000   0.00000
  16        9PY        -5.24139  -0.54325
  17        9PZ        -0.14214   1.17966
  18       10D 0       -0.00112   0.00933
  19       10D+1        0.00000   0.00000
  20       10D-1       -0.01471  -0.00101
  21       10D+2        0.00147  -0.01240
  22       10D-2        0.00000   0.00000
  23       11D 0        0.01022  -0.08317
  24       11D+1        0.00000   0.00000
  25       11D-1        0.12537   0.01932
  26       11D+2       -0.00169   0.02114
  27       11D-2        0.00000   0.00000
  28       12D 0       -0.06984   0.41933
  29       12D+1        0.00000   0.00000
  30       12D-1       -0.92902  -0.06407
  31       12D+2        0.03720  -0.36863
  32       12D-2        0.00000   0.00000
  33       13F 0        0.00138  -0.01191
  34       13F+1        0.00000   0.00000
  35       13F-1        0.00465   0.00049
  36       13F+2        0.00084  -0.00549
  37       13F-2        0.00000   0.00000
  38       13F+3        0.00000   0.00000
  39       13F-3        0.00361   0.00076
  40       14F 0       -0.00235   0.02078
  41       14F+1        0.00000   0.00000
  42       14F-1       -0.09547  -0.01057
  43       14F+2        0.00502  -0.04707
  44       14F-2        0.00000   0.00000
  45       14F+3        0.00000   0.00000
  46       14F-3       -0.01352  -0.00173
  47 2   S  1S         -0.00033   0.00302
  48        2S         -0.00507   0.04675
  49        3S         -0.01450   0.13201
  50        4S          0.00132  -0.01449
  51        5S          0.21902  -1.72752
  52        6S          0.95171  -8.61557
  53        7PX         0.00000   0.00000
  54        7PY        -0.00556  -0.00062
  55        7PZ         0.00024  -0.00274
  56        8PX         0.00000   0.00000
  57        8PY        -0.04703  -0.00560
  58        8PZ         0.00358  -0.04373
  59        9PX         0.00000   0.00000
  60        9PY         0.02416   0.00265
  61        9PZ        -0.00109   0.01171
  62       10PX         0.00000   0.00000
  63       10PY         1.28816   0.11229
  64       10PZ        -0.25489   2.27050
  65       11PX         0.00000   0.00000
  66       11PY         0.52251   0.05206
  67       11PZ        -0.24127   2.28679
  68       12D 0        0.00514  -0.04442
  69       12D+1        0.00000   0.00000
  70       12D-1       -0.08198  -0.00654
  71       12D+2       -0.00396   0.03432
  72       12D-2        0.00000   0.00000
  73       13D 0       -0.00095   0.00701
  74       13D+1        0.00000   0.00000
  75       13D-1        0.00215   0.00008
  76       13D+2        0.00093  -0.00791
  77       13D-2        0.00000   0.00000
  78       14D 0        0.06488  -0.62609
  79       14D+1        0.00000   0.00000
  80       14D-1       -0.44117  -0.03859
  81       14D+2        0.01065  -0.07998
  82       14D-2        0.00000   0.00000
  83       15F 0        0.00170  -0.01505
  84       15F+1        0.00000   0.00000
  85       15F-1       -0.00027  -0.00002
  86       15F+2        0.00073  -0.00622
  87       15F-2        0.00000   0.00000
  88       15F+3        0.00000   0.00000
  89       15F-3       -0.00358  -0.00026
  90       16F 0       -0.00633   0.06367
  91       16F+1        0.00000   0.00000
  92       16F-1        0.03697   0.00304
  93       16F+2       -0.00194   0.01310
  94       16F-2        0.00000   0.00000
  95       16F+3        0.00000   0.00000
  96       16F-3        0.02173   0.00172
  97 3   H  1S         -0.01215  -0.01406
  98        2S         -0.05263   0.16895
  99        3S         -7.78286  -5.73276
 100        4S         -7.84332  -3.29164
 101        5PX         0.00000   0.00000
 102        5PY         0.01996   0.01044
 103        5PZ         0.00395   0.01605
 104        6PX         0.00000   0.00000
 105        6PY        -0.24632  -0.12066
 106        6PZ        -0.06716  -0.15959
 107        7PX         0.00000   0.00000
 108        7PY        -2.43232  -1.43110
 109        7PZ        -2.22492  -1.20701
 110        8D 0        0.00670   0.00680
 111        8D+1        0.00000   0.00000
 112        8D-1        0.01117   0.01209
 113        8D+2       -0.02581  -0.00309
 114        8D-2        0.00000   0.00000
 115        9D 0       -0.01113  -0.04368
 116        9D+1        0.00000   0.00000
 117        9D-1       -0.16796  -0.21634
 118        9D+2        0.23110   0.09860
 119        9D-2        0.00000   0.00000
 120 4   H  1S          0.01517  -0.01254
 121        2S          0.00366   0.20329
 122        3S          8.75374  -3.98598
 123        4S          8.34354  -1.56936
 124        5PX         0.00000   0.00000
 125        5PY         0.02212  -0.00614
 126        5PZ        -0.00761   0.01509
 127        6PX         0.00000   0.00000
 128        6PY        -0.26717   0.05773
 129        6PZ         0.10011  -0.13928
 130        7PX         0.00000   0.00000
 131        7PY        -2.70261   0.90949
 132        7PZ         2.39413  -0.76486
 133        8D 0       -0.00824   0.00567
 134        8D+1        0.00000   0.00000
 135        8D-1        0.01374  -0.01132
 136        8D+2        0.02639   0.00108
 137        8D-2        0.00000   0.00000
 138        9D 0        0.01992  -0.04565
 139        9D+1        0.00000   0.00000
 140        9D-1       -0.21239   0.18057
 141        9D+2       -0.25180   0.05097
 142        9D-2        0.00000   0.00000
          Condensed to atoms (all electrons):
              1          2          3          4
     1  C    6.177000   0.273471   0.182451   0.186632
     2  S    0.273471  16.026763  -0.118362  -0.117533
     3  H    0.182451  -0.118362   0.646652  -0.158008
     4  H    0.186632  -0.117533  -0.158008   0.652283
 Mulliken atomic charges:
              1
     1  C   -0.819553
     2  S   -0.064339
     3  H    0.447267
     4  H    0.436625
 Sum of Mulliken atomic charges =   0.00000
 Mulliken charges with hydrogens summed into heavy atoms:
              1
     1  C    0.064339
     2  S   -0.064339
 Sum of Mulliken charges with hydrogens summed into heavy atoms =   0.00000
 Electronic spatial extent (au):  <R**2>=            130.3643
 Charge=              0.0000 electrons
 Dipole moment (field-independent basis, Debye):
    X=              0.0000    Y=             -0.0001    Z=             -1.7486  Tot=              1.7486
 Quadrupole moment (field-independent basis, Debye-Ang):
   XX=            -19.9880   YY=            -20.5640   ZZ=            -18.9903
   XY=              0.0000   XZ=              0.0000   YZ=              0.0062
 Traceless Quadrupole moment (field-independent basis, Debye-Ang):
   XX=             -0.1405   YY=             -0.7165   ZZ=              0.8571
   XY=              0.0000   XZ=              0.0000   YZ=              0.0062
 Octapole moment (field-independent basis, Debye-Ang**2):
  XXX=              0.0000  YYY=             -0.0158  ZZZ=            -27.6381  XYY=              0.0000
  XXY=             -0.0155  XXZ=             -8.5523  XZZ=              0.0000  YZZ=             -0.0178
  YYZ=            -13.1433  XYZ=              0.0000
 Hexadecapole moment (field-independent basis, Debye-Ang**3):
 XXXX=            -25.3327 YYYY=            -35.1779 ZZZZ=           -127.4733 XXXY=              0.0000
 XXXZ=              0.0000 YYYX=              0.0000 YYYZ=              0.0367 ZZZX=              0.0000
 ZZZY=              0.0711 XXYY=            -10.5241 XXZZ=            -25.3518 YYZZ=            -29.5630
 XXYZ=              0.0226 YYXZ=              0.0000 ZZXY=              0.0000
 N-N= 4.467388475651D+01 E-N=-1.127296366726D+03  KE= 4.368559787156D+02
 1\1\GINC-TRAPISTA\SP\RQCISD-FC\Aug-CC-pVTZ\C1H2S1\BRUNS\17-Nov-2021\0\
 \# qcisd/aug-cc-pvtz nosymm density=current output=wfn\\h2cs-wavefunct
 ion\\0,1\C,0,0.,0.,-0.555291\S,0,0.,0.,1.060374\H,0,0.,-0.92228,-1.128
 992\H,0,0.,0.93228,-1.128992\\Version=EM64L-G09RevB.01\HF=-436.5574298
 \MP2=-436.8984179\MP3=-436.921201\MP4D=-436.9312426\MP4DQ=-436.9195702
 \MP4SDQ=-436.9230611\QCISD=-436.9234666\RMSD=5.873e-09\Dipole=0.,-0.00
 00209,-0.6879566\Quadrupole=-0.1044889,-0.5327336,0.6372225,0.,0.,0.00
 46057\PG=CS [SG(C1H2S1)]\\@

 Writing a WFN file to GAUSSIAN.wfn.


 It takes a long time to grow an old friend.
                            -- John Leonard
 Job cpu time:  0 days  0 hours 30 minutes  5.5 seconds.
 File lengths (MBytes):  RWF=   5923 Int=      0 D2E=      0 Chk=      2 Scr=      1
 Normal termination of Gaussian 09 at Wed Nov 17 18:11:53 2021.
