 h2cs-wavefunction
GAUSSIAN            142 MOL ORBITALS    240 PRIMITIVES        4 NUCLEI
  C    1    (CENTRE  1)   0.00000000  0.00000000 -1.04934791  CHARGE =  6.0
  S    2    (CENTRE  2)   0.00000000  0.01889726  2.00381646  CHARGE = 16.0
  H    3    (CENTRE  3)   0.00000000 -1.74285662 -2.13348569  CHARGE =  1.0
  H    4    (CENTRE  4)   0.00000000  1.74285662 -2.13348569  CHARGE =  1.0
CENTRE ASSIGNMENTS    1  1  1  1  1  1  1  1  1  1  1  1  1  1  1  1  1  1  1  1
CENTRE ASSIGNMENTS    1  1  1  1  1  1  1  1  1  1  1  1  1  1  1  1  1  1  1  1
CENTRE ASSIGNMENTS    1  1  1  1  1  1  1  1  1  1  1  1  1  1  1  1  1  1  1  1
CENTRE ASSIGNMENTS    1  1  1  1  1  1  1  1  1  1  1  1  2  2  2  2  2  2  2  2
CENTRE ASSIGNMENTS    2  2  2  2  2  2  2  2  2  2  2  2  2  2  2  2  2  2  2  2
CENTRE ASSIGNMENTS    2  2  2  2  2  2  2  2  2  2  2  2  2  2  2  2  2  2  2  2
CENTRE ASSIGNMENTS    2  2  2  2  2  2  2  2  2  2  2  2  2  2  2  2  2  2  2  2
CENTRE ASSIGNMENTS    2  2  2  2  2  2  2  2  2  2  2  2  2  2  2  2  2  2  2  2
CENTRE ASSIGNMENTS    2  2  2  2  2  2  2  2  2  2  2  2  2  2  2  2  2  2  2  2
CENTRE ASSIGNMENTS    2  2  2  2  2  2  3  3  3  3  3  3  3  3  3  3  3  3  3  3
CENTRE ASSIGNMENTS    3  3  3  3  3  3  3  3  3  3  3  3  3  4  4  4  4  4  4  4
CENTRE ASSIGNMENTS    4  4  4  4  4  4  4  4  4  4  4  4  4  4  4  4  4  4  4  4
TYPE ASSIGNMENTS      1  1  1  1  1  1  1  1  1  1  1  1  1  1  1  1  2  2  2  3
TYPE ASSIGNMENTS      3  3  4  4  4  2  3  4  2  3  4  2  3  4  5  6  7  8  9 10
TYPE ASSIGNMENTS      5  6  7  8  9 10  5  6  7  8  9 10 11 12 13 17 14 15 18 19
TYPE ASSIGNMENTS     16 20 11 12 13 17 14 15 18 19 16 20  1  1  1  1  1  1  1  1
TYPE ASSIGNMENTS      1  1  1  1  1  1  1  1  1  1  1  1  1  1  1  1  1  1  1  1
TYPE ASSIGNMENTS      1  1  1  2  2  2  2  2  2  3  3  3  3  3  3  4  4  4  4  4
TYPE ASSIGNMENTS      4  2  2  2  2  2  2  3  3  3  3  3  3  4  4  4  4  4  4  2
TYPE ASSIGNMENTS      3  4  2  3  4  2  3  4  5  6  7  8  9 10  5  6  7  8  9 10
TYPE ASSIGNMENTS      5  6  7  8  9 10 11 12 13 17 14 15 18 19 16 20 11 12 13 17
TYPE ASSIGNMENTS     14 15 18 19 16 20  1  1  1  1  1  1  2  3  4  2  3  4  2  3
TYPE ASSIGNMENTS      4  5  6  7  8  9 10  5  6  7  8  9 10  1  1  1  1  1  1  2
TYPE ASSIGNMENTS      3  4  2  3  4  2  3  4  5  6  7  8  9 10  5  6  7  8  9 10
EXPONENTS  0.8236000D+04 0.1235000D+04 0.2808000D+03 0.7927000D+02 0.2559000D+02
EXPONENTS  0.8997000D+01 0.3319000D+01 0.2808000D+03 0.7927000D+02 0.2559000D+02
EXPONENTS  0.8997000D+01 0.3319000D+01 0.3643000D+00 0.9059000D+00 0.1285000D+00
EXPONENTS  0.4402000D-01 0.1871000D+02 0.4133000D+01 0.1200000D+01 0.1871000D+02
EXPONENTS  0.4133000D+01 0.1200000D+01 0.1871000D+02 0.4133000D+01 0.1200000D+01
EXPONENTS  0.3827000D+00 0.3827000D+00 0.3827000D+00 0.1209000D+00 0.1209000D+00
EXPONENTS  0.1209000D+00 0.3569000D-01 0.3569000D-01 0.3569000D-01 0.1097000D+01
EXPONENTS  0.1097000D+01 0.1097000D+01 0.1097000D+01 0.1097000D+01 0.1097000D+01
EXPONENTS  0.3180000D+00 0.3180000D+00 0.3180000D+00 0.3180000D+00 0.3180000D+00
EXPONENTS  0.3180000D+00 0.1000000D+00 0.1000000D+00 0.1000000D+00 0.1000000D+00
EXPONENTS  0.1000000D+00 0.1000000D+00 0.7610000D+00 0.7610000D+00 0.7610000D+00
EXPONENTS  0.7610000D+00 0.7610000D+00 0.7610000D+00 0.7610000D+00 0.7610000D+00
EXPONENTS  0.7610000D+00 0.7610000D+00 0.2680000D+00 0.2680000D+00 0.2680000D+00
EXPONENTS  0.2680000D+00 0.2680000D+00 0.2680000D+00 0.2680000D+00 0.2680000D+00
EXPONENTS  0.2680000D+00 0.2680000D+00 0.3741000D+06 0.5605000D+05 0.1276000D+05
EXPONENTS  0.3615000D+04 0.1183000D+04 0.4288000D+03 0.1678000D+03 0.6947000D+02
EXPONENTS  0.2984000D+02 0.1272000D+02 0.5244000D+01 0.3615000D+04 0.1183000D+04
EXPONENTS  0.4288000D+03 0.1678000D+03 0.6947000D+02 0.2984000D+02 0.1272000D+02
EXPONENTS  0.5244000D+01 0.2219000D+01 0.1183000D+04 0.1678000D+03 0.6947000D+02
EXPONENTS  0.2984000D+02 0.1272000D+02 0.5244000D+01 0.2219000D+01 0.3490000D+00
EXPONENTS  0.7767000D+00 0.1322000D+00 0.4970000D-01 0.5744000D+03 0.1358000D+03
EXPONENTS  0.4319000D+02 0.1587000D+02 0.6208000D+01 0.2483000D+01 0.5744000D+03
EXPONENTS  0.1358000D+03 0.4319000D+02 0.1587000D+02 0.6208000D+01 0.2483000D+01
EXPONENTS  0.5744000D+03 0.1358000D+03 0.4319000D+02 0.1587000D+02 0.6208000D+01
EXPONENTS  0.2483000D+01 0.1358000D+03 0.4319000D+02 0.1587000D+02 0.6208000D+01
EXPONENTS  0.2483000D+01 0.3229000D+00 0.1358000D+03 0.4319000D+02 0.1587000D+02
EXPONENTS  0.6208000D+01 0.2483000D+01 0.3229000D+00 0.1358000D+03 0.4319000D+02
EXPONENTS  0.1587000D+02 0.6208000D+01 0.2483000D+01 0.3229000D+00 0.8688000D+00
EXPONENTS  0.8688000D+00 0.8688000D+00 0.1098000D+00 0.1098000D+00 0.1098000D+00
EXPONENTS  0.3510000D-01 0.3510000D-01 0.3510000D-01 0.2690000D+00 0.2690000D+00
EXPONENTS  0.2690000D+00 0.2690000D+00 0.2690000D+00 0.2690000D+00 0.8190000D+00
EXPONENTS  0.8190000D+00 0.8190000D+00 0.8190000D+00 0.8190000D+00 0.8190000D+00
EXPONENTS  0.1010000D+00 0.1010000D+00 0.1010000D+00 0.1010000D+00 0.1010000D+00
EXPONENTS  0.1010000D+00 0.5570000D+00 0.5570000D+00 0.5570000D+00 0.5570000D+00
EXPONENTS  0.5570000D+00 0.5570000D+00 0.5570000D+00 0.5570000D+00 0.5570000D+00
EXPONENTS  0.5570000D+00 0.2180000D+00 0.2180000D+00 0.2180000D+00 0.2180000D+00
EXPONENTS  0.2180000D+00 0.2180000D+00 0.2180000D+00 0.2180000D+00 0.2180000D+00
EXPONENTS  0.2180000D+00 0.3387000D+02 0.5095000D+01 0.1159000D+01 0.3258000D+00
EXPONENTS  0.1027000D+00 0.2526000D-01 0.1407000D+01 0.1407000D+01 0.1407000D+01
EXPONENTS  0.3880000D+00 0.3880000D+00 0.3880000D+00 0.1020000D+00 0.1020000D+00
EXPONENTS  0.1020000D+00 0.1057000D+01 0.1057000D+01 0.1057000D+01 0.1057000D+01
EXPONENTS  0.1057000D+01 0.1057000D+01 0.2470000D+00 0.2470000D+00 0.2470000D+00
EXPONENTS  0.2470000D+00 0.2470000D+00 0.2470000D+00 0.3387000D+02 0.5095000D+01
EXPONENTS  0.1159000D+01 0.3258000D+00 0.1027000D+00 0.2526000D-01 0.1407000D+01
EXPONENTS  0.1407000D+01 0.1407000D+01 0.3880000D+00 0.3880000D+00 0.3880000D+00
EXPONENTS  0.1020000D+00 0.1020000D+00 0.1020000D+00 0.1057000D+01 0.1057000D+01
EXPONENTS  0.1057000D+01 0.1057000D+01 0.1057000D+01 0.1057000D+01 0.2470000D+00
EXPONENTS  0.2470000D+00 0.2470000D+00 0.2470000D+00 0.2470000D+00 0.2470000D+00
MO    1     MO 0.0        OCC NO =    2.0000337  ORB. ENERGY =    0.000000
  0.10891206D-03  0.20303401D-03  0.34315515D-03  0.51582619D-03  0.63360008D-03
  0.53473612D-03  0.20107474D-03  0.24919137D-07  0.18625511D-06  0.69607788D-06
  0.19419489D-05  0.26016761D-05 -0.30720944D-05  0.94661820D-05 -0.79514945D-05
 -0.17865296D-05  0.19003558D-13  0.17817043D-13  0.12686796D-13 -0.14388037D-02
 -0.13489699D-02 -0.96054692D-03 -0.14152412D-04 -0.13268786D-04 -0.94481658D-05
  0.51284643D-14 -0.59838279D-03 -0.77539537D-05 -0.27994088D-14  0.16110573D-02
  0.58682393D-05 -0.53697770D-16  0.29652164D-04 -0.33800593D-07 -0.95777309D-06
 -0.35935627D-05  0.45513358D-05 -0.36409163D-14  0.14300338D-13 -0.10627675D-02
  0.13607313D-05  0.10757645D-05 -0.24364958D-05  0.67373162D-14 -0.10809465D-13
  0.52327015D-04  0.20650139D-06 -0.66303336D-06  0.45653197D-06  0.13703982D-14
 -0.63196969D-15 -0.21500314D-03 -0.10250853D-14  0.16671287D-03  0.25929124D-05
 -0.11372210D-15  0.19458345D-03  0.41229183D-05  0.31889778D-14 -0.69472206D-03
 -0.11901656D-04 -0.73303496D-14  0.41869957D-15 -0.81251038D-04 -0.22921262D-05
  0.19263813D-14 -0.12292208D-03 -0.61060494D-06 -0.31824800D-14  0.36667519D-03
  0.74869834D-05 -0.81139872D-15  0.34283409D-04  0.64096287D-04  0.11077743D-03
  0.17917794D-03  0.27082145D-03  0.37297721D-03  0.43596494D-03  0.37679038D-03
  0.17585003D-03  0.23823821D-04 -0.17425086D-06  0.40159024D-06  0.51624021D-05
  0.18831701D-04  0.63537692D-04  0.13955728D-03  0.18026994D-03 -0.28970913D-04
 -0.24303153D-03 -0.13337257D-03  0.97694804D-08  0.11128046D-06  0.23105834D-06
  0.63535175D-06 -0.82380651D-07 -0.28727713D-05 -0.71651478D-05  0.59312056D-05
 -0.82071511D-05 -0.67085418D-05  0.24633231D-06 -0.63999645D-10 -0.83963895D-10
 -0.92090221D-10 -0.75769059D-10 -0.39941140D-10 -0.10391933D-10  0.97720073D+01
  0.12820318D+02  0.14061114D+02  0.11569061D+02  0.60985512D+01  0.15867283D+01
 -0.90553074D-01 -0.11880048D+00 -0.13029842D+00 -0.10720561D+00 -0.56512704D-01
 -0.14703543D-01 -0.37519164D-15 -0.13467741D-13 -0.21366908D-13 -0.25372548D-13
 -0.38395353D-14  0.27943419D-13  0.96389446D-04  0.34599600D-02  0.54893133D-02
  0.65183911D-02  0.98640439D-03 -0.71788663D-02 -0.84798427D-06 -0.30438931D-04
 -0.48292126D-04 -0.57345419D-04 -0.86778734D-05  0.63155936D-04 -0.49720889D-12
  0.66515588D-01 -0.62139941D-03  0.22063360D-14 -0.57538495D-03  0.73188758D-05
  0.15768291D-15 -0.27474113D-04  0.16694072D-06  0.56885157D-06  0.46340932D-05
 -0.52029448D-05 -0.10395067D-15 -0.78623507D-14  0.77027688D-03 -0.85078099D-06
 -0.82768690D-05  0.91276499D-05 -0.44049350D-15  0.46599161D-14 -0.10810814D-02
  0.42165905D-07 -0.44728404D-07  0.25624990D-08 -0.33020502D-15 -0.74726502D-15
 -0.29973814D-04 -0.63620556D-15  0.14949431D-05  0.20238880D-06 -0.42609252D-15
  0.13084558D-03 -0.12506459D-05  0.23347092D-14 -0.13533041D-03  0.64347951D-06
 -0.14942587D-14 -0.39553550D-15  0.33701120D-04  0.65919676D-06 -0.44159133D-15
 -0.22188132D-05  0.41270012D-07  0.16281978D-14 -0.98884546D-04 -0.20188603D-05
  0.66031377D-15 -0.10750006D-03 -0.19388079D-03 -0.28587711D-03  0.14756877D-03
  0.23746146D-02  0.25705578D-04 -0.99962268D-15 -0.20229088D-04  0.26098528D-03
  0.22084482D-14 -0.14680096D-04 -0.32663879D-03  0.23019033D-14  0.31439384D-03
  0.13305157D-03 -0.47653008D-04 -0.14523362D-03  0.19288663D-03  0.33924823D-15
 -0.66671431D-15 -0.96658903D-05  0.26027232D-04 -0.22926202D-04 -0.31010300D-05
  0.14182306D-14  0.47433915D-15 -0.11533564D-03  0.10656000D-03  0.19218535D-03
  0.28337719D-03 -0.12727917D-03 -0.23621699D-02 -0.25393943D-04  0.45713666D-14
 -0.16819153D-04 -0.27155198D-03 -0.96105842D-14 -0.13886368D-04  0.32355790D-03
 -0.20865717D-14  0.31379662D-03 -0.13241177D-03  0.50491954D-04  0.14423595D-03
 -0.19472790D-03  0.44842301D-14 -0.35550883D-14 -0.76637801D-05 -0.24558527D-04
  0.22060691D-04  0.24978367D-05  0.19839701D-14 -0.29997417D-14 -0.11741134D-03
MO    2     MO 0.0        OCC NO =    2.0000243  ORB. ENERGY =    0.000000
 -0.53354318D-01 -0.99463197D-01 -0.16810635D+00 -0.25269520D+00 -0.31039080D+00
 -0.26195888D+00 -0.98503381D-01 -0.88984395D-05 -0.66510323D-04 -0.24856426D-03
 -0.69345559D-03 -0.92903930D-03  0.10970222D-02 -0.42233318D-02 -0.54985514D-03
 -0.39498717D-04 -0.99051605D-13 -0.92867176D-13 -0.66126961D-13  0.72300003D-05
  0.67785848D-05  0.48267562D-05  0.24025768D-02  0.22525685D-02  0.16039630D-02
 -0.25859849D-13  0.19889949D-05  0.49296465D-04 -0.15232237D-13 -0.52034815D-05
 -0.60512142D-03 -0.58644291D-15 -0.19045097D-06 -0.47209091D-06  0.19003724D-03
 -0.14576845D-03 -0.44268787D-04  0.35727638D-14 -0.25379998D-13 -0.69995191D-05
  0.37919918D-04  0.14681098D-03 -0.18473089D-03 -0.10146346D-14  0.24488198D-13
 -0.66947086D-05  0.11037231D-04  0.85516109D-04 -0.96553340D-04  0.32073817D-15
 -0.30277797D-14 -0.20878369D-05  0.16030327D-14 -0.93326371D-06  0.99013283D-05
  0.15831204D-14 -0.93939214D-06 -0.17120800D-03 -0.63922185D-14  0.37391833D-05
  0.14150401D-03  0.16721339D-14 -0.54076511D-16 -0.15204178D-05  0.58647912D-04
 -0.70920901D-14  0.31370382D-06  0.10709196D-04  0.72543196D-14  0.42475497D-05
 -0.18665293D-03  0.30865949D-15 -0.12114779D+00 -0.22649800D+00 -0.39145587D+00
 -0.63316373D+00 -0.95700579D+00 -0.13179951D+01 -0.15405758D+01 -0.13314698D+01
 -0.62140388D+00 -0.84186590D-01  0.61575285D-03 -0.15086905D-02 -0.19394064D-01
 -0.70746758D-01 -0.23869781D+00 -0.52428749D+00 -0.67723643D+00  0.10883766D+00
  0.91301858D+00  0.50105282D+00 -0.12531661D-04 -0.14274341D-03 -0.29638677D-03
 -0.81498834D-03  0.10567260D-03  0.36850061D-02  0.91909905D-02 -0.76081688D-02
  0.27974230D-01  0.11461112D-02  0.42734997D-05  0.32163448D-09  0.42196615D-09
  0.46280555D-09  0.38078246D-09  0.20072686D-09  0.52225354D-10  0.63571816D-01
  0.83402607D-01  0.91474610D-01  0.75262554D-01  0.39674139D-01  0.10322465D-01
  0.66574762D+01  0.87342302D+01  0.95795602D+01  0.78817736D+01  0.41548229D+01
  0.10810068D+01  0.17689328D-14  0.63496961D-13  0.10073952D-12  0.11962509D-12
  0.18102429D-13 -0.13174609D-12  0.53175738D-06  0.19087767D-04  0.30283221D-04
  0.35960396D-04  0.54417557D-05 -0.39604078D-04  0.55917890D-04  0.20072079D-02
  0.31844857D-02  0.37814791D-02  0.57223746D-03 -0.41646370D-02  0.24917437D-11
  0.45949397D-03  0.48623901D-01  0.11328536D-13 -0.38060843D-05 -0.64494927D-03
 -0.12955594D-15  0.14669167D-07 -0.13883118D-05 -0.25511983D-03 -0.10215819D-03
  0.35727801D-03  0.17291432D-15  0.19962658D-13  0.64818977D-05  0.35816292D-03
 -0.38147259D-03  0.23309669D-04 -0.23595505D-14 -0.11255639D-13  0.70413349D-05
 -0.53377616D-05 -0.23227132D-04  0.28564893D-04 -0.26377363D-15 -0.32300864D-14
  0.30659216D-06  0.49466306D-14  0.23311555D-06 -0.69433728D-04 -0.47834202D-15
  0.16161894D-05  0.20748121D-03 -0.14361550D-13 -0.23155361D-05  0.81997098D-06
 -0.26642309D-14 -0.12916399D-15  0.18885960D-06 -0.19636517D-04  0.76652484D-15
  0.10129336D-06  0.25718990D-04 -0.37903287D-15 -0.66787217D-06  0.33190562D-04
  0.56080660D-16 -0.23513077D-04 -0.42406803D-04 -0.62528806D-04 -0.39241486D-03
 -0.44340659D-03  0.26941133D-05 -0.10676534D-13  0.19470101D-04  0.90031422D-04
  0.14761416D-13  0.41346740D-04  0.19908998D-04  0.11179653D-14  0.36662208D-04
 -0.12572046D-03 -0.10095164D-03  0.23076144D-04  0.77875498D-04  0.46487911D-14
 -0.42572683D-14  0.13054897D-03 -0.31535209D-04  0.22045455D-04  0.94897546D-05
  0.13762504D-14  0.63997782D-14 -0.64261497D-04 -0.21901906D-04 -0.39500989D-04
 -0.58244185D-04 -0.39669671D-03 -0.44801295D-03  0.33329104D-05 -0.10219455D-13
 -0.22175172D-04  0.91353160D-04  0.16303556D-13 -0.26739180D-04  0.29819454D-04
  0.30362475D-15 -0.35155686D-04 -0.12357931D-03 -0.99591807D-04  0.17365093D-04
  0.82226714D-04 -0.60147190D-14 -0.28384876D-14 -0.13053842D-03 -0.31117730D-04
  0.21620209D-04  0.94975213D-05 -0.17983385D-14  0.65767490D-14  0.64906515D-04
MO    3     MO 0.0        OCC NO =    2.0000101  ORB. ENERGY =    0.000000
 -0.15143993D+00 -0.28231454D+00 -0.47715004D+00 -0.71724551D+00 -0.88100764D+00
 -0.74353937D+00 -0.27959022D+00 -0.23223628D-04 -0.17358223D-03 -0.64871642D-03
 -0.18098178D-02 -0.24246569D-02  0.28630677D-02 -0.12249591D-01 -0.11548537D-03
 -0.10723511D-03  0.38510603D-12  0.36106138D-12  0.25709721D-12  0.15750164D-04
  0.14766780D-04  0.10514827D-04  0.37161558D-02  0.34841323D-02  0.24809097D-02
  0.59771463D-13 -0.33509311D-05  0.55393249D-03 -0.65873044D-14 -0.50458375D-05
 -0.15668890D-03 -0.67270400D-15 -0.22912157D-06 -0.38052082D-05  0.45329603D-03
 -0.44603560D-03 -0.72604282D-05  0.37199566D-14  0.89941542D-13 -0.53542921D-05
 -0.11582689D-03 -0.30956929D-05  0.11892258D-03 -0.32494096D-15 -0.81750210D-13
  0.12749879D-05  0.12951340D-04  0.59412647D-04 -0.72363987D-04 -0.13052532D-14
  0.36095314D-14  0.28995754D-06 -0.12520722D-13 -0.43574856D-05  0.71457427D-04
 -0.51221421D-14 -0.27038125D-06 -0.44949564D-03  0.42684307D-13  0.13342838D-04
  0.23512336D-03 -0.31998107D-14  0.53792667D-14 -0.31151620D-05  0.11877162D-03
  0.16478641D-13  0.40021616D-06 -0.22298649D-04 -0.32616441D-13  0.89452699D-05
 -0.33401620D-03 -0.14314053D-14  0.11206549D+00  0.20951771D+00  0.36210888D+00
  0.58569619D+00  0.88526019D+00  0.12191866D+01  0.14250806D+01  0.12316510D+01
  0.57481796D+00  0.77875221D-01 -0.56959058D-03  0.14082805D-02  0.18103304D-01
  0.66038249D-01  0.22281142D+00  0.48939385D+00  0.63216336D+00 -0.10159403D+00
 -0.85225316D+00 -0.46770554D+00  0.63413335D-05  0.72231730D-04  0.14997911D-03
  0.41240446D-03 -0.53472975D-04 -0.18647052D-02 -0.46508709D-02  0.38499235D-02
 -0.27761750D-01  0.11070989D-02  0.29084260D-04 -0.12396499D-08 -0.16263501D-08
 -0.17837541D-08 -0.14676191D-08 -0.77364536D-09 -0.20128797D-09  0.53028947D-01
  0.69570963D-01  0.76304290D-01  0.62780871D-01  0.33094506D-01  0.86105679D-02
  0.56957531D+01  0.74725042D+01  0.81957199D+01  0.67431914D+01  0.35546271D+01
  0.92484711D+00 -0.66126872D-14 -0.23736658D-12 -0.37658803D-12 -0.44718673D-12
 -0.67671139D-13  0.49249787D-12  0.36642148D-06  0.13152930D-04  0.20867454D-04
  0.24779461D-04  0.37497856D-05 -0.27290237D-04  0.36610124D-04  0.13141435D-02
  0.20849216D-02  0.24757804D-02  0.37465084D-03 -0.27266386D-02 -0.96004822D-11
  0.40349108D-03  0.43851169D-01 -0.11704078D-13 -0.35621125D-05 -0.11645292D-03
  0.24835844D-14 -0.28928811D-07  0.49568991D-06 -0.15130674D-03 -0.13807985D-03
  0.28938659D-03 -0.28385430D-15 -0.84419230D-13  0.89895295D-05 -0.11403853D-03
  0.47184393D-03 -0.35780540D-03  0.30960151D-14  0.54275436D-13 -0.11639559D-04
  0.62401638D-05  0.20933779D-05 -0.83335417D-05  0.46167930D-15  0.10873029D-14
  0.36981771D-06 -0.16008191D-13  0.12384714D-06 -0.43854744D-04  0.10198200D-13
  0.16703597D-05  0.20880932D-03  0.37826372D-13 -0.20419012D-05 -0.77245086D-04
  0.29828580D-14 -0.14505305D-14  0.21045475D-06 -0.12963028D-04 -0.50242361D-14
  0.25287096D-06  0.19696189D-04  0.93758275D-14 -0.88423520D-06  0.19192894D-04
 -0.50017372D-15  0.38622099D-04  0.69656546D-04  0.10270854D-03 -0.36155761D-03
 -0.14341164D-05  0.65486810D-05  0.12554950D-13  0.17117594D-03  0.20299729D-03
 -0.14603531D-13  0.13603567D-03  0.15666087D-03  0.61405656D-14  0.74027390D-04
 -0.58808815D-04 -0.23491609D-03  0.11684170D-03  0.11807439D-03 -0.12513894D-13
  0.91000017D-14  0.44459877D-03 -0.64141208D-04  0.99684542D-05  0.54172753D-04
  0.53051051D-14 -0.12616645D-13 -0.58232238D-04  0.39587693D-04  0.71398034D-04
  0.10527636D-03 -0.35770046D-03  0.12062869D-04  0.74554693D-05  0.10402596D-13
 -0.17491218D-03  0.20585851D-03 -0.16372671D-13 -0.11868447D-03  0.18372889D-03
  0.96331106D-14 -0.74642741D-04 -0.56598018D-04 -0.23339907D-03  0.10425414D-03
  0.12914493D-03  0.21084201D-13 -0.40841959D-15 -0.45233454D-03 -0.63811671D-04
  0.90932629D-05  0.54718408D-04 -0.54317706D-14 -0.11200012D-13  0.58308249D-04
MO    4     MO 0.0        OCC NO =    2.0000048  ORB. ENERGY =    0.000000
  0.28561417D+00  0.53244235D+00  0.89990011D+00  0.13527177D+01  0.16615714D+01
  0.14023077D+01  0.52730430D+00  0.30296943D-04  0.22645088D-03  0.84629865D-03
  0.23610415D-02  0.31631446D-02 -0.37350840D-02  0.23605211D-01 -0.50998483D-03
 -0.43448179D-05 -0.75645609D-11 -0.70922567D-11 -0.50501093D-11  0.14506198D-04
  0.13600483D-04  0.96843540D-05  0.42405627D-02  0.39757971D-02  0.28310044D-02
 -0.12652089D-11  0.84776685D-05 -0.37419577D-03 -0.13628008D-12  0.59172272D-05
 -0.30682052D-03 -0.94244548D-15 -0.69621839D-07 -0.39183073D-05 -0.11866880D-02
  0.61355527D-03  0.57313274D-03 -0.74964498D-14 -0.17061256D-11  0.59418104D-05
  0.18502788D-03  0.11336892D-03 -0.29839679D-03  0.10507401D-13  0.15822815D-11
 -0.12135407D-04  0.88310704D-05  0.37105501D-04 -0.45936572D-04 -0.29549641D-15
 -0.14066040D-12 -0.13605434D-05  0.21490122D-12 -0.32545416D-05  0.41362355D-03
  0.11422647D-12 -0.29870653D-06  0.19134941D-03 -0.75893015D-12  0.10062331D-04
 -0.14322201D-02 -0.14158486D-13 -0.85176679D-13 -0.10345546D-05 -0.67410589D-04
 -0.36539787D-12 -0.11219554D-05 -0.22499252D-04  0.62092791D-12  0.42256192D-05
  0.22473102D-03  0.89427336D-14  0.36855805D-01  0.68905640D-01  0.11908943D+00
  0.19262224D+00  0.29114207D+00  0.40096291D+00  0.46867682D+00  0.40506219D+00
  0.18904464D+00  0.25611400D-01 -0.18732547D-03  0.46225822D-03  0.59422829D-02
  0.21676594D-01  0.73136290D-01  0.16064011D+00  0.20750321D+00 -0.33347531D-01
 -0.27974614D+00 -0.15352108D+00  0.18371799D-05  0.20926622D-04  0.43451210D-04
  0.11947979D-03 -0.15491927D-04 -0.54023321D-03 -0.13474274D-02  0.11153809D-02
 -0.95168584D-02  0.13106329D-02  0.10626664D-03  0.25015056D-07  0.32818331D-07
  0.35994607D-07  0.29615278D-07  0.15611491D-07  0.40618162D-08  0.36132148D-01
  0.47403324D-01  0.51991187D-01  0.42776783D-01  0.22549488D-01  0.58669525D-02
  0.42428613D+01  0.55663927D+01  0.61051281D+01  0.50231155D+01  0.26479009D+01
  0.68893400D+00  0.13312221D-12  0.47785057D-11  0.75812191D-11  0.90024651D-11
  0.13623103D-11 -0.99146388D-11  0.35323255D-06  0.12679505D-04  0.20116353D-04
  0.23887552D-04  0.36148162D-05 -0.26307955D-04  0.31447330D-04  0.11288218D-02
  0.17909040D-02  0.21266436D-02  0.32181723D-03 -0.23421255D-02  0.19380359D-09
  0.28474017D-03  0.33091292D-01  0.45100572D-12 -0.22909761D-05 -0.34789070D-03
 -0.38796414D-13  0.20956154D-07 -0.46940575D-05 -0.13527801D-03 -0.23126695D-03
  0.36654496D-03  0.10554197D-13  0.16065700D-11  0.12498977D-04  0.98555336D-04
  0.33898588D-03 -0.43754122D-03 -0.96445303D-14 -0.10332949D-11 -0.79555089D-05
 -0.10368646D-04 -0.12209633D-04  0.22578280D-04 -0.71257954D-15 -0.89966676D-13
  0.39181442D-06  0.33511834D-12 -0.63795896D-06  0.53888326D-04 -0.18889884D-12
  0.14620002D-06 -0.27865049D-04 -0.81645617D-12  0.17676769D-05 -0.13379993D-03
 -0.91186388D-14  0.16917451D-13  0.63801660D-06 -0.36894878D-04  0.90005203D-13
  0.15489360D-06  0.28907902D-04 -0.14075755D-12 -0.20689434D-05  0.81776733D-04
 -0.28260334D-14 -0.30918048D-03 -0.55761973D-03 -0.82220996D-03 -0.52816974D-03
 -0.46354208D-03 -0.71579603D-05 -0.33084526D-12 -0.82737945D-03 -0.37338172D-03
  0.43687041D-12 -0.40048214D-03 -0.27466117D-03 -0.14606153D-12 -0.33309775D-04
 -0.10045445D-03  0.27122883D-03 -0.43172779D-03  0.16049896D-03  0.36706282D-12
 -0.14219238D-12 -0.95286769D-03  0.49432415D-04 -0.24109585D-04 -0.25322831D-04
 -0.98249495D-13  0.28958454D-12 -0.79078026D-04 -0.30676086D-03 -0.55325584D-03
 -0.81577542D-03 -0.54946924D-03 -0.48667461D-03 -0.70883157D-05 -0.33434480D-12
  0.82553088D-03 -0.37042280D-03  0.43864172D-12  0.41826321D-03 -0.26619883D-03
 -0.14623136D-12  0.37143263D-04 -0.10061640D-03  0.27215233D-03 -0.43838715D-03
  0.16623481D-03 -0.35545756D-12 -0.15622596D-12  0.94724251D-03  0.49608865D-04
 -0.25176079D-04 -0.24432786D-04  0.96828038D-13  0.28604682D-12  0.78804824D-04
MO    5     MO 0.0        OCC NO =    2.0000043  ORB. ENERGY =    0.000000
 -0.75292206D-09 -0.14035984D-08 -0.23722725D-08 -0.35659681D-08 -0.43801531D-08
 -0.36966947D-08 -0.13900537D-08 -0.80715873D-13 -0.60330114D-12 -0.22546741D-11
 -0.62901897D-11 -0.84271200D-11  0.99508574D-11 -0.62206339D-10  0.13824761D-11
  0.22595816D-13 -0.29441693D-02 -0.27603459D-02 -0.19655307D-02 -0.71337768D-14
 -0.66883692D-14 -0.47625173D-14 -0.10523946D-10 -0.98668687D-11 -0.70257983D-11
 -0.49224190D-03 -0.93394504D-13  0.10297951D-11 -0.49230116D-04  0.32813733D-15
  0.81038255D-12 -0.19276691D-06  0.47662279D-15  0.10780619D-13  0.31052209D-11
 -0.16254474D-11 -0.14797735D-11 -0.33760352D-05 -0.66433824D-03 -0.79862171D-14
 -0.50154222D-12 -0.29357986D-12  0.79512207D-12  0.35270754D-05  0.61508959D-03
  0.74945235D-13 -0.22789149D-13 -0.92312999D-13  0.11510215D-12  0.86859545D-07
 -0.53817396D-04  0.83854992D-14  0.83872772D-04  0.33952443D-14 -0.10536952D-11
  0.44233674D-04  0.22752292D-13 -0.53889997D-12 -0.29585199D-03 -0.32938025D-13
  0.36999854D-11 -0.59288585D-05 -0.33413376D-04 -0.12087665D-14  0.18729523D-12
 -0.14149418D-03  0.11398177D-14  0.53175915D-13  0.24173431D-03  0.24864819D-14
 -0.61506160D-12  0.39411691D-05 -0.18584191D-09 -0.34745017D-09 -0.60049717D-09
 -0.97127942D-09 -0.14680563D-08 -0.20218175D-08 -0.23632585D-08 -0.20424878D-08
 -0.95323968D-09 -0.12914306D-09  0.94457094D-12 -0.95509490D-12 -0.12277649D-10
 -0.44787098D-10 -0.15111056D-09 -0.33190659D-09 -0.42873279D-09  0.68901006D-10
  0.57799755D-09  0.31719760D-09 -0.35462949D-14 -0.40394504D-13 -0.83873551D-13
 -0.23063096D-12  0.29903953D-13  0.10428082D-11  0.26009292D-11 -0.21530116D-11
  0.20032758D-10 -0.33236597D-11 -0.29331546D-12  0.97155646D+01  0.12746268D+02
  0.13979898D+02  0.11502239D+02  0.60633262D+01  0.15775634D+01 -0.23954498D-10
 -0.31426939D-10 -0.34468551D-10 -0.28359685D-10 -0.14949613D-10 -0.38896082D-11
 -0.10420616D-07 -0.13671255D-07 -0.14994408D-07 -0.12336947D-07 -0.65033371D-08
 -0.16920460D-08  0.51729183D-04  0.18568517D-02  0.29459417D-02  0.34982154D-02
  0.52937220D-03 -0.38526717D-02  0.76504392D-16  0.27461734D-14  0.43568730D-14
  0.51736530D-14  0.78291007D-15 -0.56978728D-14 -0.78461266D-13 -0.28164167D-11
 -0.44683156D-11 -0.53059877D-11 -0.80293580D-12  0.58436163D-11  0.75267238D-01
 -0.25845156D-12 -0.81260481D-10  0.17211058D-03 -0.11447575D-13  0.92015346D-12
 -0.15201459D-04 -0.32309974D-15  0.13208536D-13  0.34049460D-12  0.58320235D-12
 -0.92369694D-12  0.41274148D-05  0.62526190D-03 -0.83170380D-14 -0.28145880D-12
 -0.79547743D-12  0.10769362D-11 -0.40221193D-05 -0.40080512D-03  0.52311860D-14
  0.28130930D-13  0.32868358D-13 -0.60999288D-13 -0.33308613D-06 -0.34033419D-04
  0.11642004D-14  0.13000832D-03  0.32717419D-14 -0.14014342D-12 -0.73687416D-04
  0.21891343D-14  0.88098439D-13 -0.31633755D-03 -0.12004360D-13  0.33233182D-12
 -0.39375098D-05  0.67234790D-05 -0.59359731D-15  0.94009666D-13  0.35144042D-04
  0.55844013D-16 -0.73112948D-13 -0.55314479D-04  0.17249479D-14 -0.20891605D-12
 -0.88969896D-06  0.79925782D-12  0.14414944D-11  0.21254827D-11  0.12528375D-11
  0.12046640D-11  0.18617612D-13 -0.12628300D-03  0.21394214D-11  0.98154288D-12
  0.16690206D-03  0.10075949D-11  0.68469445D-12 -0.56830416D-04  0.93046883D-13
  0.26068658D-12 -0.71246623D-12  0.11140677D-11 -0.40160150D-12  0.14183692D-03
 -0.54950659D-04  0.24668815D-11 -0.13340941D-12  0.61513619D-13  0.71895792D-13
 -0.38525665D-04  0.11192214D-03  0.19422696D-12  0.79707259D-12  0.14375532D-11
  0.21196714D-11  0.14163103D-11  0.12620788D-11  0.18180572D-13 -0.12919242D-03
 -0.21505065D-11  0.98471511D-12  0.16910543D-03 -0.11075150D-11  0.72644379D-12
 -0.57349954D-04 -0.10250126D-12  0.25526560D-12 -0.72920960D-12  0.11431802D-11
 -0.41397063D-12 -0.13909719D-03 -0.59730843D-04 -0.25037885D-11 -0.13481636D-12
  0.66992223D-13  0.67824138D-13  0.37851973D-04  0.11038044D-03 -0.20344184D-12
MO    6     MO 0.0        OCC NO =    2.0000000  ORB. ENERGY =    0.000000
 -0.81008303D-04 -0.15101580D-03 -0.25523727D-03 -0.38366922D-03 -0.47126892D-03
 -0.39773434D-03 -0.14955850D-03  0.49229088D-07  0.36795693D-06  0.13751391D-05
  0.38364239D-05  0.51397503D-05 -0.60690867D-05  0.16660641D-05 -0.30780725D-04
 -0.72444784D-05 -0.55490663D-12 -0.52026024D-12 -0.37045628D-12  0.10391537D-06
  0.97427266D-07  0.69374018D-07  0.14565628D-04  0.13656202D-04  0.97240296D-05
 -0.98740765D-13 -0.40616026D-06 -0.38213815D-04 -0.85174787D-14  0.87417315D-07
  0.41070118D-05  0.99098881D-17 -0.79446516D-08 -0.38991784D-06  0.14529210D-05
  0.89098204D-05 -0.10362741D-04 -0.65937952D-16 -0.14114069D-12 -0.30655480D-06
  0.63105673D-05  0.43060879D-05 -0.10616655D-04  0.37319906D-15  0.12730813D-12
 -0.30635174D-06  0.63680716D-06 -0.91566795D-06  0.27886079D-06 -0.38123554D-15
 -0.86176942D-14  0.13928150D-07  0.17293985D-13 -0.17551124D-06  0.21217869D-05
  0.31832185D-14  0.97037919D-07  0.39160713D-06 -0.55065173D-13  0.42949579D-06
 -0.67569679D-05 -0.37947557D-15 -0.62646814D-14 -0.88659416D-07 -0.38308927D-06
 -0.28024566D-13  0.17976516D-08  0.61624611D-06  0.46818610D-13  0.26418060D-06
  0.53302169D-06  0.84635128D-15  0.58266941D+00  0.10893592D+01  0.18827364D+01
  0.30452486D+01  0.46027913D+01  0.63389965D+01  0.74095150D+01  0.64038039D+01
  0.29886886D+01  0.40490173D+00 -0.29615096D-02 -0.29343297D-04 -0.37720513D-03
 -0.13759901D-02 -0.46425565D-02 -0.10197137D-01 -0.13171920D-01  0.21168396D-02
  0.17757768D-01  0.97452341D-02  0.19753549D-06  0.22500520D-05  0.46719190D-05
  0.12846591D-04 -0.16657080D-05 -0.58086433D-04 -0.14487679D-03  0.11992691D-03
  0.13973220D-04 -0.17647498D-04  0.32778057D-05  0.18217690D-08  0.23900573D-08
  0.26213756D-08  0.21567889D-08  0.11369365D-08  0.29580948D-09  0.78095218D-04
  0.10245648D-03  0.11237259D-03  0.92456782D-04  0.48737958D-04  0.12680700D-04
  0.11194464D-01  0.14686501D-01  0.16107913D-01  0.13253105D-01  0.69862836D-02
  0.18176996D-02  0.97693334D-14  0.35067639D-12  0.55635688D-12  0.66065673D-12
  0.99974776D-13 -0.72759769D-12  0.80932009D-08  0.29051055D-06  0.46090228D-06
  0.54730732D-06  0.82822023D-07 -0.60276316D-06  0.70487141D-06  0.25301804D-04
  0.40141946D-04  0.47667330D-04  0.72133234D-05 -0.52497216D-04  0.14113198D-10
  0.13038004D-05  0.16288862D-03  0.28285298D-13 -0.38343827D-07  0.52664462D-05
 -0.29485793D-14 -0.13521780D-08 -0.34077761D-07 -0.58164766D-05 -0.37570470D-05
  0.95735236D-05  0.41103507D-15  0.12240270D-12  0.34180615D-06  0.91720431D-05
 -0.15972250D-04  0.68002066D-05 -0.16409687D-14 -0.76467782D-13  0.44489854D-06
  0.59368169D-06  0.49053419D-06 -0.10842159D-05  0.58654813D-17 -0.53647116D-14
  0.92438412D-09  0.24624561D-13  0.83398382D-07 -0.69843851D-05 -0.12793021D-13
  0.71542906D-07  0.12191366D-04 -0.61080664D-13 -0.32173805D-06  0.87617894D-05
 -0.13490025D-14  0.15998800D-14  0.60788691D-08 -0.58982379D-07  0.69872985D-14
  0.72605686D-08 -0.78560717D-08 -0.11786939D-13 -0.25497176D-07  0.18480321D-06
 -0.56170081D-15 -0.12329148D-05 -0.22236126D-05 -0.32787155D-05  0.31132759D-05
  0.17407753D-04  0.22313586D-06 -0.27814041D-13 -0.58781806D-05 -0.14776267D-05
  0.37452300D-13  0.12874211D-05 -0.19483198D-05 -0.96538481D-14  0.77532854D-06
  0.25043703D-05 -0.23887687D-05 -0.13246046D-05  0.37133732D-05  0.29420148D-13
 -0.90887517D-14 -0.23447725D-05 -0.30994247D-07 -0.41342580D-06  0.44442004D-06
 -0.51627174D-14  0.21545996D-13 -0.18732180D-05 -0.12391115D-05 -0.22347887D-05
 -0.32951946D-05  0.29286295D-05  0.17405217D-04  0.25216783D-06 -0.27929649D-13
  0.57954352D-05 -0.14784333D-05  0.39262847D-13 -0.71533662D-06 -0.88854456D-06
 -0.89583156D-14 -0.74102984D-06  0.25319824D-05 -0.24889454D-05 -0.18896176D-05
  0.43785630D-05 -0.33405436D-13 -0.56498127D-14  0.18103724D-05 -0.45537204D-07