 Entering Gaussian System, Link 0=/home/bruns/programas/chemistry/gaussian/g09/g09
 Input=GAUSSIAN.com
 Output=GAUSSIAN.log
 Initial command:
 /home/bruns/programas/chemistry/gaussian/g09/l1.exe /home/bruns/programas/chemistry/gaussian/work/Gau-29531.inp -scrdir=/home/bruns/programas/chemistry/gaussian/work/
 Entering Link 1 = /home/bruns/programas/chemistry/gaussian/g09/l1.exe PID=     29533.
  
 Copyright (c) 1988,1990,1992,1993,1995,1998,2003,2009,2010,
            Gaussian, Inc.  All Rights Reserved.
  
 This is part of the Gaussian(R) 09 program.  It is based on
 the Gaussian(R) 03 system (copyright 2003, Gaussian, Inc.),
 the Gaussian(R) 98 system (copyright 1998, Gaussian, Inc.),
 the Gaussian(R) 94 system (copyright 1995, Gaussian, Inc.),
 the Gaussian 92(TM) system (copyright 1992, Gaussian, Inc.),
 the Gaussian 90(TM) system (copyright 1990, Gaussian, Inc.),
 the Gaussian 88(TM) system (copyright 1988, Gaussian, Inc.),
 the Gaussian 86(TM) system (copyright 1986, Carnegie Mellon
 University), and the Gaussian 82(TM) system (copyright 1983,
 Carnegie Mellon University). Gaussian is a federally registered
 trademark of Gaussian, Inc.
  
 This software contains proprietary and confidential information,
 including trade secrets, belonging to Gaussian, Inc.
  
 This software is provided under written license and may be
 used, copied, transmitted, or stored only in accord with that
 written license.
  
 The following legend is applicable only to US Government
 contracts under FAR:
  
                    RESTRICTED RIGHTS LEGEND
  
 Use, reproduction and disclosure by the US Government is
 subject to restrictions as set forth in subparagraphs (a)
 and (c) of the Commercial Computer Software - Restricted
 Rights clause in FAR 52.227-19.
  
 Gaussian, Inc.
 340 Quinnipiac St., Bldg. 40, Wallingford CT 06492
  
  
 ---------------------------------------------------------------
 Warning -- This program may not be used in any manner that
 competes with the business of Gaussian, Inc. or will provide
 assistance to any competitor of Gaussian, Inc.  The licensee
 of this program is prohibited from giving any competitor of
 Gaussian, Inc. access to this program.  By using this program,
 the user acknowledges that Gaussian, Inc. is engaged in the
 business of creating and licensing software in the field of
 computational chemistry and represents and warrants to the
 licensee that it is not a competitor of Gaussian, Inc. and that
 it will not use this program in any manner prohibited above.
 ---------------------------------------------------------------
  

 Cite this work as:
 Gaussian 09, Revision B.01,
 M. J. Frisch, G. W. Trucks, H. B. Schlegel, G. E. Scuseria, 
 M. A. Robb, J. R. Cheeseman, G. Scalmani, V. Barone, B. Mennucci, 
 G. A. Petersson, H. Nakatsuji, M. Caricato, X. Li, H. P. Hratchian, 
 A. F. Izmaylov, J. Bloino, G. Zheng, J. L. Sonnenberg, M. Hada, 
 M. Ehara, K. Toyota, R. Fukuda, J. Hasegawa, M. Ishida, T. Nakajima, 
 Y. Honda, O. Kitao, H. Nakai, T. Vreven, J. A. Montgomery, Jr., 
 J. E. Peralta, F. Ogliaro, M. Bearpark, J. J. Heyd, E. Brothers, 
 K. N. Kudin, V. N. Staroverov, T. Keith, R. Kobayashi, J. Normand, 
 K. Raghavachari, A. Rendell, J. C. Burant, S. S. Iyengar, J. Tomasi, 
 M. Cossi, N. Rega, J. M. Millam, M. Klene, J. E. Knox, J. B. Cross, 
 V. Bakken, C. Adamo, J. Jaramillo, R. Gomperts, R. E. Stratmann, 
 O. Yazyev, A. J. Austin, R. Cammi, C. Pomelli, J. W. Ochterski, 
 R. L. Martin, K. Morokuma, V. G. Zakrzewski, G. A. Voth, 
 P. Salvador, J. J. Dannenberg, S. Dapprich, A. D. Daniels, 
 O. Farkas, J. B. Foresman, J. V. Ortiz, J. Cioslowski, 
 and D. J. Fox, Gaussian, Inc., Wallingford CT, 2010.
 
 ******************************************
 Gaussian 09:  EM64L-G09RevB.01 12-Aug-2010
                17-Nov-2021 
 ******************************************
 %nproc=8
 Will use up to    8 processors via shared memory.
 %mem=8GB
 -----------------------------------------------------
 # qcisd/aug-cc-pvtz nosymm density=current output=wfn
 -----------------------------------------------------
 1/30=1,38=1/1;
 2/12=2,15=1,17=6,18=5,40=1/2;
 3/5=16,6=1,7=10,11=9,16=1,25=1,30=1,71=1/1,2,3;
 4//1;
 5/5=2,38=5/2;
 8/6=4,9=120000,10=1/1,4;
 9/5=8,15=1/13;
 11/28=-7,31=1,32=3,42=3/11;
 10/5=6,13=10,31=1/2;
 6/7=2,8=2,9=2,10=2,22=-1,31=1/1;
 99/5=1,6=1100,9=1/99;
 -----------------
 h2cs-wavefunction
 -----------------
 Symbolic Z-matrix:
 Charge =  0 Multiplicity = 1
 C                     0.        0.       -0.55529 
 S                     0.        0.        1.06037 
 H                     0.       -0.92228  -1.12899 
 H                    -0.01      0.92228  -1.12899 
 
                          Input orientation:                          
 ---------------------------------------------------------------------
 Center     Atomic      Atomic             Coordinates (Angstroms)
 Number     Number       Type             X           Y           Z
 ---------------------------------------------------------------------
      1          6           0        0.000000    0.000000   -0.555291
      2         16           0        0.000000    0.000000    1.060374
      3          1           0        0.000000   -0.922280   -1.128992
      4          1           0       -0.010000    0.922280   -1.128992
 ---------------------------------------------------------------------
                    Distance matrix (angstroms):
                    1          2          3          4
     1  C    0.000000
     2  S    1.615665   0.000000
     3  H    1.086155   2.375694   0.000000
     4  H    1.086201   2.375715   1.844587   0.000000
 Symmetry turned off by external request.
 Stoichiometry    CH2S
 Framework group  C1[X(CH2S)]
 Deg. of freedom     6
 Full point group                 C1      NOp   1
 Rotational constants (GHZ):    294.7501367     17.6286919     16.6338816
 Standard basis: Aug-CC-pVTZ (5D, 7F)
 Integral buffers will be    131072 words long.
 Raffenetti 1 integral format.
 Two-electron integral symmetry is turned off.
   142 basis functions,   240 primitive gaussians,   164 cartesian basis functions
    12 alpha electrons       12 beta electrons
       nuclear repulsion energy        44.7038223576 Hartrees.
 NAtoms=    4 NActive=    4 NUniq=    4 SFac= 1.00D+00 NAtFMM=   50 NAOKFM=F Big=F
 One-electron integrals computed using PRISM.
 NBasis=   142 RedAO= T  NBF=   142
 NBsUse=   142 1.00D-06 NBFU=   142
 Harris functional with IExCor=  205 diagonalized for initial guess.
 ExpMin= 2.53D-02 ExpMax= 3.74D+05 ExpMxC= 1.18D+03 IAcc=3 IRadAn=         0 AccDes= 0.00D+00
 HarFok:  IExCor=  205 AccDes= 0.00D+00 IRadAn=         0 IDoV= 1
 ScaDFX=  1.000000  1.000000  1.000000  1.000000
 FoFCou: FMM=F IPFlag=           0 FMFlag=      100000 FMFlg1=           0
         NFxFlg=           0 DoJE=T BraDBF=F KetDBF=T FulRan=T
         Omega=  0.000000  0.000000  1.000000  0.000000  0.000000 ICntrl=     500 IOpCl=  0
         NMat0=    1 NMatS0=    1 NMatT0=    0 NMatD0=    1 NMtDS0=    0 NMtDT0=    0
         I1Cent=           4 NGrid=           0.
 Symmetry not used in FoFCou.
 Requested convergence on RMS density matrix=1.00D-08 within 128 cycles.
 Requested convergence on MAX density matrix=1.00D-06.
 Requested convergence on             energy=1.00D-06.
 No special actions if energy rises.
 Keep R1 ints in memory in canonical form, NReq=93884347.
 SCF Done:  E(RHF) =  -436.557585571     A.U. after   11 cycles
             Convg  =    0.6217D-08             -V/T =  2.0003
 ExpMin= 2.53D-02 ExpMax= 3.74D+05 ExpMxC= 1.18D+03 IAcc=3 IRadAn=         5 AccDes= 0.00D+00
 HarFok:  IExCor=  205 AccDes= 0.00D+00 IRadAn=         5 IDoV=-2
 ScaDFX=  1.000000  1.000000  1.000000  1.000000
 Range of M.O.s used for correlation:     7   142
 NBasis=   142 NAE=    12 NBE=    12 NFC=     6 NFV=     0
 NROrb=    136 NOA=     6 NOB=     6 NVA=   130 NVB=   130

 **** Warning!!: The largest alpha MO coefficient is  0.44105503D+02

 Semi-Direct transformation.
 ModeAB=           2 MOrb=             6 LenV=    1073081967
 LASXX=      7286295 LTotXX=     7286295 LenRXX=     7286295
 LTotAB=     7445736 MaxLAS=    11040480 LenRXY=    11040480
 NonZer=    14572590 LenScr=    22628352 LnRSAI=           0
 LnScr1=           0 LExtra=           0 Total=     40955127
 MaxDsk=          -1 SrtSym=           F ITran=            4
 JobTyp=0 Pass  1:  I=   1 to   6.
 (rs|ai) integrals will be sorted in core.
 Spin components of T(2) and E(2):
     alpha-alpha T2 =       0.1684005593D-01 E2=     -0.3867690730D-01
     alpha-beta  T2 =       0.1052174830D+00 E2=     -0.2635168462D+00
     beta-beta   T2 =       0.1684005593D-01 E2=     -0.3867690730D-01
 ANorm=    0.1067191452D+01
 E2 =    -0.3408706608D+00 EUMP2 =    -0.43689845623162D+03
 R2 and R3 integrals will be kept in memory, NReq=   185320410.
 Iterations=  50 Convergence= 0.100D-07
 Iteration Nr.   1
 **********************
 DD1Dir will call FoFMem   1 times, MxPair=        42
 NAB=    21 NAA=     0 NBB=     0.
 MP4(R+Q)=  0.11663238D-01
 E3=       -0.22812074D-01        EUMP3=      -0.43692126831D+03
 E4(DQ)=    0.16433603D-02        UMP4(DQ)=   -0.43691962494D+03
 E4(SDQ)=  -0.18392928D-02        UMP4(SDQ)=  -0.43692310760D+03
 DE(Corr)= -0.35201950     E(Corr)=     -436.90960507    
 NORM(A)=   0.10738371D+01
 Iteration Nr.   2
 **********************
 DD1Dir will call FoFMem   1 times, MxPair=        42
 NAB=    21 NAA=     0 NBB=     0.
 DE(Corr)= -0.36344080     E(CORR)=     -436.92102637     Delta=-1.14D-02
 NORM(A)=   0.10812045D+01
 Iteration Nr.   3
 **********************
 DD1Dir will call FoFMem   1 times, MxPair=        42
 NAB=    21 NAA=     0 NBB=     0.
 DE(Corr)= -0.36436785     E(CORR)=     -436.92195342     Delta=-9.27D-04
 NORM(A)=   0.10836307D+01
 Iteration Nr.   4
 **********************
 DD1Dir will call FoFMem   1 times, MxPair=        42
 NAB=    21 NAA=     0 NBB=     0.
 DE(Corr)= -0.36569584     E(CORR)=     -436.92328141     Delta=-1.33D-03
 NORM(A)=   0.10846216D+01
 Iteration Nr.   5
 **********************
 DD1Dir will call FoFMem   1 times, MxPair=        42
 NAB=    21 NAA=     0 NBB=     0.
 DE(Corr)= -0.36589336     E(CORR)=     -436.92347893     Delta=-1.98D-04
 NORM(A)=   0.10849831D+01
 Iteration Nr.   6
 **********************
 DD1Dir will call FoFMem   1 times, MxPair=        42
 NAB=    21 NAA=     0 NBB=     0.
 DE(Corr)= -0.36592538     E(CORR)=     -436.92351095     Delta=-3.20D-05
 NORM(A)=   0.10849978D+01
 Iteration Nr.   7
 **********************
 DD1Dir will call FoFMem   1 times, MxPair=        42
 NAB=    21 NAA=     0 NBB=     0.
 DE(Corr)= -0.36592678     E(CORR)=     -436.92351235     Delta=-1.40D-06
 NORM(A)=   0.10850094D+01
 Iteration Nr.   8
 **********************
 DD1Dir will call FoFMem   1 times, MxPair=        42
 NAB=    21 NAA=     0 NBB=     0.
 DE(Corr)= -0.36592382     E(CORR)=     -436.92350939     Delta= 2.96D-06
 NORM(A)=   0.10850085D+01
 Iteration Nr.   9
 **********************
 DD1Dir will call FoFMem   1 times, MxPair=        42
 NAB=    21 NAA=     0 NBB=     0.
 DE(Corr)= -0.36592627     E(CORR)=     -436.92351184     Delta=-2.45D-06
 NORM(A)=   0.10850097D+01
 Iteration Nr.  10
 **********************
 DD1Dir will call FoFMem   1 times, MxPair=        42
 NAB=    21 NAA=     0 NBB=     0.
 DE(Corr)= -0.36592595     E(CORR)=     -436.92351152     Delta= 3.20D-07
 NORM(A)=   0.10850105D+01
 Iteration Nr.  11
 **********************
 DD1Dir will call FoFMem   1 times, MxPair=        42
 NAB=    21 NAA=     0 NBB=     0.
 DE(Corr)= -0.36592647     E(CORR)=     -436.92351204     Delta=-5.24D-07
 NORM(A)=   0.10850110D+01
 Iteration Nr.  12
 **********************
 DD1Dir will call FoFMem   1 times, MxPair=        42
 NAB=    21 NAA=     0 NBB=     0.
 DE(Corr)= -0.36592658     E(CORR)=     -436.92351215     Delta=-1.08D-07
 NORM(A)=   0.10850115D+01
 Iteration Nr.  13
 **********************
 DD1Dir will call FoFMem   1 times, MxPair=        42
 NAB=    21 NAA=     0 NBB=     0.
 DE(Corr)= -0.36592667     E(CORR)=     -436.92351224     Delta=-9.01D-08
 NORM(A)=   0.10850116D+01
 Iteration Nr.  14
 **********************
 DD1Dir will call FoFMem   1 times, MxPair=        42
 NAB=    21 NAA=     0 NBB=     0.
 DE(Corr)= -0.36592670     E(CORR)=     -436.92351227     Delta=-2.92D-08
 NORM(A)=   0.10850117D+01
 Iteration Nr.  15
 **********************
 DD1Dir will call FoFMem   1 times, MxPair=        42
 NAB=    21 NAA=     0 NBB=     0.
 DE(Corr)= -0.36592671     E(CORR)=     -436.92351228     Delta=-9.01D-09
 NORM(A)=   0.10850117D+01
 Iteration Nr.  16
 **********************
 DD1Dir will call FoFMem   1 times, MxPair=        42
 NAB=    21 NAA=     0 NBB=     0.
 DE(Corr)= -0.36592671     E(CORR)=     -436.92351228     Delta=-1.44D-09
 NORM(A)=   0.10850117D+01
 Dominant configurations:
 ***********************
 Spin Case        I    J    A    B          Value
   ABAB          11   11   14   14      -0.114474D+00
 Largest amplitude= 1.14D-01

 Z-AMPLITUDE ITERATIONS

 Iteration Nr.   1
 **********************
 DD1Dir will call FoFMem   1 times, MxPair=        42
 NAB=    21 NAA=     0 NBB=     0.
 DE(Z)  -0.34991003D+00          E(Z)=    -0.43690749560D+03
 NORM(A)=   0.10850005D+01
 Iteration Nr.   2
 **********************
 DD1Dir will call FoFMem   1 times, MxPair=        42
 NAB=    21 NAA=     0 NBB=     0.
 DE(Z)  -0.34990953D+00          E(Z)=    -0.43690749510D+03
 NORM(A)=   0.10851102D+01
 Iteration Nr.   3
 **********************
 DD1Dir will call FoFMem   1 times, MxPair=        42
 NAB=    21 NAA=     0 NBB=     0.
 DE(Z)  -0.34991461D+00          E(Z)=    -0.43690750018D+03
 NORM(A)=   0.10849950D+01
 Iteration Nr.   4
 **********************
 DD1Dir will call FoFMem   1 times, MxPair=        42
 NAB=    21 NAA=     0 NBB=     0.
 DE(Z)  -0.34990925D+00          E(Z)=    -0.43690749483D+03
 NORM(A)=   0.10851483D+01
 Iteration Nr.   5
 **********************
 DD1Dir will call FoFMem   1 times, MxPair=        42
 NAB=    21 NAA=     0 NBB=     0.
 DE(Z)  -0.34991656D+00          E(Z)=    -0.43690750213D+03
 NORM(A)=   0.10767965D+01
 Iteration Nr.   6
 **********************
 DD1Dir will call FoFMem   1 times, MxPair=        42
 NAB=    21 NAA=     0 NBB=     0.
 DE(Z)  -0.34950797D+00          E(Z)=    -0.43690709354D+03
 NORM(A)=   0.10767907D+01
 Iteration Nr.   7
 **********************
 DD1Dir will call FoFMem   1 times, MxPair=        42
 NAB=    21 NAA=     0 NBB=     0.
 DE(Z)  -0.34950832D+00          E(Z)=    -0.43690709389D+03
 NORM(A)=   0.10767900D+01
 Iteration Nr.   8
 **********************
 DD1Dir will call FoFMem   1 times, MxPair=        42
 NAB=    21 NAA=     0 NBB=     0.
 DE(Z)  -0.34950866D+00          E(Z)=    -0.43690709423D+03
 NORM(A)=   0.10767901D+01
 Iteration Nr.   9
 **********************
 DD1Dir will call FoFMem   1 times, MxPair=        42
 NAB=    21 NAA=     0 NBB=     0.
 DE(Z)  -0.34950868D+00          E(Z)=    -0.43690709425D+03
 NORM(A)=   0.10767900D+01
 Iteration Nr.  10
 **********************
 DD1Dir will call FoFMem   1 times, MxPair=        42
 NAB=    21 NAA=     0 NBB=     0.
 DE(Z)  -0.34950868D+00          E(Z)=    -0.43690709425D+03
 NORM(A)=   0.10767899D+01
 Iteration Nr.  11
 **********************
 DD1Dir will call FoFMem   1 times, MxPair=        42
 NAB=    21 NAA=     0 NBB=     0.
 DE(Z)  -0.34950867D+00          E(Z)=    -0.43690709424D+03
 NORM(A)=   0.10767899D+01
 Iteration Nr.  12
 **********************
 DD1Dir will call FoFMem   1 times, MxPair=        42
 NAB=    21 NAA=     0 NBB=     0.
 DE(Z)  -0.34950867D+00          E(Z)=    -0.43690709424D+03
 NORM(A)=   0.10767899D+01
 Discarding MO integrals.
          Differentiating once with respect to electric field.
                with respect to dipole field.
          Electric field/nuclear overlap derivatives assumed to be zero.
          Keep R1 ints in memory in canonical form, NReq=93478140.
          There are     1 degrees of freedom in the 1st order CPHF.  IDoFFX=0.
 LinEq1:  Iter=  0 NonCon=     1 RMS=2.95D-03 Max=4.36D-02
 AX will form     1 AO Fock derivatives at one time.
 LinEq1:  Iter=  1 NonCon=     1 RMS=9.86D-04 Max=1.21D-02
 LinEq1:  Iter=  2 NonCon=     1 RMS=4.76D-04 Max=1.32D-02
 LinEq1:  Iter=  3 NonCon=     1 RMS=1.60D-04 Max=2.47D-03
 LinEq1:  Iter=  4 NonCon=     1 RMS=3.99D-05 Max=5.26D-04
 LinEq1:  Iter=  5 NonCon=     1 RMS=8.74D-06 Max=9.98D-05
 LinEq1:  Iter=  6 NonCon=     1 RMS=1.55D-06 Max=2.20D-05
 LinEq1:  Iter=  7 NonCon=     1 RMS=2.01D-07 Max=2.70D-06
 LinEq1:  Iter=  8 NonCon=     1 RMS=2.32D-08 Max=2.27D-07
 LinEq1:  Iter=  9 NonCon=     1 RMS=3.73D-09 Max=3.76D-08
 LinEq1:  Iter= 10 NonCon=     1 RMS=5.52D-10 Max=5.76D-09
 LinEq1:  Iter= 11 NonCon=     1 RMS=1.01D-10 Max=2.35D-09
 LinEq1:  Iter= 12 NonCon=     0 RMS=2.73D-11 Max=3.09D-10
 Linear equations converged to 1.000D-10 1.000D-09 after    12 iterations.
 End of Minotr Frequency-dependent properties file   721 does not exist.
 End of Minotr Frequency-dependent properties file   722 does not exist.

 **********************************************************************

            Population analysis using the QCI/CC density.

 **********************************************************************

     Natural Orbital Coefficients:
                           1         2         3         4         5
     Eigenvalues --     2.00003   2.00002   2.00001   2.00000   2.00000
   1 1   C  1S          0.00000  -0.15978  -0.45342   0.85503  -0.02139
   2        2S          0.00000   0.00306   0.00798  -0.01041   0.00026
   3        3S          0.00000  -0.00638  -0.01851   0.03566  -0.00089
   4        4S          0.00000  -0.00360  -0.00075  -0.00333   0.00014
   5        5S          0.00000  -0.00058  -0.00157  -0.00006   0.00000
   6        6PX         0.00000   0.00000  -0.00001  -0.00003  -0.00135
   7        6PY        -0.00066   0.00000   0.00000   0.00000  -0.00001
   8        6PZ         0.00000   0.00110   0.00170   0.00194  -0.00005
   9        7PX         0.00001   0.00000   0.00001  -0.00004  -0.00115
  10        7PY        -0.00139   0.00000   0.00000   0.00000  -0.00001
  11        7PZ         0.00000   0.00011   0.00129  -0.00087   0.00003
  12        8PX        -0.00009  -0.00001  -0.00001  -0.00001  -0.00048
  13        8PY         0.01585   0.00000   0.00000   0.00000   0.00000
  14        8PZ         0.00000  -0.00595  -0.00154  -0.00302   0.00015
  15        9PX        -0.00001   0.00000   0.00000   0.00000  -0.00001
  16        9PY         0.00134   0.00000   0.00000   0.00000   0.00000
  17        9PZ         0.00000  -0.00002  -0.00017  -0.00018   0.00001
  18       10D 0        0.00000  -0.00002   0.00000   0.00030  -0.00001
  19       10D+1        0.00000   0.00000   0.00000   0.00000  -0.00020
  20       10D-1       -0.00032   0.00000   0.00000   0.00000   0.00000
  21       10D+2        0.00000   0.00010   0.00027  -0.00054   0.00001
  22       10D-2        0.00000   0.00000   0.00000  -0.00001   0.00000
  23       11D 0        0.00000  -0.00083   0.00054  -0.00135   0.00003
  24       11D+1        0.00000   0.00000   0.00000   0.00004   0.00160
  25       11D-1        0.00014   0.00000   0.00000   0.00000   0.00001
  26       11D+2        0.00000  -0.00028  -0.00029   0.00019  -0.00001
  27       11D-2       -0.00001   0.00000   0.00000   0.00000   0.00000
  28       12D 0        0.00000  -0.00330  -0.00247  -0.00157   0.00005
  29       12D+1        0.00002  -0.00002  -0.00001  -0.00003  -0.00106
  30       12D-1       -0.00424   0.00000   0.00000   0.00000  -0.00001
  31       12D+2        0.00000  -0.00147  -0.00092  -0.00056   0.00001
  32       12D-2       -0.00004  -0.00002  -0.00001  -0.00001   0.00000
  33       13F 0        0.00000   0.00001   0.00009   0.00052  -0.00001
  34       13F+1        0.00000   0.00000   0.00000   0.00000  -0.00015
  35       13F-1       -0.00036   0.00000   0.00000   0.00000   0.00000
  36       13F+2        0.00000  -0.00010  -0.00022   0.00053  -0.00001
  37       13F-2        0.00000   0.00000   0.00000   0.00001   0.00000
  38       13F+3        0.00000   0.00000   0.00000   0.00001   0.00002
  39       13F-3        0.00001   0.00000   0.00000   0.00000   0.00000
  40       14F 0        0.00000   0.00077   0.00156  -0.00089   0.00002
  41       14F+1       -0.00001   0.00000   0.00000   0.00003   0.00130
  42       14F-1        0.00197   0.00000   0.00000   0.00000   0.00001
  43       14F+2        0.00000   0.00067   0.00106  -0.00084   0.00002
  44       14F-2        0.00001   0.00001   0.00001  -0.00001   0.00000
  45       14F+3        0.00000   0.00000  -0.00001   0.00001   0.00045
  46       14F-3       -0.00017   0.00000   0.00000   0.00000   0.00001
  47 2   S  1S          0.00000  -0.20712   0.19162   0.06298  -0.00193
  48        2S          0.00000   0.70744  -0.66046  -0.21664   0.00666
  49        3S          0.00000  -0.02027   0.01026   0.00297  -0.00008
  50        4S          0.00000   0.04744  -0.04709  -0.01613   0.00050
  51        5S          0.00000   0.00733   0.00708   0.00838  -0.00030
  52        6S          0.00000   0.00006   0.00039   0.00141  -0.00006
  53        7PX        -0.00530   0.00083   0.00226   0.02565   0.97113
  54        7PY         0.97716   0.00000   0.00001   0.00014   0.00526
  55        7PZ         0.00000   0.66578   0.56954   0.42403  -0.01308
  56        8PX         0.00011  -0.00001  -0.00003  -0.00029  -0.01103
  57        8PY        -0.02057   0.00000   0.00000   0.00000  -0.00006
  58        8PZ         0.00000  -0.01193  -0.00781  -0.00671   0.00021
  59        9PX        -0.00030   0.00005   0.00014   0.00166   0.06293
  60        9PY         0.05563   0.00000   0.00000   0.00001   0.00034
  61        9PZ         0.00000   0.04067   0.03668   0.02766  -0.00086
  62       10PX         0.00003   0.00001   0.00002   0.00004   0.00191
  63       10PY        -0.00639   0.00000   0.00000   0.00000   0.00001
  64       10PZ         0.00000  -0.00716  -0.00129  -0.00386   0.00014
  65       11PX         0.00001   0.00000   0.00000  -0.00002  -0.00070
  66       11PY        -0.00127   0.00000   0.00000   0.00000   0.00000
  67       11PZ         0.00000  -0.00006   0.00002  -0.00022   0.00001
  68       12D 0        0.00000   0.00216   0.00175   0.00222  -0.00007
  69       12D+1       -0.00001   0.00000   0.00000   0.00005   0.00218
  70       12D-1        0.00269   0.00000   0.00000   0.00000   0.00001
  71       12D+2        0.00000  -0.00053  -0.00005   0.00034  -0.00001
  72       12D-2        0.00000  -0.00001   0.00000   0.00000   0.00000
  73       13D 0        0.00000   0.00002  -0.00031  -0.00038   0.00001
  74       13D+1        0.00000   0.00000   0.00000   0.00000  -0.00020
  75       13D-1       -0.00054   0.00000   0.00000   0.00000   0.00000
  76       13D+2        0.00000   0.00037  -0.00029  -0.00012   0.00000
  77       13D-2        0.00000   0.00000   0.00000   0.00000   0.00000
  78       14D 0        0.00000   0.00096  -0.00028   0.00076  -0.00002
  79       14D+1        0.00000  -0.00001  -0.00001  -0.00001  -0.00066
  80       14D-1       -0.00058   0.00000   0.00000   0.00000   0.00000
  81       14D+2        0.00000   0.00035   0.00008   0.00004   0.00000
  82       14D-2        0.00000   0.00000   0.00000   0.00000   0.00000
  83       15F 0        0.00000  -0.00018  -0.00011   0.00014   0.00000
  84       15F+1        0.00000   0.00000   0.00000  -0.00001  -0.00033
  85       15F-1       -0.00014   0.00000   0.00000   0.00000   0.00000
  86       15F+2        0.00000   0.00014   0.00019   0.00007   0.00000
  87       15F-2        0.00000   0.00000   0.00000   0.00000   0.00000
  88       15F+3        0.00000   0.00000   0.00000   0.00000   0.00016
  89       15F-3        0.00010   0.00000   0.00000   0.00000   0.00000
  90       16F 0        0.00000  -0.00041  -0.00027  -0.00077   0.00002
  91       16F+1        0.00000   0.00000   0.00000  -0.00001  -0.00047
  92       16F-1       -0.00084   0.00000   0.00000   0.00000   0.00000
  93       16F+2        0.00000  -0.00004   0.00000  -0.00029   0.00001
  94       16F-2        0.00000   0.00000   0.00000   0.00000   0.00000
  95       16F+3        0.00000   0.00000   0.00000   0.00000  -0.00019
  96       16F-3       -0.00024   0.00000   0.00000   0.00000   0.00000
  97 3   H  1S         -0.00042  -0.00009   0.00015  -0.00121   0.00003
  98        2S          0.00045  -0.00128  -0.00117  -0.00175   0.00004
  99        3S          0.01832  -0.00345   0.00004  -0.00367   0.00012
 100        4S          0.00057   0.00007   0.00016  -0.00016   0.00001
 101        5PX         0.00000   0.00000   0.00000   0.00000  -0.00006
 102        5PY        -0.00001   0.00001   0.00008  -0.00038   0.00001
 103        5PZ         0.00012   0.00004   0.00009  -0.00017   0.00001
 104        6PX         0.00000  -0.00001  -0.00001   0.00002   0.00038
 105        6PY        -0.00003   0.00008   0.00029  -0.00094   0.00003
 106        6PZ        -0.00074   0.00006   0.00039  -0.00062   0.00001
 107        7PX        -0.00001  -0.00001  -0.00001  -0.00002  -0.00069
 108        7PY         0.00382   0.00044   0.00090  -0.00043   0.00002
 109        7PZ         0.00162  -0.00152  -0.00070  -0.00122   0.00003
 110        8D 0        0.00011   0.00004   0.00007   0.00009   0.00000
 111        8D+1        0.00000   0.00000   0.00000   0.00000  -0.00002
 112        8D-1        0.00000   0.00004   0.00014  -0.00030   0.00001
 113        8D+2        0.00003  -0.00004  -0.00011   0.00022  -0.00001
 114        8D-2        0.00000   0.00000   0.00000   0.00000   0.00004
 115        9D 0       -0.00002   0.00007   0.00038  -0.00017   0.00000
 116        9D+1        0.00000   0.00000   0.00000   0.00001   0.00045
 117        9D-1       -0.00047  -0.00026  -0.00024  -0.00032   0.00001
 118        9D+2        0.00019  -0.00022  -0.00030   0.00030  -0.00001
 119        9D-2        0.00000   0.00000   0.00000   0.00000  -0.00015
 120 4   H  1S          0.00042  -0.00009   0.00015  -0.00121   0.00003
 121        2S         -0.00045  -0.00128  -0.00117  -0.00175   0.00004
 122        3S         -0.01832  -0.00345   0.00004  -0.00367   0.00012
 123        4S         -0.00057   0.00007   0.00016  -0.00016   0.00001
 124        5PX         0.00000   0.00000   0.00000  -0.00001  -0.00006
 125        5PY        -0.00001  -0.00001  -0.00008   0.00038  -0.00001
 126        5PZ        -0.00012   0.00004   0.00009  -0.00017   0.00001
 127        6PX         0.00000  -0.00001  -0.00001   0.00000   0.00038
 128        6PY        -0.00003  -0.00008  -0.00029   0.00094  -0.00002
 129        6PZ         0.00074   0.00006   0.00039  -0.00062   0.00001
 130        7PX        -0.00003  -0.00001   0.00000  -0.00003  -0.00069
 131        7PY         0.00382  -0.00044  -0.00090   0.00043  -0.00002
 132        7PZ        -0.00162  -0.00152  -0.00070  -0.00122   0.00003
 133        8D 0       -0.00011   0.00004   0.00007   0.00009   0.00000
 134        8D+1        0.00000   0.00000   0.00000   0.00000  -0.00002
 135        8D-1        0.00000  -0.00004  -0.00014   0.00030  -0.00001
 136        8D+2       -0.00003  -0.00004  -0.00011   0.00022  -0.00001
 137        8D-2        0.00000   0.00000   0.00000   0.00000  -0.00004
 138        9D 0        0.00002   0.00007   0.00038  -0.00017   0.00000
 139        9D+1        0.00001   0.00000   0.00000   0.00000   0.00045
 140        9D-1       -0.00047   0.00026   0.00024   0.00032   0.00000
 141        9D+2       -0.00019  -0.00022  -0.00030   0.00030  -0.00001
 142        9D-2        0.00000   0.00000   0.00000   0.00001   0.00015
                           6         7         8         9        10
     Eigenvalues --     2.00000   1.97243   1.96168   1.95912   1.94155
   1 1   C  1S         -0.00024  -0.13847   0.07871  -0.00003   0.06004
   2        2S         -0.00002   0.37065  -0.22032   0.00008  -0.16614
   3        3S          0.00000   0.08228  -0.05222   0.00002  -0.03860
   4        4S         -0.00020   0.24949  -0.22165   0.00007  -0.08748
   5        5S         -0.00011   0.01886   0.00524   0.00000  -0.00560
   6        6PX         0.00000  -0.00040   0.00075  -0.00134  -0.00030
   7        6PY         0.00000  -0.00001   0.00008   0.24769   0.00000
   8        6PZ         0.00001   0.01414   0.16540  -0.00004  -0.18342
   9        7PX         0.00000  -0.00059   0.00101  -0.00184  -0.00039
  10        7PY         0.00000  -0.00002   0.00011   0.33922  -0.00001
  11        7PZ        -0.00009   0.00527   0.21406  -0.00006  -0.23357
  12        8PX         0.00000  -0.00034   0.00057  -0.00122  -0.00021
  13        8PY         0.00000  -0.00001   0.00007   0.22514   0.00000
  14        8PZ         0.00004  -0.03164   0.10248  -0.00003  -0.12991
  15        9PX         0.00000   0.00000   0.00002  -0.00003  -0.00001
  16        9PY         0.00000   0.00000   0.00000   0.00612   0.00000
  17        9PZ        -0.00002   0.00164   0.00753   0.00000  -0.00629
  18       10D 0       -0.00001   0.00849   0.00889   0.00000  -0.01086
  19       10D+1        0.00000   0.00004  -0.00005   0.00008   0.00002
  20       10D-1        0.00000   0.00000  -0.00001  -0.01422   0.00000
  21       10D+2        0.00000  -0.00706   0.00992   0.00000  -0.00307
  22       10D-2        0.00000  -0.00008   0.00011  -0.00015  -0.00003
  23       11D 0       -0.00005   0.00972   0.01563  -0.00001  -0.01363
  24       11D+1        0.00000   0.00010  -0.00011   0.00021   0.00006
  25       11D-1        0.00000   0.00000  -0.00001  -0.03874   0.00001
  26       11D+2        0.00001  -0.01772   0.02557   0.00000  -0.00827
  27       11D-2        0.00000  -0.00019   0.00028  -0.00040  -0.00009
  28       12D 0        0.00001  -0.01053  -0.00262   0.00000  -0.00176
  29       12D+1        0.00000  -0.00002  -0.00009   0.00020   0.00009
  30       12D-1        0.00000   0.00000  -0.00001  -0.03719   0.00000
  31       12D+2        0.00003  -0.00421   0.00333   0.00000  -0.00396
  32       12D-2        0.00000  -0.00005   0.00004  -0.00019  -0.00004
  33       13F 0        0.00000   0.00586   0.00136   0.00000  -0.00510
  34       13F+1        0.00000  -0.00001   0.00002  -0.00003   0.00000
  35       13F-1        0.00000   0.00000   0.00000   0.00561   0.00000
  36       13F+2        0.00000   0.00386  -0.00223   0.00000  -0.00028
  37       13F-2        0.00000   0.00004  -0.00002   0.00004   0.00000
  38       13F+3        0.00000   0.00004  -0.00003   0.00004   0.00000
  39       13F-3        0.00000   0.00000   0.00000  -0.00232   0.00000
  40       14F 0       -0.00001   0.00565  -0.00588   0.00000   0.00009
  41       14F+1        0.00000   0.00002  -0.00005  -0.00002   0.00003
  42       14F-1        0.00000   0.00000   0.00000   0.00328   0.00000
  43       14F+2        0.00000   0.00736  -0.00721   0.00000   0.00022
  44       14F-2        0.00000   0.00008  -0.00008   0.00014   0.00000
  45       14F+3        0.00000   0.00004  -0.00007   0.00005   0.00004
  46       14F-3        0.00000   0.00000   0.00000  -0.00296   0.00000
  47 2   S  1S          0.99624   0.04566   0.04848  -0.00001   0.02728
  48        2S          0.01376  -0.17653  -0.18417   0.00005  -0.10594
  49        3S          0.00032   0.36359   0.39957  -0.00011   0.23712
  50        4S          0.00002   0.04550   0.05480  -0.00002   0.03424
  51        5S         -0.00011   0.19454   0.21232  -0.00006   0.31957
  52        6S          0.00004  -0.01530  -0.02871   0.00001   0.05932
  53        7PX         0.00000   0.00010  -0.00017   0.00021  -0.00011
  54        7PY         0.00000   0.00000  -0.00001  -0.03899  -0.00003
  55        7PZ         0.00112   0.04160   0.02189   0.00000  -0.18228
  56        8PX         0.00000  -0.00028   0.00043  -0.00049   0.00026
  57        8PY         0.00000   0.00000   0.00002   0.08993   0.00007
  58        8PZ        -0.00015  -0.05433  -0.02945   0.00000   0.38706
  59        9PX         0.00000  -0.00011   0.00015  -0.00021   0.00012
  60        9PY         0.00000   0.00000   0.00001   0.03902   0.00003
  61        9PZ         0.00014  -0.02944  -0.01711   0.00000   0.17545
  62       10PX         0.00000  -0.00011   0.00020  -0.00017   0.00019
  63       10PY         0.00000   0.00000   0.00001   0.03092   0.00005
  64       10PZ         0.00006   0.01367   0.00666   0.00000   0.12023
  65       11PX         0.00000  -0.00001   0.00000   0.00001   0.00002
  66       11PY         0.00000   0.00000   0.00000  -0.00183   0.00001
  67       11PZ         0.00000   0.00600   0.00561   0.00000  -0.00313
  68       12D 0        0.00006   0.01214   0.00108   0.00000  -0.02884
  69       12D+1        0.00000   0.00006  -0.00011   0.00012   0.00003
  70       12D-1        0.00000   0.00000  -0.00001  -0.02224   0.00000
  71       12D+2       -0.00001   0.00036   0.00145   0.00000  -0.00053
  72       12D-2        0.00000   0.00000   0.00002  -0.00004  -0.00001
  73       13D 0        0.00001   0.02226   0.01012   0.00000  -0.04667
  74       13D+1        0.00000   0.00004  -0.00007   0.00012   0.00002
  75       13D-1        0.00000   0.00000  -0.00001  -0.02180   0.00000
  76       13D+2        0.00001   0.00109   0.00141   0.00000  -0.00016
  77       13D-2        0.00000   0.00001   0.00002  -0.00001   0.00000
  78       14D 0       -0.00004  -0.00882  -0.00480   0.00000   0.00209
  79       14D+1        0.00000   0.00001  -0.00001   0.00001  -0.00001
  80       14D-1        0.00000   0.00000   0.00000  -0.00220   0.00000
  81       14D+2        0.00000  -0.00120  -0.00211   0.00000  -0.00057
  82       14D-2        0.00000  -0.00001  -0.00002   0.00001  -0.00001
  83       15F 0       -0.00002  -0.00776  -0.00498   0.00000   0.01365
  84       15F+1        0.00000  -0.00002   0.00003  -0.00005  -0.00002
  85       15F-1        0.00000   0.00000   0.00000   0.00859   0.00000
  86       15F+2        0.00000  -0.00041  -0.00042   0.00000   0.00342
  87       15F-2        0.00000   0.00000   0.00000   0.00001   0.00004
  88       15F+3        0.00000   0.00000   0.00000  -0.00001   0.00000
  89       15F-3        0.00000   0.00000   0.00000   0.00075   0.00000
  90       16F 0        0.00000   0.00348   0.00275   0.00000  -0.00440
  91       16F+1        0.00000  -0.00001   0.00001   0.00000  -0.00001
  92       16F-1        0.00000   0.00000   0.00000   0.00084   0.00000
  93       16F+2        0.00000  -0.00043  -0.00069   0.00000   0.00062
  94       16F-2        0.00000   0.00000  -0.00001   0.00002   0.00001
  95       16F+3        0.00000  -0.00001   0.00001  -0.00001   0.00000
  96       16F-3        0.00000   0.00000   0.00000   0.00083   0.00000
  97 3   H  1S          0.00000   0.06788  -0.10081  -0.14030   0.03331
  98        2S          0.00001   0.05028  -0.10037  -0.15692   0.04791
  99        3S          0.00013  -0.03423   0.01623   0.07286   0.01526
 100        4S          0.00001  -0.00032   0.00313   0.00299  -0.00154
 101        5PX         0.00000  -0.00001   0.00001  -0.00002  -0.00001
 102        5PY         0.00000   0.00538  -0.00951  -0.00803   0.00362
 103        5PZ         0.00000   0.00333  -0.00322  -0.00842  -0.00106
 104        6PX         0.00000  -0.00005   0.00005  -0.00011   0.00000
 105        6PY         0.00000  -0.00375  -0.00198   0.01278   0.00229
 106        6PZ         0.00000  -0.00356   0.00860  -0.00092  -0.00942
 107        7PX         0.00000  -0.00004  -0.00003   0.00000   0.00003
 108        7PY         0.00001  -0.01056   0.01484   0.03072  -0.00164
 109        7PZ         0.00003  -0.01368   0.00498   0.01280   0.00126
 110        8D 0        0.00000   0.00026   0.00136  -0.00134  -0.00161
 111        8D+1        0.00000   0.00000   0.00000  -0.00001   0.00000
 112        8D-1        0.00000   0.00040  -0.00100  -0.00245   0.00001
 113        8D+2        0.00000  -0.00056   0.00157   0.00009  -0.00078
 114        8D-2        0.00000   0.00000   0.00001  -0.00001   0.00000
 115        9D 0        0.00000  -0.00004  -0.00034  -0.00185  -0.00046
 116        9D+1        0.00000   0.00000  -0.00002  -0.00001   0.00001
 117        9D-1       -0.00001  -0.00381   0.00342   0.00340  -0.00062
 118        9D+2        0.00000   0.00152  -0.00068  -0.00299  -0.00022
 119        9D-2        0.00000  -0.00001   0.00003  -0.00002  -0.00001
 120 4   H  1S          0.00000   0.06786  -0.10072   0.14036   0.03330
 121        2S          0.00001   0.05028  -0.10028   0.15700   0.04789
 122        3S          0.00013  -0.03422   0.01618  -0.07286   0.01522
 123        4S          0.00001  -0.00032   0.00313  -0.00300  -0.00154
 124        5PX         0.00000   0.00005  -0.00009   0.00011   0.00003
 125        5PY         0.00000  -0.00538   0.00951  -0.00803  -0.00362
 126        5PZ         0.00000   0.00333  -0.00321   0.00842  -0.00106
 127        6PX         0.00000  -0.00009   0.00003  -0.00003   0.00002
 128        6PY         0.00000   0.00375   0.00199   0.01278  -0.00229
 129        6PZ         0.00000  -0.00355   0.00860   0.00091  -0.00942
 130        7PX         0.00000  -0.00015   0.00013  -0.00033   0.00001
 131        7PY        -0.00001   0.01055  -0.01482   0.03073   0.00164
 132        7PZ         0.00003  -0.01367   0.00497  -0.01280   0.00126
 133        8D 0        0.00000   0.00026   0.00136   0.00134  -0.00161
 134        8D+1        0.00000   0.00000  -0.00001   0.00003   0.00000
 135        8D-1        0.00000  -0.00040   0.00100  -0.00245  -0.00001
 136        8D+2        0.00000  -0.00056   0.00157  -0.00009  -0.00078
 137        8D-2        0.00000  -0.00001   0.00003  -0.00001  -0.00002
 138        9D 0        0.00000  -0.00004  -0.00033   0.00185  -0.00046
 139        9D+1        0.00000  -0.00004   0.00002  -0.00003   0.00001
 140        9D-1        0.00001   0.00381  -0.00342   0.00340   0.00062
 141        9D+2        0.00000   0.00152  -0.00068   0.00299  -0.00022
 142        9D-2        0.00000   0.00005  -0.00004   0.00005   0.00000
                          11        12        13        14        15
     Eigenvalues --     1.94077   1.89918   0.08404   0.03696   0.02642
   1 1   C  1S         -0.00001  -0.00049   0.00058  -0.11158  -0.00002
   2        2S          0.00002   0.00136  -0.00186   0.38440   0.00008
   3        3S          0.00001   0.00032  -0.00071   0.15498   0.00004
   4        4S          0.00001   0.00129  -0.00091   0.15621   0.00004
   5        5S          0.00000   0.00022   0.00020   0.09694   0.00000
   6        6PX         0.00022   0.19013  -0.30157  -0.00012  -0.00142
   7        6PY        -0.04031   0.00103  -0.00163   0.00000   0.26238
   8        6PZ         0.00002  -0.00053   0.00086   0.27301  -0.00005
   9        7PX         0.00029   0.26563  -0.45882   0.00002  -0.00334
  10        7PY        -0.05312   0.00144  -0.00249   0.00002   0.61532
  11        7PZ         0.00003  -0.00069   0.00116   0.52862  -0.00008
  12        8PX         0.00002   0.17864  -0.20558   0.00068  -0.00093
  13        8PY        -0.00341   0.00097  -0.00111   0.00002   0.17056
  14        8PZ         0.00002  -0.00042   0.00057   0.48077  -0.00004
  15        9PX         0.00001   0.01321  -0.00563   0.00005   0.00004
  16        9PY        -0.00202   0.00007  -0.00003   0.00000  -0.00656
  17        9PZ         0.00000  -0.00003   0.00003   0.03817   0.00000
  18       10D 0        0.00000  -0.00002   0.00007   0.00385   0.00000
  19       10D+1       -0.00010   0.01136  -0.00308  -0.00002  -0.00038
  20       10D-1        0.01840   0.00006  -0.00002   0.00000   0.06977
  21       10D+2        0.00000   0.00000  -0.00012   0.00223   0.00000
  22       10D-2        0.00007   0.00000   0.00000   0.00002   0.00027
  23       11D 0        0.00000  -0.00001   0.00019   0.09529  -0.00002
  24       11D+1       -0.00019   0.03283  -0.03725  -0.00046  -0.00024
  25       11D-1        0.03582   0.00018  -0.00020  -0.00001   0.04495
  26       11D+2        0.00000   0.00001  -0.00020   0.05648   0.00000
  27       11D-2        0.00011   0.00000   0.00000   0.00061  -0.00036
  28       12D 0        0.00000   0.00012   0.00023   0.08163  -0.00001
  29       12D+1        0.00012   0.01107  -0.01436   0.00025   0.00011
  30       12D-1       -0.02254   0.00006  -0.00008   0.00000  -0.02003
  31       12D+2        0.00000  -0.00004   0.00021   0.03428  -0.00001
  32       12D-2        0.00004   0.00000   0.00000   0.00037   0.00019
  33       13F 0        0.00000   0.00000   0.00003   0.01352   0.00000
  34       13F+1       -0.00002   0.00634  -0.00594   0.00001  -0.00018
  35       13F-1        0.00449   0.00003  -0.00003   0.00000   0.03294
  36       13F+2        0.00000   0.00001  -0.00003   0.00238   0.00000
  37       13F-2       -0.00001   0.00000   0.00000   0.00003   0.00003
  38       13F+3       -0.00002   0.00032   0.00010   0.00002   0.00006
  39       13F-3        0.00143   0.00001   0.00000   0.00000  -0.00372
  40       14F 0        0.00000   0.00000  -0.00001  -0.00577   0.00000
  41       14F+1       -0.00001   0.00119  -0.01608  -0.00024  -0.00037
  42       14F-1        0.00094   0.00001  -0.00009   0.00000   0.06773
  43       14F+2        0.00000  -0.00002  -0.00003  -0.03522   0.00000
  44       14F-2        0.00000   0.00000   0.00000  -0.00038   0.00034
  45       14F+3        0.00001   0.00060  -0.00504  -0.00028  -0.00007
  46       14F-3       -0.00052   0.00001  -0.00008  -0.00001   0.00409
  47 2   S  1S          0.00000  -0.00005   0.00002  -0.02427   0.00000
  48        2S          0.00001   0.00020  -0.00008   0.07023   0.00000
  49        3S         -0.00003  -0.00046   0.00017  -0.24968   0.00000
  50        4S          0.00000  -0.00007   0.00000   0.00117   0.00000
  51        5S         -0.00004  -0.00049  -0.00039  -0.77627   0.00005
  52        6S         -0.00001  -0.00008  -0.00024  -0.26442   0.00002
  53        7PX         0.00117  -0.17464  -0.20034  -0.00013  -0.00046
  54        7PY        -0.21559  -0.00095  -0.00109   0.00000   0.08421
  55        7PZ         0.00002  -0.00009   0.00035  -0.19479   0.00000
  56        8PX        -0.00285   0.39379   0.53026   0.00049   0.00130
  57        8PY         0.52630   0.00213   0.00287   0.00000  -0.24049
  58        8PZ        -0.00005   0.00027  -0.00076   0.74085  -0.00002
  59        9PX        -0.00121   0.15981   0.20750   0.00020   0.00069
  60        9PY         0.22281   0.00087   0.00112   0.00000  -0.12736
  61        9PZ        -0.00002   0.00011  -0.00032   0.21015   0.00000
  62       10PX        -0.00220   0.20850   0.16197  -0.00034  -0.00050
  63       10PY         0.40549   0.00113   0.00088   0.00000   0.09241
  64       10PZ        -0.00002   0.00030  -0.00003   0.49345  -0.00004
  65       11PX        -0.00022   0.00447   0.00189   0.00001  -0.00014
  66       11PY         0.04148   0.00002   0.00001   0.00000   0.02509
  67       11PZ         0.00000   0.00003   0.00004   0.03313   0.00000
  68       12D 0        0.00000   0.00002   0.00008   0.09902   0.00000
  69       12D+1       -0.00001  -0.03657   0.03881   0.00004   0.00153
  70       12D-1        0.00255  -0.00020   0.00021   0.00000  -0.28243
  71       12D+2        0.00000   0.00000  -0.00012   0.08725   0.00000
  72       12D-2        0.00000   0.00000   0.00000   0.00095   0.00038
  73       13D 0        0.00001   0.00001   0.00009   0.16427  -0.00001
  74       13D+1        0.00000  -0.03495   0.05167   0.00010   0.00134
  75       13D-1       -0.00036  -0.00019   0.00028   0.00000  -0.24745
  76       13D+2        0.00000   0.00000  -0.00008   0.05467   0.00000
  77       13D-2        0.00001   0.00000   0.00000   0.00059   0.00032
  78       14D 0        0.00000  -0.00001  -0.00001  -0.06708   0.00001
  79       14D+1        0.00007  -0.00379  -0.01885   0.00014   0.00017
  80       14D-1       -0.01334  -0.00002  -0.00010   0.00000  -0.03103
  81       14D+2        0.00000   0.00002  -0.00007   0.01422   0.00000
  82       14D-2       -0.00001   0.00000   0.00000   0.00015   0.00000
  83       15F 0        0.00000   0.00001  -0.00004  -0.01844   0.00000
  84       15F+1       -0.00002   0.01081  -0.01556   0.00003  -0.00017
  85       15F-1        0.00368   0.00006  -0.00008   0.00000   0.03130
  86       15F+2        0.00000  -0.00001   0.00002  -0.00453   0.00000
  87       15F-2       -0.00001   0.00000   0.00000  -0.00005  -0.00006
  88       15F+3       -0.00007   0.00380   0.00230   0.00002  -0.00006
  89       15F-3        0.00444   0.00006   0.00004   0.00000   0.00350
  90       16F 0        0.00000   0.00000   0.00001   0.01044   0.00000
  91       16F+1       -0.00001  -0.00081   0.00502   0.00004  -0.00001
  92       16F-1        0.00198   0.00000   0.00003   0.00000   0.00114
  93       16F+2        0.00000  -0.00002   0.00005  -0.01211   0.00000
  94       16F-2        0.00000   0.00000   0.00000  -0.00013   0.00004
  95       16F+3       -0.00005   0.00242   0.00281   0.00003  -0.00003
  96       16F-3        0.00333   0.00004   0.00005   0.00000   0.00207
  97 3   H  1S          0.05196  -0.00002   0.00054  -0.03267   0.17832
  98        2S          0.08985  -0.00008   0.00070   0.09012   0.56730
  99        3S          0.16340   0.00007   0.00026   0.26427   0.29281
 100        4S          0.01597   0.00000  -0.00002   0.01210   0.01145
 101        5PX         0.00000   0.00425  -0.01017  -0.00002  -0.00007
 102        5PY         0.00265   0.00001   0.00001  -0.00708   0.00661
 103        5PZ         0.00048  -0.00003   0.00007   0.00547  -0.01288
 104        6PX         0.00002   0.01440  -0.01683   0.00009  -0.00028
 105        6PY        -0.00028   0.00005  -0.00014   0.02262   0.15181
 106        6PZ        -0.00211  -0.00005   0.00009   0.03799   0.02101
 107        7PX         0.00009   0.00259   0.00878   0.00031   0.00015
 108        7PY         0.01934   0.00003  -0.00009   0.04162   0.07227
 109        7PZ        -0.00104   0.00009   0.00009   0.06350   0.00830
 110        8D 0       -0.00094  -0.00001   0.00003   0.00255  -0.01082
 111        8D+1        0.00000   0.00138  -0.00290   0.00000  -0.00007
 112        8D-1        0.00006  -0.00001   0.00002   0.00256  -0.00415
 113        8D+2       -0.00056  -0.00001   0.00002   0.00196  -0.00757
 114        8D-2        0.00000   0.00145  -0.00485   0.00000  -0.00002
 115        9D 0       -0.00087  -0.00001  -0.00001   0.00191  -0.00473
 116        9D+1        0.00001   0.00030  -0.00062  -0.00012  -0.00013
 117        9D-1       -0.00049   0.00002  -0.00003   0.01148   0.02883
 118        9D+2        0.00060  -0.00001   0.00001   0.00151  -0.02320
 119        9D-2        0.00001   0.00279   0.00385   0.00013   0.00008
 120 4   H  1S         -0.05197  -0.00002   0.00054  -0.03267  -0.17839
 121        2S         -0.08986  -0.00008   0.00070   0.09008  -0.56748
 122        3S         -0.16341   0.00007   0.00026   0.26420  -0.29291
 123        4S         -0.01597   0.00000  -0.00002   0.01210  -0.01146
 124        5PX        -0.00003   0.00425  -0.01017  -0.00009   0.00000
 125        5PY         0.00265   0.00003  -0.00012   0.00707   0.00661
 126        5PZ        -0.00048  -0.00003   0.00007   0.00547   0.01288
 127        6PX        -0.00002   0.01440  -0.01683   0.00033  -0.00136
 128        6PY        -0.00028   0.00011  -0.00005  -0.02261   0.15182
 129        6PZ         0.00211  -0.00005   0.00009   0.03798  -0.02103
 130        7PX        -0.00030   0.00259   0.00878   0.00076  -0.00094
 131        7PY         0.01933  -0.00001   0.00019  -0.04160   0.07228
 132        7PZ         0.00104   0.00009   0.00009   0.06349  -0.00831
 133        8D 0        0.00094  -0.00001   0.00003   0.00255   0.01082
 134        8D+1        0.00000   0.00138  -0.00290   0.00003   0.00011
 135        8D-1        0.00006   0.00002  -0.00005  -0.00256  -0.00415
 136        8D+2        0.00056   0.00002  -0.00009   0.00196   0.00757
 137        8D-2        0.00001  -0.00145   0.00485   0.00005   0.00015
 138        9D 0        0.00087  -0.00001  -0.00001   0.00191   0.00473
 139        9D+1        0.00000   0.00030  -0.00062   0.00001  -0.00019
 140        9D-1       -0.00049  -0.00002   0.00002  -0.01148   0.02884
 141        9D+2       -0.00060   0.00005   0.00009   0.00151   0.02319
 142        9D-2       -0.00001  -0.00279  -0.00385  -0.00009   0.00058
                          16        17        18        19        20
     Eigenvalues --     0.02024   0.01796   0.01698   0.01596   0.01328
   1 1   C  1S         -0.14783   0.00000   0.08753   0.00004   0.00087
   2        2S          0.56835   0.00000  -0.33256  -0.00016  -0.00296
   3        3S          0.30499   0.00000  -0.19345  -0.00010  -0.00179
   4        4S          0.14491   0.00000  -0.32893  -0.00012  -0.01237
   5        5S         -0.03178   0.00000  -0.08508  -0.00002  -0.00208
   6        6PX        -0.00177  -0.00001   0.00055  -0.00246   0.08620
   7        6PY         0.00001   0.00142  -0.00007   0.45428   0.00047
   8        6PZ        -0.31102   0.00000   0.02636   0.00006   0.00139
   9        7PX        -0.00318  -0.00001   0.00103  -0.00423   0.10823
  10        7PY         0.00003   0.00242  -0.00013   0.78091   0.00059
  11        7PZ        -0.55049   0.00000  -0.02745   0.00008   0.00190
  12        8PX        -0.00187  -0.00002   0.00106  -0.00301   0.04429
  13        8PY         0.00005   0.00382  -0.00009   0.55538   0.00024
  14        8PZ        -0.27387   0.00000   0.02275   0.00006   0.00423
  15        9PX        -0.00011   0.00000   0.00005  -0.00017  -0.01034
  16        9PY         0.00000   0.00055   0.00000   0.03105  -0.00006
  17        9PZ        -0.02646   0.00000  -0.00953   0.00000   0.00011
  18       10D 0       -0.00410   0.00000   0.00538   0.00000   0.00013
  19       10D+1       -0.00057   0.00000   0.00014   0.00047  -0.14652
  20       10D-1       -0.00003  -0.00052   0.00002  -0.08616  -0.00079
  21       10D+2        0.03236  -0.00047   0.03786   0.00000  -0.00030
  22       10D-2        0.00035   0.04317   0.00041  -0.00016   0.00000
  23       11D 0       -0.05711   0.00000   0.01876   0.00001   0.00089
  24       11D+1       -0.00104   0.00001   0.00027   0.00181  -0.26551
  25       11D-1       -0.00008  -0.00187   0.00007  -0.33388  -0.00144
  26       11D+2        0.03849  -0.00092   0.10535   0.00003   0.00088
  27       11D-2        0.00042   0.08473   0.00114  -0.00218   0.00001
  28       12D 0       -0.06208   0.00000  -0.02339   0.00001   0.00419
  29       12D+1       -0.00096  -0.00001  -0.00019   0.00037  -0.04401
  30       12D-1       -0.00002   0.00114   0.00001  -0.06884  -0.00024
  31       12D+2       -0.04744  -0.00009   0.01839   0.00002   0.00268
  32       12D-2       -0.00051   0.00788   0.00020  -0.00080   0.00003
  33       13F 0       -0.01606   0.00000   0.00301   0.00000   0.00002
  34       13F+1       -0.00032   0.00000   0.00005   0.00012  -0.05008
  35       13F-1       -0.00001  -0.00002   0.00000  -0.02207  -0.00027
  36       13F+2        0.01795  -0.00028   0.02232   0.00000  -0.00001
  37       13F-2        0.00019   0.02545   0.00024   0.00000   0.00000
  38       13F+3       -0.00011   0.00000  -0.00001   0.00032  -0.01079
  39       13F-3       -0.00001  -0.00001   0.00000  -0.01947  -0.00018
  40       14F 0       -0.01145   0.00000  -0.02145   0.00000  -0.00093
  41       14F+1       -0.00032   0.00000  -0.00010  -0.00001  -0.02975
  42       14F-1       -0.00002   0.00095   0.00000   0.00204  -0.00016
  43       14F+2        0.02606  -0.00022  -0.01073  -0.00002  -0.00087
  44       14F-2        0.00028   0.01989  -0.00012   0.00123  -0.00001
  45       14F+3        0.00021   0.00000  -0.00026   0.00079  -0.00284
  46       14F-3       -0.00001  -0.00002   0.00001  -0.04839  -0.00005
  47 2   S  1S          0.00173   0.00000   0.00488   0.00000   0.00000
  48        2S         -0.00459   0.00000  -0.04187  -0.00001   0.00028
  49        3S          0.02166   0.00000   0.01207   0.00000   0.00042
  50        4S         -0.01013   0.00000   0.04107   0.00001  -0.00012
  51        5S          0.39753   0.00000   0.13281  -0.00005  -0.00545
  52        6S          0.17398   0.00000   0.09516  -0.00001  -0.00041
  53        7PX        -0.00022   0.00000   0.00006  -0.00019   0.03383
  54        7PY        -0.00001   0.00006   0.00000   0.03594   0.00018
  55        7PZ        -0.01660   0.00000   0.04905   0.00001   0.00026
  56        8PX         0.00105   0.00000  -0.00013   0.00020   0.00188
  57        8PY         0.00004  -0.00043   0.00000  -0.03752   0.00001
  58        8PZ        -0.11876   0.00000  -0.15889  -0.00001  -0.00001
  59        9PX         0.00022   0.00000  -0.00010   0.00030  -0.06228
  60        9PY         0.00002  -0.00004   0.00000  -0.05466  -0.00034
  61        9PZ         0.03550   0.00000  -0.06006  -0.00002  -0.00052
  62       10PX         0.00180   0.00001  -0.00017  -0.00023   0.19889
  63       10PY         0.00000  -0.00165  -0.00001   0.04166   0.00108
  64       10PZ        -0.29684   0.00000  -0.07076   0.00004   0.00173
  65       11PX         0.00010   0.00000  -0.00002  -0.00016   0.02056
  66       11PY         0.00000  -0.00006   0.00000   0.02977   0.00011
  67       11PZ        -0.02614   0.00000  -0.01140   0.00000   0.00004
  68       12D 0        0.03995   0.00000   0.13365   0.00002   0.00051
  69       12D+1        0.00157  -0.00001  -0.00022  -0.00221   0.44563
  70       12D-1        0.00010   0.00244  -0.00008   0.40757   0.00242
  71       12D+2        0.15072  -0.00646   0.56815   0.00011  -0.00017
  72       12D-2        0.00163   0.59558   0.00616  -0.00287   0.00000
  73       13D 0       -0.03735   0.00000   0.06244   0.00002   0.00033
  74       13D+1        0.00180  -0.00001  -0.00024  -0.00160   0.42932
  75       13D-1        0.00009   0.00148  -0.00006   0.29447   0.00233
  76       13D+2        0.10935  -0.00479   0.41097   0.00008  -0.00012
  77       13D-2        0.00119   0.44181   0.00446  -0.00197   0.00000
  78       14D 0        0.06323   0.00000   0.03998   0.00000   0.00009
  79       14D+1       -0.00074  -0.00001   0.00016  -0.00033  -0.06820
  80       14D-1        0.00000   0.00091  -0.00001   0.06082  -0.00037
  81       14D+2        0.01564  -0.00052   0.04547   0.00001  -0.00021
  82       14D-2        0.00017   0.04839   0.00049  -0.00021   0.00000
  83       15F 0        0.00131   0.00000   0.00352   0.00000  -0.00002
  84       15F+1       -0.00031   0.00000   0.00010  -0.00002  -0.05987
  85       15F-1       -0.00001  -0.00016   0.00000   0.00413  -0.00032
  86       15F+2       -0.01499   0.00008  -0.02077   0.00000   0.00008
  87       15F-2       -0.00016  -0.00728  -0.00023  -0.00006   0.00000
  88       15F+3       -0.00012   0.00000   0.00002   0.00003  -0.02176
  89       15F-3        0.00000  -0.00001   0.00000  -0.00170  -0.00035
  90       16F 0       -0.02825   0.00000  -0.01882   0.00000  -0.00017
  91       16F+1        0.00027   0.00000  -0.00008   0.00014   0.02643
  92       16F-1        0.00000  -0.00028   0.00000  -0.02615   0.00014
  93       16F+2       -0.00837   0.00012  -0.02563  -0.00001   0.00003
  94       16F-2       -0.00009  -0.01125  -0.00028   0.00019   0.00000
  95       16F+3       -0.00002   0.00000   0.00004  -0.00002  -0.00913
  96       16F-3        0.00000  -0.00001   0.00000   0.00123  -0.00015
  97 3   H  1S         -0.23747   0.00020   0.06688   0.07867   0.00061
  98        2S         -0.59904   0.00250   0.23485   0.73135   0.00600
  99        3S         -0.29265   0.00221   0.11865   0.75201   0.00830
 100        4S         -0.01183   0.00056   0.00223   0.05175   0.00031
 101        5PX        -0.00013  -0.00915  -0.00007  -0.00009   0.02596
 102        5PY         0.01828  -0.00010  -0.01061  -0.03338  -0.00023
 103        5PZ        -0.00468   0.00005  -0.01184  -0.02008  -0.00005
 104        6PX        -0.00012  -0.01388  -0.00002  -0.00045   0.03828
 105        6PY        -0.05571   0.00064   0.00087   0.10470   0.00040
 106        6PZ        -0.03957  -0.00038   0.01162   0.07090   0.00060
 107        7PX        -0.00057  -0.00117  -0.00014  -0.00014  -0.00940
 108        7PY        -0.02122   0.00033   0.01953   0.12469  -0.00035
 109        7PZ        -0.04484   0.00063  -0.00684   0.07991   0.00289
 110        8D 0       -0.00767  -0.00002   0.00145   0.00401   0.00010
 111        8D+1       -0.00010  -0.00327  -0.00003  -0.00003   0.00254
 112        8D-1        0.00602  -0.00004  -0.00552  -0.00919  -0.00004
 113        8D+2       -0.00627   0.00001   0.00586   0.01012   0.00013
 114        8D-2       -0.00003  -0.00778  -0.00006  -0.00007   0.01645
 115        9D 0        0.00354  -0.00017   0.00289  -0.00798  -0.00017
 116        9D+1        0.00002   0.00206  -0.00007   0.00010  -0.00186
 117        9D-1        0.00040  -0.00017  -0.00052   0.00493   0.00011
 118        9D+2        0.00962  -0.00005   0.00976  -0.00334   0.00040
 119        9D-2       -0.00002  -0.00024   0.00009  -0.00014  -0.00497
 120 4   H  1S         -0.23743  -0.00020   0.06689  -0.07858   0.00061
 121        2S         -0.59910  -0.00250   0.23509  -0.73105   0.00600
 122        3S         -0.29281  -0.00221   0.11890  -0.75184   0.00830
 123        4S         -0.01184  -0.00056   0.00224  -0.05174   0.00031
 124        5PX         0.00007   0.00915  -0.00019   0.00045   0.02595
 125        5PY        -0.01829   0.00000   0.01062  -0.03336   0.00051
 126        5PZ        -0.00468  -0.00005  -0.01184   0.02008  -0.00005
 127        6PX        -0.00072   0.01387  -0.00001  -0.00069   0.03828
 128        6PY         0.05570   0.00079  -0.00091   0.10469   0.00001
 129        6PZ        -0.03960   0.00038   0.01165  -0.07088   0.00060
 130        7PX        -0.00080   0.00116   0.00007  -0.00121  -0.00941
 131        7PY         0.02125   0.00034  -0.01957   0.12468   0.00025
 132        7PZ        -0.04486  -0.00063  -0.00681  -0.07990   0.00289
 133        8D 0       -0.00767   0.00002   0.00145  -0.00401   0.00010
 134        8D+1       -0.00003   0.00327  -0.00009   0.00013   0.00254
 135        8D-1       -0.00601  -0.00001   0.00552  -0.00918   0.00007
 136        8D+2       -0.00628   0.00016   0.00586  -0.01011   0.00048
 137        8D-2       -0.00011  -0.00777   0.00019  -0.00029  -0.01644
 138        9D 0        0.00355   0.00017   0.00289   0.00799  -0.00017
 139        9D+1        0.00003  -0.00206  -0.00008  -0.00016  -0.00186
 140        9D-1       -0.00040  -0.00019   0.00052   0.00493  -0.00013
 141        9D+2        0.00962   0.00006   0.00976   0.00335   0.00029
 142        9D-2        0.00023  -0.00023   0.00012  -0.00006   0.00498
                          21        22        23        24        25
     Eigenvalues --     0.01199   0.01025   0.00818   0.00669   0.00645
   1 1   C  1S         -0.01091   0.00000  -0.03451  -0.00022   0.00000
   2        2S          0.01008  -0.00002   0.12151   0.00073   0.00000
   3        3S         -0.00289  -0.00002   0.11727   0.00065   0.00000
   4        4S          0.12414   0.00012  -0.09691  -0.00439   0.00000
   5        5S          0.06618   0.00002  -0.03740  -0.00070   0.00000
   6        6PX         0.00054  -0.00079  -0.00009   0.39164   0.00009
   7        6PY         0.00001   0.14482   0.00001   0.00212  -0.00148
   8        6PZ         0.11610   0.00001  -0.12748   0.00082   0.00000
   9        7PX         0.00104  -0.00230  -0.00013   0.46079   0.00011
  10        7PY         0.00002   0.42406   0.00001   0.00250   0.00010
  11        7PZ         0.26155   0.00001  -0.11848   0.00141   0.00000
  12        8PX        -0.00156   0.00600   0.00094  -0.18767  -0.00005
  13        8PY        -0.00003  -1.10733  -0.00005  -0.00102   0.00387
  14        8PZ        -0.28127  -0.00003   0.36601   0.00283   0.00000
  15        9PX        -0.00022   0.00058  -0.00013  -0.01089   0.00000
  16        9PY         0.00000  -0.10746   0.00000  -0.00006  -0.00089
  17        9PZ        -0.01260   0.00000   0.00613  -0.00010   0.00000
  18       10D 0       -0.18683   0.00000  -0.09187   0.00068   0.00000
  19       10D+1       -0.00017   0.00016  -0.00009   0.08126   0.00002
  20       10D-1        0.00000  -0.02913   0.00000   0.00044  -0.00040
  21       10D+2        0.00757   0.00000  -0.15594   0.00154  -0.00332
  22       10D-2        0.00008  -0.00014  -0.00169  -0.00005   0.30654
  23       11D 0       -0.28514   0.00001  -0.22361   0.00151   0.00000
  24       11D+1       -0.00036   0.00153   0.00035   0.10826   0.00002
  25       11D-1        0.00000  -0.28152   0.00001   0.00059  -0.00121
  26       11D+2        0.05850   0.00001  -0.31318   0.00342  -0.00496
  27       11D-2        0.00063  -0.00086  -0.00340  -0.00006   0.45773
  28       12D 0       -0.06789   0.00001   0.16323   0.00113   0.00000
  29       12D+1       -0.00056  -0.00086   0.00103   0.07139   0.00002
  30       12D-1       -0.00001   0.15789   0.00002   0.00039  -0.00096
  31       12D+2       -0.04171  -0.00002   0.09027   0.00133  -0.00045
  32       12D-2       -0.00045   0.00261   0.00098   0.00001   0.04115
  33       13F 0       -0.04568   0.00000   0.01263  -0.00022   0.00000
  34       13F+1        0.00016  -0.00027   0.00007   0.06443   0.00001
  35       13F-1        0.00000   0.05026   0.00000   0.00035   0.00012
  36       13F+2        0.00186   0.00000   0.01794   0.00007   0.00027
  37       13F-2        0.00002   0.00020   0.00019   0.00001  -0.02502
  38       13F+3        0.00000   0.00017   0.00033  -0.02225   0.00000
  39       13F-3        0.00000  -0.01049   0.00000  -0.00036  -0.00033
  40       14F 0       -0.05599   0.00000   0.01459  -0.00082   0.00000
  41       14F+1        0.00018   0.00082   0.00082  -0.00204   0.00000
  42       14F-1       -0.00001  -0.15208  -0.00001  -0.00001   0.00042
  43       14F+2        0.01340   0.00000   0.01345  -0.00047  -0.00086
  44       14F-2        0.00015   0.00005   0.00015  -0.00002   0.07936
  45       14F+3        0.00034   0.00032   0.00087  -0.01939  -0.00001
  46       14F-3        0.00000  -0.01947   0.00001  -0.00032   0.00024
  47 2   S  1S         -0.03305   0.00000   0.06197   0.00041   0.00000
  48        2S          0.13335   0.00000  -0.22397  -0.00128   0.00000
  49        3S         -0.34025  -0.00002   0.77040   0.00541   0.00000
  50        4S         -0.20186  -0.00001   0.53466   0.00369   0.00000
  51        5S          0.69294   0.00000  -1.34389  -0.01185   0.00000
  52        6S          0.17754   0.00000  -0.16346  -0.00136   0.00000
  53        7PX        -0.00033   0.00174  -0.00016  -0.20370  -0.00004
  54        7PY         0.00000  -0.32071  -0.00001  -0.00110  -0.00020
  55        7PZ        -0.12892   0.00000  -0.08962  -0.00114   0.00000
  56        8PX         0.00042  -0.00325  -0.00031   0.34186   0.00007
  57        8PY         0.00000   0.59983   0.00002   0.00185   0.00017
  58        8PZ         0.12384   0.00001  -0.02637   0.00117   0.00000
  59        9PX         0.00060  -0.00329   0.00034   0.37678   0.00008
  60        9PY         0.00000   0.60745   0.00002   0.00204   0.00042
  61        9PZ         0.20595   0.00000   0.17324   0.00236   0.00000
  62       10PX        -0.00013   0.00467  -0.00175  -0.82257  -0.00017
  63       10PY         0.00001  -0.86091  -0.00004  -0.00446  -0.00096
  64       10PZ        -0.39886   0.00001  -0.02853   0.00070   0.00000
  65       11PX         0.00004   0.00053   0.00005  -0.02664  -0.00001
  66       11PY         0.00000  -0.09838   0.00000  -0.00014   0.00003
  67       11PZ        -0.03710   0.00000  -0.00279   0.00008   0.00000
  68       12D 0       -0.35955  -0.00001   0.03615  -0.00134   0.00000
  69       12D+1        0.00031   0.00155   0.00073   0.22442   0.00004
  70       12D-1        0.00000  -0.28562   0.00000   0.00122   0.00047
  71       12D+2        0.06169   0.00000   0.13539  -0.00052   0.00195
  72       12D-2        0.00067   0.00004   0.00147   0.00003  -0.17963
  73       13D 0       -0.35004   0.00000  -0.01779  -0.00093   0.00000
  74       13D+1        0.00018   0.00041   0.00028   0.09839   0.00002
  75       13D-1        0.00000  -0.07580   0.00000   0.00053   0.00080
  76       13D+2        0.05622   0.00000   0.04054  -0.00119   0.00159
  77       13D-2        0.00061   0.00000   0.00044   0.00002  -0.14646
  78       14D 0        0.09307   0.00000  -0.01167  -0.00063   0.00000
  79       14D+1       -0.00017  -0.00019   0.00036   0.15987   0.00004
  80       14D-1        0.00000   0.03561   0.00001   0.00087  -0.00025
  81       14D+2       -0.00049   0.00000   0.01363  -0.00005   0.00022
  82       14D-2       -0.00001  -0.00033   0.00015   0.00000  -0.01994
  83       15F 0        0.06361   0.00000   0.00790  -0.00038   0.00000
  84       15F+1       -0.00002  -0.00003  -0.00003   0.08141   0.00002
  85       15F-1        0.00000   0.00488   0.00000   0.00044  -0.00007
  86       15F+2        0.00207   0.00000   0.00976  -0.00024   0.00106
  87       15F-2        0.00002   0.00004   0.00011   0.00002  -0.09738
  88       15F+3       -0.00009   0.00023  -0.00003  -0.06211  -0.00001
  89       15F-3        0.00000  -0.01440   0.00000  -0.00101  -0.00008
  90       16F 0        0.00509   0.00000   0.00739   0.00037   0.00000
  91       16F+1        0.00000  -0.00022  -0.00017  -0.08110  -0.00002
  92       16F-1        0.00000   0.04089   0.00000  -0.00044   0.00023
  93       16F+2        0.00032   0.00000   0.00823   0.00025  -0.00012
  94       16F-2        0.00000  -0.00002   0.00009   0.00000   0.01139
  95       16F+3       -0.00002  -0.00028  -0.00014  -0.01435   0.00000
  96       16F-3        0.00000   0.01745   0.00000  -0.00023  -0.00010
  97 3   H  1S          0.00983   0.01636   0.14384  -0.00083   0.00210
  98        2S          0.05663   0.26413  -0.10564   0.00406  -0.00033
  99        3S         -0.30567  -1.37236   0.12825   0.00354   0.00148
 100        4S         -0.02073  -0.12842   0.00442   0.00001  -0.00066
 101        5PX        -0.00002   0.00000   0.00045  -0.00090  -0.09438
 102        5PY        -0.01830  -0.01432   0.02363  -0.00021   0.00045
 103        5PZ         0.02942  -0.00483   0.06149  -0.00067   0.00094
 104        6PX         0.00010  -0.00002   0.00082  -0.09272  -0.20790
 105        6PY        -0.00755   0.08268  -0.01836   0.00035   0.00050
 106        6PZ         0.07166   0.15662   0.03256   0.00051   0.00052
 107        7PX        -0.00050   0.00079   0.00109  -0.02204  -0.01492
 108        7PY        -0.03047  -0.25151  -0.03265  -0.00013   0.00146
 109        7PZ        -0.04948  -0.10365   0.11315   0.00130   0.00036
 110        8D 0        0.01279  -0.00169   0.01336  -0.00020   0.00029
 111        8D+1        0.00002  -0.00001   0.00022   0.00232  -0.03503
 112        8D-1        0.01193  -0.00124   0.02083  -0.00027   0.00032
 113        8D+2        0.01351  -0.00025  -0.00615   0.00005  -0.00015
 114        8D-2       -0.00001   0.00000   0.00020  -0.00446  -0.05047
 115        9D 0       -0.00598   0.00506   0.00048   0.00022  -0.00025
 116        9D+1        0.00017   0.00028   0.00031  -0.04045   0.01211
 117        9D-1        0.01902   0.05193   0.00741   0.00013   0.00032
 118        9D+2       -0.00400  -0.02279  -0.01088   0.00023  -0.00034
 119        9D-2       -0.00013  -0.00010  -0.00017  -0.02818  -0.02394
 120 4   H  1S          0.00983  -0.01637   0.14383  -0.00083  -0.00210
 121        2S          0.05660  -0.26412  -0.10562   0.00406   0.00033
 122        3S         -0.30564   1.37228   0.12840   0.00354  -0.00148
 123        4S         -0.02073   0.12841   0.00442   0.00001   0.00066
 124        5PX        -0.00022   0.00016   0.00071  -0.00094   0.09437
 125        5PY         0.01829  -0.01432  -0.02363   0.00020   0.00147
 126        5PZ         0.02942   0.00483   0.06149  -0.00067  -0.00094
 127        6PX         0.00002  -0.00088   0.00062  -0.09278   0.20784
 128        6PY         0.00755   0.08268   0.01836  -0.00136   0.00276
 129        6PZ         0.07165  -0.15662   0.03255   0.00051  -0.00052
 130        7PX        -0.00083   0.00194   0.00074  -0.02205   0.01489
 131        7PY         0.03046  -0.25149   0.03261  -0.00011   0.00162
 132        7PZ        -0.04947   0.10364   0.11315   0.00130  -0.00036
 133        8D 0        0.01279   0.00169   0.01336  -0.00020  -0.00029
 134        8D+1        0.00015   0.00002   0.00044   0.00230   0.03502
 135        8D-1       -0.01193  -0.00123  -0.02083   0.00029   0.00070
 136        8D+2        0.01351   0.00025  -0.00615  -0.00005   0.00125
 137        8D-2        0.00031   0.00000  -0.00033   0.00448  -0.05046
 138        9D 0       -0.00599  -0.00506   0.00048   0.00022   0.00025
 139        9D+1        0.00037  -0.00084   0.00039  -0.04044  -0.01213
 140        9D-1       -0.01901   0.05193  -0.00740  -0.00057   0.00019
 141        9D+2       -0.00401   0.02279  -0.01088  -0.00038   0.00086
 142        9D-2        0.00004   0.00040  -0.00006   0.02818  -0.02392
                          26        27        28        29        30
     Eigenvalues --     0.00601   0.00489   0.00464   0.00354   0.00234
   1 1   C  1S          0.03562   0.00000   0.13062   0.00003  -0.01415
   2        2S         -0.11809   0.00001  -0.52384  -0.00040   0.07862
   3        3S         -0.12194   0.00001  -0.42125   0.00022   0.03952
   4        4S          0.32577   0.00013  -0.80006  -0.00828   0.91936
   5        5S          0.08687   0.00004  -0.38201  -0.00109   0.28435
   6        6PX        -0.00251   0.00032  -0.00006   0.12410  -0.00004
   7        6PY        -0.00001  -0.05940   0.00000   0.00067   0.00000
   8        6PZ         0.21694   0.00001  -0.39371  -0.00158   0.03867
   9        7PX        -0.00253  -0.00047  -0.00038   0.11509  -0.00035
  10        7PY         0.00000   0.08576   0.00000   0.00062  -0.00003
  11        7PZ         0.27454   0.00001  -0.47118  -0.00202   0.11716
  12        8PX         0.00426  -0.00159  -0.00028   0.43433  -0.00092
  13        8PY         0.00007   0.29375  -0.00001   0.00235   0.00016
  14        8PZ         0.62354   0.00000  -0.23239   0.00184  -0.08637
  15        9PX         0.00023  -0.00002  -0.00002   0.02185   0.00056
  16        9PY         0.00000   0.00388   0.00000   0.00012   0.00001
  17        9PZ         0.04613   0.00000  -0.09364  -0.00013   0.01216
  18       10D 0        0.01841   0.00001  -0.18667  -0.00119   0.06946
  19       10D+1       -0.00049  -0.00149  -0.00073   0.32609   0.00260
  20       10D-1       -0.00001   0.27407   0.00000   0.00177   0.00000
  21       10D+2        0.20093   0.00001   0.05903   0.00134  -0.16246
  22       10D-2        0.00218  -0.00026   0.00064   0.00002  -0.00176
  23       11D 0        0.10756   0.00001  -0.36432  -0.00201   0.05294
  24       11D+1       -0.00125  -0.00307  -0.00122   0.60424   0.00445
  25       11D-1       -0.00003   0.56608   0.00001   0.00328   0.00001
  26       11D+2        0.44057   0.00000   0.07266   0.00146  -0.36650
  27       11D-2        0.00478   0.00064   0.00079   0.00001  -0.00397
  28       12D 0        0.20110   0.00001   0.19997   0.00319  -0.26903
  29       12D+1        0.00033  -0.00197   0.00080   0.13052  -0.00066
  30       12D-1       -0.00002   0.36379   0.00002   0.00071  -0.00006
  31       12D+2        0.11233   0.00001   0.10604   0.00195  -0.29013
  32       12D-2        0.00122  -0.00157   0.00115   0.00002  -0.00315
  33       13F 0       -0.02998   0.00000  -0.06136   0.00038  -0.10331
  34       13F+1       -0.00064   0.00032   0.00027  -0.01434   0.00010
  35       13F-1        0.00000  -0.05986   0.00000  -0.00008  -0.00001
  36       13F+2       -0.01700   0.00001  -0.02851   0.00015  -0.19515
  37       13F-2       -0.00018  -0.00067  -0.00031   0.00000  -0.00212
  38       13F+3       -0.00016  -0.00019  -0.00022   0.05899  -0.00044
  39       13F-3        0.00000   0.01144   0.00000   0.00096   0.00000
  40       14F 0       -0.10391   0.00000  -0.11720   0.00106  -0.11012
  41       14F+1       -0.00051   0.00004   0.00024   0.04667  -0.00088
  42       14F-1        0.00001  -0.00791  -0.00001   0.00025   0.00000
  43       14F+2       -0.05713   0.00003  -0.08781   0.00063  -0.19940
  44       14F-2       -0.00062  -0.00209  -0.00095   0.00001  -0.00216
  45       14F+3       -0.00069  -0.00085   0.00046   0.02251  -0.00011
  46       14F-3       -0.00001   0.05204   0.00001   0.00037   0.00000
  47 2   S  1S          0.05118   0.00000   0.00486  -0.00007   0.00620
  48        2S         -0.16164   0.00000  -0.01710   0.00020  -0.02582
  49        3S          0.69793   0.00001   0.05158  -0.00125   0.11389
  50        4S          0.50819   0.00001  -0.01902  -0.00142   0.16413
  51        5S         -2.01359  -0.00008   0.68832   0.00262  -0.31683
  52        6S         -0.36454  -0.00003   0.69462   0.00115  -0.23173
  53        7PX         0.00174   0.00035  -0.00059   0.17176   0.00114
  54        7PY         0.00001  -0.06451   0.00000   0.00093   0.00000
  55        7PZ        -0.17350  -0.00001  -0.00410   0.00067  -0.07976
  56        8PX        -0.00247   0.00017   0.00084  -0.28732  -0.00063
  57        8PY        -0.00002  -0.03187   0.00001  -0.00156  -0.00001
  58        8PZ         0.23104   0.00002  -0.35498  -0.00071  -0.03325
  59        9PX        -0.00326  -0.00088   0.00114  -0.34047  -0.00246
  60        9PY        -0.00003   0.16224   0.00001  -0.00185  -0.00001
  61        9PZ         0.34273   0.00001   0.03253  -0.00139   0.16725
  62       10PX         0.00563   0.00532  -0.00192  -0.01898   0.00203
  63       10PY         0.00007  -0.98048  -0.00003  -0.00010   0.00002
  64       10PZ         0.30852   0.00003  -0.99446  -0.00300   0.35540
  65       11PX         0.00020   0.00034  -0.00003  -0.00223  -0.00028
  66       11PY         0.00000  -0.06331   0.00000  -0.00001   0.00000
  67       11PZ         0.02078   0.00000  -0.10221  -0.00015   0.04285
  68       12D 0       -0.19010  -0.00002   0.66787   0.00228  -0.13600
  69       12D+1       -0.00150  -0.00251  -0.00078   0.45839   0.00162
  70       12D-1       -0.00002   0.46356   0.00000   0.00248   0.00001
  71       12D+2       -0.04244  -0.00002  -0.04502  -0.00104   0.14481
  72       12D-2       -0.00046   0.00116  -0.00049  -0.00001   0.00157
  73       13D 0       -0.14076  -0.00001   0.38255   0.00116  -0.03131
  74       13D+1       -0.00030  -0.00180  -0.00076   0.31007   0.00131
  75       13D-1       -0.00001   0.33233   0.00000   0.00168   0.00001
  76       13D+2       -0.14786  -0.00001  -0.08850  -0.00069   0.17946
  77       13D-2       -0.00160   0.00069  -0.00096  -0.00001   0.00195
  78       14D 0       -0.09691  -0.00001   0.28988   0.00119  -0.11370
  79       14D+1       -0.00072  -0.00128   0.00049   0.11080   0.00014
  80       14D-1       -0.00001   0.23545   0.00001   0.00060  -0.00002
  81       14D+2        0.01853   0.00000  -0.00499  -0.00026   0.03663
  82       14D-2        0.00020   0.00046  -0.00005   0.00000   0.00040
  83       15F 0       -0.01583   0.00000   0.15201   0.00040   0.13510
  84       15F+1       -0.00057  -0.00090   0.00010   0.10539   0.00162
  85       15F-1       -0.00001   0.16512   0.00000   0.00057  -0.00001
  86       15F+2       -0.05990  -0.00001  -0.04215  -0.00064   0.37924
  87       15F-2       -0.00065   0.00054  -0.00046  -0.00001   0.00411
  88       15F+3        0.00044   0.00026  -0.00008   0.01722   0.00079
  89       15F-3        0.00001  -0.01626   0.00000   0.00028   0.00001
  90       16F 0        0.03775   0.00000  -0.11090  -0.00063   0.07461
  91       16F+1        0.00051   0.00038  -0.00004  -0.08159  -0.00053
  92       16F-1        0.00000  -0.07013   0.00000  -0.00044   0.00000
  93       16F+2        0.01275   0.00001  -0.03200   0.00000   0.04940
  94       16F-2        0.00014  -0.00042  -0.00035   0.00000   0.00054
  95       16F+3        0.00016   0.00013   0.00001  -0.01771   0.00019
  96       16F-3        0.00000  -0.00810   0.00000  -0.00029   0.00000
  97 3   H  1S         -0.10172   0.22324  -0.08976   0.00301  -0.29592
  98        2S          0.41335  -0.27239   0.05173  -0.00120  -0.13075
  99        3S          0.46092  -0.72677   0.04791   0.00160  -0.14529
 100        4S          0.01140  -0.01981  -0.01719   0.00007  -0.01162
 101        5PX        -0.00065   0.00033  -0.00011  -0.09397  -0.00023
 102        5PY        -0.03056   0.10264  -0.03053   0.00068  -0.03590
 103        5PZ        -0.05991   0.00388   0.02558   0.00054  -0.01731
 104        6PX         0.00015   0.00100   0.00061  -0.13537   0.00007
 105        6PY         0.06133   0.08179  -0.06341  -0.00038  -0.00982
 106        6PZ         0.00978  -0.05525   0.03868   0.00021  -0.08295
 107        7PX         0.00095  -0.00156   0.00097  -0.00807  -0.00205
 108        7PY         0.02305  -0.05705  -0.09897  -0.00095   0.13368
 109        7PZ         0.12424   0.03571   0.09265   0.00194  -0.13590
 110        8D 0       -0.01494  -0.02185   0.00753  -0.00002   0.00152
 111        8D+1       -0.00030   0.00013  -0.00004  -0.01569   0.00016
 112        8D-1       -0.01816   0.01248   0.00719   0.00029  -0.02230
 113        8D+2        0.01109  -0.02987   0.02042  -0.00020   0.00734
 114        8D-2       -0.00025   0.00029   0.00005  -0.05124   0.00002
 115        9D 0       -0.00429  -0.01939  -0.01734   0.00015  -0.01304
 116        9D+1        0.00019  -0.00022   0.00015   0.00005  -0.00074
 117        9D-1        0.01658   0.02284   0.01339  -0.00005  -0.00190
 118        9D+2        0.02500  -0.03180   0.03340  -0.00007  -0.01164
 119        9D-2        0.00051   0.00013  -0.00004   0.01110   0.00014
 120 4   H  1S         -0.10170  -0.22323  -0.08976   0.00301  -0.29597
 121        2S          0.41326   0.27233   0.05175  -0.00120  -0.13079
 122        3S          0.46074   0.72673   0.04800   0.00160  -0.14564
 123        4S          0.01139   0.01981  -0.01719   0.00007  -0.01163
 124        5PX        -0.00098  -0.00144  -0.00044  -0.09395  -0.00062
 125        5PY         0.03055   0.10263   0.03052  -0.00170   0.03590
 126        5PZ        -0.05991  -0.00389   0.02558   0.00054  -0.01731
 127        6PX         0.00081  -0.00188  -0.00007  -0.13536  -0.00004
 128        6PY        -0.06131   0.08178   0.06340  -0.00109   0.00981
 129        6PZ         0.00977   0.05524   0.03867   0.00021  -0.08294
 130        7PX         0.00120   0.00218  -0.00010  -0.00808  -0.00060
 131        7PY        -0.02302  -0.05703   0.09895   0.00086  -0.13359
 132        7PZ         0.12422  -0.03570   0.09264   0.00194  -0.13591
 133        8D 0       -0.01494   0.02185   0.00753  -0.00002   0.00152
 134        8D+1       -0.00049  -0.00026   0.00004  -0.01569  -0.00008
 135        8D-1        0.01816   0.01248  -0.00719  -0.00046   0.02230
 136        8D+2        0.01108   0.02986   0.02041  -0.00131   0.00734
 137        8D-2        0.00049   0.00094   0.00039   0.05123   0.00014
 138        9D 0       -0.00429   0.01939  -0.01735   0.00015  -0.01303
 139        9D+1        0.00037  -0.00002   0.00029   0.00005  -0.00076
 140        9D-1       -0.01658   0.02284  -0.01338   0.00005   0.00189
 141        9D+2        0.02501   0.03178   0.03339   0.00017  -0.01164
 142        9D-2        0.00003   0.00082   0.00076  -0.01110  -0.00039
                          31        32        33        34        35
     Eigenvalues --     0.00208   0.00195   0.00194   0.00185   0.00154
   1 1   C  1S         -0.00001   0.00000   0.04391   0.00001   0.00032
   2        2S          0.00002  -0.00001  -0.19180  -0.00004  -0.00120
   3        3S          0.00002  -0.00001  -0.18326  -0.00004  -0.00174
   4        4S         -0.00001   0.00000   0.09171   0.00006   0.00874
   5        5S         -0.00001   0.00000   0.00648   0.00001   0.00211
[...]
 137        8D-2        0.00787   0.00121  -0.16875  -0.00058  -0.00116
 138        9D 0        1.03860   0.49249   0.00701   0.29766   1.36466
 139        9D+1        0.04809  -0.00483   0.05725   0.01716   0.00361
 140        9D-1       -0.61290   0.24732  -0.00135  -1.21490  -0.36081
 141        9D+2       -0.11213   0.25582  -0.01329   0.45263   1.39205
 142        9D-2       -0.05867  -0.00666   1.10275   0.00190   0.03210
                         136       137       138       139       140
     Eigenvalues --     0.00000   0.00000   0.00000   0.00000   0.00000
   1 1   C  1S         -0.00004   0.41761  -0.01475  -0.07396  -0.07855
   2        2S         -0.00021   2.44849  -0.08775  -0.39883  -0.44186
   3        3S          0.00002  -0.10171   0.00349   0.05431   0.02095
   4        4S         -0.00130  25.53814  -0.84173 -17.73075  -3.44046
   5        5S         -0.00170  16.69841  -0.66885  -2.46115   4.70901
   6        6PX        -0.00022  -0.00068  -0.02077   0.00000   0.00001
   7        6PY         0.04141   0.00000  -0.00011   0.00000   0.00000
   8        6PZ        -0.00001   0.05437  -0.00217   0.01796   0.01112
   9        7PX         0.01583  -0.00127   0.35643   0.00589   0.00210
  10        7PY        -2.92092  -0.00107   0.00197   0.00014   0.00008
  11        7PZ         0.00014  -2.07756   0.08124   0.28885   0.32592
  12        8PX         0.09144  -0.04732   0.00817   0.03185   0.01766
  13        8PY       -16.86666  -0.00441   0.00018   0.00061   0.00039
  14        8PZ         0.00155  -8.26205   0.35393   0.43360   9.10816
  15        9PX         0.03535  -0.13872  -2.90050  -0.01843   0.00995
  16        9PY        -6.51839  -0.00188  -0.01569   0.00014   0.00007
  17        9PZ         0.00020  -0.79279   0.05595  -1.74188   5.75195
  18       10D 0        0.00000   0.00067  -0.00005   0.00305  -0.01205
  19       10D+1       -0.00046   0.00107  -0.00044  -0.00003  -0.00007
  20       10D-1        0.08456   0.00005   0.00000   0.00000   0.00000
  21       10D+2        0.00002  -0.14573   0.00649   0.00878   0.01162
  22       10D-2        0.00008  -0.00158   0.00007   0.00010   0.00013
  23       11D 0       -0.00007   0.10281  -0.00826  -0.29586   0.23286
  24       11D+1       -0.00962  -0.00192  -0.28521  -0.00395  -0.00206
  25       11D-1        1.77519   0.00059  -0.00157  -0.00006  -0.00005
  26       11D+2       -0.00029  -1.19259   0.03478   0.52420   0.32955
  27       11D-2        0.02512  -0.01293   0.00038   0.00568   0.00357
  28       12D 0       -0.00095   3.87198  -0.23312   0.82347   1.84711
  29       12D+1       -0.03836  -0.03094  -2.65922   0.00394  -0.00084
  30       12D-1        7.07462   0.00103  -0.01446   0.00007  -0.00001
  31       12D+2       -0.00077   0.82745  -0.08279   0.98747   0.97214
  32       12D-2        0.03098   0.00898  -0.00092   0.01071   0.01054
  33       13F 0       -0.00003   0.09499  -0.00452   0.01586  -0.00255
  34       13F+1        0.00036   0.00152   0.01519   0.00064   0.00025
  35       13F-1       -0.06606   0.00000   0.00008   0.00001   0.00000
  36       13F+2        0.00000   0.13399  -0.00576  -0.02674  -0.01792
  37       13F-2       -0.00082   0.00145  -0.00006  -0.00029  -0.00019
  38       13F+3       -0.00113   0.00210  -0.00490  -0.00051  -0.00046
  39       13F-3        0.06969   0.00006  -0.00008  -0.00001  -0.00001
  40       14F 0        0.00018  -0.17959   0.01584  -0.62096  -0.02355
  41       14F+1       -0.00195  -0.01097   0.02610  -0.00307  -0.00078
  42       14F-1        0.36068  -0.00007   0.00014  -0.00006   0.00001
  43       14F+2        0.00013   0.26028  -0.00297  -0.24349  -0.11027
  44       14F-2       -0.00897   0.00282  -0.00003  -0.00264  -0.00120
  45       14F+3       -0.00269  -0.00538  -0.01818   0.00042   0.00000
  46       14F-3        0.16547  -0.00005  -0.00030  -0.00001  -0.00001
  47 2   S  1S          0.00000   0.01505  -0.00079   0.01318   0.00273
  48        2S         -0.00005   0.19861  -0.01096   0.20489   0.02020
  49        3S         -0.00014   0.62793  -0.03358   0.57737   0.10693
  50        4S         -0.00002   0.03054  -0.00061  -0.08685   0.10212
  51        5S          0.00027  -2.91336   0.16474   1.97542  -5.67275
  52        6S          0.00085  -9.82208   0.40518  -2.54316 -16.02478
  53        7PX        -0.00003   0.00080   0.00377   0.00019   0.00002
  54        7PY         0.00623   0.00001   0.00002   0.00000   0.00000
  55        7PZ         0.00000  -0.00309   0.00026  -0.04209  -0.00478
  56        8PX        -0.00046   0.00961  -0.02362   0.00278   0.00052
  57        8PY         0.08440   0.00007  -0.00013   0.00004   0.00000
  58        8PZ         0.00008  -0.23431   0.01369  -1.04113   0.03960
  59        9PX         0.00017  -0.00288  -0.01887  -0.00064  -0.00005
  60        9PY        -0.03195  -0.00002  -0.00010  -0.00001   0.00000
  61        9PZ         0.00001  -0.03341   0.00142   0.08580   0.02907
  62       10PX         0.02227   0.03534   2.17455  -0.00356  -0.00084
  63       10PY        -4.10730  -0.00034   0.01181  -0.00004  -0.00005
  64       10PZ        -0.00017   3.84813  -0.15875   0.37563   6.64024
  65       11PX        -0.00312   0.11593   2.74215   0.02022  -0.00225
  66       11PY         0.57460   0.00071   0.01486   0.00006   0.00000
  67       11PZ        -0.00028   2.85909  -0.13170   2.73071   2.27333
  68       12D 0        0.00003  -0.30947   0.00852   0.67992  -0.29772
  69       12D+1       -0.00165   0.00207   0.12323   0.00025  -0.00056
  70       12D-1        0.30533   0.00004   0.00067  -0.00002   0.00001
  71       12D+2        0.00000  -0.05691   0.00214   0.02161  -0.02307
  72       12D-2        0.00079  -0.00062   0.00003   0.00023  -0.00025
  73       13D 0       -0.00001   0.06379  -0.00210  -0.05054   0.02448
  74       13D+1       -0.00004  -0.00250  -0.04626  -0.00056   0.00001
  75       13D-1        0.00739  -0.00001  -0.00025   0.00000   0.00000
  76       13D+2        0.00000   0.01650  -0.00089   0.00130   0.00829
  77       13D-2       -0.00002   0.00018  -0.00001   0.00001   0.00009
  78       14D 0        0.00007  -1.47624   0.05876  -1.16456  -1.53426
  79       14D+1       -0.01035  -0.05505  -1.87446  -0.00529   0.00109
  80       14D-1        1.90936  -0.00007  -0.01017  -0.00003   0.00002
  81       14D+2        0.00001   0.21106  -0.00795   0.22023  -0.05475
  82       14D-2       -0.00074   0.00229  -0.00009   0.00239  -0.00059
  83       15F 0        0.00000  -0.05832   0.00194  -0.03524  -0.01645
  84       15F+1        0.00002  -0.00017  -0.02623   0.00027   0.00010
  85       15F-1       -0.00419  -0.00001  -0.00014   0.00000   0.00000
  86       15F+2        0.00000   0.01150  -0.00032   0.01327  -0.00911
  87       15F-2        0.00004   0.00012   0.00000   0.00014  -0.00010
  88       15F+3        0.00046   0.00050   0.00443   0.00014   0.00002
  89       15F-3       -0.02820   0.00001   0.00007   0.00000   0.00000
  90       16F 0       -0.00004   0.38372  -0.01340  -0.01345   0.13679
  91       16F+1        0.00156   0.00855   0.22988   0.00060  -0.00017
  92       16F-1       -0.28739   0.00002   0.00125   0.00002  -0.00001
  93       16F+2        0.00002  -0.12648   0.00579  -0.11746   0.03895
  94       16F-2       -0.00082  -0.00137   0.00006  -0.00127   0.00042
  95       16F+3       -0.00132  -0.00111  -0.01537  -0.00071  -0.00008
  96       16F-3        0.08088  -0.00001  -0.00025  -0.00001   0.00000
  97 3   H  1S          0.05077   0.10127  -0.00453  -0.01930  -0.01665
  98        2S         -3.68699  -3.73454   0.13004   1.50405   0.92197
  99        3S        -29.56217 -11.83279   0.37071   9.34123   8.10417
 100        4S         -5.26430  -1.31151   0.05381   0.59344   2.12680
 101        5PX        -0.00079   0.00419   0.07585  -0.00008  -0.00005
 102        5PY         0.11358   0.06779  -0.00269  -0.03487  -0.02792
 103        5PZ         0.07425   0.04145  -0.00088   0.00047  -0.01671
 104        6PX         0.00787  -0.02057  -0.39487   0.00111   0.00100
 105        6PY        -1.75546  -2.06912   0.07999   0.63295   0.41532
 106        6PZ        -1.41757  -0.94031   0.02767   0.38957   0.24713
 107        7PX        -0.01178   0.00717  -0.96258   0.00693   0.00795
 108        7PY        -5.04410  -5.05535   0.21445   2.03104   1.66231
 109        7PZ        -3.44136   2.35703  -0.17802   3.77240   1.09468
 110        8D 0        0.03318  -0.03492   0.00141  -0.01430   0.00970
 111        8D+1       -0.00023   0.00054  -0.00621   0.00021   0.00001
 112        8D-1       -0.05140  -0.17225   0.00779  -0.02227   0.01356
 113        8D+2        0.12471   0.12174  -0.00537   0.01414  -0.01565
 114        8D-2        0.00049   0.00279   0.07389   0.00040  -0.00027
 115        9D 0       -0.21088   0.49772  -0.02248   0.00005  -0.07612
 116        9D+1        0.00403  -0.00832   0.02005  -0.00127   0.00049
 117        9D-1       -0.86862  -0.00682  -0.00969   0.54528   0.08500
 118        9D+2       -0.11619   0.60162  -0.02369  -0.15960  -0.05974
 119        9D-2       -0.00081  -0.01405  -0.50623  -0.00111   0.00149
 120 4   H  1S         -0.05079   0.10125  -0.00453  -0.01930  -0.01665
 121        2S          3.68671  -3.73178   0.12995   1.50379   0.92173
 122        3S         29.56412 -11.81744   0.37019   9.33984   8.10316
 123        4S          5.26459  -1.30949   0.05374   0.59301   2.12664
 124        5PX        -0.00044   0.00492   0.07581  -0.00046  -0.00036
 125        5PY         0.11364  -0.06771   0.00351   0.03487   0.02792
 126        5PZ        -0.07425   0.04145  -0.00088   0.00048  -0.01672
 127        6PX         0.01117  -0.04299  -0.39395   0.00797   0.00550
 128        6PY        -1.75601   2.06753  -0.08423  -0.63291  -0.41524
 129        6PZ         1.41747  -0.93953   0.02765   0.38940   0.24709
 130        7PX         0.06647  -0.04760  -0.96009   0.02895   0.02597
 131        7PY        -5.04622   5.05156  -0.22474  -2.03086  -1.66203
 132        7PZ         3.43981   2.35867  -0.17807   3.77177   1.09450
 133        8D 0       -0.03316  -0.03491   0.00141  -0.01429   0.00970
 134        8D+1        0.00079  -0.00132  -0.00612  -0.00003   0.00016
 135        8D-1       -0.05143   0.17218  -0.00786   0.02227  -0.01356
 136        8D+2       -0.12470   0.12172  -0.00376   0.01416  -0.01564
 137        8D-2       -0.00222  -0.00016  -0.07399  -0.00010  -0.00007
 138        9D 0        0.21060   0.49768  -0.02248  -0.00005  -0.07613
 139        9D+1        0.00539  -0.00839   0.01995   0.00465   0.00141
 140        9D-1       -0.86859   0.00634   0.00992  -0.54519  -0.08499
 141        9D+2        0.11573   0.60098  -0.03465  -0.15964  -0.05970
 142        9D-2        0.00170   0.02709   0.50559  -0.00236  -0.00279
                         141       142
     Eigenvalues --     0.00000   0.00000
   1 1   C  1S          0.00000  -0.00351
   2        2S          0.00001  -0.00738
   3        3S         -0.00003   0.04599
   4        4S         -0.00465   8.09540
   5        5S         -0.00981  16.08537
   6        6PX         0.00004  -0.00014
   7        6PY        -0.00790   0.00000
   8        6PZ         0.00000   0.00390
   9        7PX         0.00089  -0.00028
  10        7PY        -0.16327  -0.00014
  11        7PZ         0.00004  -0.06849
  12        8PX         0.02760  -0.01079
  13        8PY        -5.09005  -0.00296
  14        8PZ        -0.00079   1.14716
  15        9PX         0.02858  -0.00964
  16        9PY        -5.27109  -0.00317
  17        9PZ        -0.00082   1.19758
  18       10D 0       -0.00001   0.00940
  19       10D+1        0.00008   0.00007
  20       10D-1       -0.01480  -0.00001
  21       10D+2        0.00001  -0.01267
  22       10D-2        0.00009  -0.00014
  23       11D 0        0.00006  -0.08469
  24       11D+1       -0.00070  -0.00018
  25       11D-1        0.12845   0.00011
  26       11D+2        0.00000   0.01919
  27       11D-2       -0.00064   0.00021
  28       12D 0       -0.00040   0.42427
  29       12D+1        0.00500   0.00425
  30       12D-1       -0.92210  -0.00035
  31       12D+2        0.00012  -0.36863
  32       12D-2        0.00852  -0.00399
  33       13F 0        0.00001  -0.01197
  34       13F+1       -0.00003  -0.00006
  35       13F-1        0.00470   0.00000
  36       13F+2        0.00000  -0.00520
  37       13F-2        0.00025  -0.00006
  38       13F+3       -0.00006   0.00021
  39       13F-3        0.00389   0.00001
  40       14F 0       -0.00001   0.02228
  41       14F+1        0.00051   0.00034
  42       14F-1       -0.09480  -0.00006
  43       14F+2        0.00003  -0.04650
  44       14F-2        0.00012  -0.00050
  45       14F+3        0.00021  -0.00109
  46       14F-3       -0.01306  -0.00003
  47 2   S  1S          0.00000   0.00305
  48        2S         -0.00003   0.04720
  49        3S         -0.00008   0.13325
  50        4S          0.00001  -0.01479
  51        5S          0.00125  -1.74585
  52        6S          0.00547  -8.69182
  53        7PX         0.00003   0.00001
  54        7PY        -0.00567   0.00000
  55        7PZ         0.00000  -0.00282
  56        8PX         0.00026   0.00018
  57        8PY        -0.04873  -0.00003
  58        8PZ         0.00002  -0.04475
  59        9PX        -0.00013  -0.00002
  60        9PY         0.02453   0.00002
  61        9PZ        -0.00001   0.01205
  62       10PX        -0.00698  -0.00374
  63       10PY         1.28902   0.00063
  64       10PZ        -0.00147   2.29573
  65       11PX        -0.00285   0.00025
  66       11PY         0.52619   0.00030
  67       11PZ        -0.00139   2.30312
  68       12D 0        0.00003  -0.04486
  69       12D+1        0.00044   0.00027
  70       12D-1       -0.08092  -0.00004
  71       12D+2       -0.00001   0.03439
  72       12D-2       -0.00089   0.00037
  73       13D 0       -0.00001   0.00717
  74       13D+1       -0.00001  -0.00006
  75       13D-1        0.00212   0.00000
  76       13D+2        0.00000  -0.00793
  77       13D-2        0.00025  -0.00009
  78       14D 0        0.00038  -0.63263
  79       14D+1        0.00240   0.00227
  80       14D-1       -0.44299  -0.00021
  81       14D+2        0.00003  -0.07954
  82       14D-2        0.00284  -0.00086
  83       15F 0        0.00001  -0.01523
  84       15F+1        0.00000   0.00008
  85       15F-1       -0.00042   0.00000
  86       15F+2        0.00000  -0.00622
  87       15F-2        0.00017  -0.00007
  88       15F+3        0.00006  -0.00002
  89       15F-3       -0.00350   0.00000
  90       16F 0       -0.00004   0.06419
  91       16F+1       -0.00020  -0.00041
  92       16F-1        0.03702   0.00002
  93       16F+2        0.00000   0.01290
  94       16F-2       -0.00072   0.00014
  95       16F+3       -0.00035   0.00031
  96       16F-3        0.02137   0.00001
  97 3   H  1S         -0.01338  -0.01305
  98        2S         -0.03913   0.17937
  99        3S         -8.35636  -4.87871
 100        4S         -8.18159  -2.44477
 101        5PX         0.00004   0.00006
 102        5PY         0.02108   0.00821
 103        5PZ         0.00577   0.01563
 104        6PX        -0.00064  -0.00027
 105        6PY        -0.25843  -0.09157
 106        6PZ        -0.08550  -0.15249
 107        7PX         0.00519   0.00041
 108        7PY        -2.57739  -1.16732
 109        7PZ        -2.32337  -0.99200
 110        8D 0        0.00739   0.00640
 111        8D+1        0.00011   0.00010
 112        8D-1        0.01217   0.01123
 113        8D+2       -0.02574  -0.00074
 114        8D-2       -0.00044   0.00003
 115        9D 0       -0.01652  -0.04547
 116        9D+1       -0.00068  -0.00049
 117        9D-1       -0.18932  -0.19860
 118        9D+2        0.23896   0.07423
 119        9D-2        0.00078   0.00041
 120 4   H  1S          0.01340  -0.01304
 121        2S          0.03886   0.17957
 122        3S          8.36193  -4.86863
 123        4S          8.18446  -2.43485
 124        5PX        -0.00027   0.00015
 125        5PY         0.02109  -0.00818
 126        5PZ        -0.00579   0.01562
 127        6PX         0.00344  -0.00126
 128        6PY        -0.25853   0.09120
 129        6PZ         0.08569  -0.15237
 130        7PX         0.02277  -0.01222
 131        7PY        -2.57882   1.16426
 132        7PZ         2.32435  -0.98945
 133        8D 0       -0.00740   0.00639
 134        8D+1       -0.00024   0.00022
 135        8D-1        0.01218  -0.01122
 136        8D+2        0.02575  -0.00071
 137        8D-2        0.00012  -0.00004
 138        9D 0        0.01657  -0.04547
 139        9D+1        0.00273  -0.00264
 140        9D-1       -0.18956   0.19838
 141        9D+2       -0.23904   0.07395
 142        9D-2       -0.00440   0.00120
          Condensed to atoms (all electrons):
              1          2          3          4
     1  C    6.184998   0.274385   0.183319   0.183342
     2  S    0.274385  16.028285  -0.118605  -0.118600
     3  H    0.183319  -0.118605   0.649792  -0.160289
     4  H    0.183342  -0.118600  -0.160289   0.649822
 Mulliken atomic charges:
              1
     1  C   -0.826044
     2  S   -0.065465
     3  H    0.445783
     4  H    0.445726
 Sum of Mulliken atomic charges =   0.00000
 Mulliken charges with hydrogens summed into heavy atoms:
              1
     1  C    0.065465
     2  S   -0.065465
 Sum of Mulliken charges with hydrogens summed into heavy atoms =   0.00000
 Electronic spatial extent (au):  <R**2>=            130.2862
 Charge=              0.0000 electrons
 Dipole moment (field-independent basis, Debye):
    X=             -0.0070    Y=              0.0000    Z=             -1.7523  Tot=              1.7524
 Quadrupole moment (field-independent basis, Debye-Ang):
   XX=            -19.9779   YY=            -20.5753   ZZ=            -18.9725
   XY=              0.0032   XZ=              0.0047   YZ=              0.0001
 Traceless Quadrupole moment (field-independent basis, Debye-Ang):
   XX=             -0.1360   YY=             -0.7334   ZZ=              0.8694
   XY=              0.0032   XZ=              0.0047   YZ=              0.0001
 Octapole moment (field-independent basis, Debye-Ang**2):
  XXX=              0.0174  YYY=             -0.0002  ZZZ=            -27.6807  XYY=             -0.0051
  XXY=              0.0001  XXZ=             -8.5634  XZZ=             -0.0098  YZZ=             -0.0001
  YYZ=            -13.1330  XYZ=              0.0248
 Hexadecapole moment (field-independent basis, Debye-Ang**3):
 XXXX=            -25.3180 YYYY=            -35.1168 ZZZZ=           -127.3611 XXXY=              0.0335
 XXXZ=             -0.0280 YYYX=              0.0196 YYYZ=              0.0003 ZZZX=             -0.0241
 ZZZY=              0.0003 XXYY=            -10.5016 XXZZ=            -25.3323 YYZZ=            -29.5532
 XXYZ=             -0.0001 YYXZ=              0.0033 ZZXY=              0.0229
 N-N= 4.470382235758D+01 E-N=-1.127363175435D+03  KE= 4.368673343154D+02
 1\1\GINC-TRAPISTA\SP\RQCISD-FC\Aug-CC-pVTZ\C1H2S1\BRUNS\17-Nov-2021\0\
 \# qcisd/aug-cc-pvtz nosymm density=current output=wfn\\h2cs-wavefunct
 ion\\0,1\C,0,0.,0.,-0.555291\S,0,0.,0.,1.060374\H,0,0.,-0.92228,-1.128
 992\H,0,-0.01,0.92228,-1.128992\\Version=EM64L-G09RevB.01\HF=-436.5575
 856\MP2=-436.8984562\MP3=-436.9212683\MP4D=-436.9312882\MP4DQ=-436.919
 6249\MP4SDQ=-436.9231076\QCISD=-436.9235123\RMSD=6.217e-09\Dipole=-0.0
 027662,-0.000015,-0.6894245\Quadrupole=-0.1011356,-0.5452628,0.6463984
 ,0.0024076,0.0034737,0.0000434\PG=C01 [X(C1H2S1)]\\@

 Writing a WFN file to GAUSSIAN.wfn.


 TIME IS NATURE'S WAY OF MAKING SURE EVERYTHING
 DOESN'T HAPPEN AT ONCE.
                     - WOODY ALLEN
 Job cpu time:  0 days  0 hours 24 minutes 55.4 seconds.
 File lengths (MBytes):  RWF=   5923 Int=      0 D2E=      0 Chk=      2 Scr=      1
 Normal termination of Gaussian 09 at Wed Nov 17 18:06:13 2021.
