 Entering Gaussian System, Link 0=/home/bruns/programas/chemistry/gaussian/g09/g09
 Input=GAUSSIAN.com
 Output=GAUSSIAN.log
 Initial command:
 /home/bruns/programas/chemistry/gaussian/g09/l1.exe /home/bruns/programas/chemistry/gaussian/work/Gau-30734.inp -scrdir=/home/bruns/programas/chemistry/gaussian/work/
 Entering Link 1 = /home/bruns/programas/chemistry/gaussian/g09/l1.exe PID=     30736.
  
 Copyright (c) 1988,1990,1992,1993,1995,1998,2003,2009,2010,
            Gaussian, Inc.  All Rights Reserved.
  
 This is part of the Gaussian(R) 09 program.  It is based on
 the Gaussian(R) 03 system (copyright 2003, Gaussian, Inc.),
 the Gaussian(R) 98 system (copyright 1998, Gaussian, Inc.),
 the Gaussian(R) 94 system (copyright 1995, Gaussian, Inc.),
 the Gaussian 92(TM) system (copyright 1992, Gaussian, Inc.),
 the Gaussian 90(TM) system (copyright 1990, Gaussian, Inc.),
 the Gaussian 88(TM) system (copyright 1988, Gaussian, Inc.),
 the Gaussian 86(TM) system (copyright 1986, Carnegie Mellon
 University), and the Gaussian 82(TM) system (copyright 1983,
 Carnegie Mellon University). Gaussian is a federally registered
 trademark of Gaussian, Inc.
  
 This software contains proprietary and confidential information,
 including trade secrets, belonging to Gaussian, Inc.
  
 This software is provided under written license and may be
 used, copied, transmitted, or stored only in accord with that
 written license.
  
 The following legend is applicable only to US Government
 contracts under FAR:
  
                    RESTRICTED RIGHTS LEGEND
  
 Use, reproduction and disclosure by the US Government is
 subject to restrictions as set forth in subparagraphs (a)
 and (c) of the Commercial Computer Software - Restricted
 Rights clause in FAR 52.227-19.
  
 Gaussian, Inc.
 340 Quinnipiac St., Bldg. 40, Wallingford CT 06492
  
  
 ---------------------------------------------------------------
 Warning -- This program may not be used in any manner that
 competes with the business of Gaussian, Inc. or will provide
 assistance to any competitor of Gaussian, Inc.  The licensee
 of this program is prohibited from giving any competitor of
 Gaussian, Inc. access to this program.  By using this program,
 the user acknowledges that Gaussian, Inc. is engaged in the
 business of creating and licensing software in the field of
 computational chemistry and represents and warrants to the
 licensee that it is not a competitor of Gaussian, Inc. and that
 it will not use this program in any manner prohibited above.
 ---------------------------------------------------------------
  

 Cite this work as:
 Gaussian 09, Revision B.01,
 M. J. Frisch, G. W. Trucks, H. B. Schlegel, G. E. Scuseria, 
 M. A. Robb, J. R. Cheeseman, G. Scalmani, V. Barone, B. Mennucci, 
 G. A. Petersson, H. Nakatsuji, M. Caricato, X. Li, H. P. Hratchian, 
 A. F. Izmaylov, J. Bloino, G. Zheng, J. L. Sonnenberg, M. Hada, 
 M. Ehara, K. Toyota, R. Fukuda, J. Hasegawa, M. Ishida, T. Nakajima, 
 Y. Honda, O. Kitao, H. Nakai, T. Vreven, J. A. Montgomery, Jr., 
 J. E. Peralta, F. Ogliaro, M. Bearpark, J. J. Heyd, E. Brothers, 
 K. N. Kudin, V. N. Staroverov, T. Keith, R. Kobayashi, J. Normand, 
 K. Raghavachari, A. Rendell, J. C. Burant, S. S. Iyengar, J. Tomasi, 
 M. Cossi, N. Rega, J. M. Millam, M. Klene, J. E. Knox, J. B. Cross, 
 V. Bakken, C. Adamo, J. Jaramillo, R. Gomperts, R. E. Stratmann, 
 O. Yazyev, A. J. Austin, R. Cammi, C. Pomelli, J. W. Ochterski, 
 R. L. Martin, K. Morokuma, V. G. Zakrzewski, G. A. Voth, 
 P. Salvador, J. J. Dannenberg, S. Dapprich, A. D. Daniels, 
 O. Farkas, J. B. Foresman, J. V. Ortiz, J. Cioslowski, 
 and D. J. Fox, Gaussian, Inc., Wallingford CT, 2010.
 
 ******************************************
 Gaussian 09:  EM64L-G09RevB.01 12-Aug-2010
                17-Nov-2021 
 ******************************************
 %nproc=8
 Will use up to    8 processors via shared memory.
 %mem=8GB
 -----------------------------------------------------
 # qcisd/aug-cc-pvtz nosymm density=current output=wfn
 -----------------------------------------------------
 1/30=1,38=1/1;
 2/12=2,15=1,17=6,18=5,40=1/2;
 3/5=16,6=1,7=10,11=9,16=1,25=1,30=1,71=1/1,2,3;
 4//1;
 5/5=2,38=5/2;
 8/6=4,9=120000,10=1/1,4;
 9/5=8,15=1/13;
 11/28=-7,31=1,32=3,42=3/11;
 10/5=6,13=10,31=1/2;
 6/7=2,8=2,9=2,10=2,22=-1,31=1/1;
 99/5=1,6=1100,9=1/99;
 -----------------
 h2cs-wavefunction
 -----------------
 Symbolic Z-matrix:
 Charge =  0 Multiplicity = 1
 C                     0.        0.       -0.55529 
 S                     0.        0.        1.06037 
 H                     0.       -0.92228  -1.12899 
 H                     0.        0.91228  -1.12899 
 
                          Input orientation:                          
 ---------------------------------------------------------------------
 Center     Atomic      Atomic             Coordinates (Angstroms)
 Number     Number       Type             X           Y           Z
 ---------------------------------------------------------------------
      1          6           0        0.000000    0.000000   -0.555291
      2         16           0        0.000000    0.000000    1.060374
      3          1           0        0.000000   -0.922280   -1.128992
      4          1           0        0.000000    0.912280   -1.128992
 ---------------------------------------------------------------------
                    Distance matrix (angstroms):
                    1          2          3          4
     1  C    0.000000
     2  S    1.615665   0.000000
     3  H    1.086155   2.375694   0.000000
     4  H    1.077677   2.371830   1.834560   0.000000
 Symmetry turned off by external request.
 Stoichiometry    CH2S
 Framework group  CS[SG(CH2S)]
 Deg. of freedom     5
 Full point group                 CS      NOp   2
 Rotational constants (GHZ):    297.9809946     17.6287150     16.6440445
 Standard basis: Aug-CC-pVTZ (5D, 7F)
 Integral buffers will be    131072 words long.
 Raffenetti 1 integral format.
 Two-electron integral symmetry is turned off.
   142 basis functions,   240 primitive gaussians,   164 cartesian basis functions
    12 alpha electrons       12 beta electrons
       nuclear repulsion energy        44.7343497550 Hartrees.
 NAtoms=    4 NActive=    4 NUniq=    4 SFac= 1.00D+00 NAtFMM=   50 NAOKFM=F Big=F
 One-electron integrals computed using PRISM.
 NBasis=   142 RedAO= T  NBF=   142
 NBsUse=   142 1.00D-06 NBFU=   142
 Harris functional with IExCor=  205 diagonalized for initial guess.
 ExpMin= 2.53D-02 ExpMax= 3.74D+05 ExpMxC= 1.18D+03 IAcc=3 IRadAn=         0 AccDes= 0.00D+00
 HarFok:  IExCor=  205 AccDes= 0.00D+00 IRadAn=         0 IDoV= 1
 ScaDFX=  1.000000  1.000000  1.000000  1.000000
 FoFCou: FMM=F IPFlag=           0 FMFlag=      100000 FMFlg1=           0
         NFxFlg=           0 DoJE=T BraDBF=F KetDBF=T FulRan=T
         Omega=  0.000000  0.000000  1.000000  0.000000  0.000000 ICntrl=     500 IOpCl=  0
         NMat0=    1 NMatS0=    1 NMatT0=    0 NMatD0=    1 NMtDS0=    0 NMtDT0=    0
         I1Cent=           4 NGrid=           0.
 Symmetry not used in FoFCou.
 Requested convergence on RMS density matrix=1.00D-08 within 128 cycles.
 Requested convergence on MAX density matrix=1.00D-06.
 Requested convergence on             energy=1.00D-06.
 No special actions if energy rises.
 Keep R1 ints in memory in canonical form, NReq=93884347.
 SCF Done:  E(RHF) =  -436.557647869     A.U. after   11 cycles
             Convg  =    0.6873D-08             -V/T =  2.0002
 ExpMin= 2.53D-02 ExpMax= 3.74D+05 ExpMxC= 1.18D+03 IAcc=3 IRadAn=         5 AccDes= 0.00D+00
 HarFok:  IExCor=  205 AccDes= 0.00D+00 IRadAn=         5 IDoV=-2
 ScaDFX=  1.000000  1.000000  1.000000  1.000000
 Range of M.O.s used for correlation:     7   142
 NBasis=   142 NAE=    12 NBE=    12 NFC=     6 NFV=     0
 NROrb=    136 NOA=     6 NOB=     6 NVA=   130 NVB=   130

 **** Warning!!: The largest alpha MO coefficient is  0.44657539D+02

 Semi-Direct transformation.
 ModeAB=           2 MOrb=             6 LenV=    1073081967
 LASXX=      7286295 LTotXX=     7286295 LenRXX=     7286295
 LTotAB=     7445736 MaxLAS=    11040480 LenRXY=    11040480
 NonZer=    14572590 LenScr=    22628352 LnRSAI=           0
 LnScr1=           0 LExtra=           0 Total=     40955127
 MaxDsk=          -1 SrtSym=           F ITran=            4
 JobTyp=0 Pass  1:  I=   1 to   6.
 (rs|ai) integrals will be sorted in core.
 Spin components of T(2) and E(2):
     alpha-alpha T2 =       0.1682046770D-01 E2=     -0.3866227898D-01
     alpha-beta  T2 =       0.1050783633D+00 E2=     -0.2634294242D+00
     beta-beta   T2 =       0.1682046770D-01 E2=     -0.3866227898D-01
 ANorm=    0.1067107913D+01
 E2 =    -0.3407539821D+00 EUMP2 =    -0.43689840185085D+03
 R2 and R3 integrals will be kept in memory, NReq=   185320410.
 Iterations=  50 Convergence= 0.100D-07
 Iteration Nr.   1
 **********************
 DD1Dir will call FoFMem   1 times, MxPair=        42
 NAB=    21 NAA=     0 NBB=     0.
 MP4(R+Q)=  0.11654170D-01
 E3=       -0.22841280D-01        EUMP3=      -0.43692124313D+03
 E4(DQ)=    0.16557663D-02        UMP4(DQ)=   -0.43691958736D+03
 E4(SDQ)=  -0.18189006D-02        UMP4(SDQ)=  -0.43692306203D+03
 DE(Corr)= -0.35194109     E(Corr)=     -436.90958896    
 NORM(A)=   0.10737567D+01
 Iteration Nr.   2
 **********************
 DD1Dir will call FoFMem   1 times, MxPair=        42
 NAB=    21 NAA=     0 NBB=     0.
 DE(Corr)= -0.36333608     E(CORR)=     -436.92098394     Delta=-1.14D-02
 NORM(A)=   0.10811079D+01
 Iteration Nr.   3
 **********************
 DD1Dir will call FoFMem   1 times, MxPair=        42
 NAB=    21 NAA=     0 NBB=     0.
 DE(Corr)= -0.36426341     E(CORR)=     -436.92191128     Delta=-9.27D-04
 NORM(A)=   0.10835313D+01
 Iteration Nr.   4
 **********************
 DD1Dir will call FoFMem   1 times, MxPair=        42
 NAB=    21 NAA=     0 NBB=     0.
 DE(Corr)= -0.36558772     E(CORR)=     -436.92323559     Delta=-1.32D-03
 NORM(A)=   0.10845224D+01
 Iteration Nr.   5
 **********************
 DD1Dir will call FoFMem   1 times, MxPair=        42
 NAB=    21 NAA=     0 NBB=     0.
 DE(Corr)= -0.36578490     E(CORR)=     -436.92343277     Delta=-1.97D-04
 NORM(A)=   0.10848832D+01
 Iteration Nr.   6
 **********************
 DD1Dir will call FoFMem   1 times, MxPair=        42
 NAB=    21 NAA=     0 NBB=     0.
 DE(Corr)= -0.36581680     E(CORR)=     -436.92346466     Delta=-3.19D-05
 NORM(A)=   0.10848977D+01
 Iteration Nr.   7
 **********************
 DD1Dir will call FoFMem   1 times, MxPair=        42
 NAB=    21 NAA=     0 NBB=     0.
 DE(Corr)= -0.36581819     E(CORR)=     -436.92346606     Delta=-1.40D-06
 NORM(A)=   0.10849093D+01
 Iteration Nr.   8
 **********************
 DD1Dir will call FoFMem   1 times, MxPair=        42
 NAB=    21 NAA=     0 NBB=     0.
 DE(Corr)= -0.36581525     E(CORR)=     -436.92346312     Delta= 2.94D-06
 NORM(A)=   0.10849083D+01
 Iteration Nr.   9
 **********************
 DD1Dir will call FoFMem   1 times, MxPair=        42
 NAB=    21 NAA=     0 NBB=     0.
 DE(Corr)= -0.36581770     E(CORR)=     -436.92346557     Delta=-2.45D-06
 NORM(A)=   0.10849096D+01
 Iteration Nr.  10
 **********************
 DD1Dir will call FoFMem   1 times, MxPair=        42
 NAB=    21 NAA=     0 NBB=     0.
 DE(Corr)= -0.36581738     E(CORR)=     -436.92346525     Delta= 3.18D-07
 NORM(A)=   0.10849104D+01
 Iteration Nr.  11
 **********************
 DD1Dir will call FoFMem   1 times, MxPair=        42
 NAB=    21 NAA=     0 NBB=     0.
 DE(Corr)= -0.36581790     E(CORR)=     -436.92346577     Delta=-5.21D-07
 NORM(A)=   0.10849109D+01
 Iteration Nr.  12
 **********************
 DD1Dir will call FoFMem   1 times, MxPair=        42
 NAB=    21 NAA=     0 NBB=     0.
 DE(Corr)= -0.36581801     E(CORR)=     -436.92346588     Delta=-1.08D-07
 NORM(A)=   0.10849113D+01
 Iteration Nr.  13
 **********************
 DD1Dir will call FoFMem   1 times, MxPair=        42
 NAB=    21 NAA=     0 NBB=     0.
 DE(Corr)= -0.36581810     E(CORR)=     -436.92346597     Delta=-8.94D-08
 NORM(A)=   0.10849115D+01
 Iteration Nr.  14
 **********************
 DD1Dir will call FoFMem   1 times, MxPair=        42
 NAB=    21 NAA=     0 NBB=     0.
 DE(Corr)= -0.36581813     E(CORR)=     -436.92346600     Delta=-2.94D-08
 NORM(A)=   0.10849115D+01
 Iteration Nr.  15
 **********************
 DD1Dir will call FoFMem   1 times, MxPair=        42
 NAB=    21 NAA=     0 NBB=     0.
 DE(Corr)= -0.36581814     E(CORR)=     -436.92346601     Delta=-8.91D-09
 NORM(A)=   0.10849115D+01
 Iteration Nr.  16
 **********************
 DD1Dir will call FoFMem   1 times, MxPair=        42
 NAB=    21 NAA=     0 NBB=     0.
 DE(Corr)= -0.36581814     E(CORR)=     -436.92346601     Delta=-1.58D-09
 NORM(A)=   0.10849116D+01
 Dominant configurations:
 ***********************
 Spin Case        I    J    A    B          Value
   ABAB          11   11   14   14      -0.114540D+00
 Largest amplitude= 1.15D-01

 Z-AMPLITUDE ITERATIONS

 Iteration Nr.   1
 **********************
 DD1Dir will call FoFMem   1 times, MxPair=        42
 NAB=    21 NAA=     0 NBB=     0.
 DE(Z)  -0.34981670D+00          E(Z)=    -0.43690746457D+03
 NORM(A)=   0.10848987D+01
 Iteration Nr.   2
 **********************
 DD1Dir will call FoFMem   1 times, MxPair=        42
 NAB=    21 NAA=     0 NBB=     0.
 DE(Z)  -0.34981612D+00          E(Z)=    -0.43690746399D+03
 NORM(A)=   0.10849519D+01
 Iteration Nr.   3
 **********************
 DD1Dir will call FoFMem   1 times, MxPair=        42
 NAB=    21 NAA=     0 NBB=     0.
 DE(Z)  -0.34981858D+00          E(Z)=    -0.43690746644D+03
 NORM(A)=   0.10848957D+01
 Iteration Nr.   4
 **********************
 DD1Dir will call FoFMem   1 times, MxPair=        42
 NAB=    21 NAA=     0 NBB=     0.
 DE(Z)  -0.34981596D+00          E(Z)=    -0.43690746383D+03
 NORM(A)=   0.10848687D+01
 Iteration Nr.   5
 **********************
 DD1Dir will call FoFMem   1 times, MxPair=        42
 NAB=    21 NAA=     0 NBB=     0.
 DE(Z)  -0.34981466D+00          E(Z)=    -0.43690746253D+03
 NORM(A)=   0.10767042D+01
 Iteration Nr.   6
 **********************
 DD1Dir will call FoFMem   1 times, MxPair=        42
 NAB=    21 NAA=     0 NBB=     0.
 DE(Z)  -0.34941632D+00          E(Z)=    -0.43690706419D+03
 NORM(A)=   0.10767004D+01
 Iteration Nr.   7
 **********************
 DD1Dir will call FoFMem   1 times, MxPair=        42
 NAB=    21 NAA=     0 NBB=     0.
 DE(Z)  -0.34941532D+00          E(Z)=    -0.43690706319D+03
 NORM(A)=   0.10766982D+01
 Iteration Nr.   8
 **********************
 DD1Dir will call FoFMem   1 times, MxPair=        42
 NAB=    21 NAA=     0 NBB=     0.
 DE(Z)  -0.34941534D+00          E(Z)=    -0.43690706320D+03
 NORM(A)=   0.10766980D+01
 Iteration Nr.   9
 **********************
 DD1Dir will call FoFMem   1 times, MxPair=        42
 NAB=    21 NAA=     0 NBB=     0.
 DE(Z)  -0.34941523D+00          E(Z)=    -0.43690706310D+03
 NORM(A)=   0.10766981D+01
 Iteration Nr.  10
 **********************
 DD1Dir will call FoFMem   1 times, MxPair=        42
 NAB=    21 NAA=     0 NBB=     0.
 DE(Z)  -0.34941526D+00          E(Z)=    -0.43690706313D+03
 NORM(A)=   0.10766982D+01
 Iteration Nr.  11
 **********************
 DD1Dir will call FoFMem   1 times, MxPair=        42
 NAB=    21 NAA=     0 NBB=     0.
 DE(Z)  -0.34941527D+00          E(Z)=    -0.43690706314D+03
 NORM(A)=   0.10766982D+01
 Iteration Nr.  12
 **********************
 DD1Dir will call FoFMem   1 times, MxPair=        42
 NAB=    21 NAA=     0 NBB=     0.
 DE(Z)  -0.34941528D+00          E(Z)=    -0.43690706315D+03
 NORM(A)=   0.10766982D+01
 Discarding MO integrals.
          Differentiating once with respect to electric field.
                with respect to dipole field.
          Electric field/nuclear overlap derivatives assumed to be zero.
          Keep R1 ints in memory in canonical form, NReq=93478140.
          There are     1 degrees of freedom in the 1st order CPHF.  IDoFFX=0.
 LinEq1:  Iter=  0 NonCon=     1 RMS=2.95D-03 Max=4.36D-02
 AX will form     1 AO Fock derivatives at one time.
 LinEq1:  Iter=  1 NonCon=     1 RMS=9.83D-04 Max=1.20D-02
 LinEq1:  Iter=  2 NonCon=     1 RMS=4.75D-04 Max=1.32D-02
 LinEq1:  Iter=  3 NonCon=     1 RMS=1.60D-04 Max=2.46D-03
 LinEq1:  Iter=  4 NonCon=     1 RMS=3.98D-05 Max=5.23D-04
 LinEq1:  Iter=  5 NonCon=     1 RMS=8.70D-06 Max=9.98D-05
 LinEq1:  Iter=  6 NonCon=     1 RMS=1.54D-06 Max=2.19D-05
 LinEq1:  Iter=  7 NonCon=     1 RMS=2.00D-07 Max=2.68D-06
 LinEq1:  Iter=  8 NonCon=     1 RMS=2.31D-08 Max=2.26D-07
 LinEq1:  Iter=  9 NonCon=     1 RMS=3.69D-09 Max=3.78D-08
 LinEq1:  Iter= 10 NonCon=     1 RMS=5.16D-10 Max=5.76D-09
 LinEq1:  Iter= 11 NonCon=     0 RMS=6.55D-11 Max=6.51D-10
 Linear equations converged to 1.000D-10 1.000D-09 after    11 iterations.
 End of Minotr Frequency-dependent properties file   721 does not exist.
 End of Minotr Frequency-dependent properties file   722 does not exist.

 **********************************************************************

            Population analysis using the QCI/CC density.

 **********************************************************************

     Natural Orbital Coefficients:
                           1         2         3         4         5
     Eigenvalues --     2.00003   2.00002   2.00001   2.00000   2.00000
   1 1   C  1S         -0.00004  -0.15961  -0.45314   0.85547   0.00000
   2        2S          0.00000   0.00306   0.00797  -0.01040   0.00000
   3        3S         -0.00001  -0.00638  -0.01851   0.03571   0.00000
   4        4S          0.00028  -0.00355  -0.00075  -0.00337   0.00000
   5        5S          0.00003  -0.00059  -0.00158  -0.00010   0.00000
   6        6PX         0.00000   0.00000   0.00000   0.00000  -0.00135
   7        6PY        -0.00065   0.00000   0.00001  -0.00003   0.00000
   8        6PZ         0.00000   0.00110   0.00170   0.00195   0.00000
   9        7PX         0.00000   0.00000   0.00000   0.00000  -0.00116
  10        7PY        -0.00140  -0.00001  -0.00004   0.00010   0.00000
  11        7PZ         0.00000   0.00012   0.00131  -0.00091   0.00000
  12        8PX         0.00000   0.00000   0.00000   0.00000  -0.00047
  13        8PY         0.01597  -0.00001  -0.00007   0.00000   0.00000
  14        8PZ        -0.00007  -0.00595  -0.00150  -0.00305   0.00000
  15        9PX         0.00000   0.00000   0.00000   0.00000  -0.00001
  16        9PY         0.00136   0.00000   0.00000  -0.00001   0.00000
  17        9PZ         0.00000  -0.00002  -0.00017  -0.00018   0.00000
  18       10D 0        0.00000  -0.00002   0.00000   0.00030   0.00000
  19       10D+1        0.00000   0.00000   0.00000   0.00000  -0.00020
  20       10D-1       -0.00032   0.00000   0.00001  -0.00001   0.00000
  21       10D+2        0.00000   0.00010   0.00027  -0.00054   0.00000
  22       10D-2        0.00000   0.00000   0.00000   0.00000   0.00000
  23       11D 0        0.00001  -0.00084   0.00053  -0.00137   0.00000
  24       11D+1        0.00000   0.00000   0.00000   0.00000   0.00161
  25       11D-1        0.00013   0.00001   0.00002  -0.00004   0.00000
  26       11D+2       -0.00001  -0.00029  -0.00029   0.00018   0.00000
  27       11D-2        0.00000   0.00000   0.00000   0.00000  -0.00001
  28       12D 0        0.00003  -0.00334  -0.00249  -0.00160   0.00000
  29       12D+1        0.00000   0.00000   0.00000   0.00000  -0.00108
  30       12D-1       -0.00424   0.00001   0.00001  -0.00002   0.00000
  31       12D+2        0.00003  -0.00148  -0.00092  -0.00057   0.00000
  32       12D-2        0.00000   0.00000   0.00000   0.00000   0.00001
  33       13F 0        0.00000   0.00001   0.00009   0.00052   0.00000
  34       13F+1        0.00000   0.00000   0.00000   0.00000  -0.00015
  35       13F-1       -0.00036   0.00000   0.00000   0.00001   0.00000
  36       13F+2        0.00000  -0.00010  -0.00022   0.00053   0.00000
  37       13F-2        0.00000   0.00000   0.00000   0.00000   0.00000
  38       13F+3        0.00000   0.00000   0.00000   0.00000   0.00002
  39       13F-3        0.00001   0.00000   0.00000   0.00000   0.00000
  40       14F 0        0.00000   0.00078   0.00157  -0.00089   0.00000
  41       14F+1        0.00000   0.00000   0.00000   0.00000   0.00131
  42       14F-1        0.00200   0.00000  -0.00001  -0.00003   0.00000
  43       14F+2        0.00000   0.00067   0.00106  -0.00084   0.00000
  44       14F-2        0.00000   0.00000   0.00000   0.00000   0.00000
  45       14F+3        0.00000   0.00000   0.00000   0.00000   0.00046
  46       14F-3       -0.00017   0.00000   0.00000  -0.00001   0.00000
  47 2   S  1S          0.00016  -0.20713   0.19163   0.06297   0.00000
  48        2S         -0.00056   0.70746  -0.66047  -0.21663   0.00000
  49        3S          0.00001  -0.02027   0.01025   0.00298   0.00000
  50        4S         -0.00003   0.04744  -0.04709  -0.01614   0.00000
  51        5S         -0.00002   0.00738   0.00708   0.00851   0.00000
  52        6S          0.00000   0.00007   0.00038   0.00147   0.00000
  53        7PX         0.00000   0.00000   0.00000   0.00000   0.97149
  54        7PY         0.97718   0.00048  -0.00030  -0.00003   0.00000
  55        7PZ        -0.00014   0.66579   0.56974   0.42393   0.00000
  56        8PX         0.00000   0.00000   0.00000   0.00000  -0.01105
  57        8PY        -0.02059  -0.00001   0.00001   0.00002   0.00000
  58        8PZ         0.00002  -0.01194  -0.00781  -0.00675   0.00000
  59        9PX         0.00000   0.00000   0.00000   0.00000   0.06296
  60        9PY         0.05563   0.00003  -0.00002   0.00000   0.00000
  61        9PZ        -0.00001   0.04067   0.03669   0.02766   0.00000
  62       10PX         0.00000   0.00000   0.00000   0.00000   0.00193
  63       10PY        -0.00641  -0.00001   0.00001   0.00004   0.00000
  64       10PZ         0.00001  -0.00717  -0.00128  -0.00393   0.00000
  65       11PX         0.00000   0.00000   0.00000   0.00000  -0.00070
  66       11PY        -0.00127   0.00000   0.00000   0.00001   0.00000
  67       11PZ         0.00000  -0.00007   0.00002  -0.00022   0.00000
  68       12D 0       -0.00001   0.00216   0.00175   0.00224   0.00000
  69       12D+1        0.00000   0.00000   0.00000   0.00000   0.00219
  70       12D-1        0.00270   0.00000  -0.00001  -0.00002   0.00000
  71       12D+2        0.00000  -0.00053  -0.00004   0.00034   0.00000
  72       12D-2        0.00000   0.00000   0.00000   0.00000   0.00000
  73       13D 0        0.00000   0.00002  -0.00031  -0.00037   0.00000
  74       13D+1        0.00000   0.00000   0.00000   0.00000  -0.00020
  75       13D-1       -0.00054   0.00000   0.00000   0.00000   0.00000
  76       13D+2        0.00000   0.00037  -0.00029  -0.00012   0.00000
  77       13D-2        0.00000   0.00000   0.00000   0.00000   0.00000
  78       14D 0        0.00000   0.00096  -0.00028   0.00077   0.00000
  79       14D+1        0.00000   0.00000   0.00000   0.00000  -0.00067
  80       14D-1       -0.00057   0.00000   0.00000  -0.00002   0.00000
  81       14D+2        0.00000   0.00035   0.00008   0.00004   0.00000
  82       14D-2        0.00000   0.00000   0.00000   0.00000   0.00000
  83       15F 0        0.00000  -0.00018  -0.00011   0.00013   0.00000
  84       15F+1        0.00000   0.00000   0.00000   0.00000  -0.00033
  85       15F-1       -0.00014   0.00000   0.00000   0.00000   0.00000
  86       15F+2        0.00000   0.00014   0.00019   0.00007   0.00000
  87       15F-2        0.00000   0.00000   0.00000   0.00000   0.00000
  88       15F+3        0.00000   0.00000   0.00000   0.00000   0.00016
  89       15F-3        0.00010   0.00000   0.00000   0.00000   0.00000
  90       16F 0        0.00000  -0.00041  -0.00027  -0.00078   0.00000
  91       16F+1        0.00000   0.00000   0.00000   0.00000  -0.00047
  92       16F-1       -0.00085   0.00000   0.00000   0.00001   0.00000
  93       16F+2        0.00000  -0.00004   0.00000  -0.00029   0.00000
  94       16F-2        0.00000   0.00000   0.00000   0.00000   0.00000
  95       16F+3        0.00000   0.00000   0.00000   0.00000  -0.00019
  96       16F-3       -0.00024   0.00000   0.00000   0.00000   0.00000
  97 3   H  1S         -0.00042  -0.00009   0.00015  -0.00120   0.00000
  98        2S          0.00042  -0.00131  -0.00122  -0.00165   0.00000
  99        3S          0.01844  -0.00351  -0.00006  -0.00362   0.00000
 100        4S          0.00058   0.00007   0.00015  -0.00016   0.00000
 101        5PX         0.00000   0.00000   0.00000   0.00000  -0.00006
 102        5PY        -0.00001   0.00001   0.00008  -0.00038   0.00000
 103        5PZ         0.00012   0.00004   0.00009  -0.00017   0.00000
 104        6PX         0.00000   0.00000   0.00000   0.00000   0.00038
 105        6PY        -0.00003   0.00007   0.00028  -0.00090   0.00000
 106        6PZ        -0.00076   0.00005   0.00038  -0.00059   0.00000
 107        7PX         0.00000   0.00000   0.00000   0.00000  -0.00070
 108        7PY         0.00384   0.00043   0.00088  -0.00040   0.00000
 109        7PZ         0.00164  -0.00154  -0.00072  -0.00124   0.00000
 110        8D 0        0.00011   0.00004   0.00007   0.00009   0.00000
 111        8D+1        0.00000   0.00000   0.00000   0.00000  -0.00002
 112        8D-1        0.00000   0.00004   0.00014  -0.00030   0.00000
 113        8D+2        0.00003  -0.00004  -0.00011   0.00022   0.00000
 114        8D-2        0.00000   0.00000   0.00000   0.00000   0.00004
 115        9D 0       -0.00002   0.00007   0.00039  -0.00018   0.00000
 116        9D+1        0.00000   0.00000   0.00000   0.00000   0.00046
 117        9D-1       -0.00048  -0.00026  -0.00024  -0.00031   0.00000
 118        9D+2        0.00019  -0.00022  -0.00030   0.00029   0.00000
 119        9D-2        0.00000   0.00000   0.00000   0.00000  -0.00016
 120 4   H  1S          0.00042  -0.00009   0.00016  -0.00125   0.00000
 121        2S         -0.00048  -0.00126  -0.00109  -0.00190   0.00000
 122        3S         -0.01867  -0.00345   0.00017  -0.00380   0.00000
 123        4S         -0.00059   0.00007   0.00016  -0.00016   0.00000
 124        5PX         0.00000   0.00000   0.00000   0.00000  -0.00006
 125        5PY        -0.00001  -0.00001  -0.00008   0.00039   0.00000
 126        5PZ        -0.00012   0.00004   0.00010  -0.00018   0.00000
 127        6PX         0.00000   0.00000   0.00000   0.00000   0.00040
 128        6PY        -0.00004  -0.00011  -0.00035   0.00100   0.00000
 129        6PZ         0.00077   0.00005   0.00039  -0.00069   0.00000
 130        7PX         0.00000   0.00000   0.00000   0.00000  -0.00072
 131        7PY         0.00386  -0.00048  -0.00096   0.00045   0.00000
 132        7PZ        -0.00164  -0.00156  -0.00071  -0.00128   0.00000
 133        8D 0       -0.00011   0.00004   0.00007   0.00009   0.00000
 134        8D+1        0.00000   0.00000   0.00000   0.00000  -0.00002
 135        8D-1        0.00000  -0.00004  -0.00014   0.00030   0.00000
 136        8D+2       -0.00003  -0.00004  -0.00011   0.00022   0.00000
 137        8D-2        0.00000   0.00000   0.00000   0.00000  -0.00005
 138        9D 0        0.00002   0.00006   0.00038  -0.00018   0.00000
 139        9D+1        0.00000   0.00000   0.00000   0.00000   0.00046
 140        9D-1       -0.00047   0.00027   0.00024   0.00034   0.00000
 141        9D+2       -0.00020  -0.00022  -0.00031   0.00031   0.00000
 142        9D-2        0.00000   0.00000   0.00000   0.00000   0.00016
                           6         7         8         9        10
     Eigenvalues --     2.00000   1.97248   1.96182   1.95929   1.94157
   1 1   C  1S         -0.00024  -0.13908   0.07741   0.00523   0.06023
   2        2S         -0.00002   0.37235  -0.21678  -0.01440  -0.16664
   3        3S          0.00000   0.08274  -0.05152  -0.00322  -0.03866
   4        4S         -0.00021   0.25151  -0.21938  -0.01242  -0.08798
   5        5S         -0.00011   0.01876   0.00517   0.00050  -0.00543
   6        6PX         0.00000   0.00000   0.00000   0.00000   0.00000
   7        6PY         0.00000   0.00186  -0.01421   0.24790   0.00036
   8        6PZ         0.00001   0.01256   0.16584   0.00826  -0.18310
   9        7PX         0.00000   0.00000   0.00000   0.00000   0.00000
  10        7PY         0.00000   0.00270  -0.01948   0.33948   0.00053
  11        7PZ        -0.00009   0.00323   0.21448   0.01067  -0.23315
  12        8PX         0.00000   0.00000   0.00000   0.00000   0.00000
  13        8PY         0.00000   0.00158  -0.01285   0.22596  -0.00027
  14        8PZ         0.00004  -0.03247   0.10216   0.00544  -0.12979
  15        9PX         0.00000   0.00000   0.00000   0.00000   0.00000
  16        9PY         0.00000  -0.00001  -0.00031   0.00624  -0.00001
  17        9PZ        -0.00002   0.00161   0.00753   0.00044  -0.00630
  18       10D 0       -0.00001   0.00844   0.00890   0.00048  -0.01082
  19       10D+1        0.00000   0.00000   0.00000   0.00000   0.00000
  20       10D-1        0.00000  -0.00018   0.00094  -0.01436  -0.00044
  21       10D+2        0.00000  -0.00714   0.00985   0.00059  -0.00304
  22       10D-2        0.00000   0.00000   0.00000   0.00000   0.00000
  23       11D 0       -0.00005   0.00965   0.01548   0.00107  -0.01345
  24       11D+1        0.00000   0.00000   0.00000   0.00000   0.00000
  25       11D-1        0.00000  -0.00050   0.00261  -0.03910  -0.00095
  26       11D+2        0.00001  -0.01789   0.02535   0.00152  -0.00818
  27       11D-2        0.00000   0.00000   0.00000   0.00000   0.00000
  28       12D 0        0.00001  -0.01058  -0.00314   0.00006  -0.00151
  29       12D+1        0.00000   0.00000   0.00000   0.00000   0.00000
  30       12D-1        0.00000  -0.00027   0.00222  -0.03747   0.00060
  31       12D+2        0.00003  -0.00422   0.00304   0.00023  -0.00388
  32       12D-2        0.00000   0.00000   0.00000   0.00000   0.00000
  33       13F 0        0.00000   0.00581   0.00147  -0.00001  -0.00512
  34       13F+1        0.00000   0.00000   0.00000   0.00000   0.00000
  35       13F-1        0.00000   0.00004  -0.00031   0.00564  -0.00012
  36       13F+2        0.00000   0.00384  -0.00215  -0.00018  -0.00030
  37       13F-2        0.00000   0.00000   0.00000   0.00000   0.00000
  38       13F+3        0.00000   0.00000   0.00000   0.00000   0.00000
  39       13F-3        0.00000   0.00000   0.00011  -0.00228  -0.00003
  40       14F 0        0.00000   0.00570  -0.00582  -0.00035   0.00006
  41       14F+1        0.00000   0.00000   0.00000   0.00000   0.00000
  42       14F-1        0.00000   0.00001  -0.00031   0.00339   0.00012
  43       14F+2        0.00000   0.00744  -0.00717  -0.00040   0.00021
  44       14F-2        0.00000   0.00000   0.00000   0.00000   0.00000
  45       14F+3        0.00000   0.00000   0.00000   0.00000   0.00000
  46       14F-3        0.00000  -0.00005   0.00017  -0.00296   0.00003
  47 2   S  1S          0.99624   0.04531   0.04870   0.00252   0.02735
  48        2S          0.01376  -0.17521  -0.18504  -0.00955  -0.10618
  49        3S          0.00032   0.36072   0.40123   0.02085   0.23770
  50        4S          0.00002   0.04510   0.05498   0.00290   0.03434
  51        5S         -0.00011   0.19333   0.21338   0.01135   0.31953
  52        6S          0.00004  -0.01501  -0.02865  -0.00162   0.05910
  53        7PX         0.00000   0.00000   0.00000   0.00000   0.00000
  54        7PY         0.00000  -0.00014   0.00178  -0.03842   0.00515
  55        7PZ         0.00112   0.04133   0.02251   0.00054  -0.18219
  56        8PX         0.00000   0.00000   0.00000   0.00000   0.00000
  57        8PY         0.00000   0.00036  -0.00404   0.08848  -0.01263
  58        8PZ        -0.00015  -0.05395  -0.03059  -0.00036   0.38694
  59        9PX         0.00000   0.00000   0.00000   0.00000   0.00000
  60        9PY         0.00000   0.00014  -0.00179   0.03845  -0.00531
  61        9PZ         0.00014  -0.02921  -0.01762  -0.00037   0.17535
  62       10PX         0.00000   0.00000   0.00000   0.00000   0.00000
  63       10PY         0.00000   0.00015  -0.00119   0.03010  -0.00962
  64       10PZ         0.00006   0.01354   0.00641   0.00065   0.12028
  65       11PX         0.00000   0.00000   0.00000   0.00000   0.00000
  66       11PY         0.00000   0.00001   0.00011  -0.00189  -0.00093
  67       11PZ         0.00000   0.00593   0.00562   0.00029  -0.00309
  68       12D 0        0.00006   0.01214   0.00128  -0.00012  -0.02889
  69       12D+1        0.00000   0.00000   0.00000   0.00000   0.00000
  70       12D-1        0.00000  -0.00016   0.00117  -0.02213   0.00009
  71       12D+2       -0.00001   0.00035   0.00145   0.00008  -0.00052
  72       12D-2        0.00000   0.00000   0.00000   0.00000   0.00000
  73       13D 0        0.00001   0.02215   0.01039   0.00030  -0.04665
  74       13D+1        0.00000   0.00000   0.00000   0.00000   0.00000
  75       13D-1        0.00000  -0.00012   0.00117  -0.02174   0.00009
  76       13D+2        0.00001   0.00108   0.00141   0.00008  -0.00015
  77       13D-2        0.00000   0.00000   0.00000   0.00000   0.00000
  78       14D 0       -0.00004  -0.00877  -0.00483  -0.00025   0.00205
  79       14D+1        0.00000   0.00000   0.00000   0.00000   0.00000
  80       14D-1        0.00000  -0.00005   0.00012  -0.00219   0.00038
  81       14D+2        0.00000  -0.00119  -0.00209  -0.00012  -0.00057
  82       14D-2        0.00000   0.00000   0.00000   0.00000   0.00000
  83       15F 0       -0.00002  -0.00773  -0.00506  -0.00020   0.01364
  84       15F+1        0.00000   0.00000   0.00000   0.00000   0.00000
  85       15F-1        0.00000   0.00005  -0.00046   0.00855  -0.00012
  86       15F+2        0.00000  -0.00041  -0.00043  -0.00002   0.00342
  87       15F-2        0.00000   0.00000   0.00000   0.00000   0.00000
  88       15F+3        0.00000   0.00000   0.00000   0.00000   0.00000
  89       15F-3        0.00000   0.00000  -0.00003   0.00074  -0.00011
  90       16F 0        0.00000   0.00345   0.00278   0.00012  -0.00438
  91       16F+1        0.00000   0.00000   0.00000   0.00000   0.00000
  92       16F-1        0.00000   0.00003  -0.00004   0.00083  -0.00007
  93       16F+2        0.00000  -0.00042  -0.00071  -0.00003   0.00062
  94       16F-2        0.00000   0.00000   0.00000   0.00000   0.00000
  95       16F+3        0.00000   0.00000   0.00000   0.00000   0.00000
  96       16F-3        0.00000   0.00001  -0.00004   0.00082  -0.00008
  97 3   H  1S          0.00000   0.06764  -0.09205  -0.14636   0.03214
  98        2S          0.00001   0.05018  -0.09107  -0.16291   0.04607
  99        3S          0.00013  -0.03358   0.01093   0.07474   0.01160
 100        4S          0.00001  -0.00033   0.00296   0.00326  -0.00193
 101        5PX         0.00000   0.00000   0.00000   0.00000   0.00000
 102        5PY         0.00000   0.00540  -0.00900  -0.00858   0.00356
 103        5PZ         0.00000   0.00330  -0.00271  -0.00861  -0.00105
 104        6PX         0.00000   0.00000   0.00000   0.00000   0.00000
 105        6PY         0.00000  -0.00358  -0.00281   0.01265   0.00236
 106        6PZ         0.00000  -0.00352   0.00855  -0.00036  -0.00935
 107        7PX         0.00000   0.00000   0.00000   0.00000   0.00000
 108        7PY         0.00001  -0.01037   0.01292   0.03175  -0.00209
 109        7PZ         0.00003  -0.01361   0.00385   0.01331   0.00143
 110        8D 0        0.00000   0.00024   0.00143  -0.00127  -0.00157
 111        8D+1        0.00000   0.00000   0.00000   0.00000   0.00000
 112        8D-1        0.00000   0.00041  -0.00088  -0.00249   0.00002
 113        8D+2        0.00000  -0.00057   0.00156   0.00018  -0.00076
 114        8D-2        0.00000   0.00000   0.00000   0.00000   0.00000
 115        9D 0        0.00000  -0.00004  -0.00024  -0.00184  -0.00045
 116        9D+1        0.00000   0.00000   0.00000   0.00000   0.00000
 117        9D-1       -0.00001  -0.00378   0.00317   0.00364  -0.00060
 118        9D+2        0.00000   0.00150  -0.00050  -0.00300  -0.00024
 119        9D-2        0.00000   0.00000   0.00000   0.00000   0.00000
 120 4   H  1S          0.00000   0.07026  -0.10904   0.13476   0.03418
 121        2S          0.00001   0.05123  -0.10748   0.14858   0.04874
 122        3S          0.00014  -0.03614   0.02180  -0.07518   0.01838
 123        4S          0.00001  -0.00036   0.00334  -0.00299  -0.00121
 124        5PX         0.00000   0.00000   0.00000   0.00000   0.00000
 125        5PY         0.00000  -0.00559   0.01006  -0.00745  -0.00371
 126        5PZ         0.00000   0.00349  -0.00375   0.00838  -0.00109
 127        6PX         0.00000   0.00000   0.00000   0.00000   0.00000
 128        6PY         0.00000   0.00403   0.00092   0.01346  -0.00210
 129        6PZ         0.00000  -0.00391   0.00872   0.00116  -0.00943
 130        7PX         0.00000   0.00000   0.00000   0.00000   0.00000
 131        7PY        -0.00001   0.01101  -0.01692   0.02990   0.00129
 132        7PZ         0.00003  -0.01414   0.00542  -0.01266   0.00153
 133        8D 0        0.00000   0.00025   0.00129   0.00147  -0.00164
 134        8D+1        0.00000   0.00000   0.00000   0.00000   0.00000
 135        8D-1        0.00000  -0.00044   0.00114  -0.00235   0.00000
 136        8D+2        0.00000  -0.00059   0.00155   0.00007  -0.00076
 137        8D-2        0.00000   0.00000   0.00000   0.00000   0.00000
 138        9D 0        0.00000  -0.00008  -0.00050   0.00180  -0.00040
 139        9D+1        0.00000   0.00000   0.00000   0.00000   0.00000
 140        9D-1        0.00001   0.00395  -0.00360   0.00319   0.00054
 141        9D+2        0.00000   0.00159  -0.00091   0.00287  -0.00017
 142        9D-2        0.00000   0.00000   0.00000   0.00000   0.00000
                          11        12        13        14        15
     Eigenvalues --     1.94079   1.89918   0.08405   0.03696   0.02632
   1 1   C  1S          0.00136   0.00000   0.00000  -0.11144   0.00408
   2        2S         -0.00377   0.00000   0.00000   0.38345  -0.01460
   3        3S         -0.00094   0.00000   0.00000   0.15435  -0.00671
   4        4S         -0.00109   0.00000   0.00000   0.15033  -0.00732
   5        5S          0.00043   0.00000   0.00000   0.09621   0.00048
   6        6PX         0.00000   0.19011  -0.30144   0.00000   0.00000
   7        6PY        -0.04002   0.00000   0.00000  -0.00052   0.25943
   8        6PZ        -0.00431   0.00000   0.00000   0.27324   0.00822
   9        7PX         0.00000   0.26560  -0.45873   0.00000   0.00000
  10        7PY        -0.05252   0.00000   0.00000  -0.00297   0.61025
  11        7PZ        -0.00568   0.00000   0.00000   0.52963   0.01332
  12        8PX         0.00000   0.17882  -0.20600   0.00000   0.00000
  13        8PY        -0.00280   0.00000   0.00000  -0.00364   0.16795
  14        8PZ        -0.00330   0.00000   0.00000   0.48255   0.00701
  15        9PX         0.00000   0.01326  -0.00568   0.00000   0.00000
  16        9PY        -0.00190   0.00000   0.00000  -0.00025  -0.00672
  17        9PZ        -0.00021   0.00000   0.00000   0.03828   0.00068
  18       10D 0       -0.00029   0.00000   0.00000   0.00371  -0.00003
  19       10D+1        0.00000   0.01133  -0.00304   0.00000   0.00000
  20       10D-1        0.01839   0.00000   0.00000   0.00012   0.07080
  21       10D+2       -0.00009   0.00000   0.00000   0.00213  -0.00036
  22       10D-2        0.00000   0.00002  -0.00005   0.00000   0.00000
  23       11D 0       -0.00035   0.00000   0.00000   0.09527   0.00276
  24       11D+1        0.00000   0.03282  -0.03721   0.00000   0.00000
  25       11D-1        0.03562   0.00000   0.00000   0.00133   0.04718
  26       11D+2       -0.00027   0.00000   0.00000   0.05671   0.00118
  27       11D-2        0.00000   0.00003  -0.00003   0.00000   0.00000
  28       12D 0        0.00039   0.00000   0.00000   0.08208   0.00126
  29       12D+1        0.00000   0.01099  -0.01416   0.00000   0.00000
  30       12D-1       -0.02266   0.00000   0.00000   0.00114  -0.02094
  31       12D+2        0.00012   0.00000   0.00000   0.03454   0.00093
  32       12D-2        0.00000   0.00020  -0.00009   0.00000   0.00000
  33       13F 0       -0.00012   0.00000   0.00000   0.01359   0.00005
  34       13F+1        0.00000   0.00635  -0.00594   0.00000   0.00000
  35       13F-1        0.00452   0.00000   0.00000  -0.00004   0.03322
  36       13F+2        0.00001   0.00000   0.00000   0.00242  -0.00059
  37       13F-2        0.00000   0.00000   0.00000   0.00000   0.00000
  38       13F+3        0.00000   0.00033   0.00007   0.00000   0.00000
  39       13F-3        0.00142   0.00000   0.00000   0.00005  -0.00342
  40       14F 0        0.00002   0.00000   0.00000  -0.00593  -0.00026
  41       14F+1        0.00000   0.00116  -0.01619   0.00000   0.00000
  42       14F-1        0.00100   0.00000   0.00000  -0.00018   0.06834
  43       14F+2        0.00001   0.00000   0.00000  -0.03541  -0.00084
  44       14F-2        0.00000   0.00002   0.00005   0.00000   0.00000
  45       14F+3        0.00000   0.00059  -0.00509   0.00000   0.00000
  46       14F-3       -0.00050   0.00000   0.00000   0.00008   0.00458
  47 2   S  1S          0.00057   0.00000   0.00000  -0.02426  -0.00007
  48        2S         -0.00222   0.00000   0.00000   0.07026   0.00013
  49        3S          0.00494   0.00000   0.00000  -0.24955  -0.00086
  50        4S          0.00070   0.00000   0.00000   0.00128   0.00030
  51        5S          0.00665   0.00000   0.00000  -0.77758  -0.00929
  52        6S          0.00131   0.00000   0.00000  -0.26473  -0.00413
  53        7PX         0.00000  -0.17463  -0.20037   0.00000   0.00000
  54        7PY        -0.21563   0.00000   0.00000  -0.00012   0.08413
  55        7PZ        -0.00431   0.00000   0.00000  -0.19479   0.00020
  56        8PX         0.00000   0.39378   0.53041   0.00000   0.00000
  57        8PY         0.52639   0.00000   0.00000   0.00031  -0.24082
  58        8PZ         0.00918   0.00000   0.00000   0.74103   0.00316
  59        9PX         0.00000   0.15980   0.20751   0.00000   0.00000
  60        9PY         0.22286   0.00000   0.00000   0.00017  -0.12736
  61        9PZ         0.00415   0.00000   0.00000   0.21010  -0.00050
  62       10PX         0.00000   0.20852   0.16184   0.00000   0.00000
  63       10PY         0.40548   0.00000   0.00000  -0.00086   0.09359
  64       10PZ         0.00294   0.00000   0.00000   0.49399   0.00679
  65       11PX         0.00000   0.00445   0.00189   0.00000   0.00000
  66       11PY         0.04141   0.00000   0.00000  -0.00010   0.02509
  67       11PZ        -0.00004   0.00000   0.00000   0.03314   0.00057
  68       12D 0       -0.00066   0.00000   0.00000   0.09891  -0.00067
  69       12D+1        0.00000  -0.03658   0.03877   0.00000   0.00000
  70       12D-1        0.00250   0.00000   0.00000   0.00022  -0.28456
  71       12D+2       -0.00003   0.00000   0.00000   0.08733  -0.00122
  72       12D-2        0.00000  -0.00001  -0.00004   0.00000   0.00000
  73       13D 0       -0.00110   0.00000   0.00000   0.16425   0.00095
  74       13D+1        0.00000  -0.03495   0.05166   0.00000   0.00000
  75       13D-1       -0.00041   0.00000   0.00000   0.00011  -0.24926
  76       13D+2       -0.00002   0.00000   0.00000   0.05471  -0.00089
  77       13D-2        0.00000   0.00000  -0.00001   0.00000   0.00000
  78       14D 0        0.00008   0.00000   0.00000  -0.06714  -0.00129
  79       14D+1        0.00000  -0.00380  -0.01879   0.00000   0.00000
  80       14D-1       -0.01335   0.00000   0.00000   0.00028  -0.03162
  81       14D+2       -0.00004   0.00000   0.00000   0.01421  -0.00004
  82       14D-2        0.00000  -0.00005  -0.00001   0.00000   0.00000
  83       15F 0        0.00032   0.00000   0.00000  -0.01838  -0.00004
  84       15F+1        0.00000   0.01081  -0.01555   0.00000   0.00000
  85       15F-1        0.00369   0.00000   0.00000  -0.00003   0.03132
  86       15F+2        0.00008   0.00000   0.00000  -0.00452   0.00030
  87       15F-2        0.00000   0.00000   0.00001   0.00000   0.00000
  88       15F+3        0.00000   0.00380   0.00231   0.00000   0.00000
  89       15F-3        0.00444   0.00000   0.00000   0.00000   0.00351
  90       16F 0       -0.00011   0.00000   0.00000   0.01047   0.00060
  91       16F+1        0.00000  -0.00081   0.00500   0.00000   0.00000
  92       16F-1        0.00199   0.00000   0.00000  -0.00007   0.00120
  93       16F+2        0.00003   0.00000   0.00000  -0.01213   0.00011
  94       16F-2        0.00000   0.00002   0.00002   0.00000   0.00000
  95       16F+3        0.00000   0.00242   0.00283   0.00000   0.00000
  96       16F-3        0.00334   0.00000   0.00000  -0.00001   0.00203
  97 3   H  1S          0.05269   0.00000   0.00000  -0.03257   0.18463
  98        2S          0.09105   0.00000   0.00000   0.08868   0.58159
  99        3S          0.16489   0.00000   0.00000   0.26059   0.29945
 100        4S          0.01600   0.00000   0.00000   0.01183   0.01159
 101        5PX         0.00000   0.00425  -0.01016   0.00000   0.00000
 102        5PY         0.00273   0.00000   0.00000  -0.00708   0.00642
 103        5PZ         0.00045   0.00000   0.00000   0.00548  -0.01268
 104        6PX         0.00000   0.01438  -0.01688   0.00000   0.00000
 105        6PY        -0.00012   0.00000   0.00000   0.02183   0.15297
 106        6PZ        -0.00237   0.00000   0.00000   0.03766   0.02223
 107        7PX         0.00000   0.00264   0.00881   0.00000   0.00000
 108        7PY         0.01945   0.00000   0.00000   0.04054   0.07288
 109        7PZ        -0.00077   0.00000   0.00000   0.06340   0.00885
 110        8D 0       -0.00099   0.00000   0.00000   0.00256  -0.01070
 111        8D+1        0.00000   0.00138  -0.00291   0.00000   0.00000
 112        8D-1        0.00006   0.00000   0.00000   0.00250  -0.00419
 113        8D+2       -0.00058   0.00000   0.00000   0.00200  -0.00747
 114        8D-2        0.00000   0.00145  -0.00485   0.00000   0.00000
 115        9D 0       -0.00091   0.00000   0.00000   0.00198  -0.00473
 116        9D+1        0.00000   0.00029  -0.00066   0.00000   0.00000
 117        9D-1       -0.00051   0.00000   0.00000   0.01128   0.02913
 118        9D+2        0.00056   0.00000   0.00000   0.00170  -0.02325
 119        9D-2        0.00000   0.00279   0.00384   0.00000   0.00000
 120 4   H  1S         -0.05069   0.00000   0.00000  -0.03255  -0.17239
 121        2S         -0.08762   0.00000   0.00000   0.09626  -0.54843
 122        3S         -0.16336   0.00000   0.00000   0.27418  -0.28144
 123        4S         -0.01608   0.00000   0.00000   0.01262  -0.01077
 124        5PX         0.00000   0.00433  -0.01041   0.00000   0.00000
 125        5PY         0.00255   0.00000   0.00000   0.00725   0.00726
 126        5PZ        -0.00051   0.00000   0.00000   0.00552   0.01324
 127        6PX         0.00000   0.01449  -0.01669   0.00000   0.00000
 128        6PY        -0.00030   0.00000   0.00000  -0.02317   0.14975
 129        6PZ         0.00194   0.00000   0.00000   0.03902  -0.01905
 130        7PX         0.00000   0.00228   0.00925   0.00000   0.00000
 131        7PY         0.01967   0.00000   0.00000  -0.04272   0.07014
 132        7PZ         0.00121   0.00000   0.00000   0.06497  -0.00643
 133        8D 0        0.00091   0.00000   0.00000   0.00262   0.01122
 134        8D+1        0.00000   0.00141  -0.00298   0.00000   0.00000
 135        8D-1        0.00004   0.00000   0.00000  -0.00251  -0.00425
 136        8D+2        0.00053   0.00000   0.00000   0.00198   0.00762
 137        8D-2        0.00000  -0.00146   0.00488   0.00000   0.00000
 138        9D 0        0.00092   0.00000   0.00000   0.00195   0.00444
 139        9D+1        0.00000   0.00022  -0.00060   0.00000   0.00000
 140        9D-1       -0.00048   0.00000   0.00000  -0.01159   0.02876
 141        9D+2       -0.00053   0.00000   0.00000   0.00156   0.02249
 142        9D-2        0.00000  -0.00277  -0.00407   0.00000   0.00000
                          16        17        18        19        20
     Eigenvalues --     0.02001   0.01796   0.01696   0.01591   0.01328
   1 1   C  1S         -0.14650   0.00000   0.09063  -0.00800   0.00000
   2        2S          0.56302   0.00000  -0.34403   0.03064   0.00000
   3        3S          0.30363   0.00000  -0.20016   0.01905   0.00000
   4        4S          0.13176   0.00000  -0.33128   0.02143   0.00000
   5        5S         -0.03534   0.00000  -0.08453   0.00307   0.00000
   6        6PX         0.00000   0.00005   0.00000   0.00000   0.08639
   7        6PY        -0.00542   0.00000   0.01394   0.45692   0.00000
   8        6PZ        -0.31066   0.00000   0.03259  -0.01102   0.00000
   9        7PX         0.00000  -0.00047   0.00000   0.00000   0.10783
  10        7PY        -0.01001   0.00000   0.02560   0.78470   0.00000
  11        7PZ        -0.54946   0.00000  -0.01755  -0.01541   0.00000
  12        8PX         0.00000  -0.00023   0.00000   0.00000   0.04376
  13        8PY        -0.01232   0.00000   0.01806   0.56058   0.00000
  14        8PZ        -0.27349   0.00000   0.02926  -0.01166   0.00000
  15        9PX         0.00000   0.00002   0.00000   0.00000  -0.01035
  16        9PY        -0.00077   0.00000   0.00066   0.03180   0.00000
  17        9PZ        -0.02687   0.00000  -0.00892  -0.00068   0.00000
  18       10D 0       -0.00426   0.00000   0.00571  -0.00080   0.00000
  19       10D+1        0.00000   0.00004   0.00000   0.00000  -0.14662
  20       10D-1        0.00511   0.00000  -0.00364  -0.08493   0.00000
  21       10D+2        0.03362   0.00000   0.03706  -0.00010   0.00000
  22       10D-2        0.00000   0.04310   0.00000   0.00000   0.00011
  23       11D 0       -0.05641   0.00000   0.02047  -0.00213   0.00000
  24       11D+1        0.00000   0.00034   0.00000   0.00000  -0.26502
  25       11D-1        0.01414   0.00000  -0.01318  -0.33254   0.00000
  26       11D+2        0.04285   0.00000   0.10412  -0.00128   0.00000
  27       11D-2        0.00000   0.08416   0.00000   0.00000  -0.00084
  28       12D 0       -0.06284   0.00000  -0.02230  -0.00168   0.00000
  29       12D+1        0.00000   0.00023   0.00000   0.00000  -0.04421
  30       12D-1        0.00291   0.00000  -0.00295  -0.06941   0.00000
  31       12D+2       -0.04655   0.00000   0.01923  -0.00230   0.00000
  32       12D-2        0.00000   0.00800   0.00000   0.00000  -0.00025
  33       13F 0       -0.01639   0.00000   0.00338  -0.00081   0.00000
  34       13F+1        0.00000  -0.00005   0.00000   0.00000  -0.05005
  35       13F-1        0.00150   0.00000  -0.00079  -0.02195   0.00000
  36       13F+2        0.01818   0.00000   0.02197  -0.00037   0.00000
  37       13F-2        0.00000   0.02558   0.00000   0.00000   0.00008
  38       13F+3        0.00000   0.00010   0.00000   0.00000  -0.01071
  39       13F-3        0.00069   0.00000  -0.00073  -0.01935   0.00000
  40       14F 0       -0.01277   0.00000  -0.02119  -0.00006   0.00000
  41       14F+1        0.00000  -0.00009   0.00000   0.00000  -0.02966
  42       14F-1        0.00293   0.00000  -0.00078   0.00427   0.00000
  43       14F+2        0.02556   0.00000  -0.01135   0.00116   0.00000
  44       14F-2        0.00000   0.02004   0.00000   0.00000   0.00033
  45       14F+3        0.00000  -0.00001   0.00000   0.00000  -0.00265
  46       14F-3        0.00173   0.00000  -0.00185  -0.04787   0.00000
  47 2   S  1S          0.00176   0.00000   0.00488  -0.00016   0.00000
  48        2S         -0.00505   0.00000  -0.04188   0.00142   0.00000
  49        3S          0.02154   0.00000   0.01191  -0.00020   0.00000
  50        4S         -0.00946   0.00000   0.04134  -0.00172   0.00000
  51        5S          0.40151   0.00000   0.12415   0.00907   0.00000
  52        6S          0.17682   0.00000   0.09118   0.00243   0.00000
  53        7PX         0.00000   0.00003   0.00000   0.00000   0.03374
  54        7PY         0.00155   0.00000   0.00055   0.03687   0.00000
  55        7PZ        -0.01619   0.00000   0.04960  -0.00268   0.00000
  56        8PX         0.00000   0.00000   0.00000   0.00000   0.00192
  57        8PY        -0.00674   0.00000   0.00071  -0.04082   0.00000
  58        8PZ        -0.12110   0.00000  -0.15685   0.00272   0.00000
  59        9PX         0.00000  -0.00006   0.00000   0.00000  -0.06211
  60        9PY        -0.00261   0.00000  -0.00072  -0.05623   0.00000
  61        9PZ         0.03516   0.00000  -0.06109   0.00394   0.00000
  62       10PX         0.00000  -0.00009   0.00000   0.00000   0.19890
  63       10PY         0.00114   0.00000   0.00095   0.04300   0.00000
  64       10PZ        -0.29937   0.00000  -0.06400  -0.00796   0.00000
  65       11PX         0.00000  -0.00002   0.00000   0.00000   0.02058
  66       11PY        -0.00014   0.00000   0.00090   0.02997   0.00000
  67       11PZ        -0.02649   0.00000  -0.01077  -0.00049   0.00000
  68       12D 0        0.04167   0.00000   0.13332  -0.00436   0.00000
  69       12D+1        0.00000   0.00002   0.00000   0.00000   0.44580
  70       12D-1       -0.01761   0.00000   0.01467   0.40600   0.00000
  71       12D+2        0.16267   0.00000   0.56470  -0.01430   0.00000
  72       12D-2        0.00000   0.59563   0.00000   0.00000   0.00000
  73       13D 0       -0.03677   0.00000   0.06355  -0.00406   0.00000
  74       13D+1        0.00000   0.00001   0.00000   0.00000   0.42933
  75       13D-1       -0.01496   0.00000   0.01123   0.29218   0.00000
  76       13D+2        0.11796   0.00000   0.40847  -0.01036   0.00000
  77       13D-2        0.00000   0.44189   0.00000   0.00000   0.00005
  78       14D 0        0.06415   0.00000   0.03853   0.00075   0.00000
  79       14D+1        0.00000   0.00008   0.00000   0.00000  -0.06829
  80       14D-1       -0.00167   0.00000   0.00189   0.06090   0.00000
  81       14D+2        0.01661   0.00000   0.04515  -0.00096   0.00000
  82       14D-2        0.00000   0.04834   0.00000   0.00000   0.00003
  83       15F 0        0.00148   0.00000   0.00341   0.00003   0.00000
  84       15F+1        0.00000   0.00003   0.00000   0.00000  -0.05987
  85       15F-1        0.00086   0.00000  -0.00010   0.00449   0.00000
  86       15F+2       -0.01549   0.00000  -0.02041   0.00018   0.00000
  87       15F-2        0.00000  -0.00723   0.00000   0.00000   0.00005
  88       15F+3        0.00000   0.00001   0.00000   0.00000  -0.02180
  89       15F-3        0.00016   0.00000  -0.00011  -0.00164   0.00000
  90       16F 0       -0.02844   0.00000  -0.01836  -0.00007   0.00000
  91       16F+1        0.00000  -0.00003   0.00000   0.00000   0.02635
  92       16F-1        0.00016   0.00000  -0.00065  -0.02652   0.00000
  93       16F+2       -0.00887   0.00000  -0.02548   0.00062   0.00000
  94       16F-2        0.00000  -0.01120   0.00000   0.00000   0.00008
  95       16F+3        0.00000  -0.00002   0.00000   0.00000  -0.00914
  96       16F-3       -0.00003   0.00000   0.00010   0.00116   0.00000
  97 3   H  1S         -0.23306   0.00000   0.07320   0.07098   0.00000
  98        2S         -0.60005   0.00000   0.27035   0.71010   0.00000
  99        3S         -0.30464   0.00000   0.14946   0.74489   0.00000
 100        4S         -0.01271   0.00000   0.00389   0.05208   0.00000
 101        5PX         0.00000  -0.00915   0.00000   0.00000   0.02596
 102        5PY         0.01938   0.00000  -0.01217  -0.03237   0.00000
 103        5PZ        -0.00466   0.00000  -0.01238  -0.01980   0.00000
 104        6PX         0.00000  -0.01403   0.00000   0.00000   0.03801
 105        6PY        -0.05548   0.00000   0.00531   0.10419   0.00000
 106        6PZ        -0.04119   0.00000   0.01530   0.06919   0.00000
 107        7PX         0.00000  -0.00098   0.00000   0.00000  -0.00964
 108        7PY        -0.02336   0.00000   0.02421   0.12475   0.00000
 109        7PZ        -0.04691   0.00000  -0.00333   0.07883   0.00000
 110        8D 0       -0.00809   0.00000   0.00181   0.00362   0.00000
 111        8D+1        0.00000  -0.00328   0.00000   0.00000   0.00254
 112        8D-1        0.00606   0.00000  -0.00589  -0.00879   0.00000
 113        8D+2       -0.00659   0.00000   0.00634   0.00968   0.00000
 114        8D-2        0.00000  -0.00778   0.00000   0.00000   0.01641
 115        9D 0        0.00386   0.00000   0.00258  -0.00807   0.00000
 116        9D+1        0.00000   0.00200   0.00000   0.00000  -0.00188
 117        9D-1        0.00081   0.00000  -0.00032   0.00530   0.00000
 118        9D+2        0.00969   0.00000   0.00950  -0.00351   0.00000
 119        9D-2        0.00000  -0.00026   0.00000   0.00000  -0.00509
 120 4   H  1S         -0.23929   0.00000   0.06974  -0.08854   0.00000
 121        2S         -0.58494   0.00000   0.22306  -0.76771   0.00000
 122        3S         -0.27241   0.00000   0.10041  -0.77794   0.00000
 123        4S         -0.01059   0.00000   0.00115  -0.05323   0.00000
 124        5PX         0.00000   0.00933   0.00000   0.00000   0.02649
 125        5PY        -0.01806   0.00000   0.01002  -0.03480   0.00000
 126        5PZ        -0.00463   0.00000  -0.01144   0.02129   0.00000
 127        6PX         0.00000   0.01433   0.00000   0.00000   0.03882
 128        6PY         0.05434   0.00000   0.00255   0.10642   0.00000
 129        6PZ        -0.03505   0.00000   0.00949  -0.07167   0.00000
 130        7PX         0.00000   0.00137   0.00000   0.00000  -0.00939
 131        7PY         0.01709   0.00000  -0.01569   0.12617   0.00000
 132        7PZ        -0.04239   0.00000  -0.00874  -0.08254   0.00000
 133        8D 0       -0.00727   0.00000   0.00138  -0.00404   0.00000
 134        8D+1        0.00000   0.00336   0.00000   0.00000   0.00259
 135        8D-1       -0.00666   0.00000   0.00553  -0.01025   0.00000
 136        8D+2       -0.00601   0.00000   0.00566  -0.01066   0.00000
 137        8D-2        0.00000  -0.00786   0.00000   0.00000  -0.01674
 138        9D 0        0.00351   0.00000   0.00324   0.00784   0.00000
 139        9D+1        0.00000  -0.00206   0.00000   0.00000  -0.00164
 140        9D-1       -0.00066   0.00000   0.00088   0.00443   0.00000
 141        9D+2        0.01008   0.00000   0.00987   0.00277   0.00000
 142        9D-2        0.00000  -0.00050   0.00000   0.00000   0.00482
                          21        22        23        24        25
     Eigenvalues --     0.01199   0.01025   0.00818   0.00669   0.00645
   1 1   C  1S         -0.01021  -0.00057  -0.03442   0.00000   0.00000
   2        2S          0.00738   0.00313   0.12091   0.00000   0.00000
   3        3S         -0.00492   0.00299   0.11724   0.00000   0.00000
   4        4S          0.12981  -0.02164  -0.09355   0.00000   0.00000
   5        5S          0.06742  -0.00388  -0.03398   0.00000   0.00000
   6        6PX         0.00000   0.00000   0.00000   0.39113  -0.01448
   7        6PY        -0.00191   0.14588  -0.00167   0.00000   0.00000
   8        6PZ         0.11723  -0.00171  -0.12702   0.00000   0.00000
   9        7PX         0.00000   0.00000   0.00000   0.46170  -0.01999
  10        7PY        -0.00336   0.42734  -0.00257   0.00000   0.00000
  11        7PZ         0.26253  -0.00272  -0.11824   0.00000   0.00000
  12        8PX         0.00000   0.00000   0.00000  -0.18746   0.00567
  13        8PY         0.00453  -1.11566   0.01093   0.00000   0.00000
  14        8PZ        -0.28310   0.00486   0.36523   0.00000   0.00000
  15        9PX         0.00000   0.00000   0.00000  -0.01071   0.00056
  16        9PY         0.00052  -0.10928   0.00060   0.00000   0.00000
  17        9PZ        -0.01279   0.00029   0.00607   0.00000   0.00000
  18       10D 0       -0.18711  -0.00016  -0.09221   0.00000   0.00000
  19       10D+1        0.00000   0.00000   0.00000   0.08109  -0.00370
  20       10D-1        0.00009  -0.02921  -0.00039   0.00000   0.00000
  21       10D+2        0.00740  -0.00053  -0.15658   0.00000   0.00000
  22       10D-2        0.00000   0.00000   0.00000   0.01174   0.30698
  23       11D 0       -0.28345  -0.00096  -0.22302   0.00000   0.00000
  24       11D+1        0.00000   0.00000   0.00000   0.10728  -0.00264
  25       11D-1       -0.00031  -0.28213  -0.00081   0.00000   0.00000
  26       11D+2        0.05907  -0.00045  -0.31377   0.00000   0.00000
  27       11D-2        0.00000   0.00000   0.00000   0.01856   0.45483
  28       12D 0       -0.06733  -0.00172   0.16629   0.00000   0.00000
  29       12D+1        0.00000   0.00000   0.00000   0.07261  -0.00246
  30       12D-1        0.00089   0.15754  -0.00358   0.00000   0.00000
  31       12D+2       -0.04116  -0.00213   0.09084   0.00000   0.00000
  32       12D-2        0.00000   0.00000   0.00000   0.00085   0.04113
  33       13F 0       -0.04550  -0.00024   0.01286   0.00000   0.00000
  34       13F+1        0.00000   0.00000   0.00000   0.06465  -0.00252
  35       13F-1        0.00015   0.05046   0.00003   0.00000   0.00000
  36       13F+2        0.00189  -0.00011   0.01810   0.00000   0.00000
  37       13F-2        0.00000   0.00000   0.00000  -0.00130  -0.02464
  38       13F+3        0.00000   0.00000   0.00000  -0.02241   0.00141
  39       13F-3        0.00014  -0.01040   0.00017   0.00000   0.00000
  40       14F 0       -0.05648  -0.00007   0.01463   0.00000   0.00000
  41       14F+1        0.00000   0.00000   0.00000  -0.00254  -0.00012
  42       14F-1        0.00163  -0.15354   0.00232   0.00000   0.00000
  43       14F+2        0.01320  -0.00016   0.01339   0.00000   0.00000
  44       14F-2        0.00000   0.00000   0.00000   0.00241   0.08057
  45       14F+3        0.00000   0.00000   0.00000  -0.01969   0.00119
  46       14F-3        0.00033  -0.01991   0.00057   0.00000   0.00000
  47 2   S  1S         -0.03304   0.00022   0.06193   0.00000   0.00000
  48        2S          0.13326  -0.00064  -0.22387   0.00000   0.00000
  49        3S         -0.34013   0.00283   0.76986   0.00000   0.00000
  50        4S         -0.20158   0.00137   0.53453   0.00000   0.00000
  51        5S          0.69142  -0.00054  -1.34835   0.00000   0.00000
  52        6S          0.17695   0.00067  -0.16503   0.00000   0.00000
  53        7PX         0.00000   0.00000   0.00000  -0.20370   0.00813
  54        7PY        -0.00029  -0.32058   0.00155   0.00000   0.00000
  55        7PZ        -0.12867  -0.00033  -0.08943   0.00000   0.00000
  56        8PX         0.00000   0.00000   0.00000   0.34225  -0.01348
  57        8PY        -0.00041   0.60038  -0.00327   0.00000   0.00000
  58        8PZ         0.12427  -0.00123  -0.02591   0.00000   0.00000
  59        9PX         0.00000   0.00000   0.00000   0.37678  -0.01517
  60        9PY         0.00056   0.60721  -0.00312   0.00000   0.00000
  61        9PZ         0.20548   0.00071   0.17291   0.00000   0.00000
  62       10PX         0.00000   0.00000   0.00000  -0.82333   0.03303
  63       10PY        -0.00235  -0.85873   0.00604   0.00000   0.00000
  64       10PZ        -0.39741  -0.00212  -0.02642   0.00000   0.00000
  65       11PX         0.00000   0.00000   0.00000  -0.02684   0.00099
  66       11PY        -0.00033  -0.09783   0.00056   0.00000   0.00000
  67       11PZ        -0.03691  -0.00032  -0.00249   0.00000   0.00000
  68       12D 0       -0.35994   0.00098   0.03573   0.00000   0.00000
  69       12D+1        0.00000   0.00000   0.00000   0.22335  -0.00862
  70       12D-1        0.00015  -0.28652   0.00060   0.00000   0.00000
  71       12D+2        0.06189   0.00047   0.13557   0.00000   0.00000
  72       12D-2        0.00000   0.00000   0.00000  -0.00675  -0.17952
  73       13D 0       -0.34995  -0.00002  -0.01806   0.00000   0.00000
  74       13D+1        0.00000   0.00000   0.00000   0.09790  -0.00392
  75       13D-1       -0.00029  -0.07581  -0.00038   0.00000   0.00000
  76       13D+2        0.05639   0.00004   0.04071   0.00000   0.00000
  77       13D-2        0.00000   0.00000   0.00000  -0.00552  -0.14613
  78       14D 0        0.09272   0.00056  -0.01177   0.00000   0.00000
  79       14D+1        0.00000   0.00000   0.00000   0.16030  -0.00640
  80       14D-1        0.00054   0.03485  -0.00103   0.00000   0.00000
  81       14D+2       -0.00047   0.00050   0.01367   0.00000   0.00000
  82       14D-2        0.00000   0.00000   0.00000  -0.00047  -0.02014
  83       15F 0        0.06364  -0.00009   0.00796   0.00000   0.00000
  84       15F+1        0.00000   0.00000   0.00000   0.08145  -0.00342
  85       15F-1       -0.00023   0.00489  -0.00039   0.00000   0.00000
  86       15F+2        0.00214   0.00004   0.00985   0.00000   0.00000
  87       15F-2        0.00000   0.00000   0.00000  -0.00350  -0.09733
  88       15F+3        0.00000   0.00000   0.00000  -0.06212   0.00249
  89       15F-3       -0.00002  -0.01438   0.00011   0.00000   0.00000
  90       16F 0        0.00525  -0.00036   0.00736   0.00000   0.00000
  91       16F+1        0.00000   0.00000   0.00000  -0.08093   0.00298
  92       16F-1       -0.00011   0.04120  -0.00001   0.00000   0.00000
  93       16F+2        0.00030  -0.00015   0.00819   0.00000   0.00000
  94       16F-2        0.00000   0.00000   0.00000   0.00028   0.01169
  95       16F+3        0.00000   0.00000   0.00000  -0.01432   0.00056
  96       16F-3       -0.00002   0.01746  -0.00013   0.00000   0.00000
  97 3   H  1S          0.01005   0.01689   0.14410   0.00000   0.00000
  98        2S          0.05686   0.26659  -0.10575   0.00000   0.00000
  99        3S         -0.30379  -1.38121   0.14441   0.00000   0.00000
 100        4S         -0.02049  -0.12994   0.00489   0.00000   0.00000
 101        5PX         0.00000   0.00000   0.00000  -0.00446  -0.09441
 102        5PY        -0.01829  -0.01409   0.02366   0.00000   0.00000
 103        5PZ         0.02948  -0.00462   0.06179   0.00000   0.00000
 104        6PX         0.00000   0.00000   0.00000  -0.10019  -0.20559
 105        6PY        -0.00758   0.08327  -0.01797   0.00000   0.00000
 106        6PZ         0.07103   0.15838   0.03139   0.00000   0.00000
 107        7PX         0.00000   0.00000   0.00000  -0.02248  -0.01416
 108        7PY        -0.03021  -0.25255  -0.02948   0.00000   0.00000
 109        7PZ        -0.04856  -0.10490   0.11522   0.00000   0.00000
 110        8D 0        0.01276  -0.00166   0.01338   0.00000   0.00000
 111        8D+1        0.00000   0.00000   0.00000   0.00104  -0.03519
 112        8D-1        0.01189  -0.00105   0.02090   0.00000   0.00000
 113        8D+2        0.01357  -0.00038  -0.00616   0.00000   0.00000
 114        8D-2        0.00000   0.00000   0.00000  -0.00633  -0.05031
 115        9D 0       -0.00608   0.00521   0.00006   0.00000   0.00000
 116        9D+1        0.00000   0.00000   0.00000  -0.04022   0.01347
 117        9D-1        0.01882   0.05261   0.00728   0.00000   0.00000
 118        9D+2       -0.00390  -0.02284  -0.01088   0.00000   0.00000
 119        9D-2        0.00000   0.00000   0.00000  -0.02876  -0.02335
 120 4   H  1S          0.01052  -0.01575   0.14547   0.00000   0.00000
 121        2S          0.06186  -0.26988  -0.11089   0.00000   0.00000
 122        3S         -0.31040   1.39587   0.11511   0.00000   0.00000
 123        4S         -0.02129   0.13070   0.00350   0.00000   0.00000
 124        5PX         0.00000   0.00000   0.00000   0.00309   0.09569
 125        5PY         0.01937  -0.01472  -0.02287   0.00000   0.00000
 126        5PZ         0.02949   0.00570   0.06215   0.00000   0.00000
 127        6PX         0.00000   0.00000   0.00000  -0.08652   0.21314
 128        6PY         0.00839   0.08278   0.01990   0.00000   0.00000
 129        6PZ         0.07364  -0.15835   0.03290   0.00000   0.00000
 130        7PX         0.00000   0.00000   0.00000  -0.02065   0.01622
 131        7PY         0.03132  -0.25511   0.03815   0.00000   0.00000
 132        7PZ        -0.05028   0.10694   0.11526   0.00000   0.00000
 133        8D 0        0.01307   0.00189   0.01369   0.00000   0.00000
 134        8D+1        0.00000   0.00000   0.00000   0.00386   0.03547
 135        8D-1       -0.01168  -0.00172  -0.02051   0.00000   0.00000
 136        8D+2        0.01403   0.00015  -0.00590   0.00000   0.00000
 137        8D-2        0.00000   0.00000   0.00000   0.00257  -0.05049
 138        9D 0       -0.00563  -0.00538   0.00089   0.00000   0.00000
 139        9D+1        0.00000   0.00000   0.00000  -0.04193  -0.01046
 140        9D-1       -0.01958   0.05130  -0.00798   0.00000   0.00000
 141        9D+2       -0.00367   0.02252  -0.01072   0.00000   0.00000
 142        9D-2        0.00000   0.00000   0.00000   0.02762  -0.02585
                          26        27        28        29        30
     Eigenvalues --     0.00602   0.00490   0.00464   0.00354   0.00234
   1 1   C  1S          0.03596   0.00058   0.13042   0.00000  -0.01459
   2        2S         -0.11960  -0.00127  -0.52312   0.00000   0.08206
   3        3S         -0.12357  -0.00150  -0.42045   0.00000   0.04192
   4        4S          0.30871  -0.02321  -0.80605   0.00000   0.91513
   5        5S          0.08425  -0.00736  -0.38064   0.00000   0.28083
   6        6PX         0.00000   0.00000   0.00000   0.12398   0.00000
   7        6PY        -0.00016  -0.05995   0.00057   0.00000  -0.00034
   8        6PZ         0.21592  -0.00186  -0.39468   0.00000   0.03713
   9        7PX         0.00000   0.00000   0.00000   0.11659   0.00000
  10        7PY        -0.00163   0.08334   0.00026   0.00000   0.00577
  11        7PZ         0.27391  -0.00231  -0.47294   0.00000   0.11503
  12        8PX         0.00000   0.00000   0.00000   0.43478   0.00000
  13        8PY        -0.00833   0.28158   0.00183   0.00000  -0.03048
  14        8PZ         0.62792  -0.00074  -0.23465   0.00000  -0.09182
  15        9PX         0.00000   0.00000   0.00000   0.02175   0.00000
  16        9PY        -0.00051   0.00247  -0.00013   0.00000  -0.00088
  17        9PZ         0.04612  -0.00030  -0.09398   0.00000   0.01175
  18       10D 0        0.01823  -0.00139  -0.18708   0.00000   0.06928
  19       10D+1        0.00000   0.00000   0.00000   0.32673   0.00000
  20       10D-1        0.00176   0.27400  -0.00035   0.00000   0.00317
  21       10D+2        0.20107  -0.00209   0.05858   0.00000  -0.16234
  22       10D-2        0.00000   0.00000   0.00000  -0.00057   0.00000
  23       11D 0        0.10680  -0.00159  -0.36251   0.00000   0.05076
  24       11D+1        0.00000   0.00000   0.00000   0.60333   0.00000
  25       11D-1        0.00502   0.56658  -0.00265   0.00000   0.00166
  26       11D+2        0.44054  -0.00197   0.07253   0.00000  -0.36698
  27       11D-2        0.00000   0.00000   0.00000   0.00146   0.00000
  28       12D 0        0.20366  -0.00140   0.20475   0.00000  -0.27421
  29       12D+1        0.00000   0.00000   0.00000   0.13027   0.00000
  30       12D-1        0.00438   0.36565  -0.00273   0.00000   0.01022
  31       12D+2        0.11394   0.00044   0.10809   0.00000  -0.29198
  32       12D-2        0.00000   0.00000   0.00000   0.00098   0.00000
  33       13F 0       -0.03018   0.00017  -0.06133   0.00000  -0.10360
  34       13F+1        0.00000   0.00000   0.00000  -0.01453   0.00000
  35       13F-1       -0.00057  -0.06019   0.00053   0.00000   0.00174
  36       13F+2       -0.01723  -0.00019  -0.02864   0.00000  -0.19557
  37       13F-2        0.00000   0.00000   0.00000   0.00009   0.00000
  38       13F+3        0.00000   0.00000   0.00000   0.05859   0.00000
  39       13F-3       -0.00004   0.01156   0.00020   0.00000  -0.00092
  40       14F 0       -0.10448   0.00026  -0.11757   0.00000  -0.10958
  41       14F+1        0.00000   0.00000   0.00000   0.04623   0.00000
  42       14F-1       -0.00185  -0.01108   0.00152   0.00000  -0.00100
  43       14F+2       -0.05747  -0.00045  -0.08753   0.00000  -0.19885
  44       14F-2        0.00000   0.00000   0.00000  -0.00052   0.00000
  45       14F+3        0.00000   0.00000   0.00000   0.02221   0.00000
  46       14F-3       -0.00035   0.05129  -0.00013   0.00000  -0.00011
  47 2   S  1S          0.05129  -0.00019   0.00480   0.00000   0.00618
  48        2S         -0.16184   0.00057  -0.01681   0.00000  -0.02580
  49        3S          0.69950  -0.00274   0.05078   0.00000   0.11364
  50        4S          0.50888  -0.00247  -0.01982   0.00000   0.16354
  51        5S         -2.01705   0.01521   0.68701   0.00000  -0.30303
  52        6S         -0.36409   0.00549   0.69404   0.00000  -0.22786
  53        7PX         0.00000   0.00000   0.00000   0.17129   0.00000
  54        7PY        -0.00089  -0.06457   0.00019   0.00000   0.00037
  55        7PZ        -0.17350   0.00138  -0.00350   0.00000  -0.07919
  56        8PX         0.00000   0.00000   0.00000  -0.28643   0.00000
  57        8PY         0.00136  -0.02956  -0.00062   0.00000   0.00137
  58        8PZ         0.23007  -0.00346  -0.35508   0.00000  -0.03559
  59        9PX         0.00000   0.00000   0.00000  -0.33948   0.00000
  60        9PY         0.00199   0.16222  -0.00044   0.00000  -0.00102
  61        9PZ         0.34273  -0.00267   0.03127   0.00000   0.16597
  62       10PX         0.00000   0.00000   0.00000  -0.02072   0.00000
  63       10PY        -0.00774  -0.97908   0.00304   0.00000  -0.00159
  64       10PZ         0.30781  -0.00470  -0.99368   0.00000   0.35138
  65       11PX         0.00000   0.00000   0.00000  -0.00220   0.00000
  66       11PY        -0.00055  -0.06317   0.00028   0.00000  -0.00020
  67       11PZ         0.02068  -0.00071  -0.10198   0.00000   0.04236
  68       12D 0       -0.18842   0.00305   0.66812   0.00000  -0.13515
  69       12D+1        0.00000   0.00000   0.00000   0.45841   0.00000
  70       12D-1        0.00242   0.46189  -0.00054   0.00000  -0.00041
  71       12D+2       -0.04226   0.00050  -0.04515   0.00000   0.14445
  72       12D-2        0.00000   0.00000   0.00000  -0.00007   0.00000
  73       13D 0       -0.13978   0.00170   0.38285   0.00000  -0.03104
  74       13D+1        0.00000   0.00000   0.00000   0.31039   0.00000
  75       13D-1        0.00218   0.33214  -0.00079   0.00000  -0.00135
  76       13D+2       -0.14784   0.00097  -0.08816   0.00000   0.17956
  77       13D-2        0.00000   0.00000   0.00000  -0.00021   0.00000
  78       14D 0       -0.09645   0.00132   0.29014   0.00000  -0.11330
  79       14D+1        0.00000   0.00000   0.00000   0.11109   0.00000
  80       14D-1        0.00167   0.23485  -0.00062   0.00000   0.00299
  81       14D+2        0.01835  -0.00027  -0.00509   0.00000   0.03672
  82       14D-2        0.00000   0.00000   0.00000  -0.00017   0.00000
  83       15F 0       -0.01559   0.00043   0.15209   0.00000   0.13484
  84       15F+1        0.00000   0.00000   0.00000   0.10577   0.00000
  85       15F-1        0.00092   0.16473  -0.00037   0.00000   0.00437
  86       15F+2       -0.05984   0.00060  -0.04192   0.00000   0.37981
  87       15F-2        0.00000   0.00000   0.00000  -0.00018   0.00000
  88       15F+3        0.00000   0.00000   0.00000   0.01703   0.00000
  89       15F-3       -0.00015  -0.01624   0.00002   0.00000   0.00003
  90       16F 0        0.03751  -0.00049  -0.11108   0.00000   0.07463
  91       16F+1        0.00000   0.00000   0.00000  -0.08156   0.00000
  92       16F-1       -0.00041  -0.06973   0.00008   0.00000   0.00006
  93       16F+2        0.01281  -0.00017  -0.03194   0.00000   0.04947
  94       16F-2        0.00000   0.00000   0.00000  -0.00002   0.00000
  95       16F+3        0.00000   0.00000   0.00000  -0.01771   0.00000
  96       16F-3        0.00004  -0.00799   0.00005   0.00000   0.00006
  97 3   H  1S         -0.10093   0.22399  -0.08994   0.00000  -0.30173
  98        2S          0.41026  -0.27400   0.05398   0.00000  -0.13445
  99        3S          0.45146  -0.73853   0.05894   0.00000  -0.18306
 100        4S          0.01084  -0.02064  -0.01728   0.00000  -0.01234
 101        5PX         0.00000   0.00000   0.00000  -0.09383   0.00000
 102        5PY        -0.03009   0.10274  -0.03060   0.00000  -0.03665
 103        5PZ        -0.05999   0.00453   0.02584   0.00000  -0.01788
 104        6PX         0.00000   0.00000   0.00000  -0.13473   0.00000
 105        6PY         0.05996   0.08047  -0.06329   0.00000  -0.00891
 106        6PZ         0.01002  -0.05298   0.03930   0.00000  -0.08213
 107        7PX         0.00000   0.00000   0.00000  -0.00753   0.00000
 108        7PY         0.02013  -0.05986  -0.09813   0.00000   0.12612
 109        7PZ         0.12524   0.03492   0.09525   0.00000  -0.13998
 110        8D 0       -0.01496  -0.02149   0.00760   0.00000   0.00125
 111        8D+1        0.00000   0.00000   0.00000  -0.01569   0.00000
 112        8D-1       -0.01815   0.01270   0.00727   0.00000  -0.02266
 113        8D+2        0.01105  -0.02980   0.02048   0.00000   0.00734
 114        8D-2        0.00000   0.00000   0.00000  -0.05107   0.00000
 115        9D 0       -0.00402  -0.01874  -0.01732   0.00000  -0.01280
 116        9D+1        0.00000   0.00000   0.00000   0.00008   0.00000
 117        9D-1        0.01648   0.02272   0.01336   0.00000  -0.00165
 118        9D+2        0.02527  -0.03171   0.03359   0.00000  -0.01220
 119        9D-2        0.00000   0.00000   0.00000   0.01129   0.00000
 120 4   H  1S         -0.10444  -0.22684  -0.09031   0.00000  -0.29303
 121        2S          0.42568   0.28586   0.05050   0.00000  -0.12652
 122        3S          0.48537   0.74518   0.04259   0.00000  -0.11840
 123        4S          0.01255   0.02137  -0.01734   0.00000  -0.01089
 124        5PX         0.00000   0.00000   0.00000  -0.09577   0.00000
 125        5PY         0.03067   0.10266   0.03062   0.00000   0.03537
 126        5PZ        -0.06053  -0.00382   0.02574   0.00000  -0.01748
 127        6PX         0.00000   0.00000   0.00000  -0.13517   0.00000
 128        6PY        -0.06168   0.07902   0.06587   0.00000   0.01004
 129        6PZ         0.01228   0.05447   0.04012   0.00000  -0.08525
 130        7PX         0.00000   0.00000   0.00000  -0.00858   0.00000
 131        7PY        -0.02495  -0.05960   0.10348   0.00000  -0.14501
 132        7PZ         0.12858  -0.03546   0.09737   0.00000  -0.13847
 133        8D 0       -0.01505   0.02157   0.00762   0.00000   0.00182
 134        8D+1        0.00000   0.00000   0.00000  -0.01601   0.00000
 135        8D-1        0.01787   0.01263  -0.00734   0.00000   0.02268
 136        8D+2        0.01123   0.02938   0.02068   0.00000   0.00765
 137        8D-2        0.00000   0.00000   0.00000   0.05152   0.00000
 138        9D 0       -0.00424   0.01890  -0.01697   0.00000  -0.01396
 139        9D+1        0.00000   0.00000   0.00000  -0.00023   0.00000
 140        9D-1       -0.01658   0.02316  -0.01427   0.00000   0.00196
 141        9D+2        0.02538   0.03196   0.03371   0.00000  -0.01176
 142        9D-2        0.00000   0.00000   0.00000  -0.01137   0.00000
                          31        32        33        34        35
     Eigenvalues --     0.00207   0.00195   0.00194   0.00184   0.00154
   1 1   C  1S          0.00110   0.00000   0.04384  -0.00151   0.00000
   2        2S         -0.00386   0.00000  -0.19213   0.00690   0.00000
   3        3S         -0.00414   0.00000  -0.18281   0.00633   0.00000
   4        4S          0.00129   0.00000   0.11250  -0.01229   0.00000
   5        5S          0.00119   0.00000   0.01535  -0.00232   0.00000
   6        6PX         0.00000  -0.00247   0.00000   0.00000  -0.33755
[...]
 137        8D-2        0.00000   0.00000   0.17288   0.00000   0.00000
 138        9D 0        0.84935   0.78408   0.00000   0.32340   1.35808
 139        9D+1        0.00000   0.00000  -0.02629   0.00000   0.00000
 140        9D-1       -0.66432   0.07644   0.00000  -1.20032  -0.32978
 141        9D+2       -0.17992   0.22345   0.00000   0.48036   1.36589
 142        9D-2        0.00000   0.00000  -1.14008   0.00000   0.00000
                         136       137       138       139       140
     Eigenvalues --     0.00000   0.00000   0.00000   0.00000   0.00000
   1 1   C  1S         -0.00744   0.42497   0.00000  -0.07279  -0.07941
   2        2S         -0.04274   2.49499   0.00000  -0.39205  -0.44747
   3        3S          0.00474  -0.09288   0.00000   0.05255   0.02011
   4        4S         -0.28323  25.85988   0.00000 -17.66212  -3.57766
   5        5S         -0.33749  16.83031   0.00000  -2.31759   4.64739
   6        6PX         0.00000   0.00000  -0.02105   0.00000   0.00000
   7        6PY        -0.04137  -0.00074   0.00000   0.00051   0.00004
   8        6PZ        -0.00210   0.05326   0.00000   0.01815   0.01116
   9        7PX         0.00000   0.00000   0.35931   0.00000   0.00000
  10        7PY         2.98622   0.20004   0.00000  -0.01850  -0.01212
  11        7PZ         0.02831  -2.11603   0.00000   0.28194   0.33363
  12        8PX         0.00000   0.00000   0.01122   0.00000   0.00000
  13        8PY        16.98918   0.78344   0.00000  -0.07633  -0.05494
  14        8PZ         0.29402  -8.34338   0.00000   0.39822   9.12510
  15        9PX         0.00000   0.00000  -2.90683   0.00000   0.00000
  16        9PY         6.53365   0.21703   0.00000  -0.04354  -0.00350
  17        9PZ         0.03718  -0.78213   0.00000  -1.74384   5.75127
  18       10D 0        0.00014   0.00133   0.00000   0.00332  -0.01195
  19       10D+1        0.00000   0.00000  -0.00010   0.00000   0.00000
  20       10D-1       -0.08647  -0.00776   0.00000   0.00027   0.00036
  21       10D+2        0.00389  -0.14769   0.00000   0.00821   0.01196
  22       10D-2        0.00000   0.00000   0.00033   0.00000   0.00000
  23       11D 0       -0.01282   0.10668   0.00000  -0.30110   0.23066
  24       11D+1        0.00000   0.00000  -0.28771   0.00000   0.00000
  25       11D-1       -1.81265  -0.11326   0.00000   0.00585   0.00734
  26       11D+2       -0.00026  -1.20266   0.00000   0.51471   0.33333
  27       11D-2        0.00000   0.00000  -0.00109   0.00000   0.00000
  28       12D 0       -0.17533   3.83786   0.00000   0.86311   1.86235
  29       12D+1        0.00000   0.00000  -2.65016   0.00000   0.00000
  30       12D-1       -7.12180  -0.23047   0.00000  -0.01036   0.00103
  31       12D+2       -0.07815   0.78649   0.00000   0.98940   0.98218
  32       12D-2        0.00000   0.00000   0.00307   0.00000   0.00000
  33       13F 0       -0.00492   0.09386   0.00000   0.01612  -0.00239
  34       13F+1        0.00000   0.00000   0.01481   0.00000   0.00000
  35       13F-1        0.06572   0.00183   0.00000  -0.00061  -0.00010
  36       13F+2       -0.00263   0.13453   0.00000  -0.02651  -0.01824
  37       13F-2        0.00000   0.00000  -0.00001   0.00000   0.00000
  38       13F+3        0.00000   0.00000  -0.00535   0.00000   0.00000
  39       13F-3       -0.07038  -0.00423   0.00000  -0.00029  -0.00004
  40       14F 0        0.03254  -0.17487   0.00000  -0.62262  -0.02611
  41       14F+1        0.00000   0.00000   0.02910   0.00000   0.00000
  42       14F-1       -0.35159  -0.00043   0.00000   0.00795  -0.00255
  43       14F+2        0.00585   0.26236   0.00000  -0.24116  -0.11139
  44       14F-2        0.00000   0.00000   0.00019   0.00000   0.00000
  45       14F+3        0.00000   0.00000  -0.01703   0.00000   0.00000
  46       14F-3       -0.16467  -0.00822   0.00000   0.00328   0.00096
  47 2   S  1S         -0.00063   0.01505   0.00000   0.01333   0.00276
  48        2S         -0.00842   0.19871   0.00000   0.20693   0.02067
  49        3S         -0.02662   0.62788   0.00000   0.58360   0.10824
  50        4S         -0.00287   0.02932   0.00000  -0.08699   0.10199
  51        5S          0.05331  -2.88724   0.00000   1.93463  -5.68002
  52        6S          0.17055  -9.84727   0.00000  -2.62975 -16.00033
  53        7PX         0.00000   0.00000   0.00381   0.00000   0.00000
  54        7PY        -0.00623  -0.00022   0.00000  -0.00022   0.00004
  55        7PZ         0.00029  -0.00312   0.00000  -0.04215  -0.00483
  56        8PX         0.00000   0.00000  -0.02349   0.00000   0.00000
  57        8PY        -0.08472  -0.00358   0.00000  -0.00401   0.00080
  58        8PZ         0.01561  -0.23398   0.00000  -1.04442   0.03799
  59        9PX         0.00000   0.00000  -0.01912   0.00000   0.00000
  60        9PY         0.03192   0.00114   0.00000   0.00065  -0.00012
  61        9PZ         0.00230  -0.03290   0.00000   0.08555   0.02896
  62       10PX         0.00000   0.00000   2.16448   0.00000   0.00000
  63       10PY         4.12066   0.10570   0.00000   0.00426   0.00743
  64       10PZ        -0.03736   3.85115   0.00000   0.40760   6.63041
  65       11PX         0.00000   0.00000   2.74611   0.00000   0.00000
  66       11PY        -0.57312  -0.01486   0.00000   0.00968  -0.00173
  67       11PZ        -0.05587   2.85220   0.00000   2.75324   2.26628
  68       12D 0        0.00620  -0.31441   0.00000   0.67965  -0.29577
  69       12D+1        0.00000   0.00000   0.12467   0.00000   0.00000
  70       12D-1       -0.30521  -0.00672   0.00000   0.00406  -0.00191
  71       12D+2        0.00143  -0.05524   0.00000   0.02129  -0.02330
  72       12D-2        0.00000   0.00000  -0.00041   0.00000   0.00000
  73       13D 0       -0.00176   0.06535   0.00000  -0.05006   0.02438
  74       13D+1        0.00000   0.00000  -0.04639   0.00000   0.00000
  75       13D-1       -0.00770  -0.00091   0.00000   0.00002   0.00024
  76       13D+2       -0.00069   0.01611   0.00000   0.00136   0.00836
  77       13D-2        0.00000   0.00000   0.00014   0.00000   0.00000
  78       14D 0        0.01490  -1.47495   0.00000  -1.17433  -1.52939
  79       14D+1        0.00000   0.00000  -1.87112   0.00000   0.00000
  80       14D-1       -1.91083  -0.04658   0.00000  -0.00001  -0.00292
  81       14D+2       -0.00012   0.21334   0.00000   0.21931  -0.05598
  82       14D-2        0.00000   0.00000   0.00037   0.00000   0.00000
  83       15F 0        0.00038  -0.05933   0.00000  -0.03575  -0.01628
  84       15F+1        0.00000   0.00000  -0.02604   0.00000   0.00000
  85       15F-1        0.00507   0.00130   0.00000  -0.00011  -0.00015
  86       15F+2       -0.00005   0.01180   0.00000   0.01319  -0.00918
  87       15F-2        0.00000   0.00000   0.00006   0.00000   0.00000
  88       15F+3        0.00000   0.00000   0.00426   0.00000   0.00000
  89       15F-3        0.02800   0.00051   0.00000  -0.00026  -0.00001
  90       16F 0       -0.00874   0.38597   0.00000  -0.01129   0.13564
  91       16F+1        0.00000   0.00000   0.22905   0.00000   0.00000
  92       16F-1        0.28566   0.00510   0.00000  -0.00255   0.00111
  93       16F+2        0.00279  -0.12796   0.00000  -0.11721   0.03942
  94       16F-2        0.00000   0.00000  -0.00010   0.00000   0.00000
  95       16F+3        0.00000   0.00000  -0.01490   0.00000   0.00000
  96       16F-3       -0.07994  -0.00136   0.00000   0.00044  -0.00004
  97 3   H  1S         -0.05419   0.09945   0.00000  -0.01903  -0.01678
  98        2S          3.76599  -3.55898   0.00000   1.47165   0.92190
  99        3S         30.05591 -10.55523   0.00000   9.17885   8.07413
 100        4S          5.34221  -1.12974   0.00000   0.54473   2.12070
 101        5PX         0.00000   0.00000   0.07644   0.00000   0.00000
 102        5PY        -0.11656   0.06142   0.00000  -0.03379  -0.02775
 103        5PZ        -0.07409   0.03933   0.00000   0.00174  -0.01679
 104        6PX         0.00000   0.00000  -0.39699   0.00000   0.00000
 105        6PY         1.83196  -1.96475   0.00000   0.61708   0.41342
 106        6PZ         1.43055  -0.87890   0.00000   0.36905   0.24733
 107        7PX         0.00000   0.00000  -0.94625   0.00000   0.00000
 108        7PY         5.30613  -4.71844   0.00000   2.00004   1.64364
 109        7PZ         3.32162   2.46777   0.00000   3.74682   1.09767
 110        8D 0       -0.03028  -0.03526   0.00000  -0.01396   0.00977
 111        8D+1        0.00000   0.00000  -0.00619   0.00000   0.00000
 112        8D-1        0.05784  -0.16704   0.00000  -0.02249   0.01351
 113        8D+2       -0.12632   0.11841   0.00000   0.01540  -0.01597
 114        8D-2        0.00000   0.00000   0.07313   0.00000   0.00000
 115        9D 0        0.18076   0.49294   0.00000  -0.00703  -0.07651
 116        9D+1        0.00000   0.00000   0.02062   0.00000   0.00000
 117        9D-1        0.86791   0.02503   0.00000   0.53374   0.08492
 118        9D+2        0.07321   0.57662   0.00000  -0.15951  -0.05718
 119        9D-2        0.00000   0.00000  -0.50353   0.00000   0.00000
 120 4   H  1S          0.04926   0.10357   0.00000  -0.01822  -0.01731
 121        2S         -3.80296  -4.08277   0.00000   1.51763   0.96798
 122        3S        -29.65696 -13.46202   0.00000   9.42111   8.26458
 123        4S         -5.28626  -1.52096   0.00000   0.62197   2.15189
 124        5PX         0.00000   0.00000   0.07699   0.00000   0.00000
 125        5PY        -0.10596  -0.06712   0.00000   0.03239   0.02694
 126        5PZ         0.07293   0.04029   0.00000   0.00022  -0.01628
 127        6PX         0.00000   0.00000  -0.40128   0.00000   0.00000
 128        6PY         1.72078   2.19709   0.00000  -0.61457  -0.42148
 129        6PZ        -1.44373  -1.03017   0.00000   0.39993   0.25387
 130        7PX         0.00000   0.00000  -0.96642   0.00000   0.00000
 131        7PY         4.82444   5.38163   0.00000  -1.99196  -1.66064
 132        7PZ        -3.60643   2.15289   0.00000   3.86337   1.13084
 133        8D 0        0.03410  -0.03612   0.00000  -0.01537   0.00960
 134        8D+1        0.00000   0.00000  -0.00627   0.00000   0.00000
 135        8D-1        0.05170   0.17977   0.00000   0.02272  -0.01433
 136        8D+2        0.12461   0.12727   0.00000   0.01395  -0.01657
 137        8D-2        0.00000   0.00000  -0.07165   0.00000   0.00000
 138        9D 0       -0.23404   0.49818   0.00000   0.01251  -0.07513
 139        9D+1        0.00000   0.00000   0.02021   0.00000   0.00000
 140        9D-1        0.87172   0.04895   0.00000  -0.54728  -0.08417
 141        9D+2       -0.15745   0.61091   0.00000  -0.14823  -0.05617
 142        9D-2        0.00000   0.00000   0.50348   0.00000   0.00000
                         141       142
     Eigenvalues --     0.00000   0.00000
   1 1   C  1S         -0.00070  -0.00256
   2        2S         -0.00206  -0.00209
   3        3S          0.00540   0.04559
   4        4S          0.88605   8.06507
   5        5S          1.86130  15.98061
   6        6PX         0.00000   0.00000
   7        6PY        -0.00759   0.00062
   8        6PZ         0.00040   0.00396
   9        7PX         0.00000   0.00000
  10        7PY        -0.16225   0.02679
  11        7PZ        -0.00872  -0.07103
  12        8PX         0.00000   0.00000
  13        8PY        -5.06298   0.55214
  14        8PZ         0.15118   1.14872
  15        9PX         0.00000   0.00000
  16        9PY        -5.23919   0.59204
  17        9PZ         0.15597   1.19729
  18       10D 0        0.00122   0.00933
  19       10D+1        0.00000   0.00000
  20       10D-1       -0.01483   0.00112
  21       10D+2       -0.00162  -0.01278
  22       10D-2        0.00000   0.00000
  23       11D 0       -0.01123  -0.08485
  24       11D+1        0.00000   0.00000
  25       11D-1        0.12869  -0.02125
  26       11D+2        0.00140   0.01686
  27       11D-2        0.00000   0.00000
  28       12D 0        0.07438   0.41844
  29       12D+1        0.00000   0.00000
  30       12D-1       -0.91157   0.06957
  31       12D+2       -0.04006  -0.36515
  32       12D-2        0.00000   0.00000
  33       13F 0       -0.00149  -0.01186
  34       13F+1        0.00000   0.00000
  35       13F-1        0.00468  -0.00052
  36       13F+2       -0.00081  -0.00478
  37       13F-2        0.00000   0.00000
  38       13F+3        0.00000   0.00000
  39       13F-3        0.00402  -0.00084
  40       14F 0        0.00290   0.02356
  41       14F+1        0.00000   0.00000
  42       14F-1       -0.09316   0.01126
  43       14F+2       -0.00524  -0.04530
  44       14F-2        0.00000   0.00000
  45       14F+3        0.00000   0.00000
  46       14F-3       -0.01240   0.00169
  47 2   S  1S          0.00037   0.00304
  48        2S          0.00557   0.04702
  49        3S          0.01590   0.13270
  50        4S         -0.00151  -0.01495
  51        5S         -0.23742  -1.73494
  52        6S         -1.03989  -8.65410
  53        7PX         0.00000   0.00000
  54        7PY        -0.00569   0.00068
  55        7PZ        -0.00028  -0.00287
  56        8PX         0.00000   0.00000
  57        8PY        -0.04957   0.00627
  58        8PZ        -0.00420  -0.04539
  59        9PX         0.00000   0.00000
  60        9PY         0.02457  -0.00292
  61        9PZ         0.00126   0.01227
  62       10PX         0.00000   0.00000
  63       10PY         1.27986  -0.12273
  64       10PZ         0.27964   2.28982
  65       11PX         0.00000   0.00000
  66       11PY         0.52408  -0.05698
  67       11PZ         0.26378   2.29153
  68       12D 0       -0.00563  -0.04470
  69       12D+1        0.00000   0.00000
  70       12D-1       -0.07952   0.00702
  71       12D+2        0.00424   0.03398
  72       12D-2        0.00000   0.00000
  73       13D 0        0.00105   0.00721
  74       13D+1        0.00000   0.00000
  75       13D-1        0.00211  -0.00009
  76       13D+2       -0.00099  -0.00784
  77       13D-2        0.00000   0.00000
  78       14D 0       -0.07168  -0.63170
  79       14D+1        0.00000   0.00000
  80       14D-1       -0.44136   0.04248
  81       14D+2       -0.01114  -0.07763
  82       14D-2        0.00000   0.00000
  83       15F 0       -0.00187  -0.01521
  84       15F+1        0.00000   0.00000
  85       15F-1       -0.00056   0.00005
  86       15F+2       -0.00078  -0.00611
  87       15F-2        0.00000   0.00000
  88       15F+3        0.00000   0.00000
  89       15F-3       -0.00340   0.00027
  90       16F 0        0.00701   0.06403
  91       16F+1        0.00000   0.00000
  92       16F-1        0.03689  -0.00338
  93       16F+2        0.00197   0.01240
  94       16F-2        0.00000   0.00000
  95       16F+3        0.00000   0.00000
  96       16F-3        0.02088  -0.00183
  97 3   H  1S         -0.01466  -0.01178
  98        2S         -0.02217   0.18893
  99        3S         -8.87756  -3.87475
 100        4S         -8.44459  -1.47496
 101        5PX         0.00000   0.00000
 102        5PY         0.02202   0.00562
 103        5PZ         0.00769   0.01493
 104        6PX         0.00000   0.00000
 105        6PY        -0.26787  -0.05848
 106        6PZ        -0.10442  -0.14230
 107        7PX         0.00000   0.00000
 108        7PY        -2.70343  -0.86030
 109        7PZ        -2.40891  -0.74503
 110        8D 0        0.00814   0.00585
 111        8D+1        0.00000   0.00000
 112        8D-1        0.01322   0.01014
 113        8D+2       -0.02545   0.00185
 114        8D-2        0.00000   0.00000
 115        9D 0       -0.02279  -0.04646
 116        9D+1        0.00000   0.00000
 117        9D-1       -0.21065  -0.17659
 118        9D+2        0.24487   0.04666
 119        9D-2        0.00000   0.00000
 120 4   H  1S          0.01157  -0.01345
 121        2S          0.07047   0.14804
 122        3S          7.82244  -5.79987
 123        4S          7.90119  -3.36747
 124        5PX         0.00000   0.00000
 125        5PY         0.01978  -0.01024
 126        5PZ        -0.00375   0.01595
 127        6PX         0.00000   0.00000
 128        6PY        -0.24439   0.12659
 129        6PZ         0.06757  -0.16502
 130        7PX         0.00000   0.00000
 131        7PY        -2.41654   1.42949
 132        7PZ         2.22170  -1.23095
 133        8D 0       -0.00643   0.00705
 134        8D+1        0.00000   0.00000
 135        8D-1        0.01072  -0.01100
 136        8D+2        0.02502  -0.00261
 137        8D-2        0.00000   0.00000
 138        9D 0        0.01293  -0.04507
 139        9D+1        0.00000   0.00000
 140        9D-1       -0.16298   0.21521
 141        9D+2       -0.22342   0.09734
 142        9D-2        0.00000   0.00000
          Condensed to atoms (all electrons):
              1          2          3          4
     1  C    6.192879   0.275306   0.184162   0.180012
     2  S    0.275306  16.029900  -0.118881  -0.119669
     3  H    0.184162  -0.118881   0.653103  -0.162655
     4  H    0.180012  -0.119669  -0.162655   0.647567
 Mulliken atomic charges:
              1
     1  C   -0.832359
     2  S   -0.066657
     3  H    0.444270
     4  H    0.454745
 Sum of Mulliken atomic charges =   0.00000
 Mulliken charges with hydrogens summed into heavy atoms:
              1
     1  C    0.066657
     2  S   -0.066657
 Sum of Mulliken charges with hydrogens summed into heavy atoms =   0.00000
 Electronic spatial extent (au):  <R**2>=            130.2078
 Charge=              0.0000 electrons
 Dipole moment (field-independent basis, Debye):
    X=              0.0000    Y=              0.0000    Z=             -1.7560  Tot=              1.7560
 Quadrupole moment (field-independent basis, Debye-Ang):
   XX=            -19.9679   YY=            -20.5866   ZZ=            -18.9544
   XY=              0.0000   XZ=              0.0000   YZ=             -0.0060
 Traceless Quadrupole moment (field-independent basis, Debye-Ang):
   XX=             -0.1316   YY=             -0.7503   ZZ=              0.8819
   XY=              0.0000   XZ=              0.0000   YZ=             -0.0060
 Octapole moment (field-independent basis, Debye-Ang**2):
  XXX=              0.0000  YYY=              0.0159  ZZZ=            -27.7232  XYY=              0.0000
  XXY=              0.0153  XXZ=             -8.5743  XZZ=              0.0000  YZZ=              0.0173
  YYZ=            -13.1229  XYZ=              0.0000
 Hexadecapole moment (field-independent basis, Debye-Ang**3):
 XXXX=            -25.3021 YYYY=            -35.0564 ZZZZ=           -127.2478 XXXY=              0.0000
 XXXZ=              0.0000 YYYX=              0.0000 YYYZ=             -0.0366 ZZZX=              0.0000
 ZZZY=             -0.0703 XXYY=            -10.4795 XXZZ=            -25.3126 YYZZ=            -29.5439
 XXYZ=             -0.0223 YYXZ=              0.0000 ZZXY=              0.0000
 N-N= 4.473434975503D+01 E-N=-1.127431206718D+03  KE= 4.368790509552D+02
 1\1\GINC-TRAPISTA\SP\RQCISD-FC\Aug-CC-pVTZ\C1H2S1\BRUNS\17-Nov-2021\0\
 \# qcisd/aug-cc-pvtz nosymm density=current output=wfn\\h2cs-wavefunct
 ion\\0,1\C,0,0.,0.,-0.555291\S,0,0.,0.,1.060374\H,0,0.,-0.92228,-1.128
 992\H,0,0.,0.91228,-1.128992\\Version=EM64L-G09RevB.01\HF=-436.5576479
 \MP2=-436.8984019\MP3=-436.9212431\MP4D=-436.9312415\MP4DQ=-436.919587
 4\MP4SDQ=-436.923062\QCISD=-436.923466\RMSD=6.873e-09\Dipole=0.,-0.000
 0137,-0.6908622\Quadrupole=-0.0978271,-0.5578322,0.6556593,0.,0.,-0.00
 44701\PG=CS [SG(C1H2S1)]\\@

 Writing a WFN file to GAUSSIAN.wfn.


 This summer one third of the nation will be ill-housed
 ill-nourished and ill-clad. Only they call it a vacation.
 -- Jonas Salk
 Job cpu time:  0 days  0 hours 25 minutes 12.7 seconds.
 File lengths (MBytes):  RWF=   5923 Int=      0 D2E=      0 Chk=      2 Scr=      1
 Normal termination of Gaussian 09 at Wed Nov 17 18:16:42 2021.
