 h2cs-wavefunction
GAUSSIAN            142 MOL ORBITALS    240 PRIMITIVES        4 NUCLEI
  C    1    (CENTRE  1)   0.00000000  0.00000000 -1.04934791  CHARGE =  6.0
  S    2    (CENTRE  2)   0.00000000  0.00000000  2.00381646  CHARGE = 16.0
  H    3    (CENTRE  3)   0.00000000 -1.74285662 -2.13348569  CHARGE =  1.0
  H    4    (CENTRE  4)   0.00000000  1.74285662 -2.11458842  CHARGE =  1.0
CENTRE ASSIGNMENTS    1  1  1  1  1  1  1  1  1  1  1  1  1  1  1  1  1  1  1  1
CENTRE ASSIGNMENTS    1  1  1  1  1  1  1  1  1  1  1  1  1  1  1  1  1  1  1  1
CENTRE ASSIGNMENTS    1  1  1  1  1  1  1  1  1  1  1  1  1  1  1  1  1  1  1  1
CENTRE ASSIGNMENTS    1  1  1  1  1  1  1  1  1  1  1  1  2  2  2  2  2  2  2  2
CENTRE ASSIGNMENTS    2  2  2  2  2  2  2  2  2  2  2  2  2  2  2  2  2  2  2  2
CENTRE ASSIGNMENTS    2  2  2  2  2  2  2  2  2  2  2  2  2  2  2  2  2  2  2  2
CENTRE ASSIGNMENTS    2  2  2  2  2  2  2  2  2  2  2  2  2  2  2  2  2  2  2  2
CENTRE ASSIGNMENTS    2  2  2  2  2  2  2  2  2  2  2  2  2  2  2  2  2  2  2  2
CENTRE ASSIGNMENTS    2  2  2  2  2  2  2  2  2  2  2  2  2  2  2  2  2  2  2  2
CENTRE ASSIGNMENTS    2  2  2  2  2  2  3  3  3  3  3  3  3  3  3  3  3  3  3  3
CENTRE ASSIGNMENTS    3  3  3  3  3  3  3  3  3  3  3  3  3  4  4  4  4  4  4  4
CENTRE ASSIGNMENTS    4  4  4  4  4  4  4  4  4  4  4  4  4  4  4  4  4  4  4  4
TYPE ASSIGNMENTS      1  1  1  1  1  1  1  1  1  1  1  1  1  1  1  1  2  2  2  3
TYPE ASSIGNMENTS      3  3  4  4  4  2  3  4  2  3  4  2  3  4  5  6  7  8  9 10
TYPE ASSIGNMENTS      5  6  7  8  9 10  5  6  7  8  9 10 11 12 13 17 14 15 18 19
TYPE ASSIGNMENTS     16 20 11 12 13 17 14 15 18 19 16 20  1  1  1  1  1  1  1  1
TYPE ASSIGNMENTS      1  1  1  1  1  1  1  1  1  1  1  1  1  1  1  1  1  1  1  1
TYPE ASSIGNMENTS      1  1  1  2  2  2  2  2  2  3  3  3  3  3  3  4  4  4  4  4
TYPE ASSIGNMENTS      4  2  2  2  2  2  2  3  3  3  3  3  3  4  4  4  4  4  4  2
TYPE ASSIGNMENTS      3  4  2  3  4  2  3  4  5  6  7  8  9 10  5  6  7  8  9 10
TYPE ASSIGNMENTS      5  6  7  8  9 10 11 12 13 17 14 15 18 19 16 20 11 12 13 17
TYPE ASSIGNMENTS     14 15 18 19 16 20  1  1  1  1  1  1  2  3  4  2  3  4  2  3
TYPE ASSIGNMENTS      4  5  6  7  8  9 10  5  6  7  8  9 10  1  1  1  1  1  1  2
TYPE ASSIGNMENTS      3  4  2  3  4  2  3  4  5  6  7  8  9 10  5  6  7  8  9 10
EXPONENTS  0.8236000D+04 0.1235000D+04 0.2808000D+03 0.7927000D+02 0.2559000D+02
EXPONENTS  0.8997000D+01 0.3319000D+01 0.2808000D+03 0.7927000D+02 0.2559000D+02
EXPONENTS  0.8997000D+01 0.3319000D+01 0.3643000D+00 0.9059000D+00 0.1285000D+00
EXPONENTS  0.4402000D-01 0.1871000D+02 0.4133000D+01 0.1200000D+01 0.1871000D+02
EXPONENTS  0.4133000D+01 0.1200000D+01 0.1871000D+02 0.4133000D+01 0.1200000D+01
EXPONENTS  0.3827000D+00 0.3827000D+00 0.3827000D+00 0.1209000D+00 0.1209000D+00
EXPONENTS  0.1209000D+00 0.3569000D-01 0.3569000D-01 0.3569000D-01 0.1097000D+01
EXPONENTS  0.1097000D+01 0.1097000D+01 0.1097000D+01 0.1097000D+01 0.1097000D+01
EXPONENTS  0.3180000D+00 0.3180000D+00 0.3180000D+00 0.3180000D+00 0.3180000D+00
EXPONENTS  0.3180000D+00 0.1000000D+00 0.1000000D+00 0.1000000D+00 0.1000000D+00
EXPONENTS  0.1000000D+00 0.1000000D+00 0.7610000D+00 0.7610000D+00 0.7610000D+00
EXPONENTS  0.7610000D+00 0.7610000D+00 0.7610000D+00 0.7610000D+00 0.7610000D+00
EXPONENTS  0.7610000D+00 0.7610000D+00 0.2680000D+00 0.2680000D+00 0.2680000D+00
EXPONENTS  0.2680000D+00 0.2680000D+00 0.2680000D+00 0.2680000D+00 0.2680000D+00
EXPONENTS  0.2680000D+00 0.2680000D+00 0.3741000D+06 0.5605000D+05 0.1276000D+05
EXPONENTS  0.3615000D+04 0.1183000D+04 0.4288000D+03 0.1678000D+03 0.6947000D+02
EXPONENTS  0.2984000D+02 0.1272000D+02 0.5244000D+01 0.3615000D+04 0.1183000D+04
EXPONENTS  0.4288000D+03 0.1678000D+03 0.6947000D+02 0.2984000D+02 0.1272000D+02
EXPONENTS  0.5244000D+01 0.2219000D+01 0.1183000D+04 0.1678000D+03 0.6947000D+02
EXPONENTS  0.2984000D+02 0.1272000D+02 0.5244000D+01 0.2219000D+01 0.3490000D+00
EXPONENTS  0.7767000D+00 0.1322000D+00 0.4970000D-01 0.5744000D+03 0.1358000D+03
EXPONENTS  0.4319000D+02 0.1587000D+02 0.6208000D+01 0.2483000D+01 0.5744000D+03
EXPONENTS  0.1358000D+03 0.4319000D+02 0.1587000D+02 0.6208000D+01 0.2483000D+01
EXPONENTS  0.5744000D+03 0.1358000D+03 0.4319000D+02 0.1587000D+02 0.6208000D+01
EXPONENTS  0.2483000D+01 0.1358000D+03 0.4319000D+02 0.1587000D+02 0.6208000D+01
EXPONENTS  0.2483000D+01 0.3229000D+00 0.1358000D+03 0.4319000D+02 0.1587000D+02
EXPONENTS  0.6208000D+01 0.2483000D+01 0.3229000D+00 0.1358000D+03 0.4319000D+02
EXPONENTS  0.1587000D+02 0.6208000D+01 0.2483000D+01 0.3229000D+00 0.8688000D+00
EXPONENTS  0.8688000D+00 0.8688000D+00 0.1098000D+00 0.1098000D+00 0.1098000D+00
EXPONENTS  0.3510000D-01 0.3510000D-01 0.3510000D-01 0.2690000D+00 0.2690000D+00
EXPONENTS  0.2690000D+00 0.2690000D+00 0.2690000D+00 0.2690000D+00 0.8190000D+00
EXPONENTS  0.8190000D+00 0.8190000D+00 0.8190000D+00 0.8190000D+00 0.8190000D+00
EXPONENTS  0.1010000D+00 0.1010000D+00 0.1010000D+00 0.1010000D+00 0.1010000D+00
EXPONENTS  0.1010000D+00 0.5570000D+00 0.5570000D+00 0.5570000D+00 0.5570000D+00
EXPONENTS  0.5570000D+00 0.5570000D+00 0.5570000D+00 0.5570000D+00 0.5570000D+00
EXPONENTS  0.5570000D+00 0.2180000D+00 0.2180000D+00 0.2180000D+00 0.2180000D+00
EXPONENTS  0.2180000D+00 0.2180000D+00 0.2180000D+00 0.2180000D+00 0.2180000D+00
EXPONENTS  0.2180000D+00 0.3387000D+02 0.5095000D+01 0.1159000D+01 0.3258000D+00
EXPONENTS  0.1027000D+00 0.2526000D-01 0.1407000D+01 0.1407000D+01 0.1407000D+01
EXPONENTS  0.3880000D+00 0.3880000D+00 0.3880000D+00 0.1020000D+00 0.1020000D+00
EXPONENTS  0.1020000D+00 0.1057000D+01 0.1057000D+01 0.1057000D+01 0.1057000D+01
EXPONENTS  0.1057000D+01 0.1057000D+01 0.2470000D+00 0.2470000D+00 0.2470000D+00
EXPONENTS  0.2470000D+00 0.2470000D+00 0.2470000D+00 0.3387000D+02 0.5095000D+01
EXPONENTS  0.1159000D+01 0.3258000D+00 0.1027000D+00 0.2526000D-01 0.1407000D+01
EXPONENTS  0.1407000D+01 0.1407000D+01 0.3880000D+00 0.3880000D+00 0.3880000D+00
EXPONENTS  0.1020000D+00 0.1020000D+00 0.1020000D+00 0.1057000D+01 0.1057000D+01
EXPONENTS  0.1057000D+01 0.1057000D+01 0.1057000D+01 0.1057000D+01 0.2470000D+00
EXPONENTS  0.2470000D+00 0.2470000D+00 0.2470000D+00 0.2470000D+00 0.2470000D+00
MO    1     MO 0.0        OCC NO =    2.0000338  ORB. ENERGY =    0.000000
  0.86457154D-04  0.16117355D-03  0.27240526D-03  0.40947591D-03  0.50296782D-03
  0.42448710D-03  0.15961823D-03  0.27631120D-07  0.20652550D-06  0.77183295D-06
  0.21532937D-05  0.28848200D-05 -0.34064345D-05  0.54696813D-05  0.18785880D-04
 -0.42657852D-06 -0.14010667D-12 -0.13135891D-12 -0.93535367D-13 -0.14273604D-02
 -0.13382411D-02 -0.95290739D-03 -0.22952075D-04 -0.21519030D-04 -0.15322831D-04
 -0.23743620D-13 -0.58729500D-03 -0.97337771D-05 -0.42846949D-14  0.16147307D-02
  0.95748953D-05 -0.47296715D-16  0.29772980D-04  0.90359732D-07 -0.49053546D-06
  0.35680415D-05 -0.30775060D-05 -0.24095514D-14 -0.33701795D-13 -0.10633887D-02
 -0.78932180D-07  0.59110782D-06 -0.51217564D-06  0.24747771D-14  0.29232597D-13
  0.49393706D-04  0.32668024D-06 -0.11750540D-06 -0.20917484D-06  0.38819351D-17
 -0.23784999D-14 -0.21394817D-03  0.32421526D-14  0.16881925D-03 -0.71999297D-06
  0.55777819D-14  0.19015179D-03  0.40780789D-05 -0.15304240D-13 -0.69660955D-03
 -0.19181000D-05 -0.31925758D-14 -0.14705292D-14 -0.78922694D-04  0.39956109D-07
 -0.68163851D-14 -0.12292158D-03 -0.95227593D-06  0.11227973D-13  0.35968966D-03
  0.83240761D-06 -0.58131538D-15  0.88057167D-04  0.16463174D-03  0.28453259D-03
  0.46021973D-03  0.69560672D-03  0.95799447D-03  0.11197789D-02  0.96778863D-03
  0.45167199D-03  0.61191644D-04 -0.44756450D-06  0.10803512D-05  0.13887806D-04
  0.50660721D-04  0.17092802D-03  0.37543462D-03  0.48495912D-03 -0.77937057D-04
 -0.65379928D-03 -0.35879661D-03  0.12170665D-07  0.13863144D-06  0.28784884D-06
  0.79151120D-06 -0.10262852D-06 -0.35788532D-05 -0.89262283D-05  0.73890025D-05
 -0.19435185D-04 -0.75593490D-05  0.87114546D-07  0.46453557D-09  0.60944425D-09
  0.66842845D-09  0.54996279D-09  0.28990911D-09  0.75428898D-10  0.97724316D+01
  0.12820875D+02  0.14061725D+02  0.11569563D+02  0.60988160D+01  0.15867972D+01
 -0.27228768D-01 -0.35722595D-01 -0.39179956D-01 -0.32236087D-01 -0.16993032D-01
 -0.44212674D-02  0.24708325D-14  0.88692093D-13  0.14071223D-12  0.16709146D-12
  0.25285342D-13 -0.18402198D-12  0.96336673D-04  0.34580657D-02  0.54863079D-02
  0.65148223D-02  0.98586433D-03 -0.71749359D-02 -0.26429533D-06 -0.94870477D-05
 -0.15051439D-04 -0.17873122D-04 -0.27046745D-05  0.19684114D-04  0.35996861D-11
  0.66510954D-01 -0.19106321D-03  0.87673625D-14 -0.57518575D-03  0.36394368D-05
 -0.74197713D-15 -0.27539430D-04  0.97993031D-08  0.73862922D-06  0.34225289D-06
 -0.10808821D-05 -0.92653873D-16  0.28997846D-13  0.76440314D-03 -0.37895920D-06
 -0.11718974D-05  0.15508566D-05  0.16533137D-14 -0.17446919D-13 -0.10852585D-02
 -0.28610452D-08  0.21063616D-06 -0.20777511D-06  0.60119991D-16 -0.17401457D-14
 -0.30346269D-04  0.68397658D-14  0.72320304D-06 -0.42037566D-06 -0.52869516D-14
  0.13055420D-03 -0.70121685D-06 -0.15232346D-13 -0.13272381D-03  0.19623438D-05
  0.39241066D-15  0.34149685D-15  0.33486584D-04  0.12597225D-06  0.13602952D-14
 -0.24327723D-05  0.22191729D-07 -0.23847857D-14 -0.98026979D-04 -0.40010848D-06
 -0.14059817D-15 -0.10730901D-03 -0.19353622D-03 -0.28536904D-03  0.14270660D-03
  0.23729753D-02  0.25756752D-04 -0.74305432D-14 -0.17310682D-04  0.26479417D-03
  0.10547456D-13 -0.17927538D-04 -0.31562618D-03 -0.18334504D-14  0.31396579D-03
  0.13414896D-03 -0.49471395D-04 -0.14670339D-03  0.19617479D-03  0.51966528D-14
 -0.27949684D-14 -0.58983836D-05  0.25105518D-04 -0.23203687D-04 -0.19018309D-05
 -0.83901977D-15  0.57275992D-14 -0.11615315D-03  0.10584445D-03  0.19089482D-03
  0.28147430D-03 -0.13496166D-03 -0.23806234D-02 -0.25784461D-04 -0.59506157D-14
 -0.10939727D-04 -0.27758733D-03  0.66003496D-14 -0.21877883D-04  0.31557726D-03
 -0.22813548D-14  0.31589501D-03 -0.13049980D-03  0.51662090D-04  0.14717597D-03
 -0.19883806D-03 -0.11636211D-14 -0.42285668D-14  0.28810678D-05 -0.24122758D-04
  0.23831436D-04  0.29132196D-06  0.19049615D-14  0.49978897D-14 -0.11638204D-03
MO    2     MO 0.0        OCC NO =    2.0000243  ORB. ENERGY =    0.000000
 -0.53326567D-01 -0.99411464D-01 -0.16801892D+00 -0.25256377D+00 -0.31022936D+00
 -0.26182263D+00 -0.98452147D-01 -0.89054281D-05 -0.66562558D-04 -0.24875948D-03
 -0.69400021D-03 -0.92976894D-03  0.10978838D-02 -0.42222685D-02 -0.55770900D-03
 -0.39463791D-04 -0.18313680D-12 -0.17170239D-12 -0.12226233D-12 -0.45541043D-05
 -0.42697622D-05 -0.30403251D-05  0.24109265D-02  0.22603968D-02  0.16095372D-02
 -0.24632110D-13 -0.13393051D-05  0.49438561D-04 -0.34200952D-14 -0.17237327D-05
 -0.59991221D-03  0.24838537D-16 -0.10364970D-06 -0.52160731D-06  0.19008328D-03
 -0.14779282D-03 -0.42290465D-04  0.13778330D-14 -0.35130318D-13 -0.40939060D-05
  0.38303216D-04  0.14596721D-03 -0.18427043D-03  0.44642816D-14  0.33672912D-13
  0.29968275D-06  0.10845129D-04  0.84582049D-04 -0.95427178D-04  0.12842040D-15
 -0.35051514D-14  0.40947746D-06  0.37157148D-14 -0.12405314D-05  0.99298917D-05
  0.78124213D-14  0.10241049D-05 -0.17216173D-03 -0.18959566D-13  0.26974892D-05
  0.14237206D-03 -0.28016045D-14 -0.20941212D-14 -0.24464021D-06  0.58643848D-04
 -0.84750766D-14  0.45354686D-06  0.11041631D-04  0.14757440D-13  0.28037377D-06
 -0.18697317D-03 -0.21449566D-14 -0.12105962D+00 -0.22633316D+00 -0.39117097D+00
 -0.63270293D+00 -0.95630930D+00 -0.13170359D+01 -0.15394546D+01 -0.13305007D+01
 -0.62095163D+00 -0.84125320D-01  0.61530471D-03 -0.15075880D-02 -0.19379892D-01
 -0.70695061D-01 -0.23852338D+00 -0.52390438D+00 -0.67674155D+00  0.10875813D+00
  0.91235140D+00  0.50068668D+00 -0.12524129D-04 -0.14265761D-03 -0.29620863D-03
 -0.81449851D-03  0.10560909D-03  0.36827913D-02  0.91854665D-02 -0.76035961D-02
  0.27954272D-01  0.11378512D-02  0.46111269D-05  0.63892816D-09  0.83823741D-09
  0.91936503D-09  0.75642585D-09  0.39874470D-09  0.10374587D-09  0.22547489D-01
  0.29581024D-01  0.32443981D-01  0.26693930D-01  0.14071522D-01  0.36611454D-02
  0.66632214D+01  0.87417675D+01  0.95878270D+01  0.78885753D+01  0.41584083D+01
  0.10819396D+01  0.32849359D-14  0.11791485D-12  0.18707486D-12  0.22214566D-12
  0.33616494D-13 -0.24465454D-12  0.18261038D-06  0.65549149D-05  0.10399537D-04
  0.12349131D-04  0.18687490D-05 -0.13600405D-04  0.55945859D-04  0.20082119D-02
  0.31860785D-02  0.37833705D-02  0.57252368D-03 -0.41667201D-02  0.49520017D-11
  0.15913365D-03  0.48663803D-01  0.12414780D-13 -0.20352451D-06 -0.64478712D-03
 -0.10129182D-14 -0.14541862D-07 -0.14332584D-05 -0.25585183D-03 -0.10234968D-03
  0.35820151D-03  0.30498522D-15  0.37348483D-13  0.69116839D-06  0.35927823D-03
 -0.38149927D-03  0.22221045D-04 -0.21296414D-14 -0.26499528D-13  0.11248997D-05
 -0.54203522D-05 -0.23211154D-04  0.28631506D-04 -0.53572181D-16 -0.23324732D-14
 -0.26348111D-06  0.80622212D-14  0.14074113D-06 -0.69595493D-04 -0.57328050D-14
  0.28379135D-06  0.20808449D-03 -0.18453859D-13 -0.70601474D-06  0.70198647D-06
 -0.13993219D-14  0.33828687D-15  0.40240502D-08 -0.19765599D-04  0.21038104D-14
 -0.60172245D-07  0.25999355D-04 -0.31186710D-14  0.48100094D-07  0.33297441D-04
 -0.40694817D-15 -0.23036521D-04 -0.41547315D-04 -0.61261491D-04 -0.39475366D-03
 -0.44130910D-03  0.27623824D-05 -0.86848542D-14  0.20763956D-04  0.91416222D-04
  0.12146610D-13  0.34803334D-04  0.24875250D-04 -0.32411199D-14  0.35918163D-04
 -0.12277129D-03 -0.10054766D-03  0.20550848D-04  0.79996813D-04  0.85779705D-14
 -0.42289767D-14  0.13178781D-03 -0.31161174D-04  0.21807534D-04  0.93536399D-05
 -0.23008109D-14  0.69473566D-14 -0.64591958D-04 -0.21170434D-04 -0.38181749D-04
 -0.56298967D-04 -0.39065163D-03 -0.44054806D-03  0.32240812D-05 -0.51222368D-14
 -0.24550351D-04  0.95769134D-04  0.23953503D-14 -0.31265586D-04  0.31634026D-04
 -0.41108598D-14 -0.35666072D-04 -0.12255438D-03 -0.99648098D-04  0.17592508D-04
  0.82055590D-04 -0.14875021D-14 -0.73643330D-14 -0.13174807D-03 -0.31041981D-04
  0.21509798D-04  0.95321823D-05  0.42940096D-14  0.61736330D-14  0.66031019D-04
MO    3     MO 0.0        OCC NO =    2.0000101  ORB. ENERGY =    0.000000
 -0.15070868D+00 -0.28095134D+00 -0.47484605D+00 -0.71378217D+00 -0.87675355D+00
 -0.73994907D+00 -0.27824017D+00 -0.23140029D-04 -0.17295738D-03 -0.64638122D-03
 -0.18033030D-02 -0.24159288D-02  0.28527614D-02 -0.12194548D-01 -0.12513798D-03
 -0.10663089D-03  0.20901216D-12  0.19596218D-12  0.13953675D-12  0.76664776D-05
  0.71878101D-05  0.51181490D-05  0.37258907D-02  0.34932594D-02  0.24874088D-02
  0.29416037D-13 -0.15894087D-04  0.55345804D-03  0.30399682D-14 -0.78575358D-05
 -0.15109194D-03 -0.52708609D-16 -0.18041676D-06 -0.37789962D-05  0.45272920D-03
 -0.45124232D-03 -0.14868742D-05 -0.56535202D-14  0.31248266D-13  0.19859080D-05
 -0.11463625D-03 -0.56393132D-05  0.12027556D-03 -0.11692873D-14 -0.29312826D-13
  0.49938895D-05  0.12725660D-04  0.58586866D-04 -0.71312526D-04  0.39779446D-15
  0.49349134D-14  0.18638515D-05 -0.49424304D-14 -0.47170584D-05  0.71509357D-04
 -0.65148192D-14  0.44365398D-05 -0.44954274D-03  0.21342110D-13  0.97146355D-05
  0.23501467D-03  0.37539065D-14  0.23240592D-14 -0.71945778D-06  0.11871311D-03
  0.78423399D-14  0.11603937D-05 -0.21789035D-04 -0.14814517D-13  0.99797964D-06
 -0.33435029D-03  0.13680682D-14  0.11223197D+00  0.20982896D+00  0.36264682D+00
  0.58656628D+00  0.88657530D+00  0.12209977D+01  0.14271977D+01  0.12334807D+01
  0.57567189D+00  0.77990909D-01 -0.57043674D-03  0.14103588D-02  0.18130021D-01
  0.66135709D-01  0.22314024D+00  0.49011610D+00  0.63309632D+00 -0.10174396D+00
 -0.85351093D+00 -0.46839579D+00  0.63560100D-05  0.72398905D-04  0.15032623D-03
  0.41335894D-03 -0.53596734D-04 -0.18690209D-02 -0.46616349D-02  0.38588339D-02
 -0.27803297D-01  0.10963301D-02  0.27990305D-04 -0.69815174D-09 -0.91593537D-09
 -0.10045829D-08 -0.82654053D-09 -0.43570517D-09 -0.11336229D-09  0.13764784D-01
  0.18058614D-01  0.19806391D-01  0.16296102D-01  0.85903784D-02  0.22350549D-02
  0.57021018D+01  0.74808333D+01  0.82048551D+01  0.67507076D+01  0.35585892D+01
  0.92587797D+00 -0.36232848D-14 -0.13006010D-12 -0.20634360D-12 -0.24502670D-12
 -0.37078998D-13  0.26985400D-12  0.95328747D-07  0.34218855D-05  0.54289072D-05
  0.64466608D-05  0.97554969D-06 -0.70998678D-05  0.36618479D-04  0.13144434D-02
  0.20853974D-02  0.24763455D-02  0.37473634D-03 -0.27272609D-02 -0.54045529D-11
  0.10161664D-03  0.43896957D-01 -0.15417361D-13 -0.21056766D-05 -0.11445683D-03
  0.11244184D-14 -0.49482314D-07  0.50661704D-06 -0.15152150D-03 -0.13809299D-03
  0.28961448D-03 -0.26699188D-15 -0.37419926D-13  0.20626763D-05 -0.11472148D-03
  0.47277994D-03 -0.35805845D-03  0.16852078D-14  0.25446258D-13 -0.19297187D-05
  0.62426713D-05  0.21106772D-05 -0.83533485D-05 -0.91269730D-16  0.30633218D-14
  0.34569683D-06 -0.85120492D-14  0.30553050D-06 -0.43581749D-04  0.65540416D-14
  0.14873452D-06  0.20934222D-03  0.18982106D-13 -0.10653260D-05 -0.78596977D-04
  0.70493224D-15 -0.12849617D-15  0.73888670D-07 -0.13099491D-04 -0.21973235D-14
  0.52157881D-07  0.19858785D-04  0.25828120D-14 -0.27382389D-06  0.19439688D-04
  0.41364889D-15  0.38345886D-04  0.69158385D-04  0.10197400D-03 -0.36998108D-03
 -0.28693423D-05  0.65470322D-05  0.43558174D-14  0.17118057D-03  0.20299452D-03
 -0.52800820D-14  0.12354264D-03  0.16557117D-03  0.62028490D-14  0.72771783D-04
 -0.56677936D-04 -0.23244382D-03  0.11058612D-03  0.12185770D-03 -0.70692693D-14
  0.53249656D-14  0.44499025D-03 -0.63527789D-04  0.92698111D-05  0.54257978D-04
  0.50297869D-14 -0.56549512D-14 -0.59016964D-04  0.41405469D-04  0.74676469D-04
  0.11011041D-03 -0.34267285D-03  0.26638706D-04  0.75289902D-05  0.59787227D-14
 -0.18133504D-03  0.21138287D-03 -0.19373654D-14 -0.12942680D-03  0.19023144D-03
  0.52121540D-14 -0.76626017D-04 -0.55155024D-04 -0.23245412D-03  0.10585596D-03
  0.12659815D-03  0.13580198D-14  0.12161258D-13 -0.45214542D-03 -0.64108393D-04
  0.90692525D-05  0.55039141D-04 -0.50237216D-14 -0.64077350D-14  0.58530851D-04
MO    4     MO 0.0        OCC NO =    2.0000048  ORB. ENERGY =    0.000000
  0.28600611D+00  0.53317300D+00  0.90113501D+00  0.13545740D+01  0.16638515D+01
  0.14042320D+01  0.52802790D+00  0.30312982D-04  0.22657076D-03  0.84674667D-03
  0.23622914D-02  0.31648191D-02 -0.37370613D-02  0.23650920D-01 -0.52685293D-03
 -0.52586187D-05 -0.12717039D-11 -0.11923032D-11 -0.84899092D-12 -0.44876913D-04
 -0.42074959D-04 -0.29959877D-04  0.42530374D-02  0.39874929D-02  0.28393325D-02
 -0.21768266D-12  0.36948064D-04 -0.37498751D-03 -0.24850448D-13  0.72344874D-05
 -0.30238912D-03 -0.27108671D-15 -0.16374303D-06 -0.39884151D-05 -0.11956545D-02
  0.62952525D-03  0.56612925D-03 -0.27648292D-14 -0.29139425D-12 -0.19710678D-04
  0.18727309D-03  0.11066153D-03 -0.29793462D-03 -0.81433267D-15  0.26968994D-12
 -0.16823078D-04  0.88270571D-05  0.35301134D-04 -0.44128191D-04  0.38696972D-15
 -0.22537235D-13 -0.11037030D-05  0.36110696D-13  0.47870494D-05  0.41505261D-03
  0.17425467D-13 -0.70495101D-05  0.19220473D-03 -0.12575755D-12 -0.73116381D-05
 -0.14373626D-02  0.12535336D-14 -0.14009581D-13 -0.10413356D-05 -0.68620097D-04
 -0.62427264D-13 -0.11143372D-05 -0.22300261D-04  0.10445601D-12  0.42383441D-05
  0.22816055D-03 -0.28140948D-15  0.36637387D-01  0.68497285D-01  0.11838367D+00
  0.19148071D+00  0.28941668D+00  0.39858669D+00  0.46589930D+00  0.40266168D+00
  0.18792430D+00  0.25459619D-01 -0.18621532D-03  0.45947780D-03  0.59065409D-02
  0.21546212D-01  0.72696386D-01  0.15967388D+00  0.20625510D+00 -0.33146950D-01
 -0.27806351D+00 -0.15259767D+00  0.18356977D-05  0.20909738D-04  0.43416153D-04
  0.11938339D-03 -0.15479428D-04 -0.53979734D-03 -0.13463403D-02  0.11144810D-02
 -0.94609864D-02  0.13021364D-02  0.10747759D-03  0.41608416D-08  0.54587876D-08
  0.59871086D-08  0.49260126D-08  0.25967138D-08  0.67561608D-09  0.84851075D-02
  0.11131978D-01  0.12209371D-01  0.10045503D-01  0.52954179D-02  0.13777681D-02
  0.42262861D+01  0.55446470D+01  0.60812777D+01  0.50034921D+01  0.26375566D+01
  0.68624260D+00  0.22242568D-13  0.79841102D-12  0.12666991D-11  0.15041663D-11
  0.22762001D-12 -0.16565758D-11  0.83044737D-07  0.29809432D-05  0.47293412D-05
  0.56159476D-05  0.84984089D-06 -0.61849828D-05  0.31421402D-04  0.11278911D-02
  0.17894274D-02  0.21248902D-02  0.32155189D-03 -0.23401944D-02  0.32234642D-10
  0.66781254D-04  0.32958190D-01  0.72689087D-13  0.21687113D-05 -0.34904823D-03
 -0.64120645D-14  0.11394126D-06 -0.47502727D-05 -0.13567635D-03 -0.23174872D-03
  0.36742507D-03  0.21168145D-15  0.27121264D-12  0.11993272D-05  0.98580030D-04
  0.33702427D-03 -0.43560430D-03 -0.19908948D-15 -0.17166799D-12  0.31173712D-05
 -0.10576773D-04 -0.12212918D-04  0.22789691D-04 -0.13280637D-15 -0.14685057D-13
 -0.53399632D-06  0.56374295D-13  0.21718212D-06  0.53484948D-04 -0.30303107D-13
  0.14503402D-06 -0.27840260D-04 -0.13881978D-12 -0.79658038D-06 -0.13261459D-03
 -0.48487423D-15  0.29998952D-14 -0.68155589D-07 -0.37030960D-04  0.15055300D-13
 -0.22016030D-07  0.29192675D-04 -0.24054985D-13  0.22648280D-06  0.81900206D-04
  0.31527895D-15 -0.30801194D-03 -0.55551222D-03 -0.81910245D-03 -0.50095488D-03
 -0.45106282D-03 -0.71890602D-05 -0.59191566D-13 -0.82691025D-03 -0.36831341D-03
  0.77403181D-13 -0.39106054D-03 -0.26431096D-03 -0.22508351D-13 -0.33311613D-04
 -0.96651723D-04  0.27023518D-03 -0.43450855D-03  0.16427337D-03  0.61561663D-13
 -0.24286321D-13 -0.94485853D-03  0.49767608D-04 -0.24100935D-04 -0.25666673D-04
 -0.14941923D-13  0.48972349D-13 -0.76628648D-04 -0.31290932D-03 -0.56434484D-03
 -0.83212613D-03 -0.56807046D-03 -0.48606470D-03 -0.71195285D-05 -0.57254330D-13
  0.84160816D-03 -0.36618160D-03  0.78585536D-13  0.43816519D-03 -0.27988737D-03
 -0.23299988D-13  0.40342594D-04 -0.98435628D-04  0.27058606D-03 -0.44657688D-03
  0.17599083D-03 -0.59769558D-13 -0.24825699D-13  0.93735743D-03  0.51768849D-04
 -0.27338105D-04 -0.24430745D-04  0.14312353D-13  0.49028355D-13  0.81260203D-04
MO    5     MO 0.0        OCC NO =    2.0000043  ORB. ENERGY =    0.000000
 -0.12977019D-09 -0.24191778D-09 -0.40887400D-09 -0.61461388D-09 -0.75494307D-09
 -0.63714532D-09 -0.23958328D-09 -0.14183718D-13 -0.10601451D-12 -0.39620042D-12
 -0.11053375D-11 -0.14808475D-11  0.17486047D-11 -0.10748807D-10  0.44754499D-12
  0.11215439D-13 -0.29420240D-02 -0.27583345D-02 -0.19640985D-02  0.72031605D-13
  0.67534208D-13  0.48088379D-13 -0.17093108D-11 -0.16025875D-11 -0.11411378D-11
 -0.49438874D-03  0.75082308D-14  0.17728665D-12 -0.48652470D-04 -0.81720896D-13
  0.13188648D-12 -0.16356264D-06 -0.17651246D-14  0.89266361D-15  0.53424319D-12
 -0.28868094D-12 -0.24556224D-12  0.56485938D-06 -0.66400351D-03  0.61243548D-13
 -0.11862048D-12 -0.46688164D-13  0.16530864D-12 -0.28689081D-05  0.61641559D-03
  0.38426484D-14 -0.54785439D-14 -0.13744795D-13  0.19223339D-13  0.64402361D-06
 -0.53232134D-04  0.16701567D-13  0.83790418D-04 -0.11524165D-13 -0.16956480D-12
  0.43357763D-04 -0.48980729D-14 -0.99098079D-13 -0.29472902D-03  0.39470568D-13
  0.60779248D-12  0.15121933D-05 -0.33171381D-04  0.22008445D-14  0.38486760D-13
 -0.14243253D-03  0.59084726D-14  0.92835732D-14  0.24194668D-03 -0.12511006D-13
 -0.12474385D-12 -0.33650055D-06 -0.27058824D-09 -0.50589196D-09 -0.87433167D-09
 -0.14141954D-08 -0.21375091D-08 -0.29437926D-08 -0.34409350D-08 -0.29738887D-08
 -0.13879294D-08 -0.18803397D-09  0.13753076D-11  0.17309265D-13  0.22250886D-12
  0.81168034D-12  0.27385893D-11  0.60151710D-11  0.77699602D-11 -0.12486987D-11
 -0.10475098D-10 -0.57485987D-11  0.36731161D-15  0.41839075D-14  0.86873003D-14
  0.23887869D-13 -0.30973366D-14 -0.10801007D-12 -0.26939426D-12  0.22300067D-12
  0.20530145D-12 -0.56341142D-12 -0.41522381D-13  0.97155337D+01  0.12746228D+02
  0.13979853D+02  0.11502202D+02  0.60633070D+01  0.15775584D+01 -0.47138489D-09
 -0.61843017D-09 -0.67828405D-09 -0.55807169D-09 -0.29418366D-09 -0.76541055D-10
 -0.18422940D-08 -0.24169850D-08 -0.26509095D-08 -0.21810884D-08 -0.11497458D-08
 -0.29914223D-09  0.51729128D-04  0.18568497D-02  0.29459386D-02  0.34982117D-02
  0.52937164D-03 -0.38526676D-02 -0.45794467D-14 -0.16438213D-12 -0.26079637D-12
 -0.30968769D-12 -0.46863910D-13  0.34106675D-12 -0.15211863D-13 -0.54603943D-12
 -0.86630525D-12 -0.10287109D-11 -0.15567107D-12  0.11329449D-11  0.75274292D-01
 -0.32110439D-11 -0.14237327D-10  0.17097177D-03  0.16490852D-13  0.18366806D-12
 -0.15221514D-04  0.12236267D-14  0.19437799D-14  0.67871930D-13  0.10198917D-12
 -0.16986110D-12  0.19167821D-06  0.62635054D-03 -0.30303899D-13 -0.75007433D-13
 -0.75661985D-13  0.15066942D-12 -0.10847894D-05 -0.40165378D-03  0.50529142D-13
  0.53572616D-14  0.65723033D-14 -0.11929565D-13 -0.19178937D-06 -0.33688139D-04
  0.39502992D-14  0.13002649D-03  0.34226170D-15 -0.16448666D-13 -0.73707517D-04
 -0.63318693D-14  0.73386307D-14 -0.31637196D-03  0.53050842D-14  0.42007366D-13
 -0.12933237D-05  0.68154083D-05 -0.12301010D-14  0.16400951D-13  0.35234786D-04
  0.35097780D-15 -0.12600702D-13 -0.55681010D-04  0.33393251D-14 -0.36602150D-13
  0.37036326D-06  0.14286666D-12  0.25766591D-12  0.37992823D-12  0.11971945D-12
  0.18835533D-13 -0.18219663D-15 -0.12802641D-03  0.36164493D-12  0.14794881D-12
  0.16880504D-03  0.14631205D-12  0.11866696D-12 -0.56107646D-04 -0.75281318D-14
  0.33733321D-13 -0.11401864D-12  0.19177680D-12 -0.77758158D-13  0.14090577D-03
 -0.57487715D-04  0.41183953D-12 -0.26611036D-13  0.10886827D-13  0.15724209D-13
 -0.38490011D-04  0.11138030D-03  0.38970677D-13  0.13332875D-12  0.24046390D-12
  0.35456387D-12  0.15369870D-12  0.30921469D-12  0.40754435D-14 -0.13165550D-03
 -0.36913437D-12  0.16053341D-12  0.17436087D-03 -0.15316570D-12  0.11773271D-12
 -0.57563592D-04 -0.31842589D-13  0.45640836D-13 -0.11994887D-12  0.17510354D-12
 -0.55154666D-13 -0.14063211D-03 -0.62411882D-04 -0.41030970D-12 -0.25133341D-13
  0.90323150D-14  0.16101026D-13  0.36945456D-04  0.11166977D-03 -0.33220944D-13
MO    6     MO 0.0        OCC NO =    2.0000000  ORB. ENERGY =    0.000000
 -0.81965904D-04 -0.15280096D-03 -0.25825444D-03 -0.38820459D-03 -0.47683980D-03
 -0.40243597D-03 -0.15132643D-03  0.48204606D-07  0.36029956D-06  0.13465217D-05
  0.37565860D-05  0.50327895D-05 -0.59427860D-05  0.16177454D-05 -0.31184362D-04
 -0.72811315D-05 -0.13661768D-11 -0.12808776D-11 -0.91206112D-12  0.31229541D-07
  0.29279679D-07  0.20848876D-07  0.14526119D-04  0.13619160D-04  0.96976530D-05
 -0.22659449D-12 -0.27942198D-07 -0.38181011D-04 -0.14906848D-13 -0.12078734D-06
  0.41386335D-05  0.18424008D-15 -0.84513548D-08 -0.38855810D-06  0.14105280D-05
  0.89462930D-05 -0.10356821D-04  0.53036986D-15 -0.31267197D-12 -0.18060161D-06
  0.63524772D-05  0.41498787D-05 -0.10502356D-04 -0.46786986D-14  0.28734311D-12
 -0.10383025D-06  0.64009958D-06 -0.94931877D-06  0.30921919D-06  0.61513752D-15
 -0.24371030D-13 -0.16409012D-07  0.39771261D-13 -0.10730438D-06  0.21406022D-05
  0.20015973D-13  0.53231079D-07  0.36213995D-06 -0.13932976D-12  0.26868206D-06
 -0.67839464D-05  0.19660679D-14 -0.16042726D-13 -0.52611250D-07 -0.40263134D-06
 -0.65502440D-13  0.10760794D-07  0.63777053D-06  0.11363062D-12  0.14707296D-06
  0.57012350D-06  0.21438469D-14  0.58266944D+00  0.10893592D+01  0.18827365D+01
  0.30452487D+01  0.46027915D+01  0.63389968D+01  0.74095154D+01  0.64038042D+01
  0.29886888D+01  0.40490175D+00 -0.29615097D-02 -0.29343373D-04 -0.37720610D-03
 -0.13759936D-02 -0.46425685D-02 -0.10197164D-01 -0.13171954D-01  0.21168451D-02
  0.17757814D-01  0.97452592D-02  0.19775961D-06  0.22526050D-05  0.46772199D-05
  0.12861167D-04 -0.16675980D-05 -0.58152340D-04 -0.14504117D-03  0.12006298D-03
  0.13928472D-04 -0.17900835D-04  0.32372232D-05  0.45173225D-08  0.59264702D-08
  0.65000552D-08  0.53480496D-08  0.28191877D-08  0.73349960D-09  0.65231193D-05
  0.85579616D-05  0.93862317D-05  0.77227087D-05  0.40709729D-05  0.10591906D-05
  0.11174838D-01  0.14660753D-01  0.16079673D-01  0.13229870D-01  0.69740354D-02
  0.18145128D-02  0.24050223D-13  0.86329793D-12  0.13696438D-11  0.16264100D-11
  0.24611870D-12 -0.17912058D-11  0.17474800D-08  0.62726898D-07  0.99517796D-07
  0.11817433D-06  0.17882891D-07 -0.13014833D-06  0.70421273D-06  0.25278160D-04
  0.40104435D-04  0.47622786D-04  0.72065828D-05 -0.52448159D-04  0.35001054D-10
  0.16083364D-06  0.16264346D-03  0.76593702D-13 -0.33695708D-08  0.53290039D-05
 -0.72210142D-14  0.86413091D-10 -0.32325249D-07 -0.58152856D-05 -0.37419332D-05
  0.95572188D-05 -0.72641519D-15  0.29306647D-12  0.63608924D-07  0.92126421D-05
 -0.15978979D-04  0.67663370D-05 -0.44092543D-15 -0.18836089D-12  0.14888224D-06
  0.59565612D-06  0.49100858D-06 -0.10866647D-05 -0.24790073D-15 -0.14600836D-13
  0.43265420D-08  0.60292115D-13  0.18757408D-07 -0.69689871D-05 -0.35488298D-13
 -0.82847803D-08  0.12192376D-04 -0.14538805D-12 -0.47987442D-07  0.87145853D-05
 -0.11273079D-14  0.34172725D-14  0.97299626D-09 -0.59689821D-07  0.16632013D-13
  0.41766048D-08 -0.81867678D-08 -0.26883830D-13 -0.70955936D-08  0.18725623D-06
  0.44954501D-15 -0.12313011D-05 -0.22207022D-05 -0.32744241D-05  0.32815334D-05
  0.17486542D-04  0.22485453D-06 -0.53065028D-13 -0.58210931D-05 -0.14599814D-05
  0.70296211D-13  0.11577647D-05 -0.15379376D-05 -0.27429842D-13  0.73261131D-06
  0.25406052D-05 -0.24033288D-05 -0.15360517D-05  0.39393805D-05  0.63789879D-13
 -0.31730526D-13 -0.21069978D-05 -0.19979951D-07 -0.43696430D-06  0.45694425D-06
 -0.20284507D-13  0.50871446D-13 -0.18345535D-05 -0.12492907D-05 -0.22531473D-05
 -0.33222644D-05  0.31786193D-05  0.17848323D-04  0.26128598D-06 -0.58766428D-13
  0.57742224D-05 -0.13173005D-05  0.81457507D-13 -0.69640846D-06 -0.97887412D-06
 -0.28672409D-13 -0.75099652D-06  0.26040936D-05 -0.24997550D-05 -0.19660975D-05
  0.44658525D-05 -0.69820170D-13 -0.22196776D-13  0.16769379D-05 -0.25440652D-07