 h2cs-wavefunction
GAUSSIAN            142 MOL ORBITALS    240 PRIMITIVES        4 NUCLEI
  C    1    (CENTRE  1)   0.00000000  0.01889726 -1.04934791  CHARGE =  6.0
  S    2    (CENTRE  2)   0.00000000  0.00000000  2.00381646  CHARGE = 16.0
  H    3    (CENTRE  3)   0.00000000 -1.74285662 -2.13348569  CHARGE =  1.0
  H    4    (CENTRE  4)   0.00000000  1.74285662 -2.13348569  CHARGE =  1.0
CENTRE ASSIGNMENTS    1  1  1  1  1  1  1  1  1  1  1  1  1  1  1  1  1  1  1  1
CENTRE ASSIGNMENTS    1  1  1  1  1  1  1  1  1  1  1  1  1  1  1  1  1  1  1  1
CENTRE ASSIGNMENTS    1  1  1  1  1  1  1  1  1  1  1  1  1  1  1  1  1  1  1  1
CENTRE ASSIGNMENTS    1  1  1  1  1  1  1  1  1  1  1  1  2  2  2  2  2  2  2  2
CENTRE ASSIGNMENTS    2  2  2  2  2  2  2  2  2  2  2  2  2  2  2  2  2  2  2  2
CENTRE ASSIGNMENTS    2  2  2  2  2  2  2  2  2  2  2  2  2  2  2  2  2  2  2  2
CENTRE ASSIGNMENTS    2  2  2  2  2  2  2  2  2  2  2  2  2  2  2  2  2  2  2  2
CENTRE ASSIGNMENTS    2  2  2  2  2  2  2  2  2  2  2  2  2  2  2  2  2  2  2  2
CENTRE ASSIGNMENTS    2  2  2  2  2  2  2  2  2  2  2  2  2  2  2  2  2  2  2  2
CENTRE ASSIGNMENTS    2  2  2  2  2  2  3  3  3  3  3  3  3  3  3  3  3  3  3  3
CENTRE ASSIGNMENTS    3  3  3  3  3  3  3  3  3  3  3  3  3  4  4  4  4  4  4  4
CENTRE ASSIGNMENTS    4  4  4  4  4  4  4  4  4  4  4  4  4  4  4  4  4  4  4  4
TYPE ASSIGNMENTS      1  1  1  1  1  1  1  1  1  1  1  1  1  1  1  1  2  2  2  3
TYPE ASSIGNMENTS      3  3  4  4  4  2  3  4  2  3  4  2  3  4  5  6  7  8  9 10
TYPE ASSIGNMENTS      5  6  7  8  9 10  5  6  7  8  9 10 11 12 13 17 14 15 18 19
TYPE ASSIGNMENTS     16 20 11 12 13 17 14 15 18 19 16 20  1  1  1  1  1  1  1  1
TYPE ASSIGNMENTS      1  1  1  1  1  1  1  1  1  1  1  1  1  1  1  1  1  1  1  1
TYPE ASSIGNMENTS      1  1  1  2  2  2  2  2  2  3  3  3  3  3  3  4  4  4  4  4
TYPE ASSIGNMENTS      4  2  2  2  2  2  2  3  3  3  3  3  3  4  4  4  4  4  4  2
TYPE ASSIGNMENTS      3  4  2  3  4  2  3  4  5  6  7  8  9 10  5  6  7  8  9 10
TYPE ASSIGNMENTS      5  6  7  8  9 10 11 12 13 17 14 15 18 19 16 20 11 12 13 17
TYPE ASSIGNMENTS     14 15 18 19 16 20  1  1  1  1  1  1  2  3  4  2  3  4  2  3
TYPE ASSIGNMENTS      4  5  6  7  8  9 10  5  6  7  8  9 10  1  1  1  1  1  1  2
TYPE ASSIGNMENTS      3  4  2  3  4  2  3  4  5  6  7  8  9 10  5  6  7  8  9 10
EXPONENTS  0.8236000D+04 0.1235000D+04 0.2808000D+03 0.7927000D+02 0.2559000D+02
EXPONENTS  0.8997000D+01 0.3319000D+01 0.2808000D+03 0.7927000D+02 0.2559000D+02
EXPONENTS  0.8997000D+01 0.3319000D+01 0.3643000D+00 0.9059000D+00 0.1285000D+00
EXPONENTS  0.4402000D-01 0.1871000D+02 0.4133000D+01 0.1200000D+01 0.1871000D+02
EXPONENTS  0.4133000D+01 0.1200000D+01 0.1871000D+02 0.4133000D+01 0.1200000D+01
EXPONENTS  0.3827000D+00 0.3827000D+00 0.3827000D+00 0.1209000D+00 0.1209000D+00
EXPONENTS  0.1209000D+00 0.3569000D-01 0.3569000D-01 0.3569000D-01 0.1097000D+01
EXPONENTS  0.1097000D+01 0.1097000D+01 0.1097000D+01 0.1097000D+01 0.1097000D+01
EXPONENTS  0.3180000D+00 0.3180000D+00 0.3180000D+00 0.3180000D+00 0.3180000D+00
EXPONENTS  0.3180000D+00 0.1000000D+00 0.1000000D+00 0.1000000D+00 0.1000000D+00
EXPONENTS  0.1000000D+00 0.1000000D+00 0.7610000D+00 0.7610000D+00 0.7610000D+00
EXPONENTS  0.7610000D+00 0.7610000D+00 0.7610000D+00 0.7610000D+00 0.7610000D+00
EXPONENTS  0.7610000D+00 0.7610000D+00 0.2680000D+00 0.2680000D+00 0.2680000D+00
EXPONENTS  0.2680000D+00 0.2680000D+00 0.2680000D+00 0.2680000D+00 0.2680000D+00
EXPONENTS  0.2680000D+00 0.2680000D+00 0.3741000D+06 0.5605000D+05 0.1276000D+05
EXPONENTS  0.3615000D+04 0.1183000D+04 0.4288000D+03 0.1678000D+03 0.6947000D+02
EXPONENTS  0.2984000D+02 0.1272000D+02 0.5244000D+01 0.3615000D+04 0.1183000D+04
EXPONENTS  0.4288000D+03 0.1678000D+03 0.6947000D+02 0.2984000D+02 0.1272000D+02
EXPONENTS  0.5244000D+01 0.2219000D+01 0.1183000D+04 0.1678000D+03 0.6947000D+02
EXPONENTS  0.2984000D+02 0.1272000D+02 0.5244000D+01 0.2219000D+01 0.3490000D+00
EXPONENTS  0.7767000D+00 0.1322000D+00 0.4970000D-01 0.5744000D+03 0.1358000D+03
EXPONENTS  0.4319000D+02 0.1587000D+02 0.6208000D+01 0.2483000D+01 0.5744000D+03
EXPONENTS  0.1358000D+03 0.4319000D+02 0.1587000D+02 0.6208000D+01 0.2483000D+01
EXPONENTS  0.5744000D+03 0.1358000D+03 0.4319000D+02 0.1587000D+02 0.6208000D+01
EXPONENTS  0.2483000D+01 0.1358000D+03 0.4319000D+02 0.1587000D+02 0.6208000D+01
EXPONENTS  0.2483000D+01 0.3229000D+00 0.1358000D+03 0.4319000D+02 0.1587000D+02
EXPONENTS  0.6208000D+01 0.2483000D+01 0.3229000D+00 0.1358000D+03 0.4319000D+02
EXPONENTS  0.1587000D+02 0.6208000D+01 0.2483000D+01 0.3229000D+00 0.8688000D+00
EXPONENTS  0.8688000D+00 0.8688000D+00 0.1098000D+00 0.1098000D+00 0.1098000D+00
EXPONENTS  0.3510000D-01 0.3510000D-01 0.3510000D-01 0.2690000D+00 0.2690000D+00
EXPONENTS  0.2690000D+00 0.2690000D+00 0.2690000D+00 0.2690000D+00 0.8190000D+00
EXPONENTS  0.8190000D+00 0.8190000D+00 0.8190000D+00 0.8190000D+00 0.8190000D+00
EXPONENTS  0.1010000D+00 0.1010000D+00 0.1010000D+00 0.1010000D+00 0.1010000D+00
EXPONENTS  0.1010000D+00 0.5570000D+00 0.5570000D+00 0.5570000D+00 0.5570000D+00
EXPONENTS  0.5570000D+00 0.5570000D+00 0.5570000D+00 0.5570000D+00 0.5570000D+00
EXPONENTS  0.5570000D+00 0.2180000D+00 0.2180000D+00 0.2180000D+00 0.2180000D+00
EXPONENTS  0.2180000D+00 0.2180000D+00 0.2180000D+00 0.2180000D+00 0.2180000D+00
EXPONENTS  0.2180000D+00 0.3387000D+02 0.5095000D+01 0.1159000D+01 0.3258000D+00
EXPONENTS  0.1027000D+00 0.2526000D-01 0.1407000D+01 0.1407000D+01 0.1407000D+01
EXPONENTS  0.3880000D+00 0.3880000D+00 0.3880000D+00 0.1020000D+00 0.1020000D+00
EXPONENTS  0.1020000D+00 0.1057000D+01 0.1057000D+01 0.1057000D+01 0.1057000D+01
EXPONENTS  0.1057000D+01 0.1057000D+01 0.2470000D+00 0.2470000D+00 0.2470000D+00
EXPONENTS  0.2470000D+00 0.2470000D+00 0.2470000D+00 0.3387000D+02 0.5095000D+01
EXPONENTS  0.1159000D+01 0.3258000D+00 0.1027000D+00 0.2526000D-01 0.1407000D+01
EXPONENTS  0.1407000D+01 0.1407000D+01 0.3880000D+00 0.3880000D+00 0.3880000D+00
EXPONENTS  0.1020000D+00 0.1020000D+00 0.1020000D+00 0.1057000D+01 0.1057000D+01
EXPONENTS  0.1057000D+01 0.1057000D+01 0.1057000D+01 0.1057000D+01 0.2470000D+00
EXPONENTS  0.2470000D+00 0.2470000D+00 0.2470000D+00 0.2470000D+00 0.2470000D+00
MO    1     MO 0.0        OCC NO =    2.0000337  ORB. ENERGY =    0.000000
 -0.13434200D-03 -0.25044055D-03 -0.42327865D-03 -0.63626676D-03 -0.78153975D-03
 -0.65959198D-03 -0.24802381D-03 -0.49599833D-08 -0.37072803D-07 -0.13854953D-06
 -0.38653161D-06 -0.51784579D-06  0.61147932D-06 -0.18454041D-04  0.92124881D-04
  0.56531500D-05  0.17085743D-12  0.16018970D-12  0.11406461D-12 -0.14392158D-02
 -0.13493563D-02 -0.96082209D-03  0.49268980D-05  0.46192801D-05  0.32892026D-05
  0.21743434D-13 -0.59796405D-03  0.82625710D-05 -0.96166122D-15  0.16106007D-02
 -0.19669056D-04 -0.15600366D-16  0.29645379D-04 -0.94991763D-07  0.21777930D-05
  0.65490875D-05 -0.87268804D-05 -0.57656169D-15  0.34562777D-13 -0.10628846D-02
 -0.56329505D-05 -0.12211529D-05  0.68541034D-05  0.33087484D-14 -0.32189251D-13
  0.52131155D-04  0.24105054D-06 -0.15806372D-05  0.13395867D-05 -0.31178372D-17
  0.33676978D-14 -0.21484561D-03 -0.41918752D-14  0.16676589D-03 -0.53483667D-08
 -0.36225949D-14  0.19454008D-03 -0.59528278D-05  0.16198221D-13 -0.69483776D-03
  0.59688729D-05  0.20619182D-14  0.22921747D-14 -0.81286164D-04  0.25779596D-05
  0.67568265D-14 -0.12288004D-03  0.14075974D-05 -0.13633351D-13  0.36673853D-03
 -0.91414762D-05 -0.17935520D-14  0.15941149D-03  0.29803585D-03  0.51509453D-03
  0.83314417D-03  0.12592695D-02  0.17342749D-02  0.20271561D-02  0.17520054D-02
  0.81767004D-03  0.11077635D-03 -0.81023417D-06  0.20300586D-05  0.26096199D-04
  0.95195183D-04  0.32118619D-03  0.70546899D-03  0.91127350D-03 -0.14644941D-03
 -0.12285364D-02 -0.67420495D-03  0.22755366D-08  0.25919776D-07  0.53818800D-07
  0.14798803D-06 -0.19188348D-07 -0.66913448D-06 -0.16689277D-05  0.13815141D-05
 -0.32852099D-04  0.77828460D-06 -0.79468635D-06 -0.57469067D-09 -0.75396148D-09
 -0.82693257D-09 -0.68037521D-09 -0.35865512D-09 -0.93315317D-10  0.97720322D+01
  0.12820351D+02  0.14061150D+02  0.11569091D+02  0.60985668D+01  0.15867324D+01
  0.87330668D-01  0.11457287D+00  0.12566164D+00  0.10339061D+00  0.54501653D-01
  0.14180305D-01 -0.30080859D-14 -0.10797714D-12 -0.17130844D-12 -0.20342352D-12
 -0.30783341D-13  0.22403538D-12  0.96389670D-04  0.34599680D-02  0.54893260D-02
  0.65184062D-02  0.98640667D-03 -0.71788829D-02  0.69850258D-06  0.25073191D-04
  0.39779246D-04  0.47236634D-04  0.71481478D-05 -0.52022880D-04 -0.44557629D-11
  0.66515666D-01  0.59513868D-03 -0.10177965D-13 -0.57557244D-03 -0.60364600D-05
  0.88545486D-15 -0.27474319D-04 -0.12239880D-06  0.20946892D-06 -0.31120849D-05
  0.29026160D-05  0.75594372D-15 -0.35764766D-13  0.77035486D-03  0.20808714D-05
  0.90899896D-05 -0.11170861D-04 -0.15675449D-14  0.24768947D-13 -0.10810618D-02
 -0.16621466D-06  0.32507079D-06 -0.15885612D-06  0.22090416D-16  0.18512808D-14
 -0.29939513D-04 -0.73084831D-14  0.15012341D-05  0.26321677D-06  0.51374064D-14
  0.13087740D-03  0.25479032D-06  0.16788043D-13 -0.13538110D-03 -0.10444406D-05
 -0.72626709D-16 -0.42206511D-15  0.33708470D-04 -0.39255968D-06 -0.20727523D-14
 -0.22297767D-05 -0.32689034D-07  0.33389476D-14 -0.98895634D-04  0.12103681D-05
 -0.64030756D-15 -0.10748811D-03 -0.19385923D-03 -0.28584532D-03  0.11079194D-03
  0.23316204D-02  0.24897450D-04 -0.10640364D-15 -0.17535836D-04  0.26627850D-03
 -0.71833980D-16 -0.12194100D-04 -0.31888949D-03  0.47777838D-14  0.31211665D-03
  0.13190810D-03 -0.50775390D-04 -0.14198192D-03  0.19275731D-03 -0.57914194D-14
  0.33804630D-14 -0.73268037D-05  0.24054005D-04 -0.21812746D-04 -0.22412590D-05
  0.47335585D-14 -0.47373735D-14 -0.11912367D-03  0.10655452D-03  0.19217546D-03
  0.28336260D-03 -0.16436931D-03 -0.24042710D-02 -0.26196395D-04  0.56591452D-14
 -0.19596609D-04 -0.26629252D-03 -0.72487189D-14 -0.16343377D-04  0.33119404D-03
  0.43466909D-14  0.31596746D-03 -0.13361174D-03  0.47422688D-04  0.14743746D-03
 -0.19486015D-03  0.67430560D-14  0.49667554D-14 -0.97866107D-05 -0.26519793D-04
  0.23118784D-04  0.34010086D-05 -0.29346184D-14 -0.53454652D-14 -0.11337364D-03
MO    2     MO 0.0        OCC NO =    2.0000243  ORB. ENERGY =    0.000000
 -0.53355435D-01 -0.99465280D-01 -0.16810987D+00 -0.25270050D+00 -0.31039730D+00
 -0.26196437D+00 -0.98505444D-01 -0.88988330D-05 -0.66513263D-04 -0.24857525D-03
 -0.69348624D-03 -0.92908037D-03  0.10970707D-02 -0.42235849D-02 -0.55065231D-03
 -0.39619961D-04 -0.37214850D-13 -0.34891288D-13 -0.24844675D-13 -0.57467557D-06
 -0.53879488D-06 -0.38365405D-06  0.24022571D-02  0.22522687D-02  0.16037495D-02
 -0.18825859D-14 -0.11575139D-04  0.49656284D-04  0.28006985D-14  0.39989632D-05
 -0.60502134D-03  0.20479033D-15  0.39326924D-06 -0.47561471D-06  0.18990845D-03
 -0.14547513D-03 -0.44433314D-04 -0.37818797D-14 -0.53924434D-14  0.17608522D-04
  0.38000883D-04  0.14700078D-03 -0.18500167D-03  0.47815498D-14  0.14593609D-14
  0.15087045D-04  0.11052177D-04  0.85510003D-04 -0.96562180D-04  0.33030469D-15
  0.11249900D-14  0.30396452D-05 -0.95099511D-16  0.20520814D-05  0.10012042D-04
  0.33742104D-14  0.39216561D-05 -0.17122003D-03 -0.30889119D-14 -0.10077900D-04
  0.14118391D-03 -0.26297294D-14 -0.57004391D-15  0.17314950D-05  0.58650249D-04
  0.29807074D-16  0.46377561D-06  0.10681960D-04  0.16803246D-14 -0.56582607D-05
 -0.18663271D-03 -0.20598050D-14 -0.12115093D+00 -0.22650387D+00 -0.39146601D+00
 -0.63318014D+00 -0.95703060D+00 -0.13180293D+01 -0.15406157D+01 -0.13315043D+01
 -0.62141998D+00 -0.84188772D-01  0.61576881D-03 -0.15087299D-02 -0.19394570D-01
 -0.70748605D-01 -0.23870404D+00 -0.52430118D+00 -0.67725412D+00  0.10884050D+00
  0.91304242D+00  0.50106590D+00 -0.12531859D-04 -0.14274567D-03 -0.29639146D-03
 -0.81500124D-03  0.10567427D-03  0.36850645D-02  0.91911360D-02 -0.76082893D-02
  0.27974912D-01  0.11463241D-02  0.43656339D-05  0.62577383D-10  0.82097967D-10
  0.90043702D-10  0.74085246D-10  0.39053529D-10  0.10160994D-10 -0.53550148D-01
 -0.70254749D-01 -0.77054255D-01 -0.63397920D-01 -0.33419779D-01 -0.86951978D-02
  0.66573678D+01  0.87340880D+01  0.95794043D+01  0.78816453D+01  0.41547552D+01
  0.10809892D+01  0.36201635D-15  0.12994805D-13  0.20616584D-13  0.24481561D-13
  0.37047055D-14 -0.26962153D-13 -0.46233079D-06 -0.16595656D-04 -0.26329424D-04
 -0.31265383D-04 -0.47312765D-05  0.34433344D-04  0.55918788D-04  0.20072402D-02
  0.31845368D-02  0.37815398D-02  0.57224665D-03 -0.41647039D-02  0.47580114D-12
 -0.39071372D-03  0.48623127D-01 -0.30277693D-14  0.24221003D-05 -0.64503378D-03
 -0.30149229D-15 -0.13044636D-06 -0.13916365D-05 -0.25512497D-03 -0.10217749D-03
  0.35730247D-03  0.86817126D-15  0.47560548D-14 -0.63469706D-05  0.35817749D-03
 -0.38145410D-03  0.23276610D-04 -0.70454188D-15 -0.18179642D-14 -0.92706524D-05
 -0.53412598D-05 -0.23230570D-04  0.28571830D-04 -0.12696116D-16  0.97845417D-15
 -0.17545327D-06  0.81554176D-15 -0.42710738D-06 -0.69413309D-04 -0.10263505D-14
 -0.16136745D-05  0.20744033D-03 -0.14202748D-14  0.28949966D-05  0.79959458D-06
  0.51178816D-15  0.18858638D-15 -0.11924088D-06 -0.19638287D-04  0.26900377D-15
 -0.13681970D-06  0.25716425D-04 -0.83476290D-15  0.49454235D-06  0.33198437D-04
 -0.32704215D-16 -0.22535258D-04 -0.40643266D-04 -0.59928472D-04 -0.40896724D-03
 -0.45557028D-03  0.35021429D-05 -0.73602606D-15  0.21384042D-04  0.85885003D-04
  0.15589232D-14  0.12291942D-04  0.31829787D-04  0.65973380D-15  0.31262409D-04
 -0.12152223D-03 -0.98796494D-04  0.16276548D-04  0.82519947D-04 -0.27074161D-15
  0.11254168D-14  0.13213366D-03 -0.30655492D-04  0.20353175D-04  0.10302317D-04
  0.98251348D-15 -0.91074305D-16 -0.63938709D-04 -0.22799375D-04 -0.41119612D-04
 -0.60630844D-04 -0.37908128D-03 -0.43545880D-03  0.25294357D-05  0.34585965D-14
 -0.20108816D-04  0.95371782D-04 -0.88710835D-14 -0.56156116D-04  0.17495017D-04
 -0.91064231D-15 -0.40563386D-04 -0.12781561D-03 -0.10151705D-03  0.24046219D-04
  0.77470829D-04  0.68796436D-14 -0.40117583D-14 -0.12832229D-03 -0.31942795D-04
  0.23262166D-04  0.86806283D-05  0.23043882D-14 -0.13165973D-14  0.65196762D-04
MO    3     MO 0.0        OCC NO =    2.0000101  ORB. ENERGY =    0.000000
 -0.15148462D+00 -0.28239786D+00 -0.47729085D+00 -0.71745717D+00 -0.88126763D+00
 -0.74375879D+00 -0.27967273D+00 -0.23229032D-04 -0.17362262D-03 -0.64886739D-03
 -0.18102390D-02 -0.24252212D-02  0.28637340D-02 -0.12253798D-01 -0.11684461D-03
 -0.10734716D-03 -0.33598646D-12 -0.31500866D-12 -0.22430493D-12  0.29779370D-04
  0.27920052D-04  0.19880741D-04  0.37150246D-02  0.34830717D-02  0.24801545D-02
 -0.65242558D-13 -0.29751791D-04  0.55454454D-03 -0.16444900D-13 -0.81638221D-05
 -0.15641393D-03 -0.45531444D-15  0.24145655D-06 -0.38078113D-05  0.45322315D-03
 -0.44546260D-03 -0.77605560D-05  0.70856803D-14 -0.71490592D-13  0.43654531D-04
 -0.11580778D-03 -0.26946201D-05  0.11850240D-03  0.51563757D-15  0.70888579D-13
  0.16095956D-04  0.12954655D-04  0.59375611D-04 -0.72330265D-04  0.13383010D-14
 -0.80712259D-14  0.35583631D-06  0.96478775D-14  0.56415114D-05  0.71677697D-04
  0.57774470D-14  0.76591311D-05 -0.44956801D-03 -0.34721079D-13 -0.24583665D-04
  0.23453492D-03 -0.21984246D-14 -0.28948133D-14  0.36830100D-05  0.11881115D-03
 -0.19019234D-13  0.18131774D-05 -0.22367757D-04  0.27703674D-13 -0.12862207D-04
 -0.33406568D-03 -0.10679021D-15  0.11205705D+00  0.20950193D+00  0.36208161D+00
  0.58565208D+00  0.88519352D+00  0.12190947D+01  0.14249733D+01  0.12315583D+01
  0.57477467D+00  0.77869355D-01 -0.56954768D-03  0.14081746D-02  0.18101943D-01
  0.66033287D-01  0.22279467D+00  0.48935707D+00  0.63211586D+00 -0.10158640D+00
 -0.85218912D+00 -0.46767040D+00  0.63405818D-05  0.72223169D-04  0.14996133D-03
  0.41235558D-03 -0.53466637D-04 -0.18644841D-02 -0.46503196D-02  0.38494672D-02
 -0.27759659D-01  0.11068619D-02  0.29147743D-04  0.11168670D-08  0.14652660D-08
  0.16070797D-08  0.13222568D-08  0.69701860D-09  0.18135113D-09 -0.58864052D-01
 -0.77226289D-01 -0.84700526D-01 -0.69689041D-01 -0.36736100D-01 -0.95580422D-02
  0.56952063D+01  0.74717868D+01  0.81949330D+01  0.67425440D+01  0.35542858D+01
  0.92475832D+00  0.59897518D-14  0.21500592D-12  0.34111228D-12  0.40506037D-12
  0.61296311D-13 -0.44610307D-12 -0.44952617D-06 -0.16136025D-04 -0.25600209D-04
 -0.30399463D-04 -0.46002400D-05  0.33479685D-04  0.36605915D-04  0.13139924D-02
  0.20846819D-02  0.24754958D-02  0.37460777D-03 -0.27263251D-02  0.86532046D-11
 -0.44875046D-03  0.43847096D-01  0.26260095D-13  0.45871429D-05 -0.11647894D-03
 -0.14212776D-14 -0.43315743D-07  0.49287604D-06 -0.15130159D-03 -0.13806473D-03
  0.28936632D-03 -0.10997809D-14  0.69765080D-13 -0.12461103D-04 -0.11395972D-03
  0.47189740D-03 -0.35793768D-03  0.14791042D-14 -0.43057526D-13  0.92000980D-05
  0.62338145D-05  0.20917791D-05 -0.83255936D-05 -0.31520935D-15 -0.60663829D-14
 -0.61289113D-06  0.15221047D-13 -0.83025221D-06 -0.43802183D-04 -0.74717496D-14
 -0.22373632D-05  0.20871717D-03 -0.38191392D-13  0.47281199D-05 -0.77310624D-04
 -0.35066540D-14  0.35385698D-15 -0.21240935D-06 -0.12962644D-04  0.36860752D-14
 -0.45337352D-06  0.19695084D-04 -0.47476461D-14  0.10906016D-05  0.19192848D-04
  0.74656062D-15  0.36287184D-04  0.65445430D-04  0.96499248D-04 -0.39580720D-03
 -0.15408760D-04  0.71753498D-05 -0.22294087D-13  0.16720256D-03  0.19344526D-03
  0.29464324D-13  0.87659322D-04  0.17887314D-03 -0.34981089D-14  0.68372978D-04
 -0.57171833D-04 -0.23057611D-03  0.10171110D-03  0.12886501D-03  0.22189907D-13
 -0.59816899D-14  0.45099588D-03 -0.62318504D-04  0.71421462D-05  0.55176358D-04
 -0.25777661D-14  0.16403563D-13 -0.57693990D-04  0.42232119D-04  0.76167366D-04
  0.11230874D-03 -0.32197722D-03  0.27156778D-04  0.68372147D-05 -0.21792679D-13
 -0.17876855D-03  0.21516018D-03  0.26996922D-13 -0.16767404D-03  0.16081943D-03
 -0.73629385D-14 -0.80333160D-04 -0.58055467D-04 -0.23731871D-03  0.11922930D-03
  0.11808940D-03 -0.16014176D-13 -0.48341443D-14 -0.44464856D-03 -0.65592253D-04
  0.11845043D-04  0.53747209D-04  0.40266901D-14  0.15150904D-13  0.58750877D-04
MO    4     MO 0.0        OCC NO =    2.0000048  ORB. ENERGY =    0.000000
  0.28559039D+00  0.53239802D+00  0.89982519D+00  0.13526051D+01  0.16614331D+01
  0.14021909D+01  0.52726040D+00  0.30292949D-04  0.22642103D-03  0.84618707D-03
  0.23607302D-02  0.31627276D-02 -0.37345916D-02  0.23604714D-01 -0.51159680D-03
 -0.45140158D-05 -0.52636965D-11 -0.49350501D-11 -0.35140496D-11 -0.12606427D-03
 -0.11819326D-03 -0.84160645D-04  0.42415196D-02  0.39766942D-02  0.28316432D-02
 -0.88379594D-12  0.79995224D-04 -0.37425330D-03 -0.89845467D-13 -0.46665288D-05
 -0.30665865D-03 -0.36269243D-15 -0.32538721D-06 -0.39137209D-05 -0.11861905D-02
  0.61281166D-03  0.57337887D-03  0.77721418D-14 -0.11875780D-11 -0.88922627D-04
  0.18532586D-03  0.11327110D-03 -0.29859695D-03 -0.18991679D-13  0.11027197D-11
 -0.22449268D-04  0.88365356D-05  0.37101723D-04 -0.45938259D-04  0.22197729D-14
 -0.96533975D-13 -0.11246288D-05  0.15088861D-12  0.26537346D-05  0.41331977D-03
  0.78674237D-13 -0.18574538D-04  0.19095113D-03 -0.53134007D-12  0.10613334D-04
 -0.14309105D-02  0.24529019D-13 -0.59554377D-13  0.45070042D-05 -0.67384044D-04
 -0.25445244D-12  0.34554825D-06 -0.22537411D-04  0.43311557D-12 -0.13866561D-04
  0.22468954D-03 -0.49990131D-14  0.36870822D-01  0.68933716D-01  0.11913795D+00
  0.19270073D+00  0.29126070D+00  0.40112628D+00  0.46886778D+00  0.40522724D+00
  0.18912166D+00  0.25621835D-01 -0.18740179D-03  0.46244908D-03  0.59447364D-02
  0.21685544D-01  0.73166487D-01  0.16070644D+00  0.20758888D+00 -0.33361300D-01
 -0.27986165D+00 -0.15358446D+00  0.18377114D-05  0.20932675D-04  0.43463779D-04
  0.11951435D-03 -0.15496408D-04 -0.54038948D-03 -0.13478172D-02  0.11157035D-02
 -0.95209286D-02  0.13110726D-02  0.10635331D-03  0.17405709D-07  0.22835300D-07
  0.25045382D-07  0.20606586D-07  0.10862620D-07  0.28262495D-08 -0.36540292D-01
 -0.47938785D-01 -0.52578472D-01 -0.43259983D-01 -0.22804203D-01 -0.59332248D-02
  0.42438293D+01  0.55676627D+01  0.61065211D+01  0.50242616D+01  0.26485050D+01
  0.68909119D+00  0.92642956D-13  0.33254774D-11  0.52759532D-11  0.62650326D-11
  0.94806456D-12 -0.68998362D-11 -0.53213069D-06 -0.19101167D-04 -0.30304480D-04
 -0.35985641D-04 -0.54455759D-05  0.39631881D-04  0.31457813D-04  0.11291981D-02
  0.17915010D-02  0.21273525D-02  0.32192451D-03 -0.23429062D-02  0.13484728D-09
 -0.29419565D-03  0.33099087D-01  0.30963503D-12  0.95405386D-05 -0.34805806D-03
 -0.27219940D-13  0.20706483D-06 -0.46991150D-05 -0.13542480D-03 -0.23126909D-03
  0.36669388D-03 -0.74411905D-14  0.11192138D-11 -0.22963692D-04  0.98505247D-04
  0.33894686D-03 -0.43745211D-03  0.86268155D-14 -0.71856936D-12  0.13205929D-04
 -0.10380632D-04 -0.12207374D-04  0.22588006D-04 -0.95765545D-16 -0.61236835D-13
 -0.19937118D-05  0.23297165D-12  0.82111173D-06  0.53799685D-04 -0.13244329D-12
 -0.52204188D-06 -0.27678799D-04 -0.56647165D-12 -0.19412933D-05 -0.13372026D-03
  0.22839017D-14  0.11962374D-13 -0.12287177D-05 -0.36896316D-04  0.62890840D-13
 -0.16995301D-06  0.28945874D-04 -0.98777962D-13  0.38561060D-05  0.81743075D-04
  0.29933975D-14 -0.29569832D-03 -0.53330410D-03 -0.78635659D-03 -0.47147228D-03
 -0.46273805D-03 -0.70729910D-05 -0.23110791D-12 -0.80431921D-03 -0.35431630D-03
  0.29801858D-12 -0.37174275D-03 -0.22217296D-03 -0.98216015D-13 -0.32960116D-04
 -0.97225685D-04  0.27212543D-03 -0.44356092D-03  0.17143549D-03  0.24416750D-12
 -0.10792056D-12 -0.92760032D-03  0.46645617D-04 -0.22830223D-04 -0.23815394D-04
 -0.65815719D-13  0.19589321D-12 -0.70819208D-04 -0.32065035D-03 -0.57830612D-03
 -0.85271203D-03 -0.60601676D-03 -0.48649325D-03 -0.71445254D-05 -0.23076527D-12
  0.84659089D-03 -0.38894573D-03  0.31063827D-12  0.44586504D-03 -0.31942481D-03
 -0.10553397D-12  0.37331968D-04 -0.10380385D-03  0.27006477D-03 -0.42474938D-03
  0.15468462D-03 -0.26328648D-12 -0.94035992D-13  0.96906902D-03  0.52372021D-04
 -0.26361885D-04 -0.26010136D-04  0.69827771D-13  0.20402751D-12  0.87018564D-04
MO    5     MO 0.0        OCC NO =    2.0000043  ORB. ENERGY =    0.000000
 -0.49388311D-09 -0.92069762D-09 -0.15561044D-08 -0.23391152D-08 -0.28731840D-08
 -0.24248659D-08 -0.91181292D-09 -0.51752170D-13 -0.38681541D-12 -0.14456175D-11
 -0.40330477D-11 -0.54031721D-11  0.63801387D-11 -0.40832237D-10  0.66959224D-12
 -0.19396065D-13 -0.29441158D-02 -0.27602957D-02 -0.19654949D-02  0.14338731D-12
  0.13443472D-12  0.95725529D-13 -0.80489507D-11 -0.75464029D-11 -0.53734884D-11
 -0.49248312D-03 -0.18890306D-12  0.63315239D-12 -0.49210379D-04  0.10287324D-12
  0.60575750D-12 -0.19455190D-06  0.19336989D-14  0.73270680D-14  0.20566845D-11
 -0.10343732D-11 -0.10223113D-11  0.31394406D-05 -0.66417057D-03  0.94566283D-13
 -0.28931947D-12 -0.23647537D-12  0.52579484D-12 -0.11943185D-04  0.61519447D-03
  0.49194229D-13 -0.14666851D-13 -0.82484143D-13  0.97150994D-13  0.76981825D-06
 -0.53851021D-04 -0.60172536D-14  0.83935132D-04  0.52590849D-14 -0.75340439D-12
  0.44175641D-04  0.44620098D-13 -0.29083068D-12 -0.29598104D-03 -0.60397353D-13
  0.25510438D-11  0.15753357D-04 -0.33420140D-04 -0.14089287D-13  0.10051667D-12
 -0.14152122D-03 -0.81373447D-14  0.39376217D-13  0.24178164D-03  0.50405206D-13
 -0.34092622D-12 -0.27576581D-05 -0.15171812D-09 -0.28365230D-09 -0.49023549D-09
 -0.79293570D-09 -0.11984958D-08 -0.16505768D-08 -0.19293233D-08 -0.16674517D-08
 -0.77820838D-09 -0.10543016D-09  0.77113137D-12 -0.97688942D-12 -0.12557815D-10
 -0.45809105D-10 -0.15455878D-09 -0.33948044D-09 -0.43851613D-09  0.70473274D-10
  0.59118700D-09  0.32443580D-09 -0.39160123D-14 -0.44605815D-13 -0.92617751D-13
 -0.25467529D-12  0.33021576D-13  0.11515257D-11  0.28720880D-11 -0.23774728D-11
  0.20057046D-10 -0.25003639D-11 -0.17691175D-12  0.97155646D+01  0.12746268D+02
  0.13979898D+02  0.11502239D+02  0.60633262D+01  0.15775634D+01  0.65059415D-09
  0.85354252D-09  0.93615142D-09  0.77023719D-09  0.40602525D-09  0.10564013D-09
 -0.82967272D-08 -0.10884834D-07 -0.11938307D-07 -0.98224798D-08 -0.51778528D-08
 -0.13471799D-08  0.51730225D-04  0.18568891D-02  0.29460010D-02  0.34982859D-02
  0.52938286D-03 -0.38527492D-02  0.66480985D-14  0.23863769D-12  0.37860468D-12
  0.44958144D-12  0.68033522D-13 -0.49513523D-12 -0.60729350D-13 -0.21799183D-11
 -0.34584951D-11 -0.41068568D-11 -0.62147568D-12  0.45229836D-11  0.75267245D-01
  0.45206987D-11 -0.64643218D-10  0.17216434D-03 -0.58798171D-13  0.63226595D-12
 -0.15198936D-04 -0.19542636D-14  0.73332513D-14  0.26087883D-12  0.42653518D-12
 -0.68741401D-12 -0.42175620D-05  0.62531458D-03  0.92750280D-13 -0.16810578D-12
 -0.65735544D-12  0.82546122D-12  0.48353121D-05 -0.40085757D-03 -0.94322987D-13
  0.16729594D-13  0.21721797D-13 -0.38451392D-13  0.66055530D-07 -0.34049888D-04
  0.35921741D-14  0.13001208D-03 -0.16724278D-14 -0.90740086D-13 -0.73672437D-04
  0.92207997D-14  0.20906181D-13 -0.31636381D-03 -0.42035163D-14  0.25131408D-12
  0.24267583D-05  0.67241301D-05  0.44953537D-14  0.67236090D-13  0.35142189D-04
  0.35447090D-15 -0.53790440D-13 -0.55314579D-04 -0.13840532D-13 -0.14791783D-12
  0.14179894D-05  0.52019534D-12  0.93819372D-12  0.13833661D-11  0.10089235D-11
  0.10577581D-11  0.15338086D-13 -0.12747589D-03  0.14324270D-11  0.63282968D-12
  0.16344324D-03  0.67316331D-12  0.37871831D-12 -0.55809704D-04  0.70849838D-13
  0.20532232D-12 -0.46446746D-12  0.77202238D-12 -0.30755493D-12  0.13477336D-03
 -0.60922284D-04  0.16115011D-11 -0.70775859D-13  0.34945863D-13  0.35829996D-13
 -0.37443114D-04  0.10842423D-03  0.12604257D-12  0.57695584D-12  0.10405636D-11
  0.15343104D-11  0.12448610D-11  0.85059089D-12  0.14019506D-13 -0.12790281D-03
 -0.15071074D-11  0.66087398D-12  0.17281937D-03 -0.80526493D-12  0.60646724D-12
 -0.58423814D-04 -0.43082393D-13  0.20010617D-12 -0.45652223D-12  0.75769967D-12
 -0.30117745D-12 -0.14644699D-03 -0.53535273D-04 -0.16966727D-11 -0.83668586D-13
  0.42999978D-13  0.40668608D-13  0.38943844D-04  0.11398915D-03 -0.17112295D-12
MO    6     MO 0.0        OCC NO =    2.0000000  ORB. ENERGY =    0.000000
 -0.80937267D-04 -0.15088337D-03 -0.25501345D-03 -0.38333278D-03 -0.47085567D-03
 -0.39738557D-03 -0.14942735D-03  0.49190838D-07  0.36767104D-06  0.13740706D-05
  0.38334430D-05  0.51357568D-05 -0.60643712D-05  0.16828146D-05 -0.30847951D-04
 -0.72474311D-05 -0.37634826D-12 -0.35285042D-12 -0.25125052D-12 -0.50278255D-07
 -0.47139060D-07 -0.33565819D-07  0.14556352D-04  0.13647506D-04  0.97178370D-05
 -0.67764139D-13  0.78818538D-06 -0.38200649D-04 -0.14382476D-13 -0.63947687D-06
  0.41154961D-05 -0.24516342D-15 -0.35419311D-08 -0.38987573D-06  0.14515068D-05
  0.89217791D-05 -0.10373286D-04  0.31825274D-14 -0.76614325D-13 -0.61584690D-07
  0.63152396D-05  0.43187701D-05 -0.10634010D-04 -0.40133748D-14  0.73569298D-13
  0.33294377D-06  0.63645097D-06 -0.91669670D-06  0.28024573D-06 -0.24930314D-15
 -0.82509178D-14 -0.65441673D-07  0.99441530D-14  0.21584914D-06  0.21246487D-05
  0.37135800D-14 -0.20011124D-06  0.38454054D-06 -0.33546039D-13 -0.44743618D-06
 -0.67584866D-05  0.89955478D-14 -0.34518443D-14  0.17838510D-06 -0.38194886D-06
 -0.17904458D-13  0.38320583D-07  0.61428567D-06  0.28259991D-13 -0.57347588D-06
  0.53156090D-06 -0.13298835D-14  0.58266941D+00  0.10893592D+01  0.18827364D+01
  0.30452485D+01  0.46027913D+01  0.63389965D+01  0.74095150D+01  0.64038039D+01
  0.29886886D+01  0.40490173D+00 -0.29615096D-02 -0.29343293D-04 -0.37720507D-03
 -0.13759899D-02 -0.46425558D-02 -0.10197136D-01 -0.13171918D-01  0.21168393D-02
  0.17757765D-01  0.97452326D-02  0.19752506D-06  0.22499332D-05  0.46716724D-05
  0.12845913D-04 -0.16656201D-05 -0.58083367D-04 -0.14486914D-03  0.11992058D-03
  0.13969519D-04 -0.17647940D-04  0.32801617D-05  0.12267800D-08  0.16094656D-08
  0.17652355D-08  0.14523826D-08  0.76561351D-09  0.19919824D-09 -0.82073667D-04
 -0.10767598D-03 -0.11809725D-03 -0.97166860D-04 -0.51220844D-04 -0.13326700D-04
  0.11195322D-01  0.14687625D-01  0.16109146D-01  0.13254120D-01  0.69868186D-02
  0.18178388D-02  0.65308004D-14  0.23442720D-12  0.37192463D-12  0.44164909D-12
  0.66833149D-13 -0.48639913D-12 -0.12881766D-07 -0.46239914D-06 -0.73360782D-06
 -0.87113679D-06 -0.13182596D-06  0.95940461D-06  0.70495074D-06  0.25304652D-04
  0.40146464D-04  0.47672695D-04  0.72141353D-05 -0.52503124D-04  0.94991333D-11
 -0.16142219D-05  0.16290474D-03  0.26781364D-13  0.22982899D-06  0.52624540D-05
 -0.17710612D-14  0.50087776D-08 -0.34232604D-07 -0.58190401D-05 -0.37568164D-05
  0.95758565D-05  0.94756827D-16  0.74382348D-13 -0.63131774D-06  0.91731462D-05
 -0.15971856D-04  0.67987096D-05  0.12824847D-14 -0.45615548D-13 -0.42311532D-06
  0.59323748D-06  0.49048085D-06 -0.10837183D-05  0.16061514D-15 -0.58790072D-14
 -0.45250759D-07  0.16164595D-13 -0.10465225D-06 -0.69839149D-05 -0.85178133D-14
 -0.85884957D-07  0.12191466D-04 -0.39975972D-13  0.39984172D-06  0.87602789D-05
  0.79683455D-15  0.48729264D-15 -0.16681612D-07 -0.59126864D-07  0.40816875D-14
 -0.14620475D-07 -0.70807809D-08 -0.55435655D-14  0.64665311D-07  0.18446137D-06
 -0.23589886D-15 -0.12159800D-05 -0.21930700D-05 -0.32336804D-05  0.28441317D-05
  0.16861733D-04  0.23515365D-06 -0.19374521D-13 -0.57682008D-05 -0.15894689D-05
  0.22687911D-13  0.62904642D-06 -0.33112123D-06 -0.69881198D-14  0.71079540D-06
  0.24598389D-05 -0.24679883D-05 -0.20258140D-05  0.44938023D-05  0.16142650D-13
 -0.78103986D-14 -0.15338656D-05 -0.55123395D-07 -0.46444096D-06  0.51956435D-06
 -0.40210835D-14  0.13794640D-13 -0.17111925D-05 -0.12551665D-05 -0.22637444D-05
 -0.33378898D-05  0.32186037D-05  0.17996072D-04  0.24055827D-06 -0.21898134D-13
  0.58875214D-05 -0.13707118D-05  0.26437252D-13 -0.13978473D-05 -0.25461408D-05
 -0.62876838D-14 -0.80830537D-06  0.25847344D-05 -0.24099295D-05 -0.11641597D-05
  0.35740892D-05 -0.20793454D-13 -0.85040486D-14  0.26160699D-05 -0.20092686D-07