 h2cs-wavefunction
GAUSSIAN            142 MOL ORBITALS    240 PRIMITIVES        4 NUCLEI
  C    1    (CENTRE  1)   0.00000000  0.00000000 -1.03045065  CHARGE =  6.0
  S    2    (CENTRE  2)   0.00000000  0.00000000  2.00381646  CHARGE = 16.0
  H    3    (CENTRE  3)   0.00000000 -1.74285662 -2.13348569  CHARGE =  1.0
  H    4    (CENTRE  4)   0.00000000  1.74285662 -2.13348569  CHARGE =  1.0
CENTRE ASSIGNMENTS    1  1  1  1  1  1  1  1  1  1  1  1  1  1  1  1  1  1  1  1
CENTRE ASSIGNMENTS    1  1  1  1  1  1  1  1  1  1  1  1  1  1  1  1  1  1  1  1
CENTRE ASSIGNMENTS    1  1  1  1  1  1  1  1  1  1  1  1  1  1  1  1  1  1  1  1
CENTRE ASSIGNMENTS    1  1  1  1  1  1  1  1  1  1  1  1  2  2  2  2  2  2  2  2
CENTRE ASSIGNMENTS    2  2  2  2  2  2  2  2  2  2  2  2  2  2  2  2  2  2  2  2
CENTRE ASSIGNMENTS    2  2  2  2  2  2  2  2  2  2  2  2  2  2  2  2  2  2  2  2
CENTRE ASSIGNMENTS    2  2  2  2  2  2  2  2  2  2  2  2  2  2  2  2  2  2  2  2
CENTRE ASSIGNMENTS    2  2  2  2  2  2  2  2  2  2  2  2  2  2  2  2  2  2  2  2
CENTRE ASSIGNMENTS    2  2  2  2  2  2  2  2  2  2  2  2  2  2  2  2  2  2  2  2
CENTRE ASSIGNMENTS    2  2  2  2  2  2  3  3  3  3  3  3  3  3  3  3  3  3  3  3
CENTRE ASSIGNMENTS    3  3  3  3  3  3  3  3  3  3  3  3  3  4  4  4  4  4  4  4
CENTRE ASSIGNMENTS    4  4  4  4  4  4  4  4  4  4  4  4  4  4  4  4  4  4  4  4
TYPE ASSIGNMENTS      1  1  1  1  1  1  1  1  1  1  1  1  1  1  1  1  2  2  2  3
TYPE ASSIGNMENTS      3  3  4  4  4  2  3  4  2  3  4  2  3  4  5  6  7  8  9 10
TYPE ASSIGNMENTS      5  6  7  8  9 10  5  6  7  8  9 10 11 12 13 17 14 15 18 19
TYPE ASSIGNMENTS     16 20 11 12 13 17 14 15 18 19 16 20  1  1  1  1  1  1  1  1
TYPE ASSIGNMENTS      1  1  1  1  1  1  1  1  1  1  1  1  1  1  1  1  1  1  1  1
TYPE ASSIGNMENTS      1  1  1  2  2  2  2  2  2  3  3  3  3  3  3  4  4  4  4  4
TYPE ASSIGNMENTS      4  2  2  2  2  2  2  3  3  3  3  3  3  4  4  4  4  4  4  2
TYPE ASSIGNMENTS      3  4  2  3  4  2  3  4  5  6  7  8  9 10  5  6  7  8  9 10
TYPE ASSIGNMENTS      5  6  7  8  9 10 11 12 13 17 14 15 18 19 16 20 11 12 13 17
TYPE ASSIGNMENTS     14 15 18 19 16 20  1  1  1  1  1  1  2  3  4  2  3  4  2  3
TYPE ASSIGNMENTS      4  5  6  7  8  9 10  5  6  7  8  9 10  1  1  1  1  1  1  2
TYPE ASSIGNMENTS      3  4  2  3  4  2  3  4  5  6  7  8  9 10  5  6  7  8  9 10
EXPONENTS  0.8236000D+04 0.1235000D+04 0.2808000D+03 0.7927000D+02 0.2559000D+02
EXPONENTS  0.8997000D+01 0.3319000D+01 0.2808000D+03 0.7927000D+02 0.2559000D+02
EXPONENTS  0.8997000D+01 0.3319000D+01 0.3643000D+00 0.9059000D+00 0.1285000D+00
EXPONENTS  0.4402000D-01 0.1871000D+02 0.4133000D+01 0.1200000D+01 0.1871000D+02
EXPONENTS  0.4133000D+01 0.1200000D+01 0.1871000D+02 0.4133000D+01 0.1200000D+01
EXPONENTS  0.3827000D+00 0.3827000D+00 0.3827000D+00 0.1209000D+00 0.1209000D+00
EXPONENTS  0.1209000D+00 0.3569000D-01 0.3569000D-01 0.3569000D-01 0.1097000D+01
EXPONENTS  0.1097000D+01 0.1097000D+01 0.1097000D+01 0.1097000D+01 0.1097000D+01
EXPONENTS  0.3180000D+00 0.3180000D+00 0.3180000D+00 0.3180000D+00 0.3180000D+00
EXPONENTS  0.3180000D+00 0.1000000D+00 0.1000000D+00 0.1000000D+00 0.1000000D+00
EXPONENTS  0.1000000D+00 0.1000000D+00 0.7610000D+00 0.7610000D+00 0.7610000D+00
EXPONENTS  0.7610000D+00 0.7610000D+00 0.7610000D+00 0.7610000D+00 0.7610000D+00
EXPONENTS  0.7610000D+00 0.7610000D+00 0.2680000D+00 0.2680000D+00 0.2680000D+00
EXPONENTS  0.2680000D+00 0.2680000D+00 0.2680000D+00 0.2680000D+00 0.2680000D+00
EXPONENTS  0.2680000D+00 0.2680000D+00 0.3741000D+06 0.5605000D+05 0.1276000D+05
EXPONENTS  0.3615000D+04 0.1183000D+04 0.4288000D+03 0.1678000D+03 0.6947000D+02
EXPONENTS  0.2984000D+02 0.1272000D+02 0.5244000D+01 0.3615000D+04 0.1183000D+04
EXPONENTS  0.4288000D+03 0.1678000D+03 0.6947000D+02 0.2984000D+02 0.1272000D+02
EXPONENTS  0.5244000D+01 0.2219000D+01 0.1183000D+04 0.1678000D+03 0.6947000D+02
EXPONENTS  0.2984000D+02 0.1272000D+02 0.5244000D+01 0.2219000D+01 0.3490000D+00
EXPONENTS  0.7767000D+00 0.1322000D+00 0.4970000D-01 0.5744000D+03 0.1358000D+03
EXPONENTS  0.4319000D+02 0.1587000D+02 0.6208000D+01 0.2483000D+01 0.5744000D+03
EXPONENTS  0.1358000D+03 0.4319000D+02 0.1587000D+02 0.6208000D+01 0.2483000D+01
EXPONENTS  0.5744000D+03 0.1358000D+03 0.4319000D+02 0.1587000D+02 0.6208000D+01
EXPONENTS  0.2483000D+01 0.1358000D+03 0.4319000D+02 0.1587000D+02 0.6208000D+01
EXPONENTS  0.2483000D+01 0.3229000D+00 0.1358000D+03 0.4319000D+02 0.1587000D+02
EXPONENTS  0.6208000D+01 0.2483000D+01 0.3229000D+00 0.1358000D+03 0.4319000D+02
EXPONENTS  0.1587000D+02 0.6208000D+01 0.2483000D+01 0.3229000D+00 0.8688000D+00
EXPONENTS  0.8688000D+00 0.8688000D+00 0.1098000D+00 0.1098000D+00 0.1098000D+00
EXPONENTS  0.3510000D-01 0.3510000D-01 0.3510000D-01 0.2690000D+00 0.2690000D+00
EXPONENTS  0.2690000D+00 0.2690000D+00 0.2690000D+00 0.2690000D+00 0.8190000D+00
EXPONENTS  0.8190000D+00 0.8190000D+00 0.8190000D+00 0.8190000D+00 0.8190000D+00
EXPONENTS  0.1010000D+00 0.1010000D+00 0.1010000D+00 0.1010000D+00 0.1010000D+00
EXPONENTS  0.1010000D+00 0.5570000D+00 0.5570000D+00 0.5570000D+00 0.5570000D+00
EXPONENTS  0.5570000D+00 0.5570000D+00 0.5570000D+00 0.5570000D+00 0.5570000D+00
EXPONENTS  0.5570000D+00 0.2180000D+00 0.2180000D+00 0.2180000D+00 0.2180000D+00
EXPONENTS  0.2180000D+00 0.2180000D+00 0.2180000D+00 0.2180000D+00 0.2180000D+00
EXPONENTS  0.2180000D+00 0.3387000D+02 0.5095000D+01 0.1159000D+01 0.3258000D+00
EXPONENTS  0.1027000D+00 0.2526000D-01 0.1407000D+01 0.1407000D+01 0.1407000D+01
EXPONENTS  0.3880000D+00 0.3880000D+00 0.3880000D+00 0.1020000D+00 0.1020000D+00
EXPONENTS  0.1020000D+00 0.1057000D+01 0.1057000D+01 0.1057000D+01 0.1057000D+01
EXPONENTS  0.1057000D+01 0.1057000D+01 0.2470000D+00 0.2470000D+00 0.2470000D+00
EXPONENTS  0.2470000D+00 0.2470000D+00 0.2470000D+00 0.3387000D+02 0.5095000D+01
EXPONENTS  0.1159000D+01 0.3258000D+00 0.1027000D+00 0.2526000D-01 0.1407000D+01
EXPONENTS  0.1407000D+01 0.1407000D+01 0.3880000D+00 0.3880000D+00 0.3880000D+00
EXPONENTS  0.1020000D+00 0.1020000D+00 0.1020000D+00 0.1057000D+01 0.1057000D+01
EXPONENTS  0.1057000D+01 0.1057000D+01 0.1057000D+01 0.1057000D+01 0.2470000D+00
EXPONENTS  0.2470000D+00 0.2470000D+00 0.2470000D+00 0.2470000D+00 0.2470000D+00
MO    1     MO 0.0        OCC NO =    2.0000338  ORB. ENERGY =    0.000000
  0.13540062D-11  0.25241403D-11  0.42661410D-11  0.64128057D-11  0.78769831D-11
  0.66478959D-11  0.24997825D-11 -0.88312322D-16 -0.66007990D-15 -0.24668693D-14
 -0.68821812D-14 -0.92202254D-14  0.10887367D-13  0.15597820D-12 -0.35889280D-12
 -0.42717723D-13  0.31945707D-12  0.29951131D-12  0.21326989D-12 -0.15027858D-02
 -0.14089572D-02 -0.10032615D-02  0.29452051D-12  0.27613170D-12  0.19662222D-12
  0.53605866D-13 -0.64432020D-03  0.38086918D-14  0.85468276D-14  0.16169087D-02
 -0.49703000D-13  0.67318417D-16  0.30106955D-04 -0.11678780D-14 -0.19489220D-13
 -0.23115706D-16  0.19512335D-13 -0.60168891D-14  0.73123286D-13 -0.10841024D-02
  0.41828680D-13 -0.64408661D-14 -0.35387814D-13  0.22030163D-14 -0.65556624D-13
  0.84340860D-04  0.36642816D-14  0.65555842D-15 -0.43198400D-14 -0.41577258D-15
  0.70405696D-14 -0.21957946D-03 -0.90756341D-14  0.16529818D-03  0.27891757D-14
 -0.64533390D-14  0.20766408D-03 -0.15254279D-13  0.33680241D-13 -0.70355863D-03
  0.68867516D-14 -0.41049174D-14  0.34133182D-14 -0.85623278D-04 -0.30692498D-14
  0.15485027D-13 -0.12288890D-03 -0.18004129D-14 -0.25724981D-13  0.37975874D-03
  0.11008162D-13 -0.52336837D-15 -0.96458362D-11 -0.18033862D-10 -0.31167874D-10
 -0.50412752D-10 -0.76197187D-10 -0.10493930D-09 -0.12266127D-09 -0.10601216D-09
 -0.49476428D-10 -0.67029703D-11  0.49026490D-13 -0.10156069D-12 -0.13055524D-11
 -0.47624675D-11 -0.16068447D-10 -0.35293521D-10 -0.45589602D-10  0.73266369D-11
  0.61461775D-10  0.33729430D-10 -0.88399372D-15 -0.10069238D-13 -0.20907368D-13
 -0.57489952D-13  0.74542325D-14  0.25994338D-12  0.64834007D-12 -0.53668652D-12
  0.18515284D-11  0.17259403D-12  0.35751640D-13 -0.10289899D-08 -0.13499762D-08
 -0.14806318D-08 -0.12182192D-08 -0.64217590D-09 -0.16708209D-09  0.97722496D+01
  0.12820636D+02  0.14061463D+02  0.11569348D+02  0.60987024D+01  0.15867677D+01
  0.60850302D-09  0.79832136D-09  0.87558576D-09  0.72040558D-09  0.37975686D-09
  0.98805593D-10 -0.55646693D-14 -0.19974732D-12 -0.31690412D-12 -0.37631393D-12
 -0.56946216D-13  0.41444389D-12  0.96911269D-04  0.34786912D-02  0.55190307D-02
  0.65536797D-02  0.99174448D-03 -0.72177305D-02  0.57140498D-14  0.20510943D-12
  0.32541124D-12  0.38641587D-12  0.58474906D-13 -0.42556941D-12 -0.79750443D-11
  0.66575654D-01  0.45035758D-11 -0.21838369D-13 -0.57521074D-03 -0.93181154D-13
  0.15664074D-14 -0.27478966D-04 -0.17596824D-14 -0.29542205D-13 -0.22503838D-13
  0.52046043D-13 -0.29967251D-15 -0.66028126D-13  0.79127006D-03  0.28108340D-13
 -0.23422999D-13 -0.46853412D-14  0.26122778D-14  0.40107609D-13 -0.10723682D-02
 -0.28767648D-14 -0.31874719D-14  0.60642368D-14  0.17209697D-15  0.46721630D-14
 -0.29461077D-04 -0.13566041D-13  0.21321677D-05 -0.82204969D-14  0.69053387D-14
  0.13139717D-03  0.16859606D-13  0.33792784D-13 -0.13779368D-03  0.78018845D-14
  0.40205078D-15 -0.51590298D-15  0.34412733D-04 -0.36793293D-14 -0.35909495D-14
 -0.17683341D-05  0.47718278D-14  0.51386584D-14 -0.10146986D-03  0.62661599D-14
 -0.35432371D-15 -0.10845633D-03 -0.19560545D-03 -0.28842012D-03  0.11211499D-03
  0.23703768D-02  0.25933883D-04  0.13068240D-13 -0.26154933D-04  0.26141645D-03
 -0.17059392D-13 -0.19791149D-04 -0.34650959D-03  0.61072074D-14  0.31442035D-03
  0.13440387D-03 -0.44959408D-04 -0.14530121D-03  0.19026062D-03 -0.14921242D-13
  0.84956577D-14 -0.25853511D-04  0.27491246D-04 -0.21425727D-04 -0.60655186D-05
  0.46542491D-14 -0.12538984D-13 -0.11793766D-03  0.10845633D-03  0.19560545D-03
  0.28842012D-03 -0.11211499D-03 -0.23703768D-02 -0.25933883D-04  0.16997032D-13
 -0.26154933D-04 -0.26141645D-03 -0.20633360D-13 -0.19791149D-04  0.34650959D-03
  0.69299315D-14  0.31442035D-03 -0.13440387D-03  0.44959408D-04  0.14530121D-03
 -0.19026062D-03  0.18413454D-13  0.54415193D-14 -0.25853511D-04 -0.27491246D-04
  0.21425727D-04  0.60655186D-05 -0.38401392D-14 -0.12561907D-13 -0.11793766D-03
MO    2     MO 0.0        OCC NO =    2.0000245  ORB. ENERGY =    0.000000
 -0.54698905D-01 -0.10196978D+00 -0.17234282D+00 -0.25906340D+00 -0.31821298D+00
 -0.26856053D+00 -0.10098577D+00 -0.92556004D-05 -0.69179879D-04 -0.25854100D-03
 -0.72128914D-03 -0.96632859D-03  0.11410539D-02 -0.43301453D-02 -0.56315571D-03
 -0.45570685D-04 -0.36862234D-13 -0.34560688D-13 -0.24609269D-13  0.10167817D-12
  0.95329744D-13  0.67880457D-13  0.25335044D-02  0.23753214D-02  0.16913703D-02
 -0.14809639D-13  0.28489496D-12  0.49905593D-04 -0.89407446D-14  0.36121264D-13
 -0.63225608D-03 -0.28790348D-15  0.17975413D-14 -0.69611899D-06  0.18968728D-03
 -0.14670100D-03 -0.42986280D-04  0.31688192D-15 -0.50700669D-14  0.21259601D-13
  0.33354392D-04  0.14919615D-03 -0.18255055D-03  0.29391488D-14  0.50565103D-14
 -0.16928737D-12  0.11787192D-04  0.88182409D-04 -0.99969601D-04 -0.13918998D-14
 -0.13751453D-14 -0.22744492D-13  0.27150849D-15 -0.93578826D-14  0.93495875D-05
 -0.63283300D-15 -0.56520304D-13 -0.17195430D-03 -0.18169246D-15  0.84593952D-13
  0.14390554D-03  0.98040671D-15  0.40985842D-15  0.59261770D-14  0.62025267D-04
 -0.23857276D-14  0.11544767D-15  0.83810445D-05  0.11561524D-14 -0.17893979D-13
 -0.19445685D-03 -0.33094035D-14 -0.11910590D+00 -0.22268047D+00 -0.38485804D+00
 -0.62249202D+00 -0.94087585D+00 -0.12957808D+01 -0.15146100D+01 -0.13090284D+01
 -0.61093037D+00 -0.82767660D-01  0.60537458D-03 -0.14831221D-02 -0.19065386D-01
 -0.69547786D-01 -0.23465251D+00 -0.51540219D+00 -0.66575905D+00  0.10699314D+00
  0.89754531D+00  0.49256129D+00 -0.12435344D-04 -0.14164630D-03 -0.29410878D-03
 -0.80872446D-03  0.10486041D-03  0.36566837D-02  0.91203499D-02 -0.75496936D-02
  0.27484485D-01  0.12323015D-02  0.11688556D-04  0.91669495D-10  0.12026516D-09
  0.13190486D-09  0.10852734D-09  0.57209445D-10  0.14884821D-10 -0.74491138D-09
 -0.97728137D-09 -0.10718662D-08 -0.88189918D-09 -0.46488710D-09 -0.12095488D-09
  0.67690083D+01  0.88805540D+01  0.97400458D+01  0.80138163D+01  0.42244283D+01
  0.10991168D+01  0.54462786D-15  0.19549761D-13  0.31016186D-13  0.36830769D-13
  0.55734661D-14 -0.40562642D-13 -0.71789949D-14 -0.25769455D-12 -0.40883887D-12
 -0.48548361D-12 -0.73466467D-13  0.53467518D-12  0.57304948D-04  0.20569973D-02
  0.32634777D-02  0.38752797D-02  0.58643196D-03 -0.42679419D-02  0.70457946D-12
 -0.50529062D-11  0.49453293D-01  0.50034721D-14  0.84865962D-13 -0.66590416D-03
  0.25341218D-16  0.26452645D-14 -0.15683619D-05 -0.26107323D-03 -0.10775432D-03
  0.36882755D-03  0.10963837D-14  0.34763428D-14 -0.68664170D-13  0.34981557D-03
 -0.37779730D-03  0.27981730D-04 -0.13854517D-14  0.62860690D-15  0.78241304D-13
 -0.56827335D-05 -0.23744355D-04  0.29427088D-04  0.44327271D-15 -0.15192629D-14
 -0.67955128D-14  0.11115475D-14 -0.84791621D-15 -0.71188819D-04  0.42850584D-15
 -0.10684997D-13  0.21173466D-03 -0.37631483D-14  0.13228745D-13  0.18317939D-05
  0.97846187D-15 -0.20124907D-15 -0.36893011D-14 -0.20114280D-04  0.92317662D-16
 -0.20148514D-15  0.26472303D-04  0.51142954D-15  0.11269388D-13  0.33870538D-04
 -0.11986135D-14 -0.24440475D-04 -0.44079403D-04 -0.64995053D-04 -0.41790110D-03
 -0.46586270D-03  0.30669916D-05 -0.51577093D-14  0.19269769D-04  0.92635719D-04
  0.10328639D-13  0.28859771D-04  0.15312871D-04 -0.86543226D-15  0.34831046D-04
 -0.13117244D-03 -0.10111187D-03  0.19516787D-04  0.81595081D-04  0.50390325D-14
  0.27164286D-14  0.13011720D-03 -0.32060989D-04  0.21967003D-04  0.10093986D-04
  0.16276719D-14  0.20538677D-14 -0.66530122D-04 -0.24440475D-04 -0.44079403D-04
 -0.64995053D-04 -0.41790110D-03 -0.46586270D-03  0.30669916D-05 -0.47117835D-14
 -0.19269769D-04  0.92635719D-04  0.25748538D-14 -0.28859770D-04  0.15312871D-04
  0.24061262D-14 -0.34831046D-04 -0.13117244D-03 -0.10111187D-03  0.19516787D-04
  0.81595081D-04  0.29483114D-14 -0.37231364D-14 -0.13011720D-03 -0.32060989D-04
  0.21967003D-04  0.10093986D-04 -0.44449655D-15  0.34209394D-14  0.66530122D-04
MO    3     MO 0.0        OCC NO =    2.0000104  ORB. ENERGY =    0.000000
 -0.14733292D+00 -0.27465825D+00 -0.46420986D+00 -0.69779400D+00 -0.85711495D+00
 -0.72337478D+00 -0.27200781D+00 -0.22951519D-04 -0.17154838D-03 -0.64111548D-03
 -0.17886124D-02 -0.23962475D-02  0.28295214D-02 -0.11911712D-01 -0.80090192D-04
 -0.10821401D-03 -0.43769033D-12 -0.41036251D-12 -0.29220255D-12  0.30887735D-13
  0.28959215D-13  0.20620687D-13  0.38528054D-02  0.36122500D-02  0.25721372D-02
 -0.65672386D-13 -0.96482904D-13  0.56348014D-03 -0.19422177D-14 -0.16075627D-12
 -0.16026150D-03  0.17621215D-15 -0.55249146D-14 -0.38038306D-05  0.42966426D-03
 -0.42787416D-03 -0.17901011D-05 -0.48983474D-15 -0.97018269D-13  0.17815628D-13
 -0.12185037D-03 -0.18696926D-05  0.12372006D-03 -0.31558524D-14  0.87253972D-13
  0.76628190D-13  0.13274633D-04  0.59337704D-04 -0.72612337D-04  0.23580736D-14
 -0.74535817D-14  0.72926349D-14  0.12005961D-13 -0.82489196D-15  0.71534612D-04
  0.83514347D-14  0.80425738D-14 -0.43681729D-03 -0.44369319D-13 -0.55678979D-14
  0.22221345D-03  0.13059274D-14 -0.53808031D-14  0.56689688D-14  0.11945422D-03
 -0.18580100D-13  0.11954118D-13 -0.25564435D-04  0.34722510D-13 -0.28961024D-13
 -0.33279823D-03  0.33512147D-14  0.11443875D+00  0.21395477D+00  0.36977743D+00
  0.59809975D+00  0.90400776D+00  0.12450058D+01  0.14552602D+01  0.12577343D+01
  0.58699114D+00  0.79524420D-01 -0.58165306D-03  0.14383095D-02  0.18489324D-01
  0.67446396D-01  0.22756247D+00  0.49982929D+00  0.64564310D+00 -0.10376034D+00
 -0.87042592D+00 -0.47767852D+00  0.65547688D-05  0.74662891D-04  0.15502708D-03
  0.42628509D-03 -0.55272757D-04 -0.19274670D-02 -0.48074089D-02  0.39795035D-02
 -0.28351951D-01  0.11298567D-02  0.32763571D-04  0.13856493D-08  0.18178931D-08
  0.19938353D-08  0.16404676D-08  0.86476124D-09  0.22499461D-09 -0.16133887D-10
 -0.21166742D-10 -0.23215336D-10 -0.19100879D-10 -0.10068897D-10 -0.26197377D-11
  0.56320139D+01  0.73888819D+01  0.81040043D+01  0.66677306D+01  0.35148485D+01
  0.91449746D+00  0.74460677D-14  0.26728130D-12  0.42404848D-12  0.50354456D-12
  0.76199565D-13 -0.55456616D-12 -0.62081156D-15 -0.22284423D-13 -0.35354795D-13
 -0.41982735D-13 -0.63530944D-14  0.46236630D-13  0.36551217D-04  0.13120290D-02
  0.20815669D-02  0.24717968D-02  0.37404801D-03 -0.27222513D-02  0.10732238D-10
 -0.12759546D-12  0.43377876D-01  0.22215156D-13  0.17235711D-13 -0.11923134D-03
 -0.22918482D-14  0.54376085D-15  0.42953562D-06 -0.15147214D-03 -0.14078729D-03
  0.29225943D-03 -0.97711133D-15  0.90857174D-13 -0.31247176D-13 -0.12659979D-03
  0.47302345D-03 -0.34642366D-03  0.74950414D-15 -0.53518055D-13  0.22549468D-13
  0.59230430D-05  0.21214101D-05 -0.80444531D-05 -0.68123114D-15 -0.41827374D-14
 -0.39480931D-14  0.18329440D-13  0.10381728D-15 -0.43165319D-04 -0.10604587D-13
 -0.28722456D-14  0.20501541D-03 -0.44383734D-13  0.25607938D-14 -0.75519456D-04
 -0.20234817D-14  0.10935724D-14 -0.13794900D-14 -0.13275549D-04  0.51490825D-14
 -0.11312725D-14  0.20202173D-04 -0.84297998D-14  0.52697426D-14  0.19624473D-04
  0.16588762D-14  0.32417211D-04  0.58465775D-04  0.86207751D-04 -0.38608461D-03
 -0.12063306D-04  0.68119572D-05 -0.13247524D-13  0.15758119D-03  0.20038086D-03
  0.13457970D-13  0.11265845D-03  0.14705802D-03 -0.64286431D-14  0.70393959D-04
 -0.61118411D-04 -0.22812226D-03  0.10406272D-03  0.12405954D-03  0.13520691D-13
 -0.14055267D-13  0.43285766D-03 -0.62700540D-04  0.88935460D-05  0.53806994D-04
 -0.73487107D-14  0.15533747D-13 -0.59612709D-04  0.32417211D-04  0.58465775D-04
  0.86207751D-04 -0.38608461D-03 -0.12063305D-04  0.68119572D-05 -0.15429205D-13
 -0.15758119D-03  0.20038086D-03  0.21694197D-13 -0.11265845D-03  0.14705802D-03
 -0.12334763D-13 -0.70393959D-04 -0.61118411D-04 -0.22812226D-03  0.10406272D-03
  0.12405954D-03 -0.24776399D-13 -0.27972999D-14 -0.43285766D-03 -0.62700540D-04
  0.88935460D-05  0.53806994D-04  0.61509395D-14  0.13072828D-13  0.59612709D-04
MO    4     MO 0.0        OCC NO =    2.0000047  ORB. ENERGY =    0.000000
  0.28749582D+00  0.53595012D+00  0.90582872D+00  0.13616295D+01  0.16725180D+01
  0.14115462D+01  0.53077822D+00  0.30540169D-04  0.22826884D-03  0.85309278D-03
  0.23799960D-02  0.31885385D-02 -0.37650694D-02  0.23744348D-01 -0.46315102D-03
  0.20421629D-05 -0.22933663D-10 -0.21501767D-10 -0.15310539D-10  0.79320685D-13
  0.74368184D-13  0.52954577D-13  0.41672357D-02  0.39070483D-02  0.27820512D-02
 -0.37296547D-11 -0.86001188D-13 -0.35216283D-03 -0.37338382D-12 -0.12739977D-12
 -0.29585819D-03 -0.16403553D-14 -0.36863055D-14 -0.33221550D-05 -0.11933331D-02
  0.57545497D-03  0.61787817D-03 -0.48336023D-15 -0.51959240D-11  0.52032881D-13
  0.17717374D-03  0.11025739D-03 -0.28743112D-03 -0.28945867D-14  0.47893783D-11
  0.63040507D-13  0.82774651D-05  0.38558201D-04 -0.46835666D-04  0.38588675D-15
 -0.41381450D-12  0.20034256D-13  0.65157128D-12 -0.42561507D-14  0.41562292D-03
  0.34779218D-12  0.89282435D-14  0.18981863D-03 -0.23025060D-11  0.38402085D-14
 -0.14366874D-02  0.36652847D-14 -0.26120467D-12  0.16139897D-14 -0.66378023D-04
 -0.10667088D-11  0.95307992D-14 -0.25274410D-04  0.18503228D-11 -0.14372768D-13
  0.22440848D-03  0.13794135D-14  0.36050850D-01  0.67400694D-01  0.11648843D+00
  0.18841524D+00  0.28478333D+00  0.39220561D+00  0.45844059D+00  0.39621536D+00
  0.18491577D+00  0.25052030D-01 -0.18323415D-03  0.45223612D-03  0.58134498D-02
  0.21206629D-01  0.71550642D-01  0.15715731D+00  0.20300438D+00 -0.32624532D-01
 -0.27368104D+00 -0.15019263D+00  0.17873432D-05  0.20358950D-04  0.42272520D-04
  0.11623869D-03 -0.15071682D-04 -0.52557844D-03 -0.13108761D-02  0.10851243D-02
 -0.93012389D-02  0.12802786D-02  0.97728231D-04  0.74034036D-07  0.97128445D-07
  0.10652888D-06  0.87648756D-07  0.46203441D-07  0.12021266D-07 -0.19599164D-09
 -0.25712988D-09 -0.28201583D-09 -0.23203413D-09 -0.12231520D-09 -0.31824115D-10
  0.41527844D+01  0.54482169D+01  0.59755149D+01  0.49164736D+01  0.25916854D+01
  0.67430778D+00  0.39781507D-12  0.14279823D-10  0.22655297D-10  0.26902470D-10
  0.40710528D-11 -0.29628360D-10 -0.20974476D-14 -0.75289206D-13 -0.11944821D-12
 -0.14184109D-12 -0.21464295D-13  0.15621312D-12  0.30466455D-04  0.10936126D-02
  0.17350438D-02  0.20603113D-02  0.31177941D-03 -0.22690721D-02  0.57366231D-09
 -0.13561362D-11  0.32389236D-01  0.13043863D-11  0.28085016D-14 -0.33359800D-03
 -0.11587719D-12  0.62702746D-15 -0.44319190D-05 -0.12648234D-03 -0.22519058D-03
  0.35167291D-03 -0.42052849D-15  0.48362649D-11 -0.22104443D-13  0.10559696D-03
  0.34435731D-03 -0.44995427D-03  0.14188345D-16 -0.28878697D-11  0.26510989D-13
 -0.98383989D-05 -0.12033743D-04  0.21872142D-04 -0.13509625D-15 -0.25955463D-12
  0.19146916D-14  0.99559941D-12  0.10887231D-14  0.64799213D-04 -0.55084871D-12
 -0.38666430D-14 -0.45120023D-04 -0.24359495D-11  0.60047383D-15 -0.14927762D-03
 -0.33488274D-15  0.52268626D-13 -0.93954544D-15 -0.36228223D-04  0.26987447D-12
 -0.44014453D-16  0.27289692D-04 -0.42668034D-12  0.28626508D-14  0.81394978D-04
  0.34799211D-15 -0.30183289D-03 -0.54436804D-03 -0.80267036D-03 -0.53439112D-03
 -0.48001492D-03 -0.70539664D-05 -0.96062171D-12 -0.81097287D-03 -0.37999512D-03
  0.12386169D-11 -0.40281117D-03 -0.26887372D-03 -0.43880912D-12 -0.33247263D-04
 -0.10389951D-03  0.28095115D-03 -0.42769713D-03  0.14674599D-03  0.10681980D-11
 -0.42487113D-12 -0.97660559D-03  0.48408438D-04 -0.23412203D-04 -0.24996235D-04
 -0.28902071D-12  0.84112857D-12 -0.77718576D-04 -0.30183289D-03 -0.54436804D-03
 -0.80267036D-03 -0.53439112D-03 -0.48001492D-03 -0.70539664D-05 -0.96274147D-12
  0.81097287D-03 -0.37999512D-03  0.12446596D-11  0.40281117D-03 -0.26887372D-03
 -0.43950001D-12  0.33247263D-04 -0.10389951D-03  0.28095115D-03 -0.42769713D-03
  0.14674599D-03 -0.10759902D-11 -0.42083435D-12  0.97660559D-03  0.48408438D-04
 -0.23412203D-04 -0.24996235D-04  0.28778002D-12  0.84123661D-12  0.77718576D-04
MO    5     MO 0.0        OCC NO =    2.0000045  ORB. ENERGY =    0.000000
 -0.21692435D-08 -0.40439069D-08 -0.68347536D-08 -0.10273909D-07 -0.12619658D-07
 -0.10650546D-07 -0.40048834D-08 -0.22932445D-12 -0.17140582D-11 -0.64058269D-11
 -0.17871260D-10 -0.23942561D-10  0.28271700D-10 -0.17919562D-09  0.36247969D-11
  0.15073881D-13 -0.30116114D-02 -0.28235771D-02 -0.20105551D-02 -0.15870209D-12
 -0.14879330D-12 -0.10594969D-12 -0.32321895D-10 -0.30303831D-10 -0.21578133D-10
 -0.49061264D-03 -0.10294737D-12  0.25689887D-11 -0.49617045D-04  0.14202323D-12
  0.22511870D-11 -0.24280981D-06  0.27492542D-14  0.26096399D-13  0.90310468D-11
 -0.43222728D-11 -0.47087740D-11  0.37042281D-15 -0.68226016D-03 -0.99561344D-13
 -0.13368281D-11 -0.82096086D-12  0.21577889D-11 -0.98901025D-15  0.62877566D-03
  0.30328572D-13 -0.65388555D-13 -0.29507596D-12  0.36046451D-12  0.16419054D-15
 -0.54290146D-04 -0.24792634D-13  0.85584440D-04  0.17418852D-13 -0.31762639D-11
  0.45454739D-04  0.27126733D-13 -0.13815347D-11 -0.30220806D-03 -0.79383288D-13
  0.10910327D-10 -0.12029956D-14 -0.34232463D-04 -0.64688968D-14  0.48971215D-12
 -0.14006588D-03 -0.10689246D-13  0.19818879D-12  0.24276327D-03  0.30095937D-13
 -0.16673252D-11  0.10581543D-14 -0.83044111D-10 -0.15525933D-09 -0.26833427D-09
 -0.43401962D-09 -0.65600613D-09 -0.90345626D-09 -0.10560304D-08 -0.91269284D-09
 -0.42595850D-09 -0.57708030D-10  0.42208484D-12 -0.36475463D-11 -0.46888840D-10
 -0.17104375D-09 -0.57709738D-09 -0.12675648D-08 -0.16373480D-08  0.26313575D-09
  0.22073962D-08  0.12113905D-08 -0.14388563D-13 -0.16389468D-12 -0.34030444D-12
 -0.93575078D-12  0.12133084D-12  0.42310389D-11  0.10552883D-10 -0.87355237D-11
  0.74669997D-10 -0.98545103D-11 -0.75528303D-12  0.97156543D+01  0.12746386D+02
  0.13980027D+02  0.11502345D+02  0.60633822D+01  0.15775780D+01  0.10349636D-08
  0.13578134D-08  0.14892274D-08  0.12252914D-08  0.64590398D-09  0.16805207D-09
 -0.32507646D-07 -0.42648182D-07 -0.46775826D-07 -0.38485741D-07 -0.20287494D-07
 -0.52784244D-08  0.52216178D-04  0.18743327D-02  0.29736757D-02  0.35311487D-02
  0.53435587D-03 -0.38889419D-02  0.10092350D-13  0.36227129D-12  0.57475247D-12
  0.68250093D-12  0.10328038D-12 -0.75165526D-12 -0.23739972D-12 -0.85216126D-11
 -0.13519752D-10 -0.16054291D-10 -0.24294374D-11  0.17680990D-10  0.75281964D-01
  0.70486044D-11 -0.25337951D-09  0.17116819D-03 -0.53052994D-13  0.25587502D-11
 -0.15195265D-04 -0.27832922D-14  0.34323576D-13  0.98488847D-12  0.17347391D-11
 -0.27196275D-11 -0.33269511D-15  0.63469738D-03  0.74833518D-13 -0.78885665D-12
 -0.26953310D-11  0.34841877D-11 -0.22465467D-15 -0.37853900D-03 -0.10851149D-12
  0.74881316D-13  0.91554285D-13 -0.16643560D-12 -0.60191441D-16 -0.34099811D-04
 -0.48929808D-14  0.13067243D-03 -0.36790943D-15 -0.49175596D-12 -0.72240871D-04
  0.14065439D-13  0.32139148D-12 -0.31977640D-03 -0.12961711D-13  0.11538764D-11
  0.73654405D-16  0.68524092D-05  0.32687155D-14  0.27857508D-12  0.35412103D-04
 -0.40793578D-15 -0.21214546D-12 -0.55969331D-04 -0.93982108D-14 -0.62357978D-12
  0.36823291D-15  0.22859352D-11  0.41227783D-11  0.60790342D-11  0.40620956D-11
  0.38292921D-11  0.53972874D-13 -0.12672239D-03  0.61487243D-11  0.28873493D-11
  0.16347234D-03  0.30187649D-11  0.19778344D-11 -0.57462269D-04  0.27416298D-12
  0.79766739D-12 -0.21093607D-11  0.32202819D-11 -0.11109212D-11  0.14078836D-03
 -0.55384841D-04  0.73575956D-11 -0.35832620D-12  0.17603141D-12  0.18229479D-12
 -0.37643156D-04  0.11048943D-03  0.58634660D-12  0.23063519D-11  0.41596006D-11
  0.61333286D-11  0.41085521D-11  0.33861511D-11  0.49793049D-13 -0.12672239D-03
 -0.61560116D-11  0.28444351D-11  0.16347234D-03 -0.30726180D-11  0.20438226D-11
 -0.57462269D-04 -0.21673141D-12  0.77644800D-12 -0.21061732D-11  0.32679740D-11
 -0.11618008D-11 -0.14078836D-03 -0.55384841D-04 -0.73830857D-11 -0.36418647D-12
  0.18274329D-12  0.18144318D-12  0.37643156D-04  0.11048943D-03 -0.60961793D-12
MO    6     MO 0.0        OCC NO =    2.0000000  ORB. ENERGY =    0.000000
 -0.83109406D-04 -0.15493268D-03 -0.26185733D-03 -0.39362041D-03 -0.48349217D-03
 -0.40805033D-03 -0.15343758D-03  0.55056937D-07  0.41151649D-06  0.15379311D-05
  0.42905883D-05  0.57482054D-05 -0.67875588D-05  0.69059439D-06 -0.28067343D-04
 -0.70667735D-05  0.10737154D-11  0.10066765D-11  0.71681361D-12 -0.11004169D-12
 -0.10317108D-12 -0.73463954D-13  0.13850210D-04  0.12985452D-04  0.92464153D-05
  0.15886241D-12  0.44886241D-12 -0.39106094D-04 -0.30413577D-14  0.27477970D-12
  0.43311590D-05 -0.61297909D-15  0.77227722D-14 -0.38478922D-06  0.16473199D-05
  0.89828837D-05 -0.10630204D-04 -0.10998947D-14  0.25795288D-12 -0.13921392D-12
  0.58364110D-05  0.45580185D-05 -0.10394429D-04 -0.57318168D-14 -0.22795084D-12
 -0.28169009D-12  0.61489094D-06 -0.86913055D-06  0.25423962D-06 -0.56857198D-15
  0.18077377D-13 -0.54914340D-13 -0.31563766D-13  0.14191372D-13  0.26512212D-05
 -0.15625598D-13 -0.82387067D-13 -0.16794774D-06  0.11031689D-12  0.39812950D-13
 -0.77857158D-05  0.22033743D-14  0.14071778D-13  0.51910949D-14 -0.24776828D-06
  0.48087211D-13 -0.18220823D-13  0.55293132D-06 -0.90302543D-13  0.26475387D-14
  0.19037353D-06  0.25099258D-14  0.58267911D+00  0.10893773D+01  0.18827677D+01
  0.30452992D+01  0.46028679D+01  0.63391020D+01  0.74096384D+01  0.64039105D+01
  0.29887384D+01  0.40490847D+00 -0.29615589D-02 -0.29222787D-04 -0.37565599D-03
 -0.13703390D-02 -0.46234900D-02 -0.10155259D-01 -0.13117824D-01  0.21081460D-02
  0.17684839D-01  0.97052114D-02  0.19796983D-06  0.22549994D-05  0.46821916D-05
  0.12874838D-04 -0.16693706D-05 -0.58214154D-04 -0.14519534D-03  0.12019060D-03
  0.10906161D-04 -0.18184185D-04  0.31897096D-05 -0.34492314D-08 -0.45251955D-08
 -0.49631601D-08 -0.40835386D-08 -0.21526094D-08 -0.56006847D-09  0.24824358D-10
  0.32568145D-10  0.35720207D-10  0.29389510D-10  0.15492479D-10  0.40308516D-11
  0.11445519D-01  0.15015871D-01  0.16469160D-01  0.13550329D-01  0.71429630D-02
  0.18584646D-02 -0.18598898D-13 -0.66761916D-12 -0.10591945D-11 -0.12577610D-11
 -0.19033239D-12  0.13852035D-11  0.32056291D-15  0.11506808D-13  0.18255839D-13
  0.21678249D-13  0.32804905D-14 -0.23874795D-13  0.70361889D-06  0.25256844D-04
  0.40070616D-04  0.47582627D-04  0.72005057D-05 -0.52403931D-04 -0.26736133D-10
  0.18170247D-12  0.16503731D-03 -0.52599258D-13  0.45388330D-13  0.54265975D-05
  0.58142040D-14  0.12671138D-15 -0.29220651D-07 -0.58605188D-05 -0.37662909D-05
  0.96268097D-05 -0.50602420D-15 -0.23388394D-12 -0.16830755D-13  0.92954396D-05
 -0.15760531D-04  0.64650919D-05 -0.10054521D-14  0.13952541D-12 -0.21115474D-13
  0.59807836D-06  0.49641354D-06 -0.10944919D-05  0.66330865D-16  0.92786006D-14
 -0.91568517D-14 -0.46694719D-13 -0.50648527D-14 -0.69593799D-05  0.26841204D-13
  0.21667838D-15  0.12187391D-04  0.11324295D-12  0.14977880D-13  0.86907487D-05
  0.41480142D-15 -0.31267711D-14 -0.94168398D-15 -0.72291503D-07 -0.13407841D-13
 -0.30594093D-15  0.21556471D-07  0.22788154D-13  0.31309929D-14  0.19531804D-06
 -0.71920194D-18 -0.12681503D-05 -0.22871614D-05 -0.33724181D-05  0.17251978D-05
  0.16800840D-04  0.22890476D-06  0.37949439D-13 -0.61635142D-05 -0.17548152D-05
 -0.53215558D-13  0.83276304D-06 -0.17485316D-05  0.23503459D-13  0.75396011D-06
  0.24265568D-05 -0.24865389D-05 -0.14473992D-05  0.39339381D-05 -0.55408899D-13
  0.15596851D-13 -0.25973752D-05 -0.85632804D-07 -0.39454903D-06  0.48018183D-06
  0.15842040D-13 -0.37809254D-13 -0.18634919D-05 -0.12681503D-05 -0.22871613D-05
 -0.33724181D-05  0.17251969D-05  0.16800839D-04  0.22890473D-06  0.31311390D-13
  0.61635143D-05 -0.17548152D-05 -0.40489271D-13 -0.83276261D-06 -0.17485319D-05
  0.25683790D-13 -0.75395998D-06  0.24265567D-05 -0.24865388D-05 -0.14473993D-05
  0.39339382D-05  0.43640701D-13  0.23937975D-13  0.25973755D-05 -0.85632803D-07