 h2cs-wavefunction
GAUSSIAN            142 MOL ORBITALS    240 PRIMITIVES        4 NUCLEI
  C    1    (CENTRE  1)   0.00000000 -0.01889726 -1.04934791  CHARGE =  6.0
  S    2    (CENTRE  2)   0.00000000  0.00000000  2.00381646  CHARGE = 16.0
  H    3    (CENTRE  3)   0.00000000 -1.74285662 -2.13348569  CHARGE =  1.0
  H    4    (CENTRE  4)   0.00000000  1.74285662 -2.13348569  CHARGE =  1.0
CENTRE ASSIGNMENTS    1  1  1  1  1  1  1  1  1  1  1  1  1  1  1  1  1  1  1  1
CENTRE ASSIGNMENTS    1  1  1  1  1  1  1  1  1  1  1  1  1  1  1  1  1  1  1  1
CENTRE ASSIGNMENTS    1  1  1  1  1  1  1  1  1  1  1  1  1  1  1  1  1  1  1  1
CENTRE ASSIGNMENTS    1  1  1  1  1  1  1  1  1  1  1  1  2  2  2  2  2  2  2  2
CENTRE ASSIGNMENTS    2  2  2  2  2  2  2  2  2  2  2  2  2  2  2  2  2  2  2  2
CENTRE ASSIGNMENTS    2  2  2  2  2  2  2  2  2  2  2  2  2  2  2  2  2  2  2  2
CENTRE ASSIGNMENTS    2  2  2  2  2  2  2  2  2  2  2  2  2  2  2  2  2  2  2  2
CENTRE ASSIGNMENTS    2  2  2  2  2  2  2  2  2  2  2  2  2  2  2  2  2  2  2  2
CENTRE ASSIGNMENTS    2  2  2  2  2  2  2  2  2  2  2  2  2  2  2  2  2  2  2  2
CENTRE ASSIGNMENTS    2  2  2  2  2  2  3  3  3  3  3  3  3  3  3  3  3  3  3  3
CENTRE ASSIGNMENTS    3  3  3  3  3  3  3  3  3  3  3  3  3  4  4  4  4  4  4  4
CENTRE ASSIGNMENTS    4  4  4  4  4  4  4  4  4  4  4  4  4  4  4  4  4  4  4  4
TYPE ASSIGNMENTS      1  1  1  1  1  1  1  1  1  1  1  1  1  1  1  1  2  2  2  3
TYPE ASSIGNMENTS      3  3  4  4  4  2  3  4  2  3  4  2  3  4  5  6  7  8  9 10
TYPE ASSIGNMENTS      5  6  7  8  9 10  5  6  7  8  9 10 11 12 13 17 14 15 18 19
TYPE ASSIGNMENTS     16 20 11 12 13 17 14 15 18 19 16 20  1  1  1  1  1  1  1  1
TYPE ASSIGNMENTS      1  1  1  1  1  1  1  1  1  1  1  1  1  1  1  1  1  1  1  1
TYPE ASSIGNMENTS      1  1  1  2  2  2  2  2  2  3  3  3  3  3  3  4  4  4  4  4
TYPE ASSIGNMENTS      4  2  2  2  2  2  2  3  3  3  3  3  3  4  4  4  4  4  4  2
TYPE ASSIGNMENTS      3  4  2  3  4  2  3  4  5  6  7  8  9 10  5  6  7  8  9 10
TYPE ASSIGNMENTS      5  6  7  8  9 10 11 12 13 17 14 15 18 19 16 20 11 12 13 17
TYPE ASSIGNMENTS     14 15 18 19 16 20  1  1  1  1  1  1  2  3  4  2  3  4  2  3
TYPE ASSIGNMENTS      4  5  6  7  8  9 10  5  6  7  8  9 10  1  1  1  1  1  1  2
TYPE ASSIGNMENTS      3  4  2  3  4  2  3  4  5  6  7  8  9 10  5  6  7  8  9 10
EXPONENTS  0.8236000D+04 0.1235000D+04 0.2808000D+03 0.7927000D+02 0.2559000D+02
EXPONENTS  0.8997000D+01 0.3319000D+01 0.2808000D+03 0.7927000D+02 0.2559000D+02
EXPONENTS  0.8997000D+01 0.3319000D+01 0.3643000D+00 0.9059000D+00 0.1285000D+00
EXPONENTS  0.4402000D-01 0.1871000D+02 0.4133000D+01 0.1200000D+01 0.1871000D+02
EXPONENTS  0.4133000D+01 0.1200000D+01 0.1871000D+02 0.4133000D+01 0.1200000D+01
EXPONENTS  0.3827000D+00 0.3827000D+00 0.3827000D+00 0.1209000D+00 0.1209000D+00
EXPONENTS  0.1209000D+00 0.3569000D-01 0.3569000D-01 0.3569000D-01 0.1097000D+01
EXPONENTS  0.1097000D+01 0.1097000D+01 0.1097000D+01 0.1097000D+01 0.1097000D+01
EXPONENTS  0.3180000D+00 0.3180000D+00 0.3180000D+00 0.3180000D+00 0.3180000D+00
EXPONENTS  0.3180000D+00 0.1000000D+00 0.1000000D+00 0.1000000D+00 0.1000000D+00
EXPONENTS  0.1000000D+00 0.1000000D+00 0.7610000D+00 0.7610000D+00 0.7610000D+00
EXPONENTS  0.7610000D+00 0.7610000D+00 0.7610000D+00 0.7610000D+00 0.7610000D+00
EXPONENTS  0.7610000D+00 0.7610000D+00 0.2680000D+00 0.2680000D+00 0.2680000D+00
EXPONENTS  0.2680000D+00 0.2680000D+00 0.2680000D+00 0.2680000D+00 0.2680000D+00
EXPONENTS  0.2680000D+00 0.2680000D+00 0.3741000D+06 0.5605000D+05 0.1276000D+05
EXPONENTS  0.3615000D+04 0.1183000D+04 0.4288000D+03 0.1678000D+03 0.6947000D+02
EXPONENTS  0.2984000D+02 0.1272000D+02 0.5244000D+01 0.3615000D+04 0.1183000D+04
EXPONENTS  0.4288000D+03 0.1678000D+03 0.6947000D+02 0.2984000D+02 0.1272000D+02
EXPONENTS  0.5244000D+01 0.2219000D+01 0.1183000D+04 0.1678000D+03 0.6947000D+02
EXPONENTS  0.2984000D+02 0.1272000D+02 0.5244000D+01 0.2219000D+01 0.3490000D+00
EXPONENTS  0.7767000D+00 0.1322000D+00 0.4970000D-01 0.5744000D+03 0.1358000D+03
EXPONENTS  0.4319000D+02 0.1587000D+02 0.6208000D+01 0.2483000D+01 0.5744000D+03
EXPONENTS  0.1358000D+03 0.4319000D+02 0.1587000D+02 0.6208000D+01 0.2483000D+01
EXPONENTS  0.5744000D+03 0.1358000D+03 0.4319000D+02 0.1587000D+02 0.6208000D+01
EXPONENTS  0.2483000D+01 0.1358000D+03 0.4319000D+02 0.1587000D+02 0.6208000D+01
EXPONENTS  0.2483000D+01 0.3229000D+00 0.1358000D+03 0.4319000D+02 0.1587000D+02
EXPONENTS  0.6208000D+01 0.2483000D+01 0.3229000D+00 0.1358000D+03 0.4319000D+02
EXPONENTS  0.1587000D+02 0.6208000D+01 0.2483000D+01 0.3229000D+00 0.8688000D+00
EXPONENTS  0.8688000D+00 0.8688000D+00 0.1098000D+00 0.1098000D+00 0.1098000D+00
EXPONENTS  0.3510000D-01 0.3510000D-01 0.3510000D-01 0.2690000D+00 0.2690000D+00
EXPONENTS  0.2690000D+00 0.2690000D+00 0.2690000D+00 0.2690000D+00 0.8190000D+00
EXPONENTS  0.8190000D+00 0.8190000D+00 0.8190000D+00 0.8190000D+00 0.8190000D+00
EXPONENTS  0.1010000D+00 0.1010000D+00 0.1010000D+00 0.1010000D+00 0.1010000D+00
EXPONENTS  0.1010000D+00 0.5570000D+00 0.5570000D+00 0.5570000D+00 0.5570000D+00
EXPONENTS  0.5570000D+00 0.5570000D+00 0.5570000D+00 0.5570000D+00 0.5570000D+00
EXPONENTS  0.5570000D+00 0.2180000D+00 0.2180000D+00 0.2180000D+00 0.2180000D+00
EXPONENTS  0.2180000D+00 0.2180000D+00 0.2180000D+00 0.2180000D+00 0.2180000D+00
EXPONENTS  0.2180000D+00 0.3387000D+02 0.5095000D+01 0.1159000D+01 0.3258000D+00
EXPONENTS  0.1027000D+00 0.2526000D-01 0.1407000D+01 0.1407000D+01 0.1407000D+01
EXPONENTS  0.3880000D+00 0.3880000D+00 0.3880000D+00 0.1020000D+00 0.1020000D+00
EXPONENTS  0.1020000D+00 0.1057000D+01 0.1057000D+01 0.1057000D+01 0.1057000D+01
EXPONENTS  0.1057000D+01 0.1057000D+01 0.2470000D+00 0.2470000D+00 0.2470000D+00
EXPONENTS  0.2470000D+00 0.2470000D+00 0.2470000D+00 0.3387000D+02 0.5095000D+01
EXPONENTS  0.1159000D+01 0.3258000D+00 0.1027000D+00 0.2526000D-01 0.1407000D+01
EXPONENTS  0.1407000D+01 0.1407000D+01 0.3880000D+00 0.3880000D+00 0.3880000D+00
EXPONENTS  0.1020000D+00 0.1020000D+00 0.1020000D+00 0.1057000D+01 0.1057000D+01
EXPONENTS  0.1057000D+01 0.1057000D+01 0.1057000D+01 0.1057000D+01 0.2470000D+00
EXPONENTS  0.2470000D+00 0.2470000D+00 0.2470000D+00 0.2470000D+00 0.2470000D+00
MO    1     MO 0.0        OCC NO =    2.0000337  ORB. ENERGY =    0.000000
  0.13434205D-03  0.25044064D-03  0.42327881D-03  0.63626700D-03  0.78154004D-03
  0.65959223D-03  0.24802390D-03  0.49599805D-08  0.37072781D-07  0.13854945D-06
  0.38653139D-06  0.51784549D-06 -0.61147897D-06  0.18454046D-04 -0.92124882D-04
 -0.56531500D-05  0.25508410D-12  0.23915755D-12  0.17029443D-12 -0.14392158D-02
 -0.13493563D-02 -0.96082209D-03 -0.49268951D-05 -0.46192773D-05 -0.32892006D-05
  0.41085188D-13 -0.59796405D-03 -0.82625711D-05  0.16114004D-14  0.16106007D-02
  0.19669055D-04 -0.13906984D-15  0.29645379D-04  0.94991761D-07 -0.21777934D-05
 -0.65490872D-05  0.87268806D-05  0.43126377D-14  0.61175294D-13 -0.10628846D-02
  0.56329506D-05  0.12211531D-05 -0.68541037D-05 -0.45280575D-14 -0.54999168D-13
  0.52131154D-04 -0.24105052D-06  0.15806373D-05 -0.13395868D-05  0.18393504D-15
  0.46629198D-14 -0.21484562D-03 -0.79938985D-14  0.16676589D-03  0.53485346D-08
 -0.23882381D-14  0.19454008D-03  0.59528278D-05  0.26369934D-13 -0.69483775D-03
 -0.59688734D-05  0.21728549D-14  0.31363644D-14 -0.81286164D-04 -0.25779596D-05
  0.12659852D-13 -0.12288004D-03 -0.14075974D-05 -0.22068945D-13  0.36673853D-03
  0.91414761D-05  0.10223586D-14 -0.15941159D-03 -0.29803602D-03 -0.51509482D-03
 -0.83314465D-03 -0.12592703D-02 -0.17342759D-02 -0.20271573D-02 -0.17520064D-02
 -0.81767051D-03 -0.11077641D-03  0.81023464D-06 -0.20300596D-05 -0.26096212D-04
 -0.95195230D-04 -0.32118635D-03 -0.70546934D-03 -0.91127396D-03  0.14644948D-03
  0.12285371D-02  0.67420529D-03 -0.22755460D-08 -0.25919883D-07 -0.53819022D-07
 -0.14798864D-06  0.19188427D-07  0.66913724D-06  0.16689345D-05 -0.13815198D-05
  0.32852117D-04 -0.77828342D-06  0.79468642D-06 -0.84659540D-09 -0.11106850D-08
 -0.12181811D-08 -0.10022827D-08 -0.52834646D-09 -0.13746581D-09  0.97720322D+01
  0.12820351D+02  0.14061150D+02  0.11569091D+02  0.60985668D+01  0.15867324D+01
 -0.87330661D-01 -0.11457286D+00 -0.12566163D+00 -0.10339061D+00 -0.54501649D-01
 -0.14180304D-01 -0.45463322D-14 -0.16319346D-12 -0.25891052D-12 -0.30744830D-12
 -0.46525032D-13  0.33860046D-12  0.96389669D-04  0.34599680D-02  0.54893260D-02
  0.65184062D-02  0.98640667D-03 -0.71788829D-02 -0.69850252D-06 -0.25073189D-04
 -0.39779243D-04 -0.47236630D-04 -0.71481472D-05  0.52022876D-04 -0.65603485D-11
  0.66515666D-01 -0.59513864D-03 -0.14121319D-13 -0.57557243D-03  0.60364593D-05
  0.13993361D-14 -0.27474319D-04  0.12239879D-06 -0.20946917D-06  0.31120847D-05
 -0.29026156D-05 -0.71805233D-15 -0.56211093D-13  0.77035486D-03 -0.20808712D-05
 -0.90899898D-05  0.11170861D-04  0.55265468D-15  0.38168360D-13 -0.10810618D-02
  0.16621465D-06 -0.32507081D-06  0.15885615D-06 -0.73559472D-16  0.25878812D-14
 -0.29939513D-04 -0.11764156D-13  0.15012338D-05 -0.26321682D-06  0.70035201D-14
  0.13087740D-03 -0.25479016D-06  0.28288949D-13 -0.13538110D-03  0.10444406D-05
 -0.60959856D-15 -0.70231413D-15  0.33708470D-04  0.39255966D-06 -0.32474849D-14
 -0.22297764D-05  0.32689060D-07  0.53544273D-14 -0.98895634D-04 -0.12103680D-05
  0.20279551D-15 -0.10655452D-03 -0.19217546D-03 -0.28336260D-03  0.16436931D-03
  0.24042710D-02  0.26196395D-04  0.11855589D-13 -0.19596610D-04  0.26629252D-03
 -0.18020429D-13 -0.16343376D-04 -0.33119404D-03  0.58407324D-14  0.31596746D-03
  0.13361174D-03 -0.47422688D-04 -0.14743746D-03  0.19486015D-03 -0.15366277D-13
 -0.13120581D-14 -0.97866114D-05  0.26519793D-04 -0.23118784D-04 -0.34010086D-05
  0.35215719D-14 -0.10208208D-13 -0.11337364D-03  0.10748811D-03  0.19385923D-03
  0.28584533D-03 -0.11079193D-03 -0.23316204D-02 -0.24897450D-04  0.88781203D-14
 -0.17535836D-04 -0.26627850D-03 -0.10461830D-13 -0.12194099D-04  0.31888949D-03
  0.55811588D-14  0.31211665D-03 -0.13190810D-03  0.50775390D-04  0.14198192D-03
 -0.19275731D-03  0.11278797D-13  0.81998259D-14 -0.73268039D-05 -0.24054005D-04
  0.21812746D-04  0.22412591D-05 -0.47827377D-14 -0.91414544D-14 -0.11912367D-03
MO    2     MO 0.0        OCC NO =    2.0000243  ORB. ENERGY =    0.000000
 -0.53355436D-01 -0.99465281D-01 -0.16810988D+00 -0.25270050D+00 -0.31039730D+00
 -0.26196437D+00 -0.98505444D-01 -0.88988329D-05 -0.66513263D-04 -0.24857525D-03
 -0.69348624D-03 -0.92908037D-03  0.10970707D-02 -0.42235850D-02 -0.55065231D-03
 -0.39619961D-04  0.82184151D-13  0.77052865D-13  0.54866230D-13  0.57467648D-06
  0.53879573D-06  0.38365466D-06  0.24022570D-02  0.22522686D-02  0.16037494D-02
  0.10710622D-13  0.11575139D-04  0.49656271D-04  0.25226160D-14 -0.39989645D-05
 -0.60502134D-03  0.16075475D-15 -0.39326927D-06 -0.47561466D-06  0.18990845D-03
 -0.14547513D-03 -0.44433321D-04 -0.20469565D-14  0.85501570D-14 -0.17608522D-04
  0.38000883D-04  0.14700078D-03 -0.18500167D-03  0.29812895D-14 -0.62412392D-14
 -0.15087045D-04  0.11052177D-04  0.85510002D-04 -0.96562180D-04 -0.65108765D-15
  0.19964729D-14 -0.30396451D-05 -0.76264866D-15 -0.20520815D-05  0.10012039D-04
 -0.45197731D-14 -0.39216563D-05 -0.17122003D-03  0.68077191D-14  0.10077901D-04
  0.14118391D-03 -0.48923359D-14  0.84716803D-15 -0.17314949D-05  0.58650248D-04
  0.22209079D-14 -0.46377550D-06  0.10681960D-04 -0.47624120D-14  0.56582603D-05
 -0.18663270D-03 -0.55247886D-15 -0.12115093D+00 -0.22650387D+00 -0.39146602D+00
 -0.63318015D+00 -0.95703060D+00 -0.13180293D+01 -0.15406157D+01 -0.13315043D+01
 -0.62141999D+00 -0.84188773D-01  0.61576881D-03 -0.15087299D-02 -0.19394571D-01
 -0.70748606D-01 -0.23870404D+00 -0.52430118D+00 -0.67725412D+00  0.10884050D+00
  0.91304242D+00  0.50106590D+00 -0.12531859D-04 -0.14274567D-03 -0.29639146D-03
 -0.81500125D-03  0.10567427D-03  0.36850645D-02  0.91911361D-02 -0.76082893D-02
  0.27974912D-01  0.11463241D-02  0.43656333D-05 -0.23270610D-09 -0.30529717D-09
 -0.33484492D-09 -0.27550032D-09 -0.14522810D-09 -0.37785620D-10  0.53550140D-01
  0.70254739D-01  0.77054243D-01  0.63397910D-01  0.33419774D-01  0.86951965D-02
  0.66573678D+01  0.87340879D+01  0.95794042D+01  0.78816452D+01  0.41547552D+01
  0.10809892D+01 -0.12443422D-14 -0.44666448D-13 -0.70864439D-13 -0.84149347D-13
 -0.12734014D-13  0.92675770D-13  0.46233072D-06  0.16595653D-04  0.26329419D-04
  0.31265378D-04  0.47312758D-05 -0.34433339D-04  0.55918787D-04  0.20072402D-02
  0.31845368D-02  0.37815398D-02  0.57224664D-03 -0.41647038D-02 -0.17958936D-11
  0.39071366D-03  0.48623127D-01 -0.56908556D-14 -0.24220999D-05 -0.64503378D-03
  0.25366444D-15  0.13044637D-06 -0.13916365D-05 -0.25512497D-03 -0.10217749D-03
  0.35730246D-03 -0.21358962D-15 -0.11658097D-13  0.63469699D-05  0.35817749D-03
 -0.38145410D-03  0.23276609D-04 -0.20928135D-14  0.44585487D-14  0.92706533D-05
 -0.53412598D-05 -0.23230570D-04  0.28571830D-04  0.17554023D-15  0.13331647D-14
  0.17545328D-06 -0.26680193D-14  0.42710738D-06 -0.69413309D-04  0.17349871D-14
  0.16136744D-05  0.20744033D-03  0.62690708D-14 -0.28949965D-05  0.79959504D-06
 -0.26697131D-15  0.13050733D-16  0.11924085D-06 -0.19638287D-04 -0.53411820D-15
  0.13681970D-06  0.25716425D-04  0.49496600D-15 -0.49454225D-06  0.33198437D-04
 -0.33547519D-15 -0.22799373D-04 -0.41119608D-04 -0.60630838D-04 -0.37908128D-03
 -0.43545880D-03  0.25294357D-05  0.16144517D-14  0.20108820D-04  0.95371783D-04
  0.34300516D-14  0.56156117D-04  0.17495017D-04  0.11771900D-14  0.40563386D-04
 -0.12781561D-03 -0.10151705D-03  0.24046220D-04  0.77470828D-04  0.48344641D-15
  0.58879995D-14  0.12832229D-03 -0.31942795D-04  0.23262167D-04  0.86806281D-05
  0.27827345D-14 -0.18924091D-14 -0.65196761D-04 -0.22535256D-04 -0.40643263D-04
 -0.59928467D-04 -0.40896723D-03 -0.45557028D-03  0.35021429D-05  0.28529843D-17
 -0.21384045D-04  0.85885003D-04 -0.10017648D-14 -0.12291943D-04  0.31829786D-04
  0.25399162D-14 -0.31262409D-04 -0.12152223D-03 -0.98796494D-04  0.16276549D-04
  0.82519945D-04 -0.69334604D-15  0.41818546D-14 -0.13213366D-03 -0.30655492D-04
  0.20353175D-04  0.10302317D-04 -0.17221588D-14 -0.19784606D-14  0.63938709D-04
MO    3     MO 0.0        OCC NO =    2.0000101  ORB. ENERGY =    0.000000
 -0.15148463D+00 -0.28239786D+00 -0.47729086D+00 -0.71745719D+00 -0.88126765D+00
 -0.74375881D+00 -0.27967273D+00 -0.23229033D-04 -0.17362263D-03 -0.64886740D-03
 -0.18102390D-02 -0.24252212D-02  0.28637340D-02 -0.12253798D-01 -0.11684461D-03
 -0.10734716D-03 -0.37444146D-12 -0.35106267D-12 -0.24997753D-12 -0.29779371D-04
 -0.27920054D-04 -0.19880741D-04  0.37150246D-02  0.34830717D-02  0.24801545D-02
 -0.57209570D-13  0.29751792D-04  0.55454454D-03 -0.67884323D-14  0.81638217D-05
 -0.15641393D-03  0.16335609D-16 -0.24145657D-06 -0.38078113D-05  0.45322317D-03
 -0.44546261D-03 -0.77605643D-05 -0.14552509D-14 -0.76261495D-13 -0.43654532D-04
 -0.11580779D-03 -0.26946205D-05  0.11850241D-03  0.19308187D-14  0.68998584D-13
 -0.16095956D-04  0.12954655D-04  0.59375610D-04 -0.72330265D-04  0.10572971D-14
 -0.75650481D-14 -0.35583628D-06  0.84133478D-14 -0.56415114D-05  0.71677692D-04
  0.98445590D-14 -0.76591314D-05 -0.44956801D-03 -0.35084602D-13  0.24583666D-04
  0.23453494D-03 -0.46887384D-14 -0.42098434D-14 -0.36830099D-05  0.11881115D-03
 -0.16408890D-13 -0.18131774D-05 -0.22367756D-04  0.29038420D-13  0.12862207D-04
 -0.33406569D-03  0.12878444D-14  0.11205704D+00  0.20950193D+00  0.36208161D+00
  0.58565207D+00  0.88519351D+00  0.12190947D+01  0.14249733D+01  0.12315583D+01
  0.57477466D+00  0.77869354D-01 -0.56954767D-03  0.14081746D-02  0.18101943D-01
  0.66033286D-01  0.22279467D+00  0.48935707D+00  0.63211585D+00 -0.10158640D+00
 -0.85218911D+00 -0.46767039D+00  0.63405817D-05  0.72223168D-04  0.14996133D-03
  0.41235558D-03 -0.53466636D-04 -0.18644841D-02 -0.46503195D-02  0.38494671D-02
 -0.27759658D-01  0.11068619D-02  0.29147742D-04  0.12420518D-08  0.16295014D-08
  0.17872104D-08  0.14704628D-08  0.77514440D-09  0.20167799D-09  0.58864052D-01
  0.77226289D-01  0.84700525D-01  0.69689041D-01  0.36736100D-01  0.95580422D-02
  0.56952062D+01  0.74717867D+01  0.81949330D+01  0.67425440D+01  0.35542858D+01
  0.92475831D+00  0.65313212D-14  0.23444589D-12  0.37195429D-12  0.44168431D-12
  0.66838478D-13 -0.48643792D-12  0.44952616D-06  0.16136025D-04  0.25600208D-04
  0.30399462D-04  0.46002399D-05 -0.33479684D-04  0.36605915D-04  0.13139924D-02
  0.20846819D-02  0.24754958D-02  0.37460776D-03 -0.27263251D-02  0.96202425D-11
  0.44875045D-03  0.43847095D-01  0.24306542D-13 -0.45871429D-05 -0.11647894D-03
 -0.19406800D-14  0.43315746D-07  0.49287606D-06 -0.15130159D-03 -0.13806473D-03
  0.28936631D-03  0.39986576D-15  0.75201418D-13  0.12461102D-04 -0.11395972D-03
  0.47189739D-03 -0.35793768D-03  0.53875047D-15 -0.50921522D-13 -0.92000978D-05
  0.62338146D-05  0.20917792D-05 -0.83255937D-05 -0.30421426D-15 -0.48531926D-14
  0.61289112D-06  0.16173856D-13  0.83025222D-06 -0.43802184D-04 -0.10097115D-13
  0.22373632D-05  0.20871717D-03 -0.38424452D-13 -0.47281199D-05 -0.77310622D-04
 -0.69647713D-15  0.63656917D-15  0.21240934D-06 -0.12962644D-04  0.41819779D-14
  0.45337352D-06  0.19695084D-04 -0.60916855D-14 -0.10906015D-05  0.19192847D-04
  0.66209879D-15  0.42232123D-04  0.76167372D-04  0.11230875D-03 -0.32197722D-03
  0.27156781D-04  0.68372147D-05 -0.15703484D-13  0.17876856D-03  0.21516018D-03
  0.16644049D-13  0.16767404D-03  0.16081943D-03 -0.67162646D-14  0.80333161D-04
 -0.58055466D-04 -0.23731871D-03  0.11922931D-03  0.11808940D-03  0.13713325D-13
 -0.10920469D-13  0.44464858D-03 -0.65592253D-04  0.11845044D-04  0.53747209D-04
 -0.61064770D-14  0.14324949D-13 -0.58750876D-04  0.36287187D-04  0.65445436D-04
  0.96499257D-04 -0.39580720D-03 -0.15408756D-04  0.71753499D-05 -0.14281801D-13
 -0.16720257D-03  0.19344526D-03  0.15538031D-13 -0.87659326D-04  0.17887315D-03
 -0.94243337D-14 -0.68372979D-04 -0.57171832D-04 -0.23057611D-03  0.10171111D-03
  0.12886501D-03 -0.10274257D-13 -0.11398633D-13 -0.45099589D-03 -0.62318505D-04
  0.71421466D-05  0.55176359D-04  0.63371424D-14  0.11662308D-13  0.57693989D-04
MO    4     MO 0.0        OCC NO =    2.0000048  ORB. ENERGY =    0.000000
  0.28559039D+00  0.53239802D+00  0.89982519D+00  0.13526051D+01  0.16614331D+01
  0.14021909D+01  0.52726040D+00  0.30292949D-04  0.22642102D-03  0.84618706D-03
  0.23607302D-02  0.31627276D-02 -0.37345915D-02  0.23604714D-01 -0.51159680D-03
 -0.45140168D-05  0.13421781D-11  0.12583773D-11  0.89603961D-12  0.12606427D-03
  0.11819326D-03  0.84160645D-04  0.42415196D-02  0.39766942D-02  0.28316432D-02
  0.22241519D-12 -0.79995222D-04 -0.37425330D-03  0.20009990D-13  0.46665286D-05
 -0.30665866D-03  0.51231362D-16  0.32538720D-06 -0.39137209D-05 -0.11861905D-02
  0.61281165D-03  0.57337887D-03  0.98738346D-15  0.30913713D-12  0.88922626D-04
  0.18532585D-03  0.11327110D-03 -0.29859695D-03 -0.62997517D-14 -0.28702496D-12
  0.22449267D-04  0.88365358D-05  0.37101724D-04 -0.45938260D-04  0.81165787D-15
  0.24180302D-13  0.11246288D-05 -0.38812654D-13 -0.26537348D-05  0.41331978D-03
 -0.19959300D-13  0.18574538D-04  0.19095113D-03  0.13639726D-12 -0.10613334D-04
 -0.14309105D-02  0.72482508D-14  0.15617150D-13 -0.45070042D-05 -0.67384042D-04
  0.65561878D-13 -0.34554824D-06 -0.22537412D-04 -0.11241333D-12  0.13866561D-04
  0.22468954D-03 -0.46466012D-15  0.36870824D-01  0.68933718D-01  0.11913795D+00
  0.19270073D+00  0.29126071D+00  0.40112629D+00  0.46886779D+00  0.40522725D+00
  0.18912167D+00  0.25621836D-01 -0.18740180D-03  0.46244909D-03  0.59447365D-02
  0.21685544D-01  0.73166489D-01  0.16070644D+00  0.20758889D+00 -0.33361300D-01
 -0.27986166D+00 -0.15358447D+00  0.18377114D-05  0.20932675D-04  0.43463779D-04
  0.11951435D-03 -0.15496409D-04 -0.54038948D-03 -0.13478172D-02  0.11157036D-02
 -0.95209288D-02  0.13110726D-02  0.10635331D-03 -0.44713765D-08 -0.58661917D-08
 -0.64339427D-08 -0.52936542D-08 -0.27905135D-08 -0.72603913D-09  0.36540290D-01
  0.47938782D-01  0.52578469D-01  0.43259981D-01  0.22804202D-01  0.59332244D-02
  0.42438294D+01  0.55676629D+01  0.61065212D+01  0.50242617D+01  0.26485051D+01
  0.68909121D+00 -0.23778712D-13 -0.85355188D-12 -0.13541815D-11 -0.16080489D-11
 -0.24334019D-12  0.17709843D-11  0.53213067D-06  0.19101166D-04  0.30304479D-04
  0.35985639D-04  0.54455758D-05 -0.39631880D-04  0.31457814D-04  0.11291981D-02
  0.17915011D-02  0.21273525D-02  0.32192451D-03 -0.23429063D-02 -0.34648989D-10
  0.29419564D-03  0.33099088D-01 -0.77960831D-13 -0.95405386D-05 -0.34805807D-03
  0.70023947D-14 -0.20706482D-06 -0.46991150D-05 -0.13542480D-03 -0.23126909D-03
  0.36669389D-03 -0.21414008D-14 -0.28992544D-12  0.22963692D-04  0.98505251D-04
  0.33894687D-03 -0.43745212D-03  0.26946366D-14  0.18785828D-12 -0.13205929D-04
 -0.10380632D-04 -0.12207374D-04  0.22588006D-04 -0.10634171D-15  0.15185584D-13
  0.19937118D-05 -0.59863516D-13 -0.82111172D-06  0.53799685D-04  0.33786279D-13
  0.52204184D-06 -0.27678797D-04  0.14580427D-12  0.19412933D-05 -0.13372026D-03
  0.14825730D-14 -0.32556612D-14  0.12287177D-05 -0.36896317D-04 -0.16305009D-13
  0.16995301D-06  0.28945874D-04  0.26071993D-13 -0.38561060D-05  0.81743076D-04
  0.10293332D-14 -0.32065035D-03 -0.57830612D-03 -0.85271203D-03 -0.60601676D-03
 -0.48649325D-03 -0.71445253D-05  0.58192651D-13 -0.84659088D-03 -0.38894573D-03
 -0.81027106D-13 -0.44586504D-03 -0.31942481D-03  0.27270847D-13 -0.37331966D-04
 -0.10380385D-03  0.27006476D-03 -0.42474938D-03  0.15468462D-03 -0.70591730D-13
  0.20907284D-13 -0.96906902D-03  0.52372020D-04 -0.26361885D-04 -0.26010135D-04
  0.17698954D-13 -0.52340526D-13 -0.87018565D-04 -0.29569832D-03 -0.53330410D-03
 -0.78635658D-03 -0.47147229D-03 -0.46273805D-03 -0.70729909D-05  0.56810276D-13
  0.80431921D-03 -0.35431630D-03 -0.74642969D-13  0.37174275D-03 -0.22217296D-03
  0.24898025D-13  0.32960114D-04 -0.97225686D-04  0.27212543D-03 -0.44356092D-03
  0.17143549D-03  0.62694930D-13  0.26563069D-13  0.92760032D-03  0.46645616D-04
 -0.22830223D-04 -0.23815393D-04 -0.17156787D-13 -0.50412243D-13  0.70819209D-04
MO    5     MO 0.0        OCC NO =    2.0000043  ORB. ENERGY =    0.000000
  0.14953475D-09  0.27876289D-09  0.47114727D-09  0.70822222D-09  0.86992414D-09
  0.73418529D-09  0.27607284D-09  0.16580531D-13  0.12392920D-12  0.46315170D-12
  0.12921211D-11  0.17310861D-11 -0.20440899D-11  0.12331602D-10 -0.25820839D-12
  0.20091795D-13 -0.29441159D-02 -0.27602958D-02 -0.19654950D-02 -0.59478468D-13
 -0.55764844D-13 -0.39707891D-13  0.15131077D-11  0.14186346D-11  0.10101524D-11
 -0.49248316D-03 -0.10480184D-12 -0.23468931D-12 -0.49210385D-04  0.12669379D-12
 -0.10192284D-12 -0.19455202D-06  0.23365958D-14 -0.46135414D-16 -0.60514256D-12
  0.34036723D-12  0.26477533D-12 -0.31394406D-05 -0.66417059D-03 -0.44753566D-13
  0.10396604D-12  0.50274080D-13 -0.15424012D-12  0.11943185D-04  0.61519446D-03
  0.17339300D-13  0.25147395D-14  0.84690229D-14 -0.10983762D-13 -0.76981824D-06
 -0.53851022D-04 -0.14970379D-13  0.83935133D-04  0.12809706D-13  0.18191524D-12
  0.44175643D-04  0.28034882D-13  0.14047910D-12 -0.29598104D-03 -0.66464001D-13
 -0.68622481D-12 -0.15753357D-04 -0.33420140D-04 -0.10102535D-13 -0.45867631D-13
 -0.14152122D-03 -0.98908799D-14 -0.90650050D-14  0.24178164D-03  0.40198486D-13
  0.14666790D-12  0.27576581D-05  0.30411194D-10  0.56856791D-10  0.98265434D-10
  0.15894029D-09  0.24023293D-09  0.33085048D-09  0.38672392D-09  0.33423296D-09
  0.15598827D-09  0.21132987D-10 -0.15456971D-12 -0.50456628D-14 -0.64861488D-13
 -0.23660538D-12 -0.79830070D-12 -0.17534265D-11 -0.22649488D-11  0.36399655D-12
  0.30534984D-11  0.16757205D-11 -0.22194483D-15 -0.25280896D-14 -0.52492254D-14
 -0.14434037D-13  0.18715386D-14  0.65264141D-13  0.16277913D-12 -0.13474621D-12
 -0.15510998D-12  0.43285772D-12  0.26214722D-13  0.97155646D+01  0.12746268D+02
  0.13979898D+02  0.11502239D+02  0.60633262D+01  0.15775634D+01  0.86204904D-09
  0.11309593D-08  0.12404176D-08  0.10205782D-08  0.53799082D-09  0.13997509D-09
  0.13774629D-08  0.18071530D-08  0.19820557D-08  0.16307757D-08  0.85965224D-09
  0.22366534D-09  0.51730225D-04  0.18568891D-02  0.29460011D-02  0.34982859D-02
  0.52938287D-03 -0.38527493D-02  0.85561548D-14  0.30712858D-12  0.48726719D-12
  0.57861484D-12  0.87559676D-13 -0.63724291D-12  0.10901490D-13  0.39131588D-12
  0.62083245D-12  0.73721949D-12  0.11156074D-12 -0.81191816D-12  0.75267245D-01
  0.58868993D-11  0.10740379D-10  0.17216433D-03 -0.56874395D-13 -0.14034137D-12
 -0.15198936D-04 -0.25441018D-14 -0.14845313D-14 -0.46943316D-13 -0.89187585D-13
  0.13613090D-12  0.42175620D-05  0.62531458D-03  0.76135339D-13  0.67758875D-13
  0.85630185D-13 -0.15338906D-12 -0.48353119D-05 -0.40085754D-03 -0.95107839D-13
 -0.51836811D-14 -0.58620090D-14  0.11045690D-13 -0.66055531D-07 -0.34049888D-04
 -0.93091562D-15  0.13001208D-03 -0.90378345D-15  0.29811413D-13 -0.73672434D-04
  0.11397239D-13 -0.37621775D-13 -0.31636381D-03 -0.86858890D-14 -0.51812464D-13
 -0.24267584D-05  0.67241301D-05  0.35659737D-14 -0.15613100D-13  0.35142189D-04
 -0.29715469D-15  0.11020319D-13 -0.55314579D-04 -0.10400766D-13  0.35818982D-13
 -0.14179894D-05 -0.16079133D-12 -0.28999378D-12 -0.42759567D-12 -0.21977877D-12
 -0.30566602D-13 -0.24987375D-14 -0.12790282D-03 -0.41799473D-12 -0.17385127D-12
  0.17281936D-03 -0.22400260D-12 -0.20931845D-12 -0.58423814D-04 -0.22194620D-14
 -0.27998384D-13  0.14935762D-12 -0.22024941D-12  0.70891789D-13  0.14644699D-03
 -0.53535274D-04 -0.50291494D-12  0.35287915D-13 -0.15460240D-13 -0.19827675D-13
 -0.38943844D-04  0.11398915D-03 -0.46000306D-13 -0.13180768D-12 -0.23772059D-12
 -0.35051886D-12 -0.15336482D-12 -0.36364526D-12 -0.50331615D-14 -0.12747589D-03
  0.38796497D-12 -0.20579815D-12  0.16344323D-03  0.17648428D-12 -0.85679416D-13
 -0.55809704D-04  0.44726046D-13 -0.44513089D-13  0.15415080D-12 -0.20367392D-12
  0.49523118D-13 -0.13477335D-03 -0.60922285D-04  0.48123597D-12  0.27188634D-13
 -0.10144190D-13 -0.17044444D-13  0.37443115D-04  0.10842423D-03  0.14727134D-13
MO    6     MO 0.0        OCC NO =    2.0000000  ORB. ENERGY =    0.000000
 -0.80937429D-04 -0.15088367D-03 -0.25501396D-03 -0.38333355D-03 -0.47085661D-03
 -0.39738637D-03 -0.14942765D-03  0.49190814D-07  0.36767086D-06  0.13740700D-05
  0.38334412D-05  0.51357544D-05 -0.60643683D-05  0.16828014D-05 -0.30847952D-04
 -0.72474313D-05  0.15432115D-12  0.14468588D-12  0.10302497D-12  0.50278205D-07
  0.47139013D-07  0.33565786D-07  0.14556355D-04  0.13647508D-04  0.97178384D-05
  0.27391702D-13 -0.78818542D-06 -0.38200649D-04  0.44780693D-14  0.63947708D-06
  0.41154960D-05  0.15194909D-15  0.35419381D-08 -0.38987573D-06  0.14515073D-05
  0.89217787D-05 -0.10373286D-04  0.23137561D-14  0.34491350D-13  0.61584664D-07
  0.63152395D-05  0.43187701D-05 -0.10634010D-04 -0.17254717D-14 -0.36832853D-13
 -0.33294379D-06  0.63645098D-06 -0.91669667D-06  0.28024569D-06 -0.39328928D-15
  0.24539578D-14  0.65441669D-07 -0.53781668D-14 -0.21584915D-06  0.21246486D-05
  0.85005660D-15  0.20011127D-06  0.38454023D-06  0.15284444D-13  0.44743618D-06
 -0.67584862D-05 -0.19586409D-14  0.16999788D-14 -0.17838511D-06 -0.38194877D-06
  0.82904629D-14 -0.38320601D-07  0.61428566D-06 -0.13390399D-13  0.57347594D-06
  0.53156066D-06  0.33017648D-15  0.58266941D+00  0.10893592D+01  0.18827364D+01
  0.30452485D+01  0.46027913D+01  0.63389965D+01  0.74095150D+01  0.64038039D+01
  0.29886886D+01  0.40490173D+00 -0.29615096D-02 -0.29343291D-04 -0.37720506D-03
 -0.13759898D-02 -0.46425556D-02 -0.10197135D-01 -0.13171917D-01  0.21168392D-02
  0.17757765D-01  0.97452322D-02  0.19752507D-06  0.22499333D-05  0.46716726D-05
  0.12845913D-04 -0.16656202D-05 -0.58083369D-04 -0.14486915D-03  0.11992058D-03
  0.13969495D-04 -0.17647939D-04  0.32801618D-05 -0.51156536D-09 -0.67114466D-09
 -0.73610044D-09 -0.60564127D-09 -0.31925964D-09 -0.83065353D-10  0.82073875D-04
  0.10767626D-03  0.11809755D-03  0.97167107D-04  0.51220974D-04  0.13326734D-04
  0.11195324D-01  0.14687629D-01  0.16109150D-01  0.13254123D-01  0.69868202D-02
  0.18178392D-02 -0.27496838D-14 -0.98701636D-13 -0.15659262D-12 -0.18594893D-12
 -0.28138975D-13  0.20479018D-12  0.12881769D-07  0.46239924D-06  0.73360799D-06
  0.87113698D-06  0.13182599D-06 -0.95940483D-06  0.70495075D-06  0.25304652D-04
  0.40146465D-04  0.47672696D-04  0.72141354D-05 -0.52503126D-04 -0.39673153D-11
  0.16142234D-05  0.16290476D-03 -0.88585063D-14 -0.22982903D-06  0.52624540D-05
  0.73709758D-15 -0.50087790D-08 -0.34232607D-07 -0.58190401D-05 -0.37568165D-05
  0.95758566D-05 -0.32172728D-15 -0.35084395D-13  0.63131782D-06  0.91731459D-05
 -0.15971855D-04  0.67987095D-05 -0.27600434D-15  0.23119540D-13  0.42311527D-06
  0.59323748D-06  0.49048086D-06 -0.10837183D-05  0.47032922D-17  0.18155708D-14
  0.45250766D-07 -0.71052578D-14  0.10465226D-06 -0.69839149D-05  0.24671718D-14
  0.85884968D-07  0.12191466D-04  0.18848602D-13 -0.39984173D-06  0.87602789D-05
 -0.74304778D-15 -0.41835063D-15  0.16681615D-07 -0.59126866D-07 -0.19036835D-14
  0.14620477D-07 -0.70807736D-08  0.31587354D-14 -0.64665322D-07  0.18446137D-06
 -0.84581916D-16 -0.12551664D-05 -0.22637442D-05 -0.33378895D-05  0.32186036D-05
  0.17996072D-04  0.24055830D-06  0.82369294D-14 -0.58875212D-05 -0.13707116D-05
 -0.13605955D-13  0.13978475D-05 -0.25461408D-05  0.12978175D-14  0.80830547D-06
  0.25847344D-05 -0.24099297D-05 -0.11641596D-05  0.35740893D-05 -0.97170684D-14
 -0.22284872D-14 -0.26160694D-05 -0.20092733D-07 -0.40313785D-06  0.42323059D-06
  0.23907195D-15 -0.72965665D-14 -0.19789476D-05 -0.12159799D-05 -0.21930698D-05
 -0.32336802D-05  0.28441315D-05  0.16861733D-04  0.23515364D-06  0.86762897D-14
  0.57682006D-05 -0.15894687D-05 -0.11152879D-13 -0.62904654D-06 -0.33112102D-06
  0.26515200D-14 -0.71079543D-06  0.24598389D-05 -0.24679885D-05 -0.20258139D-05
  0.44938024D-05  0.11268496D-13  0.80555099D-15  0.15338651D-05 -0.55123446D-07