 Entering Gaussian System, Link 0=/home/bruns/programas/chemistry/gaussian/g09/g09
 Input=GAUSSIAN.com
 Output=GAUSSIAN.log
 Initial command:
 /home/bruns/programas/chemistry/gaussian/g09/l1.exe /home/bruns/programas/chemistry/gaussian/work/Gau-26106.inp -scrdir=/home/bruns/programas/chemistry/gaussian/work/
 Entering Link 1 = /home/bruns/programas/chemistry/gaussian/g09/l1.exe PID=     26108.
  
 Copyright (c) 1988,1990,1992,1993,1995,1998,2003,2009,2010,
            Gaussian, Inc.  All Rights Reserved.
  
 This is part of the Gaussian(R) 09 program.  It is based on
 the Gaussian(R) 03 system (copyright 2003, Gaussian, Inc.),
 the Gaussian(R) 98 system (copyright 1998, Gaussian, Inc.),
 the Gaussian(R) 94 system (copyright 1995, Gaussian, Inc.),
 the Gaussian 92(TM) system (copyright 1992, Gaussian, Inc.),
 the Gaussian 90(TM) system (copyright 1990, Gaussian, Inc.),
 the Gaussian 88(TM) system (copyright 1988, Gaussian, Inc.),
 the Gaussian 86(TM) system (copyright 1986, Carnegie Mellon
 University), and the Gaussian 82(TM) system (copyright 1983,
 Carnegie Mellon University). Gaussian is a federally registered
 trademark of Gaussian, Inc.
  
 This software contains proprietary and confidential information,
 including trade secrets, belonging to Gaussian, Inc.
  
 This software is provided under written license and may be
 used, copied, transmitted, or stored only in accord with that
 written license.
  
 The following legend is applicable only to US Government
 contracts under FAR:
  
                    RESTRICTED RIGHTS LEGEND
  
 Use, reproduction and disclosure by the US Government is
 subject to restrictions as set forth in subparagraphs (a)
 and (c) of the Commercial Computer Software - Restricted
 Rights clause in FAR 52.227-19.
  
 Gaussian, Inc.
 340 Quinnipiac St., Bldg. 40, Wallingford CT 06492
  
  
 ---------------------------------------------------------------
 Warning -- This program may not be used in any manner that
 competes with the business of Gaussian, Inc. or will provide
 assistance to any competitor of Gaussian, Inc.  The licensee
 of this program is prohibited from giving any competitor of
 Gaussian, Inc. access to this program.  By using this program,
 the user acknowledges that Gaussian, Inc. is engaged in the
 business of creating and licensing software in the field of
 computational chemistry and represents and warrants to the
 licensee that it is not a competitor of Gaussian, Inc. and that
 it will not use this program in any manner prohibited above.
 ---------------------------------------------------------------
  

 Cite this work as:
 Gaussian 09, Revision B.01,
 M. J. Frisch, G. W. Trucks, H. B. Schlegel, G. E. Scuseria, 
 M. A. Robb, J. R. Cheeseman, G. Scalmani, V. Barone, B. Mennucci, 
 G. A. Petersson, H. Nakatsuji, M. Caricato, X. Li, H. P. Hratchian, 
 A. F. Izmaylov, J. Bloino, G. Zheng, J. L. Sonnenberg, M. Hada, 
 M. Ehara, K. Toyota, R. Fukuda, J. Hasegawa, M. Ishida, T. Nakajima, 
 Y. Honda, O. Kitao, H. Nakai, T. Vreven, J. A. Montgomery, Jr., 
 J. E. Peralta, F. Ogliaro, M. Bearpark, J. J. Heyd, E. Brothers, 
 K. N. Kudin, V. N. Staroverov, T. Keith, R. Kobayashi, J. Normand, 
 K. Raghavachari, A. Rendell, J. C. Burant, S. S. Iyengar, J. Tomasi, 
 M. Cossi, N. Rega, J. M. Millam, M. Klene, J. E. Knox, J. B. Cross, 
 V. Bakken, C. Adamo, J. Jaramillo, R. Gomperts, R. E. Stratmann, 
 O. Yazyev, A. J. Austin, R. Cammi, C. Pomelli, J. W. Ochterski, 
 R. L. Martin, K. Morokuma, V. G. Zakrzewski, G. A. Voth, 
 P. Salvador, J. J. Dannenberg, S. Dapprich, A. D. Daniels, 
 O. Farkas, J. B. Foresman, J. V. Ortiz, J. Cioslowski, 
 and D. J. Fox, Gaussian, Inc., Wallingford CT, 2010.
 
 ******************************************
 Gaussian 09:  EM64L-G09RevB.01 12-Aug-2010
                17-Nov-2021 
 ******************************************
 %nproc=8
 Will use up to    8 processors via shared memory.
 %mem=8GB
 -----------------------------------------------------
 # qcisd/aug-cc-pvtz nosymm density=current output=wfn
 -----------------------------------------------------
 1/30=1,38=1/1;
 2/12=2,15=1,17=6,18=5,40=1/2;
 3/5=16,6=1,7=10,11=9,16=1,25=1,30=1,71=1/1,2,3;
 4//1;
 5/5=2,38=5/2;
 8/6=4,9=120000,10=1/1,4;
 9/5=8,15=1/13;
 11/28=-7,31=1,32=3,42=3/11;
 10/5=6,13=10,31=1/2;
 6/7=2,8=2,9=2,10=2,22=-1,31=1/1;
 99/5=1,6=1100,9=1/99;
 -----------------
 h2cs-wavefunction
 -----------------
 Symbolic Z-matrix:
 Charge =  0 Multiplicity = 1
 C                     0.        0.       -0.55529 
 S                     0.        0.        1.07037 
 H                     0.       -0.92228  -1.12899 
 H                     0.        0.92228  -1.12899 
 
                          Input orientation:                          
 ---------------------------------------------------------------------
 Center     Atomic      Atomic             Coordinates (Angstroms)
 Number     Number       Type             X           Y           Z
 ---------------------------------------------------------------------
      1          6           0        0.000000    0.000000   -0.555291
      2         16           0        0.000000    0.000000    1.070374
      3          1           0        0.000000   -0.922280   -1.128992
      4          1           0        0.000000    0.922280   -1.128992
 ---------------------------------------------------------------------
                    Distance matrix (angstroms):
                    1          2          3          4
     1  C    0.000000
     2  S    1.625665   0.000000
     3  H    1.086155   2.384913   0.000000
     4  H    1.086155   2.384913   1.844560   0.000000
 Symmetry turned off by external request.
 Stoichiometry    CH2S
 Framework group  C2V[C2(CS),SGV(H2)]
 Deg. of freedom     3
 Full point group                 C2V     NOp   4
 Rotational constants (GHZ):    294.7653806     17.4269520     16.4541586
 Standard basis: Aug-CC-pVTZ (5D, 7F)
 Integral buffers will be    131072 words long.
 Raffenetti 1 integral format.
 Two-electron integral symmetry is turned off.
   142 basis functions,   240 primitive gaussians,   164 cartesian basis functions
    12 alpha electrons       12 beta electrons
       nuclear repulsion energy        44.4830143739 Hartrees.
 NAtoms=    4 NActive=    4 NUniq=    4 SFac= 1.00D+00 NAtFMM=   50 NAOKFM=F Big=F
 One-electron integrals computed using PRISM.
 NBasis=   142 RedAO= T  NBF=   142
 NBsUse=   142 1.00D-06 NBFU=   142
 Harris functional with IExCor=  205 diagonalized for initial guess.
 ExpMin= 2.53D-02 ExpMax= 3.74D+05 ExpMxC= 1.18D+03 IAcc=3 IRadAn=         0 AccDes= 0.00D+00
 HarFok:  IExCor=  205 AccDes= 0.00D+00 IRadAn=         0 IDoV= 1
 ScaDFX=  1.000000  1.000000  1.000000  1.000000
 FoFCou: FMM=F IPFlag=           0 FMFlag=      100000 FMFlg1=           0
         NFxFlg=           0 DoJE=T BraDBF=F KetDBF=T FulRan=T
         Omega=  0.000000  0.000000  1.000000  0.000000  0.000000 ICntrl=     500 IOpCl=  0
         NMat0=    1 NMatS0=    1 NMatT0=    0 NMatD0=    1 NMtDS0=    0 NMtDT0=    0
         I1Cent=           4 NGrid=           0.
 Symmetry not used in FoFCou.
 Requested convergence on RMS density matrix=1.00D-08 within 128 cycles.
 Requested convergence on MAX density matrix=1.00D-06.
 Requested convergence on             energy=1.00D-06.
 No special actions if energy rises.
 Keep R1 ints in memory in canonical form, NReq=93884347.
 SCF Done:  E(RHF) =  -436.557127692     A.U. after   11 cycles
             Convg  =    0.7167D-08             -V/T =  2.0003
 ExpMin= 2.53D-02 ExpMax= 3.74D+05 ExpMxC= 1.18D+03 IAcc=3 IRadAn=         5 AccDes= 0.00D+00
 HarFok:  IExCor=  205 AccDes= 0.00D+00 IRadAn=         5 IDoV=-2
 ScaDFX=  1.000000  1.000000  1.000000  1.000000
 Range of M.O.s used for correlation:     7   142
 NBasis=   142 NAE=    12 NBE=    12 NFC=     6 NFV=     0
 NROrb=    136 NOA=     6 NOB=     6 NVA=   130 NVB=   130

 **** Warning!!: The largest alpha MO coefficient is  0.44570626D+02

 Semi-Direct transformation.
 ModeAB=           2 MOrb=             6 LenV=    1073082051
 LASXX=      7286295 LTotXX=     7286295 LenRXX=     7286295
 LTotAB=     7445736 MaxLAS=    11040480 LenRXY=    11040480
 NonZer=    14572590 LenScr=    22628352 LnRSAI=           0
 LnScr1=           0 LExtra=           0 Total=     40955127
 MaxDsk=          -1 SrtSym=           F ITran=            4
 JobTyp=0 Pass  1:  I=   1 to   6.
 (rs|ai) integrals will be sorted in core.
 Spin components of T(2) and E(2):
     alpha-alpha T2 =       0.1692532861D-01 E2=     -0.3870427369D-01
     alpha-beta  T2 =       0.1058037247D+00 E2=     -0.2638241096D+00
     beta-beta   T2 =       0.1692532861D-01 E2=     -0.3870427369D-01
 ANorm=    0.1067545962D+01
 E2 =    -0.3412326570D+00 EUMP2 =    -0.43689836034913D+03
 R2 and R3 integrals will be kept in memory, NReq=   185320410.
 Iterations=  50 Convergence= 0.100D-07
 Iteration Nr.   1
 **********************
 DD1Dir will call FoFMem   1 times, MxPair=        42
 NAB=    21 NAA=     0 NBB=     0.
 MP4(R+Q)=  0.11748991D-01
 E3=       -0.22726500D-01        EUMP3=      -0.43692108685D+03
 E4(DQ)=    0.16618552D-02        UMP4(DQ)=   -0.43691942499D+03
 E4(SDQ)=  -0.19156004D-02        UMP4(SDQ)=  -0.43692300245D+03
 DE(Corr)= -0.35221017     E(Corr)=     -436.90933786    
 NORM(A)=   0.10741750D+01
 Iteration Nr.   2
 **********************
 DD1Dir will call FoFMem   1 times, MxPair=        42
 NAB=    21 NAA=     0 NBB=     0.
 DE(Corr)= -0.36379353     E(CORR)=     -436.92092123     Delta=-1.16D-02
 NORM(A)=   0.10816745D+01
 Iteration Nr.   3
 **********************
 DD1Dir will call FoFMem   1 times, MxPair=        42
 NAB=    21 NAA=     0 NBB=     0.
 DE(Corr)= -0.36469379     E(CORR)=     -436.92182148     Delta=-9.00D-04
 NORM(A)=   0.10842154D+01
 Iteration Nr.   4
 **********************
 DD1Dir will call FoFMem   1 times, MxPair=        42
 NAB=    21 NAA=     0 NBB=     0.
 DE(Corr)= -0.36606643     E(CORR)=     -436.92319412     Delta=-1.37D-03
 NORM(A)=   0.10852723D+01
 Iteration Nr.   5
 **********************
 DD1Dir will call FoFMem   1 times, MxPair=        42
 NAB=    21 NAA=     0 NBB=     0.
 DE(Corr)= -0.36627499     E(CORR)=     -436.92340268     Delta=-2.09D-04
 NORM(A)=   0.10856632D+01
 Iteration Nr.   6
 **********************
 DD1Dir will call FoFMem   1 times, MxPair=        42
 NAB=    21 NAA=     0 NBB=     0.
 DE(Corr)= -0.36630917     E(CORR)=     -436.92343686     Delta=-3.42D-05
 NORM(A)=   0.10856803D+01
 Iteration Nr.   7
 **********************
 DD1Dir will call FoFMem   1 times, MxPair=        42
 NAB=    21 NAA=     0 NBB=     0.
 DE(Corr)= -0.36631073     E(CORR)=     -436.92343842     Delta=-1.56D-06
 NORM(A)=   0.10856927D+01
 Iteration Nr.   8
 **********************
 DD1Dir will call FoFMem   1 times, MxPair=        42
 NAB=    21 NAA=     0 NBB=     0.
 DE(Corr)= -0.36630762     E(CORR)=     -436.92343531     Delta= 3.11D-06
 NORM(A)=   0.10856918D+01
 Iteration Nr.   9
 **********************
 DD1Dir will call FoFMem   1 times, MxPair=        42
 NAB=    21 NAA=     0 NBB=     0.
 DE(Corr)= -0.36631022     E(CORR)=     -436.92343791     Delta=-2.60D-06
 NORM(A)=   0.10856931D+01
 Iteration Nr.  10
 **********************
 DD1Dir will call FoFMem   1 times, MxPair=        42
 NAB=    21 NAA=     0 NBB=     0.
 DE(Corr)= -0.36630985     E(CORR)=     -436.92343754     Delta= 3.67D-07
 NORM(A)=   0.10856940D+01
 Iteration Nr.  11
 **********************
 DD1Dir will call FoFMem   1 times, MxPair=        42
 NAB=    21 NAA=     0 NBB=     0.
 DE(Corr)= -0.36631041     E(CORR)=     -436.92343810     Delta=-5.57D-07
 NORM(A)=   0.10856945D+01
 Iteration Nr.  12
 **********************
 DD1Dir will call FoFMem   1 times, MxPair=        42
 NAB=    21 NAA=     0 NBB=     0.
 DE(Corr)= -0.36631052     E(CORR)=     -436.92343821     Delta=-1.11D-07
 NORM(A)=   0.10856950D+01
 Iteration Nr.  13
 **********************
 DD1Dir will call FoFMem   1 times, MxPair=        42
 NAB=    21 NAA=     0 NBB=     0.
 DE(Corr)= -0.36631061     E(CORR)=     -436.92343831     Delta=-9.53D-08
 NORM(A)=   0.10856951D+01
 Iteration Nr.  14
 **********************
 DD1Dir will call FoFMem   1 times, MxPair=        42
 NAB=    21 NAA=     0 NBB=     0.
 DE(Corr)= -0.36631065     E(CORR)=     -436.92343834     Delta=-3.16D-08
 NORM(A)=   0.10856952D+01
 Iteration Nr.  15
 **********************
 DD1Dir will call FoFMem   1 times, MxPair=        42
 NAB=    21 NAA=     0 NBB=     0.
 DE(Corr)= -0.36631065     E(CORR)=     -436.92343835     Delta=-9.71D-09
 NORM(A)=   0.10856952D+01
 Iteration Nr.  16
 **********************
 DD1Dir will call FoFMem   1 times, MxPair=        42
 NAB=    21 NAA=     0 NBB=     0.
 DE(Corr)= -0.36631066     E(CORR)=     -436.92343835     Delta=-1.75D-09
 NORM(A)=   0.10856952D+01
 Dominant configurations:
 ***********************
 Spin Case        I    J    A    B          Value
   ABAB          11   11   14   14      -0.116764D+00
 Largest amplitude= 1.17D-01

 Z-AMPLITUDE ITERATIONS

 Iteration Nr.   1
 **********************
 DD1Dir will call FoFMem   1 times, MxPair=        42
 NAB=    21 NAA=     0 NBB=     0.
 DE(Z)  -0.35011626D+00          E(Z)=    -0.43690724396D+03
 NORM(A)=   0.10856886D+01
 Iteration Nr.   2
 **********************
 DD1Dir will call FoFMem   1 times, MxPair=        42
 NAB=    21 NAA=     0 NBB=     0.
 DE(Z)  -0.35011598D+00          E(Z)=    -0.43690724367D+03
 NORM(A)=   0.10857048D+01
 Iteration Nr.   3
 **********************
 DD1Dir will call FoFMem   1 times, MxPair=        42
 NAB=    21 NAA=     0 NBB=     0.
 DE(Z)  -0.35011669D+00          E(Z)=    -0.43690724438D+03
 NORM(A)=   0.10856906D+01
 Iteration Nr.   4
 **********************
 DD1Dir will call FoFMem   1 times, MxPair=        42
 NAB=    21 NAA=     0 NBB=     0.
 DE(Z)  -0.35011606D+00          E(Z)=    -0.43690724375D+03
 NORM(A)=   0.10856743D+01
 Iteration Nr.   5
 **********************
 DD1Dir will call FoFMem   1 times, MxPair=        42
 NAB=    21 NAA=     0 NBB=     0.
 DE(Z)  -0.35011531D+00          E(Z)=    -0.43690724301D+03
 NORM(A)=   0.10773118D+01
 Iteration Nr.   6
 **********************
 DD1Dir will call FoFMem   1 times, MxPair=        42
 NAB=    21 NAA=     0 NBB=     0.
 DE(Z)  -0.34972693D+00          E(Z)=    -0.43690685462D+03
 NORM(A)=   0.10773085D+01
 Iteration Nr.   7
 **********************
 DD1Dir will call FoFMem   1 times, MxPair=        42
 NAB=    21 NAA=     0 NBB=     0.
 DE(Z)  -0.34972529D+00          E(Z)=    -0.43690685298D+03
 NORM(A)=   0.10773062D+01
 Iteration Nr.   8
 **********************
 DD1Dir will call FoFMem   1 times, MxPair=        42
 NAB=    21 NAA=     0 NBB=     0.
 DE(Z)  -0.34972532D+00          E(Z)=    -0.43690685301D+03
 NORM(A)=   0.10773062D+01
 Iteration Nr.   9
 **********************
 DD1Dir will call FoFMem   1 times, MxPair=        42
 NAB=    21 NAA=     0 NBB=     0.
 DE(Z)  -0.34972525D+00          E(Z)=    -0.43690685294D+03
 NORM(A)=   0.10773061D+01
 Iteration Nr.  10
 **********************
 DD1Dir will call FoFMem   1 times, MxPair=        42
 NAB=    21 NAA=     0 NBB=     0.
 DE(Z)  -0.34972528D+00          E(Z)=    -0.43690685297D+03
 NORM(A)=   0.10773062D+01
 Iteration Nr.  11
 **********************
 DD1Dir will call FoFMem   1 times, MxPair=        42
 NAB=    21 NAA=     0 NBB=     0.
 DE(Z)  -0.34972527D+00          E(Z)=    -0.43690685297D+03
 NORM(A)=   0.10773062D+01
 Discarding MO integrals.
          Differentiating once with respect to electric field.
                with respect to dipole field.
          Electric field/nuclear overlap derivatives assumed to be zero.
          Keep R1 ints in memory in canonical form, NReq=93478140.
          There are     1 degrees of freedom in the 1st order CPHF.  IDoFFX=0.
 LinEq1:  Iter=  0 NonCon=     1 RMS=2.98D-03 Max=4.43D-02
 AX will form     1 AO Fock derivatives at one time.
 LinEq1:  Iter=  1 NonCon=     1 RMS=9.95D-04 Max=1.23D-02
 LinEq1:  Iter=  2 NonCon=     1 RMS=4.89D-04 Max=1.37D-02
 LinEq1:  Iter=  3 NonCon=     1 RMS=1.66D-04 Max=2.57D-03
 LinEq1:  Iter=  4 NonCon=     1 RMS=4.11D-05 Max=5.32D-04
 LinEq1:  Iter=  5 NonCon=     1 RMS=8.97D-06 Max=1.04D-04
 LinEq1:  Iter=  6 NonCon=     1 RMS=1.58D-06 Max=2.26D-05
 LinEq1:  Iter=  7 NonCon=     1 RMS=2.07D-07 Max=2.78D-06
 LinEq1:  Iter=  8 NonCon=     1 RMS=2.40D-08 Max=2.33D-07
 LinEq1:  Iter=  9 NonCon=     1 RMS=3.82D-09 Max=3.85D-08
 LinEq1:  Iter= 10 NonCon=     1 RMS=5.33D-10 Max=5.97D-09
 LinEq1:  Iter= 11 NonCon=     0 RMS=6.52D-11 Max=6.60D-10
 Linear equations converged to 1.000D-10 1.000D-09 after    11 iterations.
 End of Minotr Frequency-dependent properties file   721 does not exist.
 End of Minotr Frequency-dependent properties file   722 does not exist.

 **********************************************************************

            Population analysis using the QCI/CC density.

 **********************************************************************

     Natural Orbital Coefficients:
                           1         2         3         4         5
     Eigenvalues --     2.00003   2.00002   2.00001   2.00000   2.00000
   1 1   C  1S          0.00000  -0.15614  -0.47078   0.84656   0.00000
   2        2S          0.00000   0.00294   0.00815  -0.01031   0.00000
   3        3S          0.00000  -0.00623  -0.01921   0.03529   0.00000
   4        4S          0.00000  -0.00343  -0.00087  -0.00342   0.00000
   5        5S          0.00000  -0.00049  -0.00157  -0.00013   0.00000
   6        6PX         0.00000   0.00000   0.00000   0.00000  -0.00132
   7        6PY        -0.00064   0.00000   0.00000   0.00000   0.00000
   8        6PZ         0.00000   0.00104   0.00163   0.00196   0.00000
   9        7PX         0.00000   0.00000   0.00000   0.00000  -0.00114
  10        7PY        -0.00134   0.00000   0.00000   0.00000   0.00000
  11        7PZ         0.00000   0.00011   0.00127  -0.00091   0.00000
  12        8PX         0.00000   0.00000   0.00000   0.00000  -0.00049
  13        8PY         0.01573   0.00000   0.00000   0.00000   0.00000
  14        8PZ         0.00000  -0.00580  -0.00160  -0.00321   0.00000
  15        9PX         0.00000   0.00000   0.00000   0.00000  -0.00001
  16        9PY         0.00131   0.00000   0.00000   0.00000   0.00000
  17        9PZ         0.00000  -0.00001  -0.00017  -0.00020   0.00000
  18       10D 0        0.00000  -0.00003  -0.00001   0.00028   0.00000
  19       10D+1        0.00000   0.00000   0.00000   0.00000  -0.00019
  20       10D-1       -0.00031   0.00000   0.00000   0.00000   0.00000
  21       10D+2        0.00000   0.00010   0.00028  -0.00053   0.00000
  22       10D-2        0.00000   0.00000   0.00000   0.00000   0.00000
  23       11D 0        0.00000  -0.00084   0.00051  -0.00140   0.00000
  24       11D+1        0.00000   0.00000   0.00000   0.00000   0.00156
  25       11D-1        0.00007   0.00000   0.00000   0.00000   0.00000
  26       11D+2        0.00000  -0.00027  -0.00029   0.00018   0.00000
  27       11D-2        0.00000   0.00000   0.00000   0.00000   0.00000
  28       12D 0        0.00000  -0.00326  -0.00252  -0.00167   0.00000
  29       12D+1        0.00000   0.00000   0.00000   0.00000  -0.00107
  30       12D-1       -0.00420   0.00000   0.00000   0.00000   0.00000
  31       12D+2        0.00000  -0.00146  -0.00094  -0.00059   0.00000
  32       12D-2        0.00000   0.00000   0.00000   0.00000   0.00000
  33       13F 0        0.00000   0.00001   0.00009   0.00051   0.00000
  34       13F+1        0.00000   0.00000   0.00000   0.00000  -0.00015
  35       13F-1       -0.00035   0.00000   0.00000   0.00000   0.00000
  36       13F+2        0.00000  -0.00010  -0.00023   0.00052   0.00000
  37       13F-2        0.00000   0.00000   0.00000   0.00000   0.00000
  38       13F+3        0.00000   0.00000   0.00000   0.00000   0.00001
  39       13F-3        0.00001   0.00000   0.00000   0.00000   0.00000
  40       14F 0        0.00000   0.00073   0.00155  -0.00087   0.00000
  41       14F+1        0.00000   0.00000   0.00000   0.00000   0.00129
  42       14F-1        0.00197   0.00000   0.00000   0.00000   0.00000
  43       14F+2        0.00000   0.00065   0.00107  -0.00081   0.00000
  44       14F-2        0.00000   0.00000   0.00000   0.00000   0.00000
  45       14F+3        0.00000   0.00000   0.00000   0.00000   0.00045
  46       14F-3       -0.00017   0.00000   0.00000   0.00000   0.00000
  47 2   S  1S          0.00000  -0.21068   0.18703   0.06526   0.00000
  48        2S          0.00000   0.71965  -0.64453  -0.22448   0.00000
  49        3S          0.00000  -0.02043   0.00988   0.00306   0.00000
  50        4S          0.00000   0.04828  -0.04595  -0.01672   0.00000
  51        5S          0.00000   0.00691   0.00705   0.00868   0.00000
  52        6S          0.00000  -0.00005   0.00036   0.00149   0.00000
  53        7PX         0.00000   0.00000   0.00000   0.00000   0.97148
  54        7PY         0.97718   0.00000   0.00000   0.00000   0.00000
  55        7PZ         0.00000   0.65391   0.57325   0.43733   0.00000
  56        8PX         0.00000   0.00000   0.00000   0.00000  -0.01094
  57        8PY        -0.02049   0.00000   0.00000   0.00000   0.00000
  58        8PZ         0.00000  -0.01164  -0.00780  -0.00693   0.00000
  59        9PX         0.00000   0.00000   0.00000   0.00000   0.06293
  60        9PY         0.05560   0.00000   0.00000   0.00000   0.00000
  61        9PZ         0.00000   0.03994   0.03691   0.02854   0.00000
  62       10PX         0.00000   0.00000   0.00000   0.00000   0.00194
  63       10PY        -0.00639   0.00000   0.00000   0.00000   0.00000
  64       10PZ         0.00000  -0.00694  -0.00129  -0.00398   0.00000
  65       11PX         0.00000   0.00000   0.00000   0.00000  -0.00070
  66       11PY        -0.00126   0.00000   0.00000   0.00000   0.00000
  67       11PZ         0.00000  -0.00005   0.00003  -0.00022   0.00000
  68       12D 0        0.00000   0.00208   0.00173   0.00229   0.00000
  69       12D+1        0.00000   0.00000   0.00000   0.00000   0.00214
  70       12D-1        0.00266   0.00000   0.00000   0.00000   0.00000
  71       12D+2        0.00000  -0.00053  -0.00005   0.00033   0.00000
  72       12D-2        0.00000   0.00000   0.00000   0.00000   0.00000
  73       13D 0        0.00000   0.00002  -0.00032  -0.00037   0.00000
  74       13D+1        0.00000   0.00000   0.00000   0.00000  -0.00021
  75       13D-1       -0.00054   0.00000   0.00000   0.00000   0.00000
  76       13D+2        0.00000   0.00037  -0.00028  -0.00012   0.00000
  77       13D-2        0.00000   0.00000   0.00000   0.00000   0.00000
  78       14D 0        0.00000   0.00093  -0.00029   0.00076   0.00000
  79       14D+1        0.00000   0.00000   0.00000   0.00000  -0.00067
  80       14D-1       -0.00058   0.00000   0.00000   0.00000   0.00000
  81       14D+2        0.00000   0.00035   0.00009   0.00004   0.00000
  82       14D-2        0.00000   0.00000   0.00000   0.00000   0.00000
  83       15F 0        0.00000  -0.00017  -0.00011   0.00011   0.00000
  84       15F+1        0.00000   0.00000   0.00000   0.00000  -0.00032
  85       15F-1       -0.00014   0.00000   0.00000   0.00000   0.00000
  86       15F+2        0.00000   0.00013   0.00019   0.00007   0.00000
  87       15F-2        0.00000   0.00000   0.00000   0.00000   0.00000
  88       15F+3        0.00000   0.00000   0.00000   0.00000   0.00016
  89       15F-3        0.00010   0.00000   0.00000   0.00000   0.00000
  90       16F 0        0.00000  -0.00040  -0.00026  -0.00078   0.00000
  91       16F+1        0.00000   0.00000   0.00000   0.00000  -0.00046
  92       16F-1       -0.00084   0.00000   0.00000   0.00000   0.00000
  93       16F+2        0.00000  -0.00004   0.00000  -0.00028   0.00000
  94       16F-2        0.00000   0.00000   0.00000   0.00000   0.00000
  95       16F+3        0.00000   0.00000   0.00000   0.00000  -0.00019
  96       16F-3       -0.00024   0.00000   0.00000   0.00000   0.00000
  97 3   H  1S         -0.00042  -0.00009   0.00018  -0.00121   0.00000
  98        2S          0.00052  -0.00122  -0.00110  -0.00179   0.00000
  99        3S          0.01818  -0.00336   0.00009  -0.00373   0.00000
 100        4S          0.00055   0.00007   0.00016  -0.00016   0.00000
 101        5PX         0.00000   0.00000   0.00000   0.00000  -0.00006
 102        5PY        -0.00001   0.00001   0.00008  -0.00038   0.00000
 103        5PZ         0.00012   0.00004   0.00009  -0.00017   0.00000
 104        6PX         0.00000   0.00000   0.00000   0.00000   0.00038
 105        6PY         0.00001   0.00009   0.00033  -0.00093   0.00000
 106        6PZ        -0.00074   0.00006   0.00041  -0.00061   0.00000
 107        7PX         0.00000   0.00000   0.00000   0.00000  -0.00070
 108        7PY         0.00380   0.00045   0.00094  -0.00041   0.00000
 109        7PZ         0.00160  -0.00148  -0.00070  -0.00125   0.00000
 110        8D 0        0.00010   0.00004   0.00007   0.00009   0.00000
 111        8D+1        0.00000   0.00000   0.00000   0.00000  -0.00002
 112        8D-1        0.00000   0.00004   0.00015  -0.00030   0.00000
 113        8D+2        0.00003  -0.00004  -0.00012   0.00022   0.00000
 114        8D-2        0.00000   0.00000   0.00000   0.00000   0.00004
 115        9D 0       -0.00002   0.00006   0.00038  -0.00017   0.00000
 116        9D+1        0.00000   0.00000   0.00000   0.00000   0.00045
 117        9D-1       -0.00047  -0.00025  -0.00023  -0.00032   0.00000
 118        9D+2        0.00019  -0.00021  -0.00031   0.00029   0.00000
 119        9D-2        0.00000   0.00000   0.00000   0.00000  -0.00016
 120 4   H  1S          0.00042  -0.00009   0.00018  -0.00121   0.00000
 121        2S         -0.00052  -0.00122  -0.00110  -0.00179   0.00000
 122        3S         -0.01818  -0.00336   0.00009  -0.00373   0.00000
 123        4S         -0.00055   0.00007   0.00016  -0.00016   0.00000
 124        5PX         0.00000   0.00000   0.00000   0.00000  -0.00006
 125        5PY        -0.00001  -0.00001  -0.00008   0.00038   0.00000
 126        5PZ        -0.00012   0.00004   0.00009  -0.00017   0.00000
 127        6PX         0.00000   0.00000   0.00000   0.00000   0.00038
 128        6PY         0.00001  -0.00009  -0.00033   0.00093   0.00000
 129        6PZ         0.00074   0.00006   0.00041  -0.00061   0.00000
 130        7PX         0.00000   0.00000   0.00000   0.00000  -0.00070
 131        7PY         0.00380  -0.00045  -0.00094   0.00041   0.00000
 132        7PZ        -0.00160  -0.00148  -0.00070  -0.00125   0.00000
 133        8D 0       -0.00010   0.00004   0.00007   0.00009   0.00000
 134        8D+1        0.00000   0.00000   0.00000   0.00000  -0.00002
 135        8D-1        0.00000  -0.00004  -0.00015   0.00030   0.00000
 136        8D+2       -0.00003  -0.00004  -0.00012   0.00022   0.00000
 137        8D-2        0.00000   0.00000   0.00000   0.00000  -0.00004
 138        9D 0        0.00002   0.00006   0.00038  -0.00017   0.00000
 139        9D+1        0.00000   0.00000   0.00000   0.00000   0.00045
 140        9D-1       -0.00047   0.00025   0.00023   0.00032   0.00000
 141        9D+2       -0.00019  -0.00021  -0.00031   0.00029   0.00000
 142        9D-2        0.00000   0.00000   0.00000   0.00000   0.00016
                           6         7         8         9        10
     Eigenvalues --     2.00000   1.97229   1.96162   1.95909   1.94120
   1 1   C  1S         -0.00023  -0.13846   0.07857   0.00000   0.05999
   2        2S         -0.00002   0.37086  -0.22009   0.00000  -0.16587
   3        3S          0.00000   0.08242  -0.05234   0.00000  -0.03843
   4        4S         -0.00021   0.25102  -0.21936   0.00000  -0.08797
   5        5S         -0.00011   0.01893   0.00563   0.00000  -0.00613
   6        6PX         0.00000   0.00000   0.00000   0.00000   0.00000
   7        6PY         0.00000   0.00000   0.00000   0.24783   0.00000
   8        6PZ         0.00001   0.01183   0.16360   0.00000  -0.18408
   9        7PX         0.00000   0.00000   0.00000   0.00000   0.00000
  10        7PY         0.00000   0.00000   0.00000   0.33880   0.00000
  11        7PZ        -0.00009   0.00304   0.21246   0.00000  -0.23571
  12        8PX         0.00000   0.00000   0.00000   0.00000   0.00000
  13        8PY         0.00000   0.00000   0.00000   0.22538   0.00000
  14        8PZ         0.00004  -0.03230   0.10190   0.00000  -0.13124
  15        9PX         0.00000   0.00000   0.00000   0.00000   0.00000
  16        9PY         0.00000   0.00000   0.00000   0.00617   0.00000
  17        9PZ        -0.00002   0.00160   0.00757   0.00000  -0.00641
  18       10D 0       -0.00001   0.00825   0.00876   0.00000  -0.01078
  19       10D+1        0.00000   0.00000   0.00000   0.00000   0.00000
  20       10D-1        0.00000   0.00000   0.00000  -0.01441   0.00000
  21       10D+2        0.00000  -0.00713   0.00986   0.00000  -0.00312
  22       10D-2        0.00000   0.00000   0.00000   0.00000   0.00000
  23       11D 0       -0.00005   0.00970   0.01581   0.00000  -0.01412
  24       11D+1        0.00000   0.00000   0.00000   0.00000   0.00000
  25       11D-1        0.00000   0.00000   0.00000  -0.03868   0.00000
  26       11D+2        0.00001  -0.01787   0.02544   0.00000  -0.00847
  27       11D-2        0.00000   0.00000   0.00000   0.00000   0.00000
  28       12D 0        0.00001  -0.01028  -0.00263   0.00000  -0.00192
  29       12D+1        0.00000   0.00000   0.00000   0.00000   0.00000
  30       12D-1        0.00000   0.00000   0.00000  -0.03699   0.00000
  31       12D+2        0.00003  -0.00428   0.00316   0.00000  -0.00390
  32       12D-2        0.00000   0.00000   0.00000   0.00000   0.00000
  33       13F 0        0.00000   0.00580   0.00134   0.00000  -0.00513
  34       13F+1        0.00000   0.00000   0.00000   0.00000   0.00000
  35       13F-1        0.00000   0.00000   0.00000   0.00550   0.00000
  36       13F+2        0.00000   0.00385  -0.00223   0.00000  -0.00028
  37       13F-2        0.00000   0.00000   0.00000   0.00000   0.00000
  38       13F+3        0.00000   0.00000   0.00000   0.00000   0.00000
  39       13F-3        0.00000   0.00000   0.00000  -0.00231   0.00000
  40       14F 0       -0.00001   0.00571  -0.00577   0.00000   0.00014
  41       14F+1        0.00000   0.00000   0.00000   0.00000   0.00000
  42       14F-1        0.00000   0.00000   0.00000   0.00355   0.00000
  43       14F+2        0.00000   0.00743  -0.00712   0.00000   0.00022
  44       14F-2        0.00000   0.00000   0.00000   0.00000   0.00000
  45       14F+3        0.00000   0.00000   0.00000   0.00000   0.00000
  46       14F-3        0.00000   0.00000   0.00000  -0.00292   0.00000
  47 2   S  1S          0.99622   0.04544   0.04892   0.00000   0.02694
  48        2S          0.01382  -0.17564  -0.18583   0.00000  -0.10476
  49        3S          0.00032   0.36222   0.40322   0.00000   0.23419
  50        4S          0.00003   0.04539   0.05534   0.00000   0.03401
  51        5S         -0.00011   0.19507   0.21526   0.00000   0.31618
  52        6S          0.00005  -0.01463  -0.02868   0.00000   0.05946
  53        7PX         0.00000   0.00000   0.00000   0.00000   0.00000
  54        7PY         0.00000   0.00000   0.00000  -0.03853   0.00000
  55        7PZ         0.00110   0.04039   0.02126   0.00000  -0.18188
  56        8PX         0.00000   0.00000   0.00000   0.00000   0.00000
  57        8PY         0.00000   0.00000   0.00000   0.08901   0.00000
  58        8PZ        -0.00015  -0.05246  -0.02819   0.00000   0.38656
  59        9PX         0.00000   0.00000   0.00000   0.00000   0.00000
  60        9PY         0.00000   0.00000   0.00000   0.03858   0.00000
  61        9PZ         0.00013  -0.02831  -0.01640   0.00000   0.17480
  62       10PX         0.00000   0.00000   0.00000   0.00000   0.00000
  63       10PY         0.00000   0.00000   0.00000   0.03106   0.00000
  64       10PZ         0.00006   0.01332   0.00712   0.00000   0.12053
  65       11PX         0.00000   0.00000   0.00000   0.00000   0.00000
  66       11PY         0.00000   0.00000   0.00000  -0.00171   0.00000
  67       11PZ         0.00000   0.00588   0.00567   0.00000  -0.00318
  68       12D 0        0.00006   0.01203   0.00100   0.00000  -0.02886
  69       12D+1        0.00000   0.00000   0.00000   0.00000   0.00000
  70       12D-1        0.00000   0.00000   0.00000  -0.02184   0.00000
  71       12D+2       -0.00001   0.00036   0.00143   0.00000  -0.00054
  72       12D-2        0.00000   0.00000   0.00000   0.00000   0.00000
  73       13D 0        0.00001   0.02166   0.00978   0.00000  -0.04625
  74       13D+1        0.00000   0.00000   0.00000   0.00000   0.00000
  75       13D-1        0.00000   0.00000   0.00000  -0.02129   0.00000
  76       13D+2        0.00001   0.00108   0.00140   0.00000  -0.00015
  77       13D-2        0.00000   0.00000   0.00000   0.00000   0.00000
  78       14D 0       -0.00004  -0.00853  -0.00482   0.00000   0.00200
  79       14D+1        0.00000   0.00000   0.00000   0.00000   0.00000
  80       14D-1        0.00000   0.00000   0.00000  -0.00221   0.00000
  81       14D+2        0.00000  -0.00118  -0.00208   0.00000  -0.00059
  82       14D-2        0.00000   0.00000   0.00000   0.00000   0.00000
  83       15F 0       -0.00002  -0.00757  -0.00482   0.00000   0.01353
  84       15F+1        0.00000   0.00000   0.00000   0.00000   0.00000
  85       15F-1        0.00000   0.00000   0.00000   0.00845   0.00000
  86       15F+2        0.00000  -0.00040  -0.00041   0.00000   0.00342
  87       15F-2        0.00000   0.00000   0.00000   0.00000   0.00000
  88       15F+3        0.00000   0.00000   0.00000   0.00000   0.00000
  89       15F-3        0.00000   0.00000   0.00000   0.00074   0.00000
  90       16F 0        0.00000   0.00333   0.00267   0.00000  -0.00424
  91       16F+1        0.00000   0.00000   0.00000   0.00000   0.00000
  92       16F-1        0.00000   0.00000   0.00000   0.00089   0.00000
  93       16F+2        0.00000  -0.00041  -0.00070   0.00000   0.00064
  94       16F-2        0.00000   0.00000   0.00000   0.00000   0.00000
  95       16F+3        0.00000   0.00000   0.00000   0.00000   0.00000
  96       16F-3        0.00000   0.00000   0.00000   0.00082   0.00000
  97 3   H  1S          0.00000   0.06867  -0.10006  -0.14050   0.03364
  98        2S          0.00001   0.05124  -0.09952  -0.15759   0.04809
  99        3S          0.00014  -0.03438   0.01608   0.07271   0.01518
 100        4S          0.00001  -0.00037   0.00312   0.00309  -0.00154
 101        5PX         0.00000   0.00000   0.00000   0.00000   0.00000
 102        5PY         0.00000   0.00546  -0.00945  -0.00806   0.00366
 103        5PZ         0.00000   0.00335  -0.00320  -0.00842  -0.00105
 104        6PX         0.00000   0.00000   0.00000   0.00000   0.00000
 105        6PY         0.00000  -0.00363  -0.00192   0.01262   0.00219
 106        6PZ         0.00000  -0.00354   0.00863  -0.00114  -0.00970
 107        7PX         0.00000   0.00000   0.00000   0.00000   0.00000
 108        7PY         0.00001  -0.01064   0.01481   0.03064  -0.00179
 109        7PZ         0.00003  -0.01361   0.00494   0.01280   0.00103
 110        8D 0        0.00000   0.00024   0.00134  -0.00133  -0.00161
 111        8D+1        0.00000   0.00000   0.00000   0.00000   0.00000
 112        8D-1        0.00000   0.00042  -0.00099  -0.00245   0.00000
 113        8D+2        0.00000  -0.00058   0.00156   0.00010  -0.00077
 114        8D-2        0.00000   0.00000   0.00000   0.00000   0.00000
 115        9D 0        0.00000  -0.00002  -0.00030  -0.00183  -0.00049
 116        9D+1        0.00000   0.00000   0.00000   0.00000   0.00000
 117        9D-1       -0.00001  -0.00376   0.00346   0.00333  -0.00079
 118        9D+2        0.00000   0.00150  -0.00070  -0.00295  -0.00020
 119        9D-2        0.00000   0.00000   0.00000   0.00000   0.00000
 120 4   H  1S          0.00000   0.06867  -0.10006   0.14050   0.03364
 121        2S          0.00001   0.05124  -0.09952   0.15759   0.04809
 122        3S          0.00014  -0.03438   0.01608  -0.07271   0.01518
 123        4S          0.00001  -0.00037   0.00312  -0.00309  -0.00154
 124        5PX         0.00000   0.00000   0.00000   0.00000   0.00000
 125        5PY         0.00000  -0.00546   0.00945  -0.00806  -0.00366
 126        5PZ         0.00000   0.00335  -0.00320   0.00842  -0.00105
 127        6PX         0.00000   0.00000   0.00000   0.00000   0.00000
 128        6PY         0.00000   0.00363   0.00192   0.01262  -0.00219
 129        6PZ         0.00000  -0.00354   0.00863   0.00114  -0.00970
 130        7PX         0.00000   0.00000   0.00000   0.00000   0.00000
 131        7PY        -0.00001   0.01064  -0.01481   0.03064   0.00179
 132        7PZ         0.00003  -0.01361   0.00494  -0.01280   0.00103
 133        8D 0        0.00000   0.00024   0.00134   0.00133  -0.00161
 134        8D+1        0.00000   0.00000   0.00000   0.00000   0.00000
 135        8D-1        0.00000  -0.00042   0.00099  -0.00245   0.00000
 136        8D+2        0.00000  -0.00058   0.00156  -0.00010  -0.00077
 137        8D-2        0.00000   0.00000   0.00000   0.00000   0.00000
 138        9D 0        0.00000  -0.00002  -0.00030   0.00183  -0.00049
 139        9D+1        0.00000   0.00000   0.00000   0.00000   0.00000
 140        9D-1        0.00001   0.00376  -0.00346   0.00333   0.00079
 141        9D+2        0.00000   0.00150  -0.00070   0.00295  -0.00020
 142        9D-2        0.00000   0.00000   0.00000   0.00000   0.00000
                          11        12        13        14        15
     Eigenvalues --     1.94078   1.89774   0.08540   0.03746   0.02634
   1 1   C  1S          0.00000   0.00000   0.00000  -0.11156   0.00000
   2        2S          0.00000   0.00000   0.00000   0.38271   0.00000
   3        3S          0.00000   0.00000   0.00000   0.15336   0.00000
   4        4S          0.00000   0.00000   0.00000   0.15898   0.00000
   5        5S          0.00000   0.00000   0.00000   0.09687   0.00000
   6        6PX         0.00000   0.18961  -0.30157   0.00000   0.00000
   7        6PY        -0.04035   0.00000   0.00000   0.00000   0.26270
   8        6PZ         0.00000   0.00000   0.00000   0.27313   0.00000
   9        7PX         0.00000   0.26501  -0.45772   0.00000   0.00000
  10        7PY        -0.05303   0.00000   0.00000   0.00000   0.61485
  11        7PZ         0.00000   0.00000   0.00000   0.52640   0.00000
  12        8PX         0.00000   0.17873  -0.20544   0.00000   0.00000
  13        8PY        -0.00289   0.00000   0.00000   0.00000   0.16821
  14        8PZ         0.00000   0.00000   0.00000   0.47369   0.00000
  15        9PX         0.00000   0.01329  -0.00550   0.00000   0.00000
  16        9PY        -0.00169   0.00000   0.00000   0.00000  -0.00660
  17        9PZ         0.00000   0.00000   0.00000   0.03789   0.00000
  18       10D 0        0.00000   0.00000   0.00000   0.00315   0.00000
  19       10D+1        0.00000   0.01108  -0.00291   0.00000   0.00000
  20       10D-1        0.01813   0.00000   0.00000   0.00000   0.06908
  21       10D+2        0.00000   0.00000   0.00000   0.00231   0.00000
  22       10D-2        0.00000   0.00000   0.00000   0.00000   0.00000
  23       11D 0        0.00000   0.00000   0.00000   0.09466   0.00000
  24       11D+1        0.00000   0.03267  -0.03600   0.00000   0.00000
  25       11D-1        0.03571   0.00000   0.00000   0.00000   0.04479
  26       11D+2        0.00000   0.00000   0.00000   0.05613   0.00000
  27       11D-2        0.00000   0.00000   0.00000   0.00000   0.00000
  28       12D 0        0.00000   0.00000   0.00000   0.08091   0.00000
  29       12D+1        0.00000   0.01087  -0.01373   0.00000   0.00000
  30       12D-1       -0.02178   0.00000   0.00000   0.00000  -0.02110
  31       12D+2        0.00000   0.00000   0.00000   0.03347   0.00000
  32       12D-2        0.00000   0.00000   0.00000   0.00000   0.00000
  33       13F 0        0.00000   0.00000   0.00000   0.01338   0.00000
  34       13F+1        0.00000   0.00623  -0.00574   0.00000   0.00000
  35       13F-1        0.00442   0.00000   0.00000   0.00000   0.03254
  36       13F+2        0.00000   0.00000   0.00000   0.00240   0.00000
  37       13F-2        0.00000   0.00000   0.00000   0.00000   0.00000
  38       13F+3        0.00000   0.00033   0.00006   0.00000   0.00000
  39       13F-3        0.00141   0.00000   0.00000   0.00000  -0.00379
  40       14F 0        0.00000   0.00000   0.00000  -0.00500   0.00000
  41       14F+1        0.00000   0.00138  -0.01559   0.00000   0.00000
  42       14F-1        0.00102   0.00000   0.00000   0.00000   0.06742
  43       14F+2        0.00000   0.00000   0.00000  -0.03405   0.00000
  44       14F-2        0.00000   0.00000   0.00000   0.00000   0.00000
  45       14F+3        0.00000   0.00070  -0.00515   0.00000   0.00000
  46       14F-3       -0.00050   0.00000   0.00000   0.00000   0.00433
  47 2   S  1S          0.00000   0.00000   0.00000  -0.02425   0.00000
  48        2S          0.00000   0.00000   0.00000   0.07097   0.00000
  49        3S          0.00000   0.00000   0.00000  -0.24760   0.00000
  50        4S          0.00000   0.00000   0.00000   0.00070   0.00000
  51        5S          0.00000   0.00000   0.00000  -0.76068   0.00000
  52        6S          0.00000   0.00000   0.00000  -0.26043   0.00000
  53        7PX         0.00000  -0.17480  -0.19992   0.00000   0.00000
  54        7PY        -0.21568   0.00000   0.00000   0.00000   0.08480
  55        7PZ         0.00000   0.00000   0.00000  -0.19645   0.00000
  56        8PX         0.00000   0.39432   0.52718   0.00000   0.00000
  57        8PY         0.52644   0.00000   0.00000   0.00000  -0.23875
  58        8PZ         0.00000   0.00000   0.00000   0.73892   0.00000
  59        9PX         0.00000   0.15994   0.20693   0.00000   0.00000
  60        9PY         0.22293   0.00000   0.00000   0.00000  -0.12855
  61        9PZ         0.00000   0.00000   0.00000   0.21139   0.00000
  62       10PX         0.00000   0.21043   0.16079   0.00000   0.00000
  63       10PY         0.40430   0.00000   0.00000   0.00000   0.09633
  64       10PZ         0.00000   0.00000   0.00000   0.48706   0.00000
  65       11PX         0.00000   0.00479   0.00183   0.00000   0.00000
  66       11PY         0.04117   0.00000   0.00000   0.00000   0.02523
  67       11PZ         0.00000   0.00000   0.00000   0.03263   0.00000
  68       12D 0        0.00000   0.00000   0.00000   0.09585   0.00000
  69       12D+1        0.00000  -0.03626   0.03883   0.00000   0.00000
  70       12D-1        0.00248   0.00000   0.00000   0.00000  -0.28366
  71       12D+2        0.00000   0.00000   0.00000   0.08447   0.00000
  72       12D-2        0.00000   0.00000   0.00000   0.00000   0.00000
  73       13D 0        0.00000   0.00000   0.00000   0.16043   0.00000
  74       13D+1        0.00000  -0.03432   0.05035   0.00000   0.00000
  75       13D-1       -0.00042   0.00000   0.00000   0.00000  -0.24662
  76       13D+2        0.00000   0.00000   0.00000   0.05308   0.00000
  77       13D-2        0.00000   0.00000   0.00000   0.00000   0.00000
  78       14D 0        0.00000   0.00000   0.00000  -0.06601   0.00000
  79       14D+1        0.00000  -0.00408  -0.01814   0.00000   0.00000
  80       14D-1       -0.01312   0.00000   0.00000   0.00000  -0.03185
  81       14D+2        0.00000   0.00000   0.00000   0.01391   0.00000
  82       14D-2        0.00000   0.00000   0.00000   0.00000   0.00000
  83       15F 0        0.00000   0.00000   0.00000  -0.01774   0.00000
  84       15F+1        0.00000   0.01065  -0.01548   0.00000   0.00000
  85       15F-1        0.00368   0.00000   0.00000   0.00000   0.03118
  86       15F+2        0.00000   0.00000   0.00000  -0.00428   0.00000
  87       15F-2        0.00000   0.00000   0.00000   0.00000   0.00000
  88       15F+3        0.00000   0.00381   0.00255   0.00000   0.00000
  89       15F-3        0.00444   0.00000   0.00000   0.00000   0.00343
  90       16F 0        0.00000   0.00000   0.00000   0.01028   0.00000
  91       16F+1        0.00000  -0.00063   0.00445   0.00000   0.00000
  92       16F-1        0.00203   0.00000   0.00000   0.00000   0.00159
  93       16F+2        0.00000   0.00000   0.00000  -0.01161   0.00000
  94       16F-2        0.00000   0.00000   0.00000   0.00000   0.00000
  95       16F+3        0.00000   0.00243   0.00298   0.00000   0.00000
  96       16F-3        0.00331   0.00000   0.00000   0.00000   0.00202
  97 3   H  1S          0.05144   0.00000   0.00000  -0.03323   0.17842
  98        2S          0.08869   0.00000   0.00000   0.08592   0.56667
  99        3S          0.16067   0.00000   0.00000   0.25674   0.29164
 100        4S          0.01585   0.00000   0.00000   0.01176   0.01127
 101        5PX         0.00000   0.00424  -0.01011   0.00000   0.00000
 102        5PY         0.00264   0.00000   0.00000  -0.00717   0.00661
 103        5PZ         0.00049   0.00000   0.00000   0.00546  -0.01286
 104        6PX         0.00000   0.01450  -0.01693   0.00000   0.00000
 105        6PY        -0.00033   0.00000   0.00000   0.02168   0.15166
 106        6PZ        -0.00210   0.00000   0.00000   0.03775   0.02085
 107        7PX         0.00000   0.00267   0.00868   0.00000   0.00000
 108        7PY         0.01901   0.00000   0.00000   0.04036   0.07197
 109        7PZ        -0.00102   0.00000   0.00000   0.06212   0.00769
 110        8D 0       -0.00092   0.00000   0.00000   0.00263  -0.01085
 111        8D+1        0.00000   0.00138  -0.00290   0.00000   0.00000
 112        8D-1        0.00007   0.00000   0.00000   0.00253  -0.00413
 113        8D+2       -0.00056   0.00000   0.00000   0.00203  -0.00758
 114        8D-2        0.00000   0.00146  -0.00483   0.00000   0.00000
 115        9D 0       -0.00083   0.00000   0.00000   0.00201  -0.00481
 116        9D+1        0.00000   0.00039  -0.00062   0.00000   0.00000
 117        9D-1       -0.00051   0.00000   0.00000   0.01141   0.02888
 118        9D+2        0.00061   0.00000   0.00000   0.00147  -0.02312
 119        9D-2        0.00000   0.00279   0.00378   0.00000   0.00000
 120 4   H  1S         -0.05144   0.00000   0.00000  -0.03323  -0.17842
 121        2S         -0.08869   0.00000   0.00000   0.08592  -0.56667
 122        3S         -0.16067   0.00000   0.00000   0.25674  -0.29164
 123        4S         -0.01585   0.00000   0.00000   0.01176  -0.01127
 124        5PX         0.00000   0.00424  -0.01011   0.00000   0.00000
 125        5PY         0.00264   0.00000   0.00000   0.00717   0.00661
 126        5PZ        -0.00049   0.00000   0.00000   0.00546   0.01286
 127        6PX         0.00000   0.01450  -0.01693   0.00000   0.00000
 128        6PY        -0.00033   0.00000   0.00000  -0.02168   0.15166
 129        6PZ         0.00210   0.00000   0.00000   0.03775  -0.02085
 130        7PX         0.00000   0.00267   0.00868   0.00000   0.00000
 131        7PY         0.01901   0.00000   0.00000  -0.04036   0.07197
 132        7PZ         0.00102   0.00000   0.00000   0.06212  -0.00769
 133        8D 0        0.00092   0.00000   0.00000   0.00263   0.01085
 134        8D+1        0.00000   0.00138  -0.00290   0.00000   0.00000
 135        8D-1        0.00007   0.00000   0.00000  -0.00253  -0.00413
 136        8D+2        0.00056   0.00000   0.00000   0.00203   0.00758
 137        8D-2        0.00000  -0.00146   0.00483   0.00000   0.00000
 138        9D 0        0.00083   0.00000   0.00000   0.00201   0.00481
 139        9D+1        0.00000   0.00039  -0.00062   0.00000   0.00000
 140        9D-1       -0.00051   0.00000   0.00000  -0.01141   0.02888
 141        9D+2       -0.00061   0.00000   0.00000   0.00147   0.02312
 142        9D-2        0.00000  -0.00279  -0.00378   0.00000   0.00000
                          16        17        18        19        20
     Eigenvalues --     0.02022   0.01794   0.01699   0.01601   0.01329
   1 1   C  1S         -0.14826   0.00000   0.08674   0.00000   0.00000
   2        2S          0.57032   0.00000  -0.32927   0.00000   0.00000
   3        3S          0.30660   0.00000  -0.19152   0.00000   0.00000
   4        4S          0.15547   0.00000  -0.32264   0.00000   0.00000
   5        5S         -0.02855   0.00000  -0.08430   0.00000   0.00000
   6        6PX         0.00000   0.00000   0.00000   0.00000   0.08702
   7        6PY         0.00000   0.00000   0.00000   0.45433   0.00000
   8        6PZ        -0.31070   0.00000   0.02586   0.00000   0.00000
   9        7PX         0.00000   0.00000   0.00000   0.00000   0.10844
  10        7PY         0.00000   0.00000   0.00000   0.78197   0.00000
  11        7PZ        -0.54773   0.00000  -0.02652   0.00000   0.00000
  12        8PX         0.00000   0.00000   0.00000   0.00000   0.04568
  13        8PY         0.00000   0.00000   0.00000   0.55145   0.00000
  14        8PZ        -0.26983   0.00000   0.02494   0.00000   0.00000
  15        9PX         0.00000   0.00000   0.00000   0.00000  -0.01000
  16        9PY         0.00000   0.00000   0.00000   0.03058   0.00000
  17        9PZ        -0.02593   0.00000  -0.00942   0.00000   0.00000
  18       10D 0       -0.00369   0.00000   0.00613   0.00000   0.00000
  19       10D+1        0.00000   0.00000   0.00000   0.00000  -0.14483
  20       10D-1        0.00000   0.00000   0.00000  -0.08521   0.00000
  21       10D+2        0.03208   0.00000   0.03718   0.00000   0.00000
  22       10D-2        0.00000   0.04250   0.00000   0.00000   0.00000
  23       11D 0       -0.05594   0.00000   0.01979   0.00000   0.00000
  24       11D+1        0.00000   0.00000   0.00000   0.00000  -0.26528
  25       11D-1        0.00000   0.00000   0.00000  -0.33349   0.00000
  26       11D+2        0.03836   0.00000   0.10380   0.00000   0.00000
  27       11D-2        0.00000   0.08392   0.00000   0.00000   0.00000
  28       12D 0       -0.06143   0.00000  -0.02203   0.00000   0.00000
  29       12D+1        0.00000   0.00000   0.00000   0.00000  -0.04339
  30       12D-1        0.00000   0.00000   0.00000  -0.06862   0.00000
  31       12D+2       -0.04706   0.00000   0.01916   0.00000   0.00000
  32       12D-2        0.00000   0.00855   0.00000   0.00000   0.00000
  33       13F 0       -0.01588   0.00000   0.00321   0.00000   0.00000
  34       13F+1        0.00000   0.00000   0.00000   0.00000  -0.04943
  35       13F-1        0.00000   0.00000   0.00000  -0.02204   0.00000
  36       13F+2        0.01758   0.00000   0.02173   0.00000   0.00000
  37       13F-2        0.00000   0.02487   0.00000   0.00000   0.00000
  38       13F+3        0.00000   0.00000   0.00000   0.00000  -0.01087
  39       13F-3        0.00000   0.00000   0.00000  -0.01951   0.00000
  40       14F 0       -0.01121   0.00000  -0.02082   0.00000   0.00000
  41       14F+1        0.00000   0.00000   0.00000   0.00000  -0.02980
  42       14F-1        0.00000   0.00000   0.00000   0.00199   0.00000
  43       14F+2        0.02630   0.00000  -0.01034   0.00000   0.00000
  44       14F-2        0.00000   0.02007   0.00000   0.00000   0.00000
  45       14F+3        0.00000   0.00000   0.00000   0.00000  -0.00331
  46       14F-3        0.00000   0.00000   0.00000  -0.04841   0.00000
  47 2   S  1S          0.00177   0.00000   0.00490   0.00000   0.00000
  48        2S         -0.00538   0.00000  -0.04214   0.00000   0.00000
  49        3S          0.02097   0.00000   0.01190   0.00000   0.00000
  50        4S         -0.00945   0.00000   0.04185   0.00000   0.00000
  51        5S          0.38504   0.00000   0.12363   0.00000   0.00000
  52        6S          0.16850   0.00000   0.09263   0.00000   0.00000
  53        7PX         0.00000   0.00000   0.00000   0.00000   0.03163
  54        7PY         0.00000   0.00000   0.00000   0.03370   0.00000
  55        7PZ        -0.01612   0.00000   0.04873   0.00000   0.00000
  56        8PX         0.00000   0.00000   0.00000   0.00000   0.00291
  57        8PY         0.00000   0.00000   0.00000  -0.03424   0.00000
  58        8PZ        -0.11515   0.00000  -0.15482   0.00000   0.00000
  59        9PX         0.00000   0.00000   0.00000   0.00000  -0.05835
  60        9PY         0.00000   0.00000   0.00000  -0.05087   0.00000
  61        9PZ         0.03492   0.00000  -0.05981   0.00000   0.00000
  62       10PX         0.00000   0.00000   0.00000   0.00000   0.19244
  63       10PY         0.00000   0.00000   0.00000   0.03756   0.00000
  64       10PZ        -0.29002   0.00000  -0.06645   0.00000   0.00000
  65       11PX         0.00000   0.00000   0.00000   0.00000   0.02043
  66       11PY         0.00000   0.00000   0.00000   0.02906   0.00000
  67       11PZ        -0.02544   0.00000  -0.01108   0.00000   0.00000
  68       12D 0        0.03800   0.00000   0.13629   0.00000   0.00000
  69       12D+1        0.00000   0.00000   0.00000   0.00000   0.44941
  70       12D-1        0.00000   0.00000   0.00000   0.40741   0.00000
  71       12D+2        0.15011   0.00000   0.56876   0.00000   0.00000
  72       12D-2        0.00000   0.59615   0.00000   0.00000   0.00000
  73       13D 0       -0.03743   0.00000   0.06563   0.00000   0.00000
  74       13D+1        0.00000   0.00000   0.00000   0.00000   0.42855
  75       13D-1        0.00000   0.00000   0.00000   0.29417   0.00000
  76       13D+2        0.10870   0.00000   0.41124   0.00000   0.00000
  77       13D-2        0.00000   0.44200   0.00000   0.00000   0.00000
  78       14D 0        0.06166   0.00000   0.03907   0.00000   0.00000
  79       14D+1        0.00000   0.00000   0.00000   0.00000  -0.06644
  80       14D-1        0.00000   0.00000   0.00000   0.06057   0.00000
  81       14D+2        0.01584   0.00000   0.04580   0.00000   0.00000
  82       14D-2        0.00000   0.04857   0.00000   0.00000   0.00000
  83       15F 0        0.00108   0.00000   0.00289   0.00000   0.00000
  84       15F+1        0.00000   0.00000   0.00000   0.00000  -0.05955
  85       15F-1        0.00000   0.00000   0.00000   0.00400   0.00000
  86       15F+2       -0.01461   0.00000  -0.02044   0.00000   0.00000
  87       15F-2        0.00000  -0.00696   0.00000   0.00000   0.00000
  88       15F+3        0.00000   0.00000   0.00000   0.00000  -0.02179
  89       15F-3        0.00000   0.00000   0.00000  -0.00176   0.00000
  90       16F 0       -0.02767   0.00000  -0.01880   0.00000   0.00000
  91       16F+1        0.00000   0.00000   0.00000   0.00000   0.02536
  92       16F-1        0.00000   0.00000   0.00000  -0.02625   0.00000
  93       16F+2       -0.00852   0.00000  -0.02588   0.00000   0.00000
  94       16F-2        0.00000  -0.01173   0.00000   0.00000   0.00000
  95       16F+3        0.00000   0.00000   0.00000   0.00000  -0.00907
  96       16F-3        0.00000   0.00000   0.00000   0.00125   0.00000
  97 3   H  1S         -0.23758   0.00000   0.06640   0.07931   0.00000
  98        2S         -0.59914   0.00000   0.23269   0.73239   0.00000
  99        3S         -0.29133   0.00000   0.11969   0.74773   0.00000
 100        4S         -0.01176   0.00000   0.00230   0.05101   0.00000
 101        5PX         0.00000  -0.00902   0.00000   0.00000   0.02585
 102        5PY         0.01832   0.00000  -0.01037  -0.03312   0.00000
 103        5PZ        -0.00471   0.00000  -0.01174  -0.01999   0.00000
 104        6PX         0.00000  -0.01398   0.00000   0.00000   0.03713
 105        6PY        -0.05545   0.00000   0.00137   0.10563   0.00000
 106        6PZ        -0.03941   0.00000   0.01140   0.07181   0.00000
 107        7PX         0.00000  -0.00093   0.00000   0.00000  -0.00953
 108        7PY        -0.02113   0.00000   0.01933   0.12421   0.00000
 109        7PZ        -0.04422   0.00000  -0.00612   0.08003   0.00000
 110        8D 0       -0.00771   0.00000   0.00138   0.00403   0.00000
 111        8D+1        0.00000  -0.00324   0.00000   0.00000   0.00250
 112        8D-1        0.00604   0.00000  -0.00548  -0.00909   0.00000
 113        8D+2       -0.00634   0.00000   0.00571   0.01004   0.00000
 114        8D-2        0.00000  -0.00766   0.00000   0.00000   0.01631
 115        9D 0        0.00357   0.00000   0.00279  -0.00778   0.00000
 116        9D+1        0.00000   0.00203   0.00000   0.00000  -0.00229
 117        9D-1        0.00060   0.00000  -0.00051   0.00520   0.00000
 118        9D+2        0.00952   0.00000   0.00953  -0.00356   0.00000
 119        9D-2        0.00000  -0.00031   0.00000   0.00000  -0.00524
 120 4   H  1S         -0.23758   0.00000   0.06640  -0.07931   0.00000
 121        2S         -0.59914   0.00000   0.23269  -0.73239   0.00000
 122        3S         -0.29133   0.00000   0.11969  -0.74773   0.00000
 123        4S         -0.01176   0.00000   0.00230  -0.05101   0.00000
 124        5PX         0.00000   0.00902   0.00000   0.00000   0.02585
 125        5PY        -0.01832   0.00000   0.01037  -0.03312   0.00000
 126        5PZ        -0.00471   0.00000  -0.01174   0.01999   0.00000
 127        6PX         0.00000   0.01398   0.00000   0.00000   0.03713
 128        6PY         0.05545   0.00000  -0.00137   0.10563   0.00000
 129        6PZ        -0.03941   0.00000   0.01140  -0.07181   0.00000
 130        7PX         0.00000   0.00093   0.00000   0.00000  -0.00953
 131        7PY         0.02113   0.00000  -0.01933   0.12421   0.00000
 132        7PZ        -0.04422   0.00000  -0.00612  -0.08003   0.00000
 133        8D 0       -0.00771   0.00000   0.00138  -0.00403   0.00000
 134        8D+1        0.00000   0.00324   0.00000   0.00000   0.00250
 135        8D-1       -0.00604   0.00000   0.00548  -0.00909   0.00000
 136        8D+2       -0.00634   0.00000   0.00571  -0.01004   0.00000
 137        8D-2        0.00000  -0.00766   0.00000   0.00000  -0.01631
 138        9D 0        0.00357   0.00000   0.00279   0.00778   0.00000
 139        9D+1        0.00000  -0.00203   0.00000   0.00000  -0.00229
 140        9D-1       -0.00060   0.00000   0.00051   0.00520   0.00000
 141        9D+2        0.00952   0.00000   0.00953   0.00356   0.00000
 142        9D-2        0.00000  -0.00031   0.00000   0.00000   0.00524
                          21        22        23        24        25
     Eigenvalues --     0.01202   0.01029   0.00818   0.00671   0.00645
   1 1   C  1S          0.01032   0.00000  -0.03532   0.00000   0.00000
   2        2S         -0.00767   0.00000   0.12495   0.00000   0.00000
   3        3S          0.00360   0.00000   0.11987   0.00000   0.00000
   4        4S         -0.13475   0.00000  -0.10919   0.00000   0.00000
   5        5S         -0.06706   0.00000  -0.03988   0.00000   0.00000
   6        6PX         0.00000   0.00000   0.00000   0.38998   0.00000
   7        6PY         0.00000   0.14365   0.00000   0.00000   0.00000
   8        6PZ        -0.11652   0.00000  -0.12610   0.00000   0.00000
   9        7PX         0.00000   0.00000   0.00000   0.45815   0.00000
  10        7PY         0.00000   0.41775   0.00000   0.00000   0.00000
  11        7PZ        -0.25456   0.00000  -0.11736   0.00000   0.00000
  12        8PX         0.00000   0.00000   0.00000  -0.19353   0.00000
  13        8PY         0.00000  -1.10095   0.00000   0.00000   0.00000
  14        8PZ         0.27447   0.00000   0.36377   0.00000   0.00000
  15        9PX         0.00000   0.00000   0.00000  -0.01176   0.00000
  16        9PY         0.00000  -0.10660   0.00000   0.00000   0.00000
  17        9PZ         0.01158   0.00000   0.00589   0.00000   0.00000
  18       10D 0        0.18472   0.00000  -0.09180   0.00000   0.00000
  19       10D+1        0.00000   0.00000   0.00000   0.07962   0.00000
  20       10D-1        0.00000  -0.02972   0.00000   0.00000   0.00000
  21       10D+2       -0.00781   0.00000  -0.15660   0.00000   0.00000
  22       10D-2        0.00000   0.00000   0.00000   0.00000   0.30666
  23       11D 0        0.28507   0.00000  -0.22373   0.00000   0.00000
  24       11D+1        0.00000   0.00000   0.00000   0.10658   0.00000
  25       11D-1        0.00000  -0.27438   0.00000   0.00000   0.00000
  26       11D+2       -0.05779   0.00000  -0.31368   0.00000   0.00000
  27       11D-2        0.00000   0.00000   0.00000   0.00000   0.45734
  28       12D 0        0.06658   0.00000   0.16380   0.00000   0.00000
  29       12D+1        0.00000   0.00000   0.00000   0.06931   0.00000
  30       12D-1        0.00000   0.15480   0.00000   0.00000   0.00000
  31       12D+2        0.04023   0.00000   0.09099   0.00000   0.00000
  32       12D-2        0.00000   0.00000   0.00000   0.00000   0.03972
  33       13F 0        0.04539   0.00000   0.01293   0.00000   0.00000
  34       13F+1        0.00000   0.00000   0.00000   0.06377   0.00000
  35       13F-1        0.00000   0.04943   0.00000   0.00000   0.00000
  36       13F+2       -0.00207   0.00000   0.01817   0.00000   0.00000
  37       13F-2        0.00000   0.00000   0.00000   0.00000  -0.02567
  38       13F+3        0.00000   0.00000   0.00000  -0.02255   0.00000
  39       13F-3        0.00000  -0.01037   0.00000   0.00000   0.00000
  40       14F 0        0.05631   0.00000   0.01426   0.00000   0.00000
  41       14F+1        0.00000   0.00000   0.00000  -0.00195   0.00000
  42       14F-1        0.00000  -0.15160   0.00000   0.00000   0.00000
  43       14F+2       -0.01362   0.00000   0.01289   0.00000   0.00000
  44       14F-2        0.00000   0.00000   0.00000   0.00000   0.07894
  45       14F+3        0.00000   0.00000   0.00000  -0.01968   0.00000
  46       14F-3        0.00000  -0.01918   0.00000   0.00000   0.00000
  47 2   S  1S          0.03243   0.00000   0.06189   0.00000   0.00000
  48        2S         -0.13052   0.00000  -0.22454   0.00000   0.00000
  49        3S          0.33428   0.00000   0.76777   0.00000   0.00000
  50        4S          0.19832   0.00000   0.53424   0.00000   0.00000
  51        5S         -0.67931   0.00000  -1.33701   0.00000   0.00000
  52        6S         -0.17327   0.00000  -0.16085   0.00000   0.00000
  53        7PX         0.00000   0.00000   0.00000  -0.20498   0.00000
  54        7PY         0.00000  -0.32041   0.00000   0.00000   0.00000
  55        7PZ         0.12649   0.00000  -0.08829   0.00000   0.00000
  56        8PX         0.00000   0.00000   0.00000   0.34805   0.00000
  57        8PY         0.00000   0.59617   0.00000   0.00000   0.00000
  58        8PZ        -0.12027   0.00000  -0.02599   0.00000   0.00000
  59        9PX         0.00000   0.00000   0.00000   0.37835   0.00000
  60        9PY         0.00000   0.60628   0.00000   0.00000   0.00000
  61        9PZ        -0.20159   0.00000   0.17089   0.00000   0.00000
  62       10PX         0.00000   0.00000   0.00000  -0.82096   0.00000
  63       10PY         0.00000  -0.85745   0.00000   0.00000   0.00000
  64       10PZ         0.39368   0.00000  -0.02814   0.00000   0.00000
  65       11PX         0.00000   0.00000   0.00000  -0.02803   0.00000
  66       11PY         0.00000  -0.09827   0.00000   0.00000   0.00000
  67       11PZ         0.03685   0.00000  -0.00308   0.00000   0.00000
  68       12D 0        0.36359   0.00000   0.03643   0.00000   0.00000
  69       12D+1        0.00000   0.00000   0.00000   0.21460   0.00000
  70       12D-1        0.00000  -0.28827   0.00000   0.00000   0.00000
  71       12D+2       -0.06532   0.00000   0.13390   0.00000   0.00000
  72       12D-2        0.00000   0.00000   0.00000   0.00000  -0.17652
  73       13D 0        0.35221   0.00000  -0.01766   0.00000   0.00000
  74       13D+1        0.00000   0.00000   0.00000   0.09434   0.00000
  75       13D-1        0.00000  -0.07957   0.00000   0.00000   0.00000
  76       13D+2       -0.05865   0.00000   0.04002   0.00000   0.00000
  77       13D-2        0.00000   0.00000   0.00000   0.00000  -0.14563
  78       14D 0       -0.09174   0.00000  -0.01183   0.00000   0.00000
  79       14D+1        0.00000   0.00000   0.00000   0.15810   0.00000
  80       14D-1        0.00000   0.03450   0.00000   0.00000   0.00000
  81       14D+2        0.00031   0.00000   0.01322   0.00000   0.00000
  82       14D-2        0.00000   0.00000   0.00000   0.00000  -0.01875
  83       15F 0       -0.06309   0.00000   0.00729   0.00000   0.00000
  84       15F+1        0.00000   0.00000   0.00000   0.07962   0.00000
  85       15F-1        0.00000   0.00408   0.00000   0.00000   0.00000
  86       15F+2       -0.00228   0.00000   0.00966   0.00000   0.00000
  87       15F-2        0.00000   0.00000   0.00000   0.00000  -0.09591
  88       15F+3        0.00000   0.00000   0.00000  -0.06158   0.00000
  89       15F-3        0.00000  -0.01410   0.00000   0.00000   0.00000
  90       16F 0       -0.00532   0.00000   0.00732   0.00000   0.00000
  91       16F+1        0.00000   0.00000   0.00000  -0.07969   0.00000
  92       16F-1        0.00000   0.04092   0.00000   0.00000   0.00000
  93       16F+2       -0.00021   0.00000   0.00851   0.00000   0.00000
  94       16F-2        0.00000   0.00000   0.00000   0.00000   0.01050
  95       16F+3        0.00000   0.00000   0.00000  -0.01389   0.00000
  96       16F-3        0.00000   0.01742   0.00000   0.00000   0.00000
  97 3   H  1S         -0.01058   0.01562   0.14354   0.00000   0.00000
  98        2S         -0.05494   0.25591  -0.10545   0.00000   0.00000
  99        3S          0.30247  -1.35843   0.13035   0.00000   0.00000
 100        4S          0.02041  -0.12703   0.00451   0.00000   0.00000
 101        5PX         0.00000   0.00000   0.00000  -0.00077  -0.09443
 102        5PY         0.01820  -0.01432   0.02356   0.00000   0.00000
 103        5PZ        -0.02905  -0.00485   0.06170   0.00000   0.00000
 104        6PX         0.00000   0.00000   0.00000  -0.09222  -0.20790
 105        6PY         0.00870   0.07928  -0.01864   0.00000   0.00000
 106        6PZ        -0.06952   0.15482   0.03240   0.00000   0.00000
 107        7PX         0.00000   0.00000   0.00000  -0.02252  -0.01577
 108        7PY         0.03077  -0.24986  -0.03276   0.00000   0.00000
 109        7PZ         0.04938  -0.10295   0.11376   0.00000   0.00000
 110        8D 0       -0.01267  -0.00155   0.01348   0.00000   0.00000
 111        8D+1        0.00000   0.00000   0.00000   0.00230  -0.03513
 112        8D-1       -0.01166  -0.00126   0.02084   0.00000   0.00000
 113        8D+2       -0.01357  -0.00014  -0.00609   0.00000   0.00000
 114        8D-2        0.00000   0.00000   0.00000  -0.00439  -0.05046
 115        9D 0        0.00633   0.00527   0.00023   0.00000   0.00000
 116        9D+1        0.00000   0.00000   0.00000  -0.04030   0.01206
 117        9D-1       -0.01840   0.05138   0.00731   0.00000   0.00000
 118        9D+2        0.00368  -0.02223  -0.01075   0.00000   0.00000
 119        9D-2        0.00000   0.00000   0.00000  -0.02808  -0.02394
 120 4   H  1S         -0.01058  -0.01562   0.14354   0.00000   0.00000
 121        2S         -0.05494  -0.25591  -0.10545   0.00000   0.00000
 122        3S          0.30247   1.35843   0.13035   0.00000   0.00000
 123        4S          0.02041   0.12703   0.00451   0.00000   0.00000
 124        5PX         0.00000   0.00000   0.00000  -0.00077   0.09443
 125        5PY        -0.01820  -0.01432  -0.02356   0.00000   0.00000
 126        5PZ        -0.02905   0.00485   0.06170   0.00000   0.00000
 127        6PX         0.00000   0.00000   0.00000  -0.09222   0.20790
 128        6PY        -0.00870   0.07928   0.01864   0.00000   0.00000
 129        6PZ        -0.06952  -0.15482   0.03240   0.00000   0.00000
 130        7PX         0.00000   0.00000   0.00000  -0.02252   0.01577
 131        7PY        -0.03077  -0.24986   0.03276   0.00000   0.00000
 132        7PZ         0.04938   0.10295   0.11376   0.00000   0.00000
 133        8D 0       -0.01267   0.00155   0.01348   0.00000   0.00000
 134        8D+1        0.00000   0.00000   0.00000   0.00230   0.03513
 135        8D-1        0.01166  -0.00126  -0.02084   0.00000   0.00000
 136        8D+2       -0.01357   0.00014  -0.00609   0.00000   0.00000
 137        8D-2        0.00000   0.00000   0.00000   0.00439  -0.05046
 138        9D 0        0.00633  -0.00527   0.00023   0.00000   0.00000
 139        9D+1        0.00000   0.00000   0.00000  -0.04030  -0.01206
 140        9D-1        0.01840   0.05138  -0.00731   0.00000   0.00000
 141        9D+2        0.00368   0.02223  -0.01075   0.00000   0.00000
 142        9D-2        0.00000   0.00000   0.00000   0.02808  -0.02394
                          26        27        28        29        30
     Eigenvalues --     0.00601   0.00492   0.00466   0.00356   0.00234
   1 1   C  1S          0.03531   0.00000   0.13005   0.00000  -0.01365
   2        2S         -0.11761   0.00000  -0.51977   0.00000   0.07721
   3        3S         -0.12157   0.00000  -0.41745   0.00000   0.03720
   4        4S          0.32282   0.00000  -0.77718   0.00000   0.89202
   5        5S          0.08822   0.00000  -0.37578   0.00000   0.27514
   6        6PX         0.00000   0.00000   0.00000   0.12404   0.00000
   7        6PY         0.00000  -0.06172   0.00000   0.00000   0.00000
   8        6PZ         0.21768   0.00000  -0.38994   0.00000   0.03564
   9        7PX         0.00000   0.00000   0.00000   0.11518   0.00000
  10        7PY         0.00000   0.08259   0.00000   0.00000   0.00000
  11        7PZ         0.27415   0.00000  -0.46714   0.00000   0.11247
  12        8PX         0.00000   0.00000   0.00000   0.42607   0.00000
  13        8PY         0.00000   0.28648   0.00000   0.00000   0.00000
  14        8PZ         0.62134   0.00000  -0.22989   0.00000  -0.09007
  15        9PX         0.00000   0.00000   0.00000   0.02131   0.00000
  16        9PY         0.00000   0.00262   0.00000   0.00000   0.00000
  17        9PZ         0.04624   0.00000  -0.09327   0.00000   0.01109
  18       10D 0        0.02023   0.00000  -0.18739   0.00000   0.06946
  19       10D+1        0.00000   0.00000   0.00000   0.32571   0.00000
  20       10D-1        0.00000   0.27357   0.00000   0.00000   0.00000
  21       10D+2        0.20025   0.00000   0.06041   0.00000  -0.16187
  22       10D-2        0.00000   0.00000   0.00000   0.00000   0.00000
  23       11D 0        0.11065   0.00000  -0.36565   0.00000   0.05223
  24       11D+1        0.00000   0.00000   0.00000   0.60488   0.00000
  25       11D-1        0.00000   0.56765   0.00000   0.00000   0.00000
  26       11D+2        0.43874   0.00000   0.07665   0.00000  -0.36650
  27       11D-2        0.00000   0.00000   0.00000   0.00000   0.00000
  28       12D 0        0.19993   0.00000   0.20279   0.00000  -0.26699
  29       12D+1        0.00000   0.00000   0.00000   0.12957   0.00000
  30       12D-1        0.00000   0.36266   0.00000   0.00000   0.00000
  31       12D+2        0.11144   0.00000   0.10810   0.00000  -0.28822
  32       12D-2        0.00000   0.00000   0.00000   0.00000   0.00000
  33       13F 0       -0.02956   0.00000  -0.06053   0.00000  -0.10337
  34       13F+1        0.00000   0.00000   0.00000  -0.01333   0.00000
  35       13F-1        0.00000  -0.05947   0.00000   0.00000   0.00000
  36       13F+2       -0.01733   0.00000  -0.02774   0.00000  -0.19374
  37       13F-2        0.00000   0.00000   0.00000   0.00000   0.00000
  38       13F+3        0.00000   0.00000   0.00000   0.05811   0.00000
  39       13F-3        0.00000   0.01138   0.00000   0.00000   0.00000
  40       14F 0       -0.10241   0.00000  -0.11778   0.00000  -0.11185
  41       14F+1        0.00000   0.00000   0.00000   0.04780   0.00000
  42       14F-1        0.00000  -0.00591   0.00000   0.00000   0.00000
  43       14F+2       -0.05635   0.00000  -0.08665   0.00000  -0.20131
  44       14F-2        0.00000   0.00000   0.00000   0.00000   0.00000
  45       14F+3        0.00000   0.00000   0.00000   0.02252   0.00000
  46       14F-3        0.00000   0.05172   0.00000   0.00000   0.00000
  47 2   S  1S          0.05163   0.00000   0.00470   0.00000   0.00621
  48        2S         -0.16405   0.00000  -0.01884   0.00000  -0.02557
  49        3S          0.70229   0.00000   0.04563   0.00000   0.11384
  50        4S          0.51266   0.00000  -0.01788   0.00000   0.16160
  51        5S         -2.01006   0.00000   0.66702   0.00000  -0.29734
  52        6S         -0.36673   0.00000   0.68698   0.00000  -0.21869
  53        7PX         0.00000   0.00000   0.00000   0.16926   0.00000
  54        7PY         0.00000  -0.06656   0.00000   0.00000   0.00000
  55        7PZ        -0.17167   0.00000  -0.00719   0.00000  -0.07985
  56        8PX         0.00000   0.00000   0.00000  -0.28283   0.00000
  57        8PY         0.00000  -0.02870   0.00000   0.00000   0.00000
  58        8PZ         0.22840   0.00000  -0.34291   0.00000  -0.03985
  59        9PX         0.00000   0.00000   0.00000  -0.33461   0.00000
  60        9PY         0.00000   0.16665   0.00000   0.00000   0.00000
  61        9PZ         0.33877   0.00000   0.03947   0.00000   0.16825
  62       10PX         0.00000   0.00000   0.00000  -0.02015   0.00000
  63       10PY         0.00000  -0.97539   0.00000   0.00000   0.00000
  64       10PZ         0.31447   0.00000  -0.98940   0.00000   0.33702
  65       11PX         0.00000   0.00000   0.00000  -0.00118   0.00000
  66       11PY         0.00000  -0.06240   0.00000   0.00000   0.00000
  67       11PZ         0.02156   0.00000  -0.10177   0.00000   0.04094
  68       12D 0       -0.19284   0.00000   0.66185   0.00000  -0.13071
  69       12D+1        0.00000   0.00000   0.00000   0.45785   0.00000
  70       12D-1        0.00000   0.46040   0.00000   0.00000   0.00000
  71       12D+2       -0.04020   0.00000  -0.04626   0.00000   0.14138
  72       12D-2        0.00000   0.00000   0.00000   0.00000   0.00000
  73       13D 0       -0.14249   0.00000   0.37842   0.00000  -0.02966
  74       13D+1        0.00000   0.00000   0.00000   0.31076   0.00000
  75       13D-1        0.00000   0.33095   0.00000   0.00000   0.00000
  76       13D+2       -0.14676   0.00000  -0.08960   0.00000   0.18046
  77       13D-2        0.00000   0.00000   0.00000   0.00000   0.00000
  78       14D 0       -0.09913   0.00000   0.28890   0.00000  -0.10950
  79       14D+1        0.00000   0.00000   0.00000   0.10998   0.00000
  80       14D-1        0.00000   0.23295   0.00000   0.00000   0.00000
  81       14D+2        0.01918   0.00000  -0.00501   0.00000   0.03445
  82       14D-2        0.00000   0.00000   0.00000   0.00000   0.00000
  83       15F 0       -0.01646   0.00000   0.14925   0.00000   0.13623
  84       15F+1        0.00000   0.00000   0.00000   0.10563   0.00000
  85       15F-1        0.00000   0.16275   0.00000   0.00000   0.00000
  86       15F+2       -0.05862   0.00000  -0.04293   0.00000   0.37794
  87       15F-2        0.00000   0.00000   0.00000   0.00000   0.00000
  88       15F+3        0.00000   0.00000   0.00000   0.01671   0.00000
  89       15F-3        0.00000  -0.01619   0.00000   0.00000   0.00000
  90       16F 0        0.03887   0.00000  -0.11096   0.00000   0.07383
  91       16F+1        0.00000   0.00000   0.00000  -0.08172   0.00000
  92       16F-1        0.00000  -0.06998   0.00000   0.00000   0.00000
  93       16F+2        0.01243   0.00000  -0.03168   0.00000   0.05064
  94       16F-2        0.00000   0.00000   0.00000   0.00000   0.00000
  95       16F+3        0.00000   0.00000   0.00000  -0.01746   0.00000
  96       16F-3        0.00000  -0.00787   0.00000   0.00000   0.00000
  97 3   H  1S         -0.10079   0.22233  -0.08971   0.00000  -0.29620
  98        2S          0.41149  -0.27382   0.05348   0.00000  -0.12870
  99        3S          0.45914  -0.72453   0.04760   0.00000  -0.14476
 100        4S          0.01138  -0.01996  -0.01740   0.00000  -0.01170
 101        5PX         0.00000   0.00000   0.00000  -0.09340   0.00000
 102        5PY        -0.03021   0.10237  -0.03077   0.00000  -0.03635
 103        5PZ        -0.06007   0.00396   0.02550   0.00000  -0.01727
 104        6PX         0.00000   0.00000   0.00000  -0.13476   0.00000
 105        6PY         0.06138   0.08129  -0.06312   0.00000  -0.01108
 106        6PZ         0.00933  -0.05539   0.04020   0.00000  -0.08339
 107        7PX         0.00000   0.00000   0.00000  -0.00812   0.00000
 108        7PY         0.02331  -0.05703  -0.10044   0.00000   0.13240
 109        7PZ         0.12396   0.03651   0.09452   0.00000  -0.13599
 110        8D 0       -0.01506  -0.02171   0.00772   0.00000   0.00163
 111        8D+1        0.00000   0.00000   0.00000  -0.01556   0.00000
 112        8D-1       -0.01825   0.01256   0.00725   0.00000  -0.02243
 113        8D+2        0.01094  -0.02986   0.02056   0.00000   0.00749
 114        8D-2        0.00000   0.00000   0.00000  -0.05105   0.00000
 115        9D 0       -0.00408  -0.01880  -0.01767   0.00000  -0.01349
 116        9D+1        0.00000   0.00000   0.00000   0.00017   0.00000
 117        9D-1        0.01630   0.02272   0.01409   0.00000  -0.00174
 118        9D+2        0.02492  -0.03197   0.03350   0.00000  -0.01126
 119        9D-2        0.00000   0.00000   0.00000   0.01075   0.00000
 120 4   H  1S         -0.10079  -0.22233  -0.08971   0.00000  -0.29620
 121        2S          0.41149   0.27382   0.05348   0.00000  -0.12870
 122        3S          0.45914   0.72453   0.04760   0.00000  -0.14476
 123        4S          0.01138   0.01996  -0.01740   0.00000  -0.01170
 124        5PX         0.00000   0.00000   0.00000  -0.09340   0.00000
 125        5PY         0.03021   0.10237   0.03077   0.00000   0.03635
 126        5PZ        -0.06007  -0.00396   0.02550   0.00000  -0.01727
 127        6PX         0.00000   0.00000   0.00000  -0.13476   0.00000
 128        6PY        -0.06138   0.08129   0.06312   0.00000   0.01108
 129        6PZ         0.00933   0.05539   0.04020   0.00000  -0.08339
 130        7PX         0.00000   0.00000   0.00000  -0.00812   0.00000
 131        7PY        -0.02331  -0.05703   0.10044   0.00000  -0.13240
 132        7PZ         0.12396  -0.03651   0.09452   0.00000  -0.13599
 133        8D 0       -0.01506   0.02171   0.00772   0.00000   0.00163
 134        8D+1        0.00000   0.00000   0.00000  -0.01556   0.00000
 135        8D-1        0.01825   0.01256  -0.00725   0.00000   0.02243
 136        8D+2        0.01094   0.02986   0.02056   0.00000   0.00749
 137        8D-2        0.00000   0.00000   0.00000   0.05105   0.00000
 138        9D 0       -0.00408   0.01880  -0.01767   0.00000  -0.01349
 139        9D+1        0.00000   0.00000   0.00000   0.00017   0.00000
 140        9D-1       -0.01630   0.02272  -0.01409   0.00000   0.00174
 141        9D+2        0.02492   0.03197   0.03350   0.00000  -0.01126
 142        9D-2        0.00000   0.00000   0.00000  -0.01075   0.00000
                          31        32        33        34        35
     Eigenvalues --     0.00207   0.00196   0.00194   0.00185   0.00154
   1 1   C  1S          0.00000   0.04441   0.00000   0.00000   0.00000
   2        2S          0.00000  -0.19376   0.00000   0.00000   0.00000
   3        3S          0.00000  -0.18535   0.00000   0.00000   0.00000
   4        4S          0.00000   0.12727   0.00000   0.00000   0.00000
   5        5S          0.00000   0.01500   0.00000   0.00000   0.00000
   6        6PX         0.00000   0.00000   0.00000   0.00000  -0.36307
   7        6PY        -0.16211   0.00000   0.00000   0.31295   0.00000
   8        6PZ         0.00000   0.06574   0.00000   0.00000   0.00000
[...]
 137        8D-2        0.00000   0.00000  -0.17003   0.00000   0.00000
 138        9D 0        1.04500   0.51794   0.00000   0.30552   1.36679
 139        9D+1        0.00000   0.00000   0.06092   0.00000   0.00000
 140        9D-1       -0.61195   0.24531   0.00000  -1.21389  -0.36995
 141        9D+2       -0.10553   0.25591   0.00000   0.45443   1.40047
 142        9D-2        0.00000   0.00000   1.10976   0.00000   0.00000
                         136       137       138       139       140
     Eigenvalues --     0.00000   0.00000   0.00000   0.00000   0.00000
   1 1   C  1S          0.00000   0.42331   0.00000  -0.07367  -0.07772
   2        2S          0.00000   2.48169   0.00000  -0.39743  -0.43688
   3        3S          0.00000  -0.09948   0.00000   0.05433   0.02142
   4        4S          0.00000  25.35851   0.00000 -17.75924  -3.61441
   5        5S          0.00000  16.60042   0.00000  -2.45901   4.61198
   6        6PX         0.00000   0.00000  -0.02139   0.00000   0.00000
   7        6PY        -0.04153   0.00000   0.00000   0.00000   0.00000
   8        6PZ         0.00000   0.05483   0.00000   0.01727   0.01114
   9        7PX         0.00000   0.00000   0.36690   0.00000   0.00000
  10        7PY         2.93955   0.00000   0.00000   0.00000   0.00000
  11        7PZ         0.00000  -2.09537   0.00000   0.30418   0.32518
  12        8PX         0.00000   0.00000   0.11910   0.00000   0.00000
  13        8PY        17.14102   0.00000   0.00000   0.00000   0.00000
  14        8PZ         0.00000  -8.30748   0.00000   0.37667   9.02674
  15        9PX         0.00000   0.00000  -2.88587   0.00000   0.00000
  16        9PY         6.48784   0.00000   0.00000   0.00000   0.00000
  17        9PZ         0.00000  -0.79695   0.00000  -1.77321   5.72913
  18       10D 0        0.00000   0.00250   0.00000   0.00371  -0.01151
  19       10D+1        0.00000   0.00000  -0.00011   0.00000   0.00000
  20       10D-1       -0.08388   0.00000   0.00000   0.00000   0.00000
  21       10D+2        0.00000  -0.14855   0.00000   0.00926   0.01135
  22       10D-2        0.00000   0.00000   0.00000   0.00000   0.00000
  23       11D 0        0.00000   0.08358   0.00000  -0.28495   0.22978
  24       11D+1        0.00000   0.00000  -0.28783   0.00000   0.00000
  25       11D-1       -1.79218   0.00000   0.00000   0.00000   0.00000
  26       11D+2        0.00000  -1.18812   0.00000   0.53177   0.33338
  27       11D-2        0.00000   0.00000   0.00000   0.00000   0.00000
  28       12D 0        0.00000   3.87036   0.00000   0.88706   1.83366
  29       12D+1        0.00000   0.00000  -2.57159   0.00000   0.00000
  30       12D-1       -6.81668   0.00000   0.00000   0.00000   0.00000
  31       12D+2        0.00000   0.83982   0.00000   1.01414   0.96780
  32       12D-2        0.00000   0.00000   0.00000   0.00000   0.00000
  33       13F 0        0.00000   0.09698   0.00000   0.01616  -0.00228
  34       13F+1        0.00000   0.00000   0.01521   0.00000   0.00000
  35       13F-1        0.06381   0.00000   0.00000   0.00000   0.00000
  36       13F+2        0.00000   0.13521   0.00000  -0.02829  -0.01813
  37       13F-2        0.00000   0.00000   0.00000   0.00000   0.00000
  38       13F+3        0.00000   0.00000  -0.00612   0.00000   0.00000
  39       13F-3       -0.06951   0.00000   0.00000   0.00000   0.00000
  40       14F 0        0.00000  -0.19570   0.00000  -0.62658  -0.02774
  41       14F+1        0.00000   0.00000   0.02603   0.00000   0.00000
  42       14F-1       -0.30004   0.00000   0.00000   0.00000   0.00000
  43       14F+2        0.00000   0.25083   0.00000  -0.24176  -0.11167
  44       14F-2        0.00000   0.00000   0.00000   0.00000   0.00000
  45       14F+3        0.00000   0.00000  -0.02393   0.00000   0.00000
  46       14F-3       -0.16011   0.00000   0.00000   0.00000   0.00000
  47 2   S  1S          0.00000   0.01504   0.00000   0.01291   0.00271
  48        2S          0.00000   0.19901   0.00000   0.20106   0.01955
  49        3S          0.00000   0.62743   0.00000   0.56570   0.10582
  50        4S          0.00000   0.02515   0.00000  -0.08819   0.10334
  51        5S          0.00000  -2.76585   0.00000   1.92638  -5.48770
  52        6S          0.00000  -9.63028   0.00000  -2.45848 -15.92444
  53        7PX         0.00000   0.00000   0.00397   0.00000   0.00000
  54        7PY        -0.00698   0.00000   0.00000   0.00000   0.00000
  55        7PZ         0.00000  -0.00442   0.00000  -0.04156  -0.00520
  56        8PX         0.00000   0.00000  -0.01827   0.00000   0.00000
  57        8PY        -0.10386   0.00000   0.00000   0.00000   0.00000
  58        8PZ         0.00000  -0.26507   0.00000  -1.03002   0.02743
  59        9PX         0.00000   0.00000  -0.01952   0.00000   0.00000
  60        9PY         0.03297   0.00000   0.00000   0.00000   0.00000
  61        9PZ         0.00000  -0.02955   0.00000   0.08496   0.02917
  62       10PX         0.00000   0.00000   2.04446   0.00000   0.00000
  63       10PY         3.79857   0.00000   0.00000   0.00000   0.00000
  64       10PZ         0.00000   3.71941   0.00000   0.35195   6.57751
  65       11PX         0.00000   0.00000   2.70921   0.00000   0.00000
  66       11PY        -0.58499   0.00000   0.00000   0.00000   0.00000
  67       11PZ         0.00000   2.82554   0.00000   2.70872   2.29985
  68       12D 0        0.00000  -0.28770   0.00000   0.68194  -0.29417
  69       12D+1        0.00000   0.00000   0.12759   0.00000   0.00000
  70       12D-1       -0.25921   0.00000   0.00000   0.00000   0.00000
  71       12D+2        0.00000  -0.05554   0.00000   0.01864  -0.02257
  72       12D-2        0.00000   0.00000   0.00000   0.00000   0.00000
  73       13D 0        0.00000   0.06456   0.00000  -0.05174   0.02435
  74       13D+1        0.00000   0.00000  -0.04665   0.00000   0.00000
  75       13D-1       -0.00946   0.00000   0.00000   0.00000   0.00000
  76       13D+2        0.00000   0.01634   0.00000   0.00174   0.00820
  77       13D-2        0.00000   0.00000   0.00000   0.00000   0.00000
  78       14D 0        0.00000  -1.43958   0.00000  -1.15615  -1.54248
  79       14D+1        0.00000   0.00000  -1.80751   0.00000   0.00000
  80       14D-1       -1.78024   0.00000   0.00000   0.00000   0.00000
  81       14D+2        0.00000   0.20152   0.00000   0.22006  -0.05319
  82       14D-2        0.00000   0.00000   0.00000   0.00000   0.00000
  83       15F 0        0.00000  -0.06049   0.00000  -0.03427  -0.01688
  84       15F+1        0.00000   0.00000  -0.02394   0.00000   0.00000
  85       15F-1        0.00578   0.00000   0.00000   0.00000   0.00000
  86       15F+2        0.00000   0.01082   0.00000   0.01381  -0.00920
  87       15F-2        0.00000   0.00000   0.00000   0.00000   0.00000
  88       15F+3        0.00000   0.00000   0.00429   0.00000   0.00000
  89       15F-3        0.02719   0.00000   0.00000   0.00000   0.00000
  90       16F 0        0.00000   0.37914   0.00000  -0.01459   0.14066
  91       16F+1        0.00000   0.00000   0.21824   0.00000   0.00000
  92       16F-1        0.25811   0.00000   0.00000   0.00000   0.00000
  93       16F+2        0.00000  -0.12350   0.00000  -0.11741   0.03855
  94       16F-2        0.00000   0.00000   0.00000   0.00000   0.00000
  95       16F+3        0.00000   0.00000  -0.01446   0.00000   0.00000
  96       16F-3       -0.07823   0.00000   0.00000   0.00000   0.00000
  97 3   H  1S         -0.05069   0.10127   0.00000  -0.01963  -0.01659
  98        2S          3.71894  -3.71237   0.00000   1.51637   0.92958
  99        3S         29.68604 -11.87764   0.00000   9.33365   8.09218
 100        4S          5.24498  -1.31946   0.00000   0.57602   2.13302
 101        5PX         0.00000   0.00000   0.07934   0.00000   0.00000
 102        5PY        -0.11712   0.06758   0.00000  -0.03369  -0.02776
 103        5PZ        -0.07304   0.04180   0.00000   0.00064  -0.01708
 104        6PX         0.00000   0.00000  -0.41255   0.00000   0.00000
 105        6PY         1.80119  -2.07616   0.00000   0.63213   0.41588
 106        6PZ         1.39340  -0.94975   0.00000   0.39669   0.24974
 107        7PX         0.00000   0.00000  -0.93456   0.00000   0.00000
 108        7PY         5.18899  -5.07472   0.00000   2.00038   1.66343
 109        7PZ         3.51422   2.32391   0.00000   3.82864   1.09696
 110        8D 0       -0.03256  -0.03387   0.00000  -0.01504   0.00969
 111        8D+1        0.00000   0.00000  -0.00444   0.00000   0.00000
 112        8D-1        0.05227  -0.17352   0.00000  -0.02195   0.01346
 113        8D+2       -0.12080   0.12301   0.00000   0.01364  -0.01543
 114        8D-2        0.00000   0.00000   0.07376   0.00000   0.00000
 115        9D 0        0.18561   0.48789   0.00000   0.00485  -0.07562
 116        9D+1        0.00000   0.00000   0.00787   0.00000   0.00000
 117        9D-1        0.86115  -0.01585   0.00000   0.55190   0.08602
 118        9D+2        0.07607   0.60752   0.00000  -0.15562  -0.05916
 119        9D-2        0.00000   0.00000  -0.50948   0.00000   0.00000
 120 4   H  1S          0.05069   0.10127   0.00000  -0.01963  -0.01659
 121        2S         -3.71894  -3.71237   0.00000   1.51637   0.92958
 122        3S        -29.68604 -11.87764   0.00000   9.33365   8.09218
 123        4S         -5.24498  -1.31946   0.00000   0.57602   2.13302
 124        5PX         0.00000   0.00000   0.07934   0.00000   0.00000
 125        5PY        -0.11712  -0.06758   0.00000   0.03369   0.02776
 126        5PZ         0.07304   0.04180   0.00000   0.00064  -0.01708
 127        6PX         0.00000   0.00000  -0.41255   0.00000   0.00000
 128        6PY         1.80119   2.07616   0.00000  -0.63213  -0.41588
 129        6PZ        -1.39340  -0.94975   0.00000   0.39669   0.24974
 130        7PX         0.00000   0.00000  -0.93456   0.00000   0.00000
 131        7PY         5.18899   5.07472   0.00000  -2.00038  -1.66343
 132        7PZ        -3.51422   2.32391   0.00000   3.82864   1.09696
 133        8D 0        0.03256  -0.03387   0.00000  -0.01504   0.00969
 134        8D+1        0.00000   0.00000  -0.00444   0.00000   0.00000
 135        8D-1        0.05227   0.17352   0.00000   0.02195  -0.01346
 136        8D+2        0.12080   0.12301   0.00000   0.01364  -0.01543
 137        8D-2        0.00000   0.00000  -0.07376   0.00000   0.00000
 138        9D 0       -0.18561   0.48789   0.00000   0.00485  -0.07562
 139        9D+1        0.00000   0.00000   0.00787   0.00000   0.00000
 140        9D-1        0.86115   0.01585   0.00000  -0.55190  -0.08602
 141        9D+2       -0.07607   0.60752   0.00000  -0.15562  -0.05916
 142        9D-2        0.00000   0.00000   0.50948   0.00000   0.00000
                         141       142
     Eigenvalues --     0.00000   0.00000
   1 1   C  1S          0.00000  -0.00384
   2        2S          0.00000  -0.00916
   3        3S          0.00000   0.04648
   4        4S          0.00000   7.93140
   5        5S          0.00000  15.97677
   6        6PX         0.00000   0.00000
   7        6PY        -0.00789   0.00000
   8        6PZ         0.00000   0.00385
   9        7PX         0.00000   0.00000
  10        7PY        -0.15996   0.00000
  11        7PZ         0.00000  -0.06468
  12        8PX         0.00000   0.00000
  13        8PY        -5.02097   0.00000
  14        8PZ         0.00000   1.16614
  15        9PX         0.00000   0.00000
  16        9PY        -5.24453   0.00000
  17        9PZ         0.00000   1.20667
  18       10D 0        0.00000   0.00985
  19       10D+1        0.00000   0.00000
  20       10D-1       -0.01460   0.00000
  21       10D+2        0.00000  -0.01280
  22       10D-2        0.00000   0.00000
  23       11D 0        0.00000  -0.08734
  24       11D+1        0.00000   0.00000
  25       11D-1        0.12628   0.00000
  26       11D+2        0.00000   0.02439
  27       11D-2        0.00000   0.00000
  28       12D 0        0.00000   0.43042
  29       12D+1        0.00000   0.00000
  30       12D-1       -0.90310   0.00000
  31       12D+2        0.00000  -0.36471
  32       12D-2        0.00000   0.00000
  33       13F 0        0.00000  -0.01186
  34       13F+1        0.00000   0.00000
  35       13F-1        0.00442   0.00000
  36       13F+2        0.00000  -0.00522
  37       13F-2        0.00000   0.00000
  38       13F+3        0.00000   0.00000
  39       13F-3        0.00410   0.00000
  40       14F 0        0.00000   0.01924
  41       14F+1        0.00000   0.00000
  42       14F-1       -0.09138   0.00000
  43       14F+2        0.00000  -0.04978
  44       14F-2        0.00000   0.00000
  45       14F+3        0.00000   0.00000
  46       14F-3       -0.01370   0.00000
  47 2   S  1S          0.00000   0.00306
  48        2S          0.00000   0.04763
  49        3S          0.00000   0.13395
  50        4S          0.00000  -0.01540
  51        5S          0.00000  -1.71040
  52        6S          0.00000  -8.60453
  53        7PX         0.00000   0.00000
  54        7PY        -0.00574   0.00000
  55        7PZ         0.00000  -0.00304
  56        8PX         0.00000   0.00000
  57        8PY        -0.05123   0.00000
  58        8PZ         0.00000  -0.04868
  59        9PX         0.00000   0.00000
  60        9PY         0.02463   0.00000
  61        9PZ         0.00000   0.01274
  62       10PX         0.00000   0.00000
  63       10PY         1.25905   0.00000
  64       10PZ         0.00000   2.26852
  65       11PX         0.00000   0.00000
  66       11PY         0.51739   0.00000
  67       11PZ         0.00000   2.29050
  68       12D 0        0.00000  -0.04181
  69       12D+1        0.00000   0.00000
  70       12D-1       -0.07758   0.00000
  71       12D+2        0.00000   0.03501
  72       12D-2        0.00000   0.00000
  73       13D 0        0.00000   0.00687
  74       13D+1        0.00000   0.00000
  75       13D-1        0.00182   0.00000
  76       13D+2        0.00000  -0.00804
  77       13D-2        0.00000   0.00000
  78       14D 0        0.00000  -0.62476
  79       14D+1        0.00000   0.00000
  80       14D-1       -0.43635   0.00000
  81       14D+2        0.00000  -0.08037
  82       14D-2        0.00000   0.00000
  83       15F 0        0.00000  -0.01499
  84       15F+1        0.00000   0.00000
  85       15F-1       -0.00021   0.00000
  86       15F+2        0.00000  -0.00639
  87       15F-2        0.00000   0.00000
  88       15F+3        0.00000   0.00000
  89       15F-3       -0.00345   0.00000
  90       16F 0        0.00000   0.06195
  91       16F+1        0.00000   0.00000
  92       16F-1        0.03641   0.00000
  93       16F+2        0.00000   0.01312
  94       16F-2        0.00000   0.00000
  95       16F+3        0.00000   0.00000
  96       16F-3        0.02108   0.00000
  97 3   H  1S         -0.01325  -0.01326
  98        2S         -0.03381   0.19616
  99        3S         -8.29526  -4.82163
 100        4S         -8.16668  -2.43149
 101        5PX         0.00000   0.00000
 102        5PY         0.02051   0.00788
 103        5PZ         0.00566   0.01535
 104        6PX         0.00000   0.00000
 105        6PY        -0.25391  -0.08593
 106        6PZ        -0.08467  -0.14970
 107        7PX         0.00000   0.00000
 108        7PY        -2.56354  -1.15241
 109        7PZ        -2.30277  -0.98939
 110        8D 0        0.00729   0.00667
 111        8D+1        0.00000   0.00000
 112        8D-1        0.01194   0.01119
 113        8D+2       -0.02547  -0.00087
 114        8D-2        0.00000   0.00000
 115        9D 0       -0.01589  -0.04836
 116        9D+1        0.00000   0.00000
 117        9D-1       -0.18767  -0.19783
 118        9D+2        0.23729   0.07356
 119        9D-2        0.00000   0.00000
 120 4   H  1S          0.01325  -0.01326
 121        2S          0.03381   0.19616
 122        3S          8.29526  -4.82163
 123        4S          8.16668  -2.43149
 124        5PX         0.00000   0.00000
 125        5PY         0.02051  -0.00788
 126        5PZ        -0.00566   0.01535
 127        6PX         0.00000   0.00000
 128        6PY        -0.25391   0.08593
 129        6PZ         0.08467  -0.14970
 130        7PX         0.00000   0.00000
 131        7PY        -2.56354   1.15241
 132        7PZ         2.30277  -0.98939
 133        8D 0       -0.00729   0.00667
 134        8D+1        0.00000   0.00000
 135        8D-1        0.01194  -0.01119
 136        8D+2        0.02547  -0.00087
 137        8D-2        0.00000   0.00000
 138        9D 0        0.01589  -0.04836
 139        9D+1        0.00000   0.00000
 140        9D-1       -0.18767   0.19783
 141        9D+2       -0.23729   0.07356
 142        9D-2        0.00000   0.00000
          Condensed to atoms (all electrons):
              1          2          3          4
     1  C    6.180830   0.277410   0.183496   0.183496
     2  S    0.277410  16.018270  -0.115107  -0.115107
     3  H    0.183496  -0.115107   0.643931  -0.157670
     4  H    0.183496  -0.115107  -0.157670   0.643931
 Mulliken atomic charges:
              1
     1  C   -0.825233
     2  S   -0.065467
     3  H    0.445350
     4  H    0.445350
 Sum of Mulliken atomic charges =   0.00000
 Mulliken charges with hydrogens summed into heavy atoms:
              1
     1  C    0.065467
     2  S   -0.065467
 Sum of Mulliken charges with hydrogens summed into heavy atoms =   0.00000
 Electronic spatial extent (au):  <R**2>=            131.5346
 Charge=              0.0000 electrons
 Dipole moment (field-independent basis, Debye):
    X=              0.0000    Y=              0.0000    Z=             -1.7694  Tot=              1.7694
 Quadrupole moment (field-independent basis, Debye-Ang):
   XX=            -20.0116   YY=            -20.5925   ZZ=            -18.9637
   XY=              0.0000   XZ=              0.0000   YZ=              0.0000
 Traceless Quadrupole moment (field-independent basis, Debye-Ang):
   XX=             -0.1557   YY=             -0.7365   ZZ=              0.8922
   XY=              0.0000   XZ=              0.0000   YZ=              0.0000
 Octapole moment (field-independent basis, Debye-Ang**2):
  XXX=              0.0000  YYY=              0.0000  ZZZ=            -28.0725  XYY=              0.0000
  XXY=              0.0000  XXZ=             -8.7096  XZZ=              0.0000  YZZ=              0.0000
  YYZ=            -13.2977  XYZ=              0.0000
 Hexadecapole moment (field-independent basis, Debye-Ang**3):
 XXXX=            -25.4263 YYYY=            -35.1591 ZZZZ=           -128.8558 XXXY=              0.0000
 XXXZ=              0.0000 YYYX=              0.0000 YYYZ=              0.0000 ZZZX=              0.0000
 ZZZY=              0.0000 XXYY=            -10.5276 XXZZ=            -25.6243 YYZZ=            -29.8521
 XXYZ=              0.0000 YYXZ=              0.0000 ZZXY=              0.0000
 N-N= 4.448301437387D+01 E-N=-1.126896318307D+03  KE= 4.368413608940D+02
 1\1\GINC-TRAPISTA\SP\RQCISD-FC\Aug-CC-pVTZ\C1H2S1\BRUNS\17-Nov-2021\0\
 \# qcisd/aug-cc-pvtz nosymm density=current output=wfn\\h2cs-wavefunct
 ion\\0,1\C,0,0.,0.,-0.555291\S,0,0.,0.,1.070374\H,0,0.,-0.92228,-1.128
 992\H,0,0.,0.92228,-1.128992\\Version=EM64L-G09RevB.01\HF=-436.5571277
 \MP2=-436.8983603\MP3=-436.9210868\MP4D=-436.931174\MP4DQ=-436.919425\
 MP4SDQ=-436.9230024\QCISD=-436.9234383\RMSD=7.167e-09\Dipole=0.,0.,-0.
 6961456\Quadrupole=-0.1157351,-0.5476043,0.6633394,0.,0.,0.\PG=C02V [C
 2(C1S1),SGV(H2)]\\@

 Writing a WFN file to GAUSSIAN.wfn.


 FIREWORKS ENDED
 AND SPECTATORS GONE AWAY....
 AH, HOW VAST AND DARK
                     SHIKI
 Job cpu time:  0 days  0 hours 24 minutes  7.8 seconds.
 File lengths (MBytes):  RWF=   5923 Int=      0 D2E=      0 Chk=      2 Scr=      1
 Normal termination of Gaussian 09 at Wed Nov 17 17:27:09 2021.
