 h2cs-wavefunction
GAUSSIAN            142 MOL ORBITALS    240 PRIMITIVES        4 NUCLEI
  C    1    (CENTRE  1)  -0.01889726  0.00000000 -1.04934791  CHARGE =  6.0
  S    2    (CENTRE  2)   0.00000000  0.00000000  2.00381646  CHARGE = 16.0
  H    3    (CENTRE  3)   0.00000000 -1.74285662 -2.13348569  CHARGE =  1.0
  H    4    (CENTRE  4)   0.00000000  1.74285662 -2.13348569  CHARGE =  1.0
CENTRE ASSIGNMENTS    1  1  1  1  1  1  1  1  1  1  1  1  1  1  1  1  1  1  1  1
CENTRE ASSIGNMENTS    1  1  1  1  1  1  1  1  1  1  1  1  1  1  1  1  1  1  1  1
CENTRE ASSIGNMENTS    1  1  1  1  1  1  1  1  1  1  1  1  1  1  1  1  1  1  1  1
CENTRE ASSIGNMENTS    1  1  1  1  1  1  1  1  1  1  1  1  2  2  2  2  2  2  2  2
CENTRE ASSIGNMENTS    2  2  2  2  2  2  2  2  2  2  2  2  2  2  2  2  2  2  2  2
CENTRE ASSIGNMENTS    2  2  2  2  2  2  2  2  2  2  2  2  2  2  2  2  2  2  2  2
CENTRE ASSIGNMENTS    2  2  2  2  2  2  2  2  2  2  2  2  2  2  2  2  2  2  2  2
CENTRE ASSIGNMENTS    2  2  2  2  2  2  2  2  2  2  2  2  2  2  2  2  2  2  2  2
CENTRE ASSIGNMENTS    2  2  2  2  2  2  2  2  2  2  2  2  2  2  2  2  2  2  2  2
CENTRE ASSIGNMENTS    2  2  2  2  2  2  3  3  3  3  3  3  3  3  3  3  3  3  3  3
CENTRE ASSIGNMENTS    3  3  3  3  3  3  3  3  3  3  3  3  3  4  4  4  4  4  4  4
CENTRE ASSIGNMENTS    4  4  4  4  4  4  4  4  4  4  4  4  4  4  4  4  4  4  4  4
TYPE ASSIGNMENTS      1  1  1  1  1  1  1  1  1  1  1  1  1  1  1  1  2  2  2  3
TYPE ASSIGNMENTS      3  3  4  4  4  2  3  4  2  3  4  2  3  4  5  6  7  8  9 10
TYPE ASSIGNMENTS      5  6  7  8  9 10  5  6  7  8  9 10 11 12 13 17 14 15 18 19
TYPE ASSIGNMENTS     16 20 11 12 13 17 14 15 18 19 16 20  1  1  1  1  1  1  1  1
TYPE ASSIGNMENTS      1  1  1  1  1  1  1  1  1  1  1  1  1  1  1  1  1  1  1  1
TYPE ASSIGNMENTS      1  1  1  2  2  2  2  2  2  3  3  3  3  3  3  4  4  4  4  4
TYPE ASSIGNMENTS      4  2  2  2  2  2  2  3  3  3  3  3  3  4  4  4  4  4  4  2
TYPE ASSIGNMENTS      3  4  2  3  4  2  3  4  5  6  7  8  9 10  5  6  7  8  9 10
TYPE ASSIGNMENTS      5  6  7  8  9 10 11 12 13 17 14 15 18 19 16 20 11 12 13 17
TYPE ASSIGNMENTS     14 15 18 19 16 20  1  1  1  1  1  1  2  3  4  2  3  4  2  3
TYPE ASSIGNMENTS      4  5  6  7  8  9 10  5  6  7  8  9 10  1  1  1  1  1  1  2
TYPE ASSIGNMENTS      3  4  2  3  4  2  3  4  5  6  7  8  9 10  5  6  7  8  9 10
EXPONENTS  0.8236000D+04 0.1235000D+04 0.2808000D+03 0.7927000D+02 0.2559000D+02
EXPONENTS  0.8997000D+01 0.3319000D+01 0.2808000D+03 0.7927000D+02 0.2559000D+02
EXPONENTS  0.8997000D+01 0.3319000D+01 0.3643000D+00 0.9059000D+00 0.1285000D+00
EXPONENTS  0.4402000D-01 0.1871000D+02 0.4133000D+01 0.1200000D+01 0.1871000D+02
EXPONENTS  0.4133000D+01 0.1200000D+01 0.1871000D+02 0.4133000D+01 0.1200000D+01
EXPONENTS  0.3827000D+00 0.3827000D+00 0.3827000D+00 0.1209000D+00 0.1209000D+00
EXPONENTS  0.1209000D+00 0.3569000D-01 0.3569000D-01 0.3569000D-01 0.1097000D+01
EXPONENTS  0.1097000D+01 0.1097000D+01 0.1097000D+01 0.1097000D+01 0.1097000D+01
EXPONENTS  0.3180000D+00 0.3180000D+00 0.3180000D+00 0.3180000D+00 0.3180000D+00
EXPONENTS  0.3180000D+00 0.1000000D+00 0.1000000D+00 0.1000000D+00 0.1000000D+00
EXPONENTS  0.1000000D+00 0.1000000D+00 0.7610000D+00 0.7610000D+00 0.7610000D+00
EXPONENTS  0.7610000D+00 0.7610000D+00 0.7610000D+00 0.7610000D+00 0.7610000D+00
EXPONENTS  0.7610000D+00 0.7610000D+00 0.2680000D+00 0.2680000D+00 0.2680000D+00
EXPONENTS  0.2680000D+00 0.2680000D+00 0.2680000D+00 0.2680000D+00 0.2680000D+00
EXPONENTS  0.2680000D+00 0.2680000D+00 0.3741000D+06 0.5605000D+05 0.1276000D+05
EXPONENTS  0.3615000D+04 0.1183000D+04 0.4288000D+03 0.1678000D+03 0.6947000D+02
EXPONENTS  0.2984000D+02 0.1272000D+02 0.5244000D+01 0.3615000D+04 0.1183000D+04
EXPONENTS  0.4288000D+03 0.1678000D+03 0.6947000D+02 0.2984000D+02 0.1272000D+02
EXPONENTS  0.5244000D+01 0.2219000D+01 0.1183000D+04 0.1678000D+03 0.6947000D+02
EXPONENTS  0.2984000D+02 0.1272000D+02 0.5244000D+01 0.2219000D+01 0.3490000D+00
EXPONENTS  0.7767000D+00 0.1322000D+00 0.4970000D-01 0.5744000D+03 0.1358000D+03
EXPONENTS  0.4319000D+02 0.1587000D+02 0.6208000D+01 0.2483000D+01 0.5744000D+03
EXPONENTS  0.1358000D+03 0.4319000D+02 0.1587000D+02 0.6208000D+01 0.2483000D+01
EXPONENTS  0.5744000D+03 0.1358000D+03 0.4319000D+02 0.1587000D+02 0.6208000D+01
EXPONENTS  0.2483000D+01 0.1358000D+03 0.4319000D+02 0.1587000D+02 0.6208000D+01
EXPONENTS  0.2483000D+01 0.3229000D+00 0.1358000D+03 0.4319000D+02 0.1587000D+02
EXPONENTS  0.6208000D+01 0.2483000D+01 0.3229000D+00 0.1358000D+03 0.4319000D+02
EXPONENTS  0.1587000D+02 0.6208000D+01 0.2483000D+01 0.3229000D+00 0.8688000D+00
EXPONENTS  0.8688000D+00 0.8688000D+00 0.1098000D+00 0.1098000D+00 0.1098000D+00
EXPONENTS  0.3510000D-01 0.3510000D-01 0.3510000D-01 0.2690000D+00 0.2690000D+00
EXPONENTS  0.2690000D+00 0.2690000D+00 0.2690000D+00 0.2690000D+00 0.8190000D+00
EXPONENTS  0.8190000D+00 0.8190000D+00 0.8190000D+00 0.8190000D+00 0.8190000D+00
EXPONENTS  0.1010000D+00 0.1010000D+00 0.1010000D+00 0.1010000D+00 0.1010000D+00
EXPONENTS  0.1010000D+00 0.5570000D+00 0.5570000D+00 0.5570000D+00 0.5570000D+00
EXPONENTS  0.5570000D+00 0.5570000D+00 0.5570000D+00 0.5570000D+00 0.5570000D+00
EXPONENTS  0.5570000D+00 0.2180000D+00 0.2180000D+00 0.2180000D+00 0.2180000D+00
EXPONENTS  0.2180000D+00 0.2180000D+00 0.2180000D+00 0.2180000D+00 0.2180000D+00
EXPONENTS  0.2180000D+00 0.3387000D+02 0.5095000D+01 0.1159000D+01 0.3258000D+00
EXPONENTS  0.1027000D+00 0.2526000D-01 0.1407000D+01 0.1407000D+01 0.1407000D+01
EXPONENTS  0.3880000D+00 0.3880000D+00 0.3880000D+00 0.1020000D+00 0.1020000D+00
EXPONENTS  0.1020000D+00 0.1057000D+01 0.1057000D+01 0.1057000D+01 0.1057000D+01
EXPONENTS  0.1057000D+01 0.1057000D+01 0.2470000D+00 0.2470000D+00 0.2470000D+00
EXPONENTS  0.2470000D+00 0.2470000D+00 0.2470000D+00 0.3387000D+02 0.5095000D+01
EXPONENTS  0.1159000D+01 0.3258000D+00 0.1027000D+00 0.2526000D-01 0.1407000D+01
EXPONENTS  0.1407000D+01 0.1407000D+01 0.3880000D+00 0.3880000D+00 0.3880000D+00
EXPONENTS  0.1020000D+00 0.1020000D+00 0.1020000D+00 0.1057000D+01 0.1057000D+01
EXPONENTS  0.1057000D+01 0.1057000D+01 0.1057000D+01 0.1057000D+01 0.2470000D+00
EXPONENTS  0.2470000D+00 0.2470000D+00 0.2470000D+00 0.2470000D+00 0.2470000D+00
MO    1     MO 0.0        OCC NO =    2.0000337  ORB. ENERGY =    0.000000
 -0.16387469D-10 -0.30549544D-10 -0.51632892D-10 -0.77613867D-10 -0.95334734D-10
 -0.80459153D-10 -0.30254743D-10 -0.21806685D-14 -0.16299146D-13 -0.60913631D-13
 -0.16993954D-12 -0.22767214D-12  0.26883834D-12 -0.13650646D-11  0.25616283D-12
  0.34908112D-13  0.91123124D-13  0.85433721D-13  0.60833899D-13 -0.14388594D-02
 -0.13490221D-02 -0.96058412D-03  0.97341747D-13  0.91264075D-13  0.64985459D-13
  0.13416402D-13 -0.59810578D-03  0.93015210D-13  0.19174453D-14  0.16103611D-02
  0.83727827D-13  0.26681346D-16  0.29659787D-04  0.19632305D-14  0.67761354D-13
 -0.49657042D-13 -0.18104312D-13 -0.13333369D-04  0.21565605D-13 -0.10629678D-02
 -0.40983534D-13 -0.16329535D-13  0.57313070D-13  0.80849716D-05 -0.17692264D-13
  0.52415365D-04 -0.19887606D-14 -0.26814949D-14  0.46702555D-14  0.34801140D-05
  0.18620035D-14 -0.21482067D-03 -0.30760901D-14  0.16674651D-03  0.34049997D-14
 -0.16719893D-14  0.19449311D-03 -0.40516645D-13  0.10900259D-13 -0.69473266D-03
  0.30301646D-13 -0.47663038D-05  0.98891383D-15 -0.81229338D-04  0.12822761D-13
  0.43552925D-14 -0.12283950D-03 -0.33827968D-14 -0.73220340D-14  0.36652751D-03
 -0.35085486D-13  0.37019060D-06  0.38401610D-10  0.71795677D-10  0.12408427D-09
  0.20070119D-09  0.30335314D-09  0.41778007D-09  0.48833403D-09  0.42205129D-09
  0.19697354D-09  0.26685592D-10 -0.19518226D-12  0.22585452D-12  0.29033372D-11
  0.10590957D-10  0.35733625D-10  0.78487075D-10  0.10138389D-09 -0.16293254D-10
 -0.13668104D-09 -0.75008790D-10  0.14435586D-14  0.16443030D-13  0.34141658D-13
  0.93880889D-13 -0.12172735D-13 -0.42448663D-12 -0.10587371D-11  0.87640721D-12
 -0.43358731D-11 -0.15787504D-12 -0.54637078D-13 -0.26609907D-09 -0.34910685D-09
 -0.38289466D-09 -0.31503419D-09 -0.16606811D-09 -0.43207799D-10  0.97724284D+01
  0.12820870D+02  0.14061720D+02  0.11569560D+02  0.60988140D+01  0.15867967D+01
 -0.24237021D-12 -0.31797593D-12 -0.34875078D-12 -0.28694163D-12 -0.15125931D-12
 -0.39354828D-13 -0.14694444D-14 -0.52746634D-13 -0.83683857D-13 -0.99372014D-13
 -0.15037605D-13  0.10944087D-12  0.96388342D-04  0.34599204D-02  0.54892504D-02
  0.65183165D-02  0.98639309D-03 -0.71787841D-02 -0.18074036D-14 -0.64877893D-13
 -0.10293040D-12 -0.12222670D-12 -0.18496121D-13  0.13461130D-12 -0.20608792D-11
  0.66518178D-01  0.12687726D-12 -0.47318654D-14 -0.57561415D-03  0.10422602D-12
  0.40494932D-15 -0.27481871D-04  0.26151066D-14  0.15448659D-13  0.11015135D-13
 -0.26463794D-13  0.66150912D-05 -0.18935198D-13  0.77015212D-03 -0.34466700D-13
  0.62898661D-13 -0.28431961D-13 -0.93916981D-05  0.10515893D-13 -0.10812197D-02
  0.39583560D-14  0.42095336D-14 -0.81678896D-14 -0.85007856D-06  0.10210933D-14
 -0.29926190D-04 -0.42334794D-14  0.14810532D-05  0.51385341D-14  0.18911195D-14
  0.13079222D-03 -0.28455998D-15  0.10809319D-13 -0.13523538D-03 -0.15131042D-13
 -0.48056106D-05 -0.14411396D-15  0.33702610D-04  0.26869124D-14 -0.10867794D-14
 -0.22232640D-05 -0.32333701D-14  0.15191213D-14 -0.98884567D-04 -0.48273671D-14
 -0.17289041D-05 -0.10702105D-03 -0.19301687D-03 -0.28460326D-03  0.13722844D-03
  0.23669964D-02  0.25554199D-04  0.48812882D-05 -0.18470459D-04  0.26621815D-03
 -0.15130570D-05 -0.14263228D-04 -0.32477874D-03 -0.22578528D-05  0.31389252D-03
  0.13271271D-03 -0.49138329D-04 -0.14471638D-03  0.19385471D-03  0.60247600D-05
  0.16967148D-05 -0.84347416D-05  0.25277606D-04 -0.22496264D-04 -0.27813425D-05
  0.68442650D-07  0.35578774D-05 -0.11633830D-03  0.10702105D-03  0.19301687D-03
  0.28460326D-03 -0.13722844D-03 -0.23669964D-02 -0.25554199D-04 -0.48812882D-05
 -0.18470459D-04 -0.26621815D-03  0.15130570D-05 -0.14263228D-04  0.32477874D-03
  0.22578528D-05  0.31389252D-03 -0.13271271D-03  0.49138329D-04  0.14471638D-03
 -0.19385471D-03  0.60247601D-05 -0.16967148D-05 -0.84347417D-05 -0.25277606D-04
  0.22496264D-04  0.27813425D-05  0.68442647D-07 -0.35578775D-05 -0.11633830D-03
MO    2     MO 0.0        OCC NO =    2.0000243  ORB. ENERGY =    0.000000
 -0.53353900D-01 -0.99462418D-01 -0.16810504D+00 -0.25269323D+00 -0.31038837D+00
 -0.26195683D+00 -0.98502610D-01 -0.88995498D-05 -0.66518621D-04 -0.24859528D-03
 -0.69354211D-03 -0.92915522D-03  0.10971591D-02 -0.42230140D-02 -0.55223909D-03
 -0.39714329D-04  0.23642361D-04  0.22166216D-04  0.15783667D-04 -0.41726336D-13
 -0.39121093D-13 -0.27856548D-13  0.24027286D-02  0.22527108D-02  0.16040643D-02
 -0.33670550D-05 -0.81225249D-13  0.49422780D-04  0.13946137D-06  0.11670589D-12
 -0.60445672D-03 -0.14940441D-08  0.43065678D-14 -0.47289249D-06  0.18980483D-03
 -0.14549200D-03 -0.44312835D-04 -0.39674203D-14  0.65136444D-05 -0.88000519D-13
  0.38130708D-04  0.14628476D-03 -0.18441546D-03 -0.26506281D-14 -0.19994106D-05
  0.49208683D-13  0.11050608D-04  0.85313723D-04 -0.96364332D-04  0.39119142D-15
  0.73026756D-06  0.15196423D-13  0.29868153D-06  0.86867098D-14  0.98870832D-05
 -0.26869286D-05  0.29243179D-13 -0.17113318D-03  0.17908840D-05 -0.55303308D-13
  0.14147193D-03  0.77674284D-14  0.48899663D-06 -0.12475392D-13  0.58579531D-04
 -0.25497646D-05 -0.11316759D-13  0.10672777D-04  0.10827747D-05  0.48742935D-13
 -0.18641137D-03  0.11320309D-14 -0.12114374D+00 -0.22649043D+00 -0.39144278D+00
 -0.63314257D+00 -0.95697380D+00 -0.13179511D+01 -0.15405243D+01 -0.13314253D+01
 -0.62138310D+00 -0.84183776D-01  0.61573226D-03 -0.15086397D-02 -0.19393412D-01
 -0.70744380D-01 -0.23868978D+00 -0.52426987D+00 -0.67721367D+00  0.10883400D+00
  0.91298788D+00  0.50103597D+00 -0.12530807D-04 -0.14273369D-03 -0.29636659D-03
 -0.81493284D-03  0.10566540D-03  0.36847552D-02  0.91903646D-02 -0.76076507D-02
  0.27973289D-01  0.11445842D-02  0.42541714D-05  0.18832649D-01  0.24707364D-01
  0.27098631D-01  0.22295937D-01  0.11753150D-01  0.30579487D-02  0.66769121D-09
  0.87597290D-09  0.96075269D-09  0.79047837D-09  0.41669525D-09  0.10841627D-09
  0.66580035D+01  0.87349219D+01  0.95803189D+01  0.78823978D+01  0.41551520D+01
  0.10810924D+01  0.16605238D-06  0.59605550D-05  0.94565700D-05  0.11229387D-04
  0.16993022D-05 -0.12367203D-04  0.69091877D-14  0.24800965D-12  0.39347353D-12
  0.46723775D-12  0.70705387D-13 -0.51458056D-12  0.55919320D-04  0.20072593D-02
  0.31845671D-02  0.37815758D-02  0.57225209D-03 -0.41647435D-02  0.14610492D-03
  0.45408749D-11  0.48627277D-01 -0.69357083D-05 -0.94956314D-13 -0.64475443D-03
  0.50902579D-07 -0.31817552D-14 -0.13894718D-05 -0.25510906D-03 -0.10220303D-03
  0.35731209D-03  0.84455250D-15  0.77270607D-05  0.88361747D-13  0.35825303D-03
 -0.38147753D-03  0.23224504D-04 -0.15195527D-15 -0.21373050D-05 -0.89067226D-13
 -0.53392043D-05 -0.23219983D-04  0.28559187D-04  0.68290559D-17  0.13794067D-05
  0.10711814D-13  0.64096191D-06  0.90246022D-15 -0.69436909D-04 -0.43968115D-06
  0.12154013D-13  0.20745136D-03 -0.14832046D-05 -0.14861394D-13  0.85936458D-06
 -0.62102878D-15  0.29580404D-06  0.45258338D-14 -0.19642724D-04  0.46763305D-06
  0.10931486D-14  0.25720535D-04 -0.13550452D-05 -0.14670650D-13  0.33207637D-04
 -0.26832810D-15 -0.22691333D-04 -0.40924753D-04 -0.60343525D-04 -0.39317637D-03
 -0.44432766D-03  0.30291179D-05 -0.25310772D-05  0.20990176D-04  0.90720156D-04
  0.82326225D-05  0.34042351D-04  0.25372881D-04  0.19098584D-05  0.35826118D-04
 -0.12427145D-03 -0.10027353D-03  0.20049929D-04  0.80223601D-04  0.10567210D-05
  0.23503746D-05  0.13072175D-03 -0.31284716D-04  0.21756384D-04  0.95283319D-05
 -0.12234055D-05  0.23685721D-05 -0.64524612D-04 -0.22691333D-04 -0.40924753D-04
 -0.60343525D-04 -0.39317637D-03 -0.44432766D-03  0.30291178D-05 -0.25310772D-05
 -0.20990176D-04  0.90720156D-04  0.82326225D-05 -0.34042351D-04  0.25372881D-04
  0.19098584D-05 -0.35826118D-04 -0.12427145D-03 -0.10027353D-03  0.20049929D-04
  0.80223600D-04 -0.10567210D-05  0.23503746D-05 -0.13072175D-03 -0.31284716D-04
  0.21756384D-04  0.95283319D-05  0.12234055D-05  0.23685721D-05  0.64524612D-04
MO    3     MO 0.0        OCC NO =    2.0000101  ORB. ENERGY =    0.000000
 -0.15140548D+00 -0.28225032D+00 -0.47704150D+00 -0.71708235D+00 -0.88080723D+00
 -0.74337022D+00 -0.27952662D+00 -0.23221257D-04 -0.17356451D-03 -0.64865021D-03
 -0.18096331D-02 -0.24244094D-02  0.28627755D-02 -0.12246311D-01 -0.11842305D-03
 -0.10747209D-03  0.57233725D-04  0.53660255D-04  0.38209298D-04  0.13413786D-12
  0.12576277D-12  0.89550585D-13  0.37165041D-02  0.34844588D-02  0.24811423D-02
 -0.39134985D-05  0.14145964D-12  0.55406753D-03  0.84194508D-06 -0.14292790D-12
 -0.15602794D-03 -0.57027468D-07 -0.30681439D-14 -0.38070717D-05  0.45276768D-03
 -0.44552975D-03 -0.72379326D-05  0.48947578D-14  0.16328301D-04  0.68434924D-13
 -0.11554280D-03 -0.37970454D-05  0.11933985D-03 -0.20132597D-14  0.10728607D-05
 -0.44787812D-13  0.12975949D-04  0.59187698D-04 -0.72163646D-04 -0.98193437D-15
  0.85495735D-06  0.50418418D-14  0.10185696D-05 -0.12738128D-13  0.71451578D-04
 -0.96378048D-05 -0.39513286D-13 -0.44919690D-03  0.65820959D-05  0.77727670D-13
  0.23484216D-03 -0.21679642D-14  0.88560859D-06  0.11668632D-13  0.11867006D-03
 -0.45033504D-05  0.12897791D-13 -0.22341205D-04  0.18465246D-05 -0.47903687D-13
 -0.33366897D-03  0.62969548D-15  0.11207230D+00  0.20953045D+00  0.36213089D+00
  0.58573179D+00  0.88531400D+00  0.12192607D+01  0.14251673D+01  0.12317259D+01
  0.57485290D+00  0.77879954D-01 -0.56962520D-03  0.14083635D-02  0.18104371D-01
  0.66042142D-01  0.22282455D+00  0.48942270D+00  0.63220063D+00 -0.10160002D+00
 -0.85230340D+00 -0.46773311D+00  0.63427401D-05  0.72247753D-04  0.15001238D-03
  0.41249594D-03 -0.53484836D-04 -0.18651188D-02 -0.46519025D-02  0.38507775D-02
 -0.27763280D-01  0.11056607D-02  0.29055125D-04 -0.26047995D-01 -0.34173488D-01
 -0.37480920D-01 -0.30838172D-01 -0.16256131D-01 -0.42295395D-02 -0.92466673D-09
 -0.12131102D-08 -0.13305193D-08 -0.10947112D-08 -0.57706950D-09 -0.15014263D-09
  0.56963096D+01  0.74732342D+01  0.81965206D+01  0.67438502D+01  0.35549744D+01
  0.92493747D+00 -0.14014001D-06 -0.50304140D-05 -0.79808779D-05 -0.94770477D-05
 -0.14341271D-05  0.10437308D-04 -0.92504229D-14 -0.33204977D-12 -0.52680528D-12
 -0.62556511D-12 -0.94664490D-13  0.68895042D-12  0.36612842D-04  0.13142411D-02
  0.20850764D-02  0.24759643D-02  0.37467866D-03 -0.27268411D-02 -0.18848108D-03
 -0.62911808D-11  0.43854809D-01 -0.47288003D-05  0.80428586D-13 -0.11626595D-03
  0.98072195D-07  0.29237824D-14  0.49571719D-06 -0.15128460D-03 -0.13815931D-03
  0.28944391D-03 -0.12455459D-14  0.39462078D-05 -0.92564654D-13 -0.11411164D-03
  0.47191231D-03 -0.35780067D-03  0.17446011D-14 -0.10809605D-04  0.10842686D-12
  0.62359560D-05  0.20999423D-05 -0.83358983D-05  0.14576125D-15  0.97590604D-06
 -0.26584046D-14 -0.43709302D-06 -0.10231655D-14 -0.43869523D-04 -0.18366251D-06
 -0.14053224D-13  0.20880524D-03  0.14949416D-05  0.17122720D-13 -0.77196669D-04
  0.19879214D-15  0.31628639D-06 -0.42587413D-14 -0.12972585D-04  0.18164969D-06
 -0.30642949D-15  0.19695988D-04 -0.11305088D-05  0.13082653D-13  0.19221767D-04
  0.23872078D-15  0.39102480D-04  0.70522933D-04  0.10398602D-03 -0.35789397D-03
  0.68015417D-05  0.70193889D-05 -0.52796685D-05  0.17313695D-03  0.20436638D-03
  0.13542019D-04  0.12729775D-03  0.17090681D-03  0.12228136D-05  0.74240392D-04
 -0.57294525D-04 -0.23411545D-03  0.11020174D-03  0.12391370D-03 -0.75269601D-06
  0.36354916D-05  0.44864948D-03 -0.63928686D-04  0.94353201D-05  0.54493366D-04
 -0.13522602D-05  0.35104993D-05 -0.58182466D-04  0.39102480D-04  0.70522933D-04
  0.10398602D-03 -0.35789397D-03  0.68015420D-05  0.70193889D-05 -0.52796685D-05
 -0.17313695D-03  0.20436638D-03  0.13542019D-04 -0.12729775D-03  0.17090681D-03
  0.12228136D-05 -0.74240392D-04 -0.57294525D-04 -0.23411545D-03  0.11020174D-03
  0.12391370D-03  0.75269601D-06  0.36354916D-05 -0.44864948D-03 -0.63928686D-04
  0.94353201D-05  0.54493366D-04  0.13522602D-05  0.35104993D-05  0.58182466D-04
MO    4     MO 0.0        OCC NO =    2.0000048  ORB. ENERGY =    0.000000
  0.28498841D+00  0.53127582D+00  0.89792851D+00  0.13497540D+01  0.16579311D+01
  0.13992353D+01  0.52614902D+00  0.30230634D-04  0.22595526D-03  0.84444639D-03
  0.23558739D-02  0.31562216D-02 -0.37269092D-02  0.23552991D-01 -0.50683581D-03
 -0.42923485D-05  0.19248472D-03  0.18046666D-03  0.12850302D-03 -0.66605419D-13
 -0.62446814D-13 -0.44465851D-13  0.42279547D-02  0.39639763D-02  0.28225873D-02
  0.48712159D-04  0.32970166D-13 -0.37293147D-03  0.21391080D-05  0.11866184D-12
 -0.30465717D-03 -0.13670806D-07  0.32952664D-14 -0.38707799D-05 -0.11833231D-02
  0.61170890D-03  0.57161419D-03 -0.12206547D-15  0.38498505D-04 -0.13759472D-13
  0.18423602D-03  0.11303911D-03 -0.29727512D-03 -0.44255034D-15 -0.48641641D-04
 -0.47288895D-13  0.87608710D-05  0.36962834D-04 -0.45723705D-04 -0.26686876D-15
  0.32041758D-05 -0.29549024D-13 -0.14149254D-04  0.25076153D-14  0.41245779D-03
  0.14715524D-04  0.34416856D-15  0.19089878D-03  0.27732237D-04 -0.78670144D-14
 -0.14282721D-02  0.31739622D-14  0.24007218D-05 -0.40425330D-15 -0.67130647D-04
  0.78772859D-05 -0.72454240D-14 -0.22671724D-04 -0.15079451D-04  0.84581839D-14
  0.22406367D-03 -0.29572334D-15  0.36723469D-01  0.68658224D-01  0.11866182D+00
  0.19193060D+00  0.29009668D+00  0.39952319D+00  0.46699396D+00  0.40360775D+00
  0.18836584D+00  0.25519438D-01 -0.18665285D-03  0.46059317D-03  0.59208789D-02
  0.21598515D-01  0.72872855D-01  0.16006149D+00  0.20675578D+00 -0.33227414D-01
 -0.27873851D+00 -0.15296810D+00  0.18316782D-05  0.20863954D-04  0.43321089D-04
  0.11912199D-03 -0.15445534D-04 -0.53861540D-03 -0.13433923D-02  0.11120407D-02
 -0.94823552D-02  0.13041619D-02  0.10558924D-03 -0.66246819D+00 -0.86912060D+00
 -0.95323720D+00 -0.78429485D+00 -0.41343565D+00 -0.10756818D+00  0.17709250D-09
  0.23233529D-09  0.25482153D-09  0.20965948D-09  0.11052056D-09  0.28755370D-10
  0.42322283D+01  0.55524429D+01  0.60898282D+01  0.50105272D+01  0.26412650D+01
  0.68720748D+00 -0.34607878D-05 -0.12422716D-03 -0.19708951D-03 -0.23403775D-03
 -0.35416080D-04  0.25775159D-03  0.20526547D-14  0.73681336D-13  0.11689729D-12
  0.13881194D-12  0.21005906D-13 -0.15287704D-12  0.31355338D-04  0.11255197D-02
  0.17856652D-02  0.21204226D-02  0.32087583D-03 -0.23352742D-02 -0.51096913D-02
  0.12052452D-11  0.33006000D-01 -0.12354254D-04  0.16401149D-13 -0.34614303D-03
  0.11538401D-05 -0.20272404D-15 -0.46838443D-05 -0.13497505D-03 -0.23051423D-03
  0.36548928D-03  0.43470183D-15 -0.34236268D-04  0.13288157D-13  0.98481872D-04
  0.33778620D-03 -0.43626807D-03 -0.30585665D-15  0.19546245D-04 -0.22063325D-13
 -0.10296791D-04 -0.12171720D-04  0.22468510D-04  0.13558257D-16  0.22310194D-05
 -0.72301585D-14 -0.84867585D-05  0.18302755D-15  0.53757479D-04  0.46803879D-05
  0.34724669D-14 -0.27665920D-04  0.20779888D-04 -0.40215495D-14 -0.13360652D-03
 -0.41812391D-15 -0.34572103D-06  0.19093299D-15 -0.36821162D-04 -0.16314979D-05
 -0.21799086D-15  0.28856771D-04  0.26686610D-05 -0.35480811D-15  0.81606715D-04
 -0.41861438D-15 -0.30706370D-03 -0.55380203D-03 -0.81658077D-03 -0.53765647D-03
 -0.47317678D-03 -0.70818300D-05  0.20311340D-04 -0.82426655D-03 -0.37049492D-03
 -0.13415886D-04 -0.40829861D-03 -0.27021168D-03  0.47116093D-05 -0.35080597D-04
 -0.10021594D-03  0.27107460D-03 -0.43402221D-03  0.16294761D-03  0.34457956D-05
  0.12084286D-04 -0.94746771D-03  0.49417802D-04 -0.24596341D-04 -0.24821461D-04
  0.12713447D-05 -0.52790440D-05 -0.78826018D-04 -0.30706370D-03 -0.55380203D-03
 -0.81658077D-03 -0.53765647D-03 -0.47317678D-03 -0.70818301D-05  0.20311340D-04
  0.82426655D-03 -0.37049492D-03 -0.13415886D-04  0.40829861D-03 -0.27021168D-03
  0.47116093D-05  0.35080597D-04 -0.10021594D-03  0.27107460D-03 -0.43402221D-03
  0.16294761D-03 -0.34457956D-05  0.12084286D-04  0.94746771D-03  0.49417802D-04
 -0.24596341D-04 -0.24821461D-04 -0.12713447D-05 -0.52790440D-05  0.78826018D-04
MO    5     MO 0.0        OCC NO =    2.0000043  ORB. ENERGY =    0.000000
  0.19170993D-01  0.35738592D-01  0.60403090D-01  0.90797110D-01  0.11152799D+00
  0.94125687D-01  0.35393716D-01  0.20439934D-05  0.15277585D-04  0.57095822D-04
  0.15928845D-03  0.21340261D-03 -0.25198869D-03  0.15875213D-02 -0.55785017D-04
  0.30214659D-06 -0.29374394D-02 -0.27540362D-02 -0.19610378D-02 -0.59639961D-13
 -0.55916254D-13 -0.39815704D-13  0.31902358D-03  0.29910489D-03  0.21298050D-03
 -0.48990345D-03 -0.31804359D-13 -0.28627119D-04 -0.49129090D-04  0.84342611D-13
 -0.39603102D-04 -0.18480237D-06  0.19367830D-14 -0.82665061D-06 -0.84620959D-04
  0.44519579D-04  0.40101380D-04 -0.52190896D-15 -0.66320414D-03 -0.27349384D-13
  0.17325022D-04  0.52866494D-05 -0.22611671D-04 -0.44013274D-14  0.61301436D-03
  0.20129093D-14  0.11129218D-05  0.22710889D-05 -0.33840107D-05 -0.70630957D-15
 -0.53729149D-04 -0.22462225D-14  0.83018355D-04  0.20371401D-14  0.30675840D-04
  0.45341459D-04  0.10126166D-13  0.11557280D-04 -0.29439652D-03 -0.16237587D-13
 -0.10358480D-03 -0.40071628D-15 -0.33328014D-04 -0.65646257D-14 -0.62033241D-05
 -0.14119591D-03 -0.67848190D-14  0.14571158D-05  0.24117995D-03  0.26478696D-13
  0.17152856D-04  0.23591550D-14  0.30376351D-02  0.56791647D-02  0.98152846D-02
  0.15875818D-01  0.23995768D-01  0.33047141D-01  0.38628083D-01  0.33385002D-01
  0.15580954D-01  0.21108774D-02 -0.15439261D-04  0.38150289D-04  0.49041812D-03
  0.17889748D-02  0.60359567D-02  0.13257669D-01  0.17125293D-01 -0.27521802D-02
 -0.23087521D-01 -0.12670134D-01  0.13540751D-06  0.15423757D-05  0.32025279D-05
  0.88061383D-05 -0.11418170D-05 -0.39817347D-04 -0.99310787D-04  0.82208031D-04
 -0.78785238D-03  0.12407448D-03  0.11598678D-04  0.96928958D+01  0.12716528D+02
  0.13947279D+02  0.11475401D+02  0.60491790D+01  0.15738826D+01  0.27659451D-09
  0.36287627D-09  0.39799673D-09  0.32745972D-09  0.17261815D-09  0.44911995D-10
  0.29151019D+00  0.38244480D+00  0.41945917D+00  0.34511837D+00  0.18192678D+00
  0.47333927D-01  0.51610702D-04  0.18525987D-02  0.29391943D-02  0.34902031D-02
  0.52815972D-03 -0.38438475D-02  0.30195833D-14  0.10838985D-12  0.17196321D-12
  0.20420104D-12  0.30901000D-13 -0.22489169D-12  0.22842145D-05  0.81993320D-04
  0.13008446D-03  0.15447130D-03  0.23375580D-04 -0.17012309D-03  0.75093851D-01
  0.18907087D-11  0.23023169D-02  0.17158664D-03 -0.31187370D-13 -0.34005971D-04
 -0.15163362D-04 -0.96138191D-15 -0.22343472D-06 -0.74167488D-05 -0.18669057D-04
  0.26085806D-04 -0.16053828D-15  0.62436613D-03  0.41861960D-13  0.46398810D-05
  0.29183447D-04 -0.33823328D-04 -0.93595666D-15 -0.40061426D-03 -0.35877868D-13
 -0.13346601D-05 -0.87415195D-06  0.22088120D-05  0.11990957D-15 -0.33930426D-04
  0.25150792D-14  0.12971808D-03  0.10526968D-14  0.44537619D-05 -0.73552050D-04
  0.62861921D-14 -0.56092909D-05 -0.31560220D-03 -0.94442824D-14 -0.77519948D-05
  0.19751945D-15  0.67166160D-05  0.18969094D-14 -0.22462961D-05  0.35113130D-04
  0.39878734D-15  0.13971092D-05 -0.55262978D-04 -0.60895154D-14  0.53417791D-05
 -0.20236633D-15 -0.22928336D-04 -0.41352199D-04 -0.60973793D-04 -0.33461850D-04
 -0.41412871D-04 -0.86683772D-06 -0.12652882D-03 -0.56530850D-04 -0.32993871D-04
  0.16723797D-03 -0.31230273D-04 -0.84407504D-05 -0.56907434D-04 -0.44307830D-05
 -0.58382104D-05  0.18447577D-04 -0.30979509D-04  0.12531932D-04  0.14090070D-03
 -0.56705497D-04 -0.67794773D-04  0.33684167D-05 -0.21038624D-05 -0.12645543D-05
 -0.38158309D-04  0.11089767D-03 -0.35121938D-05 -0.22928336D-04 -0.41352199D-04
 -0.60973793D-04 -0.33461850D-04 -0.41412871D-04 -0.86683773D-06 -0.12652882D-03
  0.56530850D-04 -0.32993871D-04  0.16723797D-03  0.31230273D-04 -0.84407503D-05
 -0.56907434D-04  0.44307830D-05 -0.58382104D-05  0.18447577D-04 -0.30979509D-04
  0.12531932D-04 -0.14090070D-03 -0.56705497D-04  0.67794773D-04  0.33684167D-05
 -0.21038624D-05 -0.12645543D-05  0.38158309D-04  0.11089767D-03  0.35121938D-05
MO    6     MO 0.0        OCC NO =    2.0000000  ORB. ENERGY =    0.000000
 -0.81045536D-04 -0.15108521D-03 -0.25535458D-03 -0.38384557D-03 -0.47148553D-03
 -0.39791715D-03 -0.14962724D-03  0.49232540D-07  0.36798273D-06  0.13752355D-05
  0.38366929D-05  0.51401107D-05 -0.60695123D-05  0.16629611D-05 -0.30782302D-04
 -0.72419473D-05  0.11917422D-06  0.11173341D-06  0.79560842D-07  0.98088268D-13
  0.91963986D-13  0.65483837D-13  0.14563254D-04  0.13653976D-04  0.97224443D-05
 -0.23998240D-06 -0.10345537D-12 -0.38207407D-04 -0.18487027D-06 -0.49415818D-13
  0.41054118D-05 -0.47751389D-08 -0.34256924D-15 -0.39003394D-06  0.14522667D-05
  0.89108663D-05 -0.10363133D-04 -0.12186059D-14 -0.24139541D-06  0.10302006D-12
  0.63101814D-05  0.42977223D-05 -0.10607904D-04  0.43630517D-15 -0.19626425D-06
  0.46809615D-13  0.63682147D-06 -0.91672034D-06  0.27989887D-06  0.19638517D-15
 -0.55545699D-07  0.61029151D-15 -0.53230991D-07 -0.11883703D-13  0.21205793D-05
  0.63858965D-07  0.16634770D-13  0.39430071D-06  0.95834008D-07  0.19016338D-13
 -0.67560386D-05 -0.25994635D-14  0.34947451D-07  0.34101122D-14 -0.38309087D-06
 -0.68637611D-07  0.51770432D-14  0.61591860D-06 -0.36204742D-07 -0.15407380D-13
  0.53335401D-06  0.60781174D-15  0.58266938D+00  0.10893591D+01  0.18827363D+01
  0.30452484D+01  0.46027910D+01  0.63389962D+01  0.74095147D+01  0.64038036D+01
  0.29886885D+01  0.40490171D+00 -0.29615094D-02 -0.29343673D-04 -0.37720996D-03
 -0.13760077D-02 -0.46426159D-02 -0.10197268D-01 -0.13172088D-01  0.21168667D-02
  0.17757995D-01  0.97453588D-02  0.19754293D-06  0.22501368D-05  0.46720950D-05
  0.12847075D-04 -0.16657708D-05 -0.58088622D-04 -0.14488225D-03  0.11993143D-03
  0.13983241D-04 -0.17654615D-04  0.32744044D-05  0.80269514D-04  0.10530904D-03
  0.11550122D-03  0.95030927D-04  0.50094901D-04  0.13033751D-04 -0.34003069D-09
 -0.44610093D-09 -0.48927617D-09 -0.40256170D-09 -0.21220764D-09 -0.55212436D-10
  0.11193496D-01  0.14685230D-01  0.16106520D-01  0.13251959D-01  0.69856793D-02
  0.18175424D-02  0.44567632D-08  0.15997833D-06  0.25380963D-06  0.30139115D-06
  0.45608425D-07 -0.33192957D-06 -0.33049882D-14 -0.11863464D-12 -0.18821683D-12
 -0.22350171D-12 -0.33821699D-13  0.24614799D-12  0.70483250D-06  0.25300407D-04
  0.40139731D-04  0.47664699D-04  0.72129253D-05 -0.52494319D-04  0.12043221D-05
 -0.23067746D-11  0.16287486D-03  0.15045502D-06  0.27506172D-13  0.52693135D-05
  0.29931529D-09  0.98668777D-15 -0.33822676D-07 -0.58148128D-05 -0.37575933D-05
  0.95724061D-05 -0.48419582D-15  0.11221816D-06 -0.24084874D-13  0.91746538D-05
 -0.15975081D-04  0.68004272D-05 -0.28670756D-16  0.24875367D-06  0.34363408D-13
  0.59357398D-06  0.49076222D-06 -0.10843362D-05 -0.11672779D-15 -0.45719057D-07
 -0.43453797D-15  0.67271500D-07 -0.83535286D-15 -0.69841809D-05  0.86072758D-07
 -0.55225702D-14  0.12187324D-04 -0.28788726D-06  0.80286288D-14  0.87652189D-05
 -0.16247030D-14 -0.25729535D-08 -0.93153125D-15 -0.58942468D-07 -0.46816563D-08
  0.24772244D-15 -0.79195145D-08  0.12400517D-07  0.25468713D-14  0.18474692D-06
  0.45179938D-15 -0.12357137D-05 -0.22286605D-05 -0.32861586D-05  0.30299863D-05
  0.17408634D-04  0.23758697D-06  0.20742508D-07 -0.58334620D-05 -0.14823184D-05
  0.10515052D-06  0.99937730D-06 -0.14053793D-05 -0.57804336D-07  0.75705732D-06
  0.25210280D-05 -0.24397154D-05 -0.16123461D-05  0.40520615D-05  0.98501929D-07
  0.11252453D-06 -0.20702103D-05 -0.38508093D-07 -0.43485113D-06  0.47335922D-06
 -0.29453710D-07  0.59545651D-07 -0.18445424D-05 -0.12357137D-05 -0.22286605D-05
 -0.32861586D-05  0.30299864D-05  0.17408634D-04  0.23758697D-06  0.20742505D-07
  0.58334620D-05 -0.14823184D-05  0.10515052D-06 -0.99937743D-06 -0.14053792D-05
 -0.57804336D-07 -0.75705735D-06  0.25210280D-05 -0.24397154D-05 -0.16123461D-05
  0.40520615D-05 -0.98501925D-07  0.11252453D-06  0.20702102D-05 -0.38508097D-07