 Entering Gaussian System, Link 0=/home/bruns/programas/chemistry/gaussian/g09/g09
 Input=GAUSSIAN.com
 Output=GAUSSIAN.log
 Initial command:
 /home/bruns/programas/chemistry/gaussian/g09/l1.exe /home/bruns/programas/chemistry/gaussian/work/Gau-26454.inp -scrdir=/home/bruns/programas/chemistry/gaussian/work/
 Entering Link 1 = /home/bruns/programas/chemistry/gaussian/g09/l1.exe PID=     26456.
  
 Copyright (c) 1988,1990,1992,1993,1995,1998,2003,2009,2010,
            Gaussian, Inc.  All Rights Reserved.
  
 This is part of the Gaussian(R) 09 program.  It is based on
 the Gaussian(R) 03 system (copyright 2003, Gaussian, Inc.),
 the Gaussian(R) 98 system (copyright 1998, Gaussian, Inc.),
 the Gaussian(R) 94 system (copyright 1995, Gaussian, Inc.),
 the Gaussian 92(TM) system (copyright 1992, Gaussian, Inc.),
 the Gaussian 90(TM) system (copyright 1990, Gaussian, Inc.),
 the Gaussian 88(TM) system (copyright 1988, Gaussian, Inc.),
 the Gaussian 86(TM) system (copyright 1986, Carnegie Mellon
 University), and the Gaussian 82(TM) system (copyright 1983,
 Carnegie Mellon University). Gaussian is a federally registered
 trademark of Gaussian, Inc.
  
 This software contains proprietary and confidential information,
 including trade secrets, belonging to Gaussian, Inc.
  
 This software is provided under written license and may be
 used, copied, transmitted, or stored only in accord with that
 written license.
  
 The following legend is applicable only to US Government
 contracts under FAR:
  
                    RESTRICTED RIGHTS LEGEND
  
 Use, reproduction and disclosure by the US Government is
 subject to restrictions as set forth in subparagraphs (a)
 and (c) of the Commercial Computer Software - Restricted
 Rights clause in FAR 52.227-19.
  
 Gaussian, Inc.
 340 Quinnipiac St., Bldg. 40, Wallingford CT 06492
  
  
 ---------------------------------------------------------------
 Warning -- This program may not be used in any manner that
 competes with the business of Gaussian, Inc. or will provide
 assistance to any competitor of Gaussian, Inc.  The licensee
 of this program is prohibited from giving any competitor of
 Gaussian, Inc. access to this program.  By using this program,
 the user acknowledges that Gaussian, Inc. is engaged in the
 business of creating and licensing software in the field of
 computational chemistry and represents and warrants to the
 licensee that it is not a competitor of Gaussian, Inc. and that
 it will not use this program in any manner prohibited above.
 ---------------------------------------------------------------
  

 Cite this work as:
 Gaussian 09, Revision B.01,
 M. J. Frisch, G. W. Trucks, H. B. Schlegel, G. E. Scuseria, 
 M. A. Robb, J. R. Cheeseman, G. Scalmani, V. Barone, B. Mennucci, 
 G. A. Petersson, H. Nakatsuji, M. Caricato, X. Li, H. P. Hratchian, 
 A. F. Izmaylov, J. Bloino, G. Zheng, J. L. Sonnenberg, M. Hada, 
 M. Ehara, K. Toyota, R. Fukuda, J. Hasegawa, M. Ishida, T. Nakajima, 
 Y. Honda, O. Kitao, H. Nakai, T. Vreven, J. A. Montgomery, Jr., 
 J. E. Peralta, F. Ogliaro, M. Bearpark, J. J. Heyd, E. Brothers, 
 K. N. Kudin, V. N. Staroverov, T. Keith, R. Kobayashi, J. Normand, 
 K. Raghavachari, A. Rendell, J. C. Burant, S. S. Iyengar, J. Tomasi, 
 M. Cossi, N. Rega, J. M. Millam, M. Klene, J. E. Knox, J. B. Cross, 
 V. Bakken, C. Adamo, J. Jaramillo, R. Gomperts, R. E. Stratmann, 
 O. Yazyev, A. J. Austin, R. Cammi, C. Pomelli, J. W. Ochterski, 
 R. L. Martin, K. Morokuma, V. G. Zakrzewski, G. A. Voth, 
 P. Salvador, J. J. Dannenberg, S. Dapprich, A. D. Daniels, 
 O. Farkas, J. B. Foresman, J. V. Ortiz, J. Cioslowski, 
 and D. J. Fox, Gaussian, Inc., Wallingford CT, 2010.
 
 ******************************************
 Gaussian 09:  EM64L-G09RevB.01 12-Aug-2010
                17-Nov-2021 
 ******************************************
 %nproc=8
 Will use up to    8 processors via shared memory.
 %mem=8GB
 -----------------------------------------------------
 # qcisd/aug-cc-pvtz nosymm density=current output=wfn
 -----------------------------------------------------
 1/30=1,38=1/1;
 2/12=2,15=1,17=6,18=5,40=1/2;
 3/5=16,6=1,7=10,11=9,16=1,25=1,30=1,71=1/1,2,3;
 4//1;
 5/5=2,38=5/2;
 8/6=4,9=120000,10=1/1,4;
 9/5=8,15=1/13;
 11/28=-7,31=1,32=3,42=3/11;
 10/5=6,13=10,31=1/2;
 6/7=2,8=2,9=2,10=2,22=-1,31=1/1;
 99/5=1,6=1100,9=1/99;
 -----------------
 h2cs-wavefunction
 -----------------
 Symbolic Z-matrix:
 Charge =  0 Multiplicity = 1
 C                     0.        0.       -0.55529 
 S                     0.        0.        1.05037 
 H                     0.       -0.92228  -1.12899 
 H                     0.        0.92228  -1.12899 
 
                          Input orientation:                          
 ---------------------------------------------------------------------
 Center     Atomic      Atomic             Coordinates (Angstroms)
 Number     Number       Type             X           Y           Z
 ---------------------------------------------------------------------
      1          6           0        0.000000    0.000000   -0.555291
      2         16           0        0.000000    0.000000    1.050374
      3          1           0        0.000000   -0.922280   -1.128992
      4          1           0        0.000000    0.922280   -1.128992
 ---------------------------------------------------------------------
                    Distance matrix (angstroms):
                    1          2          3          4
     1  C    0.000000
     2  S    1.605665   0.000000
     3  H    1.086155   2.366482   0.000000
     4  H    1.086155   2.366482   1.844560   0.000000
 Symmetry turned off by external request.
 Stoichiometry    CH2S
 Framework group  C2V[C2(CS),SGV(H2)]
 Deg. of freedom     3
 Full point group                 C2V     NOp   4
 Rotational constants (GHZ):    294.7653806     17.8339914     16.8165509
 Standard basis: Aug-CC-pVTZ (5D, 7F)
 Integral buffers will be    131072 words long.
 Raffenetti 1 integral format.
 Two-electron integral symmetry is turned off.
   142 basis functions,   240 primitive gaussians,   164 cartesian basis functions
    12 alpha electrons       12 beta electrons
       nuclear repulsion energy        44.9275543319 Hartrees.
 NAtoms=    4 NActive=    4 NUniq=    4 SFac= 1.00D+00 NAtFMM=   50 NAOKFM=F Big=F
 One-electron integrals computed using PRISM.
 NBasis=   142 RedAO= T  NBF=   142
 NBsUse=   142 1.00D-06 NBFU=   142
 Harris functional with IExCor=  205 diagonalized for initial guess.
 ExpMin= 2.53D-02 ExpMax= 3.74D+05 ExpMxC= 1.18D+03 IAcc=3 IRadAn=         0 AccDes= 0.00D+00
 HarFok:  IExCor=  205 AccDes= 0.00D+00 IRadAn=         0 IDoV= 1
 ScaDFX=  1.000000  1.000000  1.000000  1.000000
 FoFCou: FMM=F IPFlag=           0 FMFlag=      100000 FMFlg1=           0
         NFxFlg=           0 DoJE=T BraDBF=F KetDBF=T FulRan=T
         Omega=  0.000000  0.000000  1.000000  0.000000  0.000000 ICntrl=     500 IOpCl=  0
         NMat0=    1 NMatS0=    1 NMatT0=    0 NMatD0=    1 NMtDS0=    0 NMtDT0=    0
         I1Cent=           4 NGrid=           0.
 Symmetry not used in FoFCou.
 Requested convergence on RMS density matrix=1.00D-08 within 128 cycles.
 Requested convergence on MAX density matrix=1.00D-06.
 Requested convergence on             energy=1.00D-06.
 No special actions if energy rises.
 Keep R1 ints in memory in canonical form, NReq=93884347.
 SCF Done:  E(RHF) =  -436.557887649     A.U. after   11 cycles
             Convg  =    0.5708D-08             -V/T =  2.0002
 ExpMin= 2.53D-02 ExpMax= 3.74D+05 ExpMxC= 1.18D+03 IAcc=3 IRadAn=         5 AccDes= 0.00D+00
 HarFok:  IExCor=  205 AccDes= 0.00D+00 IRadAn=         5 IDoV=-2
 ScaDFX=  1.000000  1.000000  1.000000  1.000000
 Range of M.O.s used for correlation:     7   142
 NBasis=   142 NAE=    12 NBE=    12 NFC=     6 NFV=     0
 NROrb=    136 NOA=     6 NOB=     6 NVA=   130 NVB=   130

 **** Warning!!: The largest alpha MO coefficient is  0.44442778D+02

 Semi-Direct transformation.
 ModeAB=           2 MOrb=             6 LenV=    1073081925
 LASXX=      7286295 LTotXX=     7286295 LenRXX=     7286295
 LTotAB=     7445736 MaxLAS=    11040480 LenRXY=    11040480
 NonZer=    14572590 LenScr=    22628352 LnRSAI=           0
 LnScr1=           0 LExtra=           0 Total=     40955127
 MaxDsk=          -1 SrtSym=           F ITran=            4
 JobTyp=0 Pass  1:  I=   1 to   6.
 (rs|ai) integrals will be sorted in core.
 Spin components of T(2) and E(2):
     alpha-alpha T2 =       0.1675571246D-01 E2=     -0.3865013879D-01
     alpha-beta  T2 =       0.1046355286D+00 E2=     -0.2632108392D+00
     beta-beta   T2 =       0.1675571246D-01 E2=     -0.3865013879D-01
 ANorm=    0.1066839704D+01
 E2 =    -0.3405111167D+00 EUMP2 =    -0.43689839876608D+03
 R2 and R3 integrals will be kept in memory, NReq=   185320410.
 Iterations=  50 Convergence= 0.100D-07
 Iteration Nr.   1
 **********************
 DD1Dir will call FoFMem   1 times, MxPair=        42
 NAB=    21 NAA=     0 NBB=     0.
 MP4(R+Q)=  0.11578427D-01
 E3=       -0.22894856D-01        EUMP3=      -0.43692129362D+03
 E4(DQ)=    0.16252184D-02        UMP4(DQ)=   -0.43691966840D+03
 E4(SDQ)=  -0.17658591D-02        UMP4(SDQ)=  -0.43692305948D+03
 DE(Corr)= -0.35182755     E(Corr)=     -436.90971520    
 NORM(A)=   0.10735019D+01
 Iteration Nr.   2
 **********************
 DD1Dir will call FoFMem   1 times, MxPair=        42
 NAB=    21 NAA=     0 NBB=     0.
 DE(Corr)= -0.36309121     E(CORR)=     -436.92097885     Delta=-1.13D-02
 NORM(A)=   0.10807406D+01
 Iteration Nr.   3
 **********************
 DD1Dir will call FoFMem   1 times, MxPair=        42
 NAB=    21 NAA=     0 NBB=     0.
 DE(Corr)= -0.36404355     E(CORR)=     -436.92193120     Delta=-9.52D-04
 NORM(A)=   0.10830584D+01
 Iteration Nr.   4
 **********************
 DD1Dir will call FoFMem   1 times, MxPair=        42
 NAB=    21 NAA=     0 NBB=     0.
 DE(Corr)= -0.36532873     E(CORR)=     -436.92321638     Delta=-1.29D-03
 NORM(A)=   0.10839881D+01
 Iteration Nr.   5
 **********************
 DD1Dir will call FoFMem   1 times, MxPair=        42
 NAB=    21 NAA=     0 NBB=     0.
 DE(Corr)= -0.36551588     E(CORR)=     -436.92340353     Delta=-1.87D-04
 NORM(A)=   0.10843224D+01
 Iteration Nr.   6
 **********************
 DD1Dir will call FoFMem   1 times, MxPair=        42
 NAB=    21 NAA=     0 NBB=     0.
 DE(Corr)= -0.36554588     E(CORR)=     -436.92343353     Delta=-3.00D-05
 NORM(A)=   0.10843349D+01
 Iteration Nr.   7
 **********************
 DD1Dir will call FoFMem   1 times, MxPair=        42
 NAB=    21 NAA=     0 NBB=     0.
 DE(Corr)= -0.36554712     E(CORR)=     -436.92343477     Delta=-1.24D-06
 NORM(A)=   0.10843457D+01
 Iteration Nr.   8
 **********************
 DD1Dir will call FoFMem   1 times, MxPair=        42
 NAB=    21 NAA=     0 NBB=     0.
 DE(Corr)= -0.36554431     E(CORR)=     -436.92343196     Delta= 2.81D-06
 NORM(A)=   0.10843448D+01
 Iteration Nr.   9
 **********************
 DD1Dir will call FoFMem   1 times, MxPair=        42
 NAB=    21 NAA=     0 NBB=     0.
 DE(Corr)= -0.36554662     E(CORR)=     -436.92343427     Delta=-2.31D-06
 NORM(A)=   0.10843460D+01
 Iteration Nr.  10
 **********************
 DD1Dir will call FoFMem   1 times, MxPair=        42
 NAB=    21 NAA=     0 NBB=     0.
 DE(Corr)= -0.36554634     E(CORR)=     -436.92343399     Delta= 2.77D-07
 NORM(A)=   0.10843467D+01
 Iteration Nr.  11
 **********************
 DD1Dir will call FoFMem   1 times, MxPair=        42
 NAB=    21 NAA=     0 NBB=     0.
 DE(Corr)= -0.36554684     E(CORR)=     -436.92343449     Delta=-4.93D-07
 NORM(A)=   0.10843472D+01
 Iteration Nr.  12
 **********************
 DD1Dir will call FoFMem   1 times, MxPair=        42
 NAB=    21 NAA=     0 NBB=     0.
 DE(Corr)= -0.36554694     E(CORR)=     -436.92343459     Delta=-1.06D-07
 NORM(A)=   0.10843476D+01
 Iteration Nr.  13
 **********************
 DD1Dir will call FoFMem   1 times, MxPair=        42
 NAB=    21 NAA=     0 NBB=     0.
 DE(Corr)= -0.36554703     E(CORR)=     -436.92343468     Delta=-8.51D-08
 NORM(A)=   0.10843478D+01
 Iteration Nr.  14
 **********************
 DD1Dir will call FoFMem   1 times, MxPair=        42
 NAB=    21 NAA=     0 NBB=     0.
 DE(Corr)= -0.36554705     E(CORR)=     -436.92343470     Delta=-2.71D-08
 NORM(A)=   0.10843478D+01
 Iteration Nr.  15
 **********************
 DD1Dir will call FoFMem   1 times, MxPair=        42
 NAB=    21 NAA=     0 NBB=     0.
 DE(Corr)= -0.36554706     E(CORR)=     -436.92343471     Delta=-8.41D-09
 NORM(A)=   0.10843478D+01
 Iteration Nr.  16
 **********************
 DD1Dir will call FoFMem   1 times, MxPair=        42
 NAB=    21 NAA=     0 NBB=     0.
 DE(Corr)= -0.36554706     E(CORR)=     -436.92343471     Delta=-1.26D-09
 NORM(A)=   0.10843478D+01
 Dominant configurations:
 ***********************
 Spin Case        I    J    A    B          Value
   ABAB          11   11   14   14      -0.112178D+00
 Largest amplitude= 1.12D-01

 Z-AMPLITUDE ITERATIONS

 Iteration Nr.   1
 **********************
 DD1Dir will call FoFMem   1 times, MxPair=        42
 NAB=    21 NAA=     0 NBB=     0.
 DE(Z)  -0.34970297D+00          E(Z)=    -0.43690759062D+03
 NORM(A)=   0.10843387D+01
 Iteration Nr.   2
 **********************
 DD1Dir will call FoFMem   1 times, MxPair=        42
 NAB=    21 NAA=     0 NBB=     0.
 DE(Z)  -0.34970254D+00          E(Z)=    -0.43690759019D+03
 NORM(A)=   0.10843627D+01
 Iteration Nr.   3
 **********************
 DD1Dir will call FoFMem   1 times, MxPair=        42
 NAB=    21 NAA=     0 NBB=     0.
 DE(Z)  -0.34970370D+00          E(Z)=    -0.43690759135D+03
 NORM(A)=   0.10843220D+01
 Iteration Nr.   4
 **********************
 DD1Dir will call FoFMem   1 times, MxPair=        42
 NAB=    21 NAA=     0 NBB=     0.
 DE(Z)  -0.34970172D+00          E(Z)=    -0.43690758936D+03
 NORM(A)=   0.10843243D+01
 Iteration Nr.   5
 **********************
 DD1Dir will call FoFMem   1 times, MxPair=        42
 NAB=    21 NAA=     0 NBB=     0.
 DE(Z)  -0.34970181D+00          E(Z)=    -0.43690758946D+03
 NORM(A)=   0.10762919D+01
 Iteration Nr.   6
 **********************
 DD1Dir will call FoFMem   1 times, MxPair=        42
 NAB=    21 NAA=     0 NBB=     0.
 DE(Z)  -0.34929281D+00          E(Z)=    -0.43690718046D+03
 NORM(A)=   0.10762875D+01
 Iteration Nr.   7
 **********************
 DD1Dir will call FoFMem   1 times, MxPair=        42
 NAB=    21 NAA=     0 NBB=     0.
 DE(Z)  -0.34929180D+00          E(Z)=    -0.43690717945D+03
 NORM(A)=   0.10762861D+01
 Iteration Nr.   8
 **********************
 DD1Dir will call FoFMem   1 times, MxPair=        42
 NAB=    21 NAA=     0 NBB=     0.
 DE(Z)  -0.34929183D+00          E(Z)=    -0.43690717948D+03
 NORM(A)=   0.10762860D+01
 Iteration Nr.   9
 **********************
 DD1Dir will call FoFMem   1 times, MxPair=        42
 NAB=    21 NAA=     0 NBB=     0.
 DE(Z)  -0.34929171D+00          E(Z)=    -0.43690717936D+03
 NORM(A)=   0.10762861D+01
 Iteration Nr.  10
 **********************
 DD1Dir will call FoFMem   1 times, MxPair=        42
 NAB=    21 NAA=     0 NBB=     0.
 DE(Z)  -0.34929175D+00          E(Z)=    -0.43690717940D+03
 NORM(A)=   0.10762862D+01
 Iteration Nr.  11
 **********************
 DD1Dir will call FoFMem   1 times, MxPair=        42
 NAB=    21 NAA=     0 NBB=     0.
 DE(Z)  -0.34929176D+00          E(Z)=    -0.43690717941D+03
 NORM(A)=   0.10762862D+01
 Iteration Nr.  12
 **********************
 DD1Dir will call FoFMem   1 times, MxPair=        42
 NAB=    21 NAA=     0 NBB=     0.
 DE(Z)  -0.34929175D+00          E(Z)=    -0.43690717940D+03
 NORM(A)=   0.10762862D+01
 Discarding MO integrals.
          Differentiating once with respect to electric field.
                with respect to dipole field.
          Electric field/nuclear overlap derivatives assumed to be zero.
          Keep R1 ints in memory in canonical form, NReq=93478140.
          There are     1 degrees of freedom in the 1st order CPHF.  IDoFFX=0.
 LinEq1:  Iter=  0 NonCon=     1 RMS=2.91D-03 Max=4.34D-02
 AX will form     1 AO Fock derivatives at one time.
 LinEq1:  Iter=  1 NonCon=     1 RMS=9.77D-04 Max=1.19D-02
 LinEq1:  Iter=  2 NonCon=     1 RMS=4.63D-04 Max=1.27D-02
 LinEq1:  Iter=  3 NonCon=     1 RMS=1.54D-04 Max=2.37D-03
 LinEq1:  Iter=  4 NonCon=     1 RMS=3.88D-05 Max=5.20D-04
 LinEq1:  Iter=  5 NonCon=     1 RMS=8.52D-06 Max=9.61D-05
 LinEq1:  Iter=  6 NonCon=     1 RMS=1.52D-06 Max=2.15D-05
 LinEq1:  Iter=  7 NonCon=     1 RMS=1.96D-07 Max=2.61D-06
 LinEq1:  Iter=  8 NonCon=     1 RMS=2.25D-08 Max=2.20D-07
 LinEq1:  Iter=  9 NonCon=     1 RMS=3.58D-09 Max=3.69D-08
 LinEq1:  Iter= 10 NonCon=     1 RMS=5.02D-10 Max=5.66D-09
 LinEq1:  Iter= 11 NonCon=     0 RMS=6.15D-11 Max=6.15D-10
 Linear equations converged to 1.000D-10 1.000D-09 after    11 iterations.
 End of Minotr Frequency-dependent properties file   721 does not exist.
 End of Minotr Frequency-dependent properties file   722 does not exist.

 **********************************************************************

            Population analysis using the QCI/CC density.

 **********************************************************************

     Natural Orbital Coefficients:
                           1         2         3         4         5
     Eigenvalues --     2.00003   2.00002   2.00001   2.00000   2.00000
   1 1   C  1S          0.00000  -0.16357  -0.43692   0.86311   0.00000
   2        2S          0.00000   0.00319   0.00783  -0.01051   0.00000
   3        3S          0.00000  -0.00654  -0.01784   0.03601   0.00000
   4        4S          0.00000  -0.00377  -0.00063  -0.00324   0.00000
   5        5S          0.00000  -0.00066  -0.00156   0.00000   0.00000
   6        6PX         0.00000   0.00000   0.00000   0.00000  -0.00137
   7        6PY        -0.00068   0.00000   0.00000   0.00000   0.00000
   8        6PZ         0.00000   0.00117   0.00177   0.00192   0.00000
   9        7PX         0.00000   0.00000   0.00000   0.00000  -0.00115
  10        7PY        -0.00145   0.00000   0.00000   0.00000   0.00000
  11        7PZ         0.00000   0.00012   0.00131  -0.00083   0.00000
  12        8PX         0.00000   0.00000   0.00000   0.00000  -0.00048
  13        8PY         0.01598   0.00000   0.00000   0.00000   0.00000
  14        8PZ         0.00000  -0.00612  -0.00147  -0.00283   0.00000
  15        9PX         0.00000   0.00000   0.00000   0.00000  -0.00001
  16        9PY         0.00137   0.00000   0.00000   0.00000   0.00000
  17        9PZ         0.00000  -0.00004  -0.00017  -0.00016   0.00000
  18       10D 0        0.00000  -0.00002   0.00000   0.00031   0.00000
  19       10D+1        0.00000   0.00000   0.00000   0.00000  -0.00020
  20       10D-1       -0.00032   0.00000   0.00000   0.00000   0.00000
  21       10D+2        0.00000   0.00010   0.00026  -0.00054   0.00000
  22       10D-2        0.00000   0.00000   0.00000   0.00000   0.00000
  23       11D 0        0.00000  -0.00082   0.00057  -0.00129   0.00000
  24       11D+1        0.00000   0.00000   0.00000   0.00000   0.00165
  25       11D-1        0.00020   0.00000   0.00000   0.00000   0.00000
  26       11D+2        0.00000  -0.00030  -0.00029   0.00020   0.00000
  27       11D-2        0.00000   0.00000   0.00000   0.00000   0.00000
  28       12D 0        0.00000  -0.00334  -0.00241  -0.00148   0.00000
  29       12D+1        0.00000   0.00000   0.00000   0.00000  -0.00105
  30       12D-1       -0.00428   0.00000   0.00000   0.00000   0.00000
  31       12D+2        0.00000  -0.00148  -0.00089  -0.00053   0.00000
  32       12D-2        0.00000   0.00000   0.00000   0.00000   0.00000
  33       13F 0        0.00000   0.00001   0.00009   0.00053   0.00000
  34       13F+1        0.00000   0.00000   0.00000   0.00000  -0.00015
  35       13F-1       -0.00036   0.00000   0.00000   0.00000   0.00000
  36       13F+2        0.00000  -0.00010  -0.00021   0.00053   0.00000
  37       13F-2        0.00000   0.00000   0.00000   0.00000   0.00000
  38       13F+3        0.00000   0.00000   0.00000   0.00000   0.00002
  39       13F-3        0.00001   0.00000   0.00000   0.00000   0.00000
  40       14F 0        0.00000   0.00082   0.00157  -0.00090   0.00000
  41       14F+1        0.00000   0.00000   0.00000   0.00000   0.00131
  42       14F-1        0.00196   0.00000   0.00000   0.00000   0.00000
  43       14F+2        0.00000   0.00069   0.00105  -0.00087   0.00000
  44       14F-2        0.00000   0.00000   0.00000   0.00000   0.00000
  45       14F+3        0.00000   0.00000   0.00000   0.00000   0.00045
  46       14F-3       -0.00017   0.00000   0.00000   0.00000   0.00000
  47 2   S  1S          0.00000  -0.20336   0.19620   0.06090   0.00000
  48        2S          0.00000   0.69450  -0.67630  -0.20950   0.00000
  49        3S          0.00000  -0.02009   0.01064   0.00289   0.00000
  50        4S          0.00000   0.04655  -0.04821  -0.01559   0.00000
  51        5S          0.00000   0.00778   0.00710   0.00809   0.00000
  52        6S          0.00000   0.00017   0.00041   0.00134   0.00000
  53        7PX         0.00000   0.00000   0.00000   0.00000   0.97149
  54        7PY         0.97716   0.00000   0.00000   0.00000   0.00000
  55        7PZ         0.00000   0.67789   0.56431   0.41202   0.00000
  56        8PX         0.00000   0.00000   0.00000   0.00000  -0.01114
  57        8PY        -0.02066   0.00000   0.00000   0.00000   0.00000
  58        8PZ         0.00000  -0.01224  -0.00780  -0.00649   0.00000
  59        9PX         0.00000   0.00000   0.00000   0.00000   0.06298
  60        9PY         0.05567   0.00000   0.00000   0.00000   0.00000
  61        9PZ         0.00000   0.04142   0.03635   0.02687   0.00000
  62       10PX         0.00000   0.00000   0.00000   0.00000   0.00188
  63       10PY        -0.00638   0.00000   0.00000   0.00000   0.00000
  64       10PZ         0.00000  -0.00739  -0.00128  -0.00373   0.00000
  65       11PX         0.00000   0.00000   0.00000   0.00000  -0.00070
  66       11PY        -0.00128   0.00000   0.00000   0.00000   0.00000
  67       11PZ         0.00000  -0.00008   0.00002  -0.00021   0.00000
  68       12D 0        0.00000   0.00224   0.00177   0.00214   0.00000
  69       12D+1        0.00000   0.00000   0.00000   0.00000   0.00222
  70       12D-1        0.00272   0.00000   0.00000   0.00000   0.00000
  71       12D+2        0.00000  -0.00054  -0.00004   0.00034   0.00000
  72       12D-2        0.00000   0.00000   0.00000   0.00000   0.00000
  73       13D 0        0.00000   0.00002  -0.00030  -0.00038   0.00000
  74       13D+1        0.00000   0.00000   0.00000   0.00000  -0.00019
  75       13D-1       -0.00054   0.00000   0.00000   0.00000   0.00000
  76       13D+2        0.00000   0.00036  -0.00030  -0.00012   0.00000
  77       13D-2        0.00000   0.00000   0.00000   0.00000   0.00000
  78       14D 0        0.00000   0.00099  -0.00027   0.00075   0.00000
  79       14D+1        0.00000   0.00000   0.00000   0.00000  -0.00065
  80       14D-1       -0.00058   0.00000   0.00000   0.00000   0.00000
  81       14D+2        0.00000   0.00035   0.00007   0.00003   0.00000
  82       14D-2        0.00000   0.00000   0.00000   0.00000   0.00000
  83       15F 0        0.00000  -0.00018  -0.00011   0.00016   0.00000
  84       15F+1        0.00000   0.00000   0.00000   0.00000  -0.00033
  85       15F-1       -0.00014   0.00000   0.00000   0.00000   0.00000
  86       15F+2        0.00000   0.00014   0.00019   0.00007   0.00000
  87       15F-2        0.00000   0.00000   0.00000   0.00000   0.00000
  88       15F+3        0.00000   0.00000   0.00000   0.00000   0.00016
  89       15F-3        0.00010   0.00000   0.00000   0.00000   0.00000
  90       16F 0        0.00000  -0.00043  -0.00028  -0.00076   0.00000
  91       16F+1        0.00000   0.00000   0.00000   0.00000  -0.00048
  92       16F-1       -0.00085   0.00000   0.00000   0.00000   0.00000
  93       16F+2        0.00000  -0.00004   0.00000  -0.00029   0.00000
  94       16F-2        0.00000   0.00000   0.00000   0.00000   0.00000
  95       16F+3        0.00000   0.00000   0.00000   0.00000  -0.00019
  96       16F-3       -0.00024   0.00000   0.00000   0.00000   0.00000
  97 3   H  1S         -0.00042  -0.00009   0.00013  -0.00120   0.00000
  98        2S          0.00037  -0.00135  -0.00124  -0.00172   0.00000
  99        3S          0.01845  -0.00354   0.00000  -0.00362   0.00000
 100        4S          0.00058   0.00007   0.00015  -0.00016   0.00000
 101        5PX         0.00000   0.00000   0.00000   0.00000  -0.00006
 102        5PY        -0.00001   0.00001   0.00008  -0.00038   0.00000
 103        5PZ         0.00012   0.00005   0.00009  -0.00017   0.00000
 104        6PX         0.00000   0.00000   0.00000   0.00000   0.00039
 105        6PY        -0.00007   0.00006   0.00025  -0.00095   0.00000
 106        6PZ        -0.00075   0.00005   0.00037  -0.00063   0.00000
 107        7PX         0.00000   0.00000   0.00000   0.00000  -0.00069
 108        7PY         0.00385   0.00042   0.00087  -0.00044   0.00000
 109        7PZ         0.00163  -0.00155  -0.00070  -0.00119   0.00000
 110        8D 0        0.00011   0.00005   0.00007   0.00009   0.00000
 111        8D+1        0.00000   0.00000   0.00000   0.00000  -0.00002
 112        8D-1        0.00000   0.00004   0.00014  -0.00031   0.00000
 113        8D+2        0.00003  -0.00004  -0.00010   0.00023   0.00000
 114        8D-2        0.00000   0.00000   0.00000   0.00000   0.00005
 115        9D 0       -0.00002   0.00007   0.00038  -0.00018   0.00000
 116        9D+1        0.00000   0.00000   0.00000   0.00000   0.00045
 117        9D-1       -0.00048  -0.00028  -0.00025  -0.00032   0.00000
 118        9D+2        0.00020  -0.00022  -0.00029   0.00031   0.00000
 119        9D-2        0.00000   0.00000   0.00000   0.00000  -0.00015
 120 4   H  1S          0.00042  -0.00009   0.00013  -0.00120   0.00000
 121        2S         -0.00037  -0.00135  -0.00124  -0.00172   0.00000
 122        3S         -0.01845  -0.00354   0.00000  -0.00362   0.00000
 123        4S         -0.00058   0.00007   0.00015  -0.00016   0.00000
 124        5PX         0.00000   0.00000   0.00000   0.00000  -0.00006
 125        5PY        -0.00001  -0.00001  -0.00008   0.00038   0.00000
 126        5PZ        -0.00012   0.00005   0.00009  -0.00017   0.00000
 127        6PX         0.00000   0.00000   0.00000   0.00000   0.00039
 128        6PY        -0.00007  -0.00006  -0.00025   0.00095   0.00000
 129        6PZ         0.00075   0.00005   0.00037  -0.00063   0.00000
 130        7PX         0.00000   0.00000   0.00000   0.00000  -0.00069
 131        7PY         0.00385  -0.00042  -0.00087   0.00044   0.00000
 132        7PZ        -0.00163  -0.00155  -0.00070  -0.00119   0.00000
 133        8D 0       -0.00011   0.00005   0.00007   0.00009   0.00000
 134        8D+1        0.00000   0.00000   0.00000   0.00000  -0.00002
 135        8D-1        0.00000  -0.00004  -0.00014   0.00031   0.00000
 136        8D+2       -0.00003  -0.00004  -0.00010   0.00023   0.00000
 137        8D-2        0.00000   0.00000   0.00000   0.00000  -0.00005
 138        9D 0        0.00002   0.00007   0.00038  -0.00018   0.00000
 139        9D+1        0.00000   0.00000   0.00000   0.00000   0.00045
 140        9D-1       -0.00048   0.00028   0.00025   0.00032   0.00000
 141        9D+2       -0.00020  -0.00022  -0.00029   0.00031   0.00000
 142        9D-2        0.00000   0.00000   0.00000   0.00000   0.00015
                           6         7         8         9        10
     Eigenvalues --     2.00000   1.97257   1.96174   1.95914   1.94190
   1 1   C  1S         -0.00025  -0.13850   0.07881   0.00000   0.06009
   2        2S         -0.00002   0.37048  -0.22048   0.00000  -0.16641
   3        3S          0.00000   0.08216  -0.05207   0.00000  -0.03879
   4        4S         -0.00019   0.24795  -0.22398   0.00000  -0.08696
   5        5S         -0.00010   0.01877   0.00481   0.00000  -0.00502
   6        6PX         0.00000   0.00000   0.00000   0.00000   0.00000
   7        6PY         0.00000   0.00000   0.00000   0.24756   0.00000
   8        6PZ         0.00001   0.01644   0.16720   0.00000  -0.18274
   9        7PX         0.00000   0.00000   0.00000   0.00000   0.00000
  10        7PY         0.00000   0.00000   0.00000   0.33965   0.00000
  11        7PZ        -0.00009   0.00743   0.21560   0.00000  -0.23136
  12        8PX         0.00000   0.00000   0.00000   0.00000   0.00000
  13        8PY         0.00000   0.00000   0.00000   0.22492   0.00000
  14        8PZ         0.00004  -0.03104   0.10301   0.00000  -0.12852
  15        9PX         0.00000   0.00000   0.00000   0.00000   0.00000
  16        9PY         0.00000   0.00000   0.00000   0.00607   0.00000
  17        9PZ        -0.00002   0.00168   0.00748   0.00000  -0.00616
  18       10D 0       -0.00001   0.00872   0.00902   0.00000  -0.01094
  19       10D+1        0.00000   0.00000   0.00000   0.00000   0.00000
  20       10D-1        0.00000   0.00000   0.00000  -0.01403   0.00000
  21       10D+2        0.00000  -0.00699   0.00997   0.00000  -0.00302
  22       10D-2        0.00000   0.00000   0.00000   0.00000   0.00000
  23       11D 0       -0.00005   0.00971   0.01543   0.00000  -0.01310
  24       11D+1        0.00000   0.00000   0.00000   0.00000   0.00000
  25       11D-1        0.00000   0.00000   0.00000  -0.03882   0.00000
  26       11D+2        0.00000  -0.01757   0.02568   0.00000  -0.00805
  27       11D-2        0.00000   0.00000   0.00000   0.00000   0.00000
  28       12D 0        0.00001  -0.01080  -0.00262   0.00000  -0.00158
  29       12D+1        0.00000   0.00000   0.00000   0.00000   0.00000
  30       12D-1        0.00000   0.00000   0.00000  -0.03740   0.00000
  31       12D+2        0.00003  -0.00414   0.00350   0.00000  -0.00403
  32       12D-2        0.00000   0.00000   0.00000   0.00000   0.00000
  33       13F 0        0.00000   0.00591   0.00138   0.00000  -0.00507
  34       13F+1        0.00000   0.00000   0.00000   0.00000   0.00000
  35       13F-1        0.00000   0.00000   0.00000   0.00572   0.00000
  36       13F+2        0.00000   0.00386  -0.00223   0.00000  -0.00028
  37       13F-2        0.00000   0.00000   0.00000   0.00000   0.00000
  38       13F+3        0.00000   0.00000   0.00000   0.00000   0.00000
  39       13F-3        0.00000   0.00000   0.00000  -0.00234   0.00000
  40       14F 0        0.00000   0.00560  -0.00599   0.00000   0.00004
  41       14F+1        0.00000   0.00000   0.00000   0.00000   0.00000
  42       14F-1        0.00000   0.00000   0.00000   0.00301   0.00000
  43       14F+2        0.00000   0.00730  -0.00731   0.00000   0.00021
  44       14F-2        0.00000   0.00000   0.00000   0.00000   0.00000
  45       14F+3        0.00000   0.00000   0.00000   0.00000   0.00000
  46       14F-3        0.00000   0.00000   0.00000  -0.00300   0.00000
  47 2   S  1S          0.99625   0.04587   0.04805   0.00000   0.02762
  48        2S          0.01370  -0.17740  -0.18253   0.00000  -0.10710
  49        3S          0.00032   0.36487   0.39595   0.00000   0.24003
  50        4S          0.00002   0.04560   0.05426   0.00000   0.03447
  51        5S         -0.00012   0.19402   0.20944   0.00000   0.32282
  52        6S          0.00004  -0.01595  -0.02869   0.00000   0.05911
  53        7PX         0.00000   0.00000   0.00000   0.00000   0.00000
  54        7PY         0.00000   0.00000   0.00000  -0.03946   0.00000
  55        7PZ         0.00114   0.04281   0.02251   0.00000  -0.18268
  56        8PX         0.00000   0.00000   0.00000   0.00000   0.00000
  57        8PY         0.00000   0.00000   0.00000   0.09086   0.00000
  58        8PZ        -0.00015  -0.05622  -0.03074   0.00000   0.38758
  59        9PX         0.00000   0.00000   0.00000   0.00000   0.00000
  60        9PY         0.00000   0.00000   0.00000   0.03947   0.00000
  61        9PZ         0.00014  -0.03058  -0.01783   0.00000   0.17609
  62       10PX         0.00000   0.00000   0.00000   0.00000   0.00000
  63       10PY         0.00000   0.00000   0.00000   0.03077   0.00000
  64       10PZ         0.00006   0.01400   0.00615   0.00000   0.12001
  65       11PX         0.00000   0.00000   0.00000   0.00000   0.00000
  66       11PY         0.00000   0.00000   0.00000  -0.00196   0.00000
  67       11PZ         0.00000   0.00611   0.00555   0.00000  -0.00306
  68       12D 0        0.00006   0.01226   0.00117   0.00000  -0.02884
  69       12D+1        0.00000   0.00000   0.00000   0.00000   0.00000
  70       12D-1        0.00000   0.00000   0.00000  -0.02263   0.00000
  71       12D+2       -0.00001   0.00037   0.00146   0.00000  -0.00052
  72       12D-2        0.00000   0.00000   0.00000   0.00000   0.00000
  73       13D 0        0.00001   0.02286   0.01047   0.00000  -0.04709
  74       13D+1        0.00000   0.00000   0.00000   0.00000   0.00000
  75       13D-1        0.00000   0.00000   0.00000  -0.02232   0.00000
  76       13D+2        0.00001   0.00110   0.00141   0.00000  -0.00016
  77       13D-2        0.00000   0.00000   0.00000   0.00000   0.00000
  78       14D 0       -0.00004  -0.00912  -0.00476   0.00000   0.00217
  79       14D+1        0.00000   0.00000   0.00000   0.00000   0.00000
  80       14D-1        0.00000   0.00000   0.00000  -0.00218   0.00000
  81       14D+2        0.00000  -0.00122  -0.00215   0.00000  -0.00056
  82       14D-2        0.00000   0.00000   0.00000   0.00000   0.00000
  83       15F 0       -0.00002  -0.00797  -0.00515   0.00000   0.01377
  84       15F+1        0.00000   0.00000   0.00000   0.00000   0.00000
  85       15F-1        0.00000   0.00000   0.00000   0.00873   0.00000
  86       15F+2        0.00000  -0.00042  -0.00044   0.00000   0.00342
  87       15F-2        0.00000   0.00000   0.00000   0.00000   0.00000
  88       15F+3        0.00000   0.00000   0.00000   0.00000   0.00000
  89       15F-3        0.00000   0.00000   0.00000   0.00076   0.00000
  90       16F 0        0.00000   0.00364   0.00282   0.00000  -0.00455
  91       16F+1        0.00000   0.00000   0.00000   0.00000   0.00000
  92       16F-1        0.00000   0.00000   0.00000   0.00079   0.00000
  93       16F+2        0.00000  -0.00045  -0.00068   0.00000   0.00061
  94       16F-2        0.00000   0.00000   0.00000   0.00000   0.00000
  95       16F+3        0.00000   0.00000   0.00000   0.00000   0.00000
  96       16F-3        0.00000   0.00000   0.00000   0.00084   0.00000
  97 3   H  1S         -0.00001   0.06709  -0.10145  -0.14017   0.03296
  98        2S          0.00001   0.04931  -0.10112  -0.15630   0.04772
  99        3S          0.00013  -0.03409   0.01632   0.07305   0.01533
 100        4S          0.00001  -0.00027   0.00315   0.00290  -0.00155
 101        5PX         0.00000   0.00000   0.00000   0.00000   0.00000
 102        5PY         0.00000   0.00529  -0.00957  -0.00801   0.00358
 103        5PZ         0.00000   0.00331  -0.00322  -0.00843  -0.00107
 104        6PX         0.00000   0.00000   0.00000   0.00000   0.00000
 105        6PY         0.00000  -0.00388  -0.00206   0.01295   0.00240
 106        6PZ         0.00000  -0.00359   0.00857  -0.00069  -0.00914
 107        7PX         0.00000   0.00000   0.00000   0.00000   0.00000
 108        7PY         0.00001  -0.01048   0.01484   0.03082  -0.00148
 109        7PZ         0.00003  -0.01376   0.00500   0.01280   0.00149
 110        8D 0        0.00000   0.00028   0.00138  -0.00135  -0.00160
 111        8D+1        0.00000   0.00000   0.00000   0.00000   0.00000
 112        8D-1        0.00000   0.00038  -0.00101  -0.00244   0.00002
 113        8D+2        0.00000  -0.00053   0.00159   0.00008  -0.00079
 114        8D-2        0.00000   0.00000   0.00000   0.00000   0.00000
 115        9D 0        0.00000  -0.00006  -0.00037  -0.00186  -0.00042
 116        9D+1        0.00000   0.00000   0.00000   0.00000   0.00000
 117        9D-1       -0.00001  -0.00387   0.00337   0.00347  -0.00045
 118        9D+2        0.00000   0.00155  -0.00066  -0.00302  -0.00025
 119        9D-2        0.00000   0.00000   0.00000   0.00000   0.00000
 120 4   H  1S         -0.00001   0.06709  -0.10145   0.14017   0.03296
 121        2S          0.00001   0.04931  -0.10112   0.15630   0.04772
 122        3S          0.00013  -0.03409   0.01632  -0.07305   0.01533
 123        4S          0.00001  -0.00027   0.00315  -0.00290  -0.00155
 124        5PX         0.00000   0.00000   0.00000   0.00000   0.00000
 125        5PY         0.00000  -0.00529   0.00957  -0.00801  -0.00358
 126        5PZ         0.00000   0.00331  -0.00322   0.00843  -0.00107
 127        6PX         0.00000   0.00000   0.00000   0.00000   0.00000
 128        6PY         0.00000   0.00388   0.00206   0.01295  -0.00240
 129        6PZ         0.00000  -0.00359   0.00857   0.00069  -0.00914
 130        7PX         0.00000   0.00000   0.00000   0.00000   0.00000
 131        7PY        -0.00001   0.01048  -0.01484   0.03082   0.00148
 132        7PZ         0.00003  -0.01376   0.00500  -0.01280   0.00149
 133        8D 0        0.00000   0.00028   0.00138   0.00135  -0.00160
 134        8D+1        0.00000   0.00000   0.00000   0.00000   0.00000
 135        8D-1        0.00000  -0.00038   0.00101  -0.00244  -0.00002
 136        8D+2        0.00000  -0.00053   0.00159  -0.00008  -0.00079
 137        8D-2        0.00000   0.00000   0.00000   0.00000   0.00000
 138        9D 0        0.00000  -0.00006  -0.00037   0.00186  -0.00042
 139        9D+1        0.00000   0.00000   0.00000   0.00000   0.00000
 140        9D-1        0.00001   0.00387  -0.00337   0.00347   0.00045
 141        9D+2        0.00000   0.00155  -0.00066   0.00302  -0.00025
 142        9D-2        0.00000   0.00000   0.00000   0.00000   0.00000
                          11        12        13        14        15
     Eigenvalues --     1.94076   1.90058   0.08271   0.03648   0.02650
   1 1   C  1S          0.00000   0.00000   0.00000  -0.11158   0.00000
   2        2S          0.00000   0.00000   0.00000   0.38603   0.00000
   3        3S          0.00000   0.00000   0.00000   0.15663   0.00000
   4        4S          0.00000   0.00000   0.00000   0.15295   0.00000
   5        5S          0.00000   0.00000   0.00000   0.09678   0.00000
   6        6PX         0.00000   0.19066  -0.30160   0.00000   0.00000
   7        6PY        -0.04025   0.00000   0.00000   0.00000   0.26205
   8        6PZ         0.00000   0.00000   0.00000   0.27291   0.00000
   9        7PX         0.00000   0.26626  -0.45999   0.00000   0.00000
  10        7PY        -0.05321   0.00000   0.00000   0.00000   0.61574
  11        7PZ         0.00000   0.00000   0.00000   0.53063   0.00000
  12        8PX         0.00000   0.17856  -0.20581   0.00000   0.00000
  13        8PY        -0.00395   0.00000   0.00000   0.00000   0.17305
  14        8PZ         0.00000   0.00000   0.00000   0.48773   0.00000
  15        9PX         0.00000   0.01314  -0.00577   0.00000   0.00000
  16        9PY        -0.00236   0.00000   0.00000   0.00000  -0.00651
  17        9PZ         0.00000   0.00000   0.00000   0.03843   0.00000
  18       10D 0        0.00000   0.00000   0.00000   0.00458   0.00000
  19       10D+1        0.00000   0.01164  -0.00325   0.00000   0.00000
  20       10D-1        0.01868   0.00000   0.00000   0.00000   0.07049
  21       10D+2        0.00000   0.00000   0.00000   0.00216   0.00000
  22       10D-2        0.00000   0.00000   0.00000   0.00000   0.00000
  23       11D 0        0.00000   0.00000   0.00000   0.09580   0.00000
  24       11D+1        0.00000   0.03299  -0.03854   0.00000   0.00000
  25       11D-1        0.03594   0.00000   0.00000   0.00000   0.04515
  26       11D+2        0.00000   0.00000   0.00000   0.05680   0.00000
  27       11D-2        0.00000   0.00000   0.00000   0.00000   0.00000
  28       12D 0        0.00000   0.00000   0.00000   0.08229   0.00000
  29       12D+1        0.00000   0.01128  -0.01502   0.00000   0.00000
  30       12D-1       -0.02331   0.00000   0.00000   0.00000  -0.01892
  31       12D+2        0.00000   0.00000   0.00000   0.03510   0.00000
  32       12D-2        0.00000   0.00000   0.00000   0.00000   0.00000
  33       13F 0        0.00000   0.00000   0.00000   0.01364   0.00000
  34       13F+1        0.00000   0.00645  -0.00614   0.00000   0.00000
  35       13F-1        0.00457   0.00000   0.00000   0.00000   0.03334
  36       13F+2        0.00000   0.00000   0.00000   0.00236   0.00000
  37       13F-2        0.00000   0.00000   0.00000   0.00000   0.00000
  38       13F+3        0.00000   0.00030   0.00014   0.00000   0.00000
  39       13F-3        0.00145   0.00000   0.00000   0.00000  -0.00365
  40       14F 0        0.00000   0.00000   0.00000  -0.00659   0.00000
  41       14F+1        0.00000   0.00100  -0.01659   0.00000   0.00000
  42       14F-1        0.00085   0.00000   0.00000   0.00000   0.06807
  43       14F+2        0.00000   0.00000   0.00000  -0.03643   0.00000
  44       14F-2        0.00000   0.00000   0.00000   0.00000   0.00000
  45       14F+3        0.00000   0.00051  -0.00493   0.00000   0.00000
  46       14F-3       -0.00055   0.00000   0.00000   0.00000   0.00385
  47 2   S  1S          0.00000   0.00000   0.00000  -0.02428   0.00000
  48        2S          0.00000   0.00000   0.00000   0.06944   0.00000
  49        3S          0.00000   0.00000   0.00000  -0.25166   0.00000
  50        4S          0.00000   0.00000   0.00000   0.00164   0.00000
  51        5S          0.00000   0.00000   0.00000  -0.79168   0.00000
  52        6S          0.00000   0.00000   0.00000  -0.26823   0.00000
  53        7PX         0.00000  -0.17449  -0.20075   0.00000   0.00000
  54        7PY        -0.21551   0.00000   0.00000   0.00000   0.08360
  55        7PZ         0.00000   0.00000   0.00000  -0.19307   0.00000
  56        8PX         0.00000   0.39328   0.53340   0.00000   0.00000
  57        8PY         0.52617   0.00000   0.00000   0.00000  -0.24232
  58        8PZ         0.00000   0.00000   0.00000   0.74258   0.00000
  59        9PX         0.00000   0.15970   0.20804   0.00000   0.00000
  60        9PY         0.22270   0.00000   0.00000   0.00000  -0.12616
  61        9PZ         0.00000   0.00000   0.00000   0.20886   0.00000
  62       10PX         0.00000   0.20656   0.16325   0.00000   0.00000
  63       10PY         0.40674   0.00000   0.00000   0.00000   0.08840
  64       10PZ         0.00000   0.00000   0.00000   0.49966   0.00000
  65       11PX         0.00000   0.00414   0.00196   0.00000   0.00000
  66       11PY         0.04181   0.00000   0.00000   0.00000   0.02494
  67       11PZ         0.00000   0.00000   0.00000   0.03359   0.00000
  68       12D 0        0.00000   0.00000   0.00000   0.10231   0.00000
  69       12D+1        0.00000  -0.03687   0.03876   0.00000   0.00000
  70       12D-1        0.00264   0.00000   0.00000   0.00000  -0.28119
  71       12D+2        0.00000   0.00000   0.00000   0.09012   0.00000
  72       12D-2        0.00000   0.00000   0.00000   0.00000   0.00000
  73       13D 0        0.00000   0.00000   0.00000   0.16817   0.00000
  74       13D+1        0.00000  -0.03558   0.05301   0.00000   0.00000
  75       13D-1       -0.00030   0.00000   0.00000   0.00000  -0.24830
  76       13D+2        0.00000   0.00000   0.00000   0.05631   0.00000
  77       13D-2        0.00000   0.00000   0.00000   0.00000   0.00000
  78       14D 0        0.00000   0.00000   0.00000  -0.06812   0.00000
  79       14D+1        0.00000  -0.00349  -0.01959   0.00000   0.00000
  80       14D-1       -0.01357   0.00000   0.00000   0.00000  -0.03020
  81       14D+2        0.00000   0.00000   0.00000   0.01454   0.00000
  82       14D-2        0.00000   0.00000   0.00000   0.00000   0.00000
  83       15F 0        0.00000   0.00000   0.00000  -0.01917   0.00000
  84       15F+1        0.00000   0.01097  -0.01565   0.00000   0.00000
  85       15F-1        0.00367   0.00000   0.00000   0.00000   0.03141
  86       15F+2        0.00000   0.00000   0.00000  -0.00478   0.00000
  87       15F-2        0.00000   0.00000   0.00000   0.00000   0.00000
  88       15F+3        0.00000   0.00379   0.00205   0.00000   0.00000
  89       15F-3        0.00444   0.00000   0.00000   0.00000   0.00357
  90       16F 0        0.00000   0.00000   0.00000   0.01060   0.00000
  91       16F+1        0.00000  -0.00099   0.00561   0.00000   0.00000
  92       16F-1        0.00193   0.00000   0.00000   0.00000   0.00069
  93       16F+2        0.00000   0.00000   0.00000  -0.01263   0.00000
  94       16F-2        0.00000   0.00000   0.00000   0.00000   0.00000
  95       16F+3        0.00000   0.00240   0.00264   0.00000   0.00000
  96       16F-3        0.00335   0.00000   0.00000   0.00000   0.00213
  97 3   H  1S          0.05250   0.00000   0.00000  -0.03209   0.17828
  98        2S          0.09103   0.00000   0.00000   0.09437   0.56808
  99        3S          0.16618   0.00000   0.00000   0.27185   0.29410
 100        4S          0.01609   0.00000   0.00000   0.01245   0.01165
 101        5PX         0.00000   0.00425  -0.01022   0.00000   0.00000
 102        5PY         0.00266   0.00000   0.00000  -0.00698   0.00661
 103        5PZ         0.00046   0.00000   0.00000   0.00547  -0.01290
 104        6PX         0.00000   0.01430  -0.01673   0.00000   0.00000
 105        6PY        -0.00024   0.00000   0.00000   0.02354   0.15197
 106        6PZ        -0.00212   0.00000   0.00000   0.03819   0.02117
 107        7PX         0.00000   0.00250   0.00888   0.00000   0.00000
 108        7PY         0.01966   0.00000   0.00000   0.04287   0.07258
 109        7PZ        -0.00106   0.00000   0.00000   0.06484   0.00893
 110        8D 0       -0.00096   0.00000   0.00000   0.00247  -0.01079
 111        8D+1        0.00000   0.00138  -0.00291   0.00000   0.00000
 112        8D-1        0.00005   0.00000   0.00000   0.00260  -0.00417
 113        8D+2       -0.00056   0.00000   0.00000   0.00189  -0.00757
 114        8D-2        0.00000   0.00144  -0.00488   0.00000   0.00000
 115        9D 0       -0.00091   0.00000   0.00000   0.00180  -0.00466
 116        9D+1        0.00000   0.00020  -0.00061   0.00000   0.00000
 117        9D-1       -0.00047   0.00000   0.00000   0.01152   0.02878
 118        9D+2        0.00059   0.00000   0.00000   0.00155  -0.02327
 119        9D-2        0.00000   0.00280   0.00392   0.00000   0.00000
 120 4   H  1S         -0.05250   0.00000   0.00000  -0.03209  -0.17828
 121        2S         -0.09103   0.00000   0.00000   0.09437  -0.56808
 122        3S         -0.16618   0.00000   0.00000   0.27185  -0.29410
 123        4S         -0.01609   0.00000   0.00000   0.01245  -0.01165
 124        5PX         0.00000   0.00425  -0.01022   0.00000   0.00000
 125        5PY         0.00266   0.00000   0.00000   0.00698   0.00661
 126        5PZ        -0.00046   0.00000   0.00000   0.00547   0.01290
 127        6PX         0.00000   0.01430  -0.01673   0.00000   0.00000
 128        6PY        -0.00024   0.00000   0.00000  -0.02354   0.15197
 129        6PZ         0.00212   0.00000   0.00000   0.03819  -0.02117
 130        7PX         0.00000   0.00250   0.00888   0.00000   0.00000
 131        7PY         0.01966   0.00000   0.00000  -0.04287   0.07258
 132        7PZ         0.00106   0.00000   0.00000   0.06484  -0.00893
 133        8D 0        0.00096   0.00000   0.00000   0.00247   0.01079
 134        8D+1        0.00000   0.00138  -0.00291   0.00000   0.00000
 135        8D-1        0.00005   0.00000   0.00000  -0.00260  -0.00417
 136        8D+2        0.00056   0.00000   0.00000   0.00189   0.00757
 137        8D-2        0.00000  -0.00144   0.00488   0.00000   0.00000
 138        9D 0        0.00091   0.00000   0.00000   0.00180   0.00466
 139        9D+1        0.00000   0.00020  -0.00061   0.00000   0.00000
 140        9D-1       -0.00047   0.00000   0.00000  -0.01152   0.02878
 141        9D+2       -0.00059   0.00000   0.00000   0.00155   0.02327
 142        9D-2        0.00000  -0.00280  -0.00392   0.00000   0.00000
                          16        17        18        19        20
     Eigenvalues --     0.02026   0.01799   0.01697   0.01591   0.01327
   1 1   C  1S         -0.14741   0.00000   0.08834   0.00000   0.00000
   2        2S          0.56634   0.00000  -0.33596   0.00000   0.00000
   3        3S          0.30335   0.00000  -0.19546   0.00000   0.00000
   4        4S          0.13429   0.00000  -0.33548   0.00000   0.00000
   5        5S         -0.03499   0.00000  -0.08587   0.00000   0.00000
   6        6PX         0.00000   0.00000   0.00000   0.00000   0.08536
   7        6PY         0.00000   0.00000   0.00000   0.45426   0.00000
   8        6PZ        -0.31134   0.00000   0.02690   0.00000   0.00000
   9        7PX         0.00000   0.00000   0.00000   0.00000   0.10801
  10        7PY         0.00000   0.00000   0.00000   0.77990   0.00000
  11        7PZ        -0.55324   0.00000  -0.02829   0.00000   0.00000
  12        8PX         0.00000   0.00000   0.00000   0.00000   0.04273
  13        8PY         0.00000   0.00000   0.00000   0.55944   0.00000
  14        8PZ        -0.27785   0.00000   0.02049   0.00000   0.00000
  15        9PX         0.00000   0.00000   0.00000   0.00000  -0.01069
  16        9PY         0.00000   0.00000   0.00000   0.03153   0.00000
  17        9PZ        -0.02697   0.00000  -0.00964   0.00000   0.00000
  18       10D 0       -0.00452   0.00000   0.00460   0.00000   0.00000
  19       10D+1        0.00000   0.00000   0.00000   0.00000  -0.14825
  20       10D-1        0.00000   0.00000   0.00000  -0.08711   0.00000
  21       10D+2        0.03267   0.00000   0.03856   0.00000   0.00000
  22       10D-2        0.00000   0.04387   0.00000   0.00000   0.00000
  23       11D 0       -0.05823   0.00000   0.01773   0.00000   0.00000
  24       11D+1        0.00000   0.00000   0.00000   0.00000  -0.26575
  25       11D-1        0.00000   0.00000   0.00000  -0.33424   0.00000
  26       11D+2        0.03866   0.00000   0.10691   0.00000   0.00000
  27       11D-2        0.00000   0.08556   0.00000   0.00000   0.00000
  28       12D 0       -0.06275   0.00000  -0.02477   0.00000   0.00000
  29       12D+1        0.00000   0.00000   0.00000   0.00000  -0.04470
  30       12D-1        0.00000   0.00000   0.00000  -0.06902   0.00000
  31       12D+2       -0.04784   0.00000   0.01761   0.00000   0.00000
  32       12D-2        0.00000   0.00721   0.00000   0.00000   0.00000
  33       13F 0       -0.01623   0.00000   0.00280   0.00000   0.00000
  34       13F+1        0.00000   0.00000   0.00000   0.00000  -0.05071
  35       13F-1        0.00000   0.00000   0.00000  -0.02210   0.00000
  36       13F+2        0.01833   0.00000   0.02292   0.00000   0.00000
  37       13F-2        0.00000   0.02605   0.00000   0.00000   0.00000
  38       13F+3        0.00000   0.00000   0.00000   0.00000  -0.01073
  39       13F-3        0.00000   0.00000   0.00000  -0.01943   0.00000
  40       14F 0       -0.01168   0.00000  -0.02208   0.00000   0.00000
  41       14F+1        0.00000   0.00000   0.00000   0.00000  -0.02971
  42       14F-1        0.00000   0.00000   0.00000   0.00213   0.00000
  43       14F+2        0.02582   0.00000  -0.01114   0.00000   0.00000
  44       14F-2        0.00000   0.01968   0.00000   0.00000   0.00000
  45       14F+3        0.00000   0.00000   0.00000   0.00000  -0.00236
  46       14F-3        0.00000   0.00000   0.00000  -0.04838   0.00000
  47 2   S  1S          0.00168   0.00000   0.00487   0.00000   0.00000
  48        2S         -0.00378   0.00000  -0.04156   0.00000   0.00000
  49        3S          0.02238   0.00000   0.01223   0.00000   0.00000
  50        4S         -0.01079   0.00000   0.04026   0.00000   0.00000
  51        5S          0.41011   0.00000   0.14229   0.00000   0.00000
  52        6S          0.17946   0.00000   0.09776   0.00000   0.00000
  53        7PX         0.00000   0.00000   0.00000   0.00000   0.03606
  54        7PY         0.00000   0.00000   0.00000   0.03823   0.00000
  55        7PZ        -0.01708   0.00000   0.04935   0.00000   0.00000
  56        8PX         0.00000   0.00000   0.00000   0.00000   0.00095
  57        8PY         0.00000   0.00000   0.00000  -0.04089   0.00000
  58        8PZ        -0.12235   0.00000  -0.16300   0.00000   0.00000
  59        9PX         0.00000   0.00000   0.00000   0.00000  -0.06625
  60        9PY         0.00000   0.00000   0.00000  -0.05852   0.00000
  61        9PZ         0.03607   0.00000  -0.06027   0.00000   0.00000
  62       10PX         0.00000   0.00000   0.00000   0.00000   0.20542
  63       10PY         0.00000   0.00000   0.00000   0.04578   0.00000
  64       10PZ        -0.30362   0.00000  -0.07519   0.00000   0.00000
  65       11PX         0.00000   0.00000   0.00000   0.00000   0.02068
  66       11PY         0.00000   0.00000   0.00000   0.03049   0.00000
  67       11PZ        -0.02684   0.00000  -0.01173   0.00000   0.00000
  68       12D 0        0.04187   0.00000   0.13100   0.00000   0.00000
  69       12D+1        0.00000   0.00000   0.00000   0.00000   0.44177
  70       12D-1        0.00000   0.00000   0.00000   0.40774   0.00000
  71       12D+2        0.15142   0.00000   0.56753   0.00000   0.00000
  72       12D-2        0.00000   0.59507   0.00000   0.00000   0.00000
  73       13D 0       -0.03727   0.00000   0.05920   0.00000   0.00000
  74       13D+1        0.00000   0.00000   0.00000   0.00000   0.43009
  75       13D-1        0.00000   0.00000   0.00000   0.29474   0.00000
  76       13D+2        0.11007   0.00000   0.41071   0.00000   0.00000
  77       13D-2        0.00000   0.44169   0.00000   0.00000   0.00000
  78       14D 0        0.06479   0.00000   0.04092   0.00000   0.00000
  79       14D+1        0.00000   0.00000   0.00000   0.00000  -0.06997
  80       14D-1        0.00000   0.00000   0.00000   0.06111   0.00000
  81       14D+2        0.01545   0.00000   0.04514   0.00000   0.00000
  82       14D-2        0.00000   0.04822   0.00000   0.00000   0.00000
  83       15F 0        0.00157   0.00000   0.00416   0.00000   0.00000
  84       15F+1        0.00000   0.00000   0.00000   0.00000  -0.06018
  85       15F-1        0.00000   0.00000   0.00000   0.00426   0.00000
  86       15F+2       -0.01538   0.00000  -0.02110   0.00000   0.00000
  87       15F-2        0.00000  -0.00760   0.00000   0.00000   0.00000
  88       15F+3        0.00000   0.00000   0.00000   0.00000  -0.02173
  89       15F-3        0.00000   0.00000   0.00000  -0.00163   0.00000
  90       16F 0       -0.02882   0.00000  -0.01884   0.00000   0.00000
  91       16F+1        0.00000   0.00000   0.00000   0.00000   0.02750
  92       16F-1        0.00000   0.00000   0.00000  -0.02607   0.00000
  93       16F+2       -0.00823   0.00000  -0.02536   0.00000   0.00000
  94       16F-2        0.00000  -0.01076   0.00000   0.00000   0.00000
  95       16F+3        0.00000   0.00000   0.00000   0.00000  -0.00919
  96       16F-3        0.00000   0.00000   0.00000   0.00121   0.00000
  97 3   H  1S         -0.23732   0.00000   0.06739   0.07792   0.00000
  98        2S         -0.59901   0.00000   0.23735   0.73003   0.00000
  99        3S         -0.29416   0.00000   0.11782   0.75626   0.00000
 100        4S         -0.01192   0.00000   0.00216   0.05251   0.00000
 101        5PX         0.00000  -0.00928   0.00000   0.00000   0.02607
 102        5PY         0.01826   0.00000  -0.01087  -0.03363   0.00000
 103        5PZ        -0.00464   0.00000  -0.01194  -0.02018   0.00000
 104        6PX         0.00000  -0.01377   0.00000   0.00000   0.03944
 105        6PY        -0.05597   0.00000   0.00041   0.10374   0.00000
 106        6PZ        -0.03976   0.00000   0.01188   0.06994   0.00000
 107        7PX         0.00000  -0.00140   0.00000   0.00000  -0.00934
 108        7PY        -0.02131   0.00000   0.01977   0.12518   0.00000
 109        7PZ        -0.04549   0.00000  -0.00755   0.07980   0.00000
 110        8D 0       -0.00763   0.00000   0.00153   0.00399   0.00000
 111        8D+1        0.00000  -0.00330   0.00000   0.00000   0.00259
 112        8D-1        0.00599   0.00000  -0.00557  -0.00929   0.00000
 113        8D+2       -0.00621   0.00000   0.00602   0.01019   0.00000
 114        8D-2        0.00000  -0.00790   0.00000   0.00000   0.01659
 115        9D 0        0.00353   0.00000   0.00299  -0.00819   0.00000
 116        9D+1        0.00000   0.00208   0.00000   0.00000  -0.00143
 117        9D-1        0.00021   0.00000  -0.00053   0.00465   0.00000
 118        9D+2        0.00972   0.00000   0.00998  -0.00313   0.00000
 119        9D-2        0.00000  -0.00016   0.00000   0.00000  -0.00470
 120 4   H  1S         -0.23732   0.00000   0.06739  -0.07792   0.00000
 121        2S         -0.59901   0.00000   0.23735  -0.73003   0.00000
 122        3S         -0.29416   0.00000   0.11782  -0.75626   0.00000
 123        4S         -0.01192   0.00000   0.00216  -0.05251   0.00000
 124        5PX         0.00000   0.00928   0.00000   0.00000   0.02607
 125        5PY        -0.01826   0.00000   0.01087  -0.03363   0.00000
 126        5PZ        -0.00464   0.00000  -0.01194   0.02018   0.00000
 127        6PX         0.00000   0.01377   0.00000   0.00000   0.03944
 128        6PY         0.05597   0.00000  -0.00041   0.10374   0.00000
 129        6PZ        -0.03976   0.00000   0.01188  -0.06994   0.00000
 130        7PX         0.00000   0.00140   0.00000   0.00000  -0.00934
 131        7PY         0.02131   0.00000  -0.01977   0.12518   0.00000
 132        7PZ        -0.04549   0.00000  -0.00755  -0.07980   0.00000
 133        8D 0       -0.00763   0.00000   0.00153  -0.00399   0.00000
 134        8D+1        0.00000   0.00330   0.00000   0.00000   0.00259
 135        8D-1       -0.00599   0.00000   0.00557  -0.00929   0.00000
 136        8D+2       -0.00621   0.00000   0.00602  -0.01019   0.00000
 137        8D-2        0.00000  -0.00790   0.00000   0.00000  -0.01659
 138        9D 0        0.00353   0.00000   0.00299   0.00819   0.00000
 139        9D+1        0.00000  -0.00208   0.00000   0.00000  -0.00143
 140        9D-1       -0.00021   0.00000   0.00053   0.00465   0.00000
 141        9D+2        0.00972   0.00000   0.00998   0.00313   0.00000
 142        9D-2        0.00000  -0.00016   0.00000   0.00000   0.00470
                          21        22        23        24        25
     Eigenvalues --     0.01195   0.01022   0.00818   0.00668   0.00645
   1 1   C  1S         -0.01150   0.00000  -0.03369   0.00000   0.00000
   2        2S          0.01260   0.00000   0.11805   0.00000   0.00000
   3        3S         -0.00214   0.00000   0.11465   0.00000   0.00000
   4        4S          0.11305   0.00000  -0.08435   0.00000   0.00000
   5        5S          0.06527   0.00000  -0.03483   0.00000   0.00000
   6        6PX         0.00000   0.00000   0.00000   0.39336   0.00000
   7        6PY         0.00000   0.14604   0.00000   0.00000   0.00000
   8        6PZ         0.11564   0.00000  -0.12888   0.00000   0.00000
   9        7PX         0.00000   0.00000   0.00000   0.46347   0.00000
  10        7PY         0.00000   0.43039   0.00000   0.00000   0.00000
  11        7PZ         0.26878   0.00000  -0.11957   0.00000   0.00000
  12        8PX         0.00000   0.00000   0.00000  -0.18172   0.00000
  13        8PY         0.00000  -1.11347   0.00000   0.00000   0.00000
  14        8PZ        -0.28782   0.00000   0.36838   0.00000   0.00000
  15        9PX         0.00000   0.00000   0.00000  -0.01002   0.00000
  16        9PY         0.00000  -0.10828   0.00000   0.00000   0.00000
  17        9PZ        -0.01360   0.00000   0.00639   0.00000   0.00000
  18       10D 0       -0.18897   0.00000  -0.09191   0.00000   0.00000
  19       10D+1        0.00000   0.00000   0.00000   0.08289   0.00000
  20       10D-1        0.00000  -0.02852   0.00000   0.00000   0.00000
  21       10D+2        0.00730   0.00000  -0.15529   0.00000   0.00000
  22       10D-2        0.00000   0.00000   0.00000   0.00000   0.30647
  23       11D 0       -0.28517   0.00000  -0.22338   0.00000   0.00000
  24       11D+1        0.00000   0.00000   0.00000   0.10992   0.00000
  25       11D-1        0.00000  -0.28878   0.00000   0.00000   0.00000
  26       11D+2        0.05919   0.00000  -0.31268   0.00000   0.00000
  27       11D-2        0.00000   0.00000   0.00000   0.00000   0.45815
  28       12D 0       -0.06910   0.00000   0.16273   0.00000   0.00000
  29       12D+1        0.00000   0.00000   0.00000   0.07344   0.00000
  30       12D-1        0.00000   0.16116   0.00000   0.00000   0.00000
  31       12D+2       -0.04313   0.00000   0.08958   0.00000   0.00000
  32       12D-2        0.00000   0.00000   0.00000   0.00000   0.04265
  33       13F 0       -0.04595   0.00000   0.01232   0.00000   0.00000
  34       13F+1        0.00000   0.00000   0.00000   0.06511   0.00000
  35       13F-1        0.00000   0.05110   0.00000   0.00000   0.00000
  36       13F+2        0.00162   0.00000   0.01771   0.00000   0.00000
  37       13F-2        0.00000   0.00000   0.00000   0.00000  -0.02436
  38       13F+3        0.00000   0.00000   0.00000  -0.02194   0.00000
  39       13F-3        0.00000  -0.01060   0.00000   0.00000   0.00000
  40       14F 0       -0.05564   0.00000   0.01496   0.00000   0.00000
  41       14F+1        0.00000   0.00000   0.00000  -0.00214   0.00000
  42       14F-1        0.00000  -0.15249   0.00000   0.00000   0.00000
  43       14F+2        0.01316   0.00000   0.01403   0.00000   0.00000
  44       14F-2        0.00000   0.00000   0.00000   0.00000   0.07982
  45       14F+3        0.00000   0.00000   0.00000  -0.01909   0.00000
  46       14F-3        0.00000  -0.01976   0.00000   0.00000   0.00000
  47 2   S  1S         -0.03367   0.00000   0.06206   0.00000   0.00000
  48        2S          0.13619   0.00000  -0.22340   0.00000   0.00000
  49        3S         -0.34623   0.00000   0.77308   0.00000   0.00000
  50        4S         -0.20539   0.00000   0.53511   0.00000   0.00000
  51        5S          0.70623   0.00000  -1.35121   0.00000   0.00000
  52        6S          0.18171   0.00000  -0.16622   0.00000   0.00000
  53        7PX         0.00000   0.00000   0.00000  -0.20243   0.00000
  54        7PY         0.00000  -0.32098   0.00000   0.00000   0.00000
  55        7PZ        -0.13133   0.00000  -0.09094   0.00000   0.00000
  56        8PX         0.00000   0.00000   0.00000   0.33557   0.00000
  57        8PY         0.00000   0.60350   0.00000   0.00000   0.00000
  58        8PZ         0.12759   0.00000  -0.02669   0.00000   0.00000
  59        9PX         0.00000   0.00000   0.00000   0.37520   0.00000
  60        9PY         0.00000   0.60860   0.00000   0.00000   0.00000
  61        9PZ         0.21031   0.00000   0.17556   0.00000   0.00000
  62       10PX         0.00000   0.00000   0.00000  -0.82423   0.00000
  63       10PY         0.00000  -0.86461   0.00000   0.00000   0.00000
  64       10PZ        -0.40376   0.00000  -0.02871   0.00000   0.00000
  65       11PX         0.00000   0.00000   0.00000  -0.02528   0.00000
  66       11PY         0.00000  -0.09852   0.00000   0.00000   0.00000
  67       11PZ        -0.03732   0.00000  -0.00247   0.00000   0.00000
  68       12D 0       -0.35547   0.00000   0.03587   0.00000   0.00000
  69       12D+1        0.00000   0.00000   0.00000   0.23431   0.00000
  70       12D-1        0.00000  -0.28287   0.00000   0.00000   0.00000
  71       12D+2        0.05809   0.00000   0.13689   0.00000   0.00000
  72       12D-2        0.00000   0.00000   0.00000   0.00000  -0.18281
  73       13D 0       -0.34775   0.00000  -0.01787   0.00000   0.00000
  74       13D+1        0.00000   0.00000   0.00000   0.10243   0.00000
  75       13D-1        0.00000  -0.07198   0.00000   0.00000   0.00000
  76       13D+2        0.05382   0.00000   0.04106   0.00000   0.00000
  77       13D-2        0.00000   0.00000   0.00000   0.00000  -0.14730
  78       14D 0        0.09434   0.00000  -0.01154   0.00000   0.00000
  79       14D+1        0.00000   0.00000   0.00000   0.16161   0.00000
  80       14D-1        0.00000   0.03681   0.00000   0.00000   0.00000
  81       14D+2       -0.00067   0.00000   0.01405   0.00000   0.00000
  82       14D-2        0.00000   0.00000   0.00000   0.00000  -0.02117
  83       15F 0        0.06411   0.00000   0.00853   0.00000   0.00000
  84       15F+1        0.00000   0.00000   0.00000   0.08316   0.00000
  85       15F-1        0.00000   0.00568   0.00000   0.00000   0.00000
  86       15F+2        0.00188   0.00000   0.00985   0.00000   0.00000
  87       15F-2        0.00000   0.00000   0.00000   0.00000  -0.09887
  88       15F+3        0.00000   0.00000   0.00000  -0.06264   0.00000
  89       15F-3        0.00000  -0.01471   0.00000   0.00000   0.00000
  90       16F 0        0.00489   0.00000   0.00746   0.00000   0.00000
  91       16F+1        0.00000   0.00000   0.00000  -0.08251   0.00000
  92       16F-1        0.00000   0.04083   0.00000   0.00000   0.00000
  93       16F+2        0.00042   0.00000   0.00795   0.00000   0.00000
  94       16F-2        0.00000   0.00000   0.00000   0.00000   0.01231
  95       16F+3        0.00000   0.00000   0.00000  -0.01481   0.00000
  96       16F-3        0.00000   0.01750   0.00000   0.00000   0.00000
  97 3   H  1S          0.00909   0.01713   0.14414   0.00000   0.00000
  98        2S          0.05843   0.27251  -0.10582   0.00000   0.00000
  99        3S         -0.30856  -1.38636   0.12639   0.00000   0.00000
 100        4S         -0.02104  -0.12979   0.00434   0.00000   0.00000
 101        5PX         0.00000   0.00000   0.00000  -0.00106  -0.09434
 102        5PY        -0.01840  -0.01432   0.02370   0.00000   0.00000
 103        5PZ         0.02980  -0.00481   0.06128   0.00000   0.00000
 104        6PX         0.00000   0.00000   0.00000  -0.09328  -0.20790
 105        6PY        -0.00634   0.08614  -0.01807   0.00000   0.00000
 106        6PZ         0.07385   0.15840   0.03274   0.00000   0.00000
 107        7PX         0.00000   0.00000   0.00000  -0.02159  -0.01402
 108        7PY        -0.03013  -0.25317  -0.03252   0.00000   0.00000
 109        7PZ        -0.04948  -0.10432   0.11260   0.00000   0.00000
 110        8D 0        0.01291  -0.00184   0.01324   0.00000   0.00000
 111        8D+1        0.00000   0.00000   0.00000   0.00233  -0.03493
 112        8D-1        0.01221  -0.00121   0.02083   0.00000   0.00000
 113        8D+2        0.01345  -0.00035  -0.00622   0.00000   0.00000
 114        8D-2        0.00000   0.00000   0.00000  -0.00453  -0.05049
 115        9D 0       -0.00563   0.00485   0.00075   0.00000   0.00000
 116        9D+1        0.00000   0.00000   0.00000  -0.04059   0.01217
 117        9D-1        0.01964   0.05246   0.00750   0.00000   0.00000
 118        9D+2       -0.00434  -0.02336  -0.01102   0.00000   0.00000
 119        9D-2        0.00000   0.00000   0.00000  -0.02829  -0.02395
 120 4   H  1S          0.00909  -0.01713   0.14414   0.00000   0.00000
 121        2S          0.05843  -0.27251  -0.10582   0.00000   0.00000
 122        3S         -0.30856   1.38636   0.12639   0.00000   0.00000
 123        4S         -0.02104   0.12979   0.00434   0.00000   0.00000
 124        5PX         0.00000   0.00000   0.00000  -0.00106   0.09434
 125        5PY         0.01840  -0.01432  -0.02370   0.00000   0.00000
 126        5PZ         0.02980   0.00481   0.06128   0.00000   0.00000
 127        6PX         0.00000   0.00000   0.00000  -0.09328   0.20790
 128        6PY         0.00634   0.08614   0.01807   0.00000   0.00000
 129        6PZ         0.07385  -0.15840   0.03274   0.00000   0.00000
 130        7PX         0.00000   0.00000   0.00000  -0.02159   0.01402
 131        7PY         0.03013  -0.25317   0.03252   0.00000   0.00000
 132        7PZ        -0.04948   0.10432   0.11260   0.00000   0.00000
 133        8D 0        0.01291   0.00184   0.01324   0.00000   0.00000
 134        8D+1        0.00000   0.00000   0.00000   0.00233   0.03493
 135        8D-1       -0.01221  -0.00121  -0.02083   0.00000   0.00000
 136        8D+2        0.01345   0.00035  -0.00622   0.00000   0.00000
 137        8D-2        0.00000   0.00000   0.00000   0.00453  -0.05049
 138        9D 0       -0.00563  -0.00485   0.00075   0.00000   0.00000
 139        9D+1        0.00000   0.00000   0.00000  -0.04059  -0.01217
 140        9D-1       -0.01964   0.05246  -0.00750   0.00000   0.00000
 141        9D+2       -0.00434   0.02336  -0.01102   0.00000   0.00000
 142        9D-2        0.00000   0.00000   0.00000   0.02829  -0.02395
                          26        27        28        29        30
     Eigenvalues --     0.00602   0.00487   0.00462   0.00352   0.00235
   1 1   C  1S          0.03592   0.00000   0.13120   0.00000  -0.01466
   2        2S         -0.11851   0.00000  -0.52803   0.00000   0.08018
   3        3S         -0.12226   0.00000  -0.42518   0.00000   0.04203
   4        4S          0.32787   0.00000  -0.82244   0.00000   0.94728
   5        5S          0.08529   0.00000  -0.38802   0.00000   0.29380
   6        6PX         0.00000   0.00000   0.00000   0.12428   0.00000
   7        6PY         0.00000  -0.05705   0.00000   0.00000   0.00000
   8        6PZ         0.21624   0.00000  -0.39754   0.00000   0.04176
   9        7PX         0.00000   0.00000   0.00000   0.11511   0.00000
  10        7PY         0.00000   0.08890   0.00000   0.00000   0.00000
  11        7PZ         0.27502   0.00000  -0.47515   0.00000   0.12202
  12        8PX         0.00000   0.00000   0.00000   0.44241   0.00000
  13        8PY         0.00000   0.30110   0.00000   0.00000   0.00000
  14        8PZ         0.62576   0.00000  -0.23421   0.00000  -0.08271
  15        9PX         0.00000   0.00000   0.00000   0.02239   0.00000
  16        9PY         0.00000   0.00508   0.00000   0.00000   0.00000
  17        9PZ         0.04601   0.00000  -0.09393   0.00000   0.01326
  18       10D 0        0.01659   0.00000  -0.18592   0.00000   0.06947
  19       10D+1        0.00000   0.00000   0.00000   0.32648   0.00000
  20       10D-1        0.00000   0.27458   0.00000   0.00000   0.00000
  21       10D+2        0.20163   0.00000   0.05765   0.00000  -0.16313
  22       10D-2        0.00000   0.00000   0.00000   0.00000   0.00000
  23       11D 0        0.10445   0.00000  -0.36278   0.00000   0.05370
  24       11D+1        0.00000   0.00000   0.00000   0.60353   0.00000
  25       11D-1        0.00000   0.56432   0.00000   0.00000   0.00000
  26       11D+2        0.44247   0.00000   0.06866   0.00000  -0.36649
  27       11D-2        0.00000   0.00000   0.00000   0.00000   0.00000
  28       12D 0        0.20229   0.00000   0.19738   0.00000  -0.27126
  29       12D+1        0.00000   0.00000   0.00000   0.13141   0.00000
  30       12D-1        0.00000   0.36466   0.00000   0.00000   0.00000
  31       12D+2        0.11328   0.00000   0.10408   0.00000  -0.29214
  32       12D-2        0.00000   0.00000   0.00000   0.00000   0.00000
  33       13F 0       -0.03042   0.00000  -0.06220   0.00000  -0.10324
  34       13F+1        0.00000   0.00000   0.00000  -0.01537   0.00000
  35       13F-1        0.00000  -0.06027   0.00000   0.00000   0.00000
  36       13F+2       -0.01668   0.00000  -0.02931   0.00000  -0.19661
  37       13F-2        0.00000   0.00000   0.00000   0.00000   0.00000
  38       13F+3        0.00000   0.00000   0.00000   0.05987   0.00000
  39       13F-3        0.00000   0.01153   0.00000   0.00000   0.00000
  40       14F 0       -0.10544   0.00000  -0.11658   0.00000  -0.10840
  41       14F+1        0.00000   0.00000   0.00000   0.04548   0.00000
  42       14F-1        0.00000  -0.00993   0.00000   0.00000   0.00000
  43       14F+2       -0.05798   0.00000  -0.08899   0.00000  -0.19745
  44       14F-2        0.00000   0.00000   0.00000   0.00000   0.00000
  45       14F+3        0.00000   0.00000   0.00000   0.02249   0.00000
  46       14F-3        0.00000   0.05241   0.00000   0.00000   0.00000
  47 2   S  1S          0.05074   0.00000   0.00505   0.00000   0.00618
  48        2S         -0.15919   0.00000  -0.01539   0.00000  -0.02612
  49        3S          0.69361   0.00000   0.05788   0.00000   0.11380
  50        4S          0.50367   0.00000  -0.01992   0.00000   0.16671
  51        5S         -2.01703   0.00000   0.70849   0.00000  -0.33677
  52        6S         -0.36215   0.00000   0.70172   0.00000  -0.24515
  53        7PX         0.00000   0.00000   0.00000   0.17427   0.00000
  54        7PY         0.00000  -0.06243   0.00000   0.00000   0.00000
  55        7PZ        -0.17532   0.00000  -0.00096   0.00000  -0.07968
  56        8PX         0.00000   0.00000   0.00000  -0.29175   0.00000
  57        8PY         0.00000  -0.03500   0.00000   0.00000   0.00000
  58        8PZ         0.23362   0.00000  -0.36690   0.00000  -0.02641
  59        9PX         0.00000   0.00000   0.00000  -0.34639   0.00000
  60        9PY         0.00000   0.15775   0.00000   0.00000   0.00000
  61        9PZ         0.34667   0.00000   0.02538   0.00000   0.16627
  62       10PX         0.00000   0.00000   0.00000  -0.01769   0.00000
  63       10PY         0.00000  -0.98539   0.00000   0.00000   0.00000
  64       10PZ         0.30244   0.00000  -0.99875   0.00000   0.37422
  65       11PX         0.00000   0.00000   0.00000  -0.00330   0.00000
  66       11PY         0.00000  -0.06423   0.00000   0.00000   0.00000
  67       11PZ         0.01997   0.00000  -0.10257   0.00000   0.04481
  68       12D 0       -0.18730   0.00000   0.67367   0.00000  -0.14145
  69       12D+1        0.00000   0.00000   0.00000   0.45877   0.00000
  70       12D-1        0.00000   0.46663   0.00000   0.00000   0.00000
  71       12D+2       -0.04470   0.00000  -0.04371   0.00000   0.14828
  72       12D-2        0.00000   0.00000   0.00000   0.00000   0.00000
  73       13D 0       -0.13903   0.00000   0.38666   0.00000  -0.03303
  74       13D+1        0.00000   0.00000   0.00000   0.30937   0.00000
  75       13D-1        0.00000   0.33370   0.00000   0.00000   0.00000
  76       13D+2       -0.14898   0.00000  -0.08738   0.00000   0.17846
  77       13D-2        0.00000   0.00000   0.00000   0.00000   0.00000
  78       14D 0       -0.09465   0.00000   0.29067   0.00000  -0.11798
  79       14D+1        0.00000   0.00000   0.00000   0.11157   0.00000
  80       14D-1        0.00000   0.23789   0.00000   0.00000   0.00000
  81       14D+2        0.01787   0.00000  -0.00494   0.00000   0.03883
  82       14D-2        0.00000   0.00000   0.00000   0.00000   0.00000
  83       15F 0       -0.01520   0.00000   0.15479   0.00000   0.13390
  84       15F+1        0.00000   0.00000   0.00000   0.10512   0.00000
  85       15F-1        0.00000   0.16750   0.00000   0.00000   0.00000
  86       15F+2       -0.06118   0.00000  -0.04132   0.00000   0.38057
  87       15F-2        0.00000   0.00000   0.00000   0.00000   0.00000
  88       15F+3        0.00000   0.00000   0.00000   0.01771   0.00000
  89       15F-3        0.00000  -0.01634   0.00000   0.00000   0.00000
  90       16F 0        0.03663   0.00000  -0.11079   0.00000   0.07543
  91       16F+1        0.00000   0.00000   0.00000  -0.08142   0.00000
  92       16F-1        0.00000  -0.07024   0.00000   0.00000   0.00000
  93       16F+2        0.01307   0.00000  -0.03232   0.00000   0.04819
  94       16F-2        0.00000   0.00000   0.00000   0.00000   0.00000
  95       16F+3        0.00000   0.00000   0.00000  -0.01796   0.00000
  96       16F-3        0.00000  -0.00834   0.00000   0.00000   0.00000
  97 3   H  1S         -0.10267   0.22420  -0.08984   0.00000  -0.29572
  98        2S          0.41531  -0.27088   0.05001   0.00000  -0.13273
  99        3S          0.46276  -0.72870   0.04868   0.00000  -0.14618
 100        4S          0.01142  -0.01972  -0.01697   0.00000  -0.01155
 101        5PX         0.00000   0.00000   0.00000  -0.09456   0.00000
 102        5PY        -0.03091   0.10291  -0.03028   0.00000  -0.03546
 103        5PZ        -0.05976   0.00382   0.02564   0.00000  -0.01734
 104        6PX         0.00000   0.00000   0.00000  -0.13602   0.00000
 105        6PY         0.06129   0.08233  -0.06370   0.00000  -0.00852
 106        6PZ         0.01022  -0.05515   0.03716   0.00000  -0.08243
 107        7PX         0.00000   0.00000   0.00000  -0.00808   0.00000
 108        7PY         0.02278  -0.05694  -0.09748   0.00000   0.13494
 109        7PZ         0.12454   0.03483   0.09094   0.00000  -0.13587
 110        8D 0       -0.01484  -0.02200   0.00734   0.00000   0.00142
 111        8D+1        0.00000   0.00000   0.00000  -0.01582   0.00000
 112        8D-1       -0.01808   0.01241   0.00713   0.00000  -0.02217
 113        8D+2        0.01124  -0.02988   0.02027   0.00000   0.00720
 114        8D-2        0.00000   0.00000   0.00000  -0.05144   0.00000
 115        9D 0       -0.00451  -0.02001  -0.01698   0.00000  -0.01258
 116        9D+1        0.00000   0.00000   0.00000  -0.00008   0.00000
 117        9D-1        0.01687   0.02296   0.01268   0.00000  -0.00203
 118        9D+2        0.02509  -0.03162   0.03330   0.00000  -0.01202
 119        9D-2        0.00000   0.00000   0.00000   0.01144   0.00000
 120 4   H  1S         -0.10267  -0.22420  -0.08984   0.00000  -0.29572
 121        2S          0.41531   0.27088   0.05001   0.00000  -0.13273
 122        3S          0.46276   0.72870   0.04868   0.00000  -0.14618
 123        4S          0.01142   0.01972  -0.01697   0.00000  -0.01155
 124        5PX         0.00000   0.00000   0.00000  -0.09456   0.00000
 125        5PY         0.03091   0.10291   0.03028   0.00000   0.03546
 126        5PZ        -0.05976  -0.00382   0.02564   0.00000  -0.01734
 127        6PX         0.00000   0.00000   0.00000  -0.13602   0.00000
 128        6PY        -0.06129   0.08233   0.06370   0.00000   0.00852
 129        6PZ         0.01022   0.05515   0.03716   0.00000  -0.08243
 130        7PX         0.00000   0.00000   0.00000  -0.00808   0.00000
 131        7PY        -0.02278  -0.05694   0.09748   0.00000  -0.13494
 132        7PZ         0.12454  -0.03483   0.09094   0.00000  -0.13587
 133        8D 0       -0.01484   0.02200   0.00734   0.00000   0.00142
 134        8D+1        0.00000   0.00000   0.00000  -0.01582   0.00000
 135        8D-1        0.01808   0.01241  -0.00713   0.00000   0.02217
 136        8D+2        0.01124   0.02988   0.02027   0.00000   0.00720
 137        8D-2        0.00000   0.00000   0.00000   0.05144   0.00000
 138        9D 0       -0.00451   0.02001  -0.01698   0.00000  -0.01258
 139        9D+1        0.00000   0.00000   0.00000  -0.00008   0.00000
 140        9D-1       -0.01687   0.02296  -0.01268   0.00000   0.00203
 141        9D+2        0.02509   0.03162   0.03330   0.00000  -0.01202
 142        9D-2        0.00000   0.00000   0.00000  -0.01144   0.00000
                          31        32        33        34        35
     Eigenvalues --     0.00208   0.00195   0.00193   0.00186   0.00154
   1 1   C  1S          0.00000   0.00000   0.04342   0.00000   0.00000
   2        2S          0.00000   0.00000  -0.18985   0.00000   0.00000
   3        3S          0.00000   0.00000  -0.18116   0.00000   0.00000
   4        4S          0.00000   0.00000   0.05639   0.00000   0.00000
   5        5S          0.00000   0.00000  -0.00195   0.00000   0.00000
[...]
 137        8D-2        0.00000   0.00000  -0.16771   0.00000   0.00000
 138        9D 0        0.49771   1.01848   0.00000   0.29050   1.36159
 139        9D+1        0.00000   0.00000   0.05310   0.00000   0.00000
 140        9D-1        0.23200  -0.62324   0.00000  -1.21575  -0.34916
 141        9D+2        0.25195  -0.12890   0.00000   0.45117   1.38235
 142        9D-2        0.00000   0.00000   1.09686   0.00000   0.00000
                         136       137       138       139       140
     Eigenvalues --     0.00000   0.00000   0.00000   0.00000   0.00000
   1 1   C  1S          0.00000   0.41255   0.00000  -0.07396  -0.07942
   2        2S          0.00000   2.41909   0.00000  -0.39855  -0.44710
   3        3S          0.00000  -0.10400   0.00000   0.05417   0.02042
   4        4S          0.00000  25.76177   0.00000 -17.68499  -3.26806
   5        5S          0.00000  16.82846   0.00000  -2.45050   4.80617
   6        6PX         0.00000   0.00000  -0.02021   0.00000   0.00000
   7        6PY        -0.04128   0.00000   0.00000   0.00000   0.00000
   8        6PZ         0.00000   0.05393   0.00000   0.01870   0.01109
   9        7PX         0.00000   0.00000   0.34575   0.00000   0.00000
  10        7PY         2.90024   0.00000   0.00000   0.00000   0.00000
  11        7PZ         0.00000  -2.06243   0.00000   0.27140   0.32706
  12        8PX         0.00000   0.00000  -0.10570   0.00000   0.00000
  13        8PY        16.55253   0.00000   0.00000   0.00000   0.00000
  14        8PZ         0.00000  -8.23002   0.00000   0.48331   9.19238
  15        9PX         0.00000   0.00000  -2.92210   0.00000   0.00000
  16        9PY         6.54707   0.00000   0.00000   0.00000   0.00000
  17        9PZ         0.00000  -0.78998   0.00000  -1.71203   5.77470
  18       10D 0        0.00000  -0.00111   0.00000   0.00236  -0.01261
  19       10D+1        0.00000   0.00000  -0.00063   0.00000   0.00000
  20       10D-1       -0.08531   0.00000   0.00000   0.00000   0.00000
  21       10D+2        0.00000  -0.14326   0.00000   0.00815   0.01191
  22       10D-2        0.00000   0.00000   0.00000   0.00000   0.00000
  23       11D 0        0.00000   0.12305   0.00000  -0.30656   0.23630
  24       11D+1        0.00000   0.00000  -0.28239   0.00000   0.00000
  25       11D-1       -1.75603   0.00000   0.00000   0.00000   0.00000
  26       11D+2        0.00000  -1.19828   0.00000   0.51589   0.32606
  27       11D-2        0.00000   0.00000   0.00000   0.00000   0.00000
  28       12D 0        0.00000   3.88656   0.00000   0.76527   1.86224
  29       12D+1        0.00000   0.00000  -2.73855   0.00000   0.00000
  30       12D-1       -7.33895   0.00000   0.00000   0.00000   0.00000
  31       12D+2        0.00000   0.81894   0.00000   0.96272   0.97739
  32       12D-2        0.00000   0.00000   0.00000   0.00000   0.00000
  33       13F 0        0.00000   0.09327   0.00000   0.01569  -0.00280
  34       13F+1        0.00000   0.00000   0.01533   0.00000   0.00000
  35       13F-1        0.06854   0.00000   0.00000   0.00000   0.00000
  36       13F+2        0.00000   0.13303   0.00000  -0.02508  -0.01776
  37       13F-2        0.00000   0.00000   0.00000   0.00000   0.00000
  38       13F+3        0.00000   0.00000  -0.00355   0.00000   0.00000
  39       13F-3       -0.06983   0.00000   0.00000   0.00000   0.00000
  40       14F 0        0.00000  -0.16452   0.00000  -0.61588  -0.01950
  41       14F+1        0.00000   0.00000   0.02471   0.00000   0.00000
  42       14F-1       -0.42682   0.00000   0.00000   0.00000   0.00000
  43       14F+2        0.00000   0.26979   0.00000  -0.24525  -0.10891
  44       14F-2        0.00000   0.00000   0.00000   0.00000   0.00000
  45       14F+3        0.00000   0.00000  -0.01340   0.00000   0.00000
  46       14F-3       -0.17172   0.00000   0.00000   0.00000   0.00000
  47 2   S  1S          0.00000   0.01510   0.00000   0.01348   0.00276
  48        2S          0.00000   0.19870   0.00000   0.20917   0.02086
  49        3S          0.00000   0.62978   0.00000   0.59033   0.10808
  50        4S          0.00000   0.03584   0.00000  -0.08554   0.10083
  51        5S          0.00000  -3.07860   0.00000   2.01961  -5.86406
  52        6S          0.00000 -10.03361   0.00000  -2.63459 -16.12685
  53        7PX         0.00000   0.00000   0.00367   0.00000   0.00000
  54        7PY        -0.00533   0.00000   0.00000   0.00000   0.00000
  55        7PZ         0.00000  -0.00173   0.00000  -0.04261  -0.00435
  56        8PX         0.00000   0.00000  -0.02728   0.00000   0.00000
  57        8PY        -0.06155   0.00000   0.00000   0.00000   0.00000
  58        8PZ         0.00000  -0.20277   0.00000  -1.05256   0.05200
  59        9PX         0.00000   0.00000  -0.01856   0.00000   0.00000
  60        9PY         0.03063   0.00000   0.00000   0.00000   0.00000
  61        9PZ         0.00000  -0.03736   0.00000   0.08656   0.02895
  62       10PX         0.00000   0.00000   2.29991   0.00000   0.00000
  63       10PY         4.43621   0.00000   0.00000   0.00000   0.00000
  64       10PZ         0.00000   3.98723   0.00000   0.40304   6.70444
  65       11PX         0.00000   0.00000   2.77922   0.00000   0.00000
  66       11PY        -0.56284   0.00000   0.00000   0.00000   0.00000
  67       11PZ         0.00000   2.89660   0.00000   2.75437   2.24673
  68       12D 0        0.00000  -0.33209   0.00000   0.67774  -0.30121
  69       12D+1        0.00000   0.00000   0.11843   0.00000   0.00000
  70       12D-1       -0.35560   0.00000   0.00000   0.00000   0.00000
  71       12D+2        0.00000  -0.05843   0.00000   0.02459  -0.02362
  72       12D-2        0.00000   0.00000   0.00000   0.00000   0.00000
  73       13D 0        0.00000   0.06308   0.00000  -0.04922   0.02462
  74       13D+1        0.00000   0.00000  -0.04595   0.00000   0.00000
  75       13D-1       -0.00514   0.00000   0.00000   0.00000   0.00000
  76       13D+2        0.00000   0.01672   0.00000   0.00089   0.00839
  77       13D-2        0.00000   0.00000   0.00000   0.00000   0.00000
  78       14D 0        0.00000  -1.51482   0.00000  -1.17379  -1.52611
  79       14D+1        0.00000   0.00000  -1.93922   0.00000   0.00000
  80       14D-1       -2.04657   0.00000   0.00000   0.00000   0.00000
  81       14D+2        0.00000   0.22127   0.00000   0.22055  -0.05629
  82       14D-2        0.00000   0.00000   0.00000   0.00000   0.00000
  83       15F 0        0.00000  -0.05620   0.00000  -0.03626  -0.01603
  84       15F+1        0.00000   0.00000  -0.02831   0.00000   0.00000
  85       15F-1        0.00243   0.00000   0.00000   0.00000   0.00000
  86       15F+2        0.00000   0.01223   0.00000   0.01273  -0.00901
  87       15F-2        0.00000   0.00000   0.00000   0.00000   0.00000
  88       15F+3        0.00000   0.00000   0.00460   0.00000   0.00000
  89       15F-3        0.02933   0.00000   0.00000   0.00000   0.00000
  90       16F 0        0.00000   0.38862   0.00000  -0.01217   0.13291
  91       16F+1        0.00000   0.00000   0.24110   0.00000   0.00000
  92       16F-1        0.31886   0.00000   0.00000   0.00000   0.00000
  93       16F+2        0.00000  -0.12978   0.00000  -0.11763   0.03935
  94       16F-2        0.00000   0.00000   0.00000   0.00000   0.00000
  95       16F+3        0.00000   0.00000  -0.01632   0.00000   0.00000
  96       16F-3       -0.08381   0.00000   0.00000   0.00000   0.00000
  97 3   H  1S         -0.05080   0.10145   0.00000  -0.01886  -0.01672
  98        2S          3.64964  -3.75932   0.00000   1.48900   0.91484
  99        3S         29.39767 -11.78812   0.00000   9.33982   8.11911
 100        4S          5.28406  -1.30422   0.00000   0.60925   2.12056
 101        5PX         0.00000   0.00000   0.07264   0.00000   0.00000
 102        5PY        -0.10966   0.06803   0.00000  -0.03597  -0.02807
 103        5PZ        -0.07558   0.04107   0.00000   0.00034  -0.01635
 104        6PX         0.00000   0.00000  -0.37865   0.00000   0.00000
 105        6PY         1.70543  -2.06399   0.00000   0.63186   0.41485
 106        6PZ         1.44384  -0.93093   0.00000   0.38163   0.24473
 107        7PX         0.00000   0.00000  -0.98499   0.00000   0.00000
 108        7PY         4.88304  -5.04267   0.00000   2.05677   1.66125
 109        7PZ         3.36402   2.40046   0.00000   3.71926   1.09401
 110        8D 0       -0.03397  -0.03600   0.00000  -0.01359   0.00970
 111        8D+1        0.00000   0.00000  -0.00777   0.00000   0.00000
 112        8D-1        0.05046  -0.17127   0.00000  -0.02276   0.01367
 113        8D+2       -0.12890   0.12061   0.00000   0.01477  -0.01588
 114        8D-2        0.00000   0.00000   0.07403   0.00000   0.00000
 115        9D 0        0.23900   0.50833   0.00000  -0.00442  -0.07654
 116        9D+1        0.00000   0.00000   0.03044   0.00000   0.00000
 117        9D-1        0.87675   0.00337   0.00000   0.53877   0.08419
 118        9D+2        0.15902   0.59671   0.00000  -0.16298  -0.06025
 119        9D-2        0.00000   0.00000  -0.50280   0.00000   0.00000
 120 4   H  1S          0.05080   0.10145   0.00000  -0.01886  -0.01672
 121        2S         -3.64964  -3.75932   0.00000   1.48900   0.91484
 122        3S        -29.39767 -11.78812   0.00000   9.33982   8.11911
 123        4S         -5.28406  -1.30422   0.00000   0.60925   2.12056
 124        5PX         0.00000   0.00000   0.07264   0.00000   0.00000
 125        5PY        -0.10966  -0.06803   0.00000   0.03597   0.02807
 126        5PZ         0.07558   0.04107   0.00000   0.00034  -0.01635
 127        6PX         0.00000   0.00000  -0.37865   0.00000   0.00000
 128        6PY         1.70543   2.06399   0.00000  -0.63186  -0.41485
 129        6PZ        -1.44384  -0.93093   0.00000   0.38163   0.24473
 130        7PX         0.00000   0.00000  -0.98499   0.00000   0.00000
 131        7PY         4.88304   5.04267   0.00000  -2.05677  -1.66125
 132        7PZ        -3.36402   2.40046   0.00000   3.71926   1.09401
 133        8D 0        0.03397  -0.03600   0.00000  -0.01359   0.00970
 134        8D+1        0.00000   0.00000  -0.00777   0.00000   0.00000
 135        8D-1        0.05046   0.17127   0.00000   0.02276  -0.01367
 136        8D+2        0.12890   0.12061   0.00000   0.01477  -0.01588
 137        8D-2        0.00000   0.00000  -0.07403   0.00000   0.00000
 138        9D 0       -0.23900   0.50833   0.00000  -0.00442  -0.07654
 139        9D+1        0.00000   0.00000   0.03044   0.00000   0.00000
 140        9D-1        0.87675  -0.00337   0.00000  -0.53877  -0.08419
 141        9D+2       -0.15902   0.59671   0.00000  -0.16298  -0.06025
 142        9D-2        0.00000   0.00000   0.50280   0.00000   0.00000
                         141       142
     Eigenvalues --     0.00000   0.00000
   1 1   C  1S          0.00000  -0.00323
   2        2S          0.00000  -0.00586
   3        3S          0.00000   0.04550
   4        4S          0.00000   8.25883
   5        5S          0.00000  16.19419
   6        6PX         0.00000   0.00000
   7        6PY        -0.00791   0.00000
   8        6PZ         0.00000   0.00393
   9        7PX         0.00000   0.00000
  10        7PY        -0.16641   0.00000
  11        7PZ         0.00000  -0.07197
  12        8PX         0.00000   0.00000
  13        8PY        -5.15945   0.00000
  14        8PZ         0.00000   1.12802
  15        9PX         0.00000   0.00000
  16        9PY        -5.29798   0.00000
  17        9PZ         0.00000   1.18843
  18       10D 0        0.00000   0.00896
  19       10D+1        0.00000   0.00000
  20       10D-1       -0.01500   0.00000
  21       10D+2        0.00000  -0.01251
  22       10D-2        0.00000   0.00000
  23       11D 0        0.00000  -0.08201
  24       11D+1        0.00000   0.00000
  25       11D-1        0.13054   0.00000
  26       11D+2        0.00000   0.01409
  27       11D-2        0.00000   0.00000
  28       12D 0        0.00000   0.41782
  29       12D+1        0.00000   0.00000
  30       12D-1       -0.94162   0.00000
  31       12D+2        0.00000  -0.37265
  32       12D-2        0.00000   0.00000
  33       13F 0        0.00000  -0.01209
  34       13F+1        0.00000   0.00000
  35       13F-1        0.00499   0.00000
  36       13F+2        0.00000  -0.00520
  37       13F-2        0.00000   0.00000
  38       13F+3        0.00000   0.00000
  39       13F-3        0.00366   0.00000
  40       14F 0        0.00000   0.02533
  41       14F+1        0.00000   0.00000
  42       14F-1       -0.09847   0.00000
  43       14F+2        0.00000  -0.04317
  44       14F-2        0.00000   0.00000
  45       14F+3        0.00000   0.00000
  46       14F-3       -0.01244   0.00000
  47 2   S  1S          0.00000   0.00304
  48        2S          0.00000   0.04672
  49        3S          0.00000   0.13242
  50        4S          0.00000  -0.01418
  51        5S          0.00000  -1.78141
  52        6S          0.00000  -8.78090
  53        7PX         0.00000   0.00000
  54        7PY        -0.00558   0.00000
  55        7PZ         0.00000  -0.00260
  56        8PX         0.00000   0.00000
  57        8PY        -0.04605   0.00000
  58        8PZ         0.00000  -0.04078
  59        9PX         0.00000   0.00000
  60        9PY         0.02443   0.00000
  61        9PZ         0.00000   0.01136
  62       10PX         0.00000   0.00000
  63       10PY         1.32006   0.00000
  64       10PZ         0.00000   2.32353
  65       11PX         0.00000   0.00000
  66       11PY         0.53517   0.00000
  67       11PZ         0.00000   2.31618
  68       12D 0        0.00000  -0.04789
  69       12D+1        0.00000   0.00000
  70       12D-1       -0.08440   0.00000
  71       12D+2        0.00000   0.03375
  72       12D-2        0.00000   0.00000
  73       13D 0        0.00000   0.00746
  74       13D+1        0.00000   0.00000
  75       13D-1        0.00243   0.00000
  76       13D+2        0.00000  -0.00782
  77       13D-2        0.00000   0.00000
  78       14D 0        0.00000  -0.64083
  79       14D+1        0.00000   0.00000
  80       14D-1       -0.44989   0.00000
  81       14D+2        0.00000  -0.07867
  82       14D-2        0.00000   0.00000
  83       15F 0        0.00000  -0.01546
  84       15F+1        0.00000   0.00000
  85       15F-1       -0.00062   0.00000
  86       15F+2        0.00000  -0.00604
  87       15F-2        0.00000   0.00000
  88       15F+3        0.00000   0.00000
  89       15F-3       -0.00355   0.00000
  90       16F 0        0.00000   0.06644
  91       16F+1        0.00000   0.00000
  92       16F-1        0.03765   0.00000
  93       16F+2        0.00000   0.01268
  94       16F-2        0.00000   0.00000
  95       16F+3        0.00000   0.00000
  96       16F-3        0.02167   0.00000
  97 3   H  1S         -0.01353  -0.01283
  98        2S         -0.04417   0.16297
  99        3S         -8.42202  -4.92449
 100        4S         -8.19963  -2.44793
 101        5PX         0.00000   0.00000
 102        5PY         0.02167   0.00850
 103        5PZ         0.00589   0.01589
 104        6PX         0.00000   0.00000
 105        6PY        -0.26308  -0.09663
 106        6PZ        -0.08631  -0.15498
 107        7PX         0.00000   0.00000
 108        7PY        -2.59248  -1.17880
 109        7PZ        -2.34465  -0.99180
 110        8D 0        0.00750   0.00612
 111        8D+1        0.00000   0.00000
 112        8D-1        0.01241   0.01126
 113        8D+2       -0.02602  -0.00060
 114        8D-2        0.00000   0.00000
 115        9D 0       -0.01715  -0.04258
 116        9D+1        0.00000   0.00000
 117        9D-1       -0.19111  -0.19904
 118        9D+2        0.24077   0.07458
 119        9D-2        0.00000   0.00000
 120 4   H  1S          0.01353  -0.01283
 121        2S          0.04417   0.16297
 122        3S          8.42202  -4.92449
 123        4S          8.19963  -2.44793
 124        5PX         0.00000   0.00000
 125        5PY         0.02167  -0.00850
 126        5PZ        -0.00589   0.01589
 127        6PX         0.00000   0.00000
 128        6PY        -0.26308   0.09663
 129        6PZ         0.08631  -0.15498
 130        7PX         0.00000   0.00000
 131        7PY        -2.59248   1.17880
 132        7PZ         2.34465  -0.99180
 133        8D 0       -0.00750   0.00612
 134        8D+1        0.00000   0.00000
 135        8D-1        0.01241  -0.01126
 136        8D+2        0.02602  -0.00060
 137        8D-2        0.00000   0.00000
 138        9D 0        0.01715  -0.04258
 139        9D+1        0.00000   0.00000
 140        9D-1       -0.19111   0.19904
 141        9D+2       -0.24077   0.07458
 142        9D-2        0.00000   0.00000
          Condensed to atoms (all electrons):
              1          2          3          4
     1  C    6.189106   0.271506   0.183089   0.183089
     2  S    0.271506  16.038629  -0.122208  -0.122208
     3  H    0.183089  -0.122208   0.655872  -0.163008
     4  H    0.183089  -0.122208  -0.163008   0.655872
 Mulliken atomic charges:
              1
     1  C   -0.826791
     2  S   -0.065719
     3  H    0.446255
     4  H    0.446255
 Sum of Mulliken atomic charges =   0.00000
 Mulliken charges with hydrogens summed into heavy atoms:
              1
     1  C    0.065719
     2  S   -0.065719
 Sum of Mulliken charges with hydrogens summed into heavy atoms =   0.00000
 Electronic spatial extent (au):  <R**2>=            129.0482
 Charge=              0.0000 electrons
 Dipole moment (field-independent basis, Debye):
    X=              0.0000    Y=              0.0000    Z=             -1.7353  Tot=              1.7353
 Quadrupole moment (field-independent basis, Debye-Ang):
   XX=            -19.9438   YY=            -20.5580   ZZ=            -18.9815
   XY=              0.0000   XZ=              0.0000   YZ=              0.0000
 Traceless Quadrupole moment (field-independent basis, Debye-Ang):
   XX=             -0.1161   YY=             -0.7302   ZZ=              0.8463
   XY=              0.0000   XZ=              0.0000   YZ=              0.0000
 Octapole moment (field-independent basis, Debye-Ang**2):
  XXX=              0.0000  YYY=              0.0000  ZZZ=            -27.2890  XYY=              0.0000
  XXY=              0.0000  XXZ=             -8.4175  XZZ=              0.0000  YZZ=              0.0000
  YYZ=            -12.9688  XYZ=              0.0000
 Hexadecapole moment (field-independent basis, Debye-Ang**3):
 XXXX=            -25.2076 YYYY=            -35.0745 ZZZZ=           -125.8816 XXXY=              0.0000
 XXXZ=              0.0000 YYYX=              0.0000 YYYZ=              0.0000 ZZZX=              0.0000
 ZZZY=              0.0000 XXYY=            -10.4756 XXZZ=            -25.0434 YYZZ=            -29.2583
 XXYZ=              0.0000 YYXZ=              0.0000 ZZXY=              0.0000
 N-N= 4.492755433194D+01 E-N=-1.127836581947D+03  KE= 4.368943380743D+02
 1\1\GINC-TRAPISTA\SP\RQCISD-FC\Aug-CC-pVTZ\C1H2S1\BRUNS\17-Nov-2021\0\
 \# qcisd/aug-cc-pvtz nosymm density=current output=wfn\\h2cs-wavefunct
 ion\\0,1\C,0,0.,0.,-0.555291\S,0,0.,0.,1.050374\H,0,0.,-0.92228,-1.128
 992\H,0,0.,0.92228,-1.128992\\Version=EM64L-G09RevB.01\HF=-436.5578876
 \MP2=-436.8983988\MP3=-436.9212936\MP4D=-436.9312468\MP4DQ=-436.919668
 4\MP4SDQ=-436.9230595\QCISD=-436.9234347\RMSD=5.708e-09\Dipole=0.,0.,-
 0.6827189\Quadrupole=-0.0863011,-0.5429005,0.6292016,0.,0.,0.\PG=C02V 
 [C2(C1S1),SGV(H2)]\\@

 Writing a WFN file to GAUSSIAN.wfn.


 Mondays are the potholes in the road of life.
                                -- Tom Wilson
 Job cpu time:  0 days  0 hours 21 minutes 35.4 seconds.
 File lengths (MBytes):  RWF=   5923 Int=      0 D2E=      0 Chk=      2 Scr=      1
 Normal termination of Gaussian 09 at Wed Nov 17 17:31:21 2021.
