 Entering Gaussian System, Link 0=/home/bruns/programas/chemistry/gaussian/g09/g09
 Input=GAUSSIAN.com
 Output=GAUSSIAN.log
 Initial command:
 /home/bruns/programas/chemistry/gaussian/g09/l1.exe /home/bruns/programas/chemistry/gaussian/work/Gau-22117.inp -scrdir=/home/bruns/programas/chemistry/gaussian/work/
 Entering Link 1 = /home/bruns/programas/chemistry/gaussian/g09/l1.exe PID=     22119.
  
 Copyright (c) 1988,1990,1992,1993,1995,1998,2003,2009,2010,
            Gaussian, Inc.  All Rights Reserved.
  
 This is part of the Gaussian(R) 09 program.  It is based on
 the Gaussian(R) 03 system (copyright 2003, Gaussian, Inc.),
 the Gaussian(R) 98 system (copyright 1998, Gaussian, Inc.),
 the Gaussian(R) 94 system (copyright 1995, Gaussian, Inc.),
 the Gaussian 92(TM) system (copyright 1992, Gaussian, Inc.),
 the Gaussian 90(TM) system (copyright 1990, Gaussian, Inc.),
 the Gaussian 88(TM) system (copyright 1988, Gaussian, Inc.),
 the Gaussian 86(TM) system (copyright 1986, Carnegie Mellon
 University), and the Gaussian 82(TM) system (copyright 1983,
 Carnegie Mellon University). Gaussian is a federally registered
 trademark of Gaussian, Inc.
  
 This software contains proprietary and confidential information,
 including trade secrets, belonging to Gaussian, Inc.
  
 This software is provided under written license and may be
 used, copied, transmitted, or stored only in accord with that
 written license.
  
 The following legend is applicable only to US Government
 contracts under FAR:
  
                    RESTRICTED RIGHTS LEGEND
  
 Use, reproduction and disclosure by the US Government is
 subject to restrictions as set forth in subparagraphs (a)
 and (c) of the Commercial Computer Software - Restricted
 Rights clause in FAR 52.227-19.
  
 Gaussian, Inc.
 340 Quinnipiac St., Bldg. 40, Wallingford CT 06492
  
  
 ---------------------------------------------------------------
 Warning -- This program may not be used in any manner that
 competes with the business of Gaussian, Inc. or will provide
 assistance to any competitor of Gaussian, Inc.  The licensee
 of this program is prohibited from giving any competitor of
 Gaussian, Inc. access to this program.  By using this program,
 the user acknowledges that Gaussian, Inc. is engaged in the
 business of creating and licensing software in the field of
 computational chemistry and represents and warrants to the
 licensee that it is not a competitor of Gaussian, Inc. and that
 it will not use this program in any manner prohibited above.
 ---------------------------------------------------------------
  

 Cite this work as:
 Gaussian 09, Revision B.01,
 M. J. Frisch, G. W. Trucks, H. B. Schlegel, G. E. Scuseria, 
 M. A. Robb, J. R. Cheeseman, G. Scalmani, V. Barone, B. Mennucci, 
 G. A. Petersson, H. Nakatsuji, M. Caricato, X. Li, H. P. Hratchian, 
 A. F. Izmaylov, J. Bloino, G. Zheng, J. L. Sonnenberg, M. Hada, 
 M. Ehara, K. Toyota, R. Fukuda, J. Hasegawa, M. Ishida, T. Nakajima, 
 Y. Honda, O. Kitao, H. Nakai, T. Vreven, J. A. Montgomery, Jr., 
 J. E. Peralta, F. Ogliaro, M. Bearpark, J. J. Heyd, E. Brothers, 
 K. N. Kudin, V. N. Staroverov, T. Keith, R. Kobayashi, J. Normand, 
 K. Raghavachari, A. Rendell, J. C. Burant, S. S. Iyengar, J. Tomasi, 
 M. Cossi, N. Rega, J. M. Millam, M. Klene, J. E. Knox, J. B. Cross, 
 V. Bakken, C. Adamo, J. Jaramillo, R. Gomperts, R. E. Stratmann, 
 O. Yazyev, A. J. Austin, R. Cammi, C. Pomelli, J. W. Ochterski, 
 R. L. Martin, K. Morokuma, V. G. Zakrzewski, G. A. Voth, 
 P. Salvador, J. J. Dannenberg, S. Dapprich, A. D. Daniels, 
 O. Farkas, J. B. Foresman, J. V. Ortiz, J. Cioslowski, 
 and D. J. Fox, Gaussian, Inc., Wallingford CT, 2010.
 
 ******************************************
 Gaussian 09:  EM64L-G09RevB.01 12-Aug-2010
                17-Nov-2021 
 ******************************************
 %nproc=8
 Will use up to    8 processors via shared memory.
 %mem=8GB
 -----------------------------------------------------
 # qcisd/aug-cc-pvtz nosymm density=current output=wfn
 -----------------------------------------------------
 1/30=1,38=1/1;
 2/12=2,15=1,17=6,18=5,40=1/2;
 3/5=16,6=1,7=10,11=9,16=1,25=1,30=1,71=1/1,2,3;
 4//1;
 5/5=2,38=5/2;
 8/6=4,9=120000,10=1/1,4;
 9/5=8,15=1/13;
 11/28=-7,31=1,32=3,42=3/11;
 10/5=6,13=10,31=1/2;
 6/7=2,8=2,9=2,10=2,22=-1,31=1/1;
 99/5=1,6=1100,9=1/99;
 -----------------
 h2cs-wavefunction
 -----------------
 Symbolic Z-matrix:
 Charge =  0 Multiplicity = 1
 C                     0.        0.       -0.55529 
 S                     0.        0.        1.06037 
 H                     0.       -0.92228  -1.12899 
 H                     0.        0.92228  -1.12899 
 
                          Input orientation:                          
 ---------------------------------------------------------------------
 Center     Atomic      Atomic             Coordinates (Angstroms)
 Number     Number       Type             X           Y           Z
 ---------------------------------------------------------------------
      1          6           0        0.000000    0.000000   -0.555291
      2         16           0        0.000000    0.000000    1.060374
      3          1           0        0.000000   -0.922280   -1.128992
      4          1           0        0.000000    0.922280   -1.128992
 ---------------------------------------------------------------------
                    Distance matrix (angstroms):
                    1          2          3          4
     1  C    0.000000
     2  S    1.615665   0.000000
     3  H    1.086155   2.375694   0.000000
     4  H    1.086155   2.375694   1.844560   0.000000
 Symmetry turned off by external request.
 Stoichiometry    CH2S
 Framework group  C2V[C2(CS),SGV(H2)]
 Deg. of freedom     3
 Full point group                 C2V     NOp   4
 Rotational constants (GHZ):    294.7653806     17.6287215     16.6339146
 Standard basis: Aug-CC-pVTZ (5D, 7F)
 Integral buffers will be    131072 words long.
 Raffenetti 1 integral format.
 Two-electron integral symmetry is turned off.
   142 basis functions,   240 primitive gaussians,   164 cartesian basis functions
    12 alpha electrons       12 beta electrons
       nuclear repulsion energy        44.7039820313 Hartrees.
 NAtoms=    4 NActive=    4 NUniq=    4 SFac= 1.00D+00 NAtFMM=   50 NAOKFM=F Big=F
 One-electron integrals computed using PRISM.
 NBasis=   142 RedAO= T  NBF=   142
 NBsUse=   142 1.00D-06 NBFU=   142
 Harris functional with IExCor=  205 diagonalized for initial guess.
 ExpMin= 2.53D-02 ExpMax= 3.74D+05 ExpMxC= 1.18D+03 IAcc=3 IRadAn=         0 AccDes= 0.00D+00
 HarFok:  IExCor=  205 AccDes= 0.00D+00 IRadAn=         0 IDoV= 1
 ScaDFX=  1.000000  1.000000  1.000000  1.000000
 FoFCou: FMM=F IPFlag=           0 FMFlag=      100000 FMFlg1=           0
         NFxFlg=           0 DoJE=T BraDBF=F KetDBF=T FulRan=T
         Omega=  0.000000  0.000000  1.000000  0.000000  0.000000 ICntrl=     500 IOpCl=  0
         NMat0=    1 NMatS0=    1 NMatT0=    0 NMatD0=    1 NMtDS0=    0 NMtDT0=    0
         I1Cent=           4 NGrid=           0.
 Symmetry not used in FoFCou.
 Requested convergence on RMS density matrix=1.00D-08 within 128 cycles.
 Requested convergence on MAX density matrix=1.00D-06.
 Requested convergence on             energy=1.00D-06.
 No special actions if energy rises.
 Keep R1 ints in memory in canonical form, NReq=93884347.
 SCF Done:  E(RHF) =  -436.557589484     A.U. after   11 cycles
             Convg  =    0.6199D-08             -V/T =  2.0003
 ExpMin= 2.53D-02 ExpMax= 3.74D+05 ExpMxC= 1.18D+03 IAcc=3 IRadAn=         5 AccDes= 0.00D+00
 HarFok:  IExCor=  205 AccDes= 0.00D+00 IRadAn=         5 IDoV=-2
 ScaDFX=  1.000000  1.000000  1.000000  1.000000
 Range of M.O.s used for correlation:     7   142
 NBasis=   142 NAE=    12 NBE=    12 NFC=     6 NFV=     0
 NROrb=    136 NOA=     6 NOB=     6 NVA=   130 NVB=   130

 **** Warning!!: The largest alpha MO coefficient is  0.44511330D+02

 Semi-Direct transformation.
 ModeAB=           2 MOrb=             6 LenV=    1073081967
 LASXX=      7286295 LTotXX=     7286295 LenRXX=     7286295
 LTotAB=     7445736 MaxLAS=    11040480 LenRXY=    11040480
 NonZer=    14572590 LenScr=    22628352 LnRSAI=           0
 LnScr1=           0 LExtra=           0 Total=     40955127
 MaxDsk=          -1 SrtSym=           F ITran=            4
 JobTyp=0 Pass  1:  I=   1 to   6.
 (rs|ai) integrals will be sorted in core.
 Spin components of T(2) and E(2):
     alpha-alpha T2 =       0.1683990982D-01 E2=     -0.3867675612D-01
     alpha-beta  T2 =       0.1052162563D+00 E2=     -0.2635158620D+00
     beta-beta   T2 =       0.1683990982D-01 E2=     -0.3867675612D-01
 ANorm=    0.1067190740D+01
 E2 =    -0.3408693743D+00 EUMP2 =    -0.43689845885874D+03
 R2 and R3 integrals will be kept in memory, NReq=   185320410.
 Iterations=  50 Convergence= 0.100D-07
 Iteration Nr.   1
 **********************
 DD1Dir will call FoFMem   1 times, MxPair=        42
 NAB=    21 NAA=     0 NBB=     0.
 MP4(R+Q)=  0.11663115D-01
 E3=       -0.22812272D-01        EUMP3=      -0.43692127113D+03
 E4(DQ)=    0.16434304D-02        UMP4(DQ)=   -0.43691962770D+03
 E4(SDQ)=  -0.18391604D-02        UMP4(SDQ)=  -0.43692311029D+03
 DE(Corr)= -0.35201853     E(Corr)=     -436.90960802    
 NORM(A)=   0.10738364D+01
 Iteration Nr.   2
 **********************
 DD1Dir will call FoFMem   1 times, MxPair=        42
 NAB=    21 NAA=     0 NBB=     0.
 DE(Corr)= -0.36343962     E(CORR)=     -436.92102911     Delta=-1.14D-02
 NORM(A)=   0.10812037D+01
 Iteration Nr.   3
 **********************
 DD1Dir will call FoFMem   1 times, MxPair=        42
 NAB=    21 NAA=     0 NBB=     0.
 DE(Corr)= -0.36436667     E(CORR)=     -436.92195615     Delta=-9.27D-04
 NORM(A)=   0.10836298D+01
 Iteration Nr.   4
 **********************
 DD1Dir will call FoFMem   1 times, MxPair=        42
 NAB=    21 NAA=     0 NBB=     0.
 DE(Corr)= -0.36569462     E(CORR)=     -436.92328411     Delta=-1.33D-03
 NORM(A)=   0.10846207D+01
 Iteration Nr.   5
 **********************
 DD1Dir will call FoFMem   1 times, MxPair=        42
 NAB=    21 NAA=     0 NBB=     0.
 DE(Corr)= -0.36589214     E(CORR)=     -436.92348162     Delta=-1.98D-04
 NORM(A)=   0.10849821D+01
 Iteration Nr.   6
 **********************
 DD1Dir will call FoFMem   1 times, MxPair=        42
 NAB=    21 NAA=     0 NBB=     0.
 DE(Corr)= -0.36592416     E(CORR)=     -436.92351364     Delta=-3.20D-05
 NORM(A)=   0.10849969D+01
 Iteration Nr.   7
 **********************
 DD1Dir will call FoFMem   1 times, MxPair=        42
 NAB=    21 NAA=     0 NBB=     0.
 DE(Corr)= -0.36592555     E(CORR)=     -436.92351504     Delta=-1.40D-06
 NORM(A)=   0.10850084D+01
 Iteration Nr.   8
 **********************
 DD1Dir will call FoFMem   1 times, MxPair=        42
 NAB=    21 NAA=     0 NBB=     0.
 DE(Corr)= -0.36592259     E(CORR)=     -436.92351208     Delta= 2.96D-06
 NORM(A)=   0.10850075D+01
 Iteration Nr.   9
 **********************
 DD1Dir will call FoFMem   1 times, MxPair=        42
 NAB=    21 NAA=     0 NBB=     0.
 DE(Corr)= -0.36592504     E(CORR)=     -436.92351453     Delta=-2.45D-06
 NORM(A)=   0.10850088D+01
 Iteration Nr.  10
 **********************
 DD1Dir will call FoFMem   1 times, MxPair=        42
 NAB=    21 NAA=     0 NBB=     0.
 DE(Corr)= -0.36592472     E(CORR)=     -436.92351421     Delta= 3.20D-07
 NORM(A)=   0.10850096D+01
 Iteration Nr.  11
 **********************
 DD1Dir will call FoFMem   1 times, MxPair=        42
 NAB=    21 NAA=     0 NBB=     0.
 DE(Corr)= -0.36592525     E(CORR)=     -436.92351473     Delta=-5.24D-07
 NORM(A)=   0.10850101D+01
 Iteration Nr.  12
 **********************
 DD1Dir will call FoFMem   1 times, MxPair=        42
 NAB=    21 NAA=     0 NBB=     0.
 DE(Corr)= -0.36592535     E(CORR)=     -436.92351484     Delta=-1.08D-07
 NORM(A)=   0.10850105D+01
 Iteration Nr.  13
 **********************
 DD1Dir will call FoFMem   1 times, MxPair=        42
 NAB=    21 NAA=     0 NBB=     0.
 DE(Corr)= -0.36592544     E(CORR)=     -436.92351493     Delta=-9.00D-08
 NORM(A)=   0.10850107D+01
 Iteration Nr.  14
 **********************
 DD1Dir will call FoFMem   1 times, MxPair=        42
 NAB=    21 NAA=     0 NBB=     0.
 DE(Corr)= -0.36592547     E(CORR)=     -436.92351496     Delta=-2.93D-08
 NORM(A)=   0.10850107D+01
 Iteration Nr.  15
 **********************
 DD1Dir will call FoFMem   1 times, MxPair=        42
 NAB=    21 NAA=     0 NBB=     0.
 DE(Corr)= -0.36592548     E(CORR)=     -436.92351497     Delta=-9.05D-09
 NORM(A)=   0.10850107D+01
 Iteration Nr.  16
 **********************
 DD1Dir will call FoFMem   1 times, MxPair=        42
 NAB=    21 NAA=     0 NBB=     0.
 DE(Corr)= -0.36592548     E(CORR)=     -436.92351497     Delta=-1.51D-09
 NORM(A)=   0.10850108D+01
 Dominant configurations:
 ***********************
 Spin Case        I    J    A    B          Value
   ABAB          11   11   14   14      -0.114474D+00
 Largest amplitude= 1.14D-01

 Z-AMPLITUDE ITERATIONS

 Iteration Nr.   1
 **********************
 DD1Dir will call FoFMem   1 times, MxPair=        42
 NAB=    21 NAA=     0 NBB=     0.
 DE(Z)  -0.34990904D+00          E(Z)=    -0.43690749852D+03
 NORM(A)=   0.10850094D+01
 Iteration Nr.   2
 **********************
 DD1Dir will call FoFMem   1 times, MxPair=        42
 NAB=    21 NAA=     0 NBB=     0.
 DE(Z)  -0.34990898D+00          E(Z)=    -0.43690749846D+03
 NORM(A)=   0.10850111D+01
 Iteration Nr.   3
 **********************
 DD1Dir will call FoFMem   1 times, MxPair=        42
 NAB=    21 NAA=     0 NBB=     0.
 DE(Z)  -0.34990905D+00          E(Z)=    -0.43690749854D+03
 NORM(A)=   0.10850105D+01
 Iteration Nr.   4
 **********************
 DD1Dir will call FoFMem   1 times, MxPair=        42
 NAB=    21 NAA=     0 NBB=     0.
 DE(Z)  -0.34990903D+00          E(Z)=    -0.43690749851D+03
 NORM(A)=   0.10850106D+01
 Iteration Nr.   5
 **********************
 DD1Dir will call FoFMem   1 times, MxPair=        42
 NAB=    21 NAA=     0 NBB=     0.
 DE(Z)  -0.34990903D+00          E(Z)=    -0.43690749851D+03
 NORM(A)=   0.10768155D+01
 Iteration Nr.   6
 **********************
 DD1Dir will call FoFMem   1 times, MxPair=        42
 NAB=    21 NAA=     0 NBB=     0.
 DE(Z)  -0.34951661D+00          E(Z)=    -0.43690710610D+03
 NORM(A)=   0.10768083D+01
 Iteration Nr.   7
 **********************
 DD1Dir will call FoFMem   1 times, MxPair=        42
 NAB=    21 NAA=     0 NBB=     0.
 DE(Z)  -0.34950718D+00          E(Z)=    -0.43690709667D+03
 NORM(A)=   0.10768056D+01
 Iteration Nr.   8
 **********************
 DD1Dir will call FoFMem   1 times, MxPair=        42
 NAB=    21 NAA=     0 NBB=     0.
 DE(Z)  -0.34951008D+00          E(Z)=    -0.43690709957D+03
 NORM(A)=   0.10767950D+01
 Iteration Nr.   9
 **********************
 DD1Dir will call FoFMem   1 times, MxPair=        42
 NAB=    21 NAA=     0 NBB=     0.
 DE(Z)  -0.34950810D+00          E(Z)=    -0.43690709758D+03
 NORM(A)=   0.10767898D+01
 Iteration Nr.  10
 **********************
 DD1Dir will call FoFMem   1 times, MxPair=        42
 NAB=    21 NAA=     0 NBB=     0.
 DE(Z)  -0.34950786D+00          E(Z)=    -0.43690709735D+03
 NORM(A)=   0.10767891D+01
 Iteration Nr.  11
 **********************
 DD1Dir will call FoFMem   1 times, MxPair=        42
 NAB=    21 NAA=     0 NBB=     0.
 DE(Z)  -0.34950765D+00          E(Z)=    -0.43690709713D+03
 NORM(A)=   0.10767891D+01
 Iteration Nr.  12
 **********************
 DD1Dir will call FoFMem   1 times, MxPair=        42
 NAB=    21 NAA=     0 NBB=     0.
 DE(Z)  -0.34950766D+00          E(Z)=    -0.43690709714D+03
 NORM(A)=   0.10767891D+01
 Iteration Nr.  13
 **********************
 DD1Dir will call FoFMem   1 times, MxPair=        42
 NAB=    21 NAA=     0 NBB=     0.
 DE(Z)  -0.34950766D+00          E(Z)=    -0.43690709715D+03
 NORM(A)=   0.10767891D+01
 Iteration Nr.  14
 **********************
 DD1Dir will call FoFMem   1 times, MxPair=        42
 NAB=    21 NAA=     0 NBB=     0.
 DE(Z)  -0.34950766D+00          E(Z)=    -0.43690709715D+03
 NORM(A)=   0.10767891D+01
 Discarding MO integrals.
          Differentiating once with respect to electric field.
                with respect to dipole field.
          Electric field/nuclear overlap derivatives assumed to be zero.
          Keep R1 ints in memory in canonical form, NReq=93478140.
          There are     1 degrees of freedom in the 1st order CPHF.  IDoFFX=0.
 LinEq1:  Iter=  0 NonCon=     1 RMS=2.95D-03 Max=4.36D-02
 AX will form     1 AO Fock derivatives at one time.
 LinEq1:  Iter=  1 NonCon=     1 RMS=9.86D-04 Max=1.21D-02
 LinEq1:  Iter=  2 NonCon=     1 RMS=4.76D-04 Max=1.32D-02
 LinEq1:  Iter=  3 NonCon=     1 RMS=1.60D-04 Max=2.47D-03
 LinEq1:  Iter=  4 NonCon=     1 RMS=3.99D-05 Max=5.26D-04
 LinEq1:  Iter=  5 NonCon=     1 RMS=8.74D-06 Max=9.99D-05
 LinEq1:  Iter=  6 NonCon=     1 RMS=1.55D-06 Max=2.20D-05
 LinEq1:  Iter=  7 NonCon=     1 RMS=2.01D-07 Max=2.70D-06
 LinEq1:  Iter=  8 NonCon=     1 RMS=2.32D-08 Max=2.27D-07
 LinEq1:  Iter=  9 NonCon=     1 RMS=3.70D-09 Max=3.77D-08
 LinEq1:  Iter= 10 NonCon=     1 RMS=5.17D-10 Max=5.81D-09
 LinEq1:  Iter= 11 NonCon=     0 RMS=6.33D-11 Max=6.37D-10
 Linear equations converged to 1.000D-10 1.000D-09 after    11 iterations.
 End of Minotr Frequency-dependent properties file   721 does not exist.
 End of Minotr Frequency-dependent properties file   722 does not exist.

 **********************************************************************

            Population analysis using the QCI/CC density.

 **********************************************************************

     Natural Orbital Coefficients:
                           1         2         3         4         5
     Eigenvalues --     2.00003   2.00002   2.00001   2.00000   2.00000
   1 1   C  1S          0.00000  -0.15978  -0.45343   0.85529   0.00000
   2        2S          0.00000   0.00306   0.00798  -0.01042   0.00000
   3        3S          0.00000  -0.00638  -0.01851   0.03567   0.00000
   4        4S          0.00000  -0.00359  -0.00075  -0.00333   0.00000
   5        5S          0.00000  -0.00058  -0.00157  -0.00006   0.00000
   6        6PX         0.00000   0.00000   0.00000   0.00000  -0.00135
   7        6PY        -0.00066   0.00000   0.00000   0.00000   0.00000
   8        6PZ         0.00000   0.00110   0.00170   0.00194   0.00000
   9        7PX         0.00000   0.00000   0.00000   0.00000  -0.00115
  10        7PY        -0.00139   0.00000   0.00000   0.00000   0.00000
  11        7PZ         0.00000   0.00011   0.00129  -0.00087   0.00000
  12        8PX         0.00000   0.00000   0.00000   0.00000  -0.00048
  13        8PY         0.01585   0.00000   0.00000   0.00000   0.00000
  14        8PZ         0.00000  -0.00596  -0.00154  -0.00302   0.00000
  15        9PX         0.00000   0.00000   0.00000   0.00000  -0.00001
  16        9PY         0.00134   0.00000   0.00000   0.00000   0.00000
  17        9PZ         0.00000  -0.00002  -0.00017  -0.00018   0.00000
  18       10D 0        0.00000  -0.00002   0.00000   0.00030   0.00000
  19       10D+1        0.00000   0.00000   0.00000   0.00000  -0.00020
  20       10D-1       -0.00032   0.00000   0.00000   0.00000   0.00000
  21       10D+2        0.00000   0.00010   0.00027  -0.00054   0.00000
  22       10D-2        0.00000   0.00000   0.00000   0.00000   0.00000
  23       11D 0        0.00000  -0.00083   0.00054  -0.00135   0.00000
  24       11D+1        0.00000   0.00000   0.00000   0.00000   0.00160
  25       11D-1        0.00014   0.00000   0.00000   0.00000   0.00000
  26       11D+2        0.00000  -0.00028  -0.00029   0.00019   0.00000
  27       11D-2        0.00000   0.00000   0.00000   0.00000   0.00000
  28       12D 0        0.00000  -0.00330  -0.00247  -0.00157   0.00000
  29       12D+1        0.00000   0.00000   0.00000   0.00000  -0.00106
  30       12D-1       -0.00424   0.00000   0.00000   0.00000   0.00000
  31       12D+2        0.00000  -0.00147  -0.00092  -0.00056   0.00000
  32       12D-2        0.00000   0.00000   0.00000   0.00000   0.00000
  33       13F 0        0.00000   0.00001   0.00009   0.00052   0.00000
  34       13F+1        0.00000   0.00000   0.00000   0.00000  -0.00015
  35       13F-1       -0.00036   0.00000   0.00000   0.00000   0.00000
  36       13F+2        0.00000  -0.00010  -0.00022   0.00053   0.00000
  37       13F-2        0.00000   0.00000   0.00000   0.00000   0.00000
  38       13F+3        0.00000   0.00000   0.00000   0.00000   0.00002
  39       13F-3        0.00001   0.00000   0.00000   0.00000   0.00000
  40       14F 0        0.00000   0.00077   0.00156  -0.00089   0.00000
  41       14F+1        0.00000   0.00000   0.00000   0.00000   0.00130
  42       14F-1        0.00197   0.00000   0.00000   0.00000   0.00000
  43       14F+2        0.00000   0.00067   0.00106  -0.00084   0.00000
  44       14F-2        0.00000   0.00000   0.00000   0.00000   0.00000
  45       14F+3        0.00000   0.00000   0.00000   0.00000   0.00045
  46       14F-3       -0.00017   0.00000   0.00000   0.00000   0.00000
  47 2   S  1S          0.00000  -0.20712   0.19162   0.06301   0.00000
  48        2S          0.00000   0.70744  -0.66046  -0.21675   0.00000
  49        3S          0.00000  -0.02027   0.01026   0.00297   0.00000
  50        4S          0.00000   0.04744  -0.04709  -0.01614   0.00000
  51        5S          0.00000   0.00734   0.00709   0.00839   0.00000
  52        6S          0.00000   0.00006   0.00039   0.00142   0.00000
  53        7PX         0.00000   0.00000   0.00000   0.00000   0.97149
  54        7PY         0.97717   0.00000   0.00000   0.00000   0.00000
  55        7PZ         0.00000   0.66577   0.56954   0.42423   0.00000
  56        8PX         0.00000   0.00000   0.00000   0.00000  -0.01104
  57        8PY        -0.02057   0.00000   0.00000   0.00000   0.00000
  58        8PZ         0.00000  -0.01193  -0.00781  -0.00671   0.00000
  59        9PX         0.00000   0.00000   0.00000   0.00000   0.06295
  60        9PY         0.05564   0.00000   0.00000   0.00000   0.00000
  61        9PZ         0.00000   0.04067   0.03668   0.02768   0.00000
  62       10PX         0.00000   0.00000   0.00000   0.00000   0.00191
  63       10PY        -0.00639   0.00000   0.00000   0.00000   0.00000
  64       10PZ         0.00000  -0.00716  -0.00129  -0.00386   0.00000
  65       11PX         0.00000   0.00000   0.00000   0.00000  -0.00070
  66       11PY        -0.00127   0.00000   0.00000   0.00000   0.00000
  67       11PZ         0.00000  -0.00006   0.00002  -0.00022   0.00000
  68       12D 0        0.00000   0.00216   0.00175   0.00222   0.00000
  69       12D+1        0.00000   0.00000   0.00000   0.00000   0.00218
  70       12D-1        0.00269   0.00000   0.00000   0.00000   0.00000
  71       12D+2        0.00000  -0.00053  -0.00005   0.00034   0.00000
  72       12D-2        0.00000   0.00000   0.00000   0.00000   0.00000
  73       13D 0        0.00000   0.00002  -0.00031  -0.00038   0.00000
  74       13D+1        0.00000   0.00000   0.00000   0.00000  -0.00020
  75       13D-1       -0.00054   0.00000   0.00000   0.00000   0.00000
  76       13D+2        0.00000   0.00037  -0.00029  -0.00012   0.00000
  77       13D-2        0.00000   0.00000   0.00000   0.00000   0.00000
  78       14D 0        0.00000   0.00096  -0.00028   0.00076   0.00000
  79       14D+1        0.00000   0.00000   0.00000   0.00000  -0.00066
  80       14D-1       -0.00058   0.00000   0.00000   0.00000   0.00000
  81       14D+2        0.00000   0.00035   0.00008   0.00004   0.00000
  82       14D-2        0.00000   0.00000   0.00000   0.00000   0.00000
  83       15F 0        0.00000  -0.00018  -0.00011   0.00014   0.00000
  84       15F+1        0.00000   0.00000   0.00000   0.00000  -0.00033
  85       15F-1       -0.00014   0.00000   0.00000   0.00000   0.00000
  86       15F+2        0.00000   0.00014   0.00019   0.00007   0.00000
  87       15F-2        0.00000   0.00000   0.00000   0.00000   0.00000
  88       15F+3        0.00000   0.00000   0.00000   0.00000   0.00016
  89       15F-3        0.00010   0.00000   0.00000   0.00000   0.00000
  90       16F 0        0.00000  -0.00041  -0.00027  -0.00077   0.00000
  91       16F+1        0.00000   0.00000   0.00000   0.00000  -0.00047
  92       16F-1       -0.00084   0.00000   0.00000   0.00000   0.00000
  93       16F+2        0.00000  -0.00004   0.00000  -0.00029   0.00000
  94       16F-2        0.00000   0.00000   0.00000   0.00000   0.00000
  95       16F+3        0.00000   0.00000   0.00000   0.00000  -0.00019
  96       16F-3       -0.00024   0.00000   0.00000   0.00000   0.00000
  97 3   H  1S         -0.00042  -0.00009   0.00015  -0.00121   0.00000
  98        2S          0.00045  -0.00128  -0.00117  -0.00175   0.00000
  99        3S          0.01832  -0.00345   0.00004  -0.00367   0.00000
 100        4S          0.00057   0.00007   0.00016  -0.00016   0.00000
 101        5PX         0.00000   0.00000   0.00000   0.00000  -0.00006
 102        5PY        -0.00001   0.00001   0.00008  -0.00038   0.00000
 103        5PZ         0.00012   0.00004   0.00009  -0.00017   0.00000
 104        6PX         0.00000   0.00000   0.00000   0.00000   0.00038
 105        6PY        -0.00003   0.00008   0.00029  -0.00094   0.00000
 106        6PZ        -0.00074   0.00006   0.00039  -0.00062   0.00000
 107        7PX         0.00000   0.00000   0.00000   0.00000  -0.00069
 108        7PY         0.00382   0.00044   0.00090  -0.00043   0.00000
 109        7PZ         0.00162  -0.00152  -0.00070  -0.00122   0.00000
 110        8D 0        0.00011   0.00004   0.00007   0.00009   0.00000
 111        8D+1        0.00000   0.00000   0.00000   0.00000  -0.00002
 112        8D-1        0.00000   0.00004   0.00014  -0.00030   0.00000
 113        8D+2        0.00003  -0.00004  -0.00011   0.00022   0.00000
 114        8D-2        0.00000   0.00000   0.00000   0.00000   0.00004
 115        9D 0       -0.00002   0.00007   0.00038  -0.00017   0.00000
 116        9D+1        0.00000   0.00000   0.00000   0.00000   0.00045
 117        9D-1       -0.00047  -0.00026  -0.00024  -0.00032   0.00000
 118        9D+2        0.00019  -0.00022  -0.00030   0.00030   0.00000
 119        9D-2        0.00000   0.00000   0.00000   0.00000  -0.00015
 120 4   H  1S          0.00042  -0.00009   0.00015  -0.00121   0.00000
 121        2S         -0.00045  -0.00128  -0.00117  -0.00175   0.00000
 122        3S         -0.01832  -0.00345   0.00004  -0.00367   0.00000
 123        4S         -0.00057   0.00007   0.00016  -0.00016   0.00000
 124        5PX         0.00000   0.00000   0.00000   0.00000  -0.00006
 125        5PY        -0.00001  -0.00001  -0.00008   0.00038   0.00000
 126        5PZ        -0.00012   0.00004   0.00009  -0.00017   0.00000
 127        6PX         0.00000   0.00000   0.00000   0.00000   0.00038
 128        6PY        -0.00003  -0.00008  -0.00029   0.00094   0.00000
 129        6PZ         0.00074   0.00006   0.00039  -0.00062   0.00000
 130        7PX         0.00000   0.00000   0.00000   0.00000  -0.00069
 131        7PY         0.00382  -0.00044  -0.00090   0.00043   0.00000
 132        7PZ        -0.00162  -0.00152  -0.00070  -0.00122   0.00000
 133        8D 0       -0.00011   0.00004   0.00007   0.00009   0.00000
 134        8D+1        0.00000   0.00000   0.00000   0.00000  -0.00002
 135        8D-1        0.00000  -0.00004  -0.00014   0.00030   0.00000
 136        8D+2       -0.00003  -0.00004  -0.00011   0.00022   0.00000
 137        8D-2        0.00000   0.00000   0.00000   0.00000  -0.00004
 138        9D 0        0.00002   0.00007   0.00038  -0.00017   0.00000
 139        9D+1        0.00000   0.00000   0.00000   0.00000   0.00045
 140        9D-1       -0.00047   0.00026   0.00024   0.00032   0.00000
 141        9D+2       -0.00019  -0.00022  -0.00030   0.00030   0.00000
 142        9D-2        0.00000   0.00000   0.00000   0.00000   0.00015
                           6         7         8         9        10
     Eigenvalues --     2.00000   1.97243   1.96168   1.95912   1.94155
   1 1   C  1S         -0.00024  -0.13848   0.07870   0.00000   0.06004
   2        2S         -0.00002   0.37066  -0.22030   0.00000  -0.16614
   3        3S          0.00000   0.08229  -0.05222   0.00000  -0.03860
   4        4S         -0.00020   0.24951  -0.22165   0.00000  -0.08748
   5        5S         -0.00011   0.01886   0.00524   0.00000  -0.00560
   6        6PX         0.00000   0.00000   0.00000   0.00000   0.00000
   7        6PY         0.00000   0.00000   0.00000   0.24769   0.00000
   8        6PZ         0.00001   0.01413   0.16540   0.00000  -0.18342
   9        7PX         0.00000   0.00000   0.00000   0.00000   0.00000
  10        7PY         0.00000   0.00000   0.00000   0.33923   0.00000
  11        7PZ        -0.00009   0.00526   0.21406   0.00000  -0.23357
  12        8PX         0.00000   0.00000   0.00000   0.00000   0.00000
  13        8PY         0.00000   0.00000   0.00000   0.22515   0.00000
  14        8PZ         0.00004  -0.03165   0.10248   0.00000  -0.12991
  15        9PX         0.00000   0.00000   0.00000   0.00000   0.00000
  16        9PY         0.00000   0.00000   0.00000   0.00612   0.00000
  17        9PZ        -0.00002   0.00164   0.00753   0.00000  -0.00629
  18       10D 0       -0.00001   0.00849   0.00889   0.00000  -0.01086
  19       10D+1        0.00000   0.00000   0.00000   0.00000   0.00000
  20       10D-1        0.00000   0.00000   0.00000  -0.01423   0.00000
  21       10D+2        0.00000  -0.00706   0.00992   0.00000  -0.00307
  22       10D-2        0.00000   0.00000   0.00000   0.00000   0.00000
  23       11D 0       -0.00005   0.00972   0.01563   0.00000  -0.01362
  24       11D+1        0.00000   0.00000   0.00000   0.00000   0.00000
  25       11D-1        0.00000   0.00000   0.00000  -0.03874   0.00000
  26       11D+2        0.00001  -0.01772   0.02557   0.00000  -0.00827
  27       11D-2        0.00000   0.00000   0.00000   0.00000   0.00000
  28       12D 0        0.00001  -0.01054  -0.00262   0.00000  -0.00175
  29       12D+1        0.00000   0.00000   0.00000   0.00000   0.00000
  30       12D-1        0.00000   0.00000   0.00000  -0.03719   0.00000
  31       12D+2        0.00003  -0.00422   0.00333   0.00000  -0.00397
  32       12D-2        0.00000   0.00000   0.00000   0.00000   0.00000
  33       13F 0        0.00000   0.00585   0.00136   0.00000  -0.00510
  34       13F+1        0.00000   0.00000   0.00000   0.00000   0.00000
  35       13F-1        0.00000   0.00000   0.00000   0.00561   0.00000
  36       13F+2        0.00000   0.00386  -0.00223   0.00000  -0.00028
  37       13F-2        0.00000   0.00000   0.00000   0.00000   0.00000
  38       13F+3        0.00000   0.00000   0.00000   0.00000   0.00000
  39       13F-3        0.00000   0.00000   0.00000  -0.00232   0.00000
  40       14F 0       -0.00001   0.00566  -0.00588   0.00000   0.00009
  41       14F+1        0.00000   0.00000   0.00000   0.00000   0.00000
  42       14F-1        0.00000   0.00000   0.00000   0.00328   0.00000
  43       14F+2        0.00000   0.00737  -0.00721   0.00000   0.00022
  44       14F-2        0.00000   0.00000   0.00000   0.00000   0.00000
  45       14F+3        0.00000   0.00000   0.00000   0.00000   0.00000
  46       14F-3        0.00000   0.00000   0.00000  -0.00296   0.00000
  47 2   S  1S          0.99624   0.04566   0.04848   0.00000   0.02728
  48        2S          0.01376  -0.17653  -0.18418   0.00000  -0.10594
  49        3S          0.00032   0.36357   0.39958   0.00000   0.23713
  50        4S          0.00002   0.04550   0.05480   0.00000   0.03424
  51        5S         -0.00011   0.19454   0.21232   0.00000   0.31957
  52        6S          0.00004  -0.01530  -0.02871   0.00000   0.05932
  53        7PX         0.00000   0.00000   0.00000   0.00000   0.00000
  54        7PY         0.00000   0.00000   0.00000  -0.03899   0.00000
  55        7PZ         0.00112   0.04160   0.02189   0.00000  -0.18228
  56        8PX         0.00000   0.00000   0.00000   0.00000   0.00000
  57        8PY         0.00000   0.00000   0.00000   0.08992   0.00000
  58        8PZ        -0.00015  -0.05433  -0.02946   0.00000   0.38706
  59        9PX         0.00000   0.00000   0.00000   0.00000   0.00000
  60        9PY         0.00000   0.00000   0.00000   0.03902   0.00000
  61        9PZ         0.00014  -0.02944  -0.01711   0.00000   0.17545
  62       10PX         0.00000   0.00000   0.00000   0.00000   0.00000
  63       10PY         0.00000   0.00000   0.00000   0.03091   0.00000
  64       10PZ         0.00006   0.01367   0.00665   0.00000   0.12023
  65       11PX         0.00000   0.00000   0.00000   0.00000   0.00000
  66       11PY         0.00000   0.00000   0.00000  -0.00183   0.00000
  67       11PZ         0.00000   0.00600   0.00561   0.00000  -0.00313
  68       12D 0        0.00006   0.01214   0.00108   0.00000  -0.02884
  69       12D+1        0.00000   0.00000   0.00000   0.00000   0.00000
  70       12D-1        0.00000   0.00000   0.00000  -0.02224   0.00000
  71       12D+2       -0.00001   0.00036   0.00145   0.00000  -0.00053
  72       12D-2        0.00000   0.00000   0.00000   0.00000   0.00000
  73       13D 0        0.00001   0.02226   0.01012   0.00000  -0.04667
  74       13D+1        0.00000   0.00000   0.00000   0.00000   0.00000
  75       13D-1        0.00000   0.00000   0.00000  -0.02180   0.00000
  76       13D+2        0.00001   0.00109   0.00141   0.00000  -0.00016
  77       13D-2        0.00000   0.00000   0.00000   0.00000   0.00000
  78       14D 0       -0.00004  -0.00882  -0.00480   0.00000   0.00209
  79       14D+1        0.00000   0.00000   0.00000   0.00000   0.00000
  80       14D-1        0.00000   0.00000   0.00000  -0.00220   0.00000
  81       14D+2        0.00000  -0.00120  -0.00211   0.00000  -0.00057
  82       14D-2        0.00000   0.00000   0.00000   0.00000   0.00000
  83       15F 0       -0.00002  -0.00776  -0.00499   0.00000   0.01365
  84       15F+1        0.00000   0.00000   0.00000   0.00000   0.00000
  85       15F-1        0.00000   0.00000   0.00000   0.00859   0.00000
  86       15F+2        0.00000  -0.00041  -0.00042   0.00000   0.00342
  87       15F-2        0.00000   0.00000   0.00000   0.00000   0.00000
  88       15F+3        0.00000   0.00000   0.00000   0.00000   0.00000
  89       15F-3        0.00000   0.00000   0.00000   0.00075   0.00000
  90       16F 0        0.00000   0.00348   0.00275   0.00000  -0.00440
  91       16F+1        0.00000   0.00000   0.00000   0.00000   0.00000
  92       16F-1        0.00000   0.00000   0.00000   0.00084   0.00000
  93       16F+2        0.00000  -0.00043  -0.00069   0.00000   0.00062
  94       16F-2        0.00000   0.00000   0.00000   0.00000   0.00000
  95       16F+3        0.00000   0.00000   0.00000   0.00000   0.00000
  96       16F-3        0.00000   0.00000   0.00000   0.00083   0.00000
  97 3   H  1S          0.00000   0.06788  -0.10076  -0.14034   0.03330
  98        2S          0.00001   0.05028  -0.10032  -0.15696   0.04790
  99        3S          0.00013  -0.03423   0.01621   0.07287   0.01524
 100        4S          0.00001  -0.00032   0.00313   0.00300  -0.00154
 101        5PX         0.00000   0.00000   0.00000   0.00000   0.00000
 102        5PY         0.00000   0.00538  -0.00951  -0.00803   0.00362
 103        5PZ         0.00000   0.00333  -0.00321  -0.00842  -0.00106
 104        6PX         0.00000   0.00000   0.00000   0.00000   0.00000
 105        6PY         0.00000  -0.00375  -0.00198   0.01278   0.00229
 106        6PZ         0.00000  -0.00356   0.00860  -0.00091  -0.00942
 107        7PX         0.00000   0.00000   0.00000   0.00000   0.00000
 108        7PY         0.00001  -0.01056   0.01483   0.03073  -0.00164
 109        7PZ         0.00003  -0.01368   0.00497   0.01280   0.00126
 110        8D 0        0.00000   0.00026   0.00136  -0.00134  -0.00161
 111        8D+1        0.00000   0.00000   0.00000   0.00000   0.00000
 112        8D-1        0.00000   0.00040  -0.00100  -0.00245   0.00001
 113        8D+2        0.00000  -0.00056   0.00157   0.00009  -0.00078
 114        8D-2        0.00000   0.00000   0.00000   0.00000   0.00000
 115        9D 0        0.00000  -0.00004  -0.00034  -0.00185  -0.00046
 116        9D+1        0.00000   0.00000   0.00000   0.00000   0.00000
 117        9D-1       -0.00001  -0.00381   0.00342   0.00340  -0.00062
 118        9D+2        0.00000   0.00152  -0.00068  -0.00299  -0.00022
 119        9D-2        0.00000   0.00000   0.00000   0.00000   0.00000
 120 4   H  1S          0.00000   0.06788  -0.10076   0.14034   0.03330
 121        2S          0.00001   0.05028  -0.10032   0.15696   0.04790
 122        3S          0.00013  -0.03423   0.01621  -0.07287   0.01524
 123        4S          0.00001  -0.00032   0.00313  -0.00300  -0.00154
 124        5PX         0.00000   0.00000   0.00000   0.00000   0.00000
 125        5PY         0.00000  -0.00538   0.00951  -0.00803  -0.00362
 126        5PZ         0.00000   0.00333  -0.00321   0.00842  -0.00106
 127        6PX         0.00000   0.00000   0.00000   0.00000   0.00000
 128        6PY         0.00000   0.00375   0.00198   0.01278  -0.00229
 129        6PZ         0.00000  -0.00356   0.00860   0.00091  -0.00942
 130        7PX         0.00000   0.00000   0.00000   0.00000   0.00000
 131        7PY        -0.00001   0.01056  -0.01483   0.03073   0.00164
 132        7PZ         0.00003  -0.01368   0.00497  -0.01280   0.00126
 133        8D 0        0.00000   0.00026   0.00136   0.00134  -0.00161
 134        8D+1        0.00000   0.00000   0.00000   0.00000   0.00000
 135        8D-1        0.00000  -0.00040   0.00100  -0.00245  -0.00001
 136        8D+2        0.00000  -0.00056   0.00157  -0.00009  -0.00078
 137        8D-2        0.00000   0.00000   0.00000   0.00000   0.00000
 138        9D 0        0.00000  -0.00004  -0.00034   0.00185  -0.00046
 139        9D+1        0.00000   0.00000   0.00000   0.00000   0.00000
 140        9D-1        0.00001   0.00381  -0.00342   0.00340   0.00062
 141        9D+2        0.00000   0.00152  -0.00068   0.00299  -0.00022
 142        9D-2        0.00000   0.00000   0.00000   0.00000   0.00000
                          11        12        13        14        15
     Eigenvalues --     1.94077   1.89918   0.08404   0.03696   0.02642
   1 1   C  1S          0.00000   0.00000   0.00000  -0.11158   0.00000
   2        2S          0.00000   0.00000   0.00000   0.38439   0.00000
   3        3S          0.00000   0.00000   0.00000   0.15498   0.00000
   4        4S          0.00000   0.00000   0.00000   0.15615   0.00000
   5        5S          0.00000   0.00000   0.00000   0.09692   0.00000
   6        6PX         0.00000   0.19013  -0.30158   0.00000   0.00000
   7        6PY        -0.04031   0.00000   0.00000   0.00000   0.26236
   8        6PZ         0.00000   0.00000   0.00000   0.27301   0.00000
   9        7PX         0.00000   0.26564  -0.45884   0.00000   0.00000
  10        7PY        -0.05312   0.00000   0.00000   0.00000   0.61530
  11        7PZ         0.00000   0.00000   0.00000   0.52862   0.00000
  12        8PX         0.00000   0.17864  -0.20559   0.00000   0.00000
  13        8PY        -0.00340   0.00000   0.00000   0.00000   0.17057
  14        8PZ         0.00000   0.00000   0.00000   0.48079   0.00000
  15        9PX         0.00000   0.01321  -0.00563   0.00000   0.00000
  16        9PY        -0.00202   0.00000   0.00000   0.00000  -0.00656
  17        9PZ         0.00000   0.00000   0.00000   0.03817   0.00000
  18       10D 0        0.00000   0.00000   0.00000   0.00385   0.00000
  19       10D+1        0.00000   0.01136  -0.00308   0.00000   0.00000
  20       10D-1        0.01840   0.00000   0.00000   0.00000   0.06977
  21       10D+2        0.00000   0.00000   0.00000   0.00223   0.00000
  22       10D-2        0.00000   0.00000   0.00000   0.00000   0.00000
  23       11D 0        0.00000   0.00000   0.00000   0.09529   0.00000
  24       11D+1        0.00000   0.03283  -0.03726   0.00000   0.00000
  25       11D-1        0.03582   0.00000   0.00000   0.00000   0.04497
  26       11D+2        0.00000   0.00000   0.00000   0.05649   0.00000
  27       11D-2        0.00000   0.00000   0.00000   0.00000   0.00000
  28       12D 0        0.00000   0.00000   0.00000   0.08164   0.00000
  29       12D+1        0.00000   0.01107  -0.01437   0.00000   0.00000
  30       12D-1       -0.02254   0.00000   0.00000   0.00000  -0.02003
  31       12D+2        0.00000   0.00000   0.00000   0.03428   0.00000
  32       12D-2        0.00000   0.00000   0.00000   0.00000   0.00000
  33       13F 0        0.00000   0.00000   0.00000   0.01352   0.00000
  34       13F+1        0.00000   0.00634  -0.00594   0.00000   0.00000
  35       13F-1        0.00449   0.00000   0.00000   0.00000   0.03295
  36       13F+2        0.00000   0.00000   0.00000   0.00238   0.00000
  37       13F-2        0.00000   0.00000   0.00000   0.00000   0.00000
  38       13F+3        0.00000   0.00032   0.00010   0.00000   0.00000
  39       13F-3        0.00143   0.00000   0.00000   0.00000  -0.00372
  40       14F 0        0.00000   0.00000   0.00000  -0.00578   0.00000
  41       14F+1        0.00000   0.00119  -0.01609   0.00000   0.00000
  42       14F-1        0.00094   0.00000   0.00000   0.00000   0.06775
  43       14F+2        0.00000   0.00000   0.00000  -0.03522   0.00000
  44       14F-2        0.00000   0.00000   0.00000   0.00000   0.00000
  45       14F+3        0.00000   0.00060  -0.00504   0.00000   0.00000
  46       14F-3       -0.00052   0.00000   0.00000   0.00000   0.00410
  47 2   S  1S          0.00000   0.00000   0.00000  -0.02427   0.00000
  48        2S          0.00000   0.00000   0.00000   0.07023   0.00000
  49        3S          0.00000   0.00000   0.00000  -0.24968   0.00000
  50        4S          0.00000   0.00000   0.00000   0.00117   0.00000
  51        5S          0.00000   0.00000   0.00000  -0.77629   0.00000
  52        6S          0.00000   0.00000   0.00000  -0.26442   0.00000
  53        7PX         0.00000  -0.17464  -0.20034   0.00000   0.00000
  54        7PY        -0.21560   0.00000   0.00000   0.00000   0.08421
  55        7PZ         0.00000   0.00000   0.00000  -0.19480   0.00000
  56        8PX         0.00000   0.39380   0.53027   0.00000   0.00000
  57        8PY         0.52631   0.00000   0.00000   0.00000  -0.24050
  58        8PZ         0.00000   0.00000   0.00000   0.74085   0.00000
  59        9PX         0.00000   0.15982   0.20750   0.00000   0.00000
  60        9PY         0.22282   0.00000   0.00000   0.00000  -0.12736
  61        9PZ         0.00000   0.00000   0.00000   0.21015   0.00000
  62       10PX         0.00000   0.20851   0.16197   0.00000   0.00000
  63       10PY         0.40550   0.00000   0.00000   0.00000   0.09241
  64       10PZ         0.00000   0.00000   0.00000   0.49345   0.00000
  65       11PX         0.00000   0.00447   0.00189   0.00000   0.00000
  66       11PY         0.04148   0.00000   0.00000   0.00000   0.02509
  67       11PZ         0.00000   0.00000   0.00000   0.03312   0.00000
  68       12D 0        0.00000   0.00000   0.00000   0.09902   0.00000
  69       12D+1        0.00000  -0.03657   0.03881   0.00000   0.00000
  70       12D-1        0.00255   0.00000   0.00000   0.00000  -0.28244
  71       12D+2        0.00000   0.00000   0.00000   0.08725   0.00000
  72       12D-2        0.00000   0.00000   0.00000   0.00000   0.00000
  73       13D 0        0.00000   0.00000   0.00000   0.16426   0.00000
  74       13D+1        0.00000  -0.03495   0.05167   0.00000   0.00000
  75       13D-1       -0.00036   0.00000   0.00000   0.00000  -0.24747
  76       13D+2        0.00000   0.00000   0.00000   0.05468   0.00000
  77       13D-2        0.00000   0.00000   0.00000   0.00000   0.00000
  78       14D 0        0.00000   0.00000   0.00000  -0.06708   0.00000
  79       14D+1        0.00000  -0.00379  -0.01885   0.00000   0.00000
  80       14D-1       -0.01334   0.00000   0.00000   0.00000  -0.03103
  81       14D+2        0.00000   0.00000   0.00000   0.01422   0.00000
  82       14D-2        0.00000   0.00000   0.00000   0.00000   0.00000
  83       15F 0        0.00000   0.00000   0.00000  -0.01844   0.00000
  84       15F+1        0.00000   0.01081  -0.01556   0.00000   0.00000
  85       15F-1        0.00368   0.00000   0.00000   0.00000   0.03130
  86       15F+2        0.00000   0.00000   0.00000  -0.00453   0.00000
  87       15F-2        0.00000   0.00000   0.00000   0.00000   0.00000
  88       15F+3        0.00000   0.00380   0.00230   0.00000   0.00000
  89       15F-3        0.00444   0.00000   0.00000   0.00000   0.00350
  90       16F 0        0.00000   0.00000   0.00000   0.01044   0.00000
  91       16F+1        0.00000  -0.00081   0.00502   0.00000   0.00000
  92       16F-1        0.00198   0.00000   0.00000   0.00000   0.00114
  93       16F+2        0.00000   0.00000   0.00000  -0.01211   0.00000
  94       16F-2        0.00000   0.00000   0.00000   0.00000   0.00000
  95       16F+3        0.00000   0.00242   0.00281   0.00000   0.00000
  96       16F-3        0.00333   0.00000   0.00000   0.00000   0.00207
  97 3   H  1S          0.05197   0.00000   0.00000  -0.03267   0.17835
  98        2S          0.08985   0.00000   0.00000   0.09012   0.56737
  99        3S          0.16341   0.00000   0.00000   0.26427   0.29286
 100        4S          0.01597   0.00000   0.00000   0.01210   0.01146
 101        5PX         0.00000   0.00425  -0.01017   0.00000   0.00000
 102        5PY         0.00265   0.00000   0.00000  -0.00708   0.00661
 103        5PZ         0.00048   0.00000   0.00000   0.00547  -0.01288
 104        6PX         0.00000   0.01440  -0.01683   0.00000   0.00000
 105        6PY        -0.00028   0.00000   0.00000   0.02262   0.15182
 106        6PZ        -0.00211   0.00000   0.00000   0.03799   0.02101
 107        7PX         0.00000   0.00259   0.00878   0.00000   0.00000
 108        7PY         0.01934   0.00000   0.00000   0.04161   0.07228
 109        7PZ        -0.00104   0.00000   0.00000   0.06350   0.00831
 110        8D 0       -0.00094   0.00000   0.00000   0.00255  -0.01082
 111        8D+1        0.00000   0.00138  -0.00290   0.00000   0.00000
 112        8D-1        0.00006   0.00000   0.00000   0.00256  -0.00415
 113        8D+2       -0.00056   0.00000   0.00000   0.00196  -0.00757
 114        8D-2        0.00000   0.00145  -0.00485   0.00000   0.00000
 115        9D 0       -0.00087   0.00000   0.00000   0.00191  -0.00473
 116        9D+1        0.00000   0.00030  -0.00062   0.00000   0.00000
 117        9D-1       -0.00049   0.00000   0.00000   0.01148   0.02883
 118        9D+2        0.00060   0.00000   0.00000   0.00151  -0.02320
 119        9D-2        0.00000   0.00279   0.00385   0.00000   0.00000
 120 4   H  1S         -0.05197   0.00000   0.00000  -0.03267  -0.17835
 121        2S         -0.08985   0.00000   0.00000   0.09012  -0.56737
 122        3S         -0.16341   0.00000   0.00000   0.26427  -0.29286
 123        4S         -0.01597   0.00000   0.00000   0.01210  -0.01146
 124        5PX         0.00000   0.00425  -0.01017   0.00000   0.00000
 125        5PY         0.00265   0.00000   0.00000   0.00708   0.00661
 126        5PZ        -0.00048   0.00000   0.00000   0.00547   0.01288
 127        6PX         0.00000   0.01440  -0.01683   0.00000   0.00000
 128        6PY        -0.00028   0.00000   0.00000  -0.02262   0.15182
 129        6PZ         0.00211   0.00000   0.00000   0.03799  -0.02101
 130        7PX         0.00000   0.00259   0.00878   0.00000   0.00000
 131        7PY         0.01934   0.00000   0.00000  -0.04161   0.07228
 132        7PZ         0.00104   0.00000   0.00000   0.06350  -0.00831
 133        8D 0        0.00094   0.00000   0.00000   0.00255   0.01082
 134        8D+1        0.00000   0.00138  -0.00290   0.00000   0.00000
 135        8D-1        0.00006   0.00000   0.00000  -0.00256  -0.00415
 136        8D+2        0.00056   0.00000   0.00000   0.00196   0.00757
 137        8D-2        0.00000  -0.00145   0.00485   0.00000   0.00000
 138        9D 0        0.00087   0.00000   0.00000   0.00191   0.00473
 139        9D+1        0.00000   0.00030  -0.00062   0.00000   0.00000
 140        9D-1       -0.00049   0.00000   0.00000  -0.01148   0.02883
 141        9D+2       -0.00060   0.00000   0.00000   0.00151   0.02320
 142        9D-2        0.00000  -0.00279  -0.00385   0.00000   0.00000
                          16        17        18        19        20
     Eigenvalues --     0.02024   0.01796   0.01698   0.01596   0.01328
   1 1   C  1S         -0.14783   0.00000   0.08755   0.00000   0.00000
   2        2S          0.56833   0.00000  -0.33263   0.00000   0.00000
   3        3S          0.30499   0.00000  -0.19349   0.00000   0.00000
   4        4S          0.14483   0.00000  -0.32896   0.00000   0.00000
   5        5S         -0.03179   0.00000  -0.08507   0.00000   0.00000
   6        6PX         0.00000   0.00000   0.00000   0.00000   0.08619
   7        6PY         0.00000   0.00000   0.00000   0.45431   0.00000
   8        6PZ        -0.31102   0.00000   0.02640   0.00000   0.00000
   9        7PX         0.00000   0.00000   0.00000   0.00000   0.10822
  10        7PY         0.00000   0.00000   0.00000   0.78096   0.00000
  11        7PZ        -0.55049   0.00000  -0.02739   0.00000   0.00000
  12        8PX         0.00000   0.00000   0.00000   0.00000   0.04425
  13        8PY         0.00000   0.00000   0.00000   0.55542   0.00000
  14        8PZ        -0.27389   0.00000   0.02279   0.00000   0.00000
  15        9PX         0.00000   0.00000   0.00000   0.00000  -0.01035
  16        9PY         0.00000   0.00000   0.00000   0.03105   0.00000
  17        9PZ        -0.02646   0.00000  -0.00953   0.00000   0.00000
  18       10D 0       -0.00410   0.00000   0.00538   0.00000   0.00000
  19       10D+1        0.00000   0.00000   0.00000   0.00000  -0.14652
  20       10D-1        0.00000   0.00000   0.00000  -0.08615   0.00000
  21       10D+2        0.03237   0.00000   0.03786   0.00000   0.00000
  22       10D-2        0.00000   0.04318   0.00000   0.00000   0.00000
  23       11D 0       -0.05711   0.00000   0.01877   0.00000   0.00000
  24       11D+1        0.00000   0.00000   0.00000   0.00000  -0.26551
  25       11D-1        0.00000   0.00000   0.00000  -0.33388   0.00000
  26       11D+2        0.03852   0.00000   0.10534   0.00000   0.00000
  27       11D-2        0.00000   0.08474   0.00000   0.00000   0.00000
  28       12D 0       -0.06210   0.00000  -0.02338   0.00000   0.00000
  29       12D+1        0.00000   0.00000   0.00000   0.00000  -0.04404
  30       12D-1        0.00000   0.00000   0.00000  -0.06883   0.00000
  31       12D+2       -0.04744   0.00000   0.01840   0.00000   0.00000
  32       12D-2        0.00000   0.00789   0.00000   0.00000   0.00000
  33       13F 0       -0.01606   0.00000   0.00301   0.00000   0.00000
  34       13F+1        0.00000   0.00000   0.00000   0.00000  -0.05008
  35       13F-1        0.00000   0.00000   0.00000  -0.02207   0.00000
  36       13F+2        0.01795   0.00000   0.02232   0.00000   0.00000
  37       13F-2        0.00000   0.02545   0.00000   0.00000   0.00000
  38       13F+3        0.00000   0.00000   0.00000   0.00000  -0.01080
  39       13F-3        0.00000   0.00000   0.00000  -0.01947   0.00000
  40       14F 0       -0.01146   0.00000  -0.02145   0.00000   0.00000
  41       14F+1        0.00000   0.00000   0.00000   0.00000  -0.02975
  42       14F-1        0.00000   0.00000   0.00000   0.00205   0.00000
  43       14F+2        0.02606   0.00000  -0.01073   0.00000   0.00000
  44       14F-2        0.00000   0.01988   0.00000   0.00000   0.00000
  45       14F+3        0.00000   0.00000   0.00000   0.00000  -0.00283
  46       14F-3        0.00000   0.00000   0.00000  -0.04840   0.00000
  47 2   S  1S          0.00173   0.00000   0.00488   0.00000   0.00000
  48        2S         -0.00459   0.00000  -0.04187   0.00000   0.00000
  49        3S          0.02166   0.00000   0.01207   0.00000   0.00000
  50        4S         -0.01013   0.00000   0.04107   0.00000   0.00000
  51        5S          0.39758   0.00000   0.13276   0.00000   0.00000
  52        6S          0.17400   0.00000   0.09514   0.00000   0.00000
  53        7PX         0.00000   0.00000   0.00000   0.00000   0.03383
  54        7PY         0.00000   0.00000   0.00000   0.03595   0.00000
  55        7PZ        -0.01660   0.00000   0.04905   0.00000   0.00000
  56        8PX         0.00000   0.00000   0.00000   0.00000   0.00188
  57        8PY         0.00000   0.00000   0.00000  -0.03754   0.00000
  58        8PZ        -0.11877   0.00000  -0.15888   0.00000   0.00000
  59        9PX         0.00000   0.00000   0.00000   0.00000  -0.06228
  60        9PY         0.00000   0.00000   0.00000  -0.05467   0.00000
  61        9PZ         0.03550   0.00000  -0.06007   0.00000   0.00000
  62       10PX         0.00000   0.00000   0.00000   0.00000   0.19894
  63       10PY         0.00000   0.00000   0.00000   0.04167   0.00000
  64       10PZ        -0.29687   0.00000  -0.07072   0.00000   0.00000
  65       11PX         0.00000   0.00000   0.00000   0.00000   0.02057
  66       11PY         0.00000   0.00000   0.00000   0.02977   0.00000
  67       11PZ        -0.02614   0.00000  -0.01140   0.00000   0.00000
  68       12D 0        0.03995   0.00000   0.13365   0.00000   0.00000
  69       12D+1        0.00000   0.00000   0.00000   0.00000   0.44564
  70       12D-1        0.00000   0.00000   0.00000   0.40757   0.00000
  71       12D+2        0.15080   0.00000   0.56817   0.00000   0.00000
  72       12D-2        0.00000   0.59562   0.00000   0.00000   0.00000
  73       13D 0       -0.03735   0.00000   0.06245   0.00000   0.00000
  74       13D+1        0.00000   0.00000   0.00000   0.00000   0.42933
  75       13D-1        0.00000   0.00000   0.00000   0.29446   0.00000
  76       13D+2        0.10940   0.00000   0.41098   0.00000   0.00000
  77       13D-2        0.00000   0.44184   0.00000   0.00000   0.00000
  78       14D 0        0.06324   0.00000   0.03997   0.00000   0.00000
  79       14D+1        0.00000   0.00000   0.00000   0.00000  -0.06822
  80       14D-1        0.00000   0.00000   0.00000   0.06083   0.00000
  81       14D+2        0.01565   0.00000   0.04547   0.00000   0.00000
  82       14D-2        0.00000   0.04840   0.00000   0.00000   0.00000
  83       15F 0        0.00132   0.00000   0.00351   0.00000   0.00000
  84       15F+1        0.00000   0.00000   0.00000   0.00000  -0.05988
  85       15F-1        0.00000   0.00000   0.00000   0.00413   0.00000
  86       15F+2       -0.01499   0.00000  -0.02077   0.00000   0.00000
  87       15F-2        0.00000  -0.00728   0.00000   0.00000   0.00000
  88       15F+3        0.00000   0.00000   0.00000   0.00000  -0.02176
  89       15F-3        0.00000   0.00000   0.00000  -0.00169   0.00000
  90       16F 0       -0.02825   0.00000  -0.01882   0.00000   0.00000
  91       16F+1        0.00000   0.00000   0.00000   0.00000   0.02644
  92       16F-1        0.00000   0.00000   0.00000  -0.02616   0.00000
  93       16F+2       -0.00838   0.00000  -0.02563   0.00000   0.00000
  94       16F-2        0.00000  -0.01125   0.00000   0.00000   0.00000
  95       16F+3        0.00000   0.00000   0.00000   0.00000  -0.00913
  96       16F-3        0.00000   0.00000   0.00000   0.00123   0.00000
  97 3   H  1S         -0.23745   0.00000   0.06691   0.07863   0.00000
  98        2S         -0.59904   0.00000   0.23504   0.73125   0.00000
  99        3S         -0.29273   0.00000   0.11881   0.75196   0.00000
 100        4S         -0.01184   0.00000   0.00224   0.05175   0.00000
 101        5PX         0.00000  -0.00915   0.00000   0.00000   0.02596
 102        5PY         0.01829   0.00000  -0.01062  -0.03337   0.00000
 103        5PZ        -0.00468   0.00000  -0.01184  -0.02008   0.00000
 104        6PX         0.00000  -0.01388   0.00000   0.00000   0.03828
 105        6PY        -0.05570   0.00000   0.00090   0.10470   0.00000
 106        6PZ        -0.03958   0.00000   0.01163   0.07089   0.00000
 107        7PX         0.00000  -0.00116   0.00000   0.00000  -0.00943
 108        7PY        -0.02122   0.00000   0.01955   0.12469   0.00000
 109        7PZ        -0.04486   0.00000  -0.00682   0.07991   0.00000
 110        8D 0       -0.00767   0.00000   0.00145   0.00401   0.00000
 111        8D+1        0.00000  -0.00327   0.00000   0.00000   0.00254
 112        8D-1        0.00602   0.00000  -0.00552  -0.00919   0.00000
 113        8D+2       -0.00628   0.00000   0.00586   0.01012   0.00000
 114        8D-2        0.00000  -0.00778   0.00000   0.00000   0.01645
 115        9D 0        0.00355   0.00000   0.00289  -0.00798   0.00000
 116        9D+1        0.00000   0.00206   0.00000   0.00000  -0.00185
 117        9D-1        0.00041   0.00000  -0.00052   0.00493   0.00000
 118        9D+2        0.00962   0.00000   0.00976  -0.00334   0.00000
 119        9D-2        0.00000  -0.00024   0.00000   0.00000  -0.00497
 120 4   H  1S         -0.23745   0.00000   0.06691  -0.07863   0.00000
 121        2S         -0.59904   0.00000   0.23504  -0.73125   0.00000
 122        3S         -0.29273   0.00000   0.11881  -0.75196   0.00000
 123        4S         -0.01184   0.00000   0.00224  -0.05175   0.00000
 124        5PX         0.00000   0.00915   0.00000   0.00000   0.02596
 125        5PY        -0.01829   0.00000   0.01062  -0.03337   0.00000
 126        5PZ        -0.00468   0.00000  -0.01184   0.02008   0.00000
 127        6PX         0.00000   0.01388   0.00000   0.00000   0.03828
 128        6PY         0.05570   0.00000  -0.00090   0.10470   0.00000
 129        6PZ        -0.03958   0.00000   0.01163  -0.07089   0.00000
 130        7PX         0.00000   0.00116   0.00000   0.00000  -0.00943
 131        7PY         0.02122   0.00000  -0.01955   0.12469   0.00000
 132        7PZ        -0.04486   0.00000  -0.00682  -0.07991   0.00000
 133        8D 0       -0.00767   0.00000   0.00145  -0.00401   0.00000
 134        8D+1        0.00000   0.00327   0.00000   0.00000   0.00254
 135        8D-1       -0.00602   0.00000   0.00552  -0.00919   0.00000
 136        8D+2       -0.00628   0.00000   0.00586  -0.01012   0.00000
 137        8D-2        0.00000  -0.00778   0.00000   0.00000  -0.01645
 138        9D 0        0.00355   0.00000   0.00289   0.00798   0.00000
 139        9D+1        0.00000  -0.00206   0.00000   0.00000  -0.00185
 140        9D-1       -0.00041   0.00000   0.00052   0.00493   0.00000
 141        9D+2        0.00962   0.00000   0.00976   0.00334   0.00000
 142        9D-2        0.00000  -0.00024   0.00000   0.00000   0.00497
                          21        22        23        24        25
     Eigenvalues --     0.01199   0.01025   0.00818   0.00669   0.00645
   1 1   C  1S         -0.01091   0.00000  -0.03451   0.00000   0.00000
   2        2S          0.01006   0.00000   0.12152   0.00000   0.00000
   3        3S         -0.00290   0.00000   0.11728   0.00000   0.00000
   4        4S          0.12412   0.00000  -0.09685   0.00000   0.00000
   5        5S          0.06620   0.00000  -0.03739   0.00000   0.00000
   6        6PX         0.00000   0.00000   0.00000   0.39165   0.00000
   7        6PY         0.00000   0.14483   0.00000   0.00000   0.00000
   8        6PZ         0.11611   0.00000  -0.12748   0.00000   0.00000
   9        7PX         0.00000   0.00000   0.00000   0.46082   0.00000
  10        7PY         0.00000   0.42408   0.00000   0.00000   0.00000
  11        7PZ         0.26156   0.00000  -0.11849   0.00000   0.00000
  12        8PX         0.00000   0.00000   0.00000  -0.18769   0.00000
  13        8PY         0.00000  -1.10742   0.00000   0.00000   0.00000
  14        8PZ        -0.28127   0.00000   0.36601   0.00000   0.00000
  15        9PX         0.00000   0.00000   0.00000  -0.01089   0.00000
  16        9PY         0.00000  -0.10746   0.00000   0.00000   0.00000
  17        9PZ        -0.01260   0.00000   0.00613   0.00000   0.00000
  18       10D 0       -0.18683   0.00000  -0.09187   0.00000   0.00000
  19       10D+1        0.00000   0.00000   0.00000   0.08126   0.00000
  20       10D-1        0.00000  -0.02913   0.00000   0.00000   0.00000
  21       10D+2        0.00757   0.00000  -0.15595   0.00000   0.00000
  22       10D-2        0.00000   0.00000   0.00000   0.00000   0.30656
  23       11D 0       -0.28513   0.00000  -0.22360   0.00000   0.00000
  24       11D+1        0.00000   0.00000   0.00000   0.10826   0.00000
  25       11D-1        0.00000  -0.28152   0.00000   0.00000   0.00000
  26       11D+2        0.05852   0.00000  -0.31320   0.00000   0.00000
  27       11D-2        0.00000   0.00000   0.00000   0.00000   0.45774
  28       12D 0       -0.06788   0.00000   0.16327   0.00000   0.00000
  29       12D+1        0.00000   0.00000   0.00000   0.07139   0.00000
  30       12D-1        0.00000   0.15791   0.00000   0.00000   0.00000
  31       12D+2       -0.04170   0.00000   0.09029   0.00000   0.00000
  32       12D-2        0.00000   0.00000   0.00000   0.00000   0.04117
  33       13F 0       -0.04568   0.00000   0.01263   0.00000   0.00000
  34       13F+1        0.00000   0.00000   0.00000   0.06444   0.00000
  35       13F-1        0.00000   0.05026   0.00000   0.00000   0.00000
  36       13F+2        0.00186   0.00000   0.01794   0.00000   0.00000
  37       13F-2        0.00000   0.00000   0.00000   0.00000  -0.02502
  38       13F+3        0.00000   0.00000   0.00000  -0.02225   0.00000
  39       13F-3        0.00000  -0.01049   0.00000   0.00000   0.00000
  40       14F 0       -0.05600   0.00000   0.01460   0.00000   0.00000
  41       14F+1        0.00000   0.00000   0.00000  -0.00204   0.00000
  42       14F-1        0.00000  -0.15209   0.00000   0.00000   0.00000
  43       14F+2        0.01340   0.00000   0.01345   0.00000   0.00000
  44       14F-2        0.00000   0.00000   0.00000   0.00000   0.07938
  45       14F+3        0.00000   0.00000   0.00000  -0.01939   0.00000
  46       14F-3        0.00000  -0.01947   0.00000   0.00000   0.00000
  47 2   S  1S         -0.03305   0.00000   0.06197   0.00000   0.00000
  48        2S          0.13335   0.00000  -0.22397   0.00000   0.00000
  49        3S         -0.34025   0.00000   0.77038   0.00000   0.00000
  50        4S         -0.20186   0.00000   0.53466   0.00000   0.00000
  51        5S          0.69293   0.00000  -1.34394   0.00000   0.00000
  52        6S          0.17753   0.00000  -0.16347   0.00000   0.00000
  53        7PX         0.00000   0.00000   0.00000  -0.20372   0.00000
  54        7PY         0.00000  -0.32071   0.00000   0.00000   0.00000
  55        7PZ        -0.12892   0.00000  -0.08962   0.00000   0.00000
  56        8PX         0.00000   0.00000   0.00000   0.34188   0.00000
  57        8PY         0.00000   0.59985   0.00000   0.00000   0.00000
  58        8PZ         0.12385   0.00000  -0.02635   0.00000   0.00000
  59        9PX         0.00000   0.00000   0.00000   0.37680   0.00000
  60        9PY         0.00000   0.60746   0.00000   0.00000   0.00000
  61        9PZ         0.20595   0.00000   0.17324   0.00000   0.00000
  62       10PX         0.00000   0.00000   0.00000  -0.82261   0.00000
  63       10PY         0.00000  -0.86092   0.00000   0.00000   0.00000
  64       10PZ        -0.39885   0.00000  -0.02850   0.00000   0.00000
  65       11PX         0.00000   0.00000   0.00000  -0.02664   0.00000
  66       11PY         0.00000  -0.09839   0.00000   0.00000   0.00000
  67       11PZ        -0.03709   0.00000  -0.00278   0.00000   0.00000
  68       12D 0       -0.35955   0.00000   0.03614   0.00000   0.00000
  69       12D+1        0.00000   0.00000   0.00000   0.22442   0.00000
  70       12D-1        0.00000  -0.28563   0.00000   0.00000   0.00000
  71       12D+2        0.06170   0.00000   0.13540   0.00000   0.00000
  72       12D-2        0.00000   0.00000   0.00000   0.00000  -0.17964
  73       13D 0       -0.35004   0.00000  -0.01779   0.00000   0.00000
  74       13D+1        0.00000   0.00000   0.00000   0.09839   0.00000
  75       13D-1        0.00000  -0.07580   0.00000   0.00000   0.00000
  76       13D+2        0.05623   0.00000   0.04055   0.00000   0.00000
  77       13D-2        0.00000   0.00000   0.00000   0.00000  -0.14647
  78       14D 0        0.09307   0.00000  -0.01168   0.00000   0.00000
  79       14D+1        0.00000   0.00000   0.00000   0.15987   0.00000
  80       14D-1        0.00000   0.03561   0.00000   0.00000   0.00000
  81       14D+2       -0.00049   0.00000   0.01363   0.00000   0.00000
  82       14D-2        0.00000   0.00000   0.00000   0.00000  -0.01995
  83       15F 0        0.06361   0.00000   0.00790   0.00000   0.00000
  84       15F+1        0.00000   0.00000   0.00000   0.08142   0.00000
  85       15F-1        0.00000   0.00488   0.00000   0.00000   0.00000
  86       15F+2        0.00207   0.00000   0.00976   0.00000   0.00000
  87       15F-2        0.00000   0.00000   0.00000   0.00000  -0.09738
  88       15F+3        0.00000   0.00000   0.00000  -0.06212   0.00000
  89       15F-3        0.00000  -0.01440   0.00000   0.00000   0.00000
  90       16F 0        0.00509   0.00000   0.00739   0.00000   0.00000
  91       16F+1        0.00000   0.00000   0.00000  -0.08110   0.00000
  92       16F-1        0.00000   0.04089   0.00000   0.00000   0.00000
  93       16F+2        0.00032   0.00000   0.00823   0.00000   0.00000
  94       16F-2        0.00000   0.00000   0.00000   0.00000   0.01140
  95       16F+3        0.00000   0.00000   0.00000  -0.01435   0.00000
  96       16F-3        0.00000   0.01746   0.00000   0.00000   0.00000
  97 3   H  1S          0.00983   0.01637   0.14384   0.00000   0.00000
  98        2S          0.05665   0.26414  -0.10566   0.00000   0.00000
  99        3S         -0.30564  -1.37245   0.12834   0.00000   0.00000
 100        4S         -0.02073  -0.12842   0.00442   0.00000   0.00000
 101        5PX         0.00000   0.00000   0.00000  -0.00091  -0.09439
 102        5PY        -0.01830  -0.01432   0.02363   0.00000   0.00000
 103        5PZ         0.02942  -0.00483   0.06149   0.00000   0.00000
 104        6PX         0.00000   0.00000   0.00000  -0.09276  -0.20790
 105        6PY        -0.00755   0.08269  -0.01837   0.00000   0.00000
 106        6PZ         0.07167   0.15663   0.03256   0.00000   0.00000
 107        7PX         0.00000   0.00000   0.00000  -0.02205  -0.01490
 108        7PY        -0.03047  -0.25153  -0.03265   0.00000   0.00000
 109        7PZ        -0.04947  -0.10366   0.11317   0.00000   0.00000
 110        8D 0        0.01279  -0.00169   0.01336   0.00000   0.00000
 111        8D+1        0.00000   0.00000   0.00000   0.00231  -0.03503
 112        8D-1        0.01193  -0.00123   0.02083   0.00000   0.00000
 113        8D+2        0.01352  -0.00025  -0.00615   0.00000   0.00000
 114        8D-2        0.00000   0.00000   0.00000  -0.00446  -0.05047
 115        9D 0       -0.00598   0.00506   0.00048   0.00000   0.00000
 116        9D+1        0.00000   0.00000   0.00000  -0.04045   0.01212
 117        9D-1        0.01902   0.05193   0.00740   0.00000   0.00000
 118        9D+2       -0.00400  -0.02279  -0.01088   0.00000   0.00000
 119        9D-2        0.00000   0.00000   0.00000  -0.02819  -0.02395
 120 4   H  1S          0.00983  -0.01637   0.14384   0.00000   0.00000
 121        2S          0.05665  -0.26414  -0.10566   0.00000   0.00000
 122        3S         -0.30564   1.37245   0.12834   0.00000   0.00000
 123        4S         -0.02073   0.12842   0.00442   0.00000   0.00000
 124        5PX         0.00000   0.00000   0.00000  -0.00091   0.09439
 125        5PY         0.01830  -0.01432  -0.02363   0.00000   0.00000
 126        5PZ         0.02942   0.00483   0.06149   0.00000   0.00000
 127        6PX         0.00000   0.00000   0.00000  -0.09276   0.20790
 128        6PY         0.00755   0.08269   0.01837   0.00000   0.00000
 129        6PZ         0.07167  -0.15663   0.03256   0.00000   0.00000
 130        7PX         0.00000   0.00000   0.00000  -0.02205   0.01490
 131        7PY         0.03047  -0.25153   0.03265   0.00000   0.00000
 132        7PZ        -0.04947   0.10366   0.11317   0.00000   0.00000
 133        8D 0        0.01279   0.00169   0.01336   0.00000   0.00000
 134        8D+1        0.00000   0.00000   0.00000   0.00231   0.03503
 135        8D-1       -0.01193  -0.00123  -0.02083   0.00000   0.00000
 136        8D+2        0.01352   0.00025  -0.00615   0.00000   0.00000
 137        8D-2        0.00000   0.00000   0.00000   0.00446  -0.05047
 138        9D 0       -0.00598  -0.00506   0.00048   0.00000   0.00000
 139        9D+1        0.00000   0.00000   0.00000  -0.04045  -0.01212
 140        9D-1       -0.01902   0.05193  -0.00740   0.00000   0.00000
 141        9D+2       -0.00400   0.02279  -0.01088   0.00000   0.00000
 142        9D-2        0.00000   0.00000   0.00000   0.02819  -0.02395
                          26        27        28        29        30
     Eigenvalues --     0.00601   0.00489   0.00464   0.00354   0.00234
   1 1   C  1S          0.03562   0.00000   0.13062   0.00000  -0.01415
   2        2S         -0.11810   0.00000  -0.52384   0.00000   0.07865
   3        3S         -0.12194   0.00000  -0.42124   0.00000   0.03955
   4        4S          0.32544   0.00000  -0.80039   0.00000   0.91933
   5        5S          0.08680   0.00000  -0.38207   0.00000   0.28436
   6        6PX         0.00000   0.00000   0.00000   0.12411   0.00000
   7        6PY         0.00000  -0.05941   0.00000   0.00000   0.00000
   8        6PZ         0.21694   0.00000  -0.39372   0.00000   0.03867
   9        7PX         0.00000   0.00000   0.00000   0.11510   0.00000
  10        7PY         0.00000   0.08578   0.00000   0.00000   0.00000
  11        7PZ         0.27455   0.00000  -0.47119   0.00000   0.11717
  12        8PX         0.00000   0.00000   0.00000   0.43432   0.00000
  13        8PY         0.00000   0.29369   0.00000   0.00000   0.00000
  14        8PZ         0.62362   0.00000  -0.23231   0.00000  -0.08644
  15        9PX         0.00000   0.00000   0.00000   0.02185   0.00000
  16        9PY         0.00000   0.00384   0.00000   0.00000   0.00000
  17        9PZ         0.04613   0.00000  -0.09364   0.00000   0.01216
  18       10D 0        0.01842   0.00000  -0.18668   0.00000   0.06946
  19       10D+1        0.00000   0.00000   0.00000   0.32611   0.00000
  20       10D-1        0.00000   0.27407   0.00000   0.00000   0.00000
  21       10D+2        0.20094   0.00000   0.05903   0.00000  -0.16247
  22       10D-2        0.00000   0.00000   0.00000   0.00000   0.00000
  23       11D 0        0.10756   0.00000  -0.36430   0.00000   0.05292
  24       11D+1        0.00000   0.00000   0.00000   0.60426   0.00000
  25       11D-1        0.00000   0.56606   0.00000   0.00000   0.00000
  26       11D+2        0.44063   0.00000   0.07269   0.00000  -0.36653
  27       11D-2        0.00000   0.00000   0.00000   0.00000   0.00000
  28       12D 0        0.20115   0.00000   0.20010   0.00000  -0.26914
  29       12D+1        0.00000   0.00000   0.00000   0.13051   0.00000
  30       12D-1        0.00000   0.36376   0.00000   0.00000   0.00000
  31       12D+2        0.11238   0.00000   0.10613   0.00000  -0.29020
  32       12D-2        0.00000   0.00000   0.00000   0.00000   0.00000
  33       13F 0       -0.02999   0.00000  -0.06136   0.00000  -0.10331
  34       13F+1        0.00000   0.00000   0.00000  -0.01434   0.00000
  35       13F-1        0.00000  -0.05986   0.00000   0.00000   0.00000
  36       13F+2       -0.01700   0.00000  -0.02851   0.00000  -0.19517
  37       13F-2        0.00000   0.00000   0.00000   0.00000   0.00000
  38       13F+3        0.00000   0.00000   0.00000   0.05899   0.00000
  39       13F-3        0.00000   0.01145   0.00000   0.00000   0.00000
  40       14F 0       -0.10393   0.00000  -0.11722   0.00000  -0.11012
  41       14F+1        0.00000   0.00000   0.00000   0.04666   0.00000
  42       14F-1        0.00000  -0.00793   0.00000   0.00000   0.00000
  43       14F+2       -0.05715   0.00000  -0.08783   0.00000  -0.19941
  44       14F-2        0.00000   0.00000   0.00000   0.00000   0.00000
  45       14F+3        0.00000   0.00000   0.00000   0.02251   0.00000
  46       14F-3        0.00000   0.05205   0.00000   0.00000   0.00000
  47 2   S  1S          0.05119   0.00000   0.00486   0.00000   0.00620
  48        2S         -0.16165   0.00000  -0.01710   0.00000  -0.02583
  49        3S          0.69797   0.00000   0.05159   0.00000   0.11392
  50        4S          0.50821   0.00000  -0.01902   0.00000   0.16415
  51        5S         -2.01368   0.00000   0.68821   0.00000  -0.31670
  52        6S         -0.36452   0.00000   0.69462   0.00000  -0.23174
  53        7PX         0.00000   0.00000   0.00000   0.17176   0.00000
  54        7PY         0.00000  -0.06451   0.00000   0.00000   0.00000
  55        7PZ        -0.17350   0.00000  -0.00410   0.00000  -0.07975
  56        8PX         0.00000   0.00000   0.00000  -0.28732   0.00000
  57        8PY         0.00000  -0.03185   0.00000   0.00000   0.00000
  58        8PZ         0.23103   0.00000  -0.35498   0.00000  -0.03328
  59        9PX         0.00000   0.00000   0.00000  -0.34048   0.00000
  60        9PY         0.00000   0.16225   0.00000   0.00000   0.00000
  61        9PZ         0.34274   0.00000   0.03252   0.00000   0.16722
  62       10PX         0.00000   0.00000   0.00000  -0.01897   0.00000
  63       10PY         0.00000  -0.98044   0.00000   0.00000   0.00000
  64       10PZ         0.30851   0.00000  -0.99444   0.00000   0.35544
  65       11PX         0.00000   0.00000   0.00000  -0.00224   0.00000
  66       11PY         0.00000  -0.06330   0.00000   0.00000   0.00000
  67       11PZ         0.02078   0.00000  -0.10221   0.00000   0.04285
  68       12D 0       -0.19009   0.00000   0.66788   0.00000  -0.13601
  69       12D+1        0.00000   0.00000   0.00000   0.45839   0.00000
  70       12D-1        0.00000   0.46354   0.00000   0.00000   0.00000
  71       12D+2       -0.04244   0.00000  -0.04502   0.00000   0.14482
  72       12D-2        0.00000   0.00000   0.00000   0.00000   0.00000
  73       13D 0       -0.14076   0.00000   0.38255   0.00000  -0.03131
  74       13D+1        0.00000   0.00000   0.00000   0.31008   0.00000
  75       13D-1        0.00000   0.33234   0.00000   0.00000   0.00000
  76       13D+2       -0.14787   0.00000  -0.08850   0.00000   0.17948
  77       13D-2        0.00000   0.00000   0.00000   0.00000   0.00000
  78       14D 0       -0.09691   0.00000   0.28988   0.00000  -0.11371
  79       14D+1        0.00000   0.00000   0.00000   0.11081   0.00000
  80       14D-1        0.00000   0.23544   0.00000   0.00000   0.00000
  81       14D+2        0.01853   0.00000  -0.00500   0.00000   0.03663
  82       14D-2        0.00000   0.00000   0.00000   0.00000   0.00000
  83       15F 0       -0.01583   0.00000   0.15201   0.00000   0.13508
  84       15F+1        0.00000   0.00000   0.00000   0.10540   0.00000
  85       15F-1        0.00000   0.16512   0.00000   0.00000   0.00000
  86       15F+2       -0.05990   0.00000  -0.04215   0.00000   0.37928
  87       15F-2        0.00000   0.00000   0.00000   0.00000   0.00000
  88       15F+3        0.00000   0.00000   0.00000   0.01722   0.00000
  89       15F-3        0.00000  -0.01627   0.00000   0.00000   0.00000
  90       16F 0        0.03775   0.00000  -0.11090   0.00000   0.07462
  91       16F+1        0.00000   0.00000   0.00000  -0.08160   0.00000
  92       16F-1        0.00000  -0.07013   0.00000   0.00000   0.00000
  93       16F+2        0.01275   0.00000  -0.03200   0.00000   0.04940
  94       16F-2        0.00000   0.00000   0.00000   0.00000   0.00000
  95       16F+3        0.00000   0.00000   0.00000  -0.01771   0.00000
  96       16F-3        0.00000  -0.00811   0.00000   0.00000   0.00000
  97 3   H  1S         -0.10172   0.22325  -0.08976   0.00000  -0.29597
  98        2S          0.41341  -0.27237   0.05182   0.00000  -0.13076
  99        3S          0.46098  -0.72675   0.04814   0.00000  -0.14552
 100        4S          0.01140  -0.01983  -0.01719   0.00000  -0.01163
 101        5PX         0.00000   0.00000   0.00000  -0.09398   0.00000
 102        5PY        -0.03056   0.10264  -0.03053   0.00000  -0.03591
 103        5PZ        -0.05992   0.00389   0.02558   0.00000  -0.01731
 104        6PX         0.00000   0.00000   0.00000  -0.13537   0.00000
 105        6PY         0.06133   0.08180  -0.06341   0.00000  -0.00981
 106        6PZ         0.00979  -0.05524   0.03869   0.00000  -0.08295
 107        7PX         0.00000   0.00000   0.00000  -0.00808   0.00000
 108        7PY         0.02304  -0.05702  -0.09899   0.00000   0.13368
 109        7PZ         0.12428   0.03570   0.09273   0.00000  -0.13596
 110        8D 0       -0.01495  -0.02185   0.00753   0.00000   0.00152
 111        8D+1        0.00000   0.00000   0.00000  -0.01569   0.00000
 112        8D-1       -0.01816   0.01248   0.00719   0.00000  -0.02230
 113        8D+2        0.01109  -0.02987   0.02042   0.00000   0.00734
 114        8D-2        0.00000   0.00000   0.00000  -0.05125   0.00000
 115        9D 0       -0.00429  -0.01940  -0.01734   0.00000  -0.01304
 116        9D+1        0.00000   0.00000   0.00000   0.00004   0.00000
 117        9D-1        0.01659   0.02285   0.01339   0.00000  -0.00190
 118        9D+2        0.02501  -0.03180   0.03341   0.00000  -0.01165
 119        9D-2        0.00000   0.00000   0.00000   0.01110   0.00000
 120 4   H  1S         -0.10172  -0.22325  -0.08976   0.00000  -0.29597
 121        2S          0.41341   0.27237   0.05182   0.00000  -0.13076
 122        3S          0.46098   0.72675   0.04814   0.00000  -0.14552
 123        4S          0.01140   0.01983  -0.01719   0.00000  -0.01163
 124        5PX         0.00000   0.00000   0.00000  -0.09398   0.00000
 125        5PY         0.03056   0.10264   0.03053   0.00000   0.03591
 126        5PZ        -0.05992  -0.00389   0.02558   0.00000  -0.01731
 127        6PX         0.00000   0.00000   0.00000  -0.13537   0.00000
 128        6PY        -0.06133   0.08180   0.06341   0.00000   0.00981
 129        6PZ         0.00979   0.05524   0.03869   0.00000  -0.08295
 130        7PX         0.00000   0.00000   0.00000  -0.00808   0.00000
 131        7PY        -0.02304  -0.05702   0.09899   0.00000  -0.13368
 132        7PZ         0.12428  -0.03570   0.09273   0.00000  -0.13596
 133        8D 0       -0.01495   0.02185   0.00753   0.00000   0.00152
 134        8D+1        0.00000   0.00000   0.00000  -0.01569   0.00000
 135        8D-1        0.01816   0.01248  -0.00719   0.00000   0.02230
 136        8D+2        0.01109   0.02987   0.02042   0.00000   0.00734
 137        8D-2        0.00000   0.00000   0.00000   0.05125   0.00000
 138        9D 0       -0.00429   0.01940  -0.01734   0.00000  -0.01304
 139        9D+1        0.00000   0.00000   0.00000   0.00004   0.00000
 140        9D-1       -0.01659   0.02285  -0.01339   0.00000   0.00190
 141        9D+2        0.02501   0.03180   0.03341   0.00000  -0.01165
 142        9D-2        0.00000   0.00000   0.00000  -0.01110   0.00000
                          31        32        33        34        35
[...]
 137        8D-2        0.00000   0.00000  -0.16885   0.00000   0.00000
 138        9D 0        1.03193   0.50809   0.00000   0.29778   1.36470
 139        9D+1        0.00000   0.00000   0.05724   0.00000   0.00000
 140        9D-1       -0.61750   0.23818   0.00000  -1.21494  -0.36071
 141        9D+2       -0.11731   0.25401   0.00000   0.45279   1.39229
 142        9D-2        0.00000   0.00000   1.10308   0.00000   0.00000
                         136       137       138       139       140
     Eigenvalues --     0.00000   0.00000   0.00000   0.00000   0.00000
   1 1   C  1S          0.00000   0.41795   0.00000  -0.07395  -0.07856
   2        2S          0.00000   2.45055   0.00000  -0.39877  -0.44193
   3        3S          0.00000  -0.10171   0.00000   0.05437   0.02096
   4        4S          0.00000  25.55307   0.00000 -17.73552  -3.44293
   5        5S          0.00000  16.71215   0.00000  -2.46111   4.70802
   6        6PX         0.00000   0.00000  -0.02078   0.00000   0.00000
   7        6PY        -0.04141   0.00000   0.00000   0.00000   0.00000
   8        6PZ         0.00000   0.05441   0.00000   0.01796   0.01112
   9        7PX         0.00000   0.00000   0.35615   0.00000   0.00000
  10        7PY         2.92124   0.00000   0.00000   0.00000   0.00000
  11        7PZ         0.00000  -2.07943   0.00000   0.28893   0.32605
  12        8PX         0.00000   0.00000   0.00643   0.00000   0.00000
  13        8PY        16.86666   0.00000   0.00000   0.00000   0.00000
  14        8PZ         0.00000  -8.27035   0.00000   0.43310   9.10841
  15        9PX         0.00000   0.00000  -2.90392   0.00000   0.00000
  16        9PY         6.51919   0.00000   0.00000   0.00000   0.00000
  17        9PZ         0.00000  -0.79420   0.00000  -1.74214   5.75193
  18       10D 0        0.00000   0.00069   0.00000   0.00306  -0.01205
  19       10D+1        0.00000   0.00000  -0.00038   0.00000   0.00000
  20       10D-1       -0.08459   0.00000   0.00000   0.00000   0.00000
  21       10D+2        0.00000  -0.14592   0.00000   0.00875   0.01163
  22       10D-2        0.00000   0.00000   0.00000   0.00000   0.00000
  23       11D 0        0.00000   0.10284   0.00000  -0.29584   0.23284
  24       11D+1        0.00000   0.00000  -0.28512   0.00000   0.00000
  25       11D-1       -1.77520   0.00000   0.00000   0.00000   0.00000
  26       11D+2        0.00000  -1.19329   0.00000   0.52463   0.32972
  27       11D-2        0.00000   0.00000   0.00000   0.00000   0.00000
  28       12D 0        0.00000   3.87789   0.00000   0.82462   1.84715
  29       12D+1        0.00000   0.00000  -2.65806   0.00000   0.00000
  30       12D-1       -7.07462   0.00000   0.00000   0.00000   0.00000
  31       12D+2        0.00000   0.82952   0.00000   0.98821   0.97232
  32       12D-2        0.00000   0.00000   0.00000   0.00000   0.00000
  33       13F 0        0.00000   0.09512   0.00000   0.01588  -0.00255
  34       13F+1        0.00000   0.00000   0.01524   0.00000   0.00000
  35       13F-1        0.06606   0.00000   0.00000   0.00000   0.00000
  36       13F+2        0.00000   0.13413   0.00000  -0.02674  -0.01794
  37       13F-2        0.00000   0.00000   0.00000   0.00000   0.00000
  38       13F+3        0.00000   0.00000  -0.00481   0.00000   0.00000
  39       13F-3       -0.06972   0.00000   0.00000   0.00000   0.00000
  40       14F 0        0.00000  -0.18031   0.00000  -0.62136  -0.02363
  41       14F+1        0.00000   0.00000   0.02560   0.00000   0.00000
  42       14F-1       -0.36083   0.00000   0.00000   0.00000   0.00000
  43       14F+2        0.00000   0.26023   0.00000  -0.24372  -0.11033
  44       14F-2        0.00000   0.00000   0.00000   0.00000   0.00000
  45       14F+3        0.00000   0.00000  -0.01837   0.00000   0.00000
  46       14F-3       -0.16556   0.00000   0.00000   0.00000   0.00000
  47 2   S  1S          0.00000   0.01508   0.00000   0.01319   0.00273
  48        2S          0.00000   0.19900   0.00000   0.20501   0.02021
  49        3S          0.00000   0.62909   0.00000   0.57769   0.10697
  50        4S          0.00000   0.03051   0.00000  -0.08687   0.10212
  51        5S          0.00000  -2.91713   0.00000   1.97513  -5.67254
  52        6S          0.00000  -9.83058   0.00000  -2.54291 -16.02427
  53        7PX         0.00000   0.00000   0.00380   0.00000   0.00000
  54        7PY        -0.00623   0.00000   0.00000   0.00000   0.00000
  55        7PZ         0.00000  -0.00311   0.00000  -0.04209  -0.00479
  56        8PX         0.00000   0.00000  -0.02318   0.00000   0.00000
  57        8PY        -0.08433   0.00000   0.00000   0.00000   0.00000
  58        8PZ         0.00000  -0.23492   0.00000  -1.04138   0.03953
  59        9PX         0.00000   0.00000  -0.01898   0.00000   0.00000
  60        9PY         0.03194   0.00000   0.00000   0.00000   0.00000
  61        9PZ         0.00000  -0.03345   0.00000   0.08579   0.02907
  62       10PX         0.00000   0.00000   2.17413   0.00000   0.00000
  63       10PY         4.10741   0.00000   0.00000   0.00000   0.00000
  64       10PZ         0.00000   3.85145   0.00000   0.37531   6.63995
  65       11PX         0.00000   0.00000   2.74482   0.00000   0.00000
  66       11PY        -0.57477   0.00000   0.00000   0.00000   0.00000
  67       11PZ         0.00000   2.86199   0.00000   2.73073   2.27323
  68       12D 0        0.00000  -0.30953   0.00000   0.68000  -0.29768
  69       12D+1        0.00000   0.00000   0.12321   0.00000   0.00000
  70       12D-1       -0.30541   0.00000   0.00000   0.00000   0.00000
  71       12D+2        0.00000  -0.05695   0.00000   0.02163  -0.02307
  72       12D-2        0.00000   0.00000   0.00000   0.00000   0.00000
  73       13D 0        0.00000   0.06385   0.00000  -0.05053   0.02448
  74       13D+1        0.00000   0.00000  -0.04633   0.00000   0.00000
  75       13D-1       -0.00739   0.00000   0.00000   0.00000   0.00000
  76       13D+2        0.00000   0.01653   0.00000   0.00130   0.00829
  77       13D-2        0.00000   0.00000   0.00000   0.00000   0.00000
  78       14D 0        0.00000  -1.47750   0.00000  -1.16439  -1.53417
  79       14D+1        0.00000   0.00000  -1.87523   0.00000   0.00000
  80       14D-1       -1.90944   0.00000   0.00000   0.00000   0.00000
  81       14D+2        0.00000   0.21136   0.00000   0.22023  -0.05477
  82       14D-2        0.00000   0.00000   0.00000   0.00000   0.00000
  83       15F 0        0.00000  -0.05838   0.00000  -0.03523  -0.01645
  84       15F+1        0.00000   0.00000  -0.02621   0.00000   0.00000
  85       15F-1        0.00418   0.00000   0.00000   0.00000   0.00000
  86       15F+2        0.00000   0.01152   0.00000   0.01327  -0.00911
  87       15F-2        0.00000   0.00000   0.00000   0.00000   0.00000
  88       15F+3        0.00000   0.00000   0.00445   0.00000   0.00000
  89       15F-3        0.02821   0.00000   0.00000   0.00000   0.00000
  90       16F 0        0.00000   0.38399   0.00000  -0.01348   0.13677
  91       16F+1        0.00000   0.00000   0.23005   0.00000   0.00000
  92       16F-1        0.28746   0.00000   0.00000   0.00000   0.00000
  93       16F+2        0.00000  -0.12667   0.00000  -0.11749   0.03896
  94       16F-2        0.00000   0.00000   0.00000   0.00000   0.00000
  95       16F+3        0.00000   0.00000  -0.01543   0.00000   0.00000
  96       16F-3       -0.08091   0.00000   0.00000   0.00000   0.00000
  97 3   H  1S         -0.05079   0.10138   0.00000  -0.01929  -0.01665
  98        2S          3.68698  -3.73591   0.00000   1.50488   0.92229
  99        3S         29.56251 -11.83147   0.00000   9.34215   8.10468
 100        4S          5.26521  -1.31162   0.00000   0.59313   2.12681
 101        5PX         0.00000   0.00000   0.07594   0.00000   0.00000
 102        5PY        -0.11358   0.06780   0.00000  -0.03485  -0.02792
 103        5PZ        -0.07425   0.04146   0.00000   0.00047  -0.01672
 104        6PX         0.00000   0.00000  -0.39527   0.00000   0.00000
 105        6PY         1.75565  -2.07010   0.00000   0.63297   0.41540
 106        6PZ         1.41769  -0.94052   0.00000   0.38971   0.24720
 107        7PX         0.00000   0.00000  -0.96109   0.00000   0.00000
 108        7PY         5.04446  -5.05821   0.00000   2.03072   1.66234
 109        7PZ         3.44079   2.36273   0.00000   3.77327   1.09475
 110        8D 0       -0.03317  -0.03495   0.00000  -0.01430   0.00970
 111        8D+1        0.00000   0.00000  -0.00619   0.00000   0.00000
 112        8D-1        0.05143  -0.17242   0.00000  -0.02228   0.01356
 113        8D+2       -0.12474   0.12184   0.00000   0.01415  -0.01565
 114        8D-2        0.00000   0.00000   0.07395   0.00000   0.00000
 115        9D 0        0.21088   0.49808   0.00000   0.00003  -0.07613
 116        9D+1        0.00000   0.00000   0.01978   0.00000   0.00000
 117        9D-1        0.86867  -0.00621   0.00000   0.54538   0.08502
 118        9D+2        0.11615   0.60205   0.00000  -0.15950  -0.05972
 119        9D-2        0.00000   0.00000  -0.50639   0.00000   0.00000
 120 4   H  1S          0.05079   0.10138   0.00000  -0.01929  -0.01665
 121        2S         -3.68698  -3.73591   0.00000   1.50488   0.92229
 122        3S        -29.56251 -11.83147   0.00000   9.34215   8.10468
 123        4S         -5.26521  -1.31162   0.00000   0.59313   2.12681
 124        5PX         0.00000   0.00000   0.07594   0.00000   0.00000
 125        5PY        -0.11358  -0.06780   0.00000   0.03485   0.02792
 126        5PZ         0.07425   0.04146   0.00000   0.00047  -0.01672
 127        6PX         0.00000   0.00000  -0.39527   0.00000   0.00000
 128        6PY         1.75565   2.07010   0.00000  -0.63297  -0.41540
 129        6PZ        -1.41769  -0.94052   0.00000   0.38971   0.24720
 130        7PX         0.00000   0.00000  -0.96109   0.00000   0.00000
 131        7PY         5.04446   5.05821   0.00000  -2.03072  -1.66234
 132        7PZ        -3.44079   2.36273   0.00000   3.77327   1.09475
 133        8D 0        0.03317  -0.03495   0.00000  -0.01430   0.00970
 134        8D+1        0.00000   0.00000  -0.00619   0.00000   0.00000
 135        8D-1        0.05143   0.17242   0.00000   0.02228  -0.01356
 136        8D+2        0.12474   0.12184   0.00000   0.01415  -0.01565
 137        8D-2        0.00000   0.00000  -0.07395   0.00000   0.00000
 138        9D 0       -0.21088   0.49808   0.00000   0.00003  -0.07613
 139        9D+1        0.00000   0.00000   0.01978   0.00000   0.00000
 140        9D-1        0.86867   0.00621   0.00000  -0.54538  -0.08502
 141        9D+2       -0.11615   0.60205   0.00000  -0.15950  -0.05972
 142        9D-2        0.00000   0.00000   0.50639   0.00000   0.00000
                         141       142
     Eigenvalues --     0.00000   0.00000
   1 1   C  1S          0.00000  -0.00350
   2        2S          0.00000  -0.00734
   3        3S          0.00000   0.04598
   4        4S          0.00000   8.09627
   5        5S          0.00000  16.08542
   6        6PX         0.00000   0.00000
   7        6PY        -0.00790   0.00000
   8        6PZ         0.00000   0.00390
   9        7PX         0.00000   0.00000
  10        7PY        -0.16325   0.00000
  11        7PZ         0.00000  -0.06852
  12        8PX         0.00000   0.00000
  13        8PY        -5.09022   0.00000
  14        8PZ         0.00000   1.14718
  15        9PX         0.00000   0.00000
  16        9PY        -5.27103   0.00000
  17        9PZ         0.00000   1.19764
  18       10D 0        0.00000   0.00940
  19       10D+1        0.00000   0.00000
  20       10D-1       -0.01480   0.00000
  21       10D+2        0.00000  -0.01267
  22       10D-2        0.00000   0.00000
  23       11D 0        0.00000  -0.08472
  24       11D+1        0.00000   0.00000
  25       11D-1        0.12848   0.00000
  26       11D+2        0.00000   0.01912
  27       11D-2        0.00000   0.00000
  28       12D 0        0.00000   0.42415
  29       12D+1        0.00000   0.00000
  30       12D-1       -0.92252   0.00000
  31       12D+2        0.00000  -0.36876
  32       12D-2        0.00000   0.00000
  33       13F 0        0.00000  -0.01197
  34       13F+1        0.00000   0.00000
  35       13F-1        0.00470   0.00000
  36       13F+2        0.00000  -0.00520
  37       13F-2        0.00000   0.00000
  38       13F+3        0.00000   0.00000
  39       13F-3        0.00389   0.00000
  40       14F 0        0.00000   0.02232
  41       14F+1        0.00000   0.00000
  42       14F-1       -0.09496   0.00000
  43       14F+2        0.00000  -0.04647
  44       14F-2        0.00000   0.00000
  45       14F+3        0.00000   0.00000
  46       14F-3       -0.01308   0.00000
  47 2   S  1S          0.00000   0.00305
  48        2S          0.00000   0.04719
  49        3S          0.00000   0.13323
  50        4S          0.00000  -0.01479
  51        5S          0.00000  -1.74584
  52        6S          0.00000  -8.69177
  53        7PX         0.00000   0.00000
  54        7PY        -0.00567   0.00000
  55        7PZ         0.00000  -0.00282
  56        8PX         0.00000   0.00000
  57        8PY        -0.04868   0.00000
  58        8PZ         0.00000  -0.04472
  59        9PX         0.00000   0.00000
  60        9PY         0.02453   0.00000
  61        9PZ         0.00000   0.01205
  62       10PX         0.00000   0.00000
  63       10PY         1.28949   0.00000
  64       10PZ         0.00000   2.29573
  65       11PX         0.00000   0.00000
  66       11PY         0.52618   0.00000
  67       11PZ         0.00000   2.30307
  68       12D 0        0.00000  -0.04487
  69       12D+1        0.00000   0.00000
  70       12D-1       -0.08102   0.00000
  71       12D+2        0.00000   0.03439
  72       12D-2        0.00000   0.00000
  73       13D 0        0.00000   0.00717
  74       13D+1        0.00000   0.00000
  75       13D-1        0.00212   0.00000
  76       13D+2        0.00000  -0.00793
  77       13D-2        0.00000   0.00000
  78       14D 0        0.00000  -0.63262
  79       14D+1        0.00000   0.00000
  80       14D-1       -0.44320   0.00000
  81       14D+2        0.00000  -0.07955
  82       14D-2        0.00000   0.00000
  83       15F 0        0.00000  -0.01523
  84       15F+1        0.00000   0.00000
  85       15F-1       -0.00042   0.00000
  86       15F+2        0.00000  -0.00622
  87       15F-2        0.00000   0.00000
  88       15F+3        0.00000   0.00000
  89       15F-3       -0.00350   0.00000
  90       16F 0        0.00000   0.06419
  91       16F+1        0.00000   0.00000
  92       16F-1        0.03707   0.00000
  93       16F+2        0.00000   0.01290
  94       16F-2        0.00000   0.00000
  95       16F+3        0.00000   0.00000
  96       16F-3        0.02137   0.00000
  97 3   H  1S         -0.01339  -0.01304
  98        2S         -0.03907   0.17930
  99        3S         -8.35884  -4.87403
 100        4S         -8.18308  -2.43982
 101        5PX         0.00000   0.00000
 102        5PY         0.02109   0.00819
 103        5PZ         0.00577   0.01563
 104        6PX         0.00000   0.00000
 105        6PY        -0.25855  -0.09142
 106        6PZ        -0.08549  -0.15249
 107        7PX         0.00000   0.00000
 108        7PY        -2.57818  -1.16581
 109        7PZ        -2.32386  -0.99092
 110        8D 0        0.00739   0.00640
 111        8D+1        0.00000   0.00000
 112        8D-1        0.01217   0.01122
 113        8D+2       -0.02575  -0.00072
 114        8D-2        0.00000   0.00000
 115        9D 0       -0.01651  -0.04549
 116        9D+1        0.00000   0.00000
 117        9D-1       -0.18939  -0.19852
 118        9D+2        0.23906   0.07409
 119        9D-2        0.00000   0.00000
 120 4   H  1S          0.01339  -0.01304
 121        2S          0.03907   0.17930
 122        3S          8.35884  -4.87403
 123        4S          8.18308  -2.43982
 124        5PX         0.00000   0.00000
 125        5PY         0.02109  -0.00819
 126        5PZ        -0.00577   0.01563
 127        6PX         0.00000   0.00000
 128        6PY        -0.25855   0.09142
 129        6PZ         0.08549  -0.15249
 130        7PX         0.00000   0.00000
 131        7PY        -2.57818   1.16581
 132        7PZ         2.32386  -0.99092
 133        8D 0       -0.00739   0.00640
 134        8D+1        0.00000   0.00000
 135        8D-1        0.01217  -0.01122
 136        8D+2        0.02575  -0.00072
 137        8D-2        0.00000   0.00000
 138        9D 0        0.01651  -0.04549
 139        9D+1        0.00000   0.00000
 140        9D-1       -0.18939   0.19852
 141        9D+2       -0.23906   0.07409
 142        9D-2        0.00000   0.00000
          Condensed to atoms (all electrons):
              1          2          3          4
     1  C    6.185074   0.274399   0.183312   0.183312
     2  S    0.274399  16.028303  -0.118612  -0.118612
     3  H    0.183312  -0.118612   0.649835  -0.160324
     4  H    0.183312  -0.118612  -0.160324   0.649835
 Mulliken atomic charges:
              1
     1  C   -0.826097
     2  S   -0.065479
     3  H    0.445788
     4  H    0.445788
 Sum of Mulliken atomic charges =   0.00000
 Mulliken charges with hydrogens summed into heavy atoms:
              1
     1  C    0.065479
     2  S   -0.065479
 Sum of Mulliken charges with hydrogens summed into heavy atoms =   0.00000
 Electronic spatial extent (au):  <R**2>=            130.2857
 Charge=              0.0000 electrons
 Dipole moment (field-independent basis, Debye):
    X=              0.0000    Y=              0.0000    Z=             -1.7524  Tot=              1.7524
 Quadrupole moment (field-independent basis, Debye-Ang):
   XX=            -19.9779   YY=            -20.5753   ZZ=            -18.9724
   XY=              0.0000   XZ=              0.0000   YZ=              0.0000
 Traceless Quadrupole moment (field-independent basis, Debye-Ang):
   XX=             -0.1361   YY=             -0.7334   ZZ=              0.8695
   XY=              0.0000   XZ=              0.0000   YZ=              0.0000
 Octapole moment (field-independent basis, Debye-Ang**2):
  XXX=              0.0000  YYY=              0.0000  ZZZ=            -27.6810  XYY=              0.0000
  XXY=              0.0000  XXZ=             -8.5633  XZZ=              0.0000  YZZ=              0.0000
  YYZ=            -13.1333  XYZ=              0.0000
 Hexadecapole moment (field-independent basis, Debye-Ang**3):
 XXXX=            -25.3174 YYYY=            -35.1166 ZZZZ=           -127.3605 XXXY=              0.0000
 XXXZ=              0.0000 YYYX=              0.0000 YYYZ=              0.0000 ZZZX=              0.0000
 ZZZY=              0.0000 XXYY=            -10.5016 XXZZ=            -25.3322 YYZZ=            -29.5532
 XXYZ=              0.0000 YYXZ=              0.0000 ZZXY=              0.0000
 N-N= 4.470398203135D+01 E-N=-1.127363544150D+03  KE= 4.368673946079D+02
 1\1\GINC-TRAPISTA\SP\RQCISD-FC\Aug-CC-pVTZ\C1H2S1\BRUNS\17-Nov-2021\0\
 \# qcisd/aug-cc-pvtz nosymm density=current output=wfn\\h2cs-wavefunct
 ion\\0,1\C,0,0.,0.,-0.555291\S,0,0.,0.,1.060374\H,0,0.,-0.92228,-1.128
 992\H,0,0.,0.92228,-1.128992\\Version=EM64L-G09RevB.01\HF=-436.5575895
 \MP2=-436.8984589\MP3=-436.9212711\MP4D=-436.9312908\MP4DQ=-436.919627
 7\MP4SDQ=-436.9231103\QCISD=-436.923515\RMSD=6.199e-09\Dipole=0.,0.,-0
 .6894485\Quadrupole=-0.1011604,-0.5452826,0.6464429,0.,0.,0.\PG=C02V [
 C2(C1S1),SGV(H2)]\\@

 Writing a WFN file to GAUSSIAN.wfn.


 LENDING MONEY TO FRIENDS CAUSES THEM TO LOSE THEIR MEMORIES.

    --  PETER'S THEORY OF RECIPROCAL INHIBITION OF FISCAL RECALL
 Job cpu time:  0 days  0 hours 23 minutes 26.5 seconds.
 File lengths (MBytes):  RWF=   5923 Int=      0 D2E=      0 Chk=      2 Scr=      1
 Normal termination of Gaussian 09 at Wed Nov 17 16:36:25 2021.
