 Entering Gaussian System, Link 0=/home/bruns/programas/chemistry/gaussian/g09/g09
 Input=GAUSSIAN.com
 Output=GAUSSIAN.log
 Initial command:
 /home/bruns/programas/chemistry/gaussian/g09/l1.exe /home/bruns/programas/chemistry/gaussian/work/Gau-24229.inp -scrdir=/home/bruns/programas/chemistry/gaussian/work/
 Entering Link 1 = /home/bruns/programas/chemistry/gaussian/g09/l1.exe PID=     24231.
  
 Copyright (c) 1988,1990,1992,1993,1995,1998,2003,2009,2010,
            Gaussian, Inc.  All Rights Reserved.
  
 This is part of the Gaussian(R) 09 program.  It is based on
 the Gaussian(R) 03 system (copyright 2003, Gaussian, Inc.),
 the Gaussian(R) 98 system (copyright 1998, Gaussian, Inc.),
 the Gaussian(R) 94 system (copyright 1995, Gaussian, Inc.),
 the Gaussian 92(TM) system (copyright 1992, Gaussian, Inc.),
 the Gaussian 90(TM) system (copyright 1990, Gaussian, Inc.),
 the Gaussian 88(TM) system (copyright 1988, Gaussian, Inc.),
 the Gaussian 86(TM) system (copyright 1986, Carnegie Mellon
 University), and the Gaussian 82(TM) system (copyright 1983,
 Carnegie Mellon University). Gaussian is a federally registered
 trademark of Gaussian, Inc.
  
 This software contains proprietary and confidential information,
 including trade secrets, belonging to Gaussian, Inc.
  
 This software is provided under written license and may be
 used, copied, transmitted, or stored only in accord with that
 written license.
  
 The following legend is applicable only to US Government
 contracts under FAR:
  
                    RESTRICTED RIGHTS LEGEND
  
 Use, reproduction and disclosure by the US Government is
 subject to restrictions as set forth in subparagraphs (a)
 and (c) of the Commercial Computer Software - Restricted
 Rights clause in FAR 52.227-19.
  
 Gaussian, Inc.
 340 Quinnipiac St., Bldg. 40, Wallingford CT 06492
  
  
 ---------------------------------------------------------------
 Warning -- This program may not be used in any manner that
 competes with the business of Gaussian, Inc. or will provide
 assistance to any competitor of Gaussian, Inc.  The licensee
 of this program is prohibited from giving any competitor of
 Gaussian, Inc. access to this program.  By using this program,
 the user acknowledges that Gaussian, Inc. is engaged in the
 business of creating and licensing software in the field of
 computational chemistry and represents and warrants to the
 licensee that it is not a competitor of Gaussian, Inc. and that
 it will not use this program in any manner prohibited above.
 ---------------------------------------------------------------
  

 Cite this work as:
 Gaussian 09, Revision B.01,
 M. J. Frisch, G. W. Trucks, H. B. Schlegel, G. E. Scuseria, 
 M. A. Robb, J. R. Cheeseman, G. Scalmani, V. Barone, B. Mennucci, 
 G. A. Petersson, H. Nakatsuji, M. Caricato, X. Li, H. P. Hratchian, 
 A. F. Izmaylov, J. Bloino, G. Zheng, J. L. Sonnenberg, M. Hada, 
 M. Ehara, K. Toyota, R. Fukuda, J. Hasegawa, M. Ishida, T. Nakajima, 
 Y. Honda, O. Kitao, H. Nakai, T. Vreven, J. A. Montgomery, Jr., 
 J. E. Peralta, F. Ogliaro, M. Bearpark, J. J. Heyd, E. Brothers, 
 K. N. Kudin, V. N. Staroverov, T. Keith, R. Kobayashi, J. Normand, 
 K. Raghavachari, A. Rendell, J. C. Burant, S. S. Iyengar, J. Tomasi, 
 M. Cossi, N. Rega, J. M. Millam, M. Klene, J. E. Knox, J. B. Cross, 
 V. Bakken, C. Adamo, J. Jaramillo, R. Gomperts, R. E. Stratmann, 
 O. Yazyev, A. J. Austin, R. Cammi, C. Pomelli, J. W. Ochterski, 
 R. L. Martin, K. Morokuma, V. G. Zakrzewski, G. A. Voth, 
 P. Salvador, J. J. Dannenberg, S. Dapprich, A. D. Daniels, 
 O. Farkas, J. B. Foresman, J. V. Ortiz, J. Cioslowski, 
 and D. J. Fox, Gaussian, Inc., Wallingford CT, 2010.
 
 ******************************************
 Gaussian 09:  EM64L-G09RevB.01 12-Aug-2010
                17-Nov-2021 
 ******************************************
 %nproc=8
 Will use up to    8 processors via shared memory.
 %mem=8GB
 -----------------------------------------------------
 # qcisd/aug-cc-pvtz nosymm density=current output=wfn
 -----------------------------------------------------
 1/30=1,38=1/1;
 2/12=2,15=1,17=6,18=5,40=1/2;
 3/5=16,6=1,7=10,11=9,16=1,25=1,30=1,71=1/1,2,3;
 4//1;
 5/5=2,38=5/2;
 8/6=4,9=120000,10=1/1,4;
 9/5=8,15=1/13;
 11/28=-7,31=1,32=3,42=3/11;
 10/5=6,13=10,31=1/2;
 6/7=2,8=2,9=2,10=2,22=-1,31=1/1;
 99/5=1,6=1100,9=1/99;
 -----------------
 h2cs-wavefunction
 -----------------
 Symbolic Z-matrix:
 Charge =  0 Multiplicity = 1
 C                     0.        0.       -0.56529 
 S                     0.        0.        1.06037 
 H                     0.       -0.92228  -1.12899 
 H                     0.        0.92228  -1.12899 
 
                          Input orientation:                          
 ---------------------------------------------------------------------
 Center     Atomic      Atomic             Coordinates (Angstroms)
 Number     Number       Type             X           Y           Z
 ---------------------------------------------------------------------
      1          6           0        0.000000    0.000000   -0.565291
      2         16           0        0.000000    0.000000    1.060374
      3          1           0        0.000000   -0.922280   -1.128992
      4          1           0        0.000000    0.922280   -1.128992
 ---------------------------------------------------------------------
                    Distance matrix (angstroms):
                    1          2          3          4
     1  C    0.000000
     2  S    1.625665   0.000000
     3  H    1.080907   2.375694   0.000000
     4  H    1.080907   2.375694   1.844560   0.000000
 Symmetry turned off by external request.
 Stoichiometry    CH2S
 Framework group  C2V[C2(CS),SGV(H2)]
 Deg. of freedom     3
 Full point group                 C2V     NOp   4
 Rotational constants (GHZ):    294.7653806     17.4675996     16.4903901
 Standard basis: Aug-CC-pVTZ (5D, 7F)
 Integral buffers will be    131072 words long.
 Raffenetti 1 integral format.
 Two-electron integral symmetry is turned off.
   142 basis functions,   240 primitive gaussians,   164 cartesian basis functions
    12 alpha electrons       12 beta electrons
       nuclear repulsion energy        44.5389557661 Hartrees.
 NAtoms=    4 NActive=    4 NUniq=    4 SFac= 1.00D+00 NAtFMM=   50 NAOKFM=F Big=F
 One-electron integrals computed using PRISM.
 NBasis=   142 RedAO= T  NBF=   142
 NBsUse=   142 1.00D-06 NBFU=   142
 Harris functional with IExCor=  205 diagonalized for initial guess.
 ExpMin= 2.53D-02 ExpMax= 3.74D+05 ExpMxC= 1.18D+03 IAcc=3 IRadAn=         0 AccDes= 0.00D+00
 HarFok:  IExCor=  205 AccDes= 0.00D+00 IRadAn=         0 IDoV= 1
 ScaDFX=  1.000000  1.000000  1.000000  1.000000
 FoFCou: FMM=F IPFlag=           0 FMFlag=      100000 FMFlg1=           0
         NFxFlg=           0 DoJE=T BraDBF=F KetDBF=T FulRan=T
         Omega=  0.000000  0.000000  1.000000  0.000000  0.000000 ICntrl=     500 IOpCl=  0
         NMat0=    1 NMatS0=    1 NMatT0=    0 NMatD0=    1 NMtDS0=    0 NMtDT0=    0
         I1Cent=           4 NGrid=           0.
 Symmetry not used in FoFCou.
 Requested convergence on RMS density matrix=1.00D-08 within 128 cycles.
 Requested convergence on MAX density matrix=1.00D-06.
 Requested convergence on             energy=1.00D-06.
 No special actions if energy rises.
 Keep R1 ints in memory in canonical form, NReq=93884347.
 SCF Done:  E(RHF) =  -436.557223176     A.U. after   11 cycles
             Convg  =    0.7824D-08             -V/T =  2.0003
 ExpMin= 2.53D-02 ExpMax= 3.74D+05 ExpMxC= 1.18D+03 IAcc=3 IRadAn=         5 AccDes= 0.00D+00
 HarFok:  IExCor=  205 AccDes= 0.00D+00 IRadAn=         5 IDoV=-2
 ScaDFX=  1.000000  1.000000  1.000000  1.000000
 Range of M.O.s used for correlation:     7   142
 NBasis=   142 NAE=    12 NBE=    12 NFC=     6 NFV=     0
 NROrb=    136 NOA=     6 NOB=     6 NVA=   130 NVB=   130

 **** Warning!!: The largest alpha MO coefficient is  0.44660586D+02

 Semi-Direct transformation.
 ModeAB=           2 MOrb=             6 LenV=    1073082023
 LASXX=      7286295 LTotXX=     7286295 LenRXX=     7286295
 LTotAB=     7445736 MaxLAS=    11040480 LenRXY=    11040480
 NonZer=    14572590 LenScr=    22628352 LnRSAI=           0
 LnScr1=           0 LExtra=           0 Total=     40955127
 MaxDsk=          -1 SrtSym=           F ITran=            4
 JobTyp=0 Pass  1:  I=   1 to   6.
 (rs|ai) integrals will be sorted in core.
 Spin components of T(2) and E(2):
     alpha-alpha T2 =       0.1690206531D-01 E2=     -0.3869427248D-01
     alpha-beta  T2 =       0.1056326202D+00 E2=     -0.2637230024D+00
     beta-beta   T2 =       0.1690206531D-01 E2=     -0.3869427248D-01
 ANorm=    0.1067444027D+01
 E2 =    -0.3411115473D+00 EUMP2 =    -0.43689833472377D+03
 R2 and R3 integrals will be kept in memory, NReq=   185320410.
 Iterations=  50 Convergence= 0.100D-07
 Iteration Nr.   1
 **********************
 DD1Dir will call FoFMem   1 times, MxPair=        42
 NAB=    21 NAA=     0 NBB=     0.
 MP4(R+Q)=  0.11740887D-01
 E3=       -0.22757457D-01        EUMP3=      -0.43692109218D+03
 E4(DQ)=    0.16844429D-02        UMP4(DQ)=   -0.43691940774D+03
 E4(SDQ)=  -0.18766587D-02        UMP4(SDQ)=  -0.43692296884D+03
 DE(Corr)= -0.35212812     E(Corr)=     -436.90935129    
 NORM(A)=   0.10740681D+01
 Iteration Nr.   2
 **********************
 DD1Dir will call FoFMem   1 times, MxPair=        42
 NAB=    21 NAA=     0 NBB=     0.
 DE(Corr)= -0.36366985     E(CORR)=     -436.92089302     Delta=-1.15D-02
 NORM(A)=   0.10815429D+01
 Iteration Nr.   3
 **********************
 DD1Dir will call FoFMem   1 times, MxPair=        42
 NAB=    21 NAA=     0 NBB=     0.
 DE(Corr)= -0.36457277     E(CORR)=     -436.92179594     Delta=-9.03D-04
 NORM(A)=   0.10840721D+01
 Iteration Nr.   4
 **********************
 DD1Dir will call FoFMem   1 times, MxPair=        42
 NAB=    21 NAA=     0 NBB=     0.
 DE(Corr)= -0.36593751     E(CORR)=     -436.92316069     Delta=-1.36D-03
 NORM(A)=   0.10851241D+01
 Iteration Nr.   5
 **********************
 DD1Dir will call FoFMem   1 times, MxPair=        42
 NAB=    21 NAA=     0 NBB=     0.
 DE(Corr)= -0.36614473     E(CORR)=     -436.92336791     Delta=-2.07D-04
 NORM(A)=   0.10855115D+01
 Iteration Nr.   6
 **********************
 DD1Dir will call FoFMem   1 times, MxPair=        42
 NAB=    21 NAA=     0 NBB=     0.
 DE(Corr)= -0.36617853     E(CORR)=     -436.92340171     Delta=-3.38D-05
 NORM(A)=   0.10855282D+01
 Iteration Nr.   7
 **********************
 DD1Dir will call FoFMem   1 times, MxPair=        42
 NAB=    21 NAA=     0 NBB=     0.
 DE(Corr)= -0.36618009     E(CORR)=     -436.92340326     Delta=-1.56D-06
 NORM(A)=   0.10855406D+01
 Iteration Nr.   8
 **********************
 DD1Dir will call FoFMem   1 times, MxPair=        42
 NAB=    21 NAA=     0 NBB=     0.
 DE(Corr)= -0.36617701     E(CORR)=     -436.92340018     Delta= 3.08D-06
 NORM(A)=   0.10855395D+01
 Iteration Nr.   9
 **********************
 DD1Dir will call FoFMem   1 times, MxPair=        42
 NAB=    21 NAA=     0 NBB=     0.
 DE(Corr)= -0.36617960     E(CORR)=     -436.92340277     Delta=-2.59D-06
 NORM(A)=   0.10855409D+01
 Iteration Nr.  10
 **********************
 DD1Dir will call FoFMem   1 times, MxPair=        42
 NAB=    21 NAA=     0 NBB=     0.
 DE(Corr)= -0.36617923     E(CORR)=     -436.92340241     Delta= 3.63D-07
 NORM(A)=   0.10855418D+01
 Iteration Nr.  11
 **********************
 DD1Dir will call FoFMem   1 times, MxPair=        42
 NAB=    21 NAA=     0 NBB=     0.
 DE(Corr)= -0.36617978     E(CORR)=     -436.92340296     Delta=-5.51D-07
 NORM(A)=   0.10855423D+01
 Iteration Nr.  12
 **********************
 DD1Dir will call FoFMem   1 times, MxPair=        42
 NAB=    21 NAA=     0 NBB=     0.
 DE(Corr)= -0.36617989     E(CORR)=     -436.92340307     Delta=-1.10D-07
 NORM(A)=   0.10855427D+01
 Iteration Nr.  13
 **********************
 DD1Dir will call FoFMem   1 times, MxPair=        42
 NAB=    21 NAA=     0 NBB=     0.
 DE(Corr)= -0.36617999     E(CORR)=     -436.92340316     Delta=-9.36D-08
 NORM(A)=   0.10855429D+01
 Iteration Nr.  14
 **********************
 DD1Dir will call FoFMem   1 times, MxPair=        42
 NAB=    21 NAA=     0 NBB=     0.
 DE(Corr)= -0.36618002     E(CORR)=     -436.92340319     Delta=-3.16D-08
 NORM(A)=   0.10855430D+01
 Iteration Nr.  15
 **********************
 DD1Dir will call FoFMem   1 times, MxPair=        42
 NAB=    21 NAA=     0 NBB=     0.
 DE(Corr)= -0.36618003     E(CORR)=     -436.92340320     Delta=-9.55D-09
 NORM(A)=   0.10855430D+01
 Iteration Nr.  16
 **********************
 DD1Dir will call FoFMem   1 times, MxPair=        42
 NAB=    21 NAA=     0 NBB=     0.
 DE(Corr)= -0.36618003     E(CORR)=     -436.92340321     Delta=-1.72D-09
 NORM(A)=   0.10855430D+01
 Dominant configurations:
 ***********************
 Spin Case        I    J    A    B          Value
   ABAB          11   11   14   14      -0.116818D+00
 Largest amplitude= 1.17D-01

 Z-AMPLITUDE ITERATIONS

 Iteration Nr.   1
 **********************
 DD1Dir will call FoFMem   1 times, MxPair=        42
 NAB=    21 NAA=     0 NBB=     0.
 DE(Z)  -0.35000771D+00          E(Z)=    -0.43690723088D+03
 NORM(A)=   0.10855358D+01
 Iteration Nr.   2
 **********************
 DD1Dir will call FoFMem   1 times, MxPair=        42
 NAB=    21 NAA=     0 NBB=     0.
 DE(Z)  -0.35000740D+00          E(Z)=    -0.43690723057D+03
 NORM(A)=   0.10855474D+01
 Iteration Nr.   3
 **********************
 DD1Dir will call FoFMem   1 times, MxPair=        42
 NAB=    21 NAA=     0 NBB=     0.
 DE(Z)  -0.35000790D+00          E(Z)=    -0.43690723108D+03
 NORM(A)=   0.10855370D+01
 Iteration Nr.   4
 **********************
 DD1Dir will call FoFMem   1 times, MxPair=        42
 NAB=    21 NAA=     0 NBB=     0.
 DE(Z)  -0.35000744D+00          E(Z)=    -0.43690723062D+03
 NORM(A)=   0.10855832D+01
 Iteration Nr.   5
 **********************
 DD1Dir will call FoFMem   1 times, MxPair=        42
 NAB=    21 NAA=     0 NBB=     0.
 DE(Z)  -0.35000954D+00          E(Z)=    -0.43690723272D+03
 NORM(A)=   0.10771692D+01
 Iteration Nr.   6
 **********************
 DD1Dir will call FoFMem   1 times, MxPair=        42
 NAB=    21 NAA=     0 NBB=     0.
 DE(Z)  -0.34961549D+00          E(Z)=    -0.43690683866D+03
 NORM(A)=   0.10771717D+01
 Iteration Nr.   7
 **********************
 DD1Dir will call FoFMem   1 times, MxPair=        42
 NAB=    21 NAA=     0 NBB=     0.
 DE(Z)  -0.34961787D+00          E(Z)=    -0.43690684105D+03
 NORM(A)=   0.10771710D+01
 Iteration Nr.   8
 **********************
 DD1Dir will call FoFMem   1 times, MxPair=        42
 NAB=    21 NAA=     0 NBB=     0.
 DE(Z)  -0.34961798D+00          E(Z)=    -0.43690684116D+03
 NORM(A)=   0.10771710D+01
 Iteration Nr.   9
 **********************
 DD1Dir will call FoFMem   1 times, MxPair=        42
 NAB=    21 NAA=     0 NBB=     0.
 DE(Z)  -0.34961791D+00          E(Z)=    -0.43690684109D+03
 NORM(A)=   0.10771708D+01
 Iteration Nr.  10
 **********************
 DD1Dir will call FoFMem   1 times, MxPair=        42
 NAB=    21 NAA=     0 NBB=     0.
 DE(Z)  -0.34961796D+00          E(Z)=    -0.43690684114D+03
 NORM(A)=   0.10771708D+01
 Iteration Nr.  11
 **********************
 DD1Dir will call FoFMem   1 times, MxPair=        42
 NAB=    21 NAA=     0 NBB=     0.
 DE(Z)  -0.34961795D+00          E(Z)=    -0.43690684113D+03
 NORM(A)=   0.10771708D+01
 Iteration Nr.  12
 **********************
 DD1Dir will call FoFMem   1 times, MxPair=        42
 NAB=    21 NAA=     0 NBB=     0.
 DE(Z)  -0.34961795D+00          E(Z)=    -0.43690684113D+03
 NORM(A)=   0.10771708D+01
 Discarding MO integrals.
          Differentiating once with respect to electric field.
                with respect to dipole field.
          Electric field/nuclear overlap derivatives assumed to be zero.
          Keep R1 ints in memory in canonical form, NReq=93478140.
          There are     1 degrees of freedom in the 1st order CPHF.  IDoFFX=0.
 LinEq1:  Iter=  0 NonCon=     1 RMS=2.98D-03 Max=4.41D-02
 AX will form     1 AO Fock derivatives at one time.
 LinEq1:  Iter=  1 NonCon=     1 RMS=9.90D-04 Max=1.25D-02
 LinEq1:  Iter=  2 NonCon=     1 RMS=4.87D-04 Max=1.37D-02
 LinEq1:  Iter=  3 NonCon=     1 RMS=1.65D-04 Max=2.55D-03
 LinEq1:  Iter=  4 NonCon=     1 RMS=4.08D-05 Max=5.26D-04
 LinEq1:  Iter=  5 NonCon=     1 RMS=8.91D-06 Max=1.03D-04
 LinEq1:  Iter=  6 NonCon=     1 RMS=1.56D-06 Max=2.21D-05
 LinEq1:  Iter=  7 NonCon=     1 RMS=2.05D-07 Max=2.74D-06
 LinEq1:  Iter=  8 NonCon=     1 RMS=2.39D-08 Max=2.31D-07
 LinEq1:  Iter=  9 NonCon=     1 RMS=3.82D-09 Max=3.88D-08
 LinEq1:  Iter= 10 NonCon=     1 RMS=5.28D-10 Max=5.87D-09
 LinEq1:  Iter= 11 NonCon=     0 RMS=6.45D-11 Max=6.59D-10
 Linear equations converged to 1.000D-10 1.000D-09 after    11 iterations.
 End of Minotr Frequency-dependent properties file   721 does not exist.
 End of Minotr Frequency-dependent properties file   722 does not exist.

 **********************************************************************

            Population analysis using the QCI/CC density.

 **********************************************************************

     Natural Orbital Coefficients:
                           1         2         3         4         5
     Eigenvalues --     2.00003   2.00002   2.00001   2.00000   2.00000
   1 1   C  1S          0.00000  -0.15598  -0.46656   0.84892   0.00000
   2        2S          0.00000   0.00294   0.00809  -0.01032   0.00000
   3        3S          0.00000  -0.00623  -0.01905   0.03543   0.00000
   4        4S          0.00000  -0.00353  -0.00101  -0.00365   0.00000
   5        5S          0.00000  -0.00049  -0.00155  -0.00016   0.00000
   6        6PX         0.00000   0.00000   0.00000   0.00000  -0.00132
   7        6PY        -0.00063   0.00000   0.00000   0.00000   0.00000
   8        6PZ         0.00000   0.00104   0.00163   0.00197   0.00000
   9        7PX         0.00000   0.00000   0.00000   0.00000  -0.00115
  10        7PY        -0.00129   0.00000   0.00000   0.00000   0.00000
  11        7PZ         0.00000   0.00011   0.00127  -0.00091   0.00000
  12        8PX         0.00000   0.00000   0.00000   0.00000  -0.00048
  13        8PY         0.01580   0.00000   0.00000   0.00000   0.00000
  14        8PZ         0.00000  -0.00569  -0.00149  -0.00312   0.00000
  15        9PX         0.00000   0.00000   0.00000   0.00000  -0.00001
  16        9PY         0.00132   0.00000   0.00000   0.00000   0.00000
  17        9PZ         0.00000  -0.00001  -0.00017  -0.00020   0.00000
  18       10D 0        0.00000  -0.00002  -0.00001   0.00027   0.00000
  19       10D+1        0.00000   0.00000   0.00000   0.00000  -0.00019
  20       10D-1       -0.00031   0.00000   0.00000   0.00000   0.00000
  21       10D+2        0.00000   0.00010   0.00028  -0.00055   0.00000
  22       10D-2        0.00000   0.00000   0.00000   0.00000   0.00000
  23       11D 0        0.00000  -0.00084   0.00052  -0.00139   0.00000
  24       11D+1        0.00000   0.00000   0.00000   0.00000   0.00157
  25       11D-1        0.00006   0.00000   0.00000   0.00000   0.00000
  26       11D+2        0.00000  -0.00026  -0.00027   0.00020   0.00000
  27       11D-2        0.00000   0.00000   0.00000   0.00000   0.00000
  28       12D 0        0.00000  -0.00318  -0.00245  -0.00154   0.00000
  29       12D+1        0.00000   0.00000   0.00000   0.00000  -0.00105
  30       12D-1       -0.00416   0.00000   0.00000   0.00000   0.00000
  31       12D+2        0.00000  -0.00143  -0.00092  -0.00052   0.00000
  32       12D-2        0.00000   0.00000   0.00000   0.00000   0.00000
  33       13F 0        0.00000   0.00001   0.00009   0.00052   0.00000
  34       13F+1        0.00000   0.00000   0.00000   0.00000  -0.00015
  35       13F-1       -0.00035   0.00000   0.00000   0.00000   0.00000
  36       13F+2        0.00000  -0.00010  -0.00023   0.00052   0.00000
  37       13F-2        0.00000   0.00000   0.00000   0.00000   0.00000
  38       13F+3        0.00000   0.00000   0.00000   0.00000   0.00002
  39       13F-3        0.00001   0.00000   0.00000   0.00000   0.00000
  40       14F 0        0.00000   0.00073   0.00155  -0.00090   0.00000
  41       14F+1        0.00000   0.00000   0.00000   0.00000   0.00129
  42       14F-1        0.00190   0.00000   0.00000   0.00000   0.00000
  43       14F+2        0.00000   0.00065   0.00107  -0.00083   0.00000
  44       14F-2        0.00000   0.00000   0.00000   0.00000   0.00000
  45       14F+3        0.00000   0.00000   0.00000   0.00000   0.00046
  46       14F-3       -0.00019   0.00000   0.00000   0.00000   0.00000
  47 2   S  1S          0.00000  -0.21041   0.18757   0.06454   0.00000
  48        2S          0.00000   0.71874  -0.64640  -0.22200   0.00000
  49        3S          0.00000  -0.02041   0.00993   0.00306   0.00000
  50        4S          0.00000   0.04822  -0.04608  -0.01654   0.00000
  51        5S          0.00000   0.00680   0.00691   0.00857   0.00000
  52        6S          0.00000  -0.00004   0.00033   0.00152   0.00000
  53        7PX         0.00000   0.00000   0.00000   0.00000   0.97148
  54        7PY         0.97719   0.00000   0.00000   0.00000   0.00000
  55        7PZ         0.00000   0.65491   0.57459   0.43408   0.00000
  56        8PX         0.00000   0.00000   0.00000   0.00000  -0.01094
  57        8PY        -0.02046   0.00000   0.00000   0.00000   0.00000
  58        8PZ         0.00000  -0.01165  -0.00781  -0.00692   0.00000
  59        9PX         0.00000   0.00000   0.00000   0.00000   0.06294
  60        9PY         0.05559   0.00000   0.00000   0.00000   0.00000
  61        9PZ         0.00000   0.04000   0.03699   0.02832   0.00000
  62       10PX         0.00000   0.00000   0.00000   0.00000   0.00192
  63       10PY        -0.00638   0.00000   0.00000   0.00000   0.00000
  64       10PZ         0.00000  -0.00693  -0.00125  -0.00401   0.00000
  65       11PX         0.00000   0.00000   0.00000   0.00000  -0.00070
  66       11PY        -0.00127   0.00000   0.00000   0.00000   0.00000
  67       11PZ         0.00000  -0.00006   0.00003  -0.00023   0.00000
  68       12D 0        0.00000   0.00209   0.00173   0.00230   0.00000
  69       12D+1        0.00000   0.00000   0.00000   0.00000   0.00215
  70       12D-1        0.00262   0.00000   0.00000   0.00000   0.00000
  71       12D+2        0.00000  -0.00053  -0.00005   0.00033   0.00000
  72       12D-2        0.00000   0.00000   0.00000   0.00000   0.00000
  73       13D 0        0.00000   0.00002  -0.00032  -0.00037   0.00000
  74       13D+1        0.00000   0.00000   0.00000   0.00000  -0.00021
  75       13D-1       -0.00054   0.00000   0.00000   0.00000   0.00000
  76       13D+2        0.00000   0.00037  -0.00028  -0.00012   0.00000
  77       13D-2        0.00000   0.00000   0.00000   0.00000   0.00000
  78       14D 0        0.00000   0.00093  -0.00029   0.00078   0.00000
  79       14D+1        0.00000   0.00000   0.00000   0.00000  -0.00066
  80       14D-1       -0.00059   0.00000   0.00000   0.00000   0.00000
  81       14D+2        0.00000   0.00034   0.00009   0.00003   0.00000
  82       14D-2        0.00000   0.00000   0.00000   0.00000   0.00000
  83       15F 0        0.00000  -0.00017  -0.00011   0.00011   0.00000
  84       15F+1        0.00000   0.00000   0.00000   0.00000  -0.00032
  85       15F-1       -0.00014   0.00000   0.00000   0.00000   0.00000
  86       15F+2        0.00000   0.00013   0.00019   0.00007   0.00000
  87       15F-2        0.00000   0.00000   0.00000   0.00000   0.00000
  88       15F+3        0.00000   0.00000   0.00000   0.00000   0.00016
  89       15F-3        0.00010   0.00000   0.00000   0.00000   0.00000
  90       16F 0        0.00000  -0.00040  -0.00026  -0.00079   0.00000
  91       16F+1        0.00000   0.00000   0.00000   0.00000  -0.00047
  92       16F-1       -0.00082   0.00000   0.00000   0.00000   0.00000
  93       16F+2        0.00000  -0.00004   0.00000  -0.00028   0.00000
  94       16F-2        0.00000   0.00000   0.00000   0.00000   0.00000
  95       16F+3        0.00000   0.00000   0.00000   0.00000  -0.00019
  96       16F-3       -0.00024   0.00000   0.00000   0.00000   0.00000
  97 3   H  1S         -0.00041  -0.00008   0.00018  -0.00123   0.00000
  98        2S          0.00053  -0.00121  -0.00107  -0.00176   0.00000
  99        3S          0.01831  -0.00328   0.00020  -0.00362   0.00000
 100        4S          0.00056   0.00007   0.00016  -0.00016   0.00000
 101        5PX         0.00000   0.00000   0.00000   0.00000  -0.00006
 102        5PY         0.00000   0.00001   0.00009  -0.00038   0.00000
 103        5PZ         0.00012   0.00004   0.00010  -0.00017   0.00000
 104        6PX         0.00000   0.00000   0.00000   0.00000   0.00040
 105        6PY        -0.00002   0.00009   0.00033  -0.00095   0.00000
 106        6PZ        -0.00069   0.00008   0.00044  -0.00062   0.00000
 107        7PX         0.00000   0.00000   0.00000   0.00000  -0.00069
 108        7PY         0.00382   0.00045   0.00095  -0.00045   0.00000
 109        7PZ         0.00160  -0.00144  -0.00065  -0.00118   0.00000
 110        8D 0        0.00011   0.00004   0.00007   0.00010   0.00000
 111        8D+1        0.00000   0.00000   0.00000   0.00000  -0.00002
 112        8D-1        0.00000   0.00004   0.00015  -0.00029   0.00000
 113        8D+2        0.00003  -0.00004  -0.00011   0.00022   0.00000
 114        8D-2        0.00000   0.00000   0.00000   0.00000   0.00004
 115        9D 0        0.00000   0.00006   0.00039  -0.00017   0.00000
 116        9D+1        0.00000   0.00000   0.00000   0.00000   0.00045
 117        9D-1       -0.00046  -0.00025  -0.00023  -0.00032   0.00000
 118        9D+2        0.00019  -0.00021  -0.00030   0.00031   0.00000
 119        9D-2        0.00000   0.00000   0.00000   0.00000  -0.00016
 120 4   H  1S          0.00041  -0.00008   0.00018  -0.00123   0.00000
 121        2S         -0.00053  -0.00121  -0.00107  -0.00176   0.00000
 122        3S         -0.01831  -0.00328   0.00020  -0.00362   0.00000
 123        4S         -0.00056   0.00007   0.00016  -0.00016   0.00000
 124        5PX         0.00000   0.00000   0.00000   0.00000  -0.00006
 125        5PY         0.00000  -0.00001  -0.00009   0.00038   0.00000
 126        5PZ        -0.00012   0.00004   0.00010  -0.00017   0.00000
 127        6PX         0.00000   0.00000   0.00000   0.00000   0.00040
 128        6PY        -0.00002  -0.00009  -0.00033   0.00095   0.00000
 129        6PZ         0.00069   0.00008   0.00044  -0.00062   0.00000
 130        7PX         0.00000   0.00000   0.00000   0.00000  -0.00069
 131        7PY         0.00382  -0.00045  -0.00095   0.00045   0.00000
 132        7PZ        -0.00160  -0.00144  -0.00065  -0.00118   0.00000
 133        8D 0       -0.00011   0.00004   0.00007   0.00010   0.00000
 134        8D+1        0.00000   0.00000   0.00000   0.00000  -0.00002
 135        8D-1        0.00000  -0.00004  -0.00015   0.00029   0.00000
 136        8D+2       -0.00003  -0.00004  -0.00011   0.00022   0.00000
 137        8D-2        0.00000   0.00000   0.00000   0.00000  -0.00004
 138        9D 0        0.00000   0.00006   0.00039  -0.00017   0.00000
 139        9D+1        0.00000   0.00000   0.00000   0.00000   0.00045
 140        9D-1       -0.00046   0.00025   0.00023   0.00032   0.00000
 141        9D+2       -0.00019  -0.00021  -0.00030   0.00031   0.00000
 142        9D-2        0.00000   0.00000   0.00000   0.00000   0.00016
                           6         7         8         9        10
     Eigenvalues --     2.00000   1.97237   1.96170   1.95940   1.94121
   1 1   C  1S         -0.00024  -0.13917   0.07776   0.00000   0.05959
   2        2S         -0.00001   0.37281  -0.21793   0.00000  -0.16473
   3        3S          0.00000   0.08293  -0.05192   0.00000  -0.03812
   4        4S         -0.00022   0.25304  -0.22081   0.00000  -0.08506
   5        5S         -0.00011   0.01881   0.00527   0.00000  -0.00539
   6        6PX         0.00000   0.00000   0.00000   0.00000   0.00000
   7        6PY         0.00000   0.00000   0.00000   0.24852   0.00000
   8        6PZ         0.00001   0.01061   0.16366   0.00000  -0.18436
   9        7PX         0.00000   0.00000   0.00000   0.00000   0.00000
  10        7PY         0.00000   0.00000   0.00000   0.33966   0.00000
  11        7PZ        -0.00009   0.00164   0.21222   0.00000  -0.23605
  12        8PX         0.00000   0.00000   0.00000   0.00000   0.00000
  13        8PY         0.00000   0.00000   0.00000   0.22525   0.00000
  14        8PZ         0.00004  -0.03275   0.10250   0.00000  -0.13212
  15        9PX         0.00000   0.00000   0.00000   0.00000   0.00000
  16        9PY         0.00000   0.00000   0.00000   0.00601   0.00000
  17        9PZ        -0.00002   0.00145   0.00765   0.00000  -0.00648
  18       10D 0       -0.00001   0.00806   0.00899   0.00000  -0.01083
  19       10D+1        0.00000   0.00000   0.00000   0.00000   0.00000
  20       10D-1        0.00000   0.00000   0.00000  -0.01442   0.00000
  21       10D+2        0.00000  -0.00731   0.00992   0.00000  -0.00314
  22       10D-2        0.00000   0.00000   0.00000   0.00000   0.00000
  23       11D 0       -0.00005   0.00920   0.01641   0.00000  -0.01430
  24       11D+1        0.00000   0.00000   0.00000   0.00000   0.00000
  25       11D-1        0.00000   0.00000   0.00000  -0.03862   0.00000
  26       11D+2        0.00001  -0.01830   0.02582   0.00000  -0.00874
  27       11D-2        0.00000   0.00000   0.00000   0.00000   0.00000
  28       12D 0        0.00001  -0.01009  -0.00185   0.00000  -0.00216
  29       12D+1        0.00000   0.00000   0.00000   0.00000   0.00000
  30       12D-1        0.00000   0.00000   0.00000  -0.03643   0.00000
  31       12D+2        0.00003  -0.00419   0.00365   0.00000  -0.00418
  32       12D-2        0.00000   0.00000   0.00000   0.00000   0.00000
  33       13F 0        0.00000   0.00577   0.00137   0.00000  -0.00510
  34       13F+1        0.00000   0.00000   0.00000   0.00000   0.00000
  35       13F-1        0.00000   0.00000   0.00000   0.00542   0.00000
  36       13F+2        0.00000   0.00381  -0.00216   0.00000  -0.00027
  37       13F-2        0.00000   0.00000   0.00000   0.00000   0.00000
  38       13F+3        0.00000   0.00000   0.00000   0.00000   0.00000
  39       13F-3        0.00000   0.00000   0.00000  -0.00231   0.00000
  40       14F 0       -0.00001   0.00576  -0.00582   0.00000   0.00020
  41       14F+1        0.00000   0.00000   0.00000   0.00000   0.00000
  42       14F-1        0.00000   0.00000   0.00000   0.00328   0.00000
  43       14F+2        0.00000   0.00750  -0.00715   0.00000   0.00025
  44       14F-2        0.00000   0.00000   0.00000   0.00000   0.00000
  45       14F+3        0.00000   0.00000   0.00000   0.00000   0.00000
  46       14F-3        0.00000   0.00000   0.00000  -0.00307   0.00000
  47 2   S  1S          0.99622   0.04503   0.04933   0.00000   0.02690
  48        2S          0.01382  -0.17404  -0.18742   0.00000  -0.10457
  49        3S          0.00032   0.35879   0.40644   0.00000   0.23380
  50        4S          0.00003   0.04490   0.05571   0.00000   0.03395
  51        5S         -0.00011   0.19314   0.21634   0.00000   0.31586
  52        6S          0.00004  -0.01412  -0.02863   0.00000   0.05900
  53        7PX         0.00000   0.00000   0.00000   0.00000   0.00000
  54        7PY         0.00000   0.00000   0.00000  -0.03777   0.00000
  55        7PZ         0.00109   0.04020   0.02164   0.00000  -0.18201
  56        8PX         0.00000   0.00000   0.00000   0.00000   0.00000
  57        8PY         0.00000   0.00000   0.00000   0.08720   0.00000
  58        8PZ        -0.00015  -0.05229  -0.02879   0.00000   0.38700
  59        9PX         0.00000   0.00000   0.00000   0.00000   0.00000
  60        9PY         0.00000   0.00000   0.00000   0.03780   0.00000
  61        9PZ         0.00013  -0.02819  -0.01667   0.00000   0.17494
  62       10PX         0.00000   0.00000   0.00000   0.00000   0.00000
  63       10PY         0.00000   0.00000   0.00000   0.02958   0.00000
  64       10PZ         0.00006   0.01318   0.00694   0.00000   0.12136
  65       11PX         0.00000   0.00000   0.00000   0.00000   0.00000
  66       11PY         0.00000   0.00000   0.00000  -0.00177   0.00000
  67       11PZ         0.00000   0.00581   0.00563   0.00000  -0.00301
  68       12D 0        0.00006   0.01207   0.00119   0.00000  -0.02898
  69       12D+1        0.00000   0.00000   0.00000   0.00000   0.00000
  70       12D-1        0.00000   0.00000   0.00000  -0.02177   0.00000
  71       12D+2       -0.00001   0.00034   0.00141   0.00000  -0.00052
  72       12D-2        0.00000   0.00000   0.00000   0.00000   0.00000
  73       13D 0        0.00001   0.02159   0.00992   0.00000  -0.04623
  74       13D+1        0.00000   0.00000   0.00000   0.00000   0.00000
  75       13D-1        0.00000   0.00000   0.00000  -0.02126   0.00000
  76       13D+2        0.00001   0.00107   0.00142   0.00000  -0.00016
  77       13D-2        0.00000   0.00000   0.00000   0.00000   0.00000
  78       14D 0       -0.00004  -0.00848  -0.00474   0.00000   0.00182
  79       14D+1        0.00000   0.00000   0.00000   0.00000   0.00000
  80       14D-1        0.00000   0.00000   0.00000  -0.00205   0.00000
  81       14D+2        0.00000  -0.00119  -0.00218   0.00000  -0.00052
  82       14D-2        0.00000   0.00000   0.00000   0.00000   0.00000
  83       15F 0       -0.00002  -0.00753  -0.00489   0.00000   0.01354
  84       15F+1        0.00000   0.00000   0.00000   0.00000   0.00000
  85       15F-1        0.00000   0.00000   0.00000   0.00841   0.00000
  86       15F+2        0.00000  -0.00040  -0.00040   0.00000   0.00342
  87       15F-2        0.00000   0.00000   0.00000   0.00000   0.00000
  88       15F+3        0.00000   0.00000   0.00000   0.00000   0.00000
  89       15F-3        0.00000   0.00000   0.00000   0.00072   0.00000
  90       16F 0        0.00000   0.00330   0.00266   0.00000  -0.00421
  91       16F+1        0.00000   0.00000   0.00000   0.00000   0.00000
  92       16F-1        0.00000   0.00000   0.00000   0.00086   0.00000
  93       16F+2        0.00000  -0.00040  -0.00066   0.00000   0.00060
  94       16F-2        0.00000   0.00000   0.00000   0.00000   0.00000
  95       16F+3        0.00000   0.00000   0.00000   0.00000   0.00000
  96       16F-3        0.00000   0.00000   0.00000   0.00082   0.00000
  97 3   H  1S          0.00000   0.06985  -0.09977  -0.14128   0.03349
  98        2S          0.00001   0.05165  -0.09780  -0.15657   0.04715
  99        3S          0.00014  -0.03492   0.01771   0.07396   0.01441
 100        4S          0.00001  -0.00043   0.00318   0.00301  -0.00158
 101        5PX         0.00000   0.00000   0.00000   0.00000   0.00000
 102        5PY         0.00000   0.00562  -0.00948  -0.00825   0.00366
 103        5PZ         0.00000   0.00339  -0.00308  -0.00844  -0.00117
 104        6PX         0.00000   0.00000   0.00000   0.00000   0.00000
 105        6PY         0.00000  -0.00376  -0.00171   0.01286   0.00207
 106        6PZ         0.00000  -0.00359   0.00882  -0.00095  -0.00992
 107        7PX         0.00000   0.00000   0.00000   0.00000   0.00000
 108        7PY         0.00001  -0.01096   0.01481   0.03082  -0.00182
 109        7PZ         0.00003  -0.01350   0.00515   0.01254   0.00115
 110        8D 0        0.00000   0.00025   0.00139  -0.00129  -0.00166
 111        8D+1        0.00000   0.00000   0.00000   0.00000   0.00000
 112        8D-1        0.00000   0.00045  -0.00092  -0.00247  -0.00008
 113        8D+2        0.00000  -0.00060   0.00156   0.00010  -0.00078
 114        8D-2        0.00000   0.00000   0.00000   0.00000   0.00000
 115        9D 0        0.00000   0.00000  -0.00038  -0.00185  -0.00043
 116        9D+1        0.00000   0.00000   0.00000   0.00000   0.00000
 117        9D-1       -0.00001  -0.00382   0.00343   0.00329  -0.00072
 118        9D+2        0.00000   0.00154  -0.00063  -0.00303  -0.00025
 119        9D-2        0.00000   0.00000   0.00000   0.00000   0.00000
 120 4   H  1S          0.00000   0.06985  -0.09977   0.14128   0.03349
 121        2S          0.00001   0.05165  -0.09780   0.15657   0.04715
 122        3S          0.00014  -0.03492   0.01771  -0.07396   0.01441
 123        4S          0.00001  -0.00043   0.00318  -0.00301  -0.00158
 124        5PX         0.00000   0.00000   0.00000   0.00000   0.00000
 125        5PY         0.00000  -0.00562   0.00948  -0.00825  -0.00366
 126        5PZ         0.00000   0.00339  -0.00308   0.00844  -0.00117
 127        6PX         0.00000   0.00000   0.00000   0.00000   0.00000
 128        6PY         0.00000   0.00376   0.00171   0.01286  -0.00207
 129        6PZ         0.00000  -0.00359   0.00882   0.00095  -0.00992
 130        7PX         0.00000   0.00000   0.00000   0.00000   0.00000
 131        7PY        -0.00001   0.01096  -0.01481   0.03082   0.00182
 132        7PZ         0.00003  -0.01350   0.00515  -0.01254   0.00115
 133        8D 0        0.00000   0.00025   0.00139   0.00129  -0.00166
 134        8D+1        0.00000   0.00000   0.00000   0.00000   0.00000
 135        8D-1        0.00000  -0.00045   0.00092  -0.00247   0.00008
 136        8D+2        0.00000  -0.00060   0.00156  -0.00010  -0.00078
 137        8D-2        0.00000   0.00000   0.00000   0.00000   0.00000
 138        9D 0        0.00000   0.00000  -0.00038   0.00185  -0.00043
 139        9D+1        0.00000   0.00000   0.00000   0.00000   0.00000
 140        9D-1        0.00001   0.00382  -0.00343   0.00329   0.00072
 141        9D+2        0.00000   0.00154  -0.00063   0.00303  -0.00025
 142        9D-2        0.00000   0.00000   0.00000   0.00000   0.00000
                          11        12        13        14        15
     Eigenvalues --     1.94083   1.89779   0.08539   0.03744   0.02603
   1 1   C  1S          0.00000   0.00000   0.00000  -0.11041   0.00000
   2        2S          0.00000   0.00000   0.00000   0.37839   0.00000
   3        3S          0.00000   0.00000   0.00000   0.15109   0.00000
   4        4S          0.00000   0.00000   0.00000   0.15100   0.00000
   5        5S          0.00000   0.00000   0.00000   0.09614   0.00000
   6        6PX         0.00000   0.18969  -0.30140   0.00000   0.00000
   7        6PY        -0.04024   0.00000   0.00000   0.00000   0.25671
   8        6PZ         0.00000   0.00000   0.00000   0.27532   0.00000
   9        7PX         0.00000   0.26509  -0.45759   0.00000   0.00000
  10        7PY        -0.05295   0.00000   0.00000   0.00000   0.60590
  11        7PZ         0.00000   0.00000   0.00000   0.52986   0.00000
  12        8PX         0.00000   0.17924  -0.20585   0.00000   0.00000
  13        8PY        -0.00196   0.00000   0.00000   0.00000   0.15880
  14        8PZ         0.00000   0.00000   0.00000   0.47611   0.00000
  15        9PX         0.00000   0.01334  -0.00559   0.00000   0.00000
  16        9PY        -0.00147   0.00000   0.00000   0.00000  -0.00750
  17        9PZ         0.00000   0.00000   0.00000   0.03844   0.00000
  18       10D 0        0.00000   0.00000   0.00000   0.00327   0.00000
  19       10D+1        0.00000   0.01107  -0.00284   0.00000   0.00000
  20       10D-1        0.01804   0.00000   0.00000   0.00000   0.07100
  21       10D+2        0.00000   0.00000   0.00000   0.00216   0.00000
  22       10D-2        0.00000   0.00000   0.00000   0.00000   0.00000
  23       11D 0        0.00000   0.00000   0.00000   0.09609   0.00000
  24       11D+1        0.00000   0.03268  -0.03590   0.00000   0.00000
  25       11D-1        0.03546   0.00000   0.00000   0.00000   0.05174
  26       11D+2        0.00000   0.00000   0.00000   0.05702   0.00000
  27       11D-2        0.00000   0.00000   0.00000   0.00000   0.00000
  28       12D 0        0.00000   0.00000   0.00000   0.08229   0.00000
  29       12D+1        0.00000   0.01093  -0.01398   0.00000   0.00000
  30       12D-1       -0.02217   0.00000   0.00000   0.00000  -0.01796
  31       12D+2        0.00000   0.00000   0.00000   0.03476   0.00000
  32       12D-2        0.00000   0.00000   0.00000   0.00000   0.00000
  33       13F 0        0.00000   0.00000   0.00000   0.01341   0.00000
  34       13F+1        0.00000   0.00620  -0.00568   0.00000   0.00000
  35       13F-1        0.00448   0.00000   0.00000   0.00000   0.03312
  36       13F+2        0.00000   0.00000   0.00000   0.00237   0.00000
  37       13F-2        0.00000   0.00000   0.00000   0.00000   0.00000
  38       13F+3        0.00000   0.00032   0.00008   0.00000   0.00000
  39       13F-3        0.00143   0.00000   0.00000   0.00000  -0.00326
  40       14F 0        0.00000   0.00000   0.00000  -0.00522   0.00000
  41       14F+1        0.00000   0.00145  -0.01540   0.00000   0.00000
  42       14F-1        0.00094   0.00000   0.00000   0.00000   0.06813
  43       14F+2        0.00000   0.00000   0.00000  -0.03439   0.00000
  44       14F-2        0.00000   0.00000   0.00000   0.00000   0.00000
  45       14F+3        0.00000   0.00068  -0.00506   0.00000   0.00000
  46       14F-3       -0.00053   0.00000   0.00000   0.00000   0.00483
  47 2   S  1S          0.00000   0.00000   0.00000  -0.02423   0.00000
  48        2S          0.00000   0.00000   0.00000   0.07095   0.00000
  49        3S          0.00000   0.00000   0.00000  -0.24747   0.00000
  50        4S          0.00000   0.00000   0.00000   0.00077   0.00000
  51        5S          0.00000   0.00000   0.00000  -0.76421   0.00000
  52        6S          0.00000   0.00000   0.00000  -0.26246   0.00000
  53        7PX         0.00000  -0.17467  -0.20001   0.00000   0.00000
  54        7PY        -0.21583   0.00000   0.00000   0.00000   0.08414
  55        7PZ         0.00000   0.00000   0.00000  -0.19616   0.00000
  56        8PX         0.00000   0.39394   0.52734   0.00000   0.00000
  57        8PY         0.52688   0.00000   0.00000   0.00000  -0.23822
  58        8PZ         0.00000   0.00000   0.00000   0.73903   0.00000
  59        9PX         0.00000   0.15979   0.20695   0.00000   0.00000
  60        9PY         0.22309   0.00000   0.00000   0.00000  -0.12797
  61        9PZ         0.00000   0.00000   0.00000   0.21109   0.00000
  62       10PX         0.00000   0.21016   0.16128   0.00000   0.00000
  63       10PY         0.40511   0.00000   0.00000   0.00000   0.09615
  64       10PZ         0.00000   0.00000   0.00000   0.48901   0.00000
  65       11PX         0.00000   0.00478   0.00188   0.00000   0.00000
  66       11PY         0.04125   0.00000   0.00000   0.00000   0.02504
  67       11PZ         0.00000   0.00000   0.00000   0.03286   0.00000
  68       12D 0        0.00000   0.00000   0.00000   0.09598   0.00000
  69       12D+1        0.00000  -0.03627   0.03871   0.00000   0.00000
  70       12D-1        0.00236   0.00000   0.00000   0.00000  -0.28975
  71       12D+2        0.00000   0.00000   0.00000   0.08468   0.00000
  72       12D-2        0.00000   0.00000   0.00000   0.00000   0.00000
  73       13D 0        0.00000   0.00000   0.00000   0.16081   0.00000
  74       13D+1        0.00000  -0.03434   0.05026   0.00000   0.00000
  75       13D-1       -0.00040   0.00000   0.00000   0.00000  -0.25177
  76       13D+2        0.00000   0.00000   0.00000   0.05318   0.00000
  77       13D-2        0.00000   0.00000   0.00000   0.00000   0.00000
  78       14D 0        0.00000   0.00000   0.00000  -0.06617   0.00000
  79       14D+1        0.00000  -0.00407  -0.01832   0.00000   0.00000
  80       14D-1       -0.01327   0.00000   0.00000   0.00000  -0.03216
  81       14D+2        0.00000   0.00000   0.00000   0.01387   0.00000
  82       14D-2        0.00000   0.00000   0.00000   0.00000   0.00000
  83       15F 0        0.00000   0.00000   0.00000  -0.01771   0.00000
  84       15F+1        0.00000   0.01063  -0.01545   0.00000   0.00000
  85       15F-1        0.00368   0.00000   0.00000   0.00000   0.03115
  86       15F+2        0.00000   0.00000   0.00000  -0.00425   0.00000
  87       15F-2        0.00000   0.00000   0.00000   0.00000   0.00000
  88       15F+3        0.00000   0.00381   0.00251   0.00000   0.00000
  89       15F-3        0.00445   0.00000   0.00000   0.00000   0.00350
  90       16F 0        0.00000   0.00000   0.00000   0.01041   0.00000
  91       16F+1        0.00000  -0.00064   0.00449   0.00000   0.00000
  92       16F-1        0.00208   0.00000   0.00000   0.00000   0.00170
  93       16F+2        0.00000   0.00000   0.00000  -0.01159   0.00000
  94       16F-2        0.00000   0.00000   0.00000   0.00000   0.00000
  95       16F+3        0.00000   0.00241   0.00296   0.00000   0.00000
  96       16F-3        0.00332   0.00000   0.00000   0.00000   0.00201
  97 3   H  1S          0.05092   0.00000   0.00000  -0.03165   0.17737
  98        2S          0.08753   0.00000   0.00000   0.09151   0.55826
  99        3S          0.16107   0.00000   0.00000   0.26205   0.27911
 100        4S          0.01595   0.00000   0.00000   0.01205   0.01009
 101        5PX         0.00000   0.00432  -0.01025   0.00000   0.00000
 102        5PY         0.00264   0.00000   0.00000  -0.00723   0.00675
 103        5PZ         0.00041   0.00000   0.00000   0.00570  -0.01338
 104        6PX         0.00000   0.01457  -0.01686   0.00000   0.00000
 105        6PY        -0.00040   0.00000   0.00000   0.02238   0.15144
 106        6PZ        -0.00222   0.00000   0.00000   0.03750   0.01831
 107        7PX         0.00000   0.00258   0.00882   0.00000   0.00000
 108        7PY         0.01935   0.00000   0.00000   0.04065   0.07028
 109        7PZ        -0.00129   0.00000   0.00000   0.06228   0.00616
 110        8D 0       -0.00094   0.00000   0.00000   0.00262  -0.01088
 111        8D+1        0.00000   0.00138  -0.00285   0.00000   0.00000
 112        8D-1        0.00002   0.00000   0.00000   0.00260  -0.00468
 113        8D+2       -0.00055   0.00000   0.00000   0.00210  -0.00762
 114        8D-2        0.00000   0.00149  -0.00491   0.00000   0.00000
 115        9D 0       -0.00085   0.00000   0.00000   0.00173  -0.00450
 116        9D+1        0.00000   0.00038  -0.00049   0.00000   0.00000
 117        9D-1       -0.00050   0.00000   0.00000   0.01134   0.02831
 118        9D+2        0.00061   0.00000   0.00000   0.00160  -0.02348
 119        9D-2        0.00000   0.00275   0.00383   0.00000   0.00000
 120 4   H  1S         -0.05092   0.00000   0.00000  -0.03165  -0.17737
 121        2S         -0.08753   0.00000   0.00000   0.09151  -0.55826
 122        3S         -0.16107   0.00000   0.00000   0.26205  -0.27911
 123        4S         -0.01595   0.00000   0.00000   0.01205  -0.01009
 124        5PX         0.00000   0.00432  -0.01025   0.00000   0.00000
 125        5PY         0.00264   0.00000   0.00000   0.00723   0.00675
 126        5PZ        -0.00041   0.00000   0.00000   0.00570   0.01338
 127        6PX         0.00000   0.01457  -0.01686   0.00000   0.00000
 128        6PY        -0.00040   0.00000   0.00000  -0.02238   0.15144
 129        6PZ         0.00222   0.00000   0.00000   0.03750  -0.01831
 130        7PX         0.00000   0.00258   0.00882   0.00000   0.00000
 131        7PY         0.01935   0.00000   0.00000  -0.04065   0.07028
 132        7PZ         0.00129   0.00000   0.00000   0.06228  -0.00616
 133        8D 0        0.00094   0.00000   0.00000   0.00262   0.01088
 134        8D+1        0.00000   0.00138  -0.00285   0.00000   0.00000
 135        8D-1        0.00002   0.00000   0.00000  -0.00260  -0.00468
 136        8D+2        0.00055   0.00000   0.00000   0.00210   0.00762
 137        8D-2        0.00000  -0.00149   0.00491   0.00000   0.00000
 138        9D 0        0.00085   0.00000   0.00000   0.00173   0.00450
 139        9D+1        0.00000   0.00038  -0.00049   0.00000   0.00000
 140        9D-1       -0.00050   0.00000   0.00000  -0.01134   0.02831
 141        9D+2       -0.00061   0.00000   0.00000   0.00160   0.02348
 142        9D-2        0.00000  -0.00275  -0.00383   0.00000   0.00000
                          16        17        18        19        20
     Eigenvalues --     0.02006   0.01795   0.01696   0.01595   0.01330
   1 1   C  1S         -0.14695   0.00000   0.09155   0.00000   0.00000
   2        2S          0.56476   0.00000  -0.34768   0.00000   0.00000
   3        3S          0.30490   0.00000  -0.20217   0.00000   0.00000
   4        4S          0.13472   0.00000  -0.32869   0.00000   0.00000
   5        5S         -0.03212   0.00000  -0.08362   0.00000   0.00000
   6        6PX         0.00000   0.00000   0.00000   0.00000   0.08760
   7        6PY         0.00000   0.00000   0.00000   0.46031   0.00000
   8        6PZ        -0.30772   0.00000   0.03390   0.00000   0.00000
   9        7PX         0.00000   0.00000   0.00000   0.00000   0.10864
  10        7PY         0.00000   0.00000   0.00000   0.79630   0.00000
  11        7PZ        -0.54158   0.00000  -0.01348   0.00000   0.00000
  12        8PX         0.00000   0.00000   0.00000   0.00000   0.04536
  13        8PY         0.00000   0.00000   0.00000   0.56015   0.00000
  14        8PZ        -0.25582   0.00000   0.02884   0.00000   0.00000
  15        9PX         0.00000   0.00000   0.00000   0.00000  -0.01010
  16        9PY         0.00000   0.00000   0.00000   0.03121   0.00000
  17        9PZ        -0.02532   0.00000  -0.00909   0.00000   0.00000
  18       10D 0       -0.00178   0.00000   0.00558   0.00000   0.00000
  19       10D+1        0.00000   0.00000   0.00000   0.00000  -0.14478
  20       10D-1        0.00000   0.00000   0.00000  -0.08325   0.00000
  21       10D+2        0.03440   0.00000   0.03574   0.00000   0.00000
  22       10D-2        0.00000   0.04240   0.00000   0.00000   0.00000
  23       11D 0       -0.05325   0.00000   0.02039   0.00000   0.00000
  24       11D+1        0.00000   0.00000   0.00000   0.00000  -0.26472
  25       11D-1        0.00000   0.00000   0.00000  -0.33086   0.00000
  26       11D+2        0.04406   0.00000   0.10173   0.00000   0.00000
  27       11D-2        0.00000   0.08386   0.00000   0.00000   0.00000
  28       12D 0       -0.06375   0.00000  -0.01973   0.00000   0.00000
  29       12D+1        0.00000   0.00000   0.00000   0.00000  -0.04438
  30       12D-1        0.00000   0.00000   0.00000  -0.06875   0.00000
  31       12D+2       -0.04745   0.00000   0.02044   0.00000   0.00000
  32       12D-2        0.00000   0.00790   0.00000   0.00000   0.00000
  33       13F 0       -0.01559   0.00000   0.00369   0.00000   0.00000
  34       13F+1        0.00000   0.00000   0.00000   0.00000  -0.04959
  35       13F-1        0.00000   0.00000   0.00000  -0.02173   0.00000
  36       13F+2        0.01794   0.00000   0.02129   0.00000   0.00000
  37       13F-2        0.00000   0.02488   0.00000   0.00000   0.00000
  38       13F+3        0.00000   0.00000   0.00000   0.00000  -0.01094
  39       13F-3        0.00000   0.00000   0.00000  -0.01965   0.00000
  40       14F 0       -0.01139   0.00000  -0.02018   0.00000   0.00000
  41       14F+1        0.00000   0.00000   0.00000   0.00000  -0.02934
  42       14F-1        0.00000   0.00000   0.00000   0.00034   0.00000
  43       14F+2        0.02511   0.00000  -0.01069   0.00000   0.00000
  44       14F-2        0.00000   0.01991   0.00000   0.00000   0.00000
  45       14F+3        0.00000   0.00000   0.00000   0.00000  -0.00286
  46       14F-3        0.00000   0.00000   0.00000  -0.04937   0.00000
  47 2   S  1S          0.00189   0.00000   0.00484   0.00000   0.00000
  48        2S         -0.00661   0.00000  -0.04213   0.00000   0.00000
  49        3S          0.02089   0.00000   0.01098   0.00000   0.00000
  50        4S         -0.00783   0.00000   0.04192   0.00000   0.00000
  51        5S          0.37964   0.00000   0.11678   0.00000   0.00000
  52        6S          0.16740   0.00000   0.09021   0.00000   0.00000
  53        7PX         0.00000   0.00000   0.00000   0.00000   0.03142
  54        7PY         0.00000   0.00000   0.00000   0.03468   0.00000
  55        7PZ        -0.01493   0.00000   0.04933   0.00000   0.00000
  56        8PX         0.00000   0.00000   0.00000   0.00000   0.00284
  57        8PY         0.00000   0.00000   0.00000  -0.03641   0.00000
  58        8PZ        -0.11553   0.00000  -0.15327   0.00000   0.00000
  59        9PX         0.00000   0.00000   0.00000   0.00000  -0.05798
  60        9PY         0.00000   0.00000   0.00000  -0.05256   0.00000
  61        9PZ         0.03331   0.00000  -0.06090   0.00000   0.00000
  62       10PX         0.00000   0.00000   0.00000   0.00000   0.19275
  63       10PY         0.00000   0.00000   0.00000   0.03956   0.00000
  64       10PZ        -0.28550   0.00000  -0.06131   0.00000   0.00000
  65       11PX         0.00000   0.00000   0.00000   0.00000   0.02061
  66       11PY         0.00000   0.00000   0.00000   0.02937   0.00000
  67       11PZ        -0.02527   0.00000  -0.01070   0.00000   0.00000
  68       12D 0        0.04387   0.00000   0.13517   0.00000   0.00000
  69       12D+1        0.00000   0.00000   0.00000   0.00000   0.45022
  70       12D-1        0.00000   0.00000   0.00000   0.40200   0.00000
  71       12D+2        0.16593   0.00000   0.56438   0.00000   0.00000
  72       12D-2        0.00000   0.59627   0.00000   0.00000   0.00000
  73       13D 0       -0.03267   0.00000   0.06588   0.00000   0.00000
  74       13D+1        0.00000   0.00000   0.00000   0.00000   0.42882
  75       13D-1        0.00000   0.00000   0.00000   0.28932   0.00000
  76       13D+2        0.11979   0.00000   0.40803   0.00000   0.00000
  77       13D-2        0.00000   0.44189   0.00000   0.00000   0.00000
  78       14D 0        0.06147   0.00000   0.03820   0.00000   0.00000
  79       14D+1        0.00000   0.00000   0.00000   0.00000  -0.06680
  80       14D-1        0.00000   0.00000   0.00000   0.06042   0.00000
  81       14D+2        0.01731   0.00000   0.04545   0.00000   0.00000
  82       14D-2        0.00000   0.04889   0.00000   0.00000   0.00000
  83       15F 0        0.00058   0.00000   0.00316   0.00000   0.00000
  84       15F+1        0.00000   0.00000   0.00000   0.00000  -0.05961
  85       15F-1        0.00000   0.00000   0.00000   0.00475   0.00000
  86       15F+2       -0.01545   0.00000  -0.01981   0.00000   0.00000
  87       15F-2        0.00000  -0.00681   0.00000   0.00000   0.00000
  88       15F+3        0.00000   0.00000   0.00000   0.00000  -0.02191
  89       15F-3        0.00000   0.00000   0.00000  -0.00158   0.00000
  90       16F 0       -0.02801   0.00000  -0.01819   0.00000   0.00000
  91       16F+1        0.00000   0.00000   0.00000   0.00000   0.02521
  92       16F-1        0.00000   0.00000   0.00000  -0.02633   0.00000
  93       16F+2       -0.00938   0.00000  -0.02563   0.00000   0.00000
  94       16F-2        0.00000  -0.01179   0.00000   0.00000   0.00000
  95       16F+3        0.00000   0.00000   0.00000   0.00000  -0.00916
  96       16F-3        0.00000   0.00000   0.00000   0.00131   0.00000
  97 3   H  1S         -0.23722   0.00000   0.07342   0.08210   0.00000
  98        2S         -0.58885   0.00000   0.25003   0.74798   0.00000
  99        3S         -0.27888   0.00000   0.12658   0.75939   0.00000
 100        4S         -0.01109   0.00000   0.00244   0.05169   0.00000
 101        5PX         0.00000  -0.00916   0.00000   0.00000   0.02584
 102        5PY         0.01834   0.00000  -0.01121  -0.03358   0.00000
 103        5PZ        -0.00543   0.00000  -0.01144  -0.02008   0.00000
 104        6PX         0.00000  -0.01380   0.00000   0.00000   0.03695
 105        6PY        -0.05412   0.00000   0.00277   0.10869   0.00000
 106        6PZ        -0.03793   0.00000   0.01219   0.07183   0.00000
 107        7PX         0.00000  -0.00140   0.00000   0.00000  -0.01015
 108        7PY        -0.01722   0.00000   0.01966   0.12727   0.00000
 109        7PZ        -0.04374   0.00000  -0.00514   0.07912   0.00000
 110        8D 0       -0.00801   0.00000   0.00185   0.00407   0.00000
 111        8D+1        0.00000  -0.00310   0.00000   0.00000   0.00220
 112        8D-1        0.00580   0.00000  -0.00553  -0.00930   0.00000
 113        8D+2       -0.00656   0.00000   0.00604   0.01024   0.00000
 114        8D-2        0.00000  -0.00770   0.00000   0.00000   0.01626
 115        9D 0        0.00402   0.00000   0.00266  -0.00819   0.00000
 116        9D+1        0.00000   0.00202   0.00000   0.00000  -0.00167
 117        9D-1        0.00082   0.00000  -0.00055   0.00515   0.00000
 118        9D+2        0.00967   0.00000   0.00929  -0.00409   0.00000
 119        9D-2        0.00000  -0.00021   0.00000   0.00000  -0.00549
 120 4   H  1S         -0.23722   0.00000   0.07342  -0.08210   0.00000
 121        2S         -0.58885   0.00000   0.25003  -0.74798   0.00000
 122        3S         -0.27888   0.00000   0.12658  -0.75939   0.00000
 123        4S         -0.01109   0.00000   0.00244  -0.05169   0.00000
 124        5PX         0.00000   0.00916   0.00000   0.00000   0.02584
 125        5PY        -0.01834   0.00000   0.01121  -0.03358   0.00000
 126        5PZ        -0.00543   0.00000  -0.01144   0.02008   0.00000
 127        6PX         0.00000   0.01380   0.00000   0.00000   0.03695
 128        6PY         0.05412   0.00000  -0.00277   0.10869   0.00000
 129        6PZ        -0.03793   0.00000   0.01219  -0.07183   0.00000
 130        7PX         0.00000   0.00140   0.00000   0.00000  -0.01015
 131        7PY         0.01722   0.00000  -0.01966   0.12727   0.00000
 132        7PZ        -0.04374   0.00000  -0.00514  -0.07912   0.00000
 133        8D 0       -0.00801   0.00000   0.00185  -0.00407   0.00000
 134        8D+1        0.00000   0.00310   0.00000   0.00000   0.00220
 135        8D-1       -0.00580   0.00000   0.00553  -0.00930   0.00000
 136        8D+2       -0.00656   0.00000   0.00604  -0.01024   0.00000
 137        8D-2        0.00000  -0.00770   0.00000   0.00000  -0.01626
 138        9D 0        0.00402   0.00000   0.00266   0.00819   0.00000
 139        9D+1        0.00000  -0.00202   0.00000   0.00000  -0.00167
 140        9D-1       -0.00082   0.00000   0.00055   0.00515   0.00000
 141        9D+2        0.00967   0.00000   0.00929   0.00409   0.00000
 142        9D-2        0.00000  -0.00021   0.00000   0.00000   0.00549
                          21        22        23        24        25
     Eigenvalues --     0.01203   0.01031   0.00821   0.00671   0.00646
   1 1   C  1S          0.01194   0.00000  -0.03666   0.00000   0.00000
   2        2S         -0.01326   0.00000   0.12962   0.00000   0.00000
   3        3S          0.00021   0.00000   0.12363   0.00000   0.00000
   4        4S         -0.15348   0.00000  -0.07967   0.00000   0.00000
   5        5S         -0.07053   0.00000  -0.03566   0.00000   0.00000
   6        6PX         0.00000   0.00000   0.00000   0.38958   0.00000
   7        6PY         0.00000   0.14316   0.00000   0.00000   0.00000
   8        6PZ        -0.11439   0.00000  -0.12761   0.00000   0.00000
   9        7PX         0.00000   0.00000   0.00000   0.45937   0.00000
  10        7PY         0.00000   0.41508   0.00000   0.00000   0.00000
  11        7PZ        -0.25026   0.00000  -0.12046   0.00000   0.00000
  12        8PX         0.00000   0.00000   0.00000  -0.19408   0.00000
  13        8PY         0.00000  -1.09946   0.00000   0.00000   0.00000
  14        8PZ         0.27385   0.00000   0.34953   0.00000   0.00000
  15        9PX         0.00000   0.00000   0.00000  -0.01175   0.00000
  16        9PY         0.00000  -0.10774   0.00000   0.00000   0.00000
  17        9PZ         0.01159   0.00000   0.00607   0.00000   0.00000
  18       10D 0        0.18471   0.00000  -0.09179   0.00000   0.00000
  19       10D+1        0.00000   0.00000   0.00000   0.07960   0.00000
  20       10D-1        0.00000  -0.02950   0.00000   0.00000   0.00000
  21       10D+2       -0.00798   0.00000  -0.15714   0.00000   0.00000
  22       10D-2        0.00000   0.00000   0.00000   0.00000   0.30727
  23       11D 0        0.28421   0.00000  -0.22328   0.00000   0.00000
  24       11D+1        0.00000   0.00000   0.00000   0.10626   0.00000
  25       11D-1        0.00000  -0.27048   0.00000   0.00000   0.00000
  26       11D+2       -0.05747   0.00000  -0.31669   0.00000   0.00000
  27       11D-2        0.00000   0.00000   0.00000   0.00000   0.45431
  28       12D 0        0.06978   0.00000   0.15677   0.00000   0.00000
  29       12D+1        0.00000   0.00000   0.00000   0.06809   0.00000
  30       12D-1        0.00000   0.14792   0.00000   0.00000   0.00000
  31       12D+2        0.04227   0.00000   0.08687   0.00000   0.00000
  32       12D-2        0.00000   0.00000   0.00000   0.00000   0.03930
  33       13F 0        0.04580   0.00000   0.01281   0.00000   0.00000
  34       13F+1        0.00000   0.00000   0.00000   0.06382   0.00000
  35       13F-1        0.00000   0.04907   0.00000   0.00000   0.00000
  36       13F+2       -0.00220   0.00000   0.01827   0.00000   0.00000
  37       13F-2        0.00000   0.00000   0.00000   0.00000  -0.02483
  38       13F+3        0.00000   0.00000   0.00000  -0.02280   0.00000
  39       13F-3        0.00000  -0.00996   0.00000   0.00000   0.00000
  40       14F 0        0.05492   0.00000   0.01510   0.00000   0.00000
  41       14F+1        0.00000   0.00000   0.00000  -0.00278   0.00000
  42       14F-1        0.00000  -0.14844   0.00000   0.00000   0.00000
  43       14F+2       -0.01474   0.00000   0.01394   0.00000   0.00000
  44       14F-2        0.00000   0.00000   0.00000   0.00000   0.08043
  45       14F+3        0.00000   0.00000   0.00000  -0.02034   0.00000
  46       14F-3        0.00000  -0.01830   0.00000   0.00000   0.00000
  47 2   S  1S          0.03243   0.00000   0.06172   0.00000   0.00000
  48        2S         -0.13013   0.00000  -0.22380   0.00000   0.00000
  49        3S          0.33489   0.00000   0.76562   0.00000   0.00000
  50        4S          0.19813   0.00000   0.53205   0.00000   0.00000
  51        5S         -0.67952   0.00000  -1.32245   0.00000   0.00000
  52        6S         -0.17249   0.00000  -0.16313   0.00000   0.00000
  53        7PX         0.00000   0.00000   0.00000  -0.20514   0.00000
  54        7PY         0.00000  -0.32058   0.00000   0.00000   0.00000
  55        7PZ         0.12702   0.00000  -0.08780   0.00000   0.00000
  56        8PX         0.00000   0.00000   0.00000   0.34899   0.00000
  57        8PY         0.00000   0.59442   0.00000   0.00000   0.00000
  58        8PZ        -0.12161   0.00000  -0.02620   0.00000   0.00000
  59        9PX         0.00000   0.00000   0.00000   0.37849   0.00000
  60        9PY         0.00000   0.60654   0.00000   0.00000   0.00000
  61        9PZ        -0.20263   0.00000   0.16978   0.00000   0.00000
  62       10PX         0.00000   0.00000   0.00000  -0.81932   0.00000
  63       10PY         0.00000  -0.85803   0.00000   0.00000   0.00000
  64       10PZ         0.39357   0.00000  -0.02820   0.00000   0.00000
  65       11PX         0.00000   0.00000   0.00000  -0.02799   0.00000
  66       11PY         0.00000  -0.09846   0.00000   0.00000   0.00000
  67       11PZ         0.03671   0.00000  -0.00250   0.00000   0.00000
  68       12D 0        0.36501   0.00000   0.03501   0.00000   0.00000
  69       12D+1        0.00000   0.00000   0.00000   0.21280   0.00000
  70       12D-1        0.00000  -0.28638   0.00000   0.00000   0.00000
  71       12D+2       -0.06522   0.00000   0.13413   0.00000   0.00000
  72       12D-2        0.00000   0.00000   0.00000   0.00000  -0.17687
  73       13D 0        0.35301   0.00000  -0.01780   0.00000   0.00000
  74       13D+1        0.00000   0.00000   0.00000   0.09331   0.00000
  75       13D-1        0.00000  -0.07987   0.00000   0.00000   0.00000
  76       13D+2       -0.05868   0.00000   0.04024   0.00000   0.00000
  77       13D-2        0.00000   0.00000   0.00000   0.00000  -0.14559
  78       14D 0       -0.09095   0.00000  -0.01266   0.00000   0.00000
  79       14D+1        0.00000   0.00000   0.00000   0.15751   0.00000
  80       14D-1        0.00000   0.03524   0.00000   0.00000   0.00000
  81       14D+2        0.00046   0.00000   0.01395   0.00000   0.00000
  82       14D-2        0.00000   0.00000   0.00000   0.00000  -0.01865
  83       15F 0       -0.06305   0.00000   0.00710   0.00000   0.00000
  84       15F+1        0.00000   0.00000   0.00000   0.07998   0.00000
  85       15F-1        0.00000   0.00372   0.00000   0.00000   0.00000
  86       15F+2       -0.00214   0.00000   0.00953   0.00000   0.00000
  87       15F-2        0.00000   0.00000   0.00000   0.00000  -0.09593
  88       15F+3        0.00000   0.00000   0.00000  -0.06172   0.00000
  89       15F-3        0.00000  -0.01414   0.00000   0.00000   0.00000
  90       16F 0       -0.00567   0.00000   0.00760   0.00000   0.00000
  91       16F+1        0.00000   0.00000   0.00000  -0.07923   0.00000
  92       16F-1        0.00000   0.03979   0.00000   0.00000   0.00000
  93       16F+2       -0.00032   0.00000   0.00814   0.00000   0.00000
  94       16F-2        0.00000   0.00000   0.00000   0.00000   0.01044
  95       16F+3        0.00000   0.00000   0.00000  -0.01393   0.00000
  96       16F-3        0.00000   0.01751   0.00000   0.00000   0.00000
  97 3   H  1S         -0.00981   0.01574   0.14528   0.00000   0.00000
  98        2S         -0.04634   0.25633  -0.11918   0.00000   0.00000
  99        3S          0.31208  -1.35970   0.11423   0.00000   0.00000
 100        4S          0.02087  -0.12816   0.00417   0.00000   0.00000
 101        5PX         0.00000   0.00000   0.00000  -0.00040  -0.09536
 102        5PY         0.01759  -0.01469   0.02475   0.00000   0.00000
 103        5PZ        -0.02944  -0.00486   0.06150   0.00000   0.00000
 104        6PX         0.00000   0.00000   0.00000  -0.09326  -0.20842
 105        6PY         0.00851   0.08043  -0.01978   0.00000   0.00000
 106        6PZ        -0.06848   0.15160   0.03089   0.00000   0.00000
 107        7PX         0.00000   0.00000   0.00000  -0.02331  -0.01581
 108        7PY         0.03091  -0.24985  -0.03378   0.00000   0.00000
 109        7PZ         0.05115  -0.10366   0.10876   0.00000   0.00000
 110        8D 0       -0.01220  -0.00164   0.01295   0.00000   0.00000
 111        8D+1        0.00000   0.00000   0.00000   0.00248  -0.03463
 112        8D-1       -0.01192  -0.00162   0.02086   0.00000   0.00000
 113        8D+2       -0.01334  -0.00002  -0.00645   0.00000   0.00000
 114        8D-2        0.00000   0.00000   0.00000  -0.00412  -0.05100
 115        9D 0        0.00596   0.00331   0.00079   0.00000   0.00000
 116        9D+1        0.00000   0.00000   0.00000  -0.04076   0.01256
 117        9D-1       -0.01817   0.05091   0.00735   0.00000   0.00000
 118        9D+2        0.00409  -0.02239  -0.01129   0.00000   0.00000
 119        9D-2        0.00000   0.00000   0.00000  -0.02854  -0.02449
 120 4   H  1S         -0.00981  -0.01574   0.14528   0.00000   0.00000
 121        2S         -0.04634  -0.25633  -0.11918   0.00000   0.00000
 122        3S          0.31208   1.35970   0.11423   0.00000   0.00000
 123        4S          0.02087   0.12816   0.00417   0.00000   0.00000
 124        5PX         0.00000   0.00000   0.00000  -0.00040   0.09536
 125        5PY        -0.01759  -0.01469  -0.02475   0.00000   0.00000
 126        5PZ        -0.02944   0.00486   0.06150   0.00000   0.00000
 127        6PX         0.00000   0.00000   0.00000  -0.09326   0.20842
 128        6PY        -0.00851   0.08043   0.01978   0.00000   0.00000
 129        6PZ        -0.06848  -0.15160   0.03089   0.00000   0.00000
 130        7PX         0.00000   0.00000   0.00000  -0.02331   0.01581
 131        7PY        -0.03091  -0.24985   0.03378   0.00000   0.00000
 132        7PZ         0.05115   0.10366   0.10876   0.00000   0.00000
 133        8D 0       -0.01220   0.00164   0.01295   0.00000   0.00000
 134        8D+1        0.00000   0.00000   0.00000   0.00248   0.03463
 135        8D-1        0.01192  -0.00162  -0.02086   0.00000   0.00000
 136        8D+2       -0.01334   0.00002  -0.00645   0.00000   0.00000
 137        8D-2        0.00000   0.00000   0.00000   0.00412  -0.05100
 138        9D 0        0.00596  -0.00331   0.00079   0.00000   0.00000
 139        9D+1        0.00000   0.00000   0.00000  -0.04076  -0.01256
 140        9D-1        0.01817   0.05091  -0.00735   0.00000   0.00000
 141        9D+2        0.00409   0.02239  -0.01129   0.00000   0.00000
 142        9D-2        0.00000   0.00000   0.00000   0.02854  -0.02449
                          26        27        28        29        30
     Eigenvalues --     0.00602   0.00491   0.00466   0.00355   0.00234
   1 1   C  1S          0.03690   0.00000   0.12891   0.00000  -0.01380
   2        2S         -0.12388   0.00000  -0.51649   0.00000   0.07991
   3        3S         -0.12693   0.00000  -0.41386   0.00000   0.03897
   4        4S          0.29251   0.00000  -0.77038   0.00000   0.86344
   5        5S          0.07862   0.00000  -0.37853   0.00000   0.27720
   6        6PX         0.00000   0.00000   0.00000   0.12325   0.00000
   7        6PY         0.00000  -0.06240   0.00000   0.00000   0.00000
   8        6PZ         0.21602   0.00000  -0.39312   0.00000   0.03368
   9        7PX         0.00000   0.00000   0.00000   0.11664   0.00000
  10        7PY         0.00000   0.07866   0.00000   0.00000   0.00000
  11        7PZ         0.27330   0.00000  -0.46949   0.00000   0.11104
  12        8PX         0.00000   0.00000   0.00000   0.42838   0.00000
  13        8PY         0.00000   0.27901   0.00000   0.00000   0.00000
  14        8PZ         0.62054   0.00000  -0.24251   0.00000  -0.06142
  15        9PX         0.00000   0.00000   0.00000   0.02151   0.00000
  16        9PY         0.00000   0.00230   0.00000   0.00000   0.00000
  17        9PZ         0.04612   0.00000  -0.09332   0.00000   0.01216
  18       10D 0        0.01950   0.00000  -0.18821   0.00000   0.07201
  19       10D+1        0.00000   0.00000   0.00000   0.32743   0.00000
  20       10D-1        0.00000   0.27592   0.00000   0.00000   0.00000
  21       10D+2        0.20006   0.00000   0.05934   0.00000  -0.16125
  22       10D-2        0.00000   0.00000   0.00000   0.00000   0.00000
  23       11D 0        0.10875   0.00000  -0.37022   0.00000   0.05284
  24       11D+1        0.00000   0.00000   0.00000   0.60669   0.00000
  25       11D-1        0.00000   0.56961   0.00000   0.00000   0.00000
  26       11D+2        0.43935   0.00000   0.07096   0.00000  -0.36680
  27       11D-2        0.00000   0.00000   0.00000   0.00000   0.00000
  28       12D 0        0.20117   0.00000   0.19125   0.00000  -0.25186
  29       12D+1        0.00000   0.00000   0.00000   0.13080   0.00000
  30       12D-1        0.00000   0.37847   0.00000   0.00000   0.00000
  31       12D+2        0.11430   0.00000   0.10330   0.00000  -0.28177
  32       12D-2        0.00000   0.00000   0.00000   0.00000   0.00000
  33       13F 0       -0.02950   0.00000  -0.06136   0.00000  -0.10536
  34       13F+1        0.00000   0.00000   0.00000  -0.01225   0.00000
  35       13F-1        0.00000  -0.05787   0.00000   0.00000   0.00000
  36       13F+2       -0.01735   0.00000  -0.02771   0.00000  -0.19398
  37       13F-2        0.00000   0.00000   0.00000   0.00000   0.00000
  38       13F+3        0.00000   0.00000   0.00000   0.05815   0.00000
  39       13F-3        0.00000   0.01171   0.00000   0.00000   0.00000
  40       14F 0       -0.10335   0.00000  -0.11676   0.00000  -0.11243
  41       14F+1        0.00000   0.00000   0.00000   0.04849   0.00000
  42       14F-1        0.00000   0.00632   0.00000   0.00000   0.00000
  43       14F+2       -0.05740   0.00000  -0.08619   0.00000  -0.20296
  44       14F-2        0.00000   0.00000   0.00000   0.00000   0.00000
  45       14F+3        0.00000   0.00000   0.00000   0.02241   0.00000
  46       14F-3        0.00000   0.05482   0.00000   0.00000   0.00000
  47 2   S  1S          0.05187   0.00000   0.00438   0.00000   0.00593
  48        2S         -0.16490   0.00000  -0.01783   0.00000  -0.02401
  49        3S          0.70519   0.00000   0.04124   0.00000   0.11090
  50        4S          0.51428   0.00000  -0.02142   0.00000   0.15806
  51        5S         -2.00653   0.00000   0.69837   0.00000  -0.31789
  52        6S         -0.36169   0.00000   0.69232   0.00000  -0.22177
  53        7PX         0.00000   0.00000   0.00000   0.16884   0.00000
  54        7PY         0.00000  -0.06666   0.00000   0.00000   0.00000
  55        7PZ        -0.17199   0.00000  -0.00705   0.00000  -0.08206
  56        8PX         0.00000   0.00000   0.00000  -0.28271   0.00000
  57        8PY         0.00000  -0.03512   0.00000   0.00000   0.00000
  58        8PZ         0.22537   0.00000  -0.34604   0.00000  -0.03757
  59        9PX         0.00000   0.00000   0.00000  -0.33378   0.00000
  60        9PY         0.00000   0.16720   0.00000   0.00000   0.00000
  61        9PZ         0.33970   0.00000   0.03918   0.00000   0.17342
  62       10PX         0.00000   0.00000   0.00000  -0.02483   0.00000
  63       10PY         0.00000  -0.99146   0.00000   0.00000   0.00000
  64       10PZ         0.30674   0.00000  -1.00017   0.00000   0.33428
  65       11PX         0.00000   0.00000   0.00000  -0.00136   0.00000
  66       11PY         0.00000  -0.06287   0.00000   0.00000   0.00000
  67       11PZ         0.02065   0.00000  -0.10232   0.00000   0.04086
  68       12D 0       -0.18827   0.00000   0.66327   0.00000  -0.12891
  69       12D+1        0.00000   0.00000   0.00000   0.45914   0.00000
  70       12D-1        0.00000   0.46737   0.00000   0.00000   0.00000
  71       12D+2       -0.03971   0.00000  -0.04568   0.00000   0.14151
  72       12D-2        0.00000   0.00000   0.00000   0.00000   0.00000
  73       13D 0       -0.13989   0.00000   0.37904   0.00000  -0.02916
  74       13D+1        0.00000   0.00000   0.00000   0.31106   0.00000
  75       13D-1        0.00000   0.33172   0.00000   0.00000   0.00000
  76       13D+2       -0.14696   0.00000  -0.08873   0.00000   0.18083
  77       13D-2        0.00000   0.00000   0.00000   0.00000   0.00000
  78       14D 0       -0.09682   0.00000   0.29061   0.00000  -0.10716
  79       14D+1        0.00000   0.00000   0.00000   0.11142   0.00000
  80       14D-1        0.00000   0.23949   0.00000   0.00000   0.00000
  81       14D+2        0.01911   0.00000  -0.00495   0.00000   0.03304
  82       14D-2        0.00000   0.00000   0.00000   0.00000   0.00000
  83       15F 0       -0.01558   0.00000   0.15029   0.00000   0.13803
  84       15F+1        0.00000   0.00000   0.00000   0.10703   0.00000
  85       15F-1        0.00000   0.16388   0.00000   0.00000   0.00000
  86       15F+2       -0.05858   0.00000  -0.04254   0.00000   0.37871
  87       15F-2        0.00000   0.00000   0.00000   0.00000   0.00000
  88       15F+3        0.00000   0.00000   0.00000   0.01693   0.00000
  89       15F-3        0.00000  -0.01626   0.00000   0.00000   0.00000
  90       16F 0        0.03847   0.00000  -0.11096   0.00000   0.07269
  91       16F+1        0.00000   0.00000   0.00000  -0.08202   0.00000
  92       16F-1        0.00000  -0.07179   0.00000   0.00000   0.00000
  93       16F+2        0.01250   0.00000  -0.03198   0.00000   0.05147
  94       16F-2        0.00000   0.00000   0.00000   0.00000   0.00000
  95       16F+3        0.00000   0.00000   0.00000  -0.01754   0.00000
  96       16F-3        0.00000  -0.00807   0.00000   0.00000   0.00000
  97 3   H  1S         -0.10222   0.22122  -0.08749   0.00000  -0.29461
  98        2S          0.42353  -0.28152   0.04650   0.00000  -0.12510
  99        3S          0.46956  -0.74622   0.03088   0.00000  -0.12767
 100        4S          0.01209  -0.02031  -0.01746   0.00000  -0.01154
 101        5PX         0.00000   0.00000   0.00000  -0.09389   0.00000
 102        5PY        -0.03134   0.10258  -0.03003   0.00000  -0.03616
 103        5PZ        -0.05956   0.00197   0.02683   0.00000  -0.01610
 104        6PX         0.00000   0.00000   0.00000  -0.13358   0.00000
 105        6PY         0.06267   0.08249  -0.06262   0.00000  -0.01157
 106        6PZ         0.00939  -0.06374   0.03738   0.00000  -0.08490
 107        7PX         0.00000   0.00000   0.00000  -0.00786   0.00000
 108        7PY         0.02347  -0.06227  -0.10007   0.00000   0.13242
 109        7PZ         0.12434   0.03880   0.08719   0.00000  -0.12730
 110        8D 0       -0.01463  -0.02275   0.00704   0.00000   0.00162
 111        8D+1        0.00000   0.00000   0.00000  -0.01465   0.00000
 112        8D-1       -0.01822   0.01111   0.00766   0.00000  -0.02257
 113        8D+2        0.01129  -0.03005   0.02020   0.00000   0.00757
 114        8D-2        0.00000   0.00000   0.00000  -0.05132   0.00000
 115        9D 0       -0.00467  -0.02007  -0.01757   0.00000  -0.01340
 116        9D+1        0.00000   0.00000   0.00000   0.00009   0.00000
 117        9D-1        0.01654   0.02182   0.01432   0.00000  -0.00181
 118        9D+2        0.02526  -0.03190   0.03252   0.00000  -0.01062
 119        9D-2        0.00000   0.00000   0.00000   0.01106   0.00000
 120 4   H  1S         -0.10222  -0.22122  -0.08749   0.00000  -0.29461
 121        2S          0.42353   0.28152   0.04650   0.00000  -0.12510
 122        3S          0.46956   0.74622   0.03088   0.00000  -0.12767
 123        4S          0.01209   0.02031  -0.01746   0.00000  -0.01154
 124        5PX         0.00000   0.00000   0.00000  -0.09389   0.00000
 125        5PY         0.03134   0.10258   0.03003   0.00000   0.03616
 126        5PZ        -0.05956  -0.00197   0.02683   0.00000  -0.01610
 127        6PX         0.00000   0.00000   0.00000  -0.13358   0.00000
 128        6PY        -0.06267   0.08249   0.06262   0.00000   0.01157
 129        6PZ         0.00939   0.06374   0.03738   0.00000  -0.08490
 130        7PX         0.00000   0.00000   0.00000  -0.00786   0.00000
 131        7PY        -0.02347  -0.06227   0.10007   0.00000  -0.13242
 132        7PZ         0.12434  -0.03880   0.08719   0.00000  -0.12730
 133        8D 0       -0.01463   0.02275   0.00704   0.00000   0.00162
 134        8D+1        0.00000   0.00000   0.00000  -0.01465   0.00000
 135        8D-1        0.01822   0.01111  -0.00766   0.00000   0.02257
 136        8D+2        0.01129   0.03005   0.02020   0.00000   0.00757
 137        8D-2        0.00000   0.00000   0.00000   0.05132   0.00000
 138        9D 0       -0.00467   0.02007  -0.01757   0.00000  -0.01340
 139        9D+1        0.00000   0.00000   0.00000   0.00009   0.00000
 140        9D-1       -0.01654   0.02182  -0.01432   0.00000   0.00181
 141        9D+2        0.02526   0.03190   0.03252   0.00000  -0.01062
 142        9D-2        0.00000   0.00000   0.00000  -0.01106   0.00000
                          31        32        33        34        35
     Eigenvalues --     0.00206   0.00195   0.00194   0.00187   0.00154
   1 1   C  1S          0.00000   0.04412   0.00000   0.00000   0.00000
   2        2S          0.00000  -0.19468   0.00000   0.00000   0.00000
   3        3S          0.00000  -0.18659   0.00000   0.00000   0.00000
   4        4S          0.00000   0.20794   0.00000   0.00000   0.00000
   5        5S          0.00000   0.02076   0.00000   0.00000   0.00000
[...]
 137        8D-2        0.00000   0.00000  -0.17040   0.00000   0.00000
 138        9D 0        0.51419   1.02836   0.00000   0.27580   1.35751
 139        9D+1        0.00000   0.00000   0.07303   0.00000   0.00000
 140        9D-1        0.24392  -0.61469   0.00000  -1.21636  -0.39173
 141        9D+2        0.22280  -0.14622   0.00000   0.47838   1.40672
 142        9D-2        0.00000   0.00000   1.11133   0.00000   0.00000
                         136       137       138       139       140
     Eigenvalues --     0.00000   0.00000   0.00000   0.00000   0.00000
   1 1   C  1S          0.00000   0.43451   0.00000  -0.06699  -0.07717
   2        2S          0.00000   2.55166   0.00000  -0.35714  -0.43417
   3        3S          0.00000  -0.08835   0.00000   0.05427   0.02107
   4        4S          0.00000  25.72945   0.00000 -17.66413  -3.97132
   5        5S          0.00000  16.46728   0.00000  -2.24673   4.51003
   6        6PX         0.00000   0.00000  -0.02145   0.00000   0.00000
   7        6PY        -0.04136   0.00000   0.00000   0.00000   0.00000
   8        6PZ         0.00000   0.05191   0.00000   0.01792   0.01165
   9        7PX         0.00000   0.00000   0.37107   0.00000   0.00000
  10        7PY         3.02735   0.00000   0.00000   0.00000   0.00000
  11        7PZ         0.00000  -2.10906   0.00000   0.26727   0.32305
  12        8PX         0.00000   0.00000   0.12757   0.00000   0.00000
  13        8PY        17.27768   0.00000   0.00000   0.00000   0.00000
  14        8PZ         0.00000  -8.38322   0.00000   0.19748   8.97816
  15        9PX         0.00000   0.00000  -2.88113   0.00000   0.00000
  16        9PY         6.55383   0.00000   0.00000   0.00000   0.00000
  17        9PZ         0.00000  -0.75892   0.00000  -1.78430   5.69873
  18       10D 0        0.00000  -0.00171   0.00000   0.00308  -0.01104
  19       10D+1        0.00000   0.00000  -0.00036   0.00000   0.00000
  20       10D-1       -0.08823   0.00000   0.00000   0.00000   0.00000
  21       10D+2        0.00000  -0.15355   0.00000   0.00519   0.01088
  22       10D-2        0.00000   0.00000   0.00000   0.00000   0.00000
  23       11D 0        0.00000   0.09697   0.00000  -0.25749   0.23336
  24       11D+1        0.00000   0.00000  -0.28684   0.00000   0.00000
  25       11D-1       -1.78010   0.00000   0.00000   0.00000   0.00000
  26       11D+2        0.00000  -1.19642   0.00000   0.54441   0.34869
  27       11D-2        0.00000   0.00000   0.00000   0.00000   0.00000
  28       12D 0        0.00000   3.89308   0.00000   1.04697   1.90543
  29       12D+1        0.00000   0.00000  -2.56195   0.00000   0.00000
  30       12D-1       -6.78956   0.00000   0.00000   0.00000   0.00000
  31       12D+2        0.00000   0.88581   0.00000   1.10115   1.01295
  32       12D-2        0.00000   0.00000   0.00000   0.00000   0.00000
  33       13F 0        0.00000   0.09881   0.00000   0.01863  -0.00151
  34       13F+1        0.00000   0.00000   0.01622   0.00000   0.00000
  35       13F-1        0.06423   0.00000   0.00000   0.00000   0.00000
  36       13F+2        0.00000   0.13659   0.00000  -0.02537  -0.01777
  37       13F-2        0.00000   0.00000   0.00000   0.00000   0.00000
  38       13F+3        0.00000   0.00000  -0.00647   0.00000   0.00000
  39       13F-3       -0.07136   0.00000   0.00000   0.00000   0.00000
  40       14F 0        0.00000  -0.19927   0.00000  -0.65084  -0.04305
  41       14F+1        0.00000   0.00000   0.01647   0.00000   0.00000
  42       14F-1       -0.34003   0.00000   0.00000   0.00000   0.00000
  43       14F+2        0.00000   0.24083   0.00000  -0.25758  -0.12015
  44       14F-2        0.00000   0.00000   0.00000   0.00000   0.00000
  45       14F+3        0.00000   0.00000  -0.02344   0.00000   0.00000
  46       14F-3       -0.17013   0.00000   0.00000   0.00000   0.00000
  47 2   S  1S          0.00000   0.01514   0.00000   0.01347   0.00290
  48        2S          0.00000   0.20035   0.00000   0.20906   0.02270
  49        3S          0.00000   0.63191   0.00000   0.58980   0.11453
  50        4S          0.00000   0.02855   0.00000  -0.08714   0.10199
  51        5S          0.00000  -2.83093   0.00000   1.79759  -5.49352
  52        6S          0.00000  -9.54910   0.00000  -2.62875 -15.85509
  53        7PX         0.00000   0.00000   0.00437   0.00000   0.00000
  54        7PY        -0.00647   0.00000   0.00000   0.00000   0.00000
  55        7PZ         0.00000  -0.00338   0.00000  -0.04150  -0.00559
  56        8PX         0.00000   0.00000  -0.01171   0.00000   0.00000
  57        8PY        -0.09304   0.00000   0.00000   0.00000   0.00000
  58        8PZ         0.00000  -0.24194   0.00000  -1.03358   0.01639
  59        9PX         0.00000   0.00000  -0.02081   0.00000   0.00000
  60        9PY         0.03192   0.00000   0.00000   0.00000   0.00000
  61        9PZ         0.00000  -0.03345   0.00000   0.08314   0.02948
  62       10PX         0.00000   0.00000   2.03813   0.00000   0.00000
  63       10PY         3.82516   0.00000   0.00000   0.00000   0.00000
  64       10PZ         0.00000   3.72320   0.00000   0.41817   6.53255
  65       11PX         0.00000   0.00000   2.71048   0.00000   0.00000
  66       11PY        -0.58161   0.00000   0.00000   0.00000   0.00000
  67       11PZ         0.00000   2.76651   0.00000   2.75130   2.28943
  68       12D 0        0.00000  -0.30771   0.00000   0.67617  -0.28554
  69       12D+1        0.00000   0.00000   0.12389   0.00000   0.00000
  70       12D-1       -0.27313   0.00000   0.00000   0.00000   0.00000
  71       12D+2        0.00000  -0.05477   0.00000   0.02084  -0.02198
  72       12D-2        0.00000   0.00000   0.00000   0.00000   0.00000
  73       13D 0        0.00000   0.06556   0.00000  -0.05090   0.02430
  74       13D+1        0.00000   0.00000  -0.04693   0.00000   0.00000
  75       13D-1       -0.00874   0.00000   0.00000   0.00000   0.00000
  76       13D+2        0.00000   0.01716   0.00000   0.00191   0.00828
  77       13D-2        0.00000   0.00000   0.00000   0.00000   0.00000
  78       14D 0        0.00000  -1.41012   0.00000  -1.15977  -1.52203
  79       14D+1        0.00000   0.00000  -1.80599   0.00000   0.00000
  80       14D-1       -1.79862   0.00000   0.00000   0.00000   0.00000
  81       14D+2        0.00000   0.20790   0.00000   0.22086  -0.05480
  82       14D-2        0.00000   0.00000   0.00000   0.00000   0.00000
  83       15F 0        0.00000  -0.05734   0.00000  -0.03345  -0.01648
  84       15F+1        0.00000   0.00000  -0.02367   0.00000   0.00000
  85       15F-1        0.00463   0.00000   0.00000   0.00000   0.00000
  86       15F+2        0.00000   0.00988   0.00000   0.01293  -0.00950
  87       15F-2        0.00000   0.00000   0.00000   0.00000   0.00000
  88       15F+3        0.00000   0.00000   0.00449   0.00000   0.00000
  89       15F-3        0.02724   0.00000   0.00000   0.00000   0.00000
  90       16F 0        0.00000   0.37467   0.00000  -0.01448   0.13537
  91       16F+1        0.00000   0.00000   0.21925   0.00000   0.00000
  92       16F-1        0.26719   0.00000   0.00000   0.00000   0.00000
  93       16F+2        0.00000  -0.12614   0.00000  -0.11975   0.03844
  94       16F-2        0.00000   0.00000   0.00000   0.00000   0.00000
  95       16F+3        0.00000   0.00000  -0.01510   0.00000   0.00000
  96       16F-3       -0.07847   0.00000   0.00000   0.00000   0.00000
  97 3   H  1S         -0.05111   0.10218   0.00000  -0.01750  -0.01655
  98        2S          3.80032  -3.76425   0.00000   1.54193   0.97560
  99        3S         29.85533 -11.97139   0.00000   9.31650   8.24180
 100        4S          5.34294  -1.31491   0.00000   0.56110   2.13827
 101        5PX         0.00000   0.00000   0.07805   0.00000   0.00000
 102        5PY        -0.11344   0.06531   0.00000  -0.03160  -0.02734
 103        5PZ        -0.07219   0.03539   0.00000   0.00129  -0.01632
 104        6PX         0.00000   0.00000  -0.40945   0.00000   0.00000
 105        6PY         1.81652  -2.10905   0.00000   0.60297   0.42069
 106        6PZ         1.41488  -0.92098   0.00000   0.38613   0.25056
 107        7PX         0.00000   0.00000  -0.94164   0.00000   0.00000
 108        7PY         5.20101  -5.18325   0.00000   1.89137   1.66290
 109        7PZ         3.48081   2.38421   0.00000   3.93105   1.13536
 110        8D 0       -0.03498  -0.03084   0.00000  -0.01518   0.00945
 111        8D+1        0.00000   0.00000  -0.00529   0.00000   0.00000
 112        8D-1        0.05454  -0.17566   0.00000  -0.02569   0.01287
 113        8D+2       -0.12493   0.12584   0.00000   0.01563  -0.01553
 114        8D-2        0.00000   0.00000   0.07282   0.00000   0.00000
 115        9D 0        0.19516   0.50114   0.00000   0.00934  -0.07928
 116        9D+1        0.00000   0.00000   0.00837   0.00000   0.00000
 117        9D-1        0.86393   0.00840   0.00000   0.55783   0.08924
 118        9D+2        0.08383   0.62460   0.00000  -0.13277  -0.05388
 119        9D-2        0.00000   0.00000  -0.50926   0.00000   0.00000
 120 4   H  1S          0.05111   0.10218   0.00000  -0.01750  -0.01655
 121        2S         -3.80032  -3.76425   0.00000   1.54193   0.97560
 122        3S        -29.85533 -11.97139   0.00000   9.31650   8.24180
 123        4S         -5.34294  -1.31491   0.00000   0.56110   2.13827
 124        5PX         0.00000   0.00000   0.07805   0.00000   0.00000
 125        5PY        -0.11344  -0.06531   0.00000   0.03160   0.02734
 126        5PZ         0.07219   0.03539   0.00000   0.00129  -0.01632
 127        6PX         0.00000   0.00000  -0.40945   0.00000   0.00000
 128        6PY         1.81652   2.10905   0.00000  -0.60297  -0.42069
 129        6PZ        -1.41488  -0.92098   0.00000   0.38613   0.25056
 130        7PX         0.00000   0.00000  -0.94164   0.00000   0.00000
 131        7PY         5.20101   5.18325   0.00000  -1.89137  -1.66290
 132        7PZ        -3.48081   2.38421   0.00000   3.93105   1.13536
 133        8D 0        0.03498  -0.03084   0.00000  -0.01518   0.00945
 134        8D+1        0.00000   0.00000  -0.00529   0.00000   0.00000
 135        8D-1        0.05454   0.17566   0.00000   0.02569  -0.01287
 136        8D+2        0.12493   0.12584   0.00000   0.01563  -0.01553
 137        8D-2        0.00000   0.00000  -0.07282   0.00000   0.00000
 138        9D 0       -0.19516   0.50114   0.00000   0.00934  -0.07928
 139        9D+1        0.00000   0.00000   0.00837   0.00000   0.00000
 140        9D-1        0.86393  -0.00840   0.00000  -0.55783  -0.08924
 141        9D+2       -0.08383   0.62460   0.00000  -0.13277  -0.05388
 142        9D-2        0.00000   0.00000   0.50926   0.00000   0.00000
                         141       142
     Eigenvalues --     0.00000   0.00000
   1 1   C  1S          0.00000  -0.00203
   2        2S          0.00000   0.00098
   3        3S          0.00000   0.04594
   4        4S          0.00000   8.08047
   5        5S          0.00000  16.04409
   6        6PX         0.00000   0.00000
   7        6PY        -0.00746   0.00000
   8        6PZ         0.00000   0.00408
   9        7PX         0.00000   0.00000
  10        7PY        -0.16258   0.00000
  11        7PZ         0.00000  -0.06964
  12        8PX         0.00000   0.00000
  13        8PY        -4.95786   0.00000
  14        8PZ         0.00000   1.14743
  15        9PX         0.00000   0.00000
  16        9PY        -5.21639   0.00000
  17        9PZ         0.00000   1.22338
  18       10D 0        0.00000   0.00990
  19       10D+1        0.00000   0.00000
  20       10D-1       -0.01442   0.00000
  21       10D+2        0.00000  -0.01292
  22       10D-2        0.00000   0.00000
  23       11D 0        0.00000  -0.08936
  24       11D+1        0.00000   0.00000
  25       11D-1        0.13073   0.00000
  26       11D+2        0.00000   0.01576
  27       11D-2        0.00000   0.00000
  28       12D 0        0.00000   0.42892
  29       12D+1        0.00000   0.00000
  30       12D-1       -0.93464   0.00000
  31       12D+2        0.00000  -0.36852
  32       12D-2        0.00000   0.00000
  33       13F 0        0.00000  -0.01173
  34       13F+1        0.00000   0.00000
  35       13F-1        0.00427   0.00000
  36       13F+2        0.00000  -0.00507
  37       13F-2        0.00000   0.00000
  38       13F+3        0.00000   0.00000
  39       13F-3        0.00406   0.00000
  40       14F 0        0.00000   0.01988
  41       14F+1        0.00000   0.00000
  42       14F-1       -0.09795   0.00000
  43       14F+2        0.00000  -0.04553
  44       14F-2        0.00000   0.00000
  45       14F+3        0.00000   0.00000
  46       14F-3       -0.01451   0.00000
  47 2   S  1S          0.00000   0.00310
  48        2S          0.00000   0.04833
  49        3S          0.00000   0.13596
  50        4S          0.00000  -0.01577
  51        5S          0.00000  -1.70454
  52        6S          0.00000  -8.63850
  53        7PX         0.00000   0.00000
  54        7PY        -0.00571   0.00000
  55        7PZ         0.00000  -0.00312
  56        8PX         0.00000   0.00000
  57        8PY        -0.05034   0.00000
  58        8PZ         0.00000  -0.05067
  59        9PX         0.00000   0.00000
  60        9PY         0.02463   0.00000
  61        9PZ         0.00000   0.01288
  62       10PX         0.00000   0.00000
  63       10PY         1.26246   0.00000
  64       10PZ         0.00000   2.27927
  65       11PX         0.00000   0.00000
  66       11PY         0.49595   0.00000
  67       11PZ         0.00000   2.30007
  68       12D 0        0.00000  -0.04317
  69       12D+1        0.00000   0.00000
  70       12D-1       -0.07905   0.00000
  71       12D+2        0.00000   0.03382
  72       12D-2        0.00000   0.00000
  73       13D 0        0.00000   0.00720
  74       13D+1        0.00000   0.00000
  75       13D-1        0.00177   0.00000
  76       13D+2        0.00000  -0.00787
  77       13D-2        0.00000   0.00000
  78       14D 0        0.00000  -0.63341
  79       14D+1        0.00000   0.00000
  80       14D-1       -0.43504   0.00000
  81       14D+2        0.00000  -0.07964
  82       14D-2        0.00000   0.00000
  83       15F 0        0.00000  -0.01544
  84       15F+1        0.00000   0.00000
  85       15F-1       -0.00010   0.00000
  86       15F+2        0.00000  -0.00614
  87       15F-2        0.00000   0.00000
  88       15F+3        0.00000   0.00000
  89       15F-3       -0.00335   0.00000
  90       16F 0        0.00000   0.06482
  91       16F+1        0.00000   0.00000
  92       16F-1        0.03689   0.00000
  93       16F+2        0.00000   0.01292
  94       16F-2        0.00000   0.00000
  95       16F+3        0.00000   0.00000
  96       16F-3        0.02070   0.00000
  97 3   H  1S         -0.01265  -0.01255
  98        2S         -0.04495   0.16820
  99        3S         -8.19318  -4.89122
 100        4S         -8.16817  -2.43892
 101        5PX         0.00000   0.00000
 102        5PY         0.02030   0.00834
 103        5PZ         0.00510   0.01563
 104        6PX         0.00000   0.00000
 105        6PY        -0.25736  -0.09564
 106        6PZ        -0.07659  -0.15571
 107        7PX         0.00000   0.00000
 108        7PY        -2.54246  -1.17116
 109        7PZ        -2.27005  -0.97862
 110        8D 0        0.00694   0.00633
 111        8D+1        0.00000   0.00000
 112        8D-1        0.01108   0.01075
 113        8D+2       -0.02496  -0.00047
 114        8D-2        0.00000   0.00000
 115        9D 0       -0.00940  -0.04511
 116        9D+1        0.00000   0.00000
 117        9D-1       -0.17958  -0.19770
 118        9D+2        0.23770   0.07458
 119        9D-2        0.00000   0.00000
 120 4   H  1S          0.01265  -0.01255
 121        2S          0.04495   0.16820
 122        3S          8.19318  -4.89122
 123        4S          8.16817  -2.43892
 124        5PX         0.00000   0.00000
 125        5PY         0.02030  -0.00834
 126        5PZ        -0.00510   0.01563
 127        6PX         0.00000   0.00000
 128        6PY        -0.25736   0.09564
 129        6PZ         0.07659  -0.15571
 130        7PX         0.00000   0.00000
 131        7PY        -2.54246   1.17116
 132        7PZ         2.27005  -0.97862
 133        8D 0       -0.00694   0.00633
 134        8D+1        0.00000   0.00000
 135        8D-1        0.01108  -0.01075
 136        8D+2        0.02496  -0.00047
 137        8D-2        0.00000   0.00000
 138        9D 0        0.00940  -0.04511
 139        9D+1        0.00000   0.00000
 140        9D-1       -0.17958   0.19770
 141        9D+2       -0.23770   0.07458
 142        9D-2        0.00000   0.00000
          Condensed to atoms (all electrons):
              1          2          3          4
     1  C    6.190311   0.278137   0.182849   0.182849
     2  S    0.278137  16.022069  -0.116808  -0.116808
     3  H    0.182849  -0.116808   0.643946  -0.160356
     4  H    0.182849  -0.116808  -0.160356   0.643946
 Mulliken atomic charges:
              1
     1  C   -0.834146
     2  S   -0.066590
     3  H    0.450368
     4  H    0.450368
 Sum of Mulliken atomic charges =   0.00000
 Mulliken charges with hydrogens summed into heavy atoms:
              1
     1  C    0.066590
     2  S   -0.066590
 Sum of Mulliken charges with hydrogens summed into heavy atoms =   0.00000
 Electronic spatial extent (au):  <R**2>=            130.5315
 Charge=              0.0000 electrons
 Dipole moment (field-independent basis, Debye):
    X=              0.0000    Y=              0.0000    Z=             -1.7741  Tot=              1.7741
 Quadrupole moment (field-independent basis, Debye-Ang):
   XX=            -20.0018   YY=            -20.5690   ZZ=            -18.9624
   XY=              0.0000   XZ=              0.0000   YZ=              0.0000
 Traceless Quadrupole moment (field-independent basis, Debye-Ang):
   XX=             -0.1574   YY=             -0.7246   ZZ=              0.8820
   XY=              0.0000   XZ=              0.0000   YZ=              0.0000
 Octapole moment (field-independent basis, Debye-Ang**2):
  XXX=              0.0000  YYY=              0.0000  ZZZ=            -27.5634  XYY=              0.0000
  XXY=              0.0000  XXZ=             -8.5398  XZZ=              0.0000  YZZ=              0.0000
  YYZ=            -13.1335  XYZ=              0.0000
 Hexadecapole moment (field-independent basis, Debye-Ang**3):
 XXXX=            -25.4170 YYYY=            -35.0776 ZZZZ=           -127.6599 XXXY=              0.0000
 XXXZ=              0.0000 YYYX=              0.0000 YYYZ=              0.0000 ZZZX=              0.0000
 ZZZY=              0.0000 XXYY=            -10.5153 XXZZ=            -25.4061 YYZZ=            -29.5809
 XXYZ=              0.0000 YYXZ=              0.0000 ZZXY=              0.0000
 N-N= 4.453895576610D+01 E-N=-1.127022230972D+03  KE= 4.368572111515D+02
 1\1\GINC-TRAPISTA\SP\RQCISD-FC\Aug-CC-pVTZ\C1H2S1\BRUNS\17-Nov-2021\0\
 \# qcisd/aug-cc-pvtz nosymm density=current output=wfn\\h2cs-wavefunct
 ion\\0,1\C,0,0.,0.,-0.565291\S,0,0.,0.,1.060374\H,0,0.,-0.92228,-1.128
 992\H,0,0.,0.92228,-1.128992\\Version=EM64L-G09RevB.01\HF=-436.5572232
 \MP2=-436.8983347\MP3=-436.9210922\MP4D=-436.9311486\MP4DQ=-436.919407
 7\MP4SDQ=-436.9229688\QCISD=-436.9234032\RMSD=7.824e-09\Dipole=0.,0.,-
 0.6979899\Quadrupole=-0.1170335,-0.5387026,0.6557361,0.,0.,0.\PG=C02V 
 [C2(C1S1),SGV(H2)]\\@

 Writing a WFN file to GAUSSIAN.wfn.


 "PERFECTION IS NOT AN ACCIDENT"
         --  EAGLE ELECTRIC MANUFACTURING CO.,INC. NY
 Job cpu time:  0 days  0 hours 22 minutes 28.8 seconds.
 File lengths (MBytes):  RWF=   5923 Int=      0 D2E=      0 Chk=      2 Scr=      1
 Normal termination of Gaussian 09 at Wed Nov 17 17:03:26 2021.
