 h2cs-wavefunction
GAUSSIAN            142 MOL ORBITALS    240 PRIMITIVES        4 NUCLEI
  C    1    (CENTRE  1)   0.00000000  0.00000000 -1.04934791  CHARGE =  6.0
  S    2    (CENTRE  2)   0.00000000  0.00000000  2.02271372  CHARGE = 16.0
  H    3    (CENTRE  3)   0.00000000 -1.74285662 -2.13348569  CHARGE =  1.0
  H    4    (CENTRE  4)   0.00000000  1.74285662 -2.13348569  CHARGE =  1.0
CENTRE ASSIGNMENTS    1  1  1  1  1  1  1  1  1  1  1  1  1  1  1  1  1  1  1  1
CENTRE ASSIGNMENTS    1  1  1  1  1  1  1  1  1  1  1  1  1  1  1  1  1  1  1  1
CENTRE ASSIGNMENTS    1  1  1  1  1  1  1  1  1  1  1  1  1  1  1  1  1  1  1  1
CENTRE ASSIGNMENTS    1  1  1  1  1  1  1  1  1  1  1  1  2  2  2  2  2  2  2  2
CENTRE ASSIGNMENTS    2  2  2  2  2  2  2  2  2  2  2  2  2  2  2  2  2  2  2  2
CENTRE ASSIGNMENTS    2  2  2  2  2  2  2  2  2  2  2  2  2  2  2  2  2  2  2  2
CENTRE ASSIGNMENTS    2  2  2  2  2  2  2  2  2  2  2  2  2  2  2  2  2  2  2  2
CENTRE ASSIGNMENTS    2  2  2  2  2  2  2  2  2  2  2  2  2  2  2  2  2  2  2  2
CENTRE ASSIGNMENTS    2  2  2  2  2  2  2  2  2  2  2  2  2  2  2  2  2  2  2  2
CENTRE ASSIGNMENTS    2  2  2  2  2  2  3  3  3  3  3  3  3  3  3  3  3  3  3  3
CENTRE ASSIGNMENTS    3  3  3  3  3  3  3  3  3  3  3  3  3  4  4  4  4  4  4  4
CENTRE ASSIGNMENTS    4  4  4  4  4  4  4  4  4  4  4  4  4  4  4  4  4  4  4  4
TYPE ASSIGNMENTS      1  1  1  1  1  1  1  1  1  1  1  1  1  1  1  1  2  2  2  3
TYPE ASSIGNMENTS      3  3  4  4  4  2  3  4  2  3  4  2  3  4  5  6  7  8  9 10
TYPE ASSIGNMENTS      5  6  7  8  9 10  5  6  7  8  9 10 11 12 13 17 14 15 18 19
TYPE ASSIGNMENTS     16 20 11 12 13 17 14 15 18 19 16 20  1  1  1  1  1  1  1  1
TYPE ASSIGNMENTS      1  1  1  1  1  1  1  1  1  1  1  1  1  1  1  1  1  1  1  1
TYPE ASSIGNMENTS      1  1  1  2  2  2  2  2  2  3  3  3  3  3  3  4  4  4  4  4
TYPE ASSIGNMENTS      4  2  2  2  2  2  2  3  3  3  3  3  3  4  4  4  4  4  4  2
TYPE ASSIGNMENTS      3  4  2  3  4  2  3  4  5  6  7  8  9 10  5  6  7  8  9 10
TYPE ASSIGNMENTS      5  6  7  8  9 10 11 12 13 17 14 15 18 19 16 20 11 12 13 17
TYPE ASSIGNMENTS     14 15 18 19 16 20  1  1  1  1  1  1  2  3  4  2  3  4  2  3
TYPE ASSIGNMENTS      4  5  6  7  8  9 10  5  6  7  8  9 10  1  1  1  1  1  1  2
TYPE ASSIGNMENTS      3  4  2  3  4  2  3  4  5  6  7  8  9 10  5  6  7  8  9 10
EXPONENTS  0.8236000D+04 0.1235000D+04 0.2808000D+03 0.7927000D+02 0.2559000D+02
EXPONENTS  0.8997000D+01 0.3319000D+01 0.2808000D+03 0.7927000D+02 0.2559000D+02
EXPONENTS  0.8997000D+01 0.3319000D+01 0.3643000D+00 0.9059000D+00 0.1285000D+00
EXPONENTS  0.4402000D-01 0.1871000D+02 0.4133000D+01 0.1200000D+01 0.1871000D+02
EXPONENTS  0.4133000D+01 0.1200000D+01 0.1871000D+02 0.4133000D+01 0.1200000D+01
EXPONENTS  0.3827000D+00 0.3827000D+00 0.3827000D+00 0.1209000D+00 0.1209000D+00
EXPONENTS  0.1209000D+00 0.3569000D-01 0.3569000D-01 0.3569000D-01 0.1097000D+01
EXPONENTS  0.1097000D+01 0.1097000D+01 0.1097000D+01 0.1097000D+01 0.1097000D+01
EXPONENTS  0.3180000D+00 0.3180000D+00 0.3180000D+00 0.3180000D+00 0.3180000D+00
EXPONENTS  0.3180000D+00 0.1000000D+00 0.1000000D+00 0.1000000D+00 0.1000000D+00
EXPONENTS  0.1000000D+00 0.1000000D+00 0.7610000D+00 0.7610000D+00 0.7610000D+00
EXPONENTS  0.7610000D+00 0.7610000D+00 0.7610000D+00 0.7610000D+00 0.7610000D+00
EXPONENTS  0.7610000D+00 0.7610000D+00 0.2680000D+00 0.2680000D+00 0.2680000D+00
EXPONENTS  0.2680000D+00 0.2680000D+00 0.2680000D+00 0.2680000D+00 0.2680000D+00
EXPONENTS  0.2680000D+00 0.2680000D+00 0.3741000D+06 0.5605000D+05 0.1276000D+05
EXPONENTS  0.3615000D+04 0.1183000D+04 0.4288000D+03 0.1678000D+03 0.6947000D+02
EXPONENTS  0.2984000D+02 0.1272000D+02 0.5244000D+01 0.3615000D+04 0.1183000D+04
EXPONENTS  0.4288000D+03 0.1678000D+03 0.6947000D+02 0.2984000D+02 0.1272000D+02
EXPONENTS  0.5244000D+01 0.2219000D+01 0.1183000D+04 0.1678000D+03 0.6947000D+02
EXPONENTS  0.2984000D+02 0.1272000D+02 0.5244000D+01 0.2219000D+01 0.3490000D+00
EXPONENTS  0.7767000D+00 0.1322000D+00 0.4970000D-01 0.5744000D+03 0.1358000D+03
EXPONENTS  0.4319000D+02 0.1587000D+02 0.6208000D+01 0.2483000D+01 0.5744000D+03
EXPONENTS  0.1358000D+03 0.4319000D+02 0.1587000D+02 0.6208000D+01 0.2483000D+01
EXPONENTS  0.5744000D+03 0.1358000D+03 0.4319000D+02 0.1587000D+02 0.6208000D+01
EXPONENTS  0.2483000D+01 0.1358000D+03 0.4319000D+02 0.1587000D+02 0.6208000D+01
EXPONENTS  0.2483000D+01 0.3229000D+00 0.1358000D+03 0.4319000D+02 0.1587000D+02
EXPONENTS  0.6208000D+01 0.2483000D+01 0.3229000D+00 0.1358000D+03 0.4319000D+02
EXPONENTS  0.1587000D+02 0.6208000D+01 0.2483000D+01 0.3229000D+00 0.8688000D+00
EXPONENTS  0.8688000D+00 0.8688000D+00 0.1098000D+00 0.1098000D+00 0.1098000D+00
EXPONENTS  0.3510000D-01 0.3510000D-01 0.3510000D-01 0.2690000D+00 0.2690000D+00
EXPONENTS  0.2690000D+00 0.2690000D+00 0.2690000D+00 0.2690000D+00 0.8190000D+00
EXPONENTS  0.8190000D+00 0.8190000D+00 0.8190000D+00 0.8190000D+00 0.8190000D+00
EXPONENTS  0.1010000D+00 0.1010000D+00 0.1010000D+00 0.1010000D+00 0.1010000D+00
EXPONENTS  0.1010000D+00 0.5570000D+00 0.5570000D+00 0.5570000D+00 0.5570000D+00
EXPONENTS  0.5570000D+00 0.5570000D+00 0.5570000D+00 0.5570000D+00 0.5570000D+00
EXPONENTS  0.5570000D+00 0.2180000D+00 0.2180000D+00 0.2180000D+00 0.2180000D+00
EXPONENTS  0.2180000D+00 0.2180000D+00 0.2180000D+00 0.2180000D+00 0.2180000D+00
EXPONENTS  0.2180000D+00 0.3387000D+02 0.5095000D+01 0.1159000D+01 0.3258000D+00
EXPONENTS  0.1027000D+00 0.2526000D-01 0.1407000D+01 0.1407000D+01 0.1407000D+01
EXPONENTS  0.3880000D+00 0.3880000D+00 0.3880000D+00 0.1020000D+00 0.1020000D+00
EXPONENTS  0.1020000D+00 0.1057000D+01 0.1057000D+01 0.1057000D+01 0.1057000D+01
EXPONENTS  0.1057000D+01 0.1057000D+01 0.2470000D+00 0.2470000D+00 0.2470000D+00
EXPONENTS  0.2470000D+00 0.2470000D+00 0.2470000D+00 0.3387000D+02 0.5095000D+01
EXPONENTS  0.1159000D+01 0.3258000D+00 0.1027000D+00 0.2526000D-01 0.1407000D+01
EXPONENTS  0.1407000D+01 0.1407000D+01 0.3880000D+00 0.3880000D+00 0.3880000D+00
EXPONENTS  0.1020000D+00 0.1020000D+00 0.1020000D+00 0.1057000D+01 0.1057000D+01
EXPONENTS  0.1057000D+01 0.1057000D+01 0.1057000D+01 0.1057000D+01 0.2470000D+00
EXPONENTS  0.2470000D+00 0.2470000D+00 0.2470000D+00 0.2470000D+00 0.2470000D+00
MO    1     MO 0.0        OCC NO =    2.0000336  ORB. ENERGY =    0.000000
 -0.35749898D-11 -0.66645012D-11 -0.11263915D-10 -0.16931765D-10 -0.20797641D-10
 -0.17552475D-10 -0.66001890D-11 -0.44718673D-15 -0.33424437D-14 -0.12491475D-13
 -0.34849271D-13 -0.46688416D-13  0.55130314D-13 -0.29030687D-12  0.20045733D-13
 -0.18636521D-14 -0.17221995D-12 -0.16146715D-12 -0.11497423D-12 -0.14005297D-02
 -0.13130856D-02 -0.93499518D-03  0.79984810D-13  0.74990844D-13  0.53397948D-13
 -0.26025123D-13 -0.57376062D-03 -0.21986308D-13  0.12214128D-13  0.15980588D-02
 -0.84888950D-13  0.52766994D-15  0.28964174D-04 -0.63562308D-15  0.20059105D-13
 -0.12561288D-13 -0.74978171D-14 -0.66491599D-14 -0.53082634D-13 -0.10415090D-02
 -0.51197020D-14  0.23872757D-13 -0.18753055D-13  0.34351947D-14  0.47487479D-13
  0.27640646D-04 -0.64154791D-16  0.12626105D-13 -0.12561950D-13  0.19201323D-15
  0.16626195D-14 -0.21293022D-03  0.70923270D-14  0.16414324D-03 -0.39016775D-14
 -0.59091879D-15  0.19005139D-03 -0.27893051D-14 -0.20686062D-13 -0.68248111D-03
  0.14494338D-13 -0.41796505D-14 -0.31897769D-14 -0.81480056D-04  0.55211356D-14
 -0.75558121D-14 -0.12294262D-03  0.31132708D-14  0.17125143D-13  0.36738279D-03
 -0.19676678D-13  0.48560844D-15 -0.14739211D-10 -0.27556439D-10 -0.47625717D-10
 -0.77032634D-10 -0.11643225D-09 -0.16035131D-09 -0.18743116D-09 -0.16199068D-09
 -0.75601894D-10 -0.10242398D-10  0.74914373D-13 -0.15005951D-12 -0.19289999D-11
 -0.70367144D-11 -0.23741700D-10 -0.52147426D-10 -0.67360251D-10  0.10825365D-10
  0.90811949D-10  0.49836426D-10 -0.11894838D-14 -0.13548960D-13 -0.28132526D-13
 -0.77357302D-13  0.10030263D-13  0.34977449D-12  0.87239313D-12 -0.72215439D-12
  0.28330021D-11  0.14270710D-12  0.14900199D-13  0.56134159D-09  0.73644825D-09
  0.80772434D-09  0.66457126D-09  0.35032418D-09  0.91147762D-10  0.97725099D+01
  0.12820977D+02  0.14061837D+02  0.11569656D+02  0.60988649D+01  0.15868099D+01
  0.38063089D-09  0.49936609D-09  0.54769652D-09  0.45062820D-09  0.23754556D-09
  0.61804888D-10  0.29835931D-14  0.10709796D-12  0.16991360D-12  0.20176718D-12
  0.30532693D-13 -0.22221122D-12  0.95998312D-04  0.34459200D-02  0.54670384D-02
  0.64919404D-02  0.98240170D-03 -0.71497355D-02  0.34765152D-14  0.12479171D-12
  0.19798517D-12  0.23510132D-12  0.35577027D-13 -0.25892293D-12  0.43447657D-11
  0.66478102D-01  0.27331823D-11 -0.47383152D-14 -0.57548495D-03 -0.70423697D-13
 -0.13152014D-14 -0.27336206D-04 -0.70581874D-15 -0.17918735D-13 -0.41451071D-14
  0.22063842D-13 -0.63597065D-15  0.45076532D-13  0.76131281D-03  0.30348051D-13
 -0.40056503D-13  0.97084526D-14  0.17074757D-14 -0.30177958D-13 -0.10814772D-02
 -0.89536531D-15 -0.30313570D-14  0.39267223D-14 -0.29037229D-16  0.24696892D-14
 -0.29834401D-04  0.69027603D-14  0.23181595D-05 -0.52852527D-14 -0.42773314D-14
  0.13083603D-03  0.15376219D-13 -0.16430950D-13 -0.13779051D-03  0.47953907D-15
  0.62429567D-15  0.13964177D-14  0.33438202D-04 -0.12928002D-14  0.29959978D-14
 -0.22393841D-05  0.16501285D-14 -0.71852510D-14 -0.98075221D-04  0.22282720D-14
  0.46637818D-15 -0.10640438D-03 -0.19190467D-03 -0.28296333D-03  0.16013177D-03
  0.23509575D-02  0.24733328D-04 -0.32707947D-14 -0.19117122D-04  0.26133439D-03
  0.85946849D-14  0.22260715D-05 -0.32195169D-03 -0.21335825D-14  0.31228899D-03
  0.13182316D-03 -0.50132095D-04 -0.13961975D-03  0.18975184D-03  0.10163783D-13
  0.47132737D-14 -0.55848838D-05  0.24478263D-04 -0.21523013D-04 -0.29552495D-05
 -0.81812050D-15  0.52315213D-14 -0.11491292D-03  0.10640438D-03  0.19190467D-03
  0.28296333D-03 -0.16013177D-03 -0.23509575D-02 -0.24733328D-04 -0.38040703D-14
 -0.19117122D-04 -0.26133439D-03  0.50671777D-14  0.22260715D-05  0.32195169D-03
 -0.28147986D-14  0.31228899D-03 -0.13182316D-03  0.50132095D-04  0.13961975D-03
 -0.18975184D-03 -0.82451446D-14 -0.94632350D-15 -0.55848838D-05 -0.24478263D-04
  0.21523013D-04  0.29552495D-05  0.16289618D-14  0.40282623D-14 -0.11491292D-03
MO    2     MO 0.0        OCC NO =    2.0000241  ORB. ENERGY =    0.000000
 -0.52141810D-01 -0.97202839D-01 -0.16428604D+00 -0.24695256D+00 -0.30333699D+00
 -0.25600572D+00 -0.96264835D-01 -0.85535971D-05 -0.63932839D-04 -0.23893162D-03
 -0.66658201D-03 -0.89303611D-03  0.10545091D-02 -0.41246493D-02 -0.52391846D-03
 -0.33902524D-04 -0.54588686D-13 -0.51180363D-13 -0.36443467D-13  0.99476104D-13
  0.93265170D-13  0.66410357D-13  0.22652773D-02  0.21238414D-02  0.15123016D-02
 -0.84545960D-14 -0.53294289D-13  0.48854207D-04  0.71082120D-15 -0.18540763D-12
 -0.58909987D-03 -0.83000067D-16 -0.45978806D-14 -0.15269703D-06  0.19027442D-03
 -0.14075612D-03 -0.49518303D-04 -0.19496992D-14 -0.20410238D-13  0.11234500D-12
  0.41506842D-04  0.14568565D-03 -0.18719250D-03 -0.24306056D-14  0.17178764D-13
  0.47465744D-13  0.10701515D-04  0.84631065D-04 -0.95332580D-04  0.65227452D-15
 -0.91939770D-15  0.28271695D-13  0.19744290D-14 -0.16445408D-13  0.99070708D-05
  0.10830581D-14  0.20677163D-14 -0.16794984D-03 -0.70063451D-14  0.47268507D-13
  0.13822863D-03  0.62336054D-14 -0.97463238D-15  0.26089183D-14  0.55448616D-04
 -0.32072498D-14  0.12550077D-13  0.12257128D-04  0.61311470D-14 -0.20376832D-13
 -0.17860298D-03  0.19067270D-14 -0.12322032D+00 -0.23037281D+00 -0.39815268D+00
 -0.64399556D+00 -0.97337773D+00 -0.13405427D+01 -0.15669311D+01 -0.13542478D+01
 -0.63203452D+00 -0.85626809D-01  0.62628681D-03 -0.15346277D-02 -0.19727484D-01
 -0.71963028D-01 -0.24280147D+00 -0.53330098D+00 -0.68887940D+00  0.11070878D+00
  0.92871508D+00  0.50966686D+00 -0.12632026D-04 -0.14388662D-03 -0.29876050D-03
 -0.82151550D-03  0.10651892D-03  0.37145190D-02  0.92646002D-02 -0.76691019D-02
  0.28468264D-01  0.10794585D-02 -0.35551354D-05  0.22482230D-09  0.29495407D-09
  0.32350078D-09  0.26616670D-09  0.14030795D-09  0.36505489D-10 -0.77515798D-09
 -0.10169632D-08 -0.11153885D-08 -0.91770808D-09 -0.48376352D-09 -0.12586617D-09
  0.65395691D+01  0.85795427D+01  0.94099016D+01  0.77421836D+01  0.40812390D+01
  0.10618616D+01  0.11359382D-14  0.40775220D-13  0.64690909D-13  0.76818470D-13
  0.11624659D-13 -0.84602092D-13 -0.74840074D-14 -0.26864317D-12 -0.42620912D-12
 -0.50611026D-12 -0.76587822D-13  0.55739182D-12  0.54548596D-04  0.19580563D-02
  0.31065054D-02  0.36888799D-02  0.55822475D-03 -0.40626552D-02  0.17461133D-11
 -0.52826080D-11  0.47752278D-01  0.30826587D-14  0.31489666D-13 -0.62503428D-03
 -0.27347782D-15  0.21130499D-14 -0.11225385D-05 -0.24798312D-03 -0.96538363D-04
  0.34452148D-03 -0.26298449D-15  0.15732201D-13 -0.50184428D-13  0.36339542D-03
 -0.38528043D-03  0.21885014D-04  0.36068563D-16 -0.13835041D-13  0.91439079D-13
 -0.48508930D-05 -0.22749370D-04  0.27600263D-04 -0.23738153D-15 -0.46478245D-15
  0.54924800D-14  0.27486435D-14  0.15950969D-14 -0.67455283D-04 -0.22520433D-14
 -0.10784692D-13  0.20215326D-03 -0.59938871D-14  0.59994011D-14  0.21258862D-06
 -0.24339167D-15  0.33347090D-15 -0.21275826D-14 -0.18930551D-04  0.82569802D-15
  0.66789400D-15  0.24451692D-04 -0.18261107D-14  0.57148537D-14  0.32339961D-04
  0.60923929D-15 -0.22156386D-04 -0.39959955D-04 -0.58920930D-04 -0.37526838D-03
 -0.43471084D-03  0.30170518D-05 -0.26968798D-14  0.19069382D-04  0.83391106D-04
  0.17153653D-14  0.40708800D-04  0.27564901D-04 -0.34603947D-15  0.37067653D-04
 -0.12198360D-03 -0.99586841D-04  0.22951432D-04  0.76635409D-04  0.12011508D-15
 -0.54377115D-14  0.12868825D-03 -0.30993850D-04  0.21959231D-04  0.90346193D-05
 -0.91645113D-15  0.30142408D-14 -0.61339604D-04 -0.22156386D-04 -0.39959955D-04
 -0.58920931D-04 -0.37526838D-03 -0.43471084D-03  0.30170518D-05 -0.18075732D-14
 -0.19069382D-04  0.83391106D-04  0.70354305D-14 -0.40708800D-04  0.27564901D-04
 -0.17013161D-14 -0.37067653D-04 -0.12198360D-03 -0.99586841D-04  0.22951432D-04
  0.76635409D-04 -0.78205865D-14  0.12159084D-14 -0.12868825D-03 -0.30993850D-04
  0.21959231D-04  0.90346193D-05 -0.18712822D-15  0.24070637D-14  0.61339604D-04
MO    3     MO 0.0        OCC NO =    2.0000099  ORB. ENERGY =    0.000000
 -0.15721486D+00 -0.29308017D+00 -0.49534542D+00 -0.74459656D+00 -0.91460351D+00
 -0.77189309D+00 -0.29025196D+00 -0.23691472D-04 -0.17707907D-03 -0.66178493D-03
 -0.18462769D-02 -0.24735020D-02  0.29207447D-02 -0.12714131D-01 -0.13271368D-03
 -0.10752065D-03  0.22417361D-13  0.21017701D-13  0.14965855D-13 -0.51000448D-13
 -0.47816162D-13 -0.34047956D-13  0.35560726D-02  0.33340441D-02  0.23740380D-02
  0.89171968D-14 -0.31405767D-13  0.54533049D-03 -0.79371956D-14 -0.16303300D-13
 -0.16283958D-03 -0.32727845D-15 -0.16274612D-14 -0.38389941D-05  0.47886822D-03
 -0.45431015D-03 -0.24558066D-04 -0.12323083D-14  0.15627090D-13 -0.34415959D-14
 -0.11224662D-03 -0.68183029D-07  0.11231481D-03  0.17671651D-14 -0.15296763D-13
  0.42145348D-14  0.13068802D-04  0.60795106D-04 -0.73863907D-04 -0.15087861D-14
 -0.13529105D-14 -0.18383965D-13 -0.33380728D-14  0.54615479D-14  0.70080527D-04
  0.32063494D-14 -0.19659541D-14 -0.46038714D-03  0.68078691D-14 -0.14418690D-13
  0.25014556D-03  0.57325003D-16  0.96775192D-15  0.40699255D-14  0.11819579D-03
  0.23628944D-14  0.32112913D-14 -0.20020835D-04 -0.52661501D-14 -0.15421068D-13
 -0.33456655D-03 -0.20607632D-14  0.10938659D+00  0.20450924D+00  0.35345275D+00
  0.57169526D+00  0.86409825D+00  0.11900422D+01  0.13910144D+01  0.12022087D+01
  0.56107707D+00  0.76013632D-01 -0.55597465D-03  0.13744357D-02  0.17668232D-01
  0.64451171D-01  0.21745665D+00  0.47763239D+00  0.61697076D+00 -0.99152451D-01
 -0.83177121D+00 -0.45646531D+00  0.61095499D-05  0.69591571D-04  0.14449719D-03
  0.39733057D-03 -0.51518471D-04 -0.17965479D-02 -0.44808758D-02  0.37092041D-02
 -0.27094420D-01  0.11014286D-02  0.27247183D-04 -0.10322764D-09 -0.13542879D-09
 -0.14853608D-09 -0.12221101D-09 -0.64422695D-10 -0.16761574D-10  0.17571095D-09
  0.23052278D-09  0.25283360D-09  0.20802387D-09  0.10965836D-09  0.28531041D-10
  0.57329079D+01  0.75212491D+01  0.82491825D+01  0.67871789D+01  0.35778148D+01
  0.93088011D+00 -0.57472285D-15 -0.20630039D-13 -0.32730075D-13 -0.38865960D-13
 -0.58814441D-14  0.42804048D-13  0.14773026D-14  0.53028707D-13  0.84131373D-13
  0.99903425D-13  0.15118021D-13 -0.11002613D-12  0.36561245D-04  0.13123890D-02
  0.20821380D-02  0.24724750D-02  0.37415063D-03 -0.27229982D-02 -0.80233174D-12
  0.11784922D-11  0.44126798D-01  0.46368782D-14  0.24216723D-13 -0.11632003D-03
  0.43452910D-15  0.31178069D-15  0.55236789D-06 -0.15021663D-03 -0.13512110D-03
  0.28533773D-03  0.62994701D-15 -0.12370011D-13 -0.14856120D-13 -0.10094841D-03
  0.46821215D-03 -0.36726373D-03 -0.76907756D-15  0.76800968D-14 -0.30858057D-14
  0.65685787D-05  0.20704709D-05 -0.86390496D-05  0.45617579D-15 -0.16939655D-14
 -0.90663211D-14 -0.10884108D-14 -0.51407895D-15 -0.45008993D-04  0.89994284D-16
 -0.88693638D-15  0.21103386D-03  0.31752381D-14  0.24291732D-14 -0.76006875D-04
  0.14032801D-14 -0.51891105D-15 -0.10946543D-14 -0.12322571D-04 -0.97436385D-15
 -0.91113549D-15  0.18783567D-04  0.25310970D-14  0.41950983D-14  0.18184146D-04
 -0.12887607D-14  0.44797198D-04  0.80793591D-04  0.11913010D-03 -0.33765434D-03
  0.11892756D-04  0.71448608D-05  0.12722341D-14  0.18329174D-03  0.20330747D-03
 -0.20271831D-14  0.14396542D-03  0.17836889D-03 -0.90362250D-15  0.77464271D-04
 -0.57326988D-04 -0.24316876D-03  0.12169937D-03  0.12146939D-03 -0.54358056D-14
 -0.23067270D-14  0.46435310D-03 -0.65473217D-04  0.10827703D-04  0.54645514D-04
  0.48242366D-15 -0.20863295D-14 -0.55848058D-04  0.44797198D-04  0.80793591D-04
  0.11913010D-03 -0.33765434D-03  0.11892756D-04  0.71448608D-05  0.56288118D-15
 -0.18329174D-03  0.20330747D-03 -0.59797239D-14 -0.14396542D-03  0.17836889D-03
  0.26210927D-14 -0.77464271D-04 -0.57326988D-04 -0.24316876D-03  0.12169937D-03
  0.12146939D-03  0.67697694D-14 -0.64373893D-14 -0.46435310D-03 -0.65473217D-04
  0.10827703D-04  0.54645514D-04  0.45303927D-15 -0.73377475D-15  0.55848058D-04
MO    4     MO 0.0        OCC NO =    2.0000048  ORB. ENERGY =    0.000000
  0.28270832D+00  0.52702527D+00  0.89074450D+00  0.13389551D+01  0.16446665D+01
  0.13880405D+01  0.52193949D+00  0.29992956D-04  0.22417877D-03  0.83780723D-03
  0.23373517D-02  0.31314069D-02 -0.36976077D-02  0.23356759D-01 -0.52343305D-03
 -0.88340358D-05 -0.24258512D-11 -0.22743897D-11 -0.16195010D-11 -0.52521357D-14
 -0.49242111D-14 -0.35063316D-14  0.42890060D-02  0.40212157D-02  0.28633451D-02
 -0.41274616D-12 -0.77675764D-14 -0.38936055D-03 -0.47748227D-13 -0.52690070D-13
 -0.32617481D-03 -0.40687997D-15 -0.23628890D-14 -0.43554712D-05 -0.11612178D-02
  0.61791104D-03  0.54330679D-03 -0.98245691D-15 -0.53680508D-12  0.22364284D-15
  0.18860852D-03  0.12080096D-03 -0.30940948D-03  0.13526624D-14  0.49583002D-12
  0.38382311D-14  0.94259122D-05  0.39315476D-04 -0.48741389D-04 -0.69763087D-15
 -0.46815214D-13 -0.98244041D-15  0.68593819D-13  0.39652473D-14  0.40860695D-03
  0.36471640D-13  0.11522358D-14  0.18991816D-03 -0.24225310D-12 -0.13047978D-13
 -0.14157390D-02 -0.10892815D-14 -0.27238393D-13  0.17002986D-14 -0.65926761D-04
 -0.11727192D-12  0.41314036D-14 -0.20146407D-04  0.19898710D-12 -0.92322993D-14
  0.21792669D-03 -0.12744874D-14  0.38167201D-01  0.71357427D-01  0.12332684D+00
  0.19947609D+00  0.30150143D+00  0.41522989D+00  0.48535318D+00  0.41947503D+00
  0.19577118D+00  0.26522700D-01 -0.19399084D-03  0.47870580D-03  0.61537149D-02
  0.22447867D-01  0.75738548D-01  0.16635584D+00  0.21488636D+00 -0.34534067D-01
 -0.28969978D+00 -0.15898350D+00  0.18918201D-05  0.21549007D-04  0.44743506D-04
  0.12303328D-03 -0.15952677D-04 -0.55630045D-03 -0.13875017D-02  0.11485538D-02
 -0.98606142D-02  0.13564323D-02  0.11165393D-03  0.81249672D-08  0.10659495D-07
  0.11691159D-07  0.96191335D-08  0.50706602D-08  0.13192904D-08  0.78242753D-10
  0.10265004D-09  0.11258488D-09  0.92631448D-10  0.48830032D-10  0.12704656D-10
  0.43736201D+01  0.57379409D+01  0.62932793D+01  0.51779206D+01  0.27295053D+01
  0.71016595D+00  0.42889921D-13  0.15395608D-11  0.24425518D-11  0.29004553D-11
  0.43891534D-12 -0.31943436D-11  0.53042762D-15  0.19040034D-13  0.30207492D-13
  0.35870470D-13  0.54281475D-14 -0.39505041D-13  0.32492076D-04  0.11663236D-02
  0.18504016D-02  0.21972951D-02  0.33250867D-03 -0.24199358D-02  0.62913924D-10
  0.52104829D-12  0.34117958D-01  0.15002641D-12  0.69470052D-14 -0.35893421D-03
 -0.12523531D-13  0.10719271D-15 -0.48143176D-05 -0.14300091D-03 -0.23641804D-03
  0.37941895D-03  0.43581483D-15  0.51001434D-12 -0.13726371D-13  0.92368226D-04
  0.33890696D-03 -0.43127519D-03 -0.56955172D-15 -0.34863813D-12  0.18527107D-14
 -0.10422715D-04 -0.12358131D-04  0.22780846D-04  0.17794000D-15 -0.30253099D-13
 -0.29639903D-14  0.10804533D-12 -0.21715533D-15  0.44078224D-04 -0.62311051D-13
  0.33819465D-16 -0.10877424D-04 -0.26182493D-12  0.61764653D-15 -0.12135725D-03
  0.14074657D-15  0.50746898D-14 -0.81776440D-15 -0.37277857D-04  0.28658467D-13
 -0.68069408D-15  0.29857658D-04 -0.43882536D-13  0.31339873D-14  0.81975914D-04
 -0.71182104D-15 -0.30893227D-03 -0.55717207D-03 -0.82154990D-03 -0.54932501D-03
 -0.48210985D-03 -0.70954410D-05 -0.10554590D-12 -0.82482895D-03 -0.37188613D-03
  0.13945217D-12 -0.40403822D-03 -0.26675341D-03 -0.48540220D-13 -0.33803645D-04
 -0.10294310D-03  0.26415644D-03 -0.43054743D-03  0.16639099D-03  0.11765195D-12
 -0.44589869D-13 -0.93865437D-03  0.48007303D-04 -0.23776655D-04 -0.24230648D-04
 -0.32789583D-13  0.92454573D-13 -0.79883522D-04 -0.30893227D-03 -0.55717207D-03
 -0.82154990D-03 -0.54932501D-03 -0.48210985D-03 -0.70954410D-05 -0.10277342D-12
  0.82482895D-03 -0.37188613D-03  0.13596872D-12  0.40403822D-03 -0.26675341D-03
 -0.46788756D-13  0.33803645D-04 -0.10294310D-03  0.26415644D-03 -0.43054743D-03
  0.16639099D-03 -0.11427575D-12 -0.49418913D-13  0.93865437D-03  0.48007303D-04
 -0.23776655D-04 -0.24230648D-04  0.33271550D-13  0.92944247D-13  0.79883522D-04
MO    5     MO 0.0        OCC NO =    2.0000042  ORB. ENERGY =    0.000000
 -0.23690000D-09 -0.44162933D-09 -0.74641373D-09 -0.11219991D-08 -0.13781749D-08
 -0.11631310D-08 -0.43736762D-09 -0.25203821D-13 -0.18838295D-12 -0.70403009D-12
 -0.19641343D-11 -0.26313985D-11  0.31071910D-11 -0.19628123D-10  0.10624450D-11
  0.93813563D-13 -0.28829845D-02 -0.27029812D-02 -0.19246836D-02  0.79874756D-13
  0.74887660D-13  0.53324475D-13 -0.36076164D-11 -0.33823697D-11 -0.24084487D-11
 -0.48940628D-03 -0.21223547D-14  0.34581045D-12 -0.49982003D-04 -0.13603226D-12
  0.33831756D-12 -0.19506522D-06 -0.25655382D-14  0.71051029D-14  0.10008032D-11
 -0.52539745D-12 -0.47540572D-12 -0.27367978D-14 -0.64752822D-03  0.76042165D-13
 -0.22820377D-12 -0.72877423D-13  0.30108119D-12 -0.22281678D-14  0.59896850D-03
  0.11253401D-13 -0.13076054D-13 -0.30184828D-13  0.43260882D-13 -0.51770092D-15
 -0.54433198D-04  0.62599925D-14  0.82250440D-04 -0.11337493D-13 -0.32714066D-12
  0.44596090D-04 -0.10224208D-13 -0.16853256D-12 -0.29134741D-03  0.44236686D-13
  0.11499546D-11  0.39784300D-14 -0.33040587D-04  0.70326647D-14  0.67814414D-13
 -0.14093494D-03  0.11576250D-13  0.18789466D-13  0.24005670D-03 -0.32674244D-13
 -0.22223271D-12  0.33357955D-16  0.86181845D-10  0.16112564D-09  0.27847300D-09
  0.45041860D-09  0.68079263D-09  0.93759241D-09  0.10959314D-08  0.94717798D-09
  0.44205290D-09  0.59888468D-10 -0.43803288D-12 -0.35597825D-12 -0.45760646D-11
 -0.16692826D-10 -0.56321181D-10 -0.12370659D-09 -0.15979517D-09  0.25680443D-10
  0.21542839D-09  0.11822432D-09 -0.11689335D-14 -0.13314880D-13 -0.27646490D-13
 -0.76020826D-13  0.98569731D-14  0.34373156D-12  0.85732109D-12 -0.70967798D-12
  0.73199536D-11 -0.13917836D-11 -0.18833889D-12  0.97155374D+01  0.12746233D+02
  0.13979859D+02  0.11502207D+02  0.60633093D+01  0.15775590D+01 -0.56458587D-09
 -0.74070455D-09 -0.81239259D-09 -0.66841215D-09 -0.35234888D-09 -0.91674551D-10
 -0.37456293D-08 -0.49140527D-08 -0.53896523D-08 -0.44344435D-08 -0.23375865D-08
 -0.60819603D-09  0.51251759D-04  0.18397142D-02  0.29187527D-02  0.34659293D-02
  0.52448646D-03 -0.38171142D-02 -0.56618414D-14 -0.20323537D-12 -0.32243801D-12
 -0.38288524D-12 -0.57940629D-13  0.42168104D-12 -0.29501964D-13 -0.10589916D-11
 -0.16801167D-11 -0.19950871D-11 -0.30190926D-12  0.21972390D-11  0.75239016D-01
 -0.38484026D-11 -0.29203330D-10  0.17518231D-03  0.50701041D-13  0.42739777D-12
 -0.15174733D-04  0.16773870D-14  0.82490082D-14  0.14022861D-12  0.22234090D-12
 -0.36256951D-12  0.35685974D-15  0.61376479D-03 -0.60110751D-13 -0.83223899D-13
 -0.27533196D-12  0.35855586D-12  0.97905940D-15 -0.42072026D-03  0.75336563D-13
  0.14366200D-13  0.15136435D-13 -0.29502636D-13  0.10292751D-15 -0.34611120D-04
 -0.23040227D-14  0.12924261D-03 -0.15515922D-15 -0.27294978D-13 -0.75070626D-04
 -0.77284685D-14 -0.24216184D-14 -0.31265719D-03  0.81939461D-14  0.84306551D-13
  0.98666099D-15  0.64196861D-05 -0.28055236D-14  0.35075971D-13  0.34703166D-04
 -0.54942168D-15 -0.29935440D-13 -0.53962224D-04  0.89659924D-14 -0.75292472D-13
 -0.36390487D-15  0.26670752D-12  0.48101799D-12  0.70926075D-12  0.21871740D-12
  0.14355526D-12  0.67272766D-15 -0.12459014D-03  0.67600942D-12  0.28921517D-12
  0.16538722D-03  0.27054752D-12  0.20312066D-12 -0.57174402D-04 -0.20103403D-14
  0.64864799D-13 -0.20421391D-12  0.36119444D-12 -0.15698053D-12  0.13943406D-03
 -0.54098197D-04  0.75444797D-12 -0.47388556D-13  0.22527743D-13  0.24860813D-13
 -0.39567212D-04  0.11085887D-03  0.76567221D-13  0.25210214D-12  0.45467659D-12
  0.67042037D-12  0.30451021D-12  0.48618579D-12  0.72315354D-14 -0.12459014D-03
 -0.67807701D-12  0.32796428D-12  0.16538722D-03 -0.31137769D-12  0.16372826D-12
 -0.57174402D-04 -0.45660593D-13  0.94522146D-13 -0.21969490D-12  0.35323521D-12
 -0.13354030D-12 -0.13943406D-03 -0.54098197D-04 -0.77599449D-12 -0.46093135D-13
  0.22271455D-13  0.23821680D-13  0.39567212D-04  0.11085887D-03 -0.60797428D-13
MO    6     MO 0.0        OCC NO =    2.0000000  ORB. ENERGY =    0.000000
 -0.77236671D-04 -0.14398472D-03 -0.24335379D-03 -0.36580613D-03 -0.44932731D-03
 -0.37921640D-03 -0.14259527D-03  0.45460174D-07  0.33978664D-06  0.12698602D-05
  0.35427124D-05  0.47462578D-05 -0.56044455D-05  0.26649458D-05 -0.32567250D-04
 -0.73388349D-05  0.56873849D-12  0.53322849D-12  0.37969045D-12  0.55765206D-13
  0.52283425D-13  0.37228913D-13  0.15305504D-04  0.14349883D-04  0.10217971D-04
  0.95782922D-13 -0.22262579D-12 -0.37340201D-04  0.99857753D-14 -0.65828323D-13
  0.38394361D-05  0.16664723D-16 -0.86694914D-15 -0.39707763D-06  0.13219236D-05
  0.87331496D-05 -0.10055073D-04 -0.32295471D-14  0.12475976D-12  0.78485200D-13
  0.66808087D-05  0.43461386D-05 -0.11026947D-04  0.51741197D-14 -0.11846677D-12
  0.11120913D-12  0.65170026D-06 -0.89666032D-06  0.24496006D-06  0.22114023D-14
  0.98771405D-14  0.23119380D-13 -0.16482207D-13 -0.10705427D-13  0.15839550D-05
 -0.86607471D-14  0.45034543D-13  0.97873971D-06  0.58107367D-13 -0.12918262D-13
 -0.57306047D-05 -0.73938187D-15  0.66082856D-14 -0.58292668D-14 -0.47446067D-06
  0.28339851D-13  0.35452872D-14  0.63755343D-06 -0.48164708D-13  0.13942513D-13
  0.78582859D-06 -0.50913015D-15  0.58265987D+00  0.10893413D+01  0.18827056D+01
  0.30451986D+01  0.46027158D+01  0.63388927D+01  0.74093936D+01  0.64036990D+01
  0.29886397D+01  0.40489510D+00 -0.29614610D-02 -0.29461190D-04 -0.37872063D-03
 -0.13815184D-02 -0.46612089D-02 -0.10238106D-01 -0.13224841D-01  0.21253444D-02
  0.17829114D-01  0.97843876D-02  0.19665692D-06  0.22400445D-05  0.46511399D-05
  0.12789454D-04 -0.16582995D-05 -0.57828085D-04 -0.14423243D-03  0.11939351D-03
  0.17051907D-04 -0.16699170D-04  0.34278392D-05 -0.19023067D-08 -0.24957182D-08
 -0.27372627D-08 -0.22521373D-08 -0.11871987D-08 -0.30888678D-09  0.45119700D-10
  0.59194480D-10  0.64923534D-10  0.53417128D-10  0.28158473D-10  0.73263049D-11
  0.10979064D-01  0.14403907D-01  0.15797969D-01  0.12998093D-01  0.68518555D-02
  0.17827239D-02 -0.10066246D-13 -0.36133425D-12 -0.57326585D-12 -0.68073561D-12
 -0.10301324D-12  0.74971106D-12  0.55521611D-15  0.19929833D-13  0.31619179D-13
  0.37546805D-13  0.56818213D-14 -0.41351230D-13  0.70690622D-06  0.25374845D-04
  0.40257828D-04  0.47804935D-04  0.72341468D-05 -0.52648764D-04 -0.14733069D-10
  0.30843994D-12  0.16120229D-03 -0.32891110D-13 -0.34133708D-13  0.50081908D-05
  0.30508174D-14 -0.67381890D-15 -0.41779258D-07 -0.57701833D-05 -0.37796553D-05
  0.95498386D-05 -0.33387163D-15 -0.12206076D-12  0.24108718D-13  0.89785820D-05
 -0.16161187D-04  0.71826046D-05 -0.41472916D-17  0.83582407D-13 -0.63777092D-14
  0.58618517D-06  0.48415940D-06 -0.10703446D-05 -0.52849586D-15  0.64442367D-14
  0.69024453D-14 -0.25370367D-13  0.14805036D-14 -0.70368971D-05  0.13897165D-13
  0.90549162D-15  0.12181116D-04  0.62213937D-13 -0.53470025D-14  0.89295752D-05
 -0.35835503D-14 -0.13086511D-14  0.13814158D-14 -0.44879685D-07 -0.68190348D-14
  0.46298011D-15 -0.36503844D-07  0.10744988D-13 -0.46072275D-14  0.17114290D-06
  0.10017534D-14 -0.11945470D-05 -0.21544148D-05 -0.31766833D-05  0.38841312D-05
  0.17492971D-04  0.23582627D-06  0.21517554D-13 -0.55872762D-05 -0.13834343D-05
 -0.28236224D-13  0.13145494D-05 -0.14075889D-05  0.13738109D-13  0.79329928D-06
  0.25025188D-05 -0.23632831D-05 -0.14760632D-05  0.38393463D-05 -0.25925239D-13
  0.97856995D-14 -0.19276820D-05 -0.22120879D-07 -0.41814872D-06  0.44026960D-06
  0.91723361D-14 -0.20291402D-13 -0.18498417D-05 -0.11945470D-05 -0.21544148D-05
 -0.31766833D-05  0.38841316D-05  0.17492971D-04  0.23582628D-06  0.28123476D-13
  0.55872762D-05 -0.13834343D-05 -0.38085201D-13 -0.13145496D-05 -0.14075887D-05
  0.70922218D-14 -0.79329933D-06  0.25025188D-05 -0.23632831D-05 -0.14760632D-05
  0.38393463D-05  0.26055701D-13  0.11785309D-13  0.19276818D-05 -0.22120883D-07