 h2cs-wavefunction
GAUSSIAN            142 MOL ORBITALS    240 PRIMITIVES        4 NUCLEI
  C    1    (CENTRE  1)   0.00000000  0.00000000 -1.04934791  CHARGE =  6.0
  S    2    (CENTRE  2)  -0.01889726  0.00000000  2.00381646  CHARGE = 16.0
  H    3    (CENTRE  3)   0.00000000 -1.74285662 -2.13348569  CHARGE =  1.0
  H    4    (CENTRE  4)   0.00000000  1.74285662 -2.13348569  CHARGE =  1.0
CENTRE ASSIGNMENTS    1  1  1  1  1  1  1  1  1  1  1  1  1  1  1  1  1  1  1  1
CENTRE ASSIGNMENTS    1  1  1  1  1  1  1  1  1  1  1  1  1  1  1  1  1  1  1  1
CENTRE ASSIGNMENTS    1  1  1  1  1  1  1  1  1  1  1  1  1  1  1  1  1  1  1  1
CENTRE ASSIGNMENTS    1  1  1  1  1  1  1  1  1  1  1  1  2  2  2  2  2  2  2  2
CENTRE ASSIGNMENTS    2  2  2  2  2  2  2  2  2  2  2  2  2  2  2  2  2  2  2  2
CENTRE ASSIGNMENTS    2  2  2  2  2  2  2  2  2  2  2  2  2  2  2  2  2  2  2  2
CENTRE ASSIGNMENTS    2  2  2  2  2  2  2  2  2  2  2  2  2  2  2  2  2  2  2  2
CENTRE ASSIGNMENTS    2  2  2  2  2  2  2  2  2  2  2  2  2  2  2  2  2  2  2  2
CENTRE ASSIGNMENTS    2  2  2  2  2  2  2  2  2  2  2  2  2  2  2  2  2  2  2  2
CENTRE ASSIGNMENTS    2  2  2  2  2  2  3  3  3  3  3  3  3  3  3  3  3  3  3  3
CENTRE ASSIGNMENTS    3  3  3  3  3  3  3  3  3  3  3  3  3  4  4  4  4  4  4  4
CENTRE ASSIGNMENTS    4  4  4  4  4  4  4  4  4  4  4  4  4  4  4  4  4  4  4  4
TYPE ASSIGNMENTS      1  1  1  1  1  1  1  1  1  1  1  1  1  1  1  1  2  2  2  3
TYPE ASSIGNMENTS      3  3  4  4  4  2  3  4  2  3  4  2  3  4  5  6  7  8  9 10
TYPE ASSIGNMENTS      5  6  7  8  9 10  5  6  7  8  9 10 11 12 13 17 14 15 18 19
TYPE ASSIGNMENTS     16 20 11 12 13 17 14 15 18 19 16 20  1  1  1  1  1  1  1  1
TYPE ASSIGNMENTS      1  1  1  1  1  1  1  1  1  1  1  1  1  1  1  1  1  1  1  1
TYPE ASSIGNMENTS      1  1  1  2  2  2  2  2  2  3  3  3  3  3  3  4  4  4  4  4
TYPE ASSIGNMENTS      4  2  2  2  2  2  2  3  3  3  3  3  3  4  4  4  4  4  4  2
TYPE ASSIGNMENTS      3  4  2  3  4  2  3  4  5  6  7  8  9 10  5  6  7  8  9 10
TYPE ASSIGNMENTS      5  6  7  8  9 10 11 12 13 17 14 15 18 19 16 20 11 12 13 17
TYPE ASSIGNMENTS     14 15 18 19 16 20  1  1  1  1  1  1  2  3  4  2  3  4  2  3
TYPE ASSIGNMENTS      4  5  6  7  8  9 10  5  6  7  8  9 10  1  1  1  1  1  1  2
TYPE ASSIGNMENTS      3  4  2  3  4  2  3  4  5  6  7  8  9 10  5  6  7  8  9 10
EXPONENTS  0.8236000D+04 0.1235000D+04 0.2808000D+03 0.7927000D+02 0.2559000D+02
EXPONENTS  0.8997000D+01 0.3319000D+01 0.2808000D+03 0.7927000D+02 0.2559000D+02
EXPONENTS  0.8997000D+01 0.3319000D+01 0.3643000D+00 0.9059000D+00 0.1285000D+00
EXPONENTS  0.4402000D-01 0.1871000D+02 0.4133000D+01 0.1200000D+01 0.1871000D+02
EXPONENTS  0.4133000D+01 0.1200000D+01 0.1871000D+02 0.4133000D+01 0.1200000D+01
EXPONENTS  0.3827000D+00 0.3827000D+00 0.3827000D+00 0.1209000D+00 0.1209000D+00
EXPONENTS  0.1209000D+00 0.3569000D-01 0.3569000D-01 0.3569000D-01 0.1097000D+01
EXPONENTS  0.1097000D+01 0.1097000D+01 0.1097000D+01 0.1097000D+01 0.1097000D+01
EXPONENTS  0.3180000D+00 0.3180000D+00 0.3180000D+00 0.3180000D+00 0.3180000D+00
EXPONENTS  0.3180000D+00 0.1000000D+00 0.1000000D+00 0.1000000D+00 0.1000000D+00
EXPONENTS  0.1000000D+00 0.1000000D+00 0.7610000D+00 0.7610000D+00 0.7610000D+00
EXPONENTS  0.7610000D+00 0.7610000D+00 0.7610000D+00 0.7610000D+00 0.7610000D+00
EXPONENTS  0.7610000D+00 0.7610000D+00 0.2680000D+00 0.2680000D+00 0.2680000D+00
EXPONENTS  0.2680000D+00 0.2680000D+00 0.2680000D+00 0.2680000D+00 0.2680000D+00
EXPONENTS  0.2680000D+00 0.2680000D+00 0.3741000D+06 0.5605000D+05 0.1276000D+05
EXPONENTS  0.3615000D+04 0.1183000D+04 0.4288000D+03 0.1678000D+03 0.6947000D+02
EXPONENTS  0.2984000D+02 0.1272000D+02 0.5244000D+01 0.3615000D+04 0.1183000D+04
EXPONENTS  0.4288000D+03 0.1678000D+03 0.6947000D+02 0.2984000D+02 0.1272000D+02
EXPONENTS  0.5244000D+01 0.2219000D+01 0.1183000D+04 0.1678000D+03 0.6947000D+02
EXPONENTS  0.2984000D+02 0.1272000D+02 0.5244000D+01 0.2219000D+01 0.3490000D+00
EXPONENTS  0.7767000D+00 0.1322000D+00 0.4970000D-01 0.5744000D+03 0.1358000D+03
EXPONENTS  0.4319000D+02 0.1587000D+02 0.6208000D+01 0.2483000D+01 0.5744000D+03
EXPONENTS  0.1358000D+03 0.4319000D+02 0.1587000D+02 0.6208000D+01 0.2483000D+01
EXPONENTS  0.5744000D+03 0.1358000D+03 0.4319000D+02 0.1587000D+02 0.6208000D+01
EXPONENTS  0.2483000D+01 0.1358000D+03 0.4319000D+02 0.1587000D+02 0.6208000D+01
EXPONENTS  0.2483000D+01 0.3229000D+00 0.1358000D+03 0.4319000D+02 0.1587000D+02
EXPONENTS  0.6208000D+01 0.2483000D+01 0.3229000D+00 0.1358000D+03 0.4319000D+02
EXPONENTS  0.1587000D+02 0.6208000D+01 0.2483000D+01 0.3229000D+00 0.8688000D+00
EXPONENTS  0.8688000D+00 0.8688000D+00 0.1098000D+00 0.1098000D+00 0.1098000D+00
EXPONENTS  0.3510000D-01 0.3510000D-01 0.3510000D-01 0.2690000D+00 0.2690000D+00
EXPONENTS  0.2690000D+00 0.2690000D+00 0.2690000D+00 0.2690000D+00 0.8190000D+00
EXPONENTS  0.8190000D+00 0.8190000D+00 0.8190000D+00 0.8190000D+00 0.8190000D+00
EXPONENTS  0.1010000D+00 0.1010000D+00 0.1010000D+00 0.1010000D+00 0.1010000D+00
EXPONENTS  0.1010000D+00 0.5570000D+00 0.5570000D+00 0.5570000D+00 0.5570000D+00
EXPONENTS  0.5570000D+00 0.5570000D+00 0.5570000D+00 0.5570000D+00 0.5570000D+00
EXPONENTS  0.5570000D+00 0.2180000D+00 0.2180000D+00 0.2180000D+00 0.2180000D+00
EXPONENTS  0.2180000D+00 0.2180000D+00 0.2180000D+00 0.2180000D+00 0.2180000D+00
EXPONENTS  0.2180000D+00 0.3387000D+02 0.5095000D+01 0.1159000D+01 0.3258000D+00
EXPONENTS  0.1027000D+00 0.2526000D-01 0.1407000D+01 0.1407000D+01 0.1407000D+01
EXPONENTS  0.3880000D+00 0.3880000D+00 0.3880000D+00 0.1020000D+00 0.1020000D+00
EXPONENTS  0.1020000D+00 0.1057000D+01 0.1057000D+01 0.1057000D+01 0.1057000D+01
EXPONENTS  0.1057000D+01 0.1057000D+01 0.2470000D+00 0.2470000D+00 0.2470000D+00
EXPONENTS  0.2470000D+00 0.2470000D+00 0.2470000D+00 0.3387000D+02 0.5095000D+01
EXPONENTS  0.1159000D+01 0.3258000D+00 0.1027000D+00 0.2526000D-01 0.1407000D+01
EXPONENTS  0.1407000D+01 0.1407000D+01 0.3880000D+00 0.3880000D+00 0.3880000D+00
EXPONENTS  0.1020000D+00 0.1020000D+00 0.1020000D+00 0.1057000D+01 0.1057000D+01
EXPONENTS  0.1057000D+01 0.1057000D+01 0.1057000D+01 0.1057000D+01 0.2470000D+00
EXPONENTS  0.2470000D+00 0.2470000D+00 0.2470000D+00 0.2470000D+00 0.2470000D+00
MO    1     MO 0.0        OCC NO =    2.0000337  ORB. ENERGY =    0.000000
  0.16210300D-10  0.30219264D-10  0.51074674D-10  0.76774761D-10  0.94304043D-10
  0.79589285D-10  0.29927650D-10  0.21926114D-14  0.16388412D-13  0.61247237D-13
  0.17087025D-12  0.22891903D-12 -0.27031069D-12  0.13289314D-11 -0.45767124D-14
  0.15666431D-13  0.85230743D-13  0.79909239D-13  0.56900138D-13 -0.14388051D-02
 -0.13489712D-02 -0.96054785D-03 -0.94396671D-14 -0.88502879D-14 -0.63019322D-14
  0.12143782D-13 -0.59812074D-03 -0.42658284D-13  0.74095374D-15  0.16109610D-02
 -0.15302870D-13 -0.11626948D-15  0.29651609D-04 -0.54257350D-15 -0.67511933D-13
  0.33973338D-13  0.33538596D-13  0.83497552D-05  0.13039728D-13 -0.10628787D-02
  0.14320657D-13  0.10223320D-13 -0.24543977D-13 -0.23586270D-05 -0.91777292D-14
  0.52283462D-04 -0.83294242D-15  0.41835569D-15  0.41458673D-15  0.69821766D-07
  0.25576955D-14 -0.21500719D-03 -0.24543748D-14  0.16676337D-03  0.93840846D-14
 -0.31538961D-14  0.19448388D-03  0.28816882D-13  0.10517021D-13 -0.69477398D-03
 -0.56969135D-13  0.93728956D-05  0.99113700D-15 -0.81254872D-04 -0.91004168D-14
  0.30441903D-14 -0.12290031D-03  0.92894996D-15 -0.60176013D-14  0.36666493D-03
  0.26372301D-13 -0.45690662D-05  0.27760652D-10  0.51901335D-10  0.89700933D-10
  0.14508756D-09  0.21929499D-09  0.30201461D-09  0.35301830D-09  0.30510229D-09
  0.14239283D-09  0.19291104D-10 -0.14109791D-12  0.69675827D-13  0.89567575D-12
  0.32672964D-11  0.11023777D-10  0.24213161D-10  0.31276799D-10 -0.50264478D-11
 -0.42165922D-10 -0.23140114D-10  0.64543578D-15  0.73519148D-14  0.15265225D-13
  0.41975493D-13 -0.54426047D-14 -0.18979406D-12 -0.47337653D-12  0.39185424D-12
 -0.13148228D-11  0.59088223D-13  0.12878295D-13 -0.23220229D-09 -0.30463620D-09
 -0.33411998D-09 -0.27490386D-09 -0.14491368D-09 -0.37703814D-10  0.97724274D+01
  0.12820869D+02  0.14061719D+02  0.11569558D+02  0.60988134D+01  0.15867965D+01
 -0.35539429D-09 -0.46625709D-09 -0.51138312D-09 -0.42075063D-09 -0.22179581D-09
 -0.57707097D-10 -0.12879297D-14 -0.46231049D-13 -0.73346717D-13 -0.87096977D-13
 -0.13180068D-13  0.95922067D-13  0.96391793D-04  0.34600442D-02  0.54894469D-02
  0.65185498D-02  0.98642840D-03 -0.71790411D-02 -0.22428615D-14 -0.80508928D-13
 -0.12772943D-12 -0.15167478D-12 -0.22952392D-13  0.16704321D-12 -0.17963086D-11
  0.66518487D-01 -0.25524189D-11 -0.62844757D-14 -0.57540486D-03 -0.38496663D-14
  0.42560451D-15 -0.27474337D-04 -0.11093760D-15  0.78033420D-14 -0.50142557D-14
 -0.27890864D-14 -0.52521698D-05 -0.13391100D-13  0.77026371D-03 -0.18929672D-13
  0.17488512D-13  0.14411602D-14  0.73996756D-05  0.69279094D-14 -0.10811687D-02
 -0.94634245D-15 -0.40969058D-15  0.13560330D-14  0.35988461D-06  0.13751872D-14
 -0.29972049D-04 -0.31788805D-14  0.14811181D-05  0.22617120D-14  0.17212116D-14
  0.13082973D-03 -0.10506522D-13  0.78154299D-14 -0.13527308D-03  0.37213858D-14
  0.36912405D-05  0.59201908D-16  0.33705034D-04 -0.45369415D-15 -0.74423515D-15
 -0.22228794D-05 -0.27268617D-15  0.56662942D-15 -0.98892221D-04  0.16337686D-14
  0.13361154D-05 -0.10704309D-03 -0.19305662D-03 -0.28466187D-03  0.13751293D-03
  0.23683253D-02  0.25549486D-04 -0.24957421D-05 -0.18503321D-04  0.26625079D-03
  0.18811463D-05 -0.14193383D-04 -0.32498518D-03 -0.14174809D-07  0.31409061D-03
  0.13272497D-03 -0.49116868D-04 -0.14474996D-03  0.19386683D-03 -0.15402676D-05
 -0.26645016D-05 -0.85291378D-05  0.25288325D-04 -0.22496732D-04 -0.27915931D-05
  0.51354019D-06 -0.67641683D-06 -0.11635539D-03  0.10704309D-03  0.19305662D-03
  0.28466187D-03 -0.13751293D-03 -0.23683253D-02 -0.25549486D-04  0.24957421D-05
 -0.18503321D-04 -0.26625079D-03 -0.18811463D-05 -0.14193383D-04  0.32498518D-03
  0.14174815D-07  0.31409061D-03 -0.13272497D-03  0.49116868D-04  0.14474996D-03
 -0.19386683D-03 -0.15402676D-05  0.26645016D-05 -0.85291377D-05 -0.25288325D-04
  0.22496732D-04  0.27915931D-05  0.51354018D-06  0.67641682D-06 -0.11635539D-03
MO    2     MO 0.0        OCC NO =    2.0000243  ORB. ENERGY =    0.000000
 -0.53354583D-01 -0.99463692D-01 -0.16810719D+00 -0.25269646D+00 -0.31039234D+00
 -0.26196019D+00 -0.98503871D-01 -0.88983879D-05 -0.66509937D-04 -0.24856282D-03
 -0.69345156D-03 -0.92903391D-03  0.10970158D-02 -0.42233610D-02 -0.54981542D-03
 -0.39482479D-04 -0.17169716D-04 -0.16097701D-04 -0.11462522D-04 -0.14229872D-12
 -0.13341409D-12 -0.94998782D-13  0.24026664D-02  0.22526524D-02  0.16040227D-02
  0.65703909D-06 -0.20527947D-13  0.49313523D-04  0.27245230D-05  0.48273412D-13
 -0.60509055D-03  0.25227258D-08  0.59538587D-15 -0.47200892D-06  0.19004625D-03
 -0.14576127D-03 -0.44284980D-04  0.21487681D-14  0.43211870D-06 -0.82862117D-13
  0.37906929D-04  0.14676142D-03 -0.18466835D-03 -0.95426631D-15  0.25567751D-05
  0.68003446D-14  0.11033586D-04  0.85515482D-04 -0.96549067D-04  0.47743073D-15
  0.79003332D-06  0.95011406D-14  0.70334711D-06  0.12245419D-13  0.98892342D-05
  0.57445299D-07  0.59198058D-14 -0.17119012D-03 -0.21674866D-05 -0.42656062D-13
  0.14152241D-03 -0.16252689D-14 -0.17703018D-06 -0.68938262D-14  0.58659020D-04
  0.15207446D-05 -0.54096038D-14  0.10713236D-04 -0.98965409D-06  0.26091083D-13
 -0.18669030D-03  0.66833819D-16 -0.12114634D+00 -0.22649529D+00 -0.39145119D+00
 -0.63315616D+00 -0.95699435D+00 -0.13179794D+01 -0.15405574D+01 -0.13314538D+01
 -0.62139645D+00 -0.84185583D-01  0.61574548D-03 -0.15086722D-02 -0.19393829D-01
 -0.70745902D-01 -0.23869492D+00 -0.52428115D+00 -0.67722824D+00  0.10883634D+00
  0.91300753D+00  0.50104675D+00 -0.12531571D-04 -0.14274239D-03 -0.29638465D-03
 -0.81498251D-03  0.10567184D-03  0.36849798D-02  0.91909248D-02 -0.76081144D-02
  0.27973897D-01  0.11459584D-02  0.42454227D-05 -0.35343323D-01 -0.46368430D-01
 -0.50856133D-01 -0.41842894D-01 -0.22057195D-01 -0.57388672D-02  0.55375216D-09
  0.72649135D-09  0.79680378D-09  0.65558615D-09  0.34558774D-09  0.89915429D-10
  0.66577721D+01  0.87346184D+01  0.95799861D+01  0.78821239D+01  0.41550076D+01
  0.10810548D+01 -0.29890445D-06 -0.10729364D-04 -0.17022405D-04 -0.20213584D-04
 -0.30588480D-05  0.22261722D-04  0.54442948D-14  0.19542640D-12  0.31004888D-12
  0.36817353D-12  0.55714360D-13 -0.40547867D-12  0.55919412D-04  0.20072626D-02
  0.31845724D-02  0.37815821D-02  0.57225304D-03 -0.41647504D-02 -0.26037760D-03
  0.37490949D-11  0.48625941D-01  0.47670367D-05 -0.60108964D-13 -0.64490524D-03
 -0.70024212D-08 -0.17620721D-14 -0.13871917D-05 -0.25509186D-03 -0.10217539D-03
  0.35726725D-03 -0.35156810D-15 -0.76201296D-05  0.48820319D-13  0.35815329D-03
 -0.38149508D-03  0.23341795D-04  0.11124065D-18  0.36209200D-05 -0.55129165D-13
 -0.53334905D-05 -0.23225850D-04  0.28559341D-04 -0.23517840D-15 -0.67195340D-06
  0.39920290D-14 -0.11155711D-05  0.11021961D-14 -0.69435684D-04  0.11207014D-06
  0.83194831D-14  0.20746477D-03  0.32346431D-05 -0.11626071D-13  0.84228454D-06
 -0.37730767D-15 -0.19504729D-06  0.22349464D-14 -0.19634898D-04 -0.27436096D-06
 -0.15722269D-15  0.25710343D-04  0.85950283D-06 -0.65476165D-14  0.33194351D-04
  0.52586514D-15 -0.22711795D-04 -0.40961657D-04 -0.60397940D-04 -0.39456266D-03
 -0.44565997D-03  0.30137120D-05  0.24988450D-06  0.20836419D-04  0.90679835D-04
 -0.22750378D-05  0.34035407D-04  0.24948338D-04  0.67000860D-07  0.35910631D-04
 -0.12462932D-03 -0.10028817D-03  0.20189489D-04  0.80098679D-04 -0.87427643D-06
 -0.22652283D-05  0.13059485D-03 -0.31331566D-04  0.21823779D-04  0.95077865D-05
  0.61564844D-06 -0.99440454D-06 -0.64588234D-04 -0.22711795D-04 -0.40961657D-04
 -0.60397940D-04 -0.39456266D-03 -0.44565997D-03  0.30137120D-05  0.24988449D-06
 -0.20836419D-04  0.90679835D-04 -0.22750378D-05 -0.34035407D-04  0.24948338D-04
  0.67000858D-07 -0.35910631D-04 -0.12462932D-03 -0.10028817D-03  0.20189489D-04
  0.80098679D-04  0.87427643D-06 -0.22652283D-05 -0.13059485D-03 -0.31331566D-04
  0.21823779D-04  0.95077865D-05 -0.61564844D-06 -0.99440454D-06  0.64588234D-04
MO    3     MO 0.0        OCC NO =    2.0000101  ORB. ENERGY =    0.000000
 -0.15143520D+00 -0.28230573D+00 -0.47713514D+00 -0.71722311D+00 -0.88098013D+00
 -0.74351615D+00 -0.27958149D+00 -0.23222842D-04 -0.17357636D-03 -0.64869448D-03
 -0.18097566D-02 -0.24245749D-02  0.28629708D-02 -0.12249220D-01 -0.11526864D-03
 -0.10722041D-03 -0.31974849D-04 -0.29978453D-04 -0.21346445D-04 -0.32241833D-13
 -0.30228768D-13 -0.21524683D-13  0.37161818D-02  0.34841566D-02  0.24809271D-02
 -0.15041006D-05 -0.86317304D-14  0.55395538D-03  0.49224079D-06 -0.27580699D-13
 -0.15671644D-03  0.32321858D-07 -0.12969800D-14 -0.38057001D-05  0.45329827D-03
 -0.44603529D-03 -0.72629847D-05  0.42654602D-14 -0.74646933D-07 -0.18984887D-14
 -0.11583251D-03 -0.31886991D-05  0.11902121D-03 -0.67902767D-14 -0.24273742D-05
 -0.89148813D-14  0.12951257D-04  0.59411624D-04 -0.72362880D-04  0.66102649D-15
  0.55386084D-06 -0.21133550D-13  0.17851573D-05  0.62969425D-14  0.71448791D-04
  0.14524262D-05 -0.50441170D-14 -0.44941715D-03 -0.68078980D-05 -0.13846710D-13
  0.23507077D-03 -0.27886307D-14 -0.13034769D-06  0.58610403D-14  0.11878332D-03
  0.27059585D-05  0.38600884D-14 -0.22276617D-04 -0.23149154D-05 -0.21443209D-13
 -0.33407335D-03  0.48917755D-14  0.11206731D+00  0.20952112D+00  0.36211477D+00
  0.58570571D+00  0.88527458D+00  0.12192064D+01  0.14251038D+01  0.12316711D+01
  0.57482730D+00  0.77876486D-01 -0.56959984D-03  0.14083030D-02  0.18103594D-01
  0.66039308D-01  0.22281499D+00  0.48940169D+00  0.63217350D+00 -0.10159566D+00
 -0.85226683D+00 -0.46771304D+00  0.63415783D-05  0.72234519D-04  0.14998490D-03
  0.41242039D-03 -0.53475040D-04 -0.18647772D-02 -0.46510504D-02  0.38500722D-02
 -0.27762148D-01  0.11070245D-02  0.29051956D-04 -0.19184271D-01 -0.25168672D-01
 -0.27604586D-01 -0.22712222D-01 -0.11972592D-01 -0.31150432D-02  0.21350292D-09
  0.28010369D-09  0.30721313D-09  0.25276571D-09  0.13324371D-09  0.34667506D-10
  0.56959602D+01  0.74727759D+01  0.81960178D+01  0.67434366D+01  0.35547563D+01
  0.92488073D+00 -0.13044483D-06 -0.46823995D-05 -0.74287441D-05 -0.88214057D-05
 -0.13349112D-05  0.97152336D-05  0.17493699D-14  0.62794735D-13  0.99625422D-13
  0.11830213D-12  0.17902231D-13 -0.13028908D-12  0.36610880D-04  0.13141706D-02
  0.20849646D-02  0.24758316D-02  0.37465857D-03 -0.27266949D-02 -0.15085865D-03
  0.14294042D-11  0.43852590D-01  0.17749842D-05  0.27294305D-13 -0.11640570D-03
 -0.27991331D-07 -0.21795074D-15  0.49739355D-06 -0.15127417D-03 -0.13810521D-03
  0.28937938D-03 -0.10076919D-14 -0.50604433D-05 -0.24459100D-13 -0.11408420D-03
  0.47186731D-03 -0.35778311D-03  0.93089088D-15  0.50621506D-05 -0.68213116D-14
  0.62454856D-05  0.20931957D-05 -0.83386814D-05 -0.16022253D-15 -0.12338837D-06
 -0.94753834D-14 -0.83904625D-06 -0.17872714D-14 -0.43864649D-04  0.40152370D-06
 -0.42992561D-15  0.20880301D-03  0.21156150D-05  0.57917398D-14 -0.77209064D-04
  0.40606902D-15 -0.17288313D-06 -0.13052035D-14 -0.12961515D-04 -0.13549709D-06
 -0.81791742D-15  0.19684512D-04  0.65414647D-06  0.47335279D-14  0.19200033D-04
  0.88508409D-15  0.39092364D-04  0.70504688D-04  0.10395912D-03 -0.35965675D-03
  0.52874844D-05  0.70021076D-05  0.45154081D-06  0.17304110D-03  0.20437633D-03
 -0.43323890D-05  0.12733971D-03  0.17033211D-03 -0.58947649D-07  0.74326338D-04
 -0.57695500D-04 -0.23417616D-03  0.11048430D-03  0.12369186D-03 -0.18524246D-05
 -0.42242802D-05  0.44853481D-03 -0.63981385D-04  0.95196013D-05  0.54461784D-04
  0.62048066D-06 -0.20028593D-05 -0.58264619D-04  0.39092364D-04  0.70504688D-04
  0.10395912D-03 -0.35965675D-03  0.52874844D-05  0.70021076D-05  0.45154080D-06
 -0.17304110D-03  0.20437633D-03 -0.43323890D-05 -0.12733971D-03  0.17033211D-03
 -0.58947649D-07 -0.74326338D-04 -0.57695500D-04 -0.23417616D-03  0.11048430D-03
  0.12369186D-03  0.18524246D-05 -0.42242802D-05 -0.44853481D-03 -0.63981385D-04
  0.95196013D-05  0.54461784D-04 -0.62048066D-06 -0.20028593D-05  0.58264619D-04
MO    4     MO 0.0        OCC NO =    2.0000048  ORB. ENERGY =    0.000000
  0.28557164D+00  0.53236306D+00  0.89976610D+00  0.13525163D+01  0.16613240D+01
  0.14020988D+01  0.52722577D+00  0.30292750D-04  0.22641954D-03  0.84618152D-03
  0.23607147D-02  0.31627068D-02 -0.37345670D-02  0.23601624D-01 -0.50957319D-03
 -0.43118277D-05 -0.70297626D-04 -0.65908493D-04 -0.46930773D-04  0.10520045D-12
  0.98632111D-13  0.70231938D-13  0.42394425D-02  0.39747468D-02  0.28302565D-02
 -0.11150001D-04 -0.18634125D-13 -0.37409012D-03  0.83115528D-06 -0.13087605D-12
 -0.30670432D-03  0.21300067D-07 -0.27292906D-14 -0.39153745D-05 -0.11863669D-02
  0.61340188D-03  0.57296505D-03 -0.28893477D-15 -0.26267604D-04  0.56181182D-13
  0.18488522D-03  0.11332005D-03 -0.29820527D-03 -0.30272115D-14  0.17269417D-04
  0.20231502D-13  0.88260509D-05  0.37105184D-04 -0.45931235D-04  0.41031164D-15
 -0.34856241D-06  0.13702909D-13  0.28542696D-05 -0.84010903D-14  0.41352303D-03
  0.26802195D-05 -0.29964312D-15  0.19143730D-03 -0.11243028D-04  0.25502914D-13
 -0.14320064D-02 -0.42966373D-15 -0.53177186D-06  0.39084388D-14 -0.67360671D-04
 -0.31143015D-05  0.10504858D-13 -0.22552606D-04  0.47096171D-05 -0.22230174D-13
  0.22463462D-03  0.21008485D-14  0.36846327D-01  0.68887919D-01  0.11905880D+00
  0.19257270D+00  0.29106719D+00  0.40085979D+00  0.46855628D+00  0.40495802D+00
  0.18899602D+00  0.25604813D-01 -0.18727729D-03  0.46213887D-03  0.59407486D-02
  0.21670997D-01  0.73117407D-01  0.16059863D+00  0.20744963D+00 -0.33338921D-01
 -0.27967392D+00 -0.15348144D+00  0.18368685D-05  0.20923074D-04  0.43443844D-04
  0.11945954D-03 -0.15489301D-04 -0.54014163D-03 -0.13471990D-02  0.11151918D-02
 -0.95143281D-02  0.13101314D-02  0.10620354D-03  0.15584112D+00  0.20445469D+00
  0.22424254D+00  0.18450001D+00  0.97257915D-01  0.25304680D-01 -0.33392168D-09
 -0.43808625D-09 -0.48048580D-09 -0.39532924D-09 -0.20839510D-09 -0.54220485D-10
  0.42429540D+01  0.55665144D+01  0.61052616D+01  0.50232253D+01  0.26479588D+01
  0.68894906D+00  0.77188960D-06  0.27707464D-04  0.43958587D-04  0.52199473D-04
  0.78991562D-05 -0.57488578D-04 -0.36791614D-14 -0.13206582D-12 -0.20952573D-12
 -0.24880538D-12 -0.37650812D-13  0.27401556D-12  0.31445086D-04  0.11287412D-02
  0.17907762D-02  0.21264918D-02  0.32179426D-03 -0.23419583D-02  0.12003804D-02
 -0.22839155D-11  0.33091694D-01  0.48576819D-05  0.21962095D-13 -0.34772936D-03
 -0.28344252D-06  0.93623264D-15 -0.46938664D-05 -0.13526409D-03 -0.23125848D-03
  0.36652257D-03 -0.14631295D-15  0.44861723D-05 -0.41717702D-13  0.98554579D-04
  0.33892675D-03 -0.43748133D-03  0.37081163D-15 -0.28354626D-06  0.46410268D-13
 -0.10358224D-04 -0.12207458D-04  0.22565682D-04 -0.18435345D-15 -0.89184592D-06
  0.54872790D-15  0.23724383D-05 -0.20850064D-15  0.53862353D-04 -0.62687575D-06
 -0.71012874D-14 -0.27782195D-04 -0.64904390D-05  0.77267893D-14 -0.13380486D-03
 -0.40438974D-15 -0.40416162D-07 -0.18031479D-14 -0.36896717D-04  0.59334622D-07
 -0.65421608D-15  0.28902069D-04  0.61913863D-07  0.60636598D-14  0.81788084D-04
  0.41770428D-15 -0.30791974D-03 -0.55534594D-03 -0.81885726D-03 -0.53880342D-03
 -0.47503533D-03 -0.71217566D-05 -0.36540644D-05 -0.82633013D-03 -0.37185000D-03
  0.47832066D-05 -0.40929436D-03 -0.27034068D-03 -0.78584152D-06 -0.35212598D-04
 -0.10052202D-03  0.27163385D-03 -0.43500460D-03  0.16337075D-03  0.34538003D-05
 -0.21908491D-05 -0.94982696D-03  0.49498419D-04 -0.24641717D-04 -0.24856702D-04
  0.21508352D-07  0.20818264D-05 -0.78927856D-04 -0.30791974D-03 -0.55534594D-03
 -0.81885726D-03 -0.53880342D-03 -0.47503533D-03 -0.71217566D-05 -0.36540644D-05
  0.82633013D-03 -0.37185000D-03  0.47832066D-05  0.40929436D-03 -0.27034068D-03
 -0.78584152D-06  0.35212598D-04 -0.10052202D-03  0.27163385D-03 -0.43500460D-03
  0.16337075D-03 -0.34538003D-05 -0.21908491D-05  0.94982696D-03  0.49498419D-04
 -0.24641717D-04 -0.24856702D-04 -0.21508354D-07  0.20818264D-05  0.78927856D-04
MO    5     MO 0.0        OCC NO =    2.0000043  ORB. ENERGY =    0.000000
 -0.50707564D-02 -0.94529115D-02 -0.15976708D-01 -0.24015972D-01 -0.29499321D-01
 -0.24896386D-01 -0.93616913D-02 -0.54061032D-06 -0.40407272D-05 -0.15101120D-04
 -0.42129774D-04 -0.56442282D-04  0.66647810D-04 -0.41990040D-03  0.14722181D-04
 -0.77836762D-07 -0.29432790D-02 -0.27595112D-02 -0.19649363D-02 -0.27189582D-13
 -0.25491961D-13 -0.18151795D-13 -0.97781070D-04 -0.91675968D-04 -0.65278751D-04
 -0.49210334D-03 -0.13848586D-13  0.53197993D-05 -0.49272905D-04  0.53225127D-13
  0.10218532D-04 -0.19298042D-06  0.18342693D-14  0.21675641D-06  0.25413622D-04
 -0.11774054D-04 -0.13639568D-04 -0.67289786D-14 -0.66393360D-03 -0.21298389D-13
 -0.73822039D-05 -0.14052722D-05  0.87874761D-05  0.84284581D-14  0.61482438D-03
 -0.49308806D-16 -0.47800862D-07 -0.60231361D-06  0.65011447D-06 -0.25024901D-15
 -0.53821146D-04 -0.12808905D-13  0.83813761D-04  0.44578356D-14 -0.94602481D-05
  0.44201451D-04  0.19203546D-14  0.78751600D-06 -0.29564274D-03 -0.15293861D-13
  0.27593228D-04 -0.44953859D-14 -0.33396821D-04 -0.53112350D-15  0.27415119D-05
 -0.14146351D-03 -0.27652322D-14 -0.30454767D-05  0.24165397D-03  0.43586027D-14
 -0.51790591D-05 -0.32688491D-14 -0.80267496D-03 -0.15006817D-02 -0.25936240D-02
 -0.41950799D-02 -0.63407229D-02 -0.87324882D-02 -0.10207215D-01 -0.88217657D-02
 -0.41171640D-02 -0.55778538D-03  0.40797226D-05 -0.10080909D-04 -0.12958907D-03
 -0.47272229D-03 -0.15949533D-02 -0.35032331D-02 -0.45252216D-02  0.72724162D-03
  0.61006928D-02  0.33479815D-02 -0.35806049D-07 -0.40785316D-06 -0.84685017D-06
 -0.23286229D-05  0.30193270D-06  0.10528972D-04  0.26260929D-04 -0.21738417D-04
  0.20817957D-03 -0.32767882D-04 -0.30614056D-05  0.97142314D+01  0.12744519D+02
  0.13977979D+02  0.11500660D+02  0.60624942D+01  0.15773470D+01  0.24131298D-09
  0.31658891D-09  0.34722952D-09  0.28568999D-09  0.15059952D-09  0.39183162D-10
 -0.32744983D-01 -0.42959556D-01 -0.47117335D-01 -0.38766724D-01 -0.20435613D-01
 -0.53169621D-02  0.51722974D-04  0.18566288D-02  0.29455881D-02  0.34977955D-02
  0.52930866D-03 -0.38522092D-02  0.23266978D-14  0.83518286D-13  0.13250385D-12
  0.15734426D-12  0.23810334D-13 -0.17328715D-12 -0.36783046D-06 -0.13203507D-04
 -0.20947694D-04 -0.24874744D-04 -0.37642044D-05  0.27395174D-04  0.75257123D-01
  0.16470416D-11 -0.26525917D-03  0.17203564D-03 -0.39413896D-14  0.97644510D-05
 -0.15199116D-04 -0.70906787D-15 -0.10083963D-07 -0.88917045D-06  0.49335223D-05
 -0.40443518D-05  0.28164369D-15  0.62525576D-03  0.14444809D-13  0.59953002D-06
 -0.77082954D-05  0.71087654D-05  0.48607301D-15 -0.40086054D-03 -0.25623451D-13
  0.50731425D-06  0.23121924D-06 -0.73853348D-06  0.19569120D-15 -0.34017713D-04
 -0.28042119D-14  0.12996877D-03 -0.26201950D-15 -0.26204917D-05 -0.73670425D-04
  0.28269570D-14  0.61450592D-05 -0.31623589D-03 -0.20408985D-14  0.17164157D-05
  0.50293866D-15  0.67232304D-05  0.65979203D-15  0.34216685D-06  0.35149767D-04
 -0.25192516D-15  0.22654642D-06 -0.55319458D-04 -0.17274509D-14 -0.12530470D-05
 -0.44013407D-15  0.60619404D-05  0.10932959D-04  0.16120642D-04  0.88584124D-05
  0.10940137D-04  0.22856119D-06 -0.12768813D-03  0.14955993D-04  0.81306208D-05
  0.16794745D-03  0.82524723D-05  0.30198833D-05 -0.57085508D-04  0.11670755D-05
  0.12874405D-05 -0.46165277D-05  0.81908693D-05 -0.35743415D-05  0.14040872D-03
 -0.57313623D-04  0.18568704D-04 -0.13979967D-05  0.55514793D-06  0.84284880D-06
 -0.38195314D-04  0.11111567D-03  0.75865785D-06  0.60619404D-05  0.10932959D-04
  0.16120642D-04  0.88584124D-05  0.10940137D-04  0.22856119D-06 -0.12768813D-03
 -0.14955993D-04  0.81306208D-05  0.16794745D-03 -0.82524723D-05  0.30198833D-05
 -0.57085508D-04 -0.11670754D-05  0.12874405D-05 -0.46165277D-05  0.81908693D-05
 -0.35743416D-05 -0.14040872D-03 -0.57313623D-04 -0.18568704D-04 -0.13979967D-05
  0.55514794D-06  0.84284880D-06  0.38195314D-04  0.11111567D-03 -0.75865785D-06
MO    6     MO 0.0        OCC NO =    2.0000000  ORB. ENERGY =    0.000000
 -0.81010291D-04 -0.15101950D-03 -0.25524353D-03 -0.38367864D-03 -0.47128049D-03
 -0.39774410D-03 -0.14956217D-03  0.49245882D-07  0.36808246D-06  0.13756082D-05
  0.38377327D-05  0.51415037D-05 -0.60711572D-05  0.16641386D-05 -0.30769418D-04
 -0.72437319D-05 -0.97763897D-07 -0.91659868D-07 -0.65267287D-07  0.16949333D-14
  0.15891077D-14  0.11315394D-14  0.14566228D-04  0.13656765D-04  0.97244301D-05
  0.23742631D-06  0.23528721D-12 -0.38210927D-04  0.29694223D-07 -0.10836507D-13
  0.41044452D-05  0.30335272D-08 -0.73403587D-16 -0.38995555D-06  0.14533877D-05
  0.89091777D-05 -0.10362565D-04  0.10710005D-14  0.17118722D-06 -0.22157117D-13
  0.63090417D-05  0.43048108D-05 -0.10613853D-04  0.35575247D-14  0.20601559D-06
 -0.12110031D-12  0.63674660D-06 -0.91542849D-06  0.27868188D-06  0.18759030D-15
  0.17823968D-07 -0.17115738D-13  0.12155644D-07  0.44728982D-14  0.21218475D-05
  0.14103733D-07 -0.52966373D-13  0.39244335D-06 -0.50570665D-07  0.39547678D-13
 -0.67579859D-05 -0.61254769D-14 -0.11976150D-07  0.11223982D-13 -0.38246928D-06
  0.15567229D-07  0.23446250D-14  0.61645807D-06  0.20361222D-07 -0.36016571D-13
  0.53094979D-06 -0.64604243D-15  0.58266941D+00  0.10893592D+01  0.18827364D+01
  0.30452485D+01  0.46027913D+01  0.63389965D+01  0.74095150D+01  0.64038039D+01
  0.29886886D+01  0.40490173D+00 -0.29615096D-02 -0.29343319D-04 -0.37720541D-03
 -0.13759911D-02 -0.46425599D-02 -0.10197145D-01 -0.13171930D-01  0.21168412D-02
  0.17757781D-01  0.97452413D-02  0.19754033D-06  0.22501071D-05  0.46720335D-05
  0.12846906D-04 -0.16657489D-05 -0.58087857D-04 -0.14488034D-03  0.11992985D-03
  0.13975538D-04 -0.17647771D-04  0.32770254D-05 -0.72163063D-04 -0.94673835D-04
 -0.10383671D-03 -0.85433715D-04 -0.45035797D-04 -0.11717467D-04 -0.36998549D-09
 -0.48539992D-09 -0.53237866D-09 -0.43802513D-09 -0.23090194D-09 -0.60076342D-10
  0.11194454D-01  0.14686487D-01  0.16107897D-01  0.13253093D-01  0.69862769D-02
  0.18176978D-02 -0.43874691D-08 -0.15749097D-06 -0.24986337D-06 -0.29670509D-06
 -0.44899301D-07  0.32676870D-06 -0.39801719D-14 -0.14287078D-12 -0.22666808D-12
 -0.26916139D-12 -0.40731213D-13  0.29643414D-12  0.70486741D-06  0.25301661D-04
  0.40141719D-04  0.47667060D-04  0.72132825D-05 -0.52496919D-04 -0.10595659D-05
 -0.25361085D-11  0.16288533D-03 -0.63475891D-07  0.59037142D-13  0.52674352D-05
  0.76437767D-10  0.15274560D-14 -0.34020645D-07 -0.58150357D-05 -0.37582490D-05
  0.95732846D-05  0.48589490D-15 -0.16999539D-06 -0.64093064D-13  0.91720821D-05
 -0.15974594D-04  0.68025120D-05 -0.23415362D-16 -0.43543691D-07  0.42295421D-13
  0.59370886D-06  0.49058954D-06 -0.10842984D-05  0.76329960D-16  0.27309604D-07
 -0.71432834D-14 -0.73308022D-07 -0.26161968D-14 -0.69847301D-05 -0.62589658D-07
 -0.80704410D-14  0.12188378D-04  0.28251372D-06  0.15919031D-13  0.87658126D-05
  0.54680489D-15  0.71153702D-09 -0.30912606D-14 -0.58989274D-07  0.37930419D-09
 -0.87208549D-15 -0.80734608D-08 -0.25139152D-08  0.10145867D-13  0.18504128D-06
 -0.36948750D-15 -0.12364793D-05 -0.22300414D-05 -0.32881948D-05  0.30183443D-05
  0.17403083D-04  0.23761468D-06  0.13460420D-08 -0.58374193D-05 -0.14809731D-05
 -0.21149369D-07  0.10018176D-05 -0.14145211D-05  0.36396896D-08  0.75794863D-06
  0.25179716D-05 -0.24401005D-05 -0.16078936D-05  0.40479941D-05 -0.16349276D-07
 -0.88772936D-07 -0.20745484D-05 -0.38649542D-07 -0.43390401D-06  0.47255355D-06
  0.16156177D-07 -0.20292664D-07 -0.18460614D-05 -0.12364793D-05 -0.22300414D-05
 -0.32881948D-05  0.30183440D-05  0.17403083D-04  0.23761467D-06  0.13460454D-08
  0.58374193D-05 -0.14809731D-05 -0.21149375D-07 -0.10018174D-05 -0.14145213D-05
  0.36396888D-08 -0.75794861D-06  0.25179716D-05 -0.24401004D-05 -0.16078937D-05
  0.40479941D-05  0.16349287D-07 -0.88772942D-07  0.20745486D-05 -0.38649537D-07