 h2cs-wavefunction
GAUSSIAN            142 MOL ORBITALS    240 PRIMITIVES        4 NUCLEI
  C    1    (CENTRE  1)   0.00000000  0.00000000 -1.06824518  CHARGE =  6.0
  S    2    (CENTRE  2)   0.00000000  0.00000000  2.00381646  CHARGE = 16.0
  H    3    (CENTRE  3)   0.00000000 -1.74285662 -2.13348569  CHARGE =  1.0
  H    4    (CENTRE  4)   0.00000000  1.74285662 -2.13348569  CHARGE =  1.0
CENTRE ASSIGNMENTS    1  1  1  1  1  1  1  1  1  1  1  1  1  1  1  1  1  1  1  1
CENTRE ASSIGNMENTS    1  1  1  1  1  1  1  1  1  1  1  1  1  1  1  1  1  1  1  1
CENTRE ASSIGNMENTS    1  1  1  1  1  1  1  1  1  1  1  1  1  1  1  1  1  1  1  1
CENTRE ASSIGNMENTS    1  1  1  1  1  1  1  1  1  1  1  1  2  2  2  2  2  2  2  2
CENTRE ASSIGNMENTS    2  2  2  2  2  2  2  2  2  2  2  2  2  2  2  2  2  2  2  2
CENTRE ASSIGNMENTS    2  2  2  2  2  2  2  2  2  2  2  2  2  2  2  2  2  2  2  2
CENTRE ASSIGNMENTS    2  2  2  2  2  2  2  2  2  2  2  2  2  2  2  2  2  2  2  2
CENTRE ASSIGNMENTS    2  2  2  2  2  2  2  2  2  2  2  2  2  2  2  2  2  2  2  2
CENTRE ASSIGNMENTS    2  2  2  2  2  2  2  2  2  2  2  2  2  2  2  2  2  2  2  2
CENTRE ASSIGNMENTS    2  2  2  2  2  2  3  3  3  3  3  3  3  3  3  3  3  3  3  3
CENTRE ASSIGNMENTS    3  3  3  3  3  3  3  3  3  3  3  3  3  4  4  4  4  4  4  4
CENTRE ASSIGNMENTS    4  4  4  4  4  4  4  4  4  4  4  4  4  4  4  4  4  4  4  4
TYPE ASSIGNMENTS      1  1  1  1  1  1  1  1  1  1  1  1  1  1  1  1  2  2  2  3
TYPE ASSIGNMENTS      3  3  4  4  4  2  3  4  2  3  4  2  3  4  5  6  7  8  9 10
TYPE ASSIGNMENTS      5  6  7  8  9 10  5  6  7  8  9 10 11 12 13 17 14 15 18 19
TYPE ASSIGNMENTS     16 20 11 12 13 17 14 15 18 19 16 20  1  1  1  1  1  1  1  1
TYPE ASSIGNMENTS      1  1  1  1  1  1  1  1  1  1  1  1  1  1  1  1  1  1  1  1
TYPE ASSIGNMENTS      1  1  1  2  2  2  2  2  2  3  3  3  3  3  3  4  4  4  4  4
TYPE ASSIGNMENTS      4  2  2  2  2  2  2  3  3  3  3  3  3  4  4  4  4  4  4  2
TYPE ASSIGNMENTS      3  4  2  3  4  2  3  4  5  6  7  8  9 10  5  6  7  8  9 10
TYPE ASSIGNMENTS      5  6  7  8  9 10 11 12 13 17 14 15 18 19 16 20 11 12 13 17
TYPE ASSIGNMENTS     14 15 18 19 16 20  1  1  1  1  1  1  2  3  4  2  3  4  2  3
TYPE ASSIGNMENTS      4  5  6  7  8  9 10  5  6  7  8  9 10  1  1  1  1  1  1  2
TYPE ASSIGNMENTS      3  4  2  3  4  2  3  4  5  6  7  8  9 10  5  6  7  8  9 10
EXPONENTS  0.8236000D+04 0.1235000D+04 0.2808000D+03 0.7927000D+02 0.2559000D+02
EXPONENTS  0.8997000D+01 0.3319000D+01 0.2808000D+03 0.7927000D+02 0.2559000D+02
EXPONENTS  0.8997000D+01 0.3319000D+01 0.3643000D+00 0.9059000D+00 0.1285000D+00
EXPONENTS  0.4402000D-01 0.1871000D+02 0.4133000D+01 0.1200000D+01 0.1871000D+02
EXPONENTS  0.4133000D+01 0.1200000D+01 0.1871000D+02 0.4133000D+01 0.1200000D+01
EXPONENTS  0.3827000D+00 0.3827000D+00 0.3827000D+00 0.1209000D+00 0.1209000D+00
EXPONENTS  0.1209000D+00 0.3569000D-01 0.3569000D-01 0.3569000D-01 0.1097000D+01
EXPONENTS  0.1097000D+01 0.1097000D+01 0.1097000D+01 0.1097000D+01 0.1097000D+01
EXPONENTS  0.3180000D+00 0.3180000D+00 0.3180000D+00 0.3180000D+00 0.3180000D+00
EXPONENTS  0.3180000D+00 0.1000000D+00 0.1000000D+00 0.1000000D+00 0.1000000D+00
EXPONENTS  0.1000000D+00 0.1000000D+00 0.7610000D+00 0.7610000D+00 0.7610000D+00
EXPONENTS  0.7610000D+00 0.7610000D+00 0.7610000D+00 0.7610000D+00 0.7610000D+00
EXPONENTS  0.7610000D+00 0.7610000D+00 0.2680000D+00 0.2680000D+00 0.2680000D+00
EXPONENTS  0.2680000D+00 0.2680000D+00 0.2680000D+00 0.2680000D+00 0.2680000D+00
EXPONENTS  0.2680000D+00 0.2680000D+00 0.3741000D+06 0.5605000D+05 0.1276000D+05
EXPONENTS  0.3615000D+04 0.1183000D+04 0.4288000D+03 0.1678000D+03 0.6947000D+02
EXPONENTS  0.2984000D+02 0.1272000D+02 0.5244000D+01 0.3615000D+04 0.1183000D+04
EXPONENTS  0.4288000D+03 0.1678000D+03 0.6947000D+02 0.2984000D+02 0.1272000D+02
EXPONENTS  0.5244000D+01 0.2219000D+01 0.1183000D+04 0.1678000D+03 0.6947000D+02
EXPONENTS  0.2984000D+02 0.1272000D+02 0.5244000D+01 0.2219000D+01 0.3490000D+00
EXPONENTS  0.7767000D+00 0.1322000D+00 0.4970000D-01 0.5744000D+03 0.1358000D+03
EXPONENTS  0.4319000D+02 0.1587000D+02 0.6208000D+01 0.2483000D+01 0.5744000D+03
EXPONENTS  0.1358000D+03 0.4319000D+02 0.1587000D+02 0.6208000D+01 0.2483000D+01
EXPONENTS  0.5744000D+03 0.1358000D+03 0.4319000D+02 0.1587000D+02 0.6208000D+01
EXPONENTS  0.2483000D+01 0.1358000D+03 0.4319000D+02 0.1587000D+02 0.6208000D+01
EXPONENTS  0.2483000D+01 0.3229000D+00 0.1358000D+03 0.4319000D+02 0.1587000D+02
EXPONENTS  0.6208000D+01 0.2483000D+01 0.3229000D+00 0.1358000D+03 0.4319000D+02
EXPONENTS  0.1587000D+02 0.6208000D+01 0.2483000D+01 0.3229000D+00 0.8688000D+00
EXPONENTS  0.8688000D+00 0.8688000D+00 0.1098000D+00 0.1098000D+00 0.1098000D+00
EXPONENTS  0.3510000D-01 0.3510000D-01 0.3510000D-01 0.2690000D+00 0.2690000D+00
EXPONENTS  0.2690000D+00 0.2690000D+00 0.2690000D+00 0.2690000D+00 0.8190000D+00
EXPONENTS  0.8190000D+00 0.8190000D+00 0.8190000D+00 0.8190000D+00 0.8190000D+00
EXPONENTS  0.1010000D+00 0.1010000D+00 0.1010000D+00 0.1010000D+00 0.1010000D+00
EXPONENTS  0.1010000D+00 0.5570000D+00 0.5570000D+00 0.5570000D+00 0.5570000D+00
EXPONENTS  0.5570000D+00 0.5570000D+00 0.5570000D+00 0.5570000D+00 0.5570000D+00
EXPONENTS  0.5570000D+00 0.2180000D+00 0.2180000D+00 0.2180000D+00 0.2180000D+00
EXPONENTS  0.2180000D+00 0.2180000D+00 0.2180000D+00 0.2180000D+00 0.2180000D+00
EXPONENTS  0.2180000D+00 0.3387000D+02 0.5095000D+01 0.1159000D+01 0.3258000D+00
EXPONENTS  0.1027000D+00 0.2526000D-01 0.1407000D+01 0.1407000D+01 0.1407000D+01
EXPONENTS  0.3880000D+00 0.3880000D+00 0.3880000D+00 0.1020000D+00 0.1020000D+00
EXPONENTS  0.1020000D+00 0.1057000D+01 0.1057000D+01 0.1057000D+01 0.1057000D+01
EXPONENTS  0.1057000D+01 0.1057000D+01 0.2470000D+00 0.2470000D+00 0.2470000D+00
EXPONENTS  0.2470000D+00 0.2470000D+00 0.2470000D+00 0.3387000D+02 0.5095000D+01
EXPONENTS  0.1159000D+01 0.3258000D+00 0.1027000D+00 0.2526000D-01 0.1407000D+01
EXPONENTS  0.1407000D+01 0.1407000D+01 0.3880000D+00 0.3880000D+00 0.3880000D+00
EXPONENTS  0.1020000D+00 0.1020000D+00 0.1020000D+00 0.1057000D+01 0.1057000D+01
EXPONENTS  0.1057000D+01 0.1057000D+01 0.1057000D+01 0.1057000D+01 0.2470000D+00
EXPONENTS  0.2470000D+00 0.2470000D+00 0.2470000D+00 0.2470000D+00 0.2470000D+00
MO    1     MO 0.0        OCC NO =    2.0000337  ORB. ENERGY =    0.000000
 -0.64247443D-13 -0.11977018D-12 -0.20242792D-12 -0.30428691D-12 -0.37376197D-12
 -0.31544192D-12 -0.11861440D-12 -0.25979895D-15 -0.19418362D-14 -0.72570852D-14
 -0.20246138D-13 -0.27124243D-13  0.32028673D-13  0.14602322D-13 -0.10520969D-12
 -0.21589552D-13  0.21712401D-12  0.20356756D-12  0.14495223D-12 -0.13780585D-02
 -0.12920174D-02 -0.91999337D-03  0.28260379D-12  0.26495901D-12  0.18866660D-12
  0.37254228D-13 -0.55146129D-03 -0.79981363D-14  0.46147102D-14  0.16056508D-02
 -0.66435625D-13  0.72400177D-16  0.29205609D-04 -0.18787253D-14 -0.11078538D-13
 -0.54934860D-14  0.16572024D-13  0.60020110D-14  0.44986726D-13 -0.10426566D-02
  0.92818960D-14  0.12180128D-13 -0.21462024D-13 -0.46281389D-14 -0.41679244D-13
  0.22378680D-04  0.15187394D-14  0.87705234D-14 -0.10289263D-13 -0.55480438D-15
  0.39630491D-14 -0.21075223D-03 -0.57492331D-14  0.16833630D-03  0.90813870D-14
 -0.37680233D-14  0.18132943D-03 -0.94473811D-14  0.21015723D-13 -0.68633834D-03
 -0.17796780D-13  0.70134742D-14  0.23543313D-14 -0.76800934D-04  0.21946080D-14
  0.99219377D-14 -0.12299321D-03  0.59474376D-15 -0.16984932D-13  0.35339601D-03
 -0.71785679D-14 -0.26866983D-16  0.87899703D-11  0.16433735D-10  0.28402378D-10
  0.45939677D-10  0.69436284D-10  0.95628139D-10  0.11177765D-09  0.96605803D-10
  0.45086431D-10  0.61082221D-11 -0.44676416D-13  0.62088793D-13  0.79814518D-12
  0.29115189D-11  0.98233927D-11  0.21576578D-10  0.27871054D-10 -0.44791155D-11
 -0.37574455D-10 -0.20620376D-10  0.20743115D-15  0.23627698D-14  0.49059618D-14
  0.13490149D-13 -0.17491528D-14 -0.60996311D-13 -0.15213449D-12  0.12593472D-12
 -0.12479236D-11  0.20567495D-12  0.36668278D-13 -0.72028941D-09 -0.94497874D-09
 -0.10364372D-08 -0.85274928D-09 -0.44952093D-09 -0.11695689D-09  0.97725959D+01
  0.12821090D+02  0.14061961D+02  0.11569758D+02  0.60989185D+01  0.15868239D+01
  0.36150623D-09  0.47427562D-09  0.52017771D-09  0.42798655D-09  0.22561017D-09
  0.58699523D-10 -0.37910182D-14 -0.13608099D-12 -0.21589590D-12 -0.25636976D-12
 -0.38795502D-13  0.28234639D-12  0.95889553D-04  0.34420160D-02  0.54608447D-02
  0.64845855D-02  0.98128871D-03 -0.71416354D-02  0.31141596D-14  0.11178473D-12
  0.17734927D-12  0.21059682D-12  0.31868849D-13 -0.23193551D-12 -0.55745766D-11
  0.66463655D-01  0.28032271D-11 -0.12879159D-13 -0.57513204D-03 -0.60228940D-13
  0.11023362D-14 -0.27464977D-04 -0.13560803D-14 -0.16923471D-13 -0.18589112D-13
  0.35512584D-13  0.62116331D-15 -0.43899049D-13  0.74969628D-03 -0.23123983D-14
  0.24533500D-13 -0.22221102D-13 -0.12955466D-14  0.29365522D-13 -0.10890922D-02
 -0.13441022D-14 -0.19425965D-14  0.32866987D-14  0.98419351D-16  0.25513520D-14
 -0.30549751D-04 -0.91994289D-14  0.82418646D-06 -0.59987788D-14  0.54806261D-14
  0.13026657D-03  0.16648060D-13  0.22117661D-13 -0.13273913D-03  0.13482764D-14
  0.13584472D-14 -0.38560553D-15  0.33002312D-04 -0.22506403D-14 -0.26473397D-14
 -0.26690672D-05  0.26193802D-14  0.38041563D-14 -0.96337869D-04  0.41325408D-14
 -0.50011541D-15 -0.10549192D-03 -0.19025903D-03 -0.28053683D-03  0.16309782D-03
  0.23677650D-02  0.25173791D-04  0.10769709D-13 -0.10378829D-04  0.27102800D-03
 -0.14472556D-13 -0.90574506D-05 -0.30302944D-03  0.30161325D-14  0.31395324D-03
  0.13108416D-03 -0.53164243D-04 -0.14407675D-03  0.19724099D-03 -0.12662793D-13
  0.43238749D-14  0.86130182D-05  0.23120005D-04 -0.23545975D-04  0.42597015D-06
  0.20289059D-14 -0.92723246D-14 -0.11471984D-03  0.10549192D-03  0.19025903D-03
  0.28053683D-03 -0.16309782D-03 -0.23677650D-02 -0.25173791D-04  0.73756574D-14
 -0.10378828D-04 -0.27102800D-03 -0.75263087D-14 -0.90574506D-05  0.30302944D-03
  0.48247936D-14  0.31395324D-03 -0.13108416D-03  0.53164243D-04  0.14407675D-03
 -0.19724099D-03  0.68965518D-14  0.59226967D-14  0.86130182D-05 -0.23120005D-04
  0.23545975D-04 -0.42597015D-06 -0.38176231D-14 -0.69644453D-14 -0.11471984D-03
MO    2     MO 0.0        OCC NO =    2.0000241  ORB. ENERGY =    0.000000
 -0.52089398D-01 -0.97105132D-01 -0.16412090D+00 -0.24670433D+00 -0.30303208D+00
 -0.25574838D+00 -0.96168071D-01 -0.85654583D-05 -0.64021494D-04 -0.23926294D-03
 -0.66750635D-03 -0.89427448D-03  0.10559714D-02 -0.41227365D-02 -0.54063647D-03
 -0.33896956D-04  0.22833153D-12  0.21407532D-12  0.15243438D-12 -0.29018222D-13
 -0.27206427D-13 -0.19372597D-13  0.22802869D-02  0.21379139D-02  0.15223221D-02
  0.52394586D-13  0.17853137D-12  0.49308135D-04  0.15540682D-13  0.20533441D-12
 -0.57864229D-03  0.26475701D-15  0.77258183D-14 -0.24348752D-06  0.19035981D-03
 -0.14474500D-03 -0.45614808D-04 -0.45012706D-14  0.45312543D-13 -0.61650140D-13
  0.42406964D-04  0.14380386D-03 -0.18621082D-03  0.31641000D-14 -0.48149431D-13
 -0.11006651D-12  0.10336882D-04  0.82703413D-04 -0.93040296D-04 -0.17679036D-14
  0.53624590D-14 -0.86465800D-14 -0.75492414D-14  0.25498023D-14  0.99959750D-05
 -0.96816390D-15 -0.18331428D-13 -0.16980876D-03  0.23615888D-13  0.10682021D-13
  0.13982084D-03 -0.23551871D-14  0.15677044D-14 -0.50282210D-14  0.55362861D-04
  0.12733455D-13 -0.15991932D-13  0.12893998D-04 -0.17436568D-13  0.31076595D-13
 -0.17898258D-03 -0.16047547D-14 -0.12306488D+00 -0.23008219D+00 -0.39765041D+00
 -0.64318315D+00 -0.97214980D+00 -0.13388516D+01 -0.15649544D+01 -0.13525394D+01
 -0.63123720D+00 -0.85518790D-01  0.62549674D-03 -0.15326853D-02 -0.19702515D-01
 -0.71871943D-01 -0.24249415D+00 -0.53262597D+00 -0.68800747D+00  0.11056865D+00
  0.92753959D+00  0.50902176D+00 -0.12618054D-04 -0.14372748D-03 -0.29843006D-03
 -0.82060688D-03  0.10640111D-03  0.37104106D-02  0.92543533D-02 -0.76606196D-02
  0.28433427D-01  0.10625761D-02 -0.29970700D-05 -0.84677564D-09 -0.11109215D-08
 -0.12184404D-08 -0.10024961D-08 -0.52845894D-09 -0.13749508D-09 -0.35638856D-10
 -0.46756152D-10 -0.51281380D-10 -0.42192775D-10 -0.22241632D-10 -0.57868542D-11
  0.65495699D+01  0.85926632D+01  0.94242919D+01  0.77540235D+01  0.40874803D+01
  0.10634855D+01 -0.43317744D-14 -0.15549177D-12 -0.24669160D-12 -0.29293870D-12
 -0.44329347D-13  0.32262068D-12  0.14625465D-15  0.52499031D-14  0.83291028D-14
  0.98905541D-14  0.14967015D-14 -0.10892713D-13  0.54589425D-04  0.19595219D-02
  0.31088306D-02  0.36916409D-02  0.55864258D-03 -0.40656960D-02 -0.65596735D-11
 -0.21628194D-12  0.47821172D-01 -0.20906258D-13 -0.19213812D-13 -0.62447855D-03
  0.12016501D-14 -0.72525640D-15 -0.12069837D-05 -0.24935901D-03 -0.96821822D-04
  0.34618083D-03  0.17325741D-15 -0.45399214D-13  0.32961749D-13  0.36572041D-03
 -0.38530301D-03  0.19582603D-04  0.46790895D-15  0.32636259D-13 -0.23344341D-13
 -0.50115987D-05 -0.22710865D-04  0.27722464D-04  0.51747595D-15  0.44496261D-14
  0.57417460D-14 -0.10245676D-13 -0.98403868D-15 -0.67715736D-04  0.65445515D-14
  0.34670350D-14  0.20322092D-03  0.24192478D-13 -0.51491893D-15 -0.73709717D-07
  0.22678267D-14 -0.87789810D-16  0.16905344D-14 -0.19175049D-04 -0.24680774D-14
  0.12348520D-14  0.24998685D-04  0.27314468D-14 -0.63064553D-14  0.32526462D-04
 -0.10606986D-14 -0.20980091D-04 -0.37838459D-04 -0.55792786D-04 -0.37055892D-03
 -0.42462219D-03  0.29872807D-05  0.15903387D-13  0.22662354D-04  0.88980383D-04
 -0.19886212D-13  0.39013071D-04  0.34285200D-04  0.47242328D-15  0.36819247D-04
 -0.11792219D-03 -0.99351080D-04  0.20731048D-04  0.78620032D-04 -0.12076819D-13
  0.65590641D-14  0.13110058D-03 -0.30511878D-04  0.21610567D-04  0.89013107D-05
  0.88126403D-15 -0.11593719D-13 -0.62698256D-04 -0.20980091D-04 -0.37838459D-04
 -0.55792785D-04 -0.37055892D-03 -0.42462219D-03  0.29872807D-05  0.19475180D-13
 -0.22662354D-04  0.88980383D-04 -0.25346603D-13 -0.39013071D-04  0.34285200D-04
  0.48299485D-14 -0.36819247D-04 -0.11792219D-03 -0.99351080D-04  0.20731047D-04
  0.78620033D-04  0.19029465D-13  0.90314296D-15 -0.13110058D-03 -0.30511878D-04
  0.21610567D-04  0.89013107D-05 -0.51447387D-16 -0.10422046D-13  0.62698256D-04
MO    3     MO 0.0        OCC NO =    2.0000099  ORB. ENERGY =    0.000000
 -0.15580839D+00 -0.29045822D+00 -0.49091396D+00 -0.73793525D+00 -0.90642128D+00
 -0.76498759D+00 -0.28765531D+00 -0.23529655D-04 -0.17586959D-03 -0.65726481D-03
 -0.18336665D-02 -0.24566076D-02  0.29007955D-02 -0.12608947D-01 -0.15425589D-03
 -0.10645077D-03 -0.10492352D-12 -0.98372469D-13 -0.70047058D-13  0.11668670D-12
  0.10940120D-12  0.77900173D-13  0.35739844D-02  0.33508375D-02  0.23859959D-02
 -0.25099742D-13 -0.24404442D-12  0.54442291D-03 -0.14058303D-13 -0.25452332D-12
 -0.15140906D-03 -0.38437561D-15 -0.54977616D-14 -0.37808417D-05  0.47812324D-03
 -0.46517476D-03 -0.12948483D-04  0.37953552D-14 -0.15904837D-13  0.11959745D-12
 -0.10968178D-03 -0.53041431D-05  0.11498592D-03 -0.34187345D-14  0.14613529D-13
  0.16786010D-12  0.12629495D-04  0.59063552D-04 -0.71693047D-04  0.22461272D-15
 -0.43013634D-14  0.66043634D-13  0.15365315D-14 -0.15210727D-13  0.70103466D-04
  0.30682808D-14  0.45037228D-13 -0.46060459D-03 -0.76778754D-14  0.59495194D-15
  0.25029419D-03  0.18285435D-14 -0.47137444D-16 -0.35823743D-14  0.11800655D-03
 -0.55602614D-14  0.14168945D-13 -0.19018718D-04  0.57016738D-14 -0.34218220D-14
 -0.33500094D-03  0.10936984D-14  0.10970547D+00  0.20510542D+00  0.35448312D+00
  0.57336184D+00  0.86661724D+00  0.11935114D+01  0.13950694D+01  0.12057133D+01
  0.56271270D+00  0.76235223D-01 -0.55759540D-03  0.13784149D-02  0.17719385D-01
  0.64637770D-01  0.21808623D+00  0.47901523D+00  0.61875702D+00 -0.99439517D-01
 -0.83417935D+00 -0.45778687D+00  0.61374177D-05  0.69909003D-04  0.14515629D-03
  0.39914293D-03 -0.51753465D-04 -0.18047426D-02 -0.45013146D-02  0.37261230D-02
 -0.27174096D-01  0.10795397D-02  0.25006971D-04  0.36217940D-09  0.47515878D-09
  0.52114635D-09  0.42878351D-09  0.22603029D-09  0.58808830D-10 -0.40331219D-09
 -0.52912266D-09 -0.58033305D-09 -0.47748055D-09 -0.25170060D-09 -0.65487761D-10
  0.57463380D+01  0.75388687D+01  0.82685074D+01  0.68030788D+01  0.35861963D+01
  0.93306083D+00  0.18763364D-14  0.67352278D-13  0.10685608D-12  0.12688831D-12
  0.19201546D-13 -0.13974526D-12 -0.40211003D-14 -0.14433993D-12 -0.22899892D-12
 -0.27192919D-12 -0.41150054D-13  0.29948238D-12  0.36579133D-04  0.13130311D-02
  0.20831567D-02  0.24736847D-02  0.37433369D-03 -0.27243305D-02  0.28022194D-11
 -0.27649995D-11  0.44223930D-01  0.14828072D-13 -0.44163334D-13 -0.11222241D-03
 -0.30692830D-15  0.21389765D-15  0.57602460D-06 -0.15066867D-03 -0.13506144D-03
  0.28573011D-03  0.74958805D-16  0.15436902D-13 -0.55878628D-14 -0.10217274D-03
  0.46997018D-03 -0.36779744D-03 -0.13374002D-14 -0.10289084D-13  0.47129372D-13
  0.65703184D-05  0.21149268D-05 -0.86852452D-05 -0.12306643D-15 -0.38536494D-14
  0.16028397D-13  0.48831031D-14  0.21406580D-14 -0.44447037D-04 -0.28355851D-14
 -0.27065022D-14  0.21209926D-03 -0.11813724D-13 -0.37154717D-14 -0.78758150D-04
  0.44914683D-15 -0.43104905D-15  0.46223711D-15 -0.12586607D-04  0.72763763D-15
  0.55886710D-15  0.19115608D-04  0.56550953D-15 -0.19455784D-14  0.18644214D-04
  0.26399421D-15  0.46431182D-04  0.83740548D-04  0.12347539D-03 -0.32977061D-03
  0.25962783D-04  0.72320367D-05 -0.83635614D-14  0.19004948D-03  0.20878825D-03
  0.75407495D-14  0.14264287D-03  0.19406363D-03 -0.11362911D-14  0.78228738D-04
 -0.53541156D-04 -0.23990180D-03  0.11712282D-03  0.12277898D-03  0.13808218D-14
 -0.59735113D-14  0.46458319D-03 -0.65129874D-04  0.10113569D-04  0.55016305D-04
 -0.11372571D-14  0.48728723D-14 -0.56806978D-04  0.46431182D-04  0.83740548D-04
  0.12347539D-03 -0.32977061D-03  0.25962784D-04  0.72320367D-05 -0.10699619D-13
 -0.19004948D-03  0.20878825D-03  0.13211543D-13 -0.14264287D-03  0.19406363D-03
 -0.13155720D-14 -0.78228738D-04 -0.53541155D-04 -0.23990180D-03  0.11712282D-03
  0.12277898D-03 -0.72698857D-14 -0.32896274D-14 -0.46458319D-03 -0.65129874D-04
  0.10113569D-04  0.55016305D-04 -0.13228949D-15  0.55662054D-14  0.56806978D-04
MO    4     MO 0.0        OCC NO =    2.0000048  ORB. ENERGY =    0.000000
  0.28349606D+00  0.52849378D+00  0.89322648D+00  0.13426860D+01  0.16492493D+01
  0.13919082D+01  0.52339383D+00  0.30028128D-04  0.22444165D-03  0.83878969D-03
  0.23400926D-02  0.31350790D-02 -0.37019437D-02  0.23447943D-01 -0.55844072D-03
 -0.10745462D-04  0.20400455D-12  0.19126723D-12  0.13619366D-12  0.24768082D-13
  0.23221651D-13  0.16535199D-13  0.43148093D-02  0.40454080D-02  0.28805715D-02
  0.37334040D-13 -0.66261130D-13 -0.39059948D-03  0.20547447D-14 -0.56988647D-13
 -0.31710244D-03 -0.33566128D-16 -0.96284702D-15 -0.44890945D-05 -0.11789798D-02
  0.64955629D-03  0.52942355D-03 -0.16237887D-14  0.46490110D-13  0.61703791D-13
  0.19322227D-03  0.11494963D-03 -0.30817190D-03 -0.10444136D-14 -0.44697724D-13
  0.34429926D-13  0.94284620D-05  0.35629850D-04 -0.45058311D-04  0.13217323D-15
  0.26710748D-14  0.20734693D-14 -0.62170414D-14 -0.73572588D-14  0.41140152D-03
 -0.19062775D-14  0.53107486D-14  0.19166683D-03  0.20557402D-13  0.16761028D-13
 -0.14258714D-02  0.21218683D-14  0.23578931D-14  0.31114307D-14 -0.68377881D-04
  0.10141747D-13  0.57925309D-14 -0.19735293D-04 -0.17215426D-13 -0.15126823D-13
  0.22486894D-03  0.36218071D-15  0.37750430D-01  0.70578230D-01  0.12198016D+00
  0.19729788D+00  0.29820914D+00  0.41069573D+00  0.48005330D+00  0.41489452D+00
  0.19363344D+00  0.26233082D-01 -0.19187254D-03  0.47339871D-03  0.60854927D-02
  0.22199003D-01  0.74898885D-01  0.16451156D+00  0.21250406D+00 -0.34151211D-01
 -0.28648807D+00 -0.15722096D+00  0.18897097D-05  0.21524968D-04  0.44693592D-04
  0.12289603D-03 -0.15934881D-04 -0.55567987D-03 -0.13859539D-02  0.11472725D-02
 -0.97540610D-02  0.13390310D-02  0.11396354D-03 -0.66873225D-09 -0.87733869D-09
 -0.96225066D-09 -0.79171086D-09 -0.41734495D-09 -0.10858531D-09 -0.22600719D-09
 -0.29650858D-09 -0.32520574D-09 -0.26756948D-09 -0.14104742D-09 -0.36697885D-10
  0.43411533D+01  0.56953462D+01  0.62465622D+01  0.51394832D+01  0.27092433D+01
  0.70489415D+00 -0.35572616D-14 -0.12769015D-12 -0.20258362D-12 -0.24056184D-12
 -0.36403347D-13  0.26493674D-12 -0.22477691D-14 -0.80685091D-13 -0.12800892D-12
 -0.15200667D-12 -0.23002615D-13  0.16740872D-12  0.32440958D-04  0.11644887D-02
  0.18474905D-02  0.21938383D-02  0.33198555D-03 -0.24161286D-02 -0.51758402D-11
 -0.15429208D-11  0.33856826D-01 -0.89499010D-14  0.20388075D-13 -0.36106948D-03
  0.11253903D-14  0.68857259D-15 -0.49240370D-05 -0.14384451D-03 -0.23724209D-03
  0.38108660D-03 -0.54273865D-16 -0.44386093D-13 -0.22932584D-13  0.92371808D-04
  0.33499656D-03 -0.42736837D-03 -0.23010837D-15  0.29578828D-13  0.35027365D-13
 -0.10837486D-04 -0.12356255D-04  0.23193741D-04 -0.31987502D-16  0.14890137D-14
 -0.63958308D-15 -0.87041764D-14  0.21243365D-16  0.43259739D-04  0.46865653D-14
 -0.48494607D-14 -0.10775564D-04  0.21425964D-13  0.47857306D-14 -0.11900365D-03
 -0.13847401D-15 -0.64339733D-15 -0.96159328D-15 -0.37536833D-04 -0.26092928D-14
  0.10806659D-15  0.30446770D-04  0.45394848D-14  0.27767133D-14  0.82163729D-04
  0.83353235D-16 -0.31389411D-03 -0.56612095D-03 -0.83474501D-03 -0.53976246D-03
 -0.46833093D-03 -0.71441522D-05  0.80048492D-14 -0.84018333D-03 -0.36234034D-03
 -0.13672958D-13 -0.41429430D-03 -0.26981655D-03  0.33797446D-14 -0.37004449D-04
 -0.96849024D-04  0.26155494D-03 -0.44157311D-03  0.18001817D-03 -0.12339727D-13
  0.65002972D-15 -0.92073266D-03  0.50524534D-04 -0.25953631D-04 -0.24570902D-04
  0.18035707D-14 -0.79020064D-14 -0.79915927D-04 -0.31389411D-03 -0.56612095D-03
 -0.83474501D-03 -0.53976246D-03 -0.46833093D-03 -0.71441522D-05  0.89639709D-14
  0.84018333D-03 -0.36234034D-03 -0.12099921D-13  0.41429430D-03 -0.26981655D-03
  0.31770426D-14  0.37004448D-04 -0.96849024D-04  0.26155494D-03 -0.44157311D-03
  0.18001817D-03  0.91446604D-14  0.42710039D-14  0.92073266D-03  0.50524534D-04
 -0.25953631D-04 -0.24570902D-04 -0.22276883D-14 -0.77904053D-14  0.79915927D-04
MO    5     MO 0.0        OCC NO =    2.0000042  ORB. ENERGY =    0.000000
  0.20792794D-10  0.38761958D-10  0.65512989D-10  0.98478242D-10  0.12096288D-09
  0.10208840D-09  0.38387906D-10  0.22135338D-14  0.16544794D-13  0.61831672D-13
  0.17250074D-12  0.23110343D-12 -0.27289006D-12  0.17126154D-11  0.64369103D-13
  0.29502403D-13 -0.28783351D-02 -0.26986221D-02 -0.19215797D-02 -0.93742091D-13
 -0.87889169D-13 -0.62582324D-13  0.36619442D-12  0.34333055D-12  0.24447180D-12
 -0.49366985D-03 -0.28390656D-13 -0.16829856D-13 -0.48932803D-04  0.13114122D-12
 -0.45133592D-13 -0.13727374D-06  0.16588022D-14  0.12820907D-14 -0.75682926D-13
  0.47912423D-13  0.27770503D-13 -0.91133212D-15 -0.64666502D-03 -0.75583301D-13
  0.66833787D-14  0.16655407D-13 -0.23338786D-13  0.24102197D-14  0.60137790D-03
 -0.11019858D-13 -0.43959748D-15  0.10072246D-13 -0.96326488D-14 -0.13266907D-16
 -0.53266005D-04 -0.21208784D-13  0.82079001D-04  0.11393366D-13  0.29287252D-13
  0.42751823D-04  0.92135827D-14  0.11213799D-13 -0.28898883D-03 -0.43393680D-13
 -0.99075554D-13 -0.27683333D-14 -0.32545890D-04 -0.62384400D-14 -0.18276596D-14
 -0.14272427D-03 -0.96375637D-14  0.65620722D-15  0.24036194D-03  0.28352884D-13
  0.48267716D-14 -0.11133320D-14 -0.10964284D-09 -0.20498834D-09 -0.35428078D-09
 -0.57303456D-09 -0.86612257D-09 -0.11928301D-08 -0.13942731D-08 -0.12050251D-08
 -0.56239150D-09 -0.76191708D-10  0.55727712D-12 -0.14748508D-12 -0.18959059D-11
 -0.69159920D-11 -0.23334386D-10 -0.51252781D-10 -0.66204614D-10  0.10639645D-10
  0.89253973D-10  0.48981429D-10 -0.12466336D-14 -0.14199932D-13 -0.29484178D-13
 -0.81074000D-13  0.10512175D-13  0.36657971D-12  0.91430801D-12 -0.75685093D-12
  0.28254614D-11  0.82354834D-13 -0.27772112D-13  0.97154759D+01  0.12746152D+02
  0.13979770D+02  0.11502134D+02  0.60632709D+01  0.15775490D+01  0.72441752D-09
  0.95039459D-09  0.10423772D-08  0.85763655D-09  0.45209722D-09  0.11762719D-09
  0.65375276D-09  0.85768645D-09  0.94069641D-09  0.77397667D-09  0.40799649D-09
  0.10615301D-09  0.51246491D-04  0.18395251D-02  0.29184527D-02  0.34655731D-02
  0.52443255D-03 -0.38167219D-02  0.70972776D-14  0.25476126D-12  0.40418512D-12
  0.47995743D-12  0.72630210D-13 -0.52858906D-12  0.51627695D-14  0.18532087D-12
  0.29401620D-12  0.34913522D-12  0.52833362D-13 -0.38451131D-12  0.75252818D-01
  0.49409595D-11  0.47984055D-11  0.17297367D-03 -0.33234186D-13 -0.41650737D-13
 -0.15215500D-04 -0.17031737D-14  0.11087779D-14 -0.19196421D-13 -0.12368079D-13
  0.31564500D-13  0.39745858D-15  0.61568525D-03  0.54892837D-13  0.39059694D-13
 -0.25771721D-13 -0.13287973D-13 -0.19521658D-14 -0.42239714D-03 -0.81854221D-13
  0.29123623D-15 -0.17825312D-14  0.14912950D-14  0.80073167D-16 -0.33926637D-04
 -0.44613116D-14  0.12926163D-03  0.29719406D-15  0.24386686D-14 -0.75172671D-04
  0.10140996D-13  0.52150466D-14 -0.31261221D-03 -0.11032578D-13 -0.12531052D-13
 -0.10339561D-14  0.65975130D-05  0.22293676D-14 -0.25319535D-14  0.34871198D-04
 -0.55459680D-15  0.14899647D-14 -0.54663737D-04 -0.61335061D-14  0.61058958D-14
 -0.49881499D-16 -0.33391826D-13 -0.60223534D-13 -0.88799566D-13 -0.63502180D-13
  0.11830263D-12  0.11383996D-15 -0.12868329D-03 -0.60882843D-13 -0.46864011D-14
  0.17244893D-03 -0.29765792D-13 -0.44947694D-13 -0.56648168D-04  0.28223739D-13
 -0.85724082D-14  0.16201757D-13 -0.42162615D-13  0.25960858D-13  0.14009541D-03
 -0.59212835D-04 -0.63941093D-13  0.33759042D-14 -0.15848027D-14 -0.17911015D-14
 -0.38612976D-04  0.11153985D-03 -0.15028438D-13 -0.16144166D-13 -0.29116668D-13
 -0.42932510D-13 -0.11625542D-12 -0.30238488D-12 -0.19875971D-14 -0.12868329D-03
  0.66157225D-13 -0.48596482D-13  0.17244893D-03  0.44514936D-13  0.28893564D-14
 -0.56648168D-04  0.29132481D-13 -0.28249946D-13  0.23357970D-13 -0.27028075D-13
  0.36701044D-14 -0.14009541D-03 -0.59212835D-04  0.64406791D-13 -0.16462813D-15
  0.95962209D-15 -0.79499396D-15  0.38612976D-04  0.11153985D-03 -0.15832562D-14
MO    6     MO 0.0        OCC NO =    2.0000000  ORB. ENERGY =    0.000000
 -0.79113684D-04 -0.14748385D-03 -0.24926779D-03 -0.37469598D-03 -0.46024690D-03
 -0.38843215D-03 -0.14606063D-03  0.43413387D-07  0.32448817D-06  0.12126864D-05
  0.33832062D-05  0.45325635D-05 -0.53521124D-05  0.25774266D-05 -0.33431439D-04
 -0.74172369D-05 -0.48335575D-12 -0.45317674D-12 -0.32268884D-12 -0.13374849D-13
 -0.12539771D-13 -0.89290639D-14  0.15226906D-04  0.14276192D-04  0.10165499D-04
 -0.86473670D-13  0.10101772D-12 -0.37262387D-04 -0.15529504D-13  0.18216380D-12
  0.39042993D-05 -0.20717216D-15  0.69523865D-14 -0.39428064D-06  0.12360466D-05
  0.88064368D-05 -0.10042483D-04  0.10265882D-14 -0.10815143D-12  0.12801767D-13
  0.67699489D-05  0.40346828D-05 -0.10804632D-04 -0.12649312D-14  0.10024793D-12
 -0.94797541D-13  0.65876595D-06 -0.96576165D-06  0.30699570D-06 -0.14961093D-14
 -0.94782994D-14 -0.27300984D-13  0.13411979D-13 -0.38276404D-14  0.16159219D-05
  0.68110291D-14 -0.10692674D-13  0.92134864D-06 -0.47046966D-13  0.22175595D-13
 -0.57691142D-05  0.51490059D-14 -0.48947124D-14 -0.15581504D-15 -0.51647169D-06
 -0.24457834D-13 -0.11061808D-13  0.67887774D-06  0.39141971D-13  0.11529253D-13
  0.87053734D-06 -0.14319518D-14  0.58265986D+00  0.10893413D+01  0.18827056D+01
  0.30451986D+01  0.46027158D+01  0.63388926D+01  0.74093936D+01  0.64036990D+01
  0.29886397D+01  0.40489510D+00 -0.29614610D-02 -0.29461957D-04 -0.37873049D-03
 -0.13815544D-02 -0.46613302D-02 -0.10238373D-01 -0.13225185D-01  0.21253997D-02
  0.17829578D-01  0.97846422D-02  0.19709774D-06  0.22450658D-05  0.46615659D-05
  0.12818122D-04 -0.16620168D-05 -0.57957712D-04 -0.14455574D-03  0.11966115D-03
  0.16976197D-04 -0.17195415D-04  0.33498288D-05  0.16244813D-08  0.21312271D-08
  0.23374949D-08  0.19232204D-08  0.10138124D-08  0.26377492D-09 -0.64469304D-10
 -0.84580061D-10 -0.92766022D-10 -0.76325088D-10 -0.40234247D-10 -0.10468194D-10
  0.10938079D-01  0.14350137D-01  0.15738995D-01  0.12949571D-01  0.68262776D-02
  0.17760690D-02  0.85825635D-14  0.30807653D-12  0.48877114D-12  0.58040074D-12
  0.87829930D-13 -0.63920977D-12 -0.28884003D-15 -0.10368095D-13 -0.16449243D-13
 -0.19532971D-13 -0.29558534D-14  0.21512147D-13  0.70564608D-06  0.25329611D-04
  0.40186063D-04  0.47719717D-04  0.72212510D-05 -0.52554912D-04  0.12582188D-10
 -0.40754059D-12  0.16069831D-03  0.31966355D-13  0.20023413D-13  0.51291486D-05
 -0.24546229D-14 -0.95123798D-16 -0.38411372D-07 -0.57688111D-05 -0.37479013D-05
  0.95167124D-05  0.64761017D-15  0.10136669D-12  0.78239027D-14  0.90592379D-05
 -0.16172096D-04  0.71128576D-05 -0.19266541D-14 -0.69195577D-13 -0.87536839D-14
  0.58976063D-06  0.48518993D-06 -0.10749506D-05  0.36810765D-15 -0.67652598D-14
 -0.28784699D-14  0.21700419D-13 -0.20121018D-14 -0.70040098D-05 -0.11408792D-13
  0.11921895D-14  0.12180854D-04 -0.53692465D-13  0.48441159D-14  0.88311756D-05
  0.20496043D-14  0.84934067D-15  0.20867516D-15 -0.46032694D-07  0.55869409D-14
  0.36262074D-15 -0.37010782D-07 -0.81349629D-14 -0.98864621D-15  0.17510886D-06
 -0.10655840D-14 -0.12016936D-05 -0.21673038D-05 -0.31956883D-05  0.43278734D-05
  0.18029771D-04  0.24689739D-06 -0.24294340D-13 -0.55012341D-05 -0.12085222D-05
  0.32458604D-13  0.11722335D-05 -0.11102206D-05 -0.10266120D-13  0.75990110D-06
  0.26127031D-05 -0.23873047D-05 -0.17544047D-05  0.41417094D-05  0.23388751D-13
 -0.88040174D-14 -0.15801651D-05  0.10418359D-07 -0.47357397D-06  0.46315561D-06
 -0.54392292D-14  0.18153974D-13 -0.18269113D-05 -0.12016936D-05 -0.21673038D-05
 -0.31956883D-05  0.43278731D-05  0.18029770D-04  0.24689736D-06 -0.24596064D-13
  0.55012341D-05 -0.12085222D-05  0.33178699D-13 -0.11722334D-05 -0.11102207D-05
 -0.60020712D-14 -0.75990102D-06  0.26127031D-05 -0.23873047D-05 -0.17544047D-05
  0.41417094D-05 -0.24126805D-13 -0.10825851D-13  0.15801651D-05  0.10418356D-07