 Entering Gaussian System, Link 0=/home/wagner/chemistry/gaussian/g16/g16
 Input=GAUSSIAN.com
 Output=GAUSSIAN.log
 Initial command:
 /home/wagner/chemistry/gaussian/g16/l1.exe "/home/wagner/chemistry/gaussian/work/Gau-64241.inp" -scrdir="/home/wagner/chemistry/gaussian/work/"
 Entering Link 1 = /home/wagner/chemistry/gaussian/g16/l1.exe PID=     64243.
  
 Copyright (c) 1988-2019, Gaussian, Inc.  All Rights Reserved.
  
 This is part of the Gaussian(R) 16 program.  It is based on
 the Gaussian(R) 09 system (copyright 2009, Gaussian, Inc.),
 the Gaussian(R) 03 system (copyright 2003, Gaussian, Inc.),
 the Gaussian(R) 98 system (copyright 1998, Gaussian, Inc.),
 the Gaussian(R) 94 system (copyright 1995, Gaussian, Inc.),
 the Gaussian 92(TM) system (copyright 1992, Gaussian, Inc.),
 the Gaussian 90(TM) system (copyright 1990, Gaussian, Inc.),
 the Gaussian 88(TM) system (copyright 1988, Gaussian, Inc.),
 the Gaussian 86(TM) system (copyright 1986, Carnegie Mellon
 University), and the Gaussian 82(TM) system (copyright 1983,
 Carnegie Mellon University). Gaussian is a federally registered
 trademark of Gaussian, Inc.
  
 This software contains proprietary and confidential information,
 including trade secrets, belonging to Gaussian, Inc.
  
 This software is provided under written license and may be
 used, copied, transmitted, or stored only in accord with that
 written license.
  
 The following legend is applicable only to US Government
 contracts under FAR:
  
                    RESTRICTED RIGHTS LEGEND
  
 Use, reproduction and disclosure by the US Government is
 subject to restrictions as set forth in subparagraphs (a)
 and (c) of the Commercial Computer Software - Restricted
 Rights clause in FAR 52.227-19.
  
 Gaussian, Inc.
 340 Quinnipiac St., Bldg. 40, Wallingford CT 06492
  
  
 ---------------------------------------------------------------
 Warning -- This program may not be used in any manner that
 competes with the business of Gaussian, Inc. or will provide
 assistance to any competitor of Gaussian, Inc.  The licensee
 of this program is prohibited from giving any competitor of
 Gaussian, Inc. access to this program.  By using this program,
 the user acknowledges that Gaussian, Inc. is engaged in the
 business of creating and licensing software in the field of
 computational chemistry and represents and warrants to the
 licensee that it is not a competitor of Gaussian, Inc. and that
 it will not use this program in any manner prohibited above.
 ---------------------------------------------------------------
  

 Cite this work as:
 Gaussian 16, Revision C.01,
 M. J. Frisch, G. W. Trucks, H. B. Schlegel, G. E. Scuseria, 
 M. A. Robb, J. R. Cheeseman, G. Scalmani, V. Barone, 
 G. A. Petersson, H. Nakatsuji, X. Li, M. Caricato, A. V. Marenich, 
 J. Bloino, B. G. Janesko, R. Gomperts, B. Mennucci, H. P. Hratchian, 
 J. V. Ortiz, A. F. Izmaylov, J. L. Sonnenberg, D. Williams-Young, 
 F. Ding, F. Lipparini, F. Egidi, J. Goings, B. Peng, A. Petrone, 
 T. Henderson, D. Ranasinghe, V. G. Zakrzewski, J. Gao, N. Rega, 
 G. Zheng, W. Liang, M. Hada, M. Ehara, K. Toyota, R. Fukuda, 
 J. Hasegawa, M. Ishida, T. Nakajima, Y. Honda, O. Kitao, H. Nakai, 
 T. Vreven, K. Throssell, J. A. Montgomery, Jr., J. E. Peralta, 
 F. Ogliaro, M. J. Bearpark, J. J. Heyd, E. N. Brothers, K. N. Kudin, 
 V. N. Staroverov, T. A. Keith, R. Kobayashi, J. Normand, 
 K. Raghavachari, A. P. Rendell, J. C. Burant, S. S. Iyengar, 
 J. Tomasi, M. Cossi, J. M. Millam, M. Klene, C. Adamo, R. Cammi, 
 J. W. Ochterski, R. L. Martin, K. Morokuma, O. Farkas, 
 J. B. Foresman, and D. J. Fox, Gaussian, Inc., Wallingford CT, 2019.
 
 ******************************************
 Gaussian 16:  EM64L-G16RevC.01  3-Jul-2019
                 5-Sep-2022 
 ******************************************
 %nproc=16
 Will use up to   16 processors via shared memory.
 %mem=16GB
 ----------------------------------------------------------------------
 # qcisd/aug-cc-pvtz nosymm density=current pop=(chelpg,hirshfeld,npa,d
 ipole)
 ----------------------------------------------------------------------
 1/30=1,38=1,172=1/1;
 2/12=2,15=1,17=6,18=5,40=1/2;
 3/5=16,6=1,7=10,11=9,25=1,30=1,71=1/1,2,3;
 4//1;
 5/5=2,38=5/2;
 8/6=4,9=120000,10=1/1,4;
 9/5=8,15=1/13;
 11/28=-7,31=1,32=3,42=3/11;
 10/5=6,13=10,31=1/2;
 6/7=2,8=2,9=2,10=2,15=24,20=3,22=-1,40=-1,79=1/1,2,7;
 99/5=1,9=1/99;
 ------------------
 br2co-wavefunction
 ------------------
 Symbolic Z-matrix:
 Charge =  0 Multiplicity = 1
 C                     0.        0.       -0.49176 
 Br                    0.       -1.58418  -1.54682 
 Br                    0.        1.59418  -1.54682 
 O                     0.        0.        0.6845 
 
                          Input orientation:                          
 ---------------------------------------------------------------------
 Center     Atomic      Atomic             Coordinates (Angstroms)
 Number     Number       Type             X           Y           Z
 ---------------------------------------------------------------------
      1          6           0        0.000000    0.000000   -0.491759
      2         35           0        0.000000   -1.584181   -1.546820
      3         35           0        0.000000    1.594181   -1.546820
      4          8           0        0.000000    0.000000    0.684500
 ---------------------------------------------------------------------
                    Distance matrix (angstroms):
                    1          2          3          4
     1  C    0.000000
     2  Br   1.903361   0.000000
     3  Br   1.911692   3.178362   0.000000
     4  O    1.176259   2.736497   2.742299   0.000000
 Symmetry turned off by external request.
 Stoichiometry    CBr2O
 Framework group  CS[SG(CBr2O)]
 Deg. of freedom     5
 Full point group                 CS      NOp   2
 Rotational constants (GHZ):           6.2847953           1.2678322           1.0550058
 Standard basis: Aug-CC-pVTZ (5D, 7F)
   210 basis functions,   578 primitive gaussians,   248 cartesian basis functions
    42 alpha electrons       42 beta electrons
       nuclear repulsion energy       450.2409899789 Hartrees.
 NAtoms=    4 NActive=    4 NUniq=    4 SFac= 1.00D+00 NAtFMM=   60 NAOKFM=F Big=F
 Integral buffers will be    131072 words long.
 Raffenetti 1 integral format.
 Two-electron integral symmetry is turned off.
 One-electron integrals computed using PRISM.
 NBasis=   210 RedAO= T EigKep=  1.04D-04  NBF=   210
 NBsUse=   210 1.00D-06 EigRej= -1.00D+00 NBFU=   210
 ExpMin= 3.51D-02 ExpMax= 1.06D+07 ExpMxC= 1.21D+04 IAcc=3 IRadAn=         5 AccDes= 0.00D+00
 Harris functional with IExCor=  205 and IRadAn=       5 diagonalized for initial guess.
 HarFok:  IExCor=  205 AccDes= 0.00D+00 IRadAn=         5 IDoV= 1 UseB2=F ITyADJ=14
 ICtDFT=  3500011 ScaDFX=  1.000000  1.000000  1.000000  1.000000
 FoFCou: FMM=F IPFlag=           0 FMFlag=      100000 FMFlg1=           0
         NFxFlg=           0 DoJE=T BraDBF=F KetDBF=T FulRan=T
         wScrn=  0.000000 ICntrl=       500 IOpCl=  0 I1Cent=   200000004 NGrid=           0
         NMat0=    1 NMatS0=      1 NMatT0=    0 NMatD0=    1 NMtDS0=    0 NMtDT0=    0
 Symmetry not used in FoFCou.
 Keep R1 ints in memory in canonical form, NReq=258585026.
 Requested convergence on RMS density matrix=1.00D-08 within 128 cycles.
 Requested convergence on MAX density matrix=1.00D-06.
 Requested convergence on             energy=1.00D-06.
 No special actions if energy rises.
 SCF Done:  E(RHF) =  -5257.68454918     A.U. after   12 cycles
            NFock= 12  Conv=0.90D-08     -V/T= 2.0000
 ExpMin= 3.51D-02 ExpMax= 1.06D+07 ExpMxC= 1.21D+04 IAcc=3 IRadAn=         5 AccDes= 0.00D+00
 HarFok:  IExCor=  205 AccDes= 0.00D+00 IRadAn=         5 IDoV=-2 UseB2=F ITyADJ=14
 ICtDFT= 12500011 ScaDFX=  1.000000  1.000000  1.000000  1.000000
 Range of M.O.s used for correlation:    21   210
 NBasis=   210 NAE=    42 NBE=    42 NFC=    20 NFV=     0
 NROrb=    190 NOA=    22 NOB=    22 NVA=   168 NVB=   168

 **** Warning!!: The largest alpha MO coefficient is  0.28148410D+02

 Semi-Direct transformation.
 ModeAB=           2 MOrb=            22 LenV=    2146226169
 LASXX=     69628944 LTotXX=    69628944 LenRXX=    69628944
 LTotAB=    70719517 MaxLAS=   129061680 LenRXY=   129061680
 NonZer=   139257888 LenScr=   209707008 LnRSAI=           0
 LnScr1=           0 LExtra=           0 Total=    408397632
 MaxDsk=          -1 SrtSym=           F ITran=            4
 JobTyp=0 Pass  1:  I=   1 to  22.
 (rs|ai) integrals will be sorted in core.
 Spin components of T(2) and E(2):
     alpha-alpha T2 =       0.3830345879D-01 E2=     -0.1233118784D+00
     alpha-beta  T2 =       0.1922854975D+00 E2=     -0.6174576796D+00
     beta-beta   T2 =       0.3830345879D-01 E2=     -0.1233118784D+00
 ANorm=    0.1126451248D+01
 E2 =    -0.8640814365D+00 EUMP2 =    -0.52585486306124D+04
 Keep R2 and R3 ints in memory in canonical form, NReq=504032020.
 CIDS: In Core Option IDoMem=           1.
 Iterations=  50 Convergence= 0.100D-07
 Produce multiple copies of IABC intergrals
 Iteration Nr.   1
 **********************
 DD1Dir will call FoFMem   1 times, MxPair=       506
 NAB=   253 NAA=     0 NBB=     0.
 MP4(R+Q)=  0.21449133D-01
 E3=        0.16481076D-03        EUMP3=      -0.52585484658D+04
 E4(DQ)=    0.27147968D-03        UMP4(DQ)=   -0.52585481943D+04
 E4(SDQ)=  -0.11673711D-01        UMP4(SDQ)=  -0.52585601395D+04
 DE(Corr)= -0.84246749     E(Corr)=     -5258.5270167    
 NORM(A)=   0.11247248D+01
 Iteration Nr.   2
 **********************
 DD1Dir will call FoFMem   1 times, MxPair=       506
 NAB=   253 NAA=     0 NBB=     0.
 DE(Corr)= -0.87231862     E(CORR)=     -5258.5568678     Delta=-2.99D-02
 NORM(A)=   0.11350969D+01
 Iteration Nr.   3
 **********************
 DD1Dir will call FoFMem   1 times, MxPair=       506
 NAB=   253 NAA=     0 NBB=     0.
 DE(Corr)= -0.87022299     E(CORR)=     -5258.5547722     Delta= 2.10D-03
 NORM(A)=   0.11378453D+01
 Iteration Nr.   4
 **********************
 DD1Dir will call FoFMem   1 times, MxPair=       506
 NAB=   253 NAA=     0 NBB=     0.
 DE(Corr)= -0.87274412     E(CORR)=     -5258.5572933     Delta=-2.52D-03
 NORM(A)=   0.11391512D+01
 Iteration Nr.   5
 **********************
 DD1Dir will call FoFMem   1 times, MxPair=       506
 NAB=   253 NAA=     0 NBB=     0.
 DE(Corr)= -0.87311686     E(CORR)=     -5258.5576660     Delta=-3.73D-04
 NORM(A)=   0.11396626D+01
 Iteration Nr.   6
 **********************
 DD1Dir will call FoFMem   1 times, MxPair=       506
 NAB=   253 NAA=     0 NBB=     0.
 DE(Corr)= -0.87318072     E(CORR)=     -5258.5577299     Delta=-6.39D-05
 NORM(A)=   0.11397659D+01
 Iteration Nr.   7
 **********************
 DD1Dir will call FoFMem   1 times, MxPair=       506
 NAB=   253 NAA=     0 NBB=     0.
 DE(Corr)= -0.87319490     E(CORR)=     -5258.5577441     Delta=-1.42D-05
 NORM(A)=   0.11397744D+01
 Iteration Nr.   8
 **********************
 DD1Dir will call FoFMem   1 times, MxPair=       506
 NAB=   253 NAA=     0 NBB=     0.
 DE(Corr)= -0.87319525     E(CORR)=     -5258.5577444     Delta=-3.49D-07
 NORM(A)=   0.11397893D+01
 Iteration Nr.   9
 **********************
 DD1Dir will call FoFMem   1 times, MxPair=       506
 NAB=   253 NAA=     0 NBB=     0.
 DE(Corr)= -0.87319332     E(CORR)=     -5258.5577425     Delta= 1.94D-06
 NORM(A)=   0.11397892D+01
 Iteration Nr.  10
 **********************
 DD1Dir will call FoFMem   1 times, MxPair=       506
 NAB=   253 NAA=     0 NBB=     0.
 DE(Corr)= -0.87319473     E(CORR)=     -5258.5577439     Delta=-1.42D-06
 NORM(A)=   0.11397919D+01
 Iteration Nr.  11
 **********************
 DD1Dir will call FoFMem   1 times, MxPair=       506
 NAB=   253 NAA=     0 NBB=     0.
 DE(Corr)= -0.87319584     E(CORR)=     -5258.5577450     Delta=-1.11D-06
 NORM(A)=   0.11397937D+01
 Iteration Nr.  12
 **********************
 DD1Dir will call FoFMem   1 times, MxPair=       506
 NAB=   253 NAA=     0 NBB=     0.
 DE(Corr)= -0.87319616     E(CORR)=     -5258.5577453     Delta=-3.21D-07
 NORM(A)=   0.11397947D+01
 Iteration Nr.  13
 **********************
 DD1Dir will call FoFMem   1 times, MxPair=       506
 NAB=   253 NAA=     0 NBB=     0.
 DE(Corr)= -0.87319662     E(CORR)=     -5258.5577458     Delta=-4.59D-07
 NORM(A)=   0.11397954D+01
 Iteration Nr.  14
 **********************
 DD1Dir will call FoFMem   1 times, MxPair=       506
 NAB=   253 NAA=     0 NBB=     0.
 DE(Corr)= -0.87319673     E(CORR)=     -5258.5577459     Delta=-1.11D-07
 NORM(A)=   0.11397958D+01
 Iteration Nr.  15
 **********************
 DD1Dir will call FoFMem   1 times, MxPair=       506
 NAB=   253 NAA=     0 NBB=     0.
 DE(Corr)= -0.87319680     E(CORR)=     -5258.5577460     Delta=-6.80D-08
 NORM(A)=   0.11397959D+01
 Iteration Nr.  16
 **********************
 DD1Dir will call FoFMem   1 times, MxPair=       506
 NAB=   253 NAA=     0 NBB=     0.
 DE(Corr)= -0.87319683     E(CORR)=     -5258.5577460     Delta=-2.99D-08
 NORM(A)=   0.11397960D+01
 Iteration Nr.  17
 **********************
 DD1Dir will call FoFMem   1 times, MxPair=       506
 NAB=   253 NAA=     0 NBB=     0.
 DE(Corr)= -0.87319683     E(CORR)=     -5258.5577460     Delta= 3.12D-09
 NORM(A)=   0.11397960D+01
 Wavefunction amplitudes converged. E(Corr)=     -5258.5577460    
 Largest amplitude= 4.18D-02

 Z-amplitude iterations

 Iteration Nr.   1
 **********************
 DD1Dir will call FoFMem   1 times, MxPair=       506
 NAB=   253 NAA=     0 NBB=     0.
 DE(Z)= -0.84607439     E(Z)=     -5258.5306236     Delta= 2.71D-02
 NORM(A)=   0.11397580D+01
 Iteration Nr.   2
 **********************
 DD1Dir will call FoFMem   1 times, MxPair=       506
 NAB=   253 NAA=     0 NBB=     0.
 DE(Z)= -0.84607432     E(Z)=     -5258.5306235     Delta= 7.25D-08
 NORM(A)=   0.11397372D+01
 Iteration Nr.   3
 **********************
 DD1Dir will call FoFMem   1 times, MxPair=       506
 NAB=   253 NAA=     0 NBB=     0.
 DE(Z)= -0.84607430     E(Z)=     -5258.5306235     Delta= 1.78D-08
 NORM(A)=   0.11397263D+01
 Iteration Nr.   4
 **********************
 DD1Dir will call FoFMem   1 times, MxPair=       506
 NAB=   253 NAA=     0 NBB=     0.
 DE(Z)= -0.84607430     E(Z)=     -5258.5306235     Delta=-6.08D-10
 NORM(A)=   0.11396346D+01
 Iteration Nr.   5
 **********************
 DD1Dir will call FoFMem   1 times, MxPair=       506
 NAB=   253 NAA=     0 NBB=     0.
 DE(Z)= -0.84607371     E(Z)=     -5258.5306229     Delta= 5.85D-07
 NORM(A)=   0.11299751D+01
 Iteration Nr.   6
 **********************
 DD1Dir will call FoFMem   1 times, MxPair=       506
 NAB=   253 NAA=     0 NBB=     0.
 DE(Z)= -0.84604269     E(Z)=     -5258.5305919     Delta= 3.10D-05
 NORM(A)=   0.11299763D+01
 Iteration Nr.   7
 **********************
 DD1Dir will call FoFMem   1 times, MxPair=       506
 NAB=   253 NAA=     0 NBB=     0.
 DE(Z)= -0.84604017     E(Z)=     -5258.5305893     Delta= 2.52D-06
 NORM(A)=   0.11299766D+01
 Iteration Nr.   8
 **********************
 DD1Dir will call FoFMem   1 times, MxPair=       506
 NAB=   253 NAA=     0 NBB=     0.
 DE(Z)= -0.84604081     E(Z)=     -5258.5305900     Delta=-6.39D-07
 NORM(A)=   0.11299767D+01
 Iteration Nr.   9
 **********************
 DD1Dir will call FoFMem   1 times, MxPair=       506
 NAB=   253 NAA=     0 NBB=     0.
 DE(Z)= -0.84604054     E(Z)=     -5258.5305897     Delta= 2.70D-07
 NORM(A)=   0.11299767D+01
 Iteration Nr.  10
 **********************
 DD1Dir will call FoFMem   1 times, MxPair=       506
 NAB=   253 NAA=     0 NBB=     0.
 DE(Z)= -0.84604043     E(Z)=     -5258.5305896     Delta= 1.07D-07
 NORM(A)=   0.11299768D+01
 Iteration Nr.  11
 **********************
 DD1Dir will call FoFMem   1 times, MxPair=       506
 NAB=   253 NAA=     0 NBB=     0.
 DE(Z)= -0.84604048     E(Z)=     -5258.5305897     Delta=-4.93D-08
 NORM(A)=   0.11299768D+01
 Iteration Nr.  12
 **********************
 DD1Dir will call FoFMem   1 times, MxPair=       506
 NAB=   253 NAA=     0 NBB=     0.
 DE(Z)= -0.84604049     E(Z)=     -5258.5305897     Delta=-1.36D-08
 NORM(A)=   0.11299769D+01
 Iteration Nr.  13
 **********************
 DD1Dir will call FoFMem   1 times, MxPair=       506
 NAB=   253 NAA=     0 NBB=     0.
 DE(Z)= -0.84604049     E(Z)=     -5258.5305897     Delta= 2.78D-09
 NORM(A)=   0.11299769D+01
 Z-amplitudes converged.
 Discarding MO integrals.
          Differentiating once with respect to electric field.
                with respect to dipole field.
          Electric field/nuclear overlap derivatives assumed to be zero.
 Keep R1 ints in memory in canonical form, NReq=258592533.
          There are     1 degrees of freedom in the 1st order CPHF.  IDoFFX=0 NUNeed=     1.
 LinEq1:  Iter=  0 NonCon=     1 RMS=1.95D-03 Max=5.60D-02 NDo=     1
 AX will form     1 AO Fock derivatives at one time.
 LinEq1:  Iter=  1 NonCon=     1 RMS=7.39D-04 Max=2.61D-02 NDo=     1
 LinEq1:  Iter=  2 NonCon=     1 RMS=3.08D-04 Max=9.28D-03 NDo=     1
 LinEq1:  Iter=  3 NonCon=     1 RMS=1.02D-04 Max=2.95D-03 NDo=     1
 LinEq1:  Iter=  4 NonCon=     1 RMS=5.30D-05 Max=1.63D-03 NDo=     1
 LinEq1:  Iter=  5 NonCon=     1 RMS=1.64D-05 Max=4.59D-04 NDo=     1
 LinEq1:  Iter=  6 NonCon=     1 RMS=6.28D-06 Max=1.30D-04 NDo=     1
 LinEq1:  Iter=  7 NonCon=     1 RMS=1.34D-06 Max=2.11D-05 NDo=     1
 LinEq1:  Iter=  8 NonCon=     1 RMS=2.69D-07 Max=4.31D-06 NDo=     1
 LinEq1:  Iter=  9 NonCon=     1 RMS=6.52D-08 Max=1.22D-06 NDo=     1
 LinEq1:  Iter= 10 NonCon=     1 RMS=1.39D-08 Max=2.04D-07 NDo=     1
 LinEq1:  Iter= 11 NonCon=     1 RMS=3.89D-09 Max=9.25D-08 NDo=     1
 LinEq1:  Iter= 12 NonCon=     1 RMS=7.15D-10 Max=1.66D-08 NDo=     1
 LinEq1:  Iter= 13 NonCon=     1 RMS=1.22D-10 Max=2.57D-09 NDo=     1
 LinEq1:  Iter= 14 NonCon=     0 RMS=2.66D-11 Max=5.28D-10 NDo=     1
 Linear equations converged to 1.000D-10 1.000D-09 after    14 iterations.
 End of Minotr F.D. properties file   721 does not exist.
 End of Minotr F.D. properties file   722 does not exist.
 End of Minotr F.D. properties file   788 does not exist.

 **********************************************************************

            Population analysis using the CC Density.

 **********************************************************************

 Alpha  occ. eigenvalues -- -490.06681-490.06577 -65.20681 -65.20573 -58.56212
 Alpha  occ. eigenvalues --  -58.56104 -58.56063 -58.56046 -58.55955 -58.55938
 Alpha  occ. eigenvalues --  -20.62777 -11.46271  -9.87996  -9.87881  -7.49184
 Alpha  occ. eigenvalues --   -7.49068  -7.48464  -7.48392  -7.48349  -7.48278
 Alpha  occ. eigenvalues --   -3.23579  -3.23461  -3.23220  -3.23123  -3.23105
 Alpha  occ. eigenvalues --   -3.23009  -3.22217  -3.22215  -3.22103  -3.22101
 Alpha  occ. eigenvalues --   -1.48373  -1.10962  -1.04821  -0.79355  -0.68354
 Alpha  occ. eigenvalues --   -0.67649  -0.63077  -0.47946  -0.46182  -0.45819
 Alpha  occ. eigenvalues --   -0.45098  -0.43123
 Alpha virt. eigenvalues --    0.03851   0.05638   0.07027   0.07531   0.08232
 Alpha virt. eigenvalues --    0.09350   0.09995   0.10270   0.10939   0.11861
 Alpha virt. eigenvalues --    0.13034   0.13186   0.17492   0.19386   0.21933
 Alpha virt. eigenvalues --    0.22387   0.23253   0.24166   0.25840   0.26651
 Alpha virt. eigenvalues --    0.27538   0.28993   0.31860   0.32969   0.35647
 Alpha virt. eigenvalues --    0.36785   0.37016   0.39715   0.41383   0.43854
 Alpha virt. eigenvalues --    0.44678   0.46387   0.46636   0.49600   0.49638
 Alpha virt. eigenvalues --    0.52658   0.55731   0.56312   0.58706   0.60135
 Alpha virt. eigenvalues --    0.60817   0.63156   0.69441   0.70102   0.71448
 Alpha virt. eigenvalues --    0.71912   0.74503   0.75909   0.77585   0.78500
 Alpha virt. eigenvalues --    0.79393   0.82409   0.83555   0.85082   0.88470
 Alpha virt. eigenvalues --    0.88525   0.89925   0.90127   0.91593   0.93935
 Alpha virt. eigenvalues --    0.94792   0.98147   1.00560   1.01641   1.02950
 Alpha virt. eigenvalues --    1.05515   1.06661   1.11398   1.13059   1.13302
 Alpha virt. eigenvalues --    1.17313   1.17961   1.18811   1.30623   1.34454
 Alpha virt. eigenvalues --    1.36563   1.36647   1.40620   1.44020   1.44906
 Alpha virt. eigenvalues --    1.44984   1.45497   1.51501   1.52398   1.53297
 Alpha virt. eigenvalues --    1.62957   1.63622   1.70754   1.74725   1.79887
 Alpha virt. eigenvalues --    1.95227   2.10765   2.16509   2.17070   2.17682
 Alpha virt. eigenvalues --    2.18937   2.23322   2.24485   2.25386   2.26838
 Alpha virt. eigenvalues --    2.27175   2.27426   2.28614   2.29027   2.29675
 Alpha virt. eigenvalues --    2.30190   2.32550   2.32695   2.32785   2.34064
 Alpha virt. eigenvalues --    2.35770   2.36361   2.37329   2.37900   2.38035
 Alpha virt. eigenvalues --    2.39378   2.39502   2.40569   2.46721   2.48836
 Alpha virt. eigenvalues --    2.53378   2.55774   2.58798   2.59735   2.67492
 Alpha virt. eigenvalues --    2.70949   2.73034   2.76796   2.78704   2.88757
 Alpha virt. eigenvalues --    2.93728   2.97483   3.01201   3.10199   3.48990
 Alpha virt. eigenvalues --    3.58286   3.59323   3.59852   3.61952   3.67765
 Alpha virt. eigenvalues --    3.73717   3.84117   3.86551   3.90050   3.96040
 Alpha virt. eigenvalues --    4.12289   4.13992   4.48842   4.50405   5.02106
 Alpha virt. eigenvalues --    5.12668   5.15907   5.34193   5.48122   6.57525
 Alpha virt. eigenvalues --    6.58733   6.86340   6.88157   7.04598   7.16328
 Alpha virt. eigenvalues --    7.17078   7.22295   7.37429   7.50047   7.67856
 Alpha virt. eigenvalues --    7.68304  13.55873  15.30029
          Condensed to atoms (all electrons):
               1          2          3          4
     1  C    5.564945   0.021094   0.027485   0.240595
     2  Br   0.021094  35.045386  -0.120258  -0.057448
     3  Br   0.027485  -0.120258  35.048717  -0.056763
     4  O    0.240595  -0.057448  -0.056763   8.231540
 Mulliken charges:
               1
     1  C    0.145881
     2  Br   0.111225
     3  Br   0.100819
     4  O   -0.357925
 Sum of Mulliken charges =  -0.00000
 Mulliken charges with hydrogens summed into heavy atoms:
               1
     1  C    0.145881
     2  Br   0.111225
     3  Br   0.100819
     4  O   -0.357925
 Electronic spatial extent (au):  <R**2>=           1351.6165
 Charge=             -0.0000 electrons
 Dipole moment (field-independent basis, Debye):
    X=              0.0000    Y=             -0.0368    Z=             -1.2539  Tot=              1.2545
 Quadrupole moment (field-independent basis, Debye-Ang):
   XX=            -46.9469   YY=            -44.9419   ZZ=            -47.4990
   XY=             -0.0000   XZ=             -0.0000   YZ=              0.0600
 Traceless Quadrupole moment (field-independent basis, Debye-Ang):
   XX=             -0.4843   YY=              1.5207   ZZ=             -1.0364
   XY=             -0.0000   XZ=             -0.0000   YZ=              0.0600
 Octapole moment (field-independent basis, Debye-Ang**2):
  XXX=             -0.0000  YYY=             -0.6691  ZZZ=            164.7055  XYY=              0.0000
  XXY=             -0.2294  XXZ=             56.2865  XZZ=              0.0000  YZZ=             -0.3222
  YYZ=             45.7358  XYZ=             -0.0000
 Hexadecapole moment (field-independent basis, Debye-Ang**3):
 XXXX=            -53.6502 YYYY=           -567.8620 ZZZZ=           -596.7873 XXXY=              0.0000
 XXXZ=              0.0000 YYYX=              0.0000 YYYZ=              0.9722 ZZZX=             -0.0000
 ZZZY=              1.2103 XXYY=           -110.7393 XXZZ=           -110.3671 YYZZ=           -174.5356
 XXYZ=              0.3543 YYXZ=              0.0000 ZZXY=              0.0000
 N-N= 4.502409899789D+02 E-N=-1.347225033600D+04  KE= 5.257244190336D+03
 There are a total of      108140 grid points.
 ElSum from          density=       84.0000030239
 ElSum from atomic densities=       84.0000015621

 Hirshfeld populations at iteration   1 (CX, CA, CB, DipXYZ):
               1          2          3          4          5          6
     1  C    0.000001   2.915843   2.915843   0.000000   0.000097  -0.028214
     2  Br   0.000015  17.496525  17.496525  -0.000000  -0.070369  -0.008354
     3  Br   0.000016  17.498913  17.498913  -0.000000   0.070051  -0.007509
     4  O    0.000008   4.088720   4.088720  -0.000000  -0.000004  -0.036649
       Tot   0.000039  42.000002  42.000002  -0.000000  -0.000225  -0.080726

 Dip from Atomic Chgs              0.000000  -0.014258  -0.412604
         Total Dipole             -0.000000  -0.014483  -0.493330

 Hirshfeld charges, spin densities, dipoles, and CM5 charges using IRadAn=      5:
              Q-H        S-H        Dx         Dy         Dz        Q-CM5   
     1  C    0.168313   0.000000   0.000000   0.000097  -0.028214   0.180585
     2  Br   0.006950   0.000000  -0.000000  -0.070369  -0.008354   0.025750
     3  Br   0.002174   0.000000  -0.000000   0.070051  -0.007509   0.020621
     4  O   -0.177440   0.000000  -0.000000  -0.000004  -0.036649  -0.226960
       Tot  -0.000003   0.000000  -0.000000  -0.000225  -0.080726  -0.000003
 Hirshfeld charges with hydrogens summed into heavy atoms:
              Q-H       Q-CM5   
     1  C    0.168313   0.180585
     2  Br   0.006950   0.025750
     3  Br   0.002174   0.020621
     4  O   -0.177440  -0.226960
 
 EQQ= 0.000000000000E+00 EQD= 0.000000000000E+00 EDD= 0.854367552696E-04
 EQQ+QD+DD= 0.854367552696E-04
 
 Breneman (CHELPG) radii used.
 GetVDW:  no radius for atom   2 atomic number  35.
 Error termination via Lnk1e in /home/wagner/chemistry/gaussian/g16/l602.exe at Mon Sep  5 02:15:37 2022.
 Job cpu time:       0 days 13 hours 24 minutes 20.0 seconds.
 Elapsed time:       0 days  0 hours 50 minutes 41.5 seconds.
 File lengths (MBytes):  RWF=  29492 Int=      0 D2E=      0 Chk=      2 Scr=      1
