 Entering Gaussian System, Link 0=/home/wagner/chemistry/gaussian/g16/g16
 Input=GAUSSIAN.com
 Output=GAUSSIAN.log
 Initial command:
 /home/wagner/chemistry/gaussian/g16/l1.exe "/home/wagner/chemistry/gaussian/work/Gau-72849.inp" -scrdir="/home/wagner/chemistry/gaussian/work/"
 Entering Link 1 = /home/wagner/chemistry/gaussian/g16/l1.exe PID=     72851.
  
 Copyright (c) 1988-2019, Gaussian, Inc.  All Rights Reserved.
  
 This is part of the Gaussian(R) 16 program.  It is based on
 the Gaussian(R) 09 system (copyright 2009, Gaussian, Inc.),
 the Gaussian(R) 03 system (copyright 2003, Gaussian, Inc.),
 the Gaussian(R) 98 system (copyright 1998, Gaussian, Inc.),
 the Gaussian(R) 94 system (copyright 1995, Gaussian, Inc.),
 the Gaussian 92(TM) system (copyright 1992, Gaussian, Inc.),
 the Gaussian 90(TM) system (copyright 1990, Gaussian, Inc.),
 the Gaussian 88(TM) system (copyright 1988, Gaussian, Inc.),
 the Gaussian 86(TM) system (copyright 1986, Carnegie Mellon
 University), and the Gaussian 82(TM) system (copyright 1983,
 Carnegie Mellon University). Gaussian is a federally registered
 trademark of Gaussian, Inc.
  
 This software contains proprietary and confidential information,
 including trade secrets, belonging to Gaussian, Inc.
  
 This software is provided under written license and may be
 used, copied, transmitted, or stored only in accord with that
 written license.
  
 The following legend is applicable only to US Government
 contracts under FAR:
  
                    RESTRICTED RIGHTS LEGEND
  
 Use, reproduction and disclosure by the US Government is
 subject to restrictions as set forth in subparagraphs (a)
 and (c) of the Commercial Computer Software - Restricted
 Rights clause in FAR 52.227-19.
  
 Gaussian, Inc.
 340 Quinnipiac St., Bldg. 40, Wallingford CT 06492
  
  
 ---------------------------------------------------------------
 Warning -- This program may not be used in any manner that
 competes with the business of Gaussian, Inc. or will provide
 assistance to any competitor of Gaussian, Inc.  The licensee
 of this program is prohibited from giving any competitor of
 Gaussian, Inc. access to this program.  By using this program,
 the user acknowledges that Gaussian, Inc. is engaged in the
 business of creating and licensing software in the field of
 computational chemistry and represents and warrants to the
 licensee that it is not a competitor of Gaussian, Inc. and that
 it will not use this program in any manner prohibited above.
 ---------------------------------------------------------------
  

 Cite this work as:
 Gaussian 16, Revision C.01,
 M. J. Frisch, G. W. Trucks, H. B. Schlegel, G. E. Scuseria, 
 M. A. Robb, J. R. Cheeseman, G. Scalmani, V. Barone, 
 G. A. Petersson, H. Nakatsuji, X. Li, M. Caricato, A. V. Marenich, 
 J. Bloino, B. G. Janesko, R. Gomperts, B. Mennucci, H. P. Hratchian, 
 J. V. Ortiz, A. F. Izmaylov, J. L. Sonnenberg, D. Williams-Young, 
 F. Ding, F. Lipparini, F. Egidi, J. Goings, B. Peng, A. Petrone, 
 T. Henderson, D. Ranasinghe, V. G. Zakrzewski, J. Gao, N. Rega, 
 G. Zheng, W. Liang, M. Hada, M. Ehara, K. Toyota, R. Fukuda, 
 J. Hasegawa, M. Ishida, T. Nakajima, Y. Honda, O. Kitao, H. Nakai, 
 T. Vreven, K. Throssell, J. A. Montgomery, Jr., J. E. Peralta, 
 F. Ogliaro, M. J. Bearpark, J. J. Heyd, E. N. Brothers, K. N. Kudin, 
 V. N. Staroverov, T. A. Keith, R. Kobayashi, J. Normand, 
 K. Raghavachari, A. P. Rendell, J. C. Burant, S. S. Iyengar, 
 J. Tomasi, M. Cossi, J. M. Millam, M. Klene, C. Adamo, R. Cammi, 
 J. W. Ochterski, R. L. Martin, K. Morokuma, O. Farkas, 
 J. B. Foresman, and D. J. Fox, Gaussian, Inc., Wallingford CT, 2019.
 
 ******************************************
 Gaussian 16:  EM64L-G16RevC.01  3-Jul-2019
                 5-Sep-2022 
 ******************************************
 %nproc=16
 Will use up to   16 processors via shared memory.
 %mem=16GB
 ----------------------------------------------------------------------
 # qcisd/aug-cc-pvtz nosymm density=current pop=(chelpg,hirshfeld,npa,d
 ipole)
 ----------------------------------------------------------------------
 1/30=1,38=1,172=1/1;
 2/12=2,15=1,17=6,18=5,40=1/2;
 3/5=16,6=1,7=10,11=9,25=1,30=1,71=1/1,2,3;
 4//1;
 5/5=2,38=5/2;
 8/6=4,9=120000,10=1/1,4;
 9/5=8,15=1/13;
 11/28=-7,31=1,32=3,42=3/11;
 10/5=6,13=10,31=1/2;
 6/7=2,8=2,9=2,10=2,15=24,20=3,22=-1,40=-1,79=1/1,2,7;
 99/5=1,9=1/99;
 ------------------
 br2co-wavefunction
 ------------------
 Symbolic Z-matrix:
 Charge =  0 Multiplicity = 1
 C                     0.        0.       -0.49176 
 Br                    0.       -1.59418  -1.54682 
 Br                    0.        1.59418  -1.54682 
 O                     0.01      0.        0.6845 
 
                          Input orientation:                          
 ---------------------------------------------------------------------
 Center     Atomic      Atomic             Coordinates (Angstroms)
 Number     Number       Type             X           Y           Z
 ---------------------------------------------------------------------
      1          6           0        0.000000    0.000000   -0.491759
      2         35           0        0.000000   -1.594181   -1.546820
      3         35           0        0.000000    1.594181   -1.546820
      4          8           0        0.010000    0.000000    0.684500
 ---------------------------------------------------------------------
                    Distance matrix (angstroms):
                    1          2          3          4
     1  C    0.000000
     2  Br   1.911692   0.000000
     3  Br   1.911692   3.188362   0.000000
     4  O    1.176302   2.742317   2.742317   0.000000
 Symmetry turned off by external request.
 Stoichiometry    CBr2O
 Framework group  CS[SG(CO),X(Br2)]
 Deg. of freedom     4
 Full point group                 CS      NOp   2
 Rotational constants (GHZ):           6.2846707           1.2598933           1.0495003
 Standard basis: Aug-CC-pVTZ (5D, 7F)
   210 basis functions,   578 primitive gaussians,   248 cartesian basis functions
    42 alpha electrons       42 beta electrons
       nuclear repulsion energy       449.2308240942 Hartrees.
 NAtoms=    4 NActive=    4 NUniq=    4 SFac= 1.00D+00 NAtFMM=   60 NAOKFM=F Big=F
 Integral buffers will be    131072 words long.
 Raffenetti 1 integral format.
 Two-electron integral symmetry is turned off.
 One-electron integrals computed using PRISM.
 NBasis=   210 RedAO= T EigKep=  1.05D-04  NBF=   210
 NBsUse=   210 1.00D-06 EigRej= -1.00D+00 NBFU=   210
 ExpMin= 3.51D-02 ExpMax= 1.06D+07 ExpMxC= 1.21D+04 IAcc=3 IRadAn=         5 AccDes= 0.00D+00
 Harris functional with IExCor=  205 and IRadAn=       5 diagonalized for initial guess.
 HarFok:  IExCor=  205 AccDes= 0.00D+00 IRadAn=         5 IDoV= 1 UseB2=F ITyADJ=14
 ICtDFT=  3500011 ScaDFX=  1.000000  1.000000  1.000000  1.000000
 FoFCou: FMM=F IPFlag=           0 FMFlag=      100000 FMFlg1=           0
         NFxFlg=           0 DoJE=T BraDBF=F KetDBF=T FulRan=T
         wScrn=  0.000000 ICntrl=       500 IOpCl=  0 I1Cent=   200000004 NGrid=           0
         NMat0=    1 NMatS0=      1 NMatT0=    0 NMatD0=    1 NMtDS0=    0 NMtDT0=    0
 Symmetry not used in FoFCou.
 Keep R1 ints in memory in canonical form, NReq=258584913.
 Requested convergence on RMS density matrix=1.00D-08 within 128 cycles.
 Requested convergence on MAX density matrix=1.00D-06.
 Requested convergence on             energy=1.00D-06.
 No special actions if energy rises.
 SCF Done:  E(RHF) =  -5257.68454019     A.U. after   12 cycles
            NFock= 12  Conv=0.90D-08     -V/T= 2.0000
 ExpMin= 3.51D-02 ExpMax= 1.06D+07 ExpMxC= 1.21D+04 IAcc=3 IRadAn=         5 AccDes= 0.00D+00
 HarFok:  IExCor=  205 AccDes= 0.00D+00 IRadAn=         5 IDoV=-2 UseB2=F ITyADJ=14
 ICtDFT= 12500011 ScaDFX=  1.000000  1.000000  1.000000  1.000000
 Range of M.O.s used for correlation:    21   210
 NBasis=   210 NAE=    42 NBE=    42 NFC=    20 NFV=     0
 NROrb=    190 NOA=    22 NOB=    22 NVA=   168 NVB=   168

 **** Warning!!: The largest alpha MO coefficient is  0.28106344D+02

 Semi-Direct transformation.
 ModeAB=           2 MOrb=            22 LenV=    2146226309
 LASXX=     69628944 LTotXX=    69628944 LenRXX=    69628944
 LTotAB=    70719517 MaxLAS=   129061680 LenRXY=   129061680
 NonZer=   139257888 LenScr=   209707008 LnRSAI=           0
 LnScr1=           0 LExtra=           0 Total=    408397632
 MaxDsk=          -1 SrtSym=           F ITran=            4
 JobTyp=0 Pass  1:  I=   1 to  22.
 (rs|ai) integrals will be sorted in core.
 Spin components of T(2) and E(2):
     alpha-alpha T2 =       0.3832268826D-01 E2=     -0.1232786292D+00
     alpha-beta  T2 =       0.1924963987D+00 E2=     -0.6175096833D+00
     beta-beta   T2 =       0.3832268826D-01 E2=     -0.1232786292D+00
 ANorm=    0.1126561927D+01
 E2 =    -0.8640669418D+00 EUMP2 =    -0.52585486071342D+04
 Keep R2 and R3 ints in memory in canonical form, NReq=504031907.
 CIDS: In Core Option IDoMem=           1.
 Iterations=  50 Convergence= 0.100D-07
 Produce multiple copies of IABC intergrals
 Iteration Nr.   1
 **********************
 DD1Dir will call FoFMem   1 times, MxPair=       506
 NAB=   253 NAA=     0 NBB=     0.
 MP4(R+Q)=  0.21479635D-01
 E3=        0.14172810D-03        EUMP3=      -0.52585484654D+04
 E4(DQ)=    0.26871691D-03        UMP4(DQ)=   -0.52585481967D+04
 E4(SDQ)=  -0.11698952D-01        UMP4(SDQ)=  -0.52585601644D+04
 DE(Corr)= -0.84244558     E(Corr)=     -5258.5269858    
 NORM(A)=   0.11248499D+01
 Iteration Nr.   2
 **********************
 DD1Dir will call FoFMem   1 times, MxPair=       506
 NAB=   253 NAA=     0 NBB=     0.
 DE(Corr)= -0.87234337     E(CORR)=     -5258.5568836     Delta=-2.99D-02
 NORM(A)=   0.11352500D+01
 Iteration Nr.   3
 **********************
 DD1Dir will call FoFMem   1 times, MxPair=       506
 NAB=   253 NAA=     0 NBB=     0.
 DE(Corr)= -0.87023885     E(CORR)=     -5258.5547790     Delta= 2.10D-03
 NORM(A)=   0.11380123D+01
 Iteration Nr.   4
 **********************
 DD1Dir will call FoFMem   1 times, MxPair=       506
 NAB=   253 NAA=     0 NBB=     0.
 DE(Corr)= -0.87276947     E(CORR)=     -5258.5573097     Delta=-2.53D-03
 NORM(A)=   0.11393252D+01
 Iteration Nr.   5
 **********************
 DD1Dir will call FoFMem   1 times, MxPair=       506
 NAB=   253 NAA=     0 NBB=     0.
 DE(Corr)= -0.87314396     E(CORR)=     -5258.5576842     Delta=-3.74D-04
 NORM(A)=   0.11398402D+01
 Iteration Nr.   6
 **********************
 DD1Dir will call FoFMem   1 times, MxPair=       506
 NAB=   253 NAA=     0 NBB=     0.
 DE(Corr)= -0.87320824     E(CORR)=     -5258.5577484     Delta=-6.43D-05
 NORM(A)=   0.11399442D+01
 Iteration Nr.   7
 **********************
 DD1Dir will call FoFMem   1 times, MxPair=       506
 NAB=   253 NAA=     0 NBB=     0.
 DE(Corr)= -0.87322255     E(CORR)=     -5258.5577627     Delta=-1.43D-05
 NORM(A)=   0.11399530D+01
 Iteration Nr.   8
 **********************
 DD1Dir will call FoFMem   1 times, MxPair=       506
 NAB=   253 NAA=     0 NBB=     0.
 DE(Corr)= -0.87322288     E(CORR)=     -5258.5577631     Delta=-3.37D-07
 NORM(A)=   0.11399681D+01
 Iteration Nr.   9
 **********************
 DD1Dir will call FoFMem   1 times, MxPair=       506
 NAB=   253 NAA=     0 NBB=     0.
 DE(Corr)= -0.87322096     E(CORR)=     -5258.5577611     Delta= 1.93D-06
 NORM(A)=   0.11399680D+01
 Iteration Nr.  10
 **********************
 DD1Dir will call FoFMem   1 times, MxPair=       506
 NAB=   253 NAA=     0 NBB=     0.
 DE(Corr)= -0.87322237     E(CORR)=     -5258.5577626     Delta=-1.41D-06
 NORM(A)=   0.11399708D+01
 Iteration Nr.  11
 **********************
 DD1Dir will call FoFMem   1 times, MxPair=       506
 NAB=   253 NAA=     0 NBB=     0.
 DE(Corr)= -0.87322350     E(CORR)=     -5258.5577637     Delta=-1.13D-06
 NORM(A)=   0.11399726D+01
 Iteration Nr.  12
 **********************
 DD1Dir will call FoFMem   1 times, MxPair=       506
 NAB=   253 NAA=     0 NBB=     0.
 DE(Corr)= -0.87322382     E(CORR)=     -5258.5577640     Delta=-3.16D-07
 NORM(A)=   0.11399736D+01
 Iteration Nr.  13
 **********************
 DD1Dir will call FoFMem   1 times, MxPair=       506
 NAB=   253 NAA=     0 NBB=     0.
 DE(Corr)= -0.87322428     E(CORR)=     -5258.5577645     Delta=-4.67D-07
 NORM(A)=   0.11399743D+01
 Iteration Nr.  14
 **********************
 DD1Dir will call FoFMem   1 times, MxPair=       506
 NAB=   253 NAA=     0 NBB=     0.
 DE(Corr)= -0.87322439     E(CORR)=     -5258.5577646     Delta=-1.10D-07
 NORM(A)=   0.11399746D+01
 Iteration Nr.  15
 **********************
 DD1Dir will call FoFMem   1 times, MxPair=       506
 NAB=   253 NAA=     0 NBB=     0.
 DE(Corr)= -0.87322446     E(CORR)=     -5258.5577647     Delta=-6.96D-08
 NORM(A)=   0.11399748D+01
 Iteration Nr.  16
 **********************
 DD1Dir will call FoFMem   1 times, MxPair=       506
 NAB=   253 NAA=     0 NBB=     0.
 DE(Corr)= -0.87322449     E(CORR)=     -5258.5577647     Delta=-2.88D-08
 NORM(A)=   0.11399749D+01
 Iteration Nr.  17
 **********************
 DD1Dir will call FoFMem   1 times, MxPair=       506
 NAB=   253 NAA=     0 NBB=     0.
 DE(Corr)= -0.87322449     E(CORR)=     -5258.5577647     Delta= 5.38D-09
 NORM(A)=   0.11399749D+01
 Wavefunction amplitudes converged. E(Corr)=     -5258.5577647    
 Largest amplitude= 4.23D-02

 Z-amplitude iterations

 Iteration Nr.   1
 **********************
 DD1Dir will call FoFMem   1 times, MxPair=       506
 NAB=   253 NAA=     0 NBB=     0.
 DE(Z)= -0.84604919     E(Z)=     -5258.5305894     Delta= 2.72D-02
 NORM(A)=   0.11399785D+01
 Iteration Nr.   2
 **********************
 DD1Dir will call FoFMem   1 times, MxPair=       506
 NAB=   253 NAA=     0 NBB=     0.
 DE(Z)= -0.84604919     E(Z)=     -5258.5305894     Delta=-5.58D-09
 NORM(A)=   0.11399730D+01
 Iteration Nr.   3
 **********************
 DD1Dir will call FoFMem   1 times, MxPair=       506
 NAB=   253 NAA=     0 NBB=     0.
 DE(Z)= -0.84604918     E(Z)=     -5258.5305894     Delta= 8.58D-09
 NORM(A)=   0.11399760D+01
 Iteration Nr.   4
 **********************
 DD1Dir will call FoFMem   1 times, MxPair=       506
 NAB=   253 NAA=     0 NBB=     0.
 DE(Z)= -0.84604919     E(Z)=     -5258.5305894     Delta=-3.67D-09
 NORM(A)=   0.11399745D+01
 Iteration Nr.   5
 **********************
 DD1Dir will call FoFMem   1 times, MxPair=       506
 NAB=   253 NAA=     0 NBB=     0.
 DE(Z)= -0.84604918     E(Z)=     -5258.5305894     Delta= 3.77D-09
 NORM(A)=   0.11300987D+01
 Iteration Nr.   6
 **********************
 DD1Dir will call FoFMem   1 times, MxPair=       506
 NAB=   253 NAA=     0 NBB=     0.
 DE(Z)= -0.84602887     E(Z)=     -5258.5305691     Delta= 2.03D-05
 NORM(A)=   0.11301213D+01
 Iteration Nr.   7
 **********************
 DD1Dir will call FoFMem   1 times, MxPair=       506
 NAB=   253 NAA=     0 NBB=     0.
 DE(Z)= -0.84600504     E(Z)=     -5258.5305452     Delta= 2.38D-05
 NORM(A)=   0.11301189D+01
 Iteration Nr.   8
 **********************
 DD1Dir will call FoFMem   1 times, MxPair=       506
 NAB=   253 NAA=     0 NBB=     0.
 DE(Z)= -0.84601721     E(Z)=     -5258.5305574     Delta=-1.22D-05
 NORM(A)=   0.11301215D+01
 Iteration Nr.   9
 **********************
 DD1Dir will call FoFMem   1 times, MxPair=       506
 NAB=   253 NAA=     0 NBB=     0.
 DE(Z)= -0.84601673     E(Z)=     -5258.5305569     Delta= 4.82D-07
 NORM(A)=   0.11301220D+01
 Iteration Nr.  10
 **********************
 DD1Dir will call FoFMem   1 times, MxPair=       506
 NAB=   253 NAA=     0 NBB=     0.
 DE(Z)= -0.84601716     E(Z)=     -5258.5305574     Delta=-4.32D-07
 NORM(A)=   0.11301220D+01
 Iteration Nr.  11
 **********************
 DD1Dir will call FoFMem   1 times, MxPair=       506
 NAB=   253 NAA=     0 NBB=     0.
 DE(Z)= -0.84601712     E(Z)=     -5258.5305573     Delta= 3.71D-08
 NORM(A)=   0.11301221D+01
 Iteration Nr.  12
 **********************
 DD1Dir will call FoFMem   1 times, MxPair=       506
 NAB=   253 NAA=     0 NBB=     0.
 DE(Z)= -0.84601708     E(Z)=     -5258.5305573     Delta= 3.67D-08
 NORM(A)=   0.11301221D+01
 Iteration Nr.  13
 **********************
 DD1Dir will call FoFMem   1 times, MxPair=       506
 NAB=   253 NAA=     0 NBB=     0.
 DE(Z)= -0.84601709     E(Z)=     -5258.5305573     Delta=-9.53D-09
 NORM(A)=   0.11301221D+01
 Z-amplitudes converged.
 Discarding MO integrals.
          Differentiating once with respect to electric field.
                with respect to dipole field.
          Electric field/nuclear overlap derivatives assumed to be zero.
 Keep R1 ints in memory in canonical form, NReq=258592272.
          There are     1 degrees of freedom in the 1st order CPHF.  IDoFFX=0 NUNeed=     1.
 LinEq1:  Iter=  0 NonCon=     1 RMS=1.95D-03 Max=5.61D-02 NDo=     1
 AX will form     1 AO Fock derivatives at one time.
 LinEq1:  Iter=  1 NonCon=     1 RMS=7.40D-04 Max=2.60D-02 NDo=     1
 LinEq1:  Iter=  2 NonCon=     1 RMS=3.09D-04 Max=9.34D-03 NDo=     1
 LinEq1:  Iter=  3 NonCon=     1 RMS=1.03D-04 Max=2.97D-03 NDo=     1
 LinEq1:  Iter=  4 NonCon=     1 RMS=5.33D-05 Max=1.64D-03 NDo=     1
 LinEq1:  Iter=  5 NonCon=     1 RMS=1.64D-05 Max=4.65D-04 NDo=     1
 LinEq1:  Iter=  6 NonCon=     1 RMS=6.29D-06 Max=1.31D-04 NDo=     1
 LinEq1:  Iter=  7 NonCon=     1 RMS=1.35D-06 Max=2.12D-05 NDo=     1
 LinEq1:  Iter=  8 NonCon=     1 RMS=2.69D-07 Max=4.30D-06 NDo=     1
 LinEq1:  Iter=  9 NonCon=     1 RMS=6.50D-08 Max=1.21D-06 NDo=     1
 LinEq1:  Iter= 10 NonCon=     1 RMS=1.39D-08 Max=2.08D-07 NDo=     1
 LinEq1:  Iter= 11 NonCon=     1 RMS=3.90D-09 Max=9.56D-08 NDo=     1
 LinEq1:  Iter= 12 NonCon=     1 RMS=7.18D-10 Max=1.62D-08 NDo=     1
 LinEq1:  Iter= 13 NonCon=     1 RMS=1.20D-10 Max=2.63D-09 NDo=     1
 LinEq1:  Iter= 14 NonCon=     0 RMS=1.91D-11 Max=4.35D-10 NDo=     1
 Linear equations converged to 1.000D-10 1.000D-09 after    14 iterations.
 End of Minotr F.D. properties file   721 does not exist.
 End of Minotr F.D. properties file   722 does not exist.
 End of Minotr F.D. properties file   788 does not exist.

 **********************************************************************

            Population analysis using the CC Density.

 **********************************************************************

 Alpha  occ. eigenvalues -- -490.06639-490.06639 -65.20634 -65.20633 -58.56165
 Alpha  occ. eigenvalues --  -58.56165 -58.56015 -58.56015 -58.55998 -58.55998
 Alpha  occ. eigenvalues --  -20.62832 -11.46326  -9.87941  -9.87940  -7.49128
 Alpha  occ. eigenvalues --   -7.49128  -7.48407  -7.48407  -7.48336  -7.48336
 Alpha  occ. eigenvalues --   -3.23523  -3.23522  -3.23165  -3.23164  -3.23070
 Alpha  occ. eigenvalues --   -3.23069  -3.22160  -3.22159  -3.22158  -3.22157
 Alpha  occ. eigenvalues --   -1.48397  -1.10818  -1.04780  -0.79379  -0.68341
 Alpha  occ. eigenvalues --   -0.67613  -0.63060  -0.47901  -0.46167  -0.45791
 Alpha  occ. eigenvalues --   -0.45104  -0.43156
 Alpha virt. eigenvalues --    0.03789   0.05638   0.07006   0.07542   0.08200
 Alpha virt. eigenvalues --    0.09327   0.09994   0.10256   0.10940   0.11867
 Alpha virt. eigenvalues --    0.13018   0.13181   0.17481   0.19374   0.21888
 Alpha virt. eigenvalues --    0.22371   0.23249   0.24158   0.25848   0.26652
 Alpha virt. eigenvalues --    0.27523   0.28943   0.31893   0.32940   0.35604
 Alpha virt. eigenvalues --    0.36769   0.37009   0.39728   0.41344   0.43786
 Alpha virt. eigenvalues --    0.44678   0.46414   0.46635   0.49562   0.49662
 Alpha virt. eigenvalues --    0.52592   0.55723   0.56293   0.58705   0.60140
 Alpha virt. eigenvalues --    0.60836   0.63136   0.69492   0.70119   0.71488
 Alpha virt. eigenvalues --    0.71869   0.74566   0.75884   0.77553   0.78528
 Alpha virt. eigenvalues --    0.79395   0.82305   0.83575   0.85028   0.88435
 Alpha virt. eigenvalues --    0.88445   0.89891   0.90093   0.91469   0.93823
 Alpha virt. eigenvalues --    0.94755   0.98081   1.00453   1.01611   1.02914
 Alpha virt. eigenvalues --    1.05486   1.06676   1.11241   1.13076   1.13256
 Alpha virt. eigenvalues --    1.17145   1.17717   1.18752   1.30603   1.34478
 Alpha virt. eigenvalues --    1.36373   1.36482   1.40583   1.43881   1.44825
 Alpha virt. eigenvalues --    1.44907   1.45490   1.51423   1.52388   1.53186
 Alpha virt. eigenvalues --    1.62932   1.63535   1.70597   1.74581   1.79852
 Alpha virt. eigenvalues --    1.95196   2.10715   2.16498   2.17067   2.17670
 Alpha virt. eigenvalues --    2.19029   2.23325   2.24531   2.25293   2.26797
 Alpha virt. eigenvalues --    2.27143   2.27413   2.28645   2.28996   2.29667
 Alpha virt. eigenvalues --    2.30141   2.32563   2.32676   2.32728   2.34003
 Alpha virt. eigenvalues --    2.35697   2.36377   2.37243   2.37824   2.38002
 Alpha virt. eigenvalues --    2.39337   2.39353   2.40508   2.46609   2.48752
 Alpha virt. eigenvalues --    2.53273   2.55809   2.58658   2.59602   2.67061
 Alpha virt. eigenvalues --    2.70572   2.72923   2.76496   2.78571   2.88193
 Alpha virt. eigenvalues --    2.93453   2.97609   3.01166   3.09869   3.48929
 Alpha virt. eigenvalues --    3.58149   3.59171   3.59785   3.61824   3.67587
 Alpha virt. eigenvalues --    3.73499   3.83767   3.86409   3.89900   3.96055
 Alpha virt. eigenvalues --    4.12129   4.13807   4.48754   4.50074   5.01183
 Alpha virt. eigenvalues --    5.12624   5.14788   5.33891   5.47824   6.57477
 Alpha virt. eigenvalues --    6.58685   6.86255   6.88075   7.04528   7.16239
 Alpha virt. eigenvalues --    7.16986   7.22093   7.37313   7.49970   7.67767
 Alpha virt. eigenvalues --    7.68206  13.54855  15.29098
          Condensed to atoms (all electrons):
               1          2          3          4
     1  C    5.559274   0.025716   0.025716   0.239627
     2  Br   0.025716  35.045278  -0.118487  -0.056241
     3  Br   0.025716  -0.118487  35.045278  -0.056241
     4  O    0.239627  -0.056241  -0.056241   8.229992
 Mulliken charges:
               1
     1  C    0.149667
     2  Br   0.103735
     3  Br   0.103735
     4  O   -0.357136
 Sum of Mulliken charges =  -0.00000
 Mulliken charges with hydrogens summed into heavy atoms:
               1
     1  C    0.149667
     2  Br   0.103735
     3  Br   0.103735
     4  O   -0.357136
 Electronic spatial extent (au):  <R**2>=           1355.6188
 Charge=             -0.0000 electrons
 Dipole moment (field-independent basis, Debye):
    X=             -0.0084    Y=              0.0000    Z=             -1.2406  Tot=              1.2406
 Quadrupole moment (field-independent basis, Debye-Ang):
   XX=            -46.9635   YY=            -44.9354   ZZ=            -47.5250
   XY=             -0.0000   XZ=             -0.0227   YZ=             -0.0000
 Traceless Quadrupole moment (field-independent basis, Debye-Ang):
   XX=             -0.4889   YY=              1.5392   ZZ=             -1.0503
   XY=             -0.0000   XZ=             -0.0227   YZ=             -0.0000
 Octapole moment (field-independent basis, Debye-Ang**2):
  XXX=             -0.1434  YYY=              0.0000  ZZZ=            164.8152  XYY=             -0.0302
  XXY=              0.0000  XXZ=             56.3133  XZZ=             -0.0309  YZZ=              0.0000
  YYZ=             45.7163  XYZ=              0.0000
 Hexadecapole moment (field-independent basis, Debye-Ang**3):
 XXXX=            -53.7005 YYYY=           -570.9326 ZZZZ=           -597.1000 XXXY=             -0.0000
 XXXZ=             -0.1282 YYYX=             -0.0000 YYYZ=             -0.0000 ZZZX=             -0.1893
 ZZZY=              0.0000 XXYY=           -111.3608 XXZZ=           -110.4168 YYZZ=           -175.0957
 XXYZ=             -0.0000 YYXZ=             -0.0923 ZZXY=             -0.0000
 N-N= 4.492308240942D+02 E-N=-1.347021894918D+04  KE= 5.257230023713D+03
 There are a total of      108140 grid points.
 ElSum from          density=       84.0000032626
 ElSum from atomic densities=       84.0000018096

 Hirshfeld populations at iteration   1 (CX, CA, CB, DipXYZ):
               1          2          3          4          5          6
     1  C    0.000001   2.915461   2.915461  -0.002111  -0.000000  -0.028353
     2  Br   0.000015  17.498111  17.498111   0.001026  -0.071285  -0.008017
     3  Br   0.000015  17.498111  17.498111   0.001026   0.071285  -0.008017
     4  O    0.000008   4.088318   4.088318   0.000104   0.000000  -0.036004
       Tot   0.000040  42.000002  42.000002   0.000045  -0.000000  -0.080391

 Dip from Atomic Chgs             -0.003338   0.000000  -0.407687
         Total Dipole             -0.003293  -0.000000  -0.488077

 Hirshfeld charges, spin densities, dipoles, and CM5 charges using IRadAn=      5:
              Q-H        S-H        Dx         Dy         Dz        Q-CM5   
     1  C    0.169078   0.000000  -0.002111  -0.000000  -0.028353   0.181629
     2  Br   0.003777   0.000000   0.001026  -0.071285  -0.008017   0.022224
     3  Br   0.003777   0.000000   0.001026   0.071285  -0.008017   0.022224
     4  O   -0.176636   0.000000   0.000104   0.000000  -0.036004  -0.226080
       Tot  -0.000003   0.000000   0.000045  -0.000000  -0.080391  -0.000003
 Hirshfeld charges with hydrogens summed into heavy atoms:
              Q-H       Q-CM5   
     1  C    0.169078   0.181629
     2  Br   0.003777   0.022224
     3  Br   0.003777   0.022224
     4  O   -0.176636  -0.226080
 
 EQQ= 0.000000000000E+00 EQD= 0.000000000000E+00 EDD= 0.836850418908E-04
 EQQ+QD+DD= 0.836850418908E-04
 
 Breneman (CHELPG) radii used.
 GetVDW:  no radius for atom   2 atomic number  35.
 Error termination via Lnk1e in /home/wagner/chemistry/gaussian/g16/l602.exe at Mon Sep  5 10:44:26 2022.
 Job cpu time:       0 days 13 hours 20 minutes 59.6 seconds.
 Elapsed time:       0 days  0 hours 50 minutes 30.3 seconds.
 File lengths (MBytes):  RWF=  29492 Int=      0 D2E=      0 Chk=      2 Scr=      1
